/*--------------------------------*- C++ -*----------------------------------*\
| =========                 |                                                 |
| \\      /  F ield         | OpenFOAM: The Open Source CFD Toolbox           |
|  \\    /   O peration     | Version:  v1906                                 |
|   \\  /    A nd           | Web:      www.OpenFOAM.com                      |
|    \\/     M anipulation  |                                                 |
\*---------------------------------------------------------------------------*/
FoamFile
{
    version     2.0;
    format      ascii;
    class       surfaceScalarField;
    location    "10.85";
    object      alphaPhi0.water;
}
// * * * * * * * * * * * * * * * * * * * * * * * * * * * * * * * * * * * * * //

dimensions      [0 3 -1 0 0 0 0];
oriented        oriented;


internalField   nonuniform List<scalar> 
92311
(
0.203926165836
-0.000194287454066
-0.00102104575335
-0.203608738803
0.000897766055276
-0.000207703246756
0.204132263229
-0.000722700157711
0.000724116475519
0.203985233285
-0.000439096840823
-0.00106993969481
-0.203638246726
0.000967694481971
-0.000413166518788
0.204198451188
-0.000696388500027
0.000688348482405
0.204078954794
-0.00022907627245
-0.000307089595536
-0.000977144798986
-0.203448408289
0.000973005517605
-0.000230368742884
-0.000299025843448
-0.000259685765957
-0.000195073391713
-0.00018785011712
0.204447542131
-0.000579065051302
0.000706839587164
-0.000266917986427
0.0511678860337
-9.1717257423e-05
-0.000117261747928
-9.38502703827e-05
-0.000113350649408
-0.000272639143602
-0.050999455971
0.000291376729316
-0.0512946933909
0.0513418682319
-7.97377046273e-05
-9.61515002977e-05
-9.83242263291e-05
-7.61871264386e-05
-0.000173599290972
0.000217377655755
1.43478113772e-05
-0.000246768312002
1.83626896429e-05
1.67900147421e-05
2.22234294262e-05
-4.29457502361e-05
7.83808510148e-05
5.72334099951e-06
5.98515767456e-05
-0.00107598763953
0.000127952770033
2.62512476752e-06
0.000848140756312
3.17846704801e-06
4.9570443137e-06
4.01706578205e-06
7.08370980679e-06
2.37690652534e-05
2.79158099507e-29
1.95082969552e-08
7.71566063558e-08
7.98376217294e-11
-1.30432741934e-23
8.18495870567e-10
1.04298881335e-09
5.20437919386e-11
-0.000112871789795
-0.000113468196074
-0.000116912236079
-0.000114442492477
-0.000203837568747
0.000227888221926
0.000118439128584
0.0103214177205
-0.000119598715708
0.000103010236143
-0.010374924417
0.0101501633025
-2.17246354711e-05
0.000129995545321
-0.0101948941426
-0.000109842094023
9.62986402275e-05
0.000209644539687
-4.84138522258e-05
0.0513221298724
-4.46108898455e-05
-6.53657029491e-05
-6.10231418061e-05
-0.000165350202805
-3.36394580014e-05
0.0512897800885
-3.27687404449e-05
-5.82570266893e-05
-5.89719945664e-05
-0.0513047929398
0.000220658936488
-1.43426382416e-05
0.000103472612426
0.0101170122347
-0.000100608201
9.05685344464e-05
5.08388824066e-05
0.0128087238231
-5.30329559907e-05
-3.076422567e-05
-0.0128226082378
0.0128058298394
5.22009186758e-05
-1.74346326387e-05
-0.0128221484626
-0.000168075049999
0.204046592248
-0.0017576940264
0.00154430321455
-0.203665163715
0.204210792322
-8.77779489199e-05
-0.000274218699469
0.000281926756144
-7.33391895895e-05
0.204342540084
-0.000145421040613
8.84539005947e-05
-0.000326398861479
0.204037788377
-0.00169540935062
0.00150676561581
-0.203690887138
0.204365486951
-0.000199774055302
-0.0004063050482
0.000350399621379
-0.00011167731248
0.204514733095
-0.000192281036686
8.22553287153e-05
-0.000199569652246
-0.000215821024619
-0.000205890302296
-0.00152766439664
0.203895189391
0.00142759219677
-0.203308946192
-0.00019133270017
-0.000128986385161
-0.000105051309242
-0.000101190098263
-8.3517629486e-05
0.204602867698
-0.000247117019319
0.000310794035642
0.0510364288845
-7.08380613364e-05
-6.08353342176e-05
-7.30555551658e-05
-6.15503078999e-05
-0.000392304905071
-0.0509636813695
0.000386313315592
0.0513140083103
0.000187379664025
-4.39750712989e-05
-3.758984937e-05
-3.5409021055e-05
-3.90519987491e-05
-0.000152026544063
6.53843536689e-05
2.38667711541e-06
-0.00118080167501
5.03413967131e-06
4.66129294418e-06
6.046713755e-06
4.18669698113e-06
-3.56170028334e-05
0
0
0
7.34993875759e-30
0
0
0
0
0
0
0
0
3.46962827295e-29
0
1.47793585891e-28
0.00030025532291
-8.06207934354e-05
-9.35527177894e-05
-8.10970844094e-05
-9.39515372197e-05
0.0511612497752
-0.000291669197503
-7.45873978592e-05
-9.13670431053e-05
-7.44876706803e-05
-9.00251298982e-05
0.0510755898867
0.000296775882315
-0.0509474972829
-2.05712348446e-06
7.00398355089e-05
0.01052415575
2.06921820182e-05
-6.06040413422e-05
-0.0105354763568
-2.1275532392e-06
0.000118464312067
-0.0104610737813
6.56807658793e-06
-5.32983899442e-05
0.0104023487861
-8.8026401417e-05
0.0127052281058
-7.38229264481e-05
7.84193447608e-05
-0.0126973516368
0.000125139335515
-3.39607837395e-05
-3.99362608638e-05
-3.84924677543e-05
-2.80792108167e-05
0.051327127916
-0.000102701571168
0.0512618331314
-2.60702809228e-05
-9.44008859814e-06
-2.5640378866e-05
-1.48068475877e-05
0.00019029301315
-1.45035256684e-05
-1.5787512203e-05
-1.90151728277e-05
-2.50862188966e-05
0.0512336387805
0.000144484567539
5.23342248859e-05
-5.98699438792e-05
-2.17223317448e-05
0.0127949616463
-1.21673147901e-05
4.23139826945e-05
-0.0100231741113
1.03724307493e-05
0.0099936410708
7.80700607134e-06
5.43871654816e-05
-1.09199391723e-05
0.0127896293524
-0.0127720941984
4.86460223006e-06
0.0127590038992
-5.24132724984e-05
4.66690809002e-05
-0.000522708990507
2.30584027673e-05
2.50152093839e-05
2.52968550718e-05
2.14831496376e-05
0.000118994645501
4.58306872646e-06
2.09612630447e-06
1.90895270258e-06
3.99897332402e-07
5.61409545663e-06
4.88552612763e-06
-0.000787578115062
0.000260303710455
0.000601969248801
-1.38151333014e-06
-6.69634977084e-06
9.76989257394e-06
2.30861377566e-06
7.63263037632e-06
-4.60222238552e-06
-1.49164071332e-06
3.60044711254e-06
8.26315183453e-06
1.74543396373e-05
1.28484087888e-05
7.65806243095e-05
0.000150079464162
4.38687787115e-08
9.78682815485e-06
2.48809754395e-06
6.46539872143e-05
0.0127471809291
-6.52582539914e-05
-0.0127185737293
-0.0127412626642
-0.000157085412725
-5.7404813458e-05
0.0127763307984
6.45179597197e-05
-0.000120555722827
0.000149313880395
0.0102531876342
0.000102880252212
0.000128420426731
0.010311114331
-0.010365920577
-0.000133442485125
-0.0127123013704
7.1417278565e-05
0.0102397352231
-0.000129954721636
0.012785843641
-5.76237617712e-05
0.0128095359663
-0.000150913698712
-5.17313009712e-05
5.96323403906e-05
5.07646013012e-05
-0.0128182285551
0.0128375547445
-5.04863422076e-05
-0.000115314766218
0.000145394273812
9.94748597753e-05
0.000139746716554
-0.0101812065046
0.0101323196856
-0.000119453027346
0.0128297494811
5.67555645901e-05
-0.000126375079589
-5.01776565684e-05
-0.0128451790897
-7.10702544781e-05
-4.51438422152e-05
0.0128360007521
4.85720928146e-05
4.46733055737e-05
0.0128482810424
-4.52870105044e-05
-9.62134294795e-05
6.07362494629e-05
0.0101117469442
8.65006958447e-05
0.000115320443434
0.0100917154005
-0.000108498740066
4.94620066922e-05
0.0100770771565
-9.81538706104e-05
0.0128362071759
-4.59873925053e-05
-3.10374114873e-05
-0.0128184330491
0.0128046571632
-5.14547766163e-05
-5.95554333941e-05
-0.0101066000567
0.010093505786
6.30777868733e-05
-0.0100661286024
-5.19562538378e-05
0.0100570996753
-5.06894744232e-05
-5.05611119929e-05
5.16234462579e-05
-7.91225122173e-05
4.27294198537e-05
7.38139120291e-05
-7.5964195128e-05
-4.90539622805e-05
-8.0639517373e-06
-0.0128188063259
0.0128018806551
4.55704222964e-05
-5.51997502489e-05
-0.0100663848225
0.0100755066119
-0.0100463046681
0.0100542898022
-6.02461408212e-05
5.36873706204e-05
-4.54310909201e-05
-0.0128352526653
4.2463123544e-05
8.09277106168e-05
-0.0100530248774
-8.30981246877e-05
-0.0128294306009
4.90451830838e-05
-0.0100724634321
5.92379752244e-06
-0.000101269303612
2.55142155386e-06
5.26260523388e-06
3.64137778292e-06
1.84680887115e-06
-4.18876375612e-05
-4.10684600357e-05
4.94608297707e-05
-6.35334797872e-07
-1.49783056484e-06
2.37756646643e-06
6.2787812236e-07
-5.1056244384e-05
5.5492747035e-06
2.42464261732e-06
1.65107028326e-06
2.06061233392e-06
-0.000229523553285
0.00011863765679
3.25957495733e-05
4.24224475264e-06
1.10906700711e-06
1.92555054467e-06
8.99877379341e-07
-0.000145263606654
-0.000106788145909
-5.1599528344e-07
-4.78259251825e-07
6.1051539878e-07
7.14904039305e-07
-3.11058525536e-07
-1.03823855163e-06
1.33784016819e-06
-0.000846847224023
-5.78585008944e-06
-1.65740823907e-05
-2.26097566077e-05
-6.15822753889e-06
9.08399699156e-05
1.89915743468e-06
-4.43105673307e-06
-1.15050509455e-06
-3.41759482806e-06
2.00049282033e-06
8.35363582526e-07
0.000166671881805
-7.36783570229e-06
4.40029216624e-07
4.92321122773e-06
2.66022090488e-06
-0.000832404992653
-0.000219326435646
2.25401810205e-06
-2.65628318115e-06
-8.56438222289e-07
1.52049811667e-06
1.04953254637e-05
6.36793695469e-06
6.80358893253e-06
-0.0011291721315
4.80894497411e-05
-2.47900362272e-06
2.66338309059e-06
-8.59177573269e-05
-0.0127140951586
-8.3708088454e-05
0.0127226355884
9.0231515549e-05
0.0127288081855
9.91603415295e-05
-9.83507494231e-05
-0.0127203714057
8.6855077057e-05
1.63151663517e-05
0.0105014031368
-6.30112700674e-05
6.66130184346e-05
0.0105278409056
-0.0105388084738
-1.68555350707e-05
0.0127373293982
-8.05880725136e-05
-0.0127097018453
9.99118248549e-05
0.0105062294355
-2.79287410972e-05
-6.53784555e-05
0.0127328061058
-9.81139057037e-05
7.28534794385e-05
-0.0127480950727
5.09036143704e-05
-3.93798988319e-05
0.0127621880824
9.94810730964e-05
1.16576564734e-05
-5.91771572024e-05
0.000120648543705
-0.0104665602469
-4.2605241374e-05
0.0104069797116
-5.74922342152e-05
6.23643382759e-05
0.0127485269728
-3.45661186803e-05
0.0104481943841
6.41737581676e-05
-9.47679431777e-05
-0.0104844992341
0.000119781042813
7.30114131476e-05
0.0103856528324
-0.000103118472671
-6.57716374075e-05
0.0127261673712
7.29229055752e-05
0.0127166041824
-8.49961174352e-05
-0.0127076528448
0.000114464652995
-0.0104561782012
0.010393986034
0.0127376723663
-0.0104929514689
-3.03259328568e-05
0.0127963613106
-5.79139076272e-05
-4.12489552587e-05
0.0100785463608
4.93759884719e-05
0.0100453094835
-2.8319377459e-05
-6.23317318631e-05
-1.94706783284e-05
0.0127902040054
5.19193520793e-05
3.86600461081e-05
-2.17888585103e-05
0.0100516930314
3.45897662475e-05
0.0127958564157
-6.12171668891e-05
0.0100252989748
-3.52054039645e-06
-5.76548754206e-05
0.0127860246598
-1.73131974981e-05
4.59672360503e-05
-0.0128000248684
4.68881247865e-05
0.0128062759873
-4.90686142029e-05
4.27890772741e-05
-9.54413922866e-06
2.42243889171e-05
1.92118739796e-05
-0.0100059050764
2.74272852774e-05
0.00999102026494
-5.6279313065e-05
3.423054653e-05
0.0127908802885
1.13472146562e-05
-0.0127842020062
9.06581670874e-06
-5.51449237515e-05
4.9602457303e-05
-1.67136719033e-06
4.90327233678e-05
-3.12967587957e-05
0.0100748273746
0.0100521706017
-3.61911890685e-05
2.90314924826e-06
0.0100558593222
-9.12023519158e-06
-7.06123569272e-06
0.0127794705798
0.0100658480532
0.0100587713364
-1.39456371445e-05
1.29113346145e-05
1.06929134251e-05
-3.17807354416e-05
0.010049314442
3.36445881498e-05
-4.10332967404e-05
0.012756252037
3.90799486994e-05
0.0127713317697
-1.65647398292e-05
3.10104173569e-05
-0.0100579642048
0.0100397044664
0.0127713978973
-0.000116429225229
-0.000115337380607
-0.000129693817136
9.19431717093e-06
0.204924214607
-0.000126581724782
4.59100425959e-05
6.97659190582e-05
-3.20593454123e-05
-3.94775527088e-05
-3.81446473121e-05
-3.01435152447e-05
-5.20158085539e-05
0.0513328873269
1.07832587437e-05
-0.000331825821663
1.5028916087e-06
9.59366008015e-06
8.97449854576e-06
9.41696546634e-06
0.000148992534343
-0.00101270763793
0
0
0
-1.04301118002e-28
-5.26932155618e-29
0
-2.49059828064e-29
-0.000108835574783
-9.37830187778e-05
-9.12526591203e-05
-0.000111850401381
0.00023033437545
-0.000243175387909
0.0512216152573
-1.39366001254e-05
0.000128687958805
7.44913450509e-05
0.0103296697509
0.0512378247749
-4.45512435145e-05
-2.91991227373e-05
-3.60707197262e-05
-4.01496473054e-05
0.000100421301319
0.0512552494546
-4.41279527335e-05
-5.047009191e-05
-4.74028290473e-05
-4.26521103534e-05
1.43949836372e-05
2.33117384955e-05
3.45661409682e-05
0.00996823600488
1.92810270166e-05
-5.35135598813e-07
-5.13180400037e-06
2.77016336229e-05
-4.66650458909e-05
0.0100320052495
4.55878985661e-05
0.00994973074037
-1.06910550192e-05
5.45386892247e-05
-4.6663967382e-05
-0.00997437434674
4.45991007567e-05
0.0512829298662
-3.40000966066e-05
-4.45907906839e-05
-3.94055713157e-05
-4.08300822392e-05
0.000110579439315
7.91868019796e-05
-5.8471106823e-05
-1.9940409775e-05
-1.98942198112e-05
-1.44150769923e-05
-2.61841458317e-05
6.18367816728e-05
0.000137740046782
0.0512726973381
-0.000108881958389
-9.20081872535e-06
4.84680035746e-05
-3.93044635797e-05
0.0099246562911
3.88969988819e-05
-2.54441466846e-06
7.89674077216e-06
-6.15151377068e-06
-0.00989635112342
0.00989252942106
4.56269017933e-06
1.20582717232e-05
1.7799198222e-05
1.50348593442e-05
-8.05009935478e-06
-0.000216443822608
5.38932465811e-06
-0.000793151663662
7.73651966832e-07
1.01752941847e-05
7.02563515921e-06
1.08915398167e-05
-0.000418474263558
1.06565857959e-06
-0.000725371332046
9.00902050425e-06
9.46918442075e-06
9.90410802436e-06
0.000387194741545
-0.000504158010352
-1.25677043516e-06
2.05706540929e-06
-1.60446687725e-06
-1.30995922804e-06
-1.69223762672e-07
1.087574872e-06
-1.61315997565e-07
1.93823717477e-07
-0.000676228401028
7.19412926182e-06
7.51350311329e-06
6.11333121485e-06
0.00033649244706
6.74564873278e-07
-0.000419533766869
3.32022057935e-06
4.60012288761e-06
5.20219285736e-06
9.29156780066e-05
-1.23483644822e-08
-0.000587827831324
-0.000191203468527
-0.0127626869647
-0.000145846445101
4.95368631941e-05
-4.42157126545e-05
0.0127959977349
-5.58887255821e-05
0.0127525969456
0.00011995053968
0.0103382084197
4.7549085621e-05
7.82475508377e-05
0.000153284264843
0.0102599098325
-5.1278932873e-05
5.0370442099e-05
0.0102724678463
0.0127878956248
-1.57452976265e-05
-0.0127938670156
-2.07375937603e-05
6.71603924853e-06
0.0127933407341
0.0128104095751
3.12108801901e-05
-3.80789935956e-05
1.93435559854e-05
2.33733479849e-05
-3.72037027271e-06
0.00995451048794
2.01981554008e-05
0.00997834448897
3.8176042027e-05
-2.57834134516e-05
0.0128037130879
1.97505787764e-05
4.43674707796e-05
0.00996284463726
-0.0127721052074
-5.06376505331e-05
1.27027929118e-05
0.0127736196268
-2.73527969736e-05
0.0127520934333
3.04573656613e-05
4.33394659846e-05
0.0100138566939
-5.24296960561e-05
4.59287407008e-05
0.0100015775157
5.21591183066e-05
0.00998252236595
0.0127541596058
1.72154289694e-05
0.0127746893224
-4.64140183668e-05
-1.17119609833e-06
4.00977715939e-06
1.61091565744e-05
-0.0127563596866
0.012758323631
-1.24778789343e-05
4.27020718148e-05
-0.00995791782812
0.00993878206017
-4.8221086552e-05
-5.02435345361e-05
5.02022136783e-05
4.99442675598e-05
0.0127743816796
1.33126012062e-05
-4.76730237193e-05
5.43783002869e-06
-0.0127720984652
-2.42884285948e-05
-2.49001149762e-05
0.012767666069
2.05591588889e-05
2.27167341337e-05
0.01276029284
-1.9259410873e-05
3.28632733001e-05
0.00992755088502
-4.21301767862e-05
-2.96774684467e-05
3.54114939775e-05
0.00990688896665
2.64992688549e-05
1.97187562923e-05
0.00992347261283
-3.30098582952e-05
0.0127604345782
-2.9238594707e-05
0.0127676533565
-1.50395957114e-05
-2.4771313714e-05
2.04406182776e-05
2.23788219041e-05
-0.0127620754036
0.0127593996946
-3.12838693418e-05
6.58375927395e-06
-0.00992223032176
-5.98135789593e-06
0.00992491528091
-2.13868272184e-05
2.09470686892e-05
1.7463582464e-05
1.78669817766e-05
0.0127645422188
-2.04220915031e-05
-3.07419845976e-05
-0.000727300651111
-0.0499845317683
0.0501587279716
0.000954627148375
-0.00021980931764
-0.000243495551774
-0.000234633406166
-0.000234330307001
0.000530672145817
-0.000988268728871
0.0506197722323
-0.000123407002337
-0.00015195369784
-0.000140589780438
-0.000138541537936
0.000382567789627
-0.0504058598202
0.000946203611602
-0.00125249441846
-0.0507831387821
0.0509873220677
0.00111506974637
3.23067626547e-05
-2.99205507722e-05
2.76513223793e-05
-1.68099070863e-05
-8.02591075013e-05
-0.000953381073599
5.77428264783e-05
2.57158801772e-05
4.90082912961e-05
3.51416693993e-05
-5.92865619483e-05
0.0509064014291
0.000812243448939
-0.050873711392
3.71392448706e-05
0.00013084849121
0.000817637402554
-0.00106820443355
-5.44327799966e-05
3.17714630525e-06
3.87800888252e-05
3.18453135491e-05
3.18596188748e-05
-2.29412599018e-05
0.0013349430338
-0.00142537899099
0.000207645209425
-6.42500607549e-06
-9.50543581934e-05
-4.48274771759e-05
-0.000118614313984
-2.24184572824e-05
1.59442899797e-05
-7.44358250831e-05
-0.00138597188954
5.43400728799e-07
1.34502558781e-05
1.26433154673e-05
1.02607223774e-05
0.00132450835195
5.39549112226e-05
-5.06944483629e-05
-0.000278030824941
0.00134243263049
-0.00112761706277
0.000205841963346
-4.79430103381e-06
-8.78401355276e-05
-5.69428983728e-05
-8.82932958731e-05
-7.25356803687e-05
-0.000114700307717
-8.84608040996e-05
-8.36184103475e-05
-9.45324901246e-05
-0.000913726721462
1.24047430261e-05
-4.82910785641e-06
0.00121141864299
1.4190494774e-06
-2.09294864909e-07
-2.21294195147e-07
-1.86029955097e-07
-3.80400938808e-07
-9.95993039851e-08
1.30945682616e-07
-5.59821541043e-07
-1.86486801729e-07
6.21814328387e-08
7.34752962646e-07
2.44731402265e-07
1.3863718573e-06
7.17425804171e-07
2.38631247343e-06
8.69774923273e-07
-1.32745503134e-07
-3.65568815259e-08
7.54663117246e-08
1.68302595212e-07
1.27335990402e-07
-5.68990787898e-07
-7.51263821155e-08
6.92434485913e-08
1.08018936502e-07
4.1017121453e-07
1.21133929171e-06
3.67811900833e-07
2.95334451021e-07
2.3481449155e-07
7.54038296763e-08
8.43818930205e-08
-2.53660388889e-07
-4.76074044448e-08
1.78921915413e-07
4.50050390563e-08
6.10080346707e-07
4.54708042899e-08
7.37471392649e-07
2.14068678004e-07
-1.87771014856e-08
0.000195685238293
-0.000251429268273
-0.000274676966823
-0.000291249087343
-0.000242745655074
0.0497126590621
0.00070934704621
9.50147219765e-05
-0.0496527170398
0.0497442972708
0.000530651314832
-0.000257577661788
-0.000299357454747
-0.000295191785892
-0.000267159724904
0.000734845633505
-0.0496946689718
-3.70374125872e-05
0.000336606485566
-0.0111713756838
5.14986877324e-06
0.0110342241425
5.20466503949e-06
0.0108868842092
8.30019699091e-05
-4.80172141447e-05
0.000383471058944
-5.74765536128e-05
-0.0110364559322
-0.000246027269399
-0.000257482812638
-0.000254558801332
-0.000243256965814
-0.000351363344798
0.0124927778761
0.0124071488818
0.0124779501219
0.0124643433049
0.00052746562892
9.94923943047e-05
-4.13238906464e-05
0.000353834218269
-7.33338725561e-05
0.0107486181438
0.000789782139633
-0.000249256780194
-0.000281689932738
-0.000249831709496
-0.000273424837286
0.000663938752635
-0.0498528279949
0.050210823613
-0.000215234836221
-0.00022177009117
-0.000237369143433
-0.00020403037291
0.000596773092694
-0.0500208037712
0.000881688194304
0.0108610712766
-4.10798358865e-05
0.000364735051656
-0.0109990808543
8.85200172948e-05
0.0108416232567
-2.41026892342e-05
0.000253539965275
-6.44889957616e-05
-0.0109480495312
3.55594876343e-05
0.00121710570287
-0.000142036358428
-0.000108624835066
-0.000152324758822
-8.98192573522e-05
0.0502199284837
-0.000246179721464
-0.000197742743551
-0.000268511288184
-0.000189491944231
1.63906401791e-05
4.67624911691e-05
2.03774662456e-05
3.26283130442e-05
0.0504038327557
-0.000188682022271
-0.000186334451947
-0.000201138345536
-0.000169124424773
0.000518293921038
0.0506507754643
0.00114058054248
-0.000122581698368
-6.36636230735e-05
-8.00703968962e-05
-0.000108996744388
0.000204031371239
0.000331885893253
0.010730368895
0.000114332395773
0.0104401586694
-1.66856850869e-05
0.000117035285212
-0.0104942263879
0.000149012210802
-0.000146625085017
5.77496177967e-05
-1.8925521098e-05
0.000220952335611
-9.00407371186e-05
0.0107466094517
0.0105357534887
8.36947426808e-05
-4.9414682409e-07
5.57541419608e-05
-0.000114302410595
-0.010592936346
0.0508329687888
4.58753987797e-05
-1.87844784683e-05
-3.38027202803e-05
4.71122913357e-05
-0.00132925123506
-0.000146226397568
0.00132705066832
9.85182838632e-05
0.000144142713325
9.80585023308e-05
0.000150549290578
0.0512226514458
-0.000490929969365
-0.00171725545377
5.7286940569e-05
0.0103581896554
0.000143746035415
-0.00015079678698
0.000222921129564
-0.000239680244002
-0.010199788791
0.000140997936707
0.0101689323721
-0.000145621050093
7.66617659588e-05
6.42333781323e-05
2.09188802616e-05
-0.000105289007323
0.0104574176412
9.05321174697e-05
0.000191281627962
-0.000169381698754
-0.000107679867584
-0.0102997012849
0.0102423101701
0.00100951974663
-8.77278693041e-05
-6.65896016128e-05
-0.000102200821554
-5.22801867973e-05
0.000276336053546
0.0508380772687
-6.69532966968e-05
-2.31009931773e-05
-3.7670670446e-05
-5.96275294537e-05
0.000220866750136
-0.0507310970231
0.000868715249803
0.000192105735673
0.0107816043382
3.10373132906e-05
-0.0108698527619
0.0105685531803
-3.05709514665e-07
5.62049685827e-05
-0.0106287438416
5.78485387154e-05
0.0106234854648
2.93125495799e-05
9.56780606801e-07
-2.93260803925e-05
-0.0106766226642
2.42708468558e-05
0.00109769610637
6.68080358201e-05
0.000102510738677
6.35870605672e-05
0.000103571102919
0.0511213559588
-0.000241259937917
0.0509718223734
3.24647184858e-05
1.39051617147e-05
-1.00809430678e-06
4.15831886082e-05
-5.92222612355e-05
5.88018179153e-05
9.38758072976e-05
6.60477361546e-05
8.67519018444e-05
0.0510352627864
0.00093776181
-0.000209198594678
2.64171322985e-05
0.0104928197753
5.52267427323e-05
0.000167225506744
-0.000137717977059
-0.0103331571647
7.2881329069e-05
0.0102732200578
2.64309828422e-05
6.74151363668e-05
-2.01897005392e-05
-3.02550813503e-05
0.010557218554
4.68036565271e-05
0.000145095411997
-0.000124258613712
-5.37524312019e-05
-0.01044764232
0.0103945585239
-3.93091148758e-05
0.0105762860706
3.04513773031e-05
-0.0106360396714
-0.00011535916458
-0.0104761434883
0.0104247572937
0.000129636350726
4.99465191457e-05
-3.39654750738e-05
2.90643605724e-05
4.43377139594e-05
3.38700685058e-05
-0.00064369677236
-0.00010718640471
0.000603481331094
3.32586634197e-06
-0.000696529696128
-0.000156682038851
4.38332546919e-05
3.95506832611e-05
3.45417278111e-05
0.000610188587944
4.0474999552e-06
3.77019313776e-06
3.88291259122e-05
4.53092453826e-05
4.46327002235e-05
8.40409325827e-05
-0.000864265007105
-2.32439338691e-06
-2.05214034326e-06
-2.82202026528e-06
8.94754045591e-07
2.48420017087e-06
-2.136835092e-06
-3.68737091949e-06
-1.49053156217e-06
1.04901212379e-06
-3.4183403078e-06
-3.6574969998e-06
3.41771787642e-06
-4.66477723892e-06
-2.53722885349e-06
-1.30602049751e-06
-8.95121308184e-06
-3.61469803997e-06
7.16645389757e-06
6.62995256677e-06
-4.89586956251e-06
-6.63645523649e-06
2.76531923187e-05
8.18074669625e-06
-6.92499829967e-06
-2.19186040162e-06
7.67800039457e-06
-3.28863303001e-06
-4.492533265e-06
2.6016992643e-05
-0.000219884793895
3.34928616723e-05
3.71101001928e-05
3.30424910302e-05
4.94667112611e-06
0.000652321538207
-0.00102825390673
2.99149568151e-05
2.18408723584e-05
2.657604855e-05
0.000821545647217
3.81137773239e-06
-0.000190908743636
0.000158728559851
-2.65657215166e-07
2.61668547153e-05
1.00706783374e-05
1.78813826596e-05
3.97928232773e-05
-0.00125022675405
1.06022670259e-06
2.51644492386e-05
1.65995272894e-05
2.27344238855e-05
-1.44232945238e-06
-0.0013807260138
0.000260040431563
4.40637287969e-06
6.6524570334e-06
1.18890220408e-05
-4.66537539953e-06
-3.85229073206e-06
4.73106850208e-06
-2.39008077122e-06
-2.85462021523e-06
-4.48557492651e-06
-3.65873687106e-06
5.52832039321e-06
-2.05046210543e-06
-2.21499496794e-06
8.90876061492e-05
-1.69700200992e-05
-0.000164819562812
-0.000239644259641
-0.00018092697279
-0.000987234978269
5.91876097046e-05
-0.00130814421963
-6.18464153107e-06
-5.40221260623e-05
-0.000111788242594
-0.000105145346912
-1.29219630521e-05
0.000191685572423
-0.000203596983256
-0.000155162834911
-0.000152803489373
-0.000855043602165
-7.15266315228e-07
-1.0604189404e-06
-5.00627068091e-07
1.59448852576e-08
4.56735741099e-07
-4.00804010466e-07
9.37918084712e-07
1.60546899827e-06
0.00018966070081
-1.57891271449e-06
6.32833133279e-06
-6.91413177585e-06
4.03232840621e-06
-1.68876674906e-06
-0.00121755063225
-1.8050220357e-05
-5.693404691e-06
1.54653118546e-06
0.00132210892418
7.1071998204e-05
-3.25282844664e-06
5.05939564599e-06
-2.81310610229e-06
-1.95613250142e-06
-7.96471872074e-07
2.04957794506e-07
2.47863449787e-06
-1.6793157866e-06
0.000175988829192
-8.26059786985e-06
-0.000137293246573
-0.000163829694466
-0.000131427703742
-0.000645164003025
-0.000971233753463
-4.51539759575e-06
-5.62339330193e-05
-8.59858853324e-05
-7.54565298843e-05
-6.03437488175e-06
-0.000135975115839
-0.000121262921026
-0.000112595186876
-0.000544916147963
0.000113672484421
1.46884541064e-06
-6.00697624118e-07
1.47488145589e-07
3.64764613296e-06
2.31080026166e-06
-7.62319475178e-07
4.55370201635e-06
-6.27786236113e-07
0.0124782664434
-0.00032934189584
1.38011932668e-05
3.28748630669e-05
-0.0124450612866
9.69103222043e-07
-0.0124693969389
0.0124885415874
4.42071812007e-05
-7.40883700728e-06
0.000302293421276
1.71588415071e-05
-0.011287250012
0.000367660526533
-0.0111452028288
3.22030448864e-05
0.0109950541412
5.8247650364e-05
0.0125001151888
1.4201353629e-05
-0.0112689834545
4.64274903478e-05
-0.0124403518984
0.0124937021707
8.17779138874e-05
-0.000341690677473
-0.0124557330116
-0.000115457095756
-0.0125098476586
0.0125415683717
0.0001715180665
0.000375814671444
-0.0110997732695
0.0109502735018
0.000353948264938
-3.70390816205e-05
6.54203510272e-05
-0.0111603809436
0.0125204650926
0.000134746836772
-0.0124727969803
-0.0112197951116
-0.0125540681403
0.000174302550782
-0.000330900504978
-0.000102302091837
0.0125700738222
-0.000129905121056
0.0125857333658
0.0001860087287
0.000347892756907
0.0108102194002
-4.31719814217e-05
0.000320057487174
-9.45090992382e-05
0.000120309726279
0.0106178031609
-6.6872837246e-05
0.000233338888023
0.0126071983546
-5.92717184669e-05
0.0106660169456
-0.000180449895538
0.012566895227
-0.00031781659528
0.000203704006102
-0.0125182355601
-0.0125399754548
0.000219693932774
0.0125785045847
0.000338196575179
7.00706358611e-05
-0.0111120845513
0.000332059223189
-0.0109471482654
7.97301178134e-05
0.0108206187755
-0.0124943434576
0.000241039884439
0.0126077931849
6.78166835131e-05
-0.0110579925062
0.0125876144196
0.000224058183259
-0.000279394023996
-0.0125410560203
-0.000256306158632
-0.0126075014809
0.0126471546624
0.000250950551474
0.000291346761554
-0.0109552261639
0.0108368061459
0.000242012743568
-5.23042557127e-05
-0.011038491345
2.50306028535e-05
0.0126295957273
-0.0125654314617
0.00022209787217
-0.0110560398149
-0.000270589638247
-0.0126531393882
-0.000258009307923
0.0126836759954
0.000281313126041
0.0126259237949
0.000230986636956
0.000302404885617
0.000130380568951
0.0106060016851
0.000296256576079
0.0106971185636
0.000108909477813
0.012659697388
0.000251225151252
0.010590950909
0.000123047679145
-0.000282509844093
0.0127185998066
-0.000180721315179
0.000287769516994
-0.0127003801117
0.000305416232498
0.0126963540848
-0.000293346720395
0.000222127914841
0.000142488053003
-0.000132901674932
8.41236612763e-05
-0.0104984560671
0.000142511330042
0.0104398947907
-0.000251711511052
0.000302174409879
0.0127151112877
0.000133295487025
-0.0126749495868
0.000287455579577
-0.00021780027319
0.0126999220888
-0.000265200802125
0.0126911699445
0.000258223207075
0.000257568629267
0.0107277083755
0.000178476934288
-9.88701907419e-05
0.0106639700915
6.97515051008e-05
0.0127126883373
0.000276818926915
0.0106320998316
0.0127291173338
0.000287743334247
-0.000151037165957
-0.00029752417615
-0.0127362117733
0.012737328622
0.000287171153311
7.77115930715e-05
-0.0105496938127
0.0104962183164
0.000123958255859
-0.00010829984638
7.46437509455e-05
0.0127301834709
0.00027931452817
-0.000333339616705
-0.0127321987348
9.69450612928e-05
0.0127206202897
0.000328500007636
-8.19486887047e-05
0.012709593764
0.000322018939402
3.90334039265e-05
-0.000317763259678
-7.75591988039e-05
0.000144105033127
0.0102729197002
-0.000142540710369
3.02925255774e-05
0.0103631679077
0.000132657933048
0.0127011378276
-7.57449899664e-05
-0.000327993809769
0.000315560460176
1.68592811432e-05
0.0102979210285
0.000131869226312
-0.000349057974773
0.000151230514801
0.0127544385841
0.000338194153794
-0.0001757048586
-0.012737748683
0.000362763292305
0.0127509412485
-0.000375795657137
-0.000240922628918
-0.000138099604166
0.000133448520984
-0.000141077636097
-0.0102205677492
-0.000253828106171
0.000127835157094
0.0101885302933
-0.000354051941601
-0.000171120962069
0.000116266840627
0.000351002146048
0.0127557470911
-0.000244572316348
-0.0127416972396
0.000314208106578
5.82551551112e-05
0.0127423676718
-0.000301778782395
0.0127509791384
0.000288388386169
3.33089835341e-05
0.0104172888812
-6.26045253595e-05
-0.000107942187172
0.0103897498201
8.16318627307e-05
0.0127514111368
0.000297548394789
0.0103445122705
0.000309284689389
0.000104789906444
0.0127638584953
-0.0127654820307
-0.000315457359264
0.00029680197461
0.0127580387409
-0.010259658187
-0.00018593370736
0.0102112182871
-0.000102918438168
-9.65214230441e-05
7.38566585215e-05
0.000289428181985
0.0127630020124
-0.000274261307778
-0.0127144900213
-0.000127512849793
0.0127312772754
0.000262107359337
0.0127032255578
0.000256610149
-0.0126599071834
0.00015818718902
4.22944340864e-05
0.0107045528865
0.00016114619709
0.0107976330405
-0.010880587135
9.67293685134e-06
0.0127244110931
-0.0126763053176
0.000242238802529
0.0107229686572
2.03016046815e-05
-0.000272937602204
0.0127431626576
-9.01719606985e-05
0.000263206082113
-0.0127412652789
0.000275791724436
0.0127413291751
0.000112607764528
4.96015250809e-05
4.02438374511e-05
-0.0106521636049
3.93227166261e-05
0.0105966324402
0.000264222927608
0.012741340128
3.210288849e-05
0.0127472735065
0.000248507328031
-6.14336130369e-05
-0.0127385144177
-0.000249012185753
-0.0127482545169
0.0127438875539