/*--------------------------------*- C++ -*----------------------------------*\
| =========                 |                                                 |
| \\      /  F ield         | OpenFOAM: The Open Source CFD Toolbox           |
|  \\    /   O peration     | Version:  v1906                                 |
|   \\  /    A nd           | Web:      www.OpenFOAM.com                      |
|    \\/     M anipulation  |                                                 |
\*---------------------------------------------------------------------------*/
FoamFile
{
    version     2.0;
    format      ascii;
    class       volScalarField;
    location    "10.85";
    object      p;
}
// * * * * * * * * * * * * * * * * * * * * * * * * * * * * * * * * * * * * * //

dimensions      [1 -1 -2 0 0 0 0];


internalField   nonuniform List<scalar> 
28582
(
17099.4630763
17097.7889839
12201.6730399
12199.6327356
7304.0350589
7300.87410603
3632.6531097
3627.42079111
47.3267430275
51.1498696873
-27.0981795753
3629.58898516
652.699621809
649.521514407
3626.40214969
3625.47684795
648.451904788
1788.62280907
1787.62143577
17099.7518975
17096.6592052
17096.3916373
12202.2296278
12198.5580219
12198.2838755
7305.78216381
7299.65160682
3634.73445527
3626.11205515
52.5544796098
-27.1056240677
-27.0385600524
3633.42635404
3634.53635215
648.739779089
649.310963444
1801.59866722
3626.07283717
3625.24287746
3625.82218177
1789.25461601
654.382761824
1788.45664004
1790.01049793
49.0791548086
52.7825370512
-22.8494255031
-22.8265139567
50.209190135
-22.8667765583
1799.4927462
1796.85535425
652.184655588
653.050155451
1799.41430775
652.572716643
1797.05769075
1793.8693514
1791.52006139
650.874125875
649.996504073
1790.97085528
651.363687301
1794.22519497
1787.97406722
1789.73139798
648.401190393
648.845357178
1788.91690084
648.659841082
1789.12575261
1789.91846215
650.337641267
650.251852364
1788.01050772
649.192378122
649.180522653
1789.32168915
1786.72620878
649.915826801
649.606046607
1786.92815116
648.534902004
1785.97225422
648.974108942
44.0323291441
-23.0319909168
42.8075583801
43.1428163435
-23.0933107752
-23.0557584836
54.0098248655
-22.8689846793
-22.8487585577
55.2840217974
-22.887324333
54.0562877429
-22.8685161462
1800.76310161
1800.31797684
648.631694205
648.984782947
1799.85526245
1801.0504097
649.079374846
1800.3846359
1798.90158299
648.83597125
650.017281485
1799.38210236
1799.86414536
649.438766865
651.026422416
651.693637426
1800.91002774
1801.05435495
650.902290908
1800.47829258
650.270146354
1790.41909025
651.732016892
651.835719037
1789.85458668
652.872246179
1790.67344175
653.210653035
1790.24225333
1790.26209278
653.718589849
655.138419073
1790.62490159
1790.30655285
654.297892369
1788.86477303
1787.63748191
651.701733072
651.678700861
653.778691403
1789.47077343
653.431627513
655.596003322
656.835213209
1790.81019831
1790.28282688
656.015891437
1790.68919065
654.93593263
7299.00294458
3625.82291743
55.6378046374
-27.0614066219
3632.35367524
652.029865947
3626.02767634
3625.63382287
654.892160769
657.739331268
658.259575737
3625.04589215
3624.33016811
658.068555501
657.894791246
45.7041002888
56.5946268124
57.933840736
-22.8752548669
-22.8874913918
-22.901989072
58.9102757119
59.709466883
1797.01568991
1799.41342613
651.322319736
651.43516555
1799.13640889
650.825835164
1797.09243609
1789.89611423
1789.87053047
655.461728961
655.769297071
1789.56083677
1790.16431871
656.255932113
1790.28790396
1791.0504979
656.710238586
658.174398498
1790.65300457
657.075634514
1790.77094505
1789.73993879
1789.49414524
657.430921253
658.294659411
1789.07438032
657.294841698
1790.2248638
1787.94214403
1788.66833734
657.425758247
657.98494886
1788.44611067
657.537980188
1787.87831252
1787.62028995
1786.89715701
657.849625922
657.887006339
1787.3173925
657.690210659
1787.34568248
3630.22377325
3626.43799737
3623.39216271
3625.17760981
30.072362238
35.1650791296
29.8680415857
35.7224009232
36.8555744333
-27.1928778846
-27.3670819482
-27.1463992079
-27.2568941002
-27.0822610145
-27.1710461832
3644.66973458
3641.354258
635.319142263
631.833143877
3634.6538471
627.879454034
3636.95582085
3633.20693884
630.4236957
626.985979404
3625.17296367
3627.55283416
3624.08651253
626.634371483
618.173918365
624.336898746
622.326686679
3622.09321014
3623.87082828
619.58881741
637.503939228
624.645488666
639.536971265
3624.10923383
3624.19430345
624.494034344
623.868570547
626.680794768
3625.52778607
3624.36561799
3627.00964838
626.424205341
640.015817867
630.052457816
642.134428505
630.864019248
642.992391091
26.0479788336
27.3505982224
29.2551865823
-22.9742374301
-22.8849511767
-22.9633847324
-22.8889328571
-22.9198566558
-22.9478366235
-22.9246049164
-22.8924741783
28.3529189553
28.4835251899
31.9244002059
29.9319313179
31.8223280045
-22.9573877657
-22.9445652747
-22.9702130188
-22.9679053323
42.3694787475
35.4552619515
41.6488724762
-23.0109752744
-22.8115548463
-23.0315122936
-22.8377558447
31.9398740222
32.3580836465
-22.9495250482
-22.9579164064
-22.9598208856
40.9212312367
36.2729557765
40.7985353435
-23.0310509289
-22.8776470864
-23.0121513917
-22.9025899127
1809.80724938
1804.65787441
638.665918343
634.951639412
1802.76923727
638.702660799
1811.40504935
1807.07439443
1796.62223242
633.591599014
635.777070936
1799.94768221
1803.71464034
637.520788476
1786.34645179
1789.95476451
629.46774249
624.23382227
1793.26480361
1783.37337012
625.723231758
1797.36188344
1793.74948076
633.835775235
628.809020376
1800.42115017
1791.28973081
631.801217891
1795.29261279
1788.72743538
627.733736068
629.246132249
1789.74205889
1793.66177388
630.460477967
1780.03577318
1787.41811469
623.080271061
625.348802368
1781.22328299
1785.51451083
622.468069559
1776.53427219
1775.15386351
619.67371367
619.014899702
1776.56351273
1776.03904423
619.784295705
1779.93005924
1784.19680494
624.556021179
622.735977709
1784.52530819
1780.52771535
622.242928635
1777.47222015
1778.93616336
620.591997269
621.712311688
1777.31991357
1778.8936964
620.490439138
1777.84484284
1776.16993317
624.373245241
620.888765905
1776.77872076
1777.64966595
625.60694009
1780.56412824
1783.51770574
631.100807595
638.300126421
1779.56469467
631.977709658
1784.44215338
1779.27074562
1780.26142239
622.85290616
628.938318957
1778.69966654
1780.98018818
627.356226618
1781.73481255
1786.72208272
638.834089691
634.043898305
1783.3127889
632.95273075
1785.42828315
1781.95329798
1784.23227119
623.440438988
624.569841002
1781.32005426
1784.19733952
623.802539947
1781.12859271
1780.22205202
622.853528596
625.033460726
1780.08122677
1781.50977429
623.55174317
1781.85996982
1783.07865905
625.908112413
624.290412845
1782.50673493
1782.3963415
623.854302789
1784.10767764
1781.43714365
630.46188223
627.803070695
1782.57896291
1782.80399828
631.732509718
1786.41826525
1787.99291128
634.969699451
640.616278021
1784.83799791
635.994922444
1789.43270033
1785.30990683
1784.03304608
629.034024628
633.804276129
1783.71737316
1786.29257261
632.875943474
1787.73556052
1791.94525679
641.323261638
637.971804007
1789.01122916
636.998208639
1790.71430365
1787.90362414
1784.56417062
634.721853341
631.483585079
1787.15645242
1785.08252503
635.535865717
1793.07229371
638.933445724
1790.10140084
17098.064517
17096.5466365
17095.7885443
17096.7582406
17097.5510124
17107.5722368
12200.3603856
12198.6900598
12197.962963
12198.2388988
12198.5612183
12208.9080761
18312.0522814
18316.289815
17088.984249
17093.754106
17097.7531632
17100.8942348
17106.3671912
17086.8253233
18313.4197295
18316.641512
17093.9398451
17094.9144305
17095.5011593
17095.297205
17094.3555765
17105.7102282
17094.5497346
17093.6773009
17093.8141162
17094.4679876
17095.1587679
17095.5405118
17095.8836585
17108.3233996
17097.7328586
17096.1668516
17095.3514707
17095.4313617
17095.8309529
17095.9397393
17096.1337576
17108.7370282
17095.8602749
17096.2311114
17096.9374516
17108.3171165
13412.0618642
13416.3085539
12194.7416256
12197.2871014
12200.4501362
12205.6802573
12249.7343977
12118.7793105
13415.3734703
13418.5831009
12198.6376444
12199.2288363
12198.106646
12195.9930912
12191.4356347
12187.5879731
12196.0633652
12196.3340987
12197.0188569
12197.1334393
12196.8142434
12196.0693526
12195.0234327
12205.4821398
12199.9976088
12198.5586359
12197.8439575
12197.8431905
12197.7990045
12196.9782806
12195.7350598
12207.7950233
12197.7535627
12197.5227507
12197.4550838
12209.1231886
8512.57964377
8517.91847586
7298.70659457
7299.27315004
7299.3115322
7298.98864965
7304.45984513
7226.68371571
8517.06686506
8521.33450401
7296.49529747
7297.37663353
7296.42151335
7292.4167265
7280.30423102
7267.71887183
7299.01919756
7298.45185089
7298.25181957
7297.75315313
7296.9977904
7294.52327829
7288.09583863
7302.19516698
7305.17023218
7303.10015089
7300.9449366
7299.56223464
7298.97819239
7298.17756379
7296.11597726
7292.01088087
7305.26208034
7302.97906946
7300.51918658
7299.41949261
7298.44969885
7297.27539589
7295.08893432
7308.02859728
7298.03219512
7296.35321677
7308.24267428
3618.34658221
3623.07109737
3627.52629056
3629.01002292
3626.87837364
3626.66730252
3626.72811551
3597.17828776
3620.03503917
3620.68933343
3623.90195811
3625.71033084
3625.18830992
3623.65217175
3622.81627756
3619.28271728
3605.5862147
3628.04820156
3628.1677601
3625.98820184
3625.51248817
3625.75737599
3624.5631867
3623.57822973
3622.83401383
3620.53214589
3620.70009144
3632.85812302
3630.88269627
3628.35441345
3626.73681583
3625.97368885
3625.68364194
3624.20235952
3622.52724586
3625.5013938
3631.67817174
3628.00159126
3627.04395759
3626.14538929
3624.60109854
3624.04773724
3626.39459949
3624.85568685
3624.29828522
3626.19517767
44.7342480151
45.7220461843
47.179398685
52.1593925001
58.1052517914
59.6687393212
59.9546872421
62.1625892875
47.6074557432
47.2890861748
46.4477680676
47.634541308
49.6746211763
53.8329512621
57.248108382
58.8689140004
61.4578100209
64.383125713
45.9136401957
46.41651876
45.5833698368
47.1734416675
49.447335909
51.0802611746
54.5417650609
58.4418417219
62.723631046
65.8023663257
44.8895032815
44.429520089
45.735935347
47.0225870351
48.4463154216
51.6248835185
56.4658448611
61.0920524742
63.9831253463
44.6174805583
46.681150162
48.8345459327
52.5168806131
56.4893127272
59.1046963289
61.1706300392
58.2571761484
59.375027257
59.5402909971
-27.0889586416
-27.0726441757
-27.0821743781
-27.1014205104
-27.1440661001
-27.296380779
-27.0709872234
-27.0813738904
-27.2367135176
-27.7436946968
-27.2991853641
-27.1625332334
-27.1218125028
-27.2030560699
-27.1204887384
-27.4311036067
-27.0111589205
-27.1225980684
-27.2224765053
-27.6477738137
-27.3745451571
-26.9868302567
-27.0998683425
-27.0919627257
-27.1114767376
-27.0915770753
-27.2796106217
-27.116410063
-27.2828451417
-27.6914907806
-26.9882918937
-27.1151418731
-27.0919273313
-27.1102920244
-27.0713691397
-27.0943458514
-27.1033398861
-27.26528425
-27.6871825461
-27.0909193344
-26.9962080968
-27.2141622431
-27.0963567564
-27.1144413132
-27.2514642555
-27.6646881075
-27.0864754973
-27.2459411997
-27.7156536635
18314.3999438
18312.0928822
18314.5082578
15862.3942959
15864.9931774
15862.7419455
15865.0503687
18317.3587153
18316.5922878
18317.9632611
15866.9562166
15864.0289904
15866.6575944
15866.1861218
18314.9918642
18315.7184443
18316.1181581
15864.2146705
15866.1300616
15866.3208218
15867.3127641
18317.8263379
18317.0125519
18318.139368
15867.743204
15868.2058649
15868.7032474
15869.9413958
13414.5744672
13413.1458555
13415.3227105
10961.7019382
10964.663853
10963.223493
10965.8741247
13417.2464035
13416.5884312
13418.2346361
10966.6498087
10967.7611025
10967.4803224
10968.0286986
13417.2368264
13417.1104025
13418.461063
10966.0264611
10968.2947459
10968.1410403
10969.1438244
13419.2099558
13419.7562005
13423.552066
10969.6299509
10966.6886735
10969.8865911
10973.2200692
8515.73077729
8514.3887767
8517.07789553
6064.8345405
6067.83020356
6066.54618725
6068.84765211
8519.34840001
8519.104097
8520.47307571
6070.30807125
6072.25126492
6070.99293346
6073.84745324
8519.42908701
8519.41757778
8520.40541715
6068.70446541
6070.7158354
6070.85438292
6071.85702507
8518.28599898
8521.12172162
8523.62659369
6072.416
6072.54698245
6072.8122999
6075.13686345
3615.68703193
3617.7828866
639.557605951
643.172082519
3620.62653421
3619.55868211
3621.30477385
640.566462811
644.459412586
643.674728692
646.261701052
3625.3468949
3623.4022673
3625.21935594
645.056197689
647.533855212
646.892061056
648.866664135
3628.93182949
3626.52791736
3626.98865845
649.025373637
654.55424689
650.240840044
654.04837615
3628.0270622
3626.59923101
3625.70005455
656.227962555
657.453932918
654.456323502
654.454122898
3626.15187506
3624.7516511
3624.27499799
656.991469359
656.605932053
654.496407437
655.948337232
3627.6416189
3624.54303295
3625.11084446
657.050019911
660.161245116
656.94858323
659.906651822
3616.43005741
3624.30734478
3615.81675508
661.106474682
660.612049061
660.440828209
658.731105866
3579.26633445
3599.28120792
3603.26104744
661.043036959
619.766692557
657.433603524
639.520995612
3626.37388636
3626.25949335
643.062558886
648.526647421
644.990100595
651.645093932
3619.84723451
3624.78324457
3623.30866813
647.001335379
643.918987831
650.340647557
646.687204882
3622.29307569
3622.88419388
3623.48322124
644.00129749
646.332276441
645.906529173
646.58866463
3625.07188415
3624.54408174
3625.72082007
647.167728452
649.526394201
647.323553428
650.346783214
3625.62331234
3626.46571852
3626.1786644
650.917720061
653.61101779
651.069309521
650.982327547
3624.40425223
3625.06404009
3624.01622367
653.502143111
653.363087131
650.505358392
651.493353968
3623.05830738
3623.45596627
3622.92025505
653.694304095
655.981449064
652.448018374
656.250390344
3622.15439569
3622.40188432
3621.4764418
657.054852778
659.724606713
657.567197675
659.942452216
3613.87477412
3619.49090039
3616.5063386
660.631467882
659.166152437
660.660432304
661.453016219
3623.52561047
3613.48235376
3633.17263846
658.416287657
642.47303593
662.189351734
645.377265755
3629.05773673
3629.56952282
3631.00998642
645.003237078
652.000682315
646.225344619
651.883139652
3627.00339444
3630.79795875
3630.11286878
650.794767134
647.630023931
651.33475476
649.03568002
3625.35548361
3628.65553633
3627.31509103
646.68472352
646.600949485
647.821414679
646.588572436
3625.80452282
3626.64602997
3626.33095974
647.232167779
649.936114423
646.992592976
648.609094427
3625.27915763
3626.02749773
3625.64688114
650.290184662
649.89324832
648.569663314
647.77391182
3623.95775619
3625.21438538
3624.99807676
649.689893753
650.493247534
647.951020716
649.514031563
3623.23372745
3624.85217333
3624.51461801
651.384768266
656.661894413
650.735367557
656.116709381
3621.9424327
3623.70767039
3622.74630155
657.889897845
659.6444126
657.059088412
658.320621359
3619.83271144
3621.68359709
3621.83150224
660.311742593
662.343326993
659.529049598
663.03324273
3636.68408283
3623.63049405
3638.21949944
663.658030104
644.548094162
664.888523664
640.263781024
646.844748238
651.888088506
3632.33014255
3634.0672453
651.425881468
649.118620554
649.26774901
3629.34507273
3633.05192937
3631.62954538
647.966879726
646.818053709
648.506305877
648.605384327
3627.45945304
3630.31256434
3628.77142754
647.24108029
648.299804374
648.975839101
647.873442279
3626.21572936
3627.49332732
3626.85926965
648.121307812
647.467540833
647.111443947
647.909448141
3625.87129758
3626.66113511
3626.63453251
647.765271512
649.670220781
648.9291821
651.504534596
3625.18117066
3626.48875009
3625.62400388
651.180481482
655.644454282
652.275573828
654.355618185
3623.25110904
3624.54432013
3623.71218311
656.079249809
657.790741231
654.733007714
657.374996559
3623.26669747
3623.43580011
3624.20896866
659.151863089
662.954114147
658.205036566
661.29335778
3638.7356229
3626.29915017
3638.65293377
664.678710095
640.093841973
662.222760198
638.184651564
3629.5691315
3629.74512876
649.779230409
647.706077895
648.789526219
3627.27439628
3627.94448562
3627.10569082
646.816634248
648.269893011
647.851286345
650.005657345
3626.79103298
3626.85905752
3626.58563532
649.453242914
652.078968487
651.355343128
653.500580793
3625.30128408
3626.04511913
3625.33515845
652.33554242
654.868745999
653.895633675
656.328996365
3624.14309564
3624.74911455
3624.38562435
655.542620318
657.400267362
656.93715814
658.076275986
3624.58070202
3624.28221745
3624.69428939
658.058314843
660.725065438
658.39640212
658.928902697
3638.25580331
3626.08716666
3637.58781774
661.425302206
637.356102039
659.248230905
636.720373669
3625.35646695
656.629685893
3624.44564924
657.025039461
657.990888908
3624.74230895
658.30056613
658.54012853
3637.2196786
658.652813074
637.29524956
-23.0203523647
-23.0670496002
-22.9265225418
-23.0124676365
43.9640611809
45.5364568833
-23.1176875553
-23.1426666715
-23.0471585714
-23.0772073116
45.8009361224
46.0341187211
46.7822819344
-23.1174247789
-23.0698924701
-23.0875885175
-23.0460972299
45.8518982106
46.813176004
47.0278363135
-23.043661171
-22.9910808938
-23.0375052828
-22.9954769964
49.0871352066
48.4144557998
50.7056466963
-22.967832905
-22.9020912826
-22.9738047832
-22.8923522361
55.4615251404
53.4441543739
56.0882802632
-22.782763563
-22.7350496074
-22.7884572568
-22.7696349271
59.6732478609
58.0761199278
59.2185367425
-22.6048544492
-22.6053630785
-22.6610185354
-22.6727000056
59.4230941882
59.444953699
59.8437592085
-22.7359247252
-22.8271970516
-22.776854345
-22.8682621465
61.7453518221
60.2124341703
63.0884426036
-22.8908186589
-22.9151464347
-22.9144699206
-22.9287662579
67.0990435043
62.4691306011
68.8362084423
-22.967055349
-22.8329785764
-22.9898390552
-22.8304232567
49.1814370068
47.2515054877
49.3612413628
-22.827959154
-22.9579276945
-22.8332239281
-22.9673239146
46.3806579998
47.2197115747
46.2304382047
-23.003624212
-23.0406294334
-23.0337741344
-23.0986214539
47.1368619001
46.0773772642
46.8638262579
-23.0452009419
-23.0430292005
-23.0717912882
-23.0585867289
48.3694330127
47.7751098588
48.9439375825
-23.0400801982
-23.0051230463
-23.0539501839
-23.0221176815
51.5750933114
50.132781042
51.5137656804
-22.9695154821
-22.8896479858
-22.9772831998
-22.9127623172
55.6780311515
52.9406931364
54.493844592
-22.8434038683
-22.8217845814
-22.8781553859
-22.8062774856
58.3199252175
55.8640800314
57.3930182562
-22.6846223087
-22.7288777477
-22.6420680421
-22.7263423581
60.1489756541
58.8188488943
60.5548552395
-22.8280758128
-22.8961209429
-22.8552768369
-22.9198397475
64.3256536497
62.3387336674
65.0245674084
-22.9287286909
-22.9302030709
-22.9476762321
-22.9342104788
70.1181749288
65.5915915943
70.4906175536
-22.9922075156
-22.8478241906
-23.002999146
-22.8680152616
48.1770070378
45.0390608344
46.8443048429
-22.8836718014
-23.0198412522
-22.92706937
-23.0319373522
45.728441876
45.6110430207
45.1168865414
-23.0563376515
-23.1197120784
-23.0753464821
-23.1547109188
46.1331636265
45.1494551925
45.8989870742
-23.0969376976
-23.0693243809
-23.1236053789
-23.0834039838
48.3707425868
46.8902045631
47.5807020209
-23.0473186493
-23.0171518177
-23.0539254318
-23.0181934833
50.2415461092
48.1612062713
48.5502483602
-22.9778438324
-22.935816493
-22.9805110122
-22.957165541
52.1254026892
49.4036029588
50.3954932598
-22.901647994
-22.8095730556
-22.9446790266
-22.8583777854
57.0138332468
52.7929463682
55.3639205761
-22.7275911829
-22.8240313922
-22.8088431472
-22.877469893
60.5916195062
57.5035697525
60.0037393776
-22.8689203646
-22.94843577
-22.8902111644
-22.9697411632
64.8566909738
62.2724777786
64.1215701188
-22.9691891908
-22.9402138555
-22.9854792432
-22.9559962478
70.0646535592
65.1749134853
68.997417782
-23.0107906375
-22.8921563206
-23.0226298676
-22.9245014175
44.4092784068
43.6732663318
-23.0620711288
-23.1317146169
-23.1150846351
44.938752496
43.4536920127
43.7164025305
-23.1058882283
-23.0670856293
-23.0926924914
-23.0555879236
46.4953385553
44.5488425324
45.5445188735
-23.0405312954
-23.0073915042
-23.0306513084
-23.004858099
47.5484025903
46.4684264922
47.3187931346
-22.9613373067
-22.9464086603
-22.9674138662
-22.9298261707
49.427731826
48.3277379831
49.4029222059
-22.9337009759
-22.8793177968
-22.9060169504
-22.8693351956
54.2966747503
51.1014044579
54.1101296777
-22.8485918552
-22.8876774471
-22.8724110124
-22.8979022166
58.9916813484
56.1129507801
58.5233517468
-22.9050212961
-22.97022293
-22.9069816628
-22.9645138099
63.1834446236
59.7633983182
62.2780155121
-22.9918303668
-22.9780387985
-22.9871306286
-22.9900242564
67.9522436696
62.5161858444
66.7854033109
-23.0417931488
-22.9628855253
-23.0561192769
-22.9823040221
45.736612892
47.0606471919
-23.020773852
-22.9923123231
-22.9837359481
-22.9477319655
47.5590953027
48.1877682918
49.1300301631
-22.9172417151
-22.828283801
-22.8699609116
-22.7746174447
50.6536579108
50.2087850761
51.8484687814
-22.8786676834
-22.9038317673
-22.8707741072
-22.9125359396
54.7251794328
54.1230954942
56.0496241289
-22.8906695793
-22.8997188417
-22.8974940521
-22.9060517913
58.1960971624
57.4310884494
58.6322610425
-22.9048291242
-22.9458359286
-22.8952753804
-22.9259886232
61.4435073889
59.0960902329
60.814330511
-22.9765791204
-22.9912712089
-22.9609386987
-22.9877163921
65.4770380073
59.8784627736
64.5163411265
-23.0600556897
-22.9856813637
-23.0607602819
-22.9843211811
57.1796596113
-22.8863433476
59.0946910448
-22.8822829746
-22.9080718628
-22.8974204804
-22.9187412954
60.8912739791
-22.946312439
-22.9769185348
-22.9469986644
-22.9689138795
64.3903095164
-23.0614911968
-22.9731697917
-23.0540616808
-22.9621792863
1781.65356786
1781.48367265
639.068658607
640.849295422
1781.92786019
640.454822557
1780.95852786
1782.73774622
1784.10818542
642.049124699
643.221944301
1782.82863299
1784.17963795
641.837430832
1784.26031718
1782.6696565
641.828978857
641.726272463
1782.93056436
642.807823614
1784.11474368
1785.75744533
1786.90144599
643.427799688
645.230030905
1787.00096079
644.291400754
1785.6165928
1784.754508
1784.59820562
642.745728806
644.393145735
1783.621543
1785.37695278
643.66617237
1786.11808752
1787.56536537
645.888072137
645.42961219
1787.34717914
1786.4498226
644.988777732
1789.2798829
1788.11274489
645.743872642
645.730826677
1788.12292381
646.271178571
1789.39202389
1790.32998044
1791.85254508
646.53650479
647.810086134
1791.48343124
646.872404373
1790.60745739
1789.40096168
1788.6146501
646.376965097
647.47974402
1788.40770315
1789.51451958
646.856604815
1790.32540935
1791.16506568
648.294597927
648.088791482
1791.34659335
1790.31005587
647.417596899
1793.88667704
1793.13029839
650.90250187
649.317074639
1792.71325893
651.132838263
1794.49581179
1794.86303405
1796.73639312
652.863097939
654.494579711
1795.49444968
653.005131184
1795.8276974
1793.43739869
1792.05988143
649.766186187
651.755105792
1792.45273218
1792.74131426
651.511675644
1794.04086003
1792.8264022
654.406825942
653.128216309
1794.21861915
1793.05248577
653.185572366
1794.12113236
1796.85147631
657.189082938
655.788119104
1795.30958397
656.561624445
1795.88385411
1792.27755587
1791.73292204
657.52938982
656.662227616
1790.21493564
656.773378773
1794.05901356
1792.25786309
1791.87450814
655.194319733
654.549033674
1793.64427917
1790.34059393
655.627687909
1790.49688224
1787.22759012
655.57076255
654.382555225
1788.70622824
1788.68936094
655.614989708
1787.08556654
1789.63329433
656.639785435
656.298024845
1788.39169008
656.134886795
1788.02344462
1786.56780288
1787.27836413
656.353339234
656.283966028
1787.00900274
656.034482153
1787.11194171
1786.42649639
1786.36690547
655.364194752
654.641195069
1787.27194387
1786.092338
655.360632833
1786.43432528
1786.88487175
655.962828006
655.033344447
1786.957654
1786.42926186
655.466073407
1789.19853609
1788.22367761
657.945725424
656.889960057
1787.95571053
657.805435123
1789.67358201
1790.13862991
1791.98307486
659.130416105
660.053290799
1790.74492224
659.040009215
1790.97419311
1788.71273879
1787.36764617
656.800423898
658.003118231
1787.71386701
1788.12567178
657.816886637
1789.5021024
1788.78684567
659.983294217
659.071090304
1789.86608915
1788.69458612
659.068097028
1789.41015253
1792.52463607
661.697441308
660.724677884
1790.67515172
661.033160692
1791.98278402
1786.40645534
1784.43829559
661.408957653
658.984901778
1781.47902611
660.455427569
1789.52117098
1787.80655404
1788.19322184
660.467907814
660.853057716
1789.49359823
1786.39848571
660.785862943
1784.42617481
1779.03598092
658.562841796
660.507377829
1779.677785
1783.32298951
660.309085447
1768.39898995
1776.87497689
668.640670094
658.143934996
1774.91503291
663.702378006
1767.46753079
1759.4806959
1760.12372325
688.451638803
630.016894969
673.436845549
1771.53440293
1753.9550455
1769.83538846
1774.67003379
657.401596899
662.807117905
1774.27715355
1771.56472546
663.323485573
1763.35427898
1786.51809403
635.637044507
672.173000347
1765.90960918
674.716196623
1779.43469558
1790.24011838
1786.81151031
646.307793871
644.053582927
1788.45323538
647.57012514
1787.96514969
1790.77216011
1788.35895039
648.406132895
649.95276001
1788.54608864
1790.6656131
649.928661632
1791.29270729
1790.09170669
644.469632678
648.663949364
1792.72934564
648.140647213
1788.84410367
1792.40102151
1794.14232264
650.961172161
651.347335477
1792.40709627
1794.09018918
650.756217766
1788.33166058
1787.38303976
645.417015951
648.461210367
1786.28323151
1789.61578817
646.80859742
1787.29927859
1785.03078434
644.366342199
644.826048022
1785.50244138
1786.48547105
645.598120971
1790.18312048
1793.27258566
649.499961962
648.813017442
1791.46811032
1792.02043272
647.885426932
1789.03073289
1789.78086923
645.725044067
647.63723797
1788.0563783
1790.84488649
646.640285691
1786.29211398
1785.06575304
644.506659144
644.498932731
1785.6090075
1786.14461257
644.795112364
1786.98506159
1787.67465288
645.377600737
646.421879808
1786.540722
1787.94418987
645.552968567
1787.20858056
1788.97385756
645.187154278
645.765364975
1787.44289911
1788.45565517
645.31163567
1787.48421809
1788.74166692
646.528500511
646.040663925
1788.16901064
1788.41761562
645.78746885
1789.72375986
1788.75535626
647.882124199
647.349455833
1789.62230457
1788.90505396
648.165756401
1790.37971526
1791.07590091
648.652472094
650.11035025
1790.33369548
1790.9330563
649.130656821
1789.81545242
1789.32349299
647.404113236
648.250460506
1789.00005985
1789.99357862
648.302932295
1790.45802373
1790.73839654
650.429932517
649.428190352
1790.88455863
1790.5160509
649.417346509
1791.31450186
1791.74086268
652.266840587
651.266672692
1792.06369148
1791.33336972
652.285049718
1791.12663596
1791.48270189
653.241998286
652.890643193
1792.06752682
1790.27979987
652.883187714
1790.79406048
1790.66793948
651.40868503
651.333394256
1791.0592154
1790.29885257
651.998401733
1790.34725112
1788.54767567
651.937569136
651.239817191
1789.33865948
1789.59280102
652.161480465
1787.59173402
1790.25468094
653.367998132
652.408621875
1788.77265332
1788.91293455
652.206000893
1786.83977481
1786.4941839
653.112633007
652.560163022
1787.48400628
1786.39259516
652.172952223
1787.07072989
1787.53880575
651.377201014
650.383783187
1788.07081484
1786.88983583
651.267884284
1786.7122164
1786.65514826
652.140851776
650.779456428
1786.53563048
1786.65630256
651.531540218
1786.28037951
1786.16063784
654.340441914
653.185257868
1786.21578878
1786.23586155
654.043923205
1786.54994925
1786.98368624
655.08192975
656.003057541
1786.52202485
1786.97715167
655.026462038
1786.65209068
1786.77049814
652.98113401
653.485872816
1786.49230302
1787.09414912
653.84242296
1786.92514176
1787.85421636
656.014385533
654.860061621
1787.28788809
1787.48709104
654.873569153
1787.52534342
1787.34093902
658.006284363
657.054221607
1787.77135349
1787.27183967
658.079704099
1787.50270678
1787.71770637
658.913352942
659.878218418
1787.97841588
1787.01795212
659.00498082
1787.61535998
1788.04003099
657.207197355
658.535989282
1787.51209676
1787.92046758
658.325548471
1787.38118666
1786.57867263
660.02899115
659.260402154
1786.73378646
1787.42263728
659.241392184
1784.2859149
1786.77084382
661.001175529
660.752174537
1784.88507963
1785.93291794
661.182450278
1781.95311072
1778.52799068
660.652020816
659.966174909
1782.01845401
1779.16323091
661.086886346
1784.06107688
1785.45090318
660.83334386
661.233097084
1785.54671682
1784.28158905
661.222460035
1782.24764081
1781.39658146
660.653676954
661.433557093
1780.24386323
1782.94969441
661.092120664
1775.37057851
1775.5437699
664.442917504
659.551865018
1773.57959869
1776.93868024
665.383820751
1770.9036688
1792.09325016
674.769403874
644.329766447
1769.13335163
674.892076531
1794.70417459
1777.29828795
1779.90252547
661.116576401
668.115352702
1778.68226089
1778.1563985
667.031300229
1772.50842527
1795.40912092
645.417237506
676.721520214
1772.63556831
675.931804042
1795.75143622
1794.78089967
1791.03385097
648.657477814
645.332808621
1793.60436304
648.890693027
1792.30797119
1796.41374735
1795.5112008
651.508650568
652.09754075
1795.22214625
1796.75196053
651.625763636
1795.78966212
1794.64344749
645.660315857
649.238418607
1796.90667209
648.973375395
1793.46541272
1797.344622
1798.6661007
651.878012407
651.405061758
1797.71441124
1798.35230851
651.376495973
1795.20548368
1794.81124497
649.46594498
651.039071576
1793.68569406
1796.15482032
650.028618545
1794.15727192
1791.42568973
648.507771028
648.296271849
1792.56656916
1792.91197217
649.25279497
1796.49480497
1798.34072355
651.18818269
650.797973382
1797.29629844
1797.64076317
650.445908198
1795.50594422
1795.69857326
648.774432167
650.098148322
1794.41908529
1796.76002346
649.855650967
1790.82696654
1790.47192464
646.323376969
647.200775826
1789.70205912
1791.79447355
646.654059573
1790.16579403
1789.36216427
646.304696374
646.497815411
1789.32945724
1790.01230851
646.390280253
1791.85704729
1794.3247465
647.610116293
647.032612445
1793.13780601
1792.88598502
646.923868147
1790.91547718
1791.28396385
646.401123966
646.462020502
1790.51734196
1791.81491092
646.415399514
1790.48201184
1789.73637135
648.096485629
647.011712686
1790.19021366
1790.19097043
647.853819975
1790.58342678
1790.46016548
649.141001431
649.383532159
1790.44736182
1790.5299961
648.82274392
1790.83345491
1791.2659728