/*--------------------------------*- C++ -*----------------------------------*\
| =========                 |                                                 |
| \\      /  F ield         | OpenFOAM: The Open Source CFD Toolbox           |
|  \\    /   O peration     | Version:  v1906                                 |
|   \\  /    A nd           | Web:      www.OpenFOAM.com                      |
|    \\/     M anipulation  |                                                 |
\*---------------------------------------------------------------------------*/
FoamFile
{
    version     2.0;
    format      ascii;
    class       volVectorField;
    location    "10.85";
    object      U;
}
// * * * * * * * * * * * * * * * * * * * * * * * * * * * * * * * * * * * * * //

dimensions      [0 1 -1 0 0 0 0];


internalField   nonuniform List<vector> 
28582
(
(0.815027191735 0.00378884867279 -0.000722910869931)
(0.816434267046 0.00294601916147 -0.000795562953892)
(0.81541492961 0.00409974662923 -0.000896334923612)
(0.816895799836 0.0028458757355 -0.000816069451392)
(0.815524186135 0.00384990895498 -0.00289097357445)
(0.817630321916 0.00262892317313 -0.00246670670598)
(0.817274084951 0.00474464885468 -0.00461918370786)
(0.821010097822 0.00310656327754 -0.00390407273861)
(-0.041128445071 0.017904471358 -0.00941206090036)
(-0.287519237335 0.0193153522797 -0.000420184635767)
(-0.15323097028 0.12830157072 -0.356942429674)
(0.82028199181 0.00357177789414 -0.00538569506326)
(0.753590858911 -0.00836924894009 -0.00563529988289)
(0.751854513409 -0.00784583538739 -0.00640109928618)
(0.821384046252 0.0029966129002 -0.00271114669966)
(0.820847038142 0.00358935772369 -0.00220552563675)
(0.752004777828 -0.00717013304655 -0.00530237744628)
(0.82149402619 0.00342785337384 -0.00304805757689)
(0.821494133897 0.00357779854356 -0.00187987134355)
(0.81431388371 0.00668448286424 -0.000833165831226)
(0.817924940706 0.00103402011793 -0.000503338974888)
(0.817553501516 0.000346039243229 -0.000578252754301)
(0.814261298005 0.00641396743175 -0.000687720834905)
(0.818423458254 0.00143665224198 -8.72785596244e-05)
(0.817886365673 0.000397590802115 0.000119177118085)
(0.813553485451 0.00611242156823 -0.00223152743944)
(0.81911273895 0.00113664640972 -0.00170182653687)
(0.8155113773 0.00622171171472 -0.00398638000242)
(0.821493884808 0.00283897785125 -0.00199934622794)
(-0.310713457806 0.017583443006 -0.00447692545969)
(0.1910134655 0.285677150015 -0.266600482255)
(-0.108474821626 -0.188491658645 -0.264914178318)
(0.817638427654 0.00472854293244 -0.00455348499069)
(0.81624203472 0.00476186824308 -0.00441668022557)
(0.762643186666 0.00255659901759 -0.00394665925123)
(0.756681454858 0.00198466452599 -0.00600260163728)
(0.814188251214 0.00484333547958 -0.00545446957978)
(0.821336810617 0.00191695399065 -0.00151233202268)
(0.82090717973 0.00315676043674 -0.00115191910247)
(0.820143832641 0.00240845861922 -0.00112783679282)
(0.820955915 0.00365826751212 -0.00267075553541)
(0.746706027212 -0.000452509805297 -0.00149479504408)
(0.820868739967 0.00370772104387 -0.00164475191354)
(0.818640507908 0.00320105147714 -0.000483383181428)
(-0.100075483147 0.0103525176986 -0.0128548356288)
(-0.209802750544 0.0448403858876 0.00229297581919)
(-0.260355987182 0.0602158104787 0.0256249115204)
(-0.219282395565 0.0565451881734 0.0351001775269)
(-0.205497103528 0.00942591427469 -0.0033618166976)
(-0.289571576106 0.0267434310478 0.0363037589315)
(0.816525381842 0.00422994130684 -0.00764218623583)
(0.818206834184 0.0040744127086 -0.0104678995364)
(0.752579091597 -0.00836968069505 -0.00679514297148)
(0.753832138991 -0.00924687046751 -0.00648458412327)
(0.816155856865 0.0045242834874 -0.00795205558793)
(0.752668875988 -0.00928111336186 -0.0074865536802)
(0.81870783425 0.00375374910947 -0.0101287933985)
(0.820179886868 0.00368955244949 -0.00975851474292)
(0.822485531273 0.00339997169734 -0.00937356916361)
(0.752072478134 -0.00815603413975 -0.00694840939897)
(0.752445838653 -0.00881176000675 -0.007189833365)
(0.822104659428 0.00355688323622 -0.0097029758644)
(0.752612520341 -0.00906565606136 -0.00769318318638)
(0.820674459149 0.00337268635027 -0.00989129946445)
(0.823096201237 0.00305615035958 -0.00595440900607)
(0.82321999828 0.00310835278547 -0.00808186354463)
(0.751496649986 -0.00680407295797 -0.00347110876124)
(0.752719724353 -0.00817204918184 -0.00620654066645)
(0.822950362199 0.00311139685329 -0.00844960420011)
(0.751970292768 -0.00762750364953 -0.00450799154336)
(0.823146155876 0.0031612214174 -0.00564177478628)
(0.821478074738 0.00355318488108 -0.00323890871542)
(0.750463060546 -0.00469039096703 -0.00133007155798)
(0.751088201945 -0.00466144922302 -0.00190030734534)
(0.822371886486 0.00334952317928 -0.00495707520524)
(0.750782039219 -0.00565793225774 -0.00195666761949)
(0.751441495887 -0.00628689851758 -0.00294269220923)
(0.822429858744 0.00340680075106 -0.0045952156227)
(0.821503493448 0.0031746828246 -0.000997123974718)
(0.753880952636 -0.00385154556422 -0.00106826486269)
(0.755036339176 -0.00497052990274 -0.000390886939182)
(0.822365586228 0.00353526807212 -0.00449492620307)
(0.755413326145 -0.00692127915665 -0.00297325114303)
(0.822189254629 0.00338210303802 -0.00413312687304)
(0.753944482406 -0.00588422977934 -0.0027872652764)
(0.011199914876 0.0252594478762 0.00458621137905)
(-0.139635181733 0.252461529296 0.11130450055)
(-0.0177614140178 0.061732305441 0.00553858975968)
(-0.0153976655436 0.0376090947223 0.0081668124377)
(-0.0999674666602 0.140612937158 0.0983104670773)
(-0.158152537506 0.106024790742 0.0789950255362)
(-0.229836822592 0.00189299374016 0.00330702227935)
(-0.200507847296 -0.0726285391579 0.00844434046981)
(-0.165772642721 -0.0675825337477 0.0434564114874)
(-0.2168339415 -0.0772195877131 -0.00145140417296)
(-0.134840479584 -0.0877198328222 0.00286193070356)
(-0.314456831595 -0.0281987434548 -0.0086766545523)
(-0.130394362903 -0.0994472308764 0.0304546369643)
(0.814733639966 0.0055523247908 -0.00521383119049)
(0.814646474785 0.00629989420862 -0.00419135703706)
(0.76147168711 0.00254658349319 -0.00465970089088)
(0.762547044329 0.000212421441699 -0.00384159215234)
(0.815708505138 0.00536726893212 -0.00551789358533)
(0.813896498556 0.00625790493024 -0.0039771938647)
(0.761334609139 -0.000399597223592 -0.00459536995723)
(0.815756490327 0.00432681396477 -0.00610857495517)
(0.817462024272 0.00295931444554 -0.00779935900066)
(0.759196398562 0.00217548708721 -0.00528000173457)
(0.756481599837 -0.00134128787443 -0.00601050584666)
(0.816678184877 0.00400660733947 -0.00624687024398)
(0.816514261208 0.00353646730993 -0.00789990018997)
(0.758885270305 -0.000821860841614 -0.0051905332104)
(0.757706629563 -0.00572441303934 -0.00458684840328)
(0.755506186403 -0.00639944735867 -0.00606004310861)
(0.814946275921 0.00446419024204 -0.00768073414744)
(0.814801942911 0.00475852338504 -0.00535865854043)
(0.755903506774 -0.00477023390075 -0.00564261437819)
(0.815631113944 0.00414700787087 -0.0074888920566)
(0.758267517714 -0.00407080921715 -0.0043474596345)
(0.820824013071 0.00403848307858 -0.00284212570843)
(0.749078825544 -0.0036089261478 -0.000873473871907)
(0.74984871747 -0.00304314246088 -0.000823501676924)
(0.820383767624 0.00372611935174 -0.00219587996659)
(0.748842708727 -0.00252137269584 -0.00116890216027)
(0.82040922009 0.00437710618491 -0.00320203078302)
(0.749454930472 -0.00117659099828 -0.00072156894778)
(0.81989764181 0.00333183661369 -0.0021505547691)
(0.820707109697 0.003724613506 -0.00350127747155)
(0.747787228921 -0.00177106196094 -0.00150550175053)
(0.747898264923 0.0010863476408 4.24469752992e-06)
(0.82044629696 0.00421378598194 -0.003395352436)
(0.819866443873 0.00249047918022 -0.00215402020109)
(0.748445977539 -0.00025257974471 -0.000359290058773)
(0.819319109776 0.00333423624117 9.12674558204e-05)
(0.820617434856 0.00331705119175 -0.000847922837359)
(0.753083422517 -0.00206366144317 -0.000211772773028)
(0.754358680476 -0.0031419059032 0.000666206940361)
(0.753884083224 -0.0010564800339 0.000977139169222)
(0.81991648959 0.0036758745894 -0.000955746722893)
(0.752538058915 2.21504048719e-05 -0.000141908967722)
(0.752591445013 0.000528701237751 0.00119800299241)
(0.752858161081 0.00196750038202 0.000295922654059)
(0.817956988814 0.00255654490528 -0.00118871314494)
(0.819077383737 0.00335747147591 -0.00141069545136)
(0.751334642027 0.00223735688567 -0.00113983004035)
(0.81870751597 0.00254731835784 -0.00219434358481)
(0.751188014014 0.00105510683274 -0.000406670236491)
(0.819331724534 0.000124130845003 -0.00124851352698)
(0.821531297436 0.00104522136022 -0.0019334513806)
(-0.276713730625 -0.0683941819116 -0.010302566634)
(0.0155679521475 -0.042104569955 -0.346928454934)
(0.818353011418 0.00412963914055 -0.0047669342189)
(0.753020072461 -0.00653391920426 -0.00646996930971)
(0.81995149674 0.00149530795371 -0.00198811412898)
(0.819839003749 1.43622030056e-05 -0.00213388403047)
(0.746955993516 0.000171206743859 -0.00116573199704)
(0.751689861516 0.00317868909057 -0.000529954908558)
(0.751134893355 0.00355530416426 -0.00227637539764)
(0.820200401183 -0.00123968268675 -0.00208596568103)
(0.82041606191 -0.00234644751268 -0.000994956410324)
(0.751255627289 0.00308318314798 -0.00222543438699)
(0.751454022684 0.000749282153948 -7.36310998584e-05)
(-0.0378771786211 0.00846389521911 -0.00725429335429)
(-0.206283771241 -0.116800893065 -0.00564065594045)
(-0.1897114914 -0.124308969163 -0.00578673923662)
(-0.0824535854737 -0.0608261854869 0.029721306535)
(-0.0655745023153 -0.0496985968775 0.014219575194)
(-0.0551109187663 -0.0301764537636 0.0146869704457)
(-0.17204279735 -0.105362570202 -0.00427249397573)
(-0.162469759028 -0.0477667828346 -0.00260193705083)
(0.819459468664 0.00309624718484 -0.00972414372132)
(0.817016912232 0.00389296988905 -0.00804224696018)
(0.753037973409 -0.00489455022301 -0.00578732784801)
(0.75185959273 -0.00680244131811 -0.00757116754532)
(0.817576861222 0.00350771382601 -0.00772348050224)
(0.75176970542 -0.00520328680998 -0.00681853300522)
(0.818874213921 0.00353834262469 -0.00996218085088)
(0.819925480117 0.000402971305705 -0.00235192481492)
(0.820860993098 0.0028441046561 -0.0031547680293)
(0.747090487887 0.00049236558748 -0.00029290951617)
(0.74771352374 0.00196937699293 -8.34564620859e-05)
(0.820763536333 0.00190746260539 -0.00256111048763)
(0.819911691893 0.00139314289515 -0.00217093094486)
(0.747918851605 0.00246567454738 -7.45895295109e-07)
(0.818737398592 0.000585802048567 -0.00369111860061)
(0.817560161809 0.00178910486329 -0.00219900760455)
(0.750403947871 0.0029807452663 -0.00179242125618)
(0.751612907755 0.00376800614594 -0.00150081373876)
(0.81865850204 0.0015327813348 -0.00294876748732)
(0.750025873586 0.00340896129969 -0.00229442440807)
(0.817741554316 0.00087851216523 -0.00344404229575)
(0.81885379618 -4.24733827989e-05 -0.0034860195275)
(0.818052104738 -0.00114162249369 -0.00419770944179)
(0.750222747151 0.0034624900197 -0.00205243292455)
(0.751020328675 0.00371818975337 -0.00199933958839)
(0.818954200041 -0.000814184784237 -0.00358449727998)
(0.750055054809 0.00350682178472 -0.0022067117135)
(0.817846604665 -8.8583626043e-05 -0.00359420460483)
(0.818858991745 -0.00138648955889 -0.00241884997933)
(0.818215612908 -0.00161450025529 -0.00371386588739)
(0.750587752715 0.00308367605105 -0.00171151381667)
(0.750861695463 0.00233450562753 -0.00171714705666)
(0.818970003779 -0.00133893297301 -0.00290690217272)
(0.750953016527 0.00235452682576 -0.00113851528465)
(0.818512865307 -0.0020370495295 -0.00317045405223)
(0.818607629299 -0.00142396167055 -0.00151190694827)
(0.818520079147 -0.00189917140672 -0.00128497768137)
(0.75192806603 0.000336282138725 -0.000122611981057)
(0.751260134276 0.00168763187448 -0.00120723635532)
(0.818499131956 -0.00120239301803 -0.000960048756352)
(0.751303121971 0.00165057990085 -0.000860518628793)
(0.818370755113 -0.0020318151035 -0.00211579337938)
(0.804430673857 0.0134588879086 -0.00948253443286)
(0.807624872171 0.015698449531 -0.00574924464243)
(0.813211037368 0.0195929784722 0.00195209654079)
(0.813004434527 0.0140453815871 0.00162279291665)
(-0.353789577995 -0.0473494290865 -0.026143564384)
(-0.54741250834 0.0407415034718 0.0254756594788)
(-0.54167120229 0.0588457804916 0.000662851519557)
(-0.464305986251 0.0972064077099 0.0234674286216)
(-0.375213874149 0.0271508252266 0.0193998378019)
(0.330173914188 -0.023576530877 -0.177483589161)
(0.478027658944 -0.242576141466 0.203320875448)
(0.18435894171 -0.107990234735 -0.212431701044)
(0.498125811538 -0.164059168248 -0.43923949223)
(0.157813968155 -0.0708787073068 -0.334846105131)
(0.490558223592 -0.0761360957695 -0.3819244674)
(0.79625802232 0.000924286894151 -0.0138545577286)
(0.797714774094 0.00581043485621 -0.0140380706091)
(0.775906468011 -0.0003082941573 -0.0155127640637)
(0.776636886387 0.0053608044375 -0.0183091456005)
(0.799699079615 0.00881012057347 -0.010333491049)
(0.776301519181 0.00632799505299 -0.0174576507049)
(0.799882482897 0.0106228337425 -0.012370158237)
(0.803267139655 0.0135626859829 -0.0101885545533)
(0.77755052944 0.00619733531099 -0.0179653741319)
(0.781037028099 0.0035735522484 -0.0128528636646)
(0.804158625067 0.0180760408115 -0.00233451143785)
(0.806445855994 0.0157464816842 -0.00787322944529)
(0.809388633545 0.0191467501129 -0.00170449405148)
(0.777490877063 0.00762234516031 -0.017166443931)
(0.773279849526 0.0109301896401 -0.0102533497664)
(0.780574324891 0.00519402566184 -0.0120502150801)
(0.774567715128 0.00699229892249 -0.00507520139771)
(0.812336836197 0.0220587836978 0.00405266983908)
(0.814848615348 0.0247622015571 0.0105224989916)
(0.772178327607 0.0108903760496 -0.00584809096952)
(0.756181140849 0.0109591587338 0.00910459177409)
(0.772356584931 0.00634770592218 -0.00211139739833)
(0.756746111872 0.0070214695518 0.00764447328661)
(0.811733547131 0.0176663141584 -0.00276661427694)
(0.813062294998 0.0151623654085 -0.00195828989035)
(0.78154211398 0.00301468266026 -0.0108955474698)
(0.774614161096 0.00508381769026 -0.00510868274315)
(0.775641737387 0.00170441419499 -0.000538207906183)
(0.815481874568 0.019465339262 0.00597563815596)
(0.813246599865 0.0167099970695 0.00164897315485)
(0.81475307154 0.0164073246433 0.00464116581063)
(0.772353874783 0.00469099522723 -0.00279028943764)
(0.757416670343 0.00587183890933 0.00622967827699)
(0.773078608799 0.00177082887169 0.000720324243932)
(0.760523819287 0.00339726448807 0.00602524092612)
(0.77361017916 0.00169310687747 0.00142063143961)
(0.76169461839 0.00298182794739 0.00553203744192)
(-0.268095722994 0.0106057776801 -0.0391089273326)
(-0.272199951357 -0.0443941751693 -0.0421014908135)
(-0.301425757968 -0.0506980844687 -0.0389314578792)
(-0.143383898086 -0.0792107875846 0.122930017895)
(-0.0639556895273 -0.0563717841381 0.0734263306577)
(-0.159625776172 -0.118870091667 0.141096090457)
(-0.097261364759 -0.0741949353219 0.0586290672186)
(-0.108334171026 -0.0854305193501 -0.12484544085)
(-0.169372701341 -0.109458369872 -0.354265162449)
(-0.147853204955 -0.0662573951677 -0.147839678192)
(-0.0907403735687 -0.0916461043068 -0.397901584465)
(-0.296414966241 -0.0825884772176 -0.0328944073583)
(-0.370967195854 -0.0951198539832 -0.0191869650761)
(-0.479949811598 0.0183525222327 0.000722521418879)
(-0.448380354898 0.00613201121562 -0.0078787071332)
(-0.53031608787 0.0963678372177 0.0117007800436)
(-0.173561336632 -0.143383699937 0.097804771082)
(-0.140384484515 -0.0812143701078 -0.00832988186696)
(-0.182622120429 -0.152974457014 0.0347713144368)
(-0.128824459601 -0.080624260878 -0.0470072774483)
(-0.359912844399 0.00636406571851 0.0400088371043)
(-0.515517018664 0.0941221471119 0.0275643921083)
(-0.322212414172 0.0430764041892 0.035181239641)
(-0.100292095255 -0.0731771149905 -0.160111364542)
(0.0963272375228 -0.0829856009942 -0.360609625591)
(-0.062842125072 -0.012507731613 -0.177370306249)
(0.13571999668 0.033611698119 -0.345813078885)
(-0.540020524707 0.0988565016987 0.0117582305004)
(-0.493933260272 0.0486455757967 0.011943449805)
(-0.160380149384 -0.130011247334 0.00716338008248)
(-0.0890864330921 -0.0798736903859 -0.0522808671272)
(-0.0453732503073 -0.0744372527993 -0.0603524811121)
(-0.265122211856 0.0723448568942 0.028824931039)
(-0.400650549319 0.0473182127576 0.0199771911907)
(-0.229213388644 0.0410065795901 0.0236809707564)
(0.00310230860441 -0.025394493693 -0.153968983119)
(0.197970035984 0.0412787630012 -0.276620282982)
(0.0636061503193 -0.0372145619006 -0.14647851706)
(0.237740436842 -0.0253310412198 -0.213893222166)
(0.798703099199 0.000813414111796 -0.0210058954503)
(0.800636883789 -0.00128983125932 -0.0222736055662)
(0.777167403036 -0.00107612551144 -0.013274297255)
(0.775855746952 0.00129681409454 -0.0171214250491)
(0.801486664487 0.0021514733932 -0.0240692279331)
(0.777504374727 0.000140542677412 -0.0146743565705)
(0.798324135429 -0.00179640092942 -0.019660002317)
(0.79962808074 0.0039152592024 -0.0215862209282)
(0.80370125965 0.00932703399667 -0.0247509510235)
(0.776383917982 0.00301314250388 -0.0177771412661)
(0.778316761206 0.00387507638835 -0.01628796592)
(0.802685945364 0.00594780868343 -0.0243143980845)
(0.801089988561 0.00709620368464 -0.022285439605)
(0.778039104489 0.00176451434824 -0.0154409912945)
(0.806587019902 0.00893059168214 -0.0210383534492)
(0.805958689314 0.0101651413972 -0.0224677914384)
(0.776154658891 0.00410624948479 -0.0171723920497)
(0.774465343983 0.0081274723817 -0.016852818997)
(0.804027643287 0.00651767475246 -0.0221352057417)
(0.808719655573 0.0131629825772 -0.0204802562994)
(0.774528100867 0.00550611696629 -0.016928819141)
(0.803659765212 0.012422561883 -0.0202323187011)
(0.806101449299 0.0128310721927 -0.0233851665662)
(0.779612885976 0.00486099454072 -0.0160068852946)
(0.778193672749 0.00603350299184 -0.0165384488224)
(0.802297336707 0.0102910035618 -0.0210884479002)
(0.80782281334 0.0149710541956 -0.0219623066338)
(0.780559018923 0.00498429774248 -0.015470773566)
(0.805000536722 0.0138167141821 -0.0177193710307)
(0.810078099635 0.0163110731529 -0.0173549596496)
(0.779958913763 0.00515556215195 -0.0147884842836)
(0.783515988099 0.00259512041242 -0.0120043901867)
(0.80904529721 0.0159919994641 -0.0193248024284)
(0.806351439942 0.0143142562592 -0.0159436410733)
(0.782484057262 0.00435944119669 -0.0139201180736)
(0.812949295759 0.0175924984374 -0.0176035481155)
(0.807312995468 0.0135337364662 -0.0210313041455)
(0.775577387155 0.00896081076931 -0.0163430146818)
(0.778066460145 0.00793212389503 -0.0156611064447)
(0.811466910431 0.0162002799353 -0.0195958645159)
(0.809025630645 0.0155968547004 -0.0194197097057)
(0.775711560119 0.00915132891743 -0.0141408175171)
(0.812744804602 0.0181855060248 -0.0131250918457)
(0.814600905918 0.0188858033776 -0.00820884434937)
(0.775632998447 0.010176261631 -0.0142623579528)
(0.773050827795 0.010522232554 -0.00766152158286)
(0.811682949164 0.0170045914414 -0.0145304319366)
(0.815512287537 0.0192118574366 -0.00598196643053)
(0.775800281204 0.00998396437844 -0.0118637689036)
(0.814097776716 0.0181305165676 -0.0150103889645)
(0.811181492927 0.0168236243751 -0.0151265022391)
(0.779629451387 0.00715067205108 -0.0141014604396)
(0.778102122122 0.00587926837319 -0.0105517081752)
(0.810260939426 0.0165443782877 -0.0168970213313)
(0.814860512498 0.0180032765313 -0.013009816022)
(0.777316708857 0.00794732035994 -0.012789173684)
(0.81343512608 0.0183065629307 -0.0114308912426)
(0.816536493617 0.0185669420212 -0.00416777257854)
(0.774016296256 0.00944145302088 -0.00731515901325)
(0.77743266746 0.00645080437185 -0.00856728324707)
(0.816379433429 0.0190348943587 -0.00549198152241)
(0.814155541471 0.0180194585124 -0.00991556126903)
(0.776901654604 0.00868421840661 -0.0105958133945)
(0.815412049425 0.0210624998276 0.00705734723903)
(0.813772659323 0.0204590589027 -0.00415271451271)
(0.765987081901 0.0107894898449 0.00113127413109)
(0.771797554182 0.00996659563776 -0.00308489309404)
(0.814216566943 0.0210767054031 0.0064833798474)
(0.814777715153 0.0201271598917 -0.00212259452488)
(0.765649800491 0.0101192762841 0.0028036475064)
(0.815715882673 0.0219042782835 0.0101359269182)
(0.815187572204 0.0238494459304 0.0164601385815)
(0.761723431788 0.0104130306923 0.00427436428347)
(0.756126973994 0.0100420391595 0.0108488496033)
(0.814587531088 0.0227182833029 0.00982987688274)
(0.761306811459 0.00925317313113 0.00531086335855)
(0.816196221914 0.022886445389 0.0166091850645)
(0.816177111048 0.0203492694925 0.00436618554694)
(0.816078544757 0.0188481229355 -0.00149397395005)
(0.772424281298 0.00873542163008 -0.00347831796984)
(0.767067223851 0.00667980307509 0.00211255465435)
(0.815478241744 0.0195473849744 -0.0023754201843)
(0.8165927119 0.019607979008 0.00419787352369)
(0.766506698077 0.00898120842387 0.00146854748834)
(0.816810167144 0.0205560406898 0.00671862612892)
(0.816911484671 0.0195371383709 0.0107227915733)
(0.756464167982 0.00897174472973 0.00812880533892)
(0.761926883618 0.00607694264075 0.00417642521874)
(0.817110689338 0.0191437620464 0.00634116401612)
(0.761773280498 0.00818952215278 0.00391086173987)
(0.816803097328 0.0211831290958 0.011688368624)
(0.815676100668 0.0170529156771 -0.00953882141442)
(0.811979673252 0.0165960168267 -0.0128665068341)
(0.778856745456 0.00414477471306 -0.0100644314448)
(0.782335896322 0.00113827317394 -0.00927895398465)
(0.815327157123 0.0176014303528 -0.0112218968807)
(0.812824103618 0.0158897874357 -0.0113236663246)
(0.779525263437 0.00188135306608 -0.00827219481185)
(0.815153359457 0.0171243423191 -0.00719517161343)
(0.81686425181 0.0179113029568 -0.00421470094316)
(0.777863960866 0.00444559734339 -0.00805993746223)
(0.774985608002 0.00311348181401 -0.00371491040676)
(0.814807892708 0.0175225329122 -0.00880016199948)
(0.816764338874 0.0172754992493 -0.00295310215042)
(0.77821127845 0.00257760482004 -0.00660543624573)
(0.815508907905 0.0163831950755 -0.00503653940452)
(0.816625759219 0.0153226348689 0.000349509221805)
(0.775529162464 0.00210214319705 -0.00210998284577)
(0.779162980705 0.00133168126097 -0.00353850149102)
(0.816814635342 0.0164915375581 -0.00120590640547)
(0.815761106386 0.0152028080615 -0.0038263097709)
(0.778774651955 0.00162341034201 -0.0049608318845)
(0.81649497752 0.0174496619391 0.00319408976432)
(0.816400570379 0.0178664478112 -0.00188521644449)
(0.767672815632 0.00513662363001 0.000860309263289)
(0.772397269125 0.00290748139471 -0.00186373880424)
(0.816705721678 0.0185183447997 0.00288421572334)
(0.816524483075 0.0168277810131 -0.00097975048889)
(0.767996972058 0.00356123115641 0.00145761370512)
(0.816826328009 0.0165939450379 0.00488100879954)
(0.816761576441 0.0179858726889 0.00850273751016)
(0.762465551602 0.0044876266849 0.00305327416792)
(0.75846098436 0.00446098568287 0.00632251951207)
(0.817189879829 0.0178063470847 0.00476787297282)
(0.763037907517 0.00315265824998 0.00312588633359)
(0.816293075776 0.016504457988 0.00836657123778)
(0.816347484162 0.0165035607652 0.00342417025209)
(0.816631292787 0.0151270374006 0.00159293312037)
(0.772777471017 0.00190449851184 -0.000590665419827)
(0.768968716798 0.00253608321075 0.00271483897458)
(0.816604117395 0.0161155962455 0.000284566474185)
(0.815985666146 0.0154257558132 0.00431404616617)
(0.768665789064 0.00273281839032 0.00176056131066)
(0.816517146692 0.0156295174121 0.00461420394046)
(0.815089544312 0.0140398310266 0.007724966767)
(0.75983630621 0.00350248354971 0.00534798455297)
(0.7653461296 0.00234450995879 0.00378068548522)
(0.815996752055 0.0146466601973 0.00527945996322)
(0.764362786953 0.0022318275185 0.00289804728212)
(0.815814776375 0.0152838771116 0.0072488767335)
(0.815343482276 0.0132162142344 0.00590691054271)
(0.816614217341 0.0140924813058 0.00276314962351)
(0.769681462791 0.00239537554128 0.00314220816232)
(0.77370689165 0.00241613063411 0.00250644221333)
(0.81574740556 0.0143638758377 0.00506967860401)
(0.81641713926 0.0129799094511 0.00375247848685)
(0.769484993764 0.00311079537901 0.00384598440027)
(0.814442007912 0.0129713158825 0.00728730655529)
(0.766258068007 0.00213345057641 0.00401833001971)
(0.815503743573 0.013636180797 0.00563868926943)
(0.816903724131 0.00445422293658 -0.000843717227919)
(0.818610110027 0.00311815030658 -0.000837542575843)
(0.819505449518 0.00138720642367 -0.000713382652513)
(0.81717842702 -0.00128805415642 -0.000194198493654)
(0.810084779546 -0.00252958028074 0.000376553854594)
(0.834669460859 -0.0513376155302 0.000742077960916)
(0.817328328853 0.00461539211355 -0.000883135466967)
(0.818929749382 0.00300147757074 -0.000494647641361)
(0.819911920431 0.00207288307122 6.45891799701e-05)
(0.818169665017 -0.0014453604685 0.00168898285502)
(0.811111086745 -0.00337463565124 0.00454391786813)
(0.838702717291 -0.0573487509985 0.00597446664242)
(0.81641354118 0.00631258340097 0.000332379292447)
(0.81207797708 0.00654542039133 0.00070396325341)
(0.788205793909 0.0107970295226 0.0026617106703)
(0.783687067764 0.0114434526769 0.00230728011075)
(0.780469328711 0.0127355230145 0.00243419417098)
(0.772767683613 0.0164740432214 0.00033667296729)
(0.781637782431 0.0199301576249 -0.0216911435916)
(0.715457126447 -0.0150248453083 0.0245754158181)
(0.827181655009 0.0054805119321 0.000299245369355)
(0.824046094468 0.00351936157236 0.000221414115054)
(0.819634757309 0.000574249215544 -0.00115412324953)
(0.817610314973 -0.00102558857807 -0.00314122364884)
(0.816370057371 0.000404433389571 -0.00346562704199)
(0.817773117357 0.00351171432573 -0.00268739507879)
(0.810732501325 0.0105081673458 0.000749469863501)
(0.840877642582 -0.0839833352946 0.0131329974445)
(0.820537950926 0.00602832118773 -0.000431150448945)
(0.822265408869 0.0045821685306 -0.000848791804582)
(0.822375303196 0.0035190341066 -0.0013533734662)
(0.821723170618 0.0030924655157 -0.00222760792996)
(0.820303189598 0.0029269283809 -0.00194199962277)
(0.820229537261 0.00234268114854 -0.000394017732729)
(0.812422929649 0.000987861406603 0.00174272575553)
(0.843990821753 -0.0670684783968 0.00480446213644)
(0.816604957387 0.00689022444128 -0.000726139788988)
(0.819368960666 0.00406109842648 -0.00058830095832)
(0.820399686334 0.00223274500481 -0.000903031362488)
(0.820542257082 0.00101346025463 -0.00104671940428)
(0.819536303158 0.000533942732554 -0.0011026010638)
(0.819494195646 -0.000589508075034 -0.000234713633712)
(0.811640200379 -0.00184458975715 0.00131610170541)
(0.839697746659 -0.0697888505975 0.00311037115511)
(0.818868319228 0.000985828807892 -0.000770526981739)
(0.818568566698 -0.000439071476641 -0.000222711565245)
(0.810855850216 -0.00208047454801 0.000763165699413)
(0.837681646064 -0.0548355426265 0.00151297583616)
(0.638949136559 0.0422342628071 0.0129487235942)
(0.63473323573 0.040310699738 0.0140957244989)
(0.644234489125 0.0253183327733 0.0202917375182)
(0.641922174264 0.0222230309821 0.0164250640033)
(0.639246956174 0.0232583335037 0.0151251554483)
(0.607955858013 0.0263309885871 0.0177409106564)
(0.678965306412 0.039844916678 0.0170599940069)
(0.247921144602 -0.0691568310719 0.0604314873152)
(0.774246964844 0.0131907254211 0.00905804622167)
(0.768848748744 0.00967923100914 0.00842506672975)
(0.774584491318 0.00292453222684 0.0115757330523)
(0.772212387993 0.00267244057932 0.0135125771925)
(0.771803579181 0.00476653637929 0.0144021369837)
(0.773549683384 0.00754623059014 0.0180790291384)
(0.776163607889 0.0411507508428 0.028792528204)
(0.812250810992 -0.172283515627 0.0467050649388)
(0.82174498962 0.00642882808126 0.000529339952009)
(0.82152189791 0.00503102245546 0.000300210921636)
(0.821348687415 0.00540212490939 0.00022880703197)
(0.82130521796 0.00652008782559 0.000588530320639)
(0.821371759235 0.00688188543682 0.00187761188529)
(0.823490049998 0.00601525772532 0.00461531299806)
(0.817378122787 0.00318115876375 0.0118152360924)
(0.881476722203 -0.118006026429 0.0167847301409)
(0.817063816919 0.00653393383283 -0.00033602918423)
(0.819589095601 0.0043644320521 -0.000252929131266)
(0.82057559823 0.00270594170412 -7.14471939279e-05)
(0.820510154112 0.00217520257832 0.000212947531131)
(0.820152762048 0.00150041763437 0.00122900684128)
(0.821934760194 -0.00017926872834 0.00380739203591)
(0.815232549412 -0.00254052508082 0.00857727731798)
(0.854006274712 -0.0881176291144 0.0121114967827)
(0.819391765696 0.0013425545877 0.000658726571933)
(0.820041023617 -0.000430431305651 0.00239600191542)
(0.81271870024 -0.00304082179741 0.00568184184606)
(0.845111641937 -0.0664831399259 0.00758526039946)
(0.634056684972 -0.014762840643 0.0225322541248)
(0.626556301529 -0.015216107714 0.0215583043629)
(0.632271257653 -0.0191317172438 0.0238861691777)
(0.632981353568 -0.0175804932017 0.0210481652201)
(0.635352017055 -0.0132690604449 0.0216431662775)
(0.62683981699 -0.00242336729358 0.0252162480605)
(0.684531546639 0.0481566200506 0.0637085000023)
(0.504777350742 -0.379240117011 0.0160281510372)
(0.735212513182 0.00509475314498 0.0261325860793)
(0.730779680427 0.000473819203778 0.024871169561)
(0.781732853895 0.00107265256606 0.00902248420881)
(0.781690403321 0.00152327553864 0.0100940275099)
(0.783729575167 0.00347497524749 0.0118008247066)
(0.792941585319 0.00239430928445 0.0120598201359)
(0.805126115179 0.019079849541 0.0133582749423)
(0.899770242979 -0.197636820634 0.00521260745628)
(0.821676604572 0.00473431205001 -0.000103346512386)
(0.822328265631 0.00432656835363 -0.00111056089588)
(0.822690679731 0.00288833033124 -0.00189446576243)
(0.823176151764 0.00213246976628 -0.00143241348554)
(0.824213114151 0.00148063028242 0.000324750382808)
(0.830307537665 -0.00179941352198 0.00122102750119)
(0.824397571074 -0.00701501165262 0.00117798761455)
(0.911829493313 -0.176753463789 0.00238818246459)
(0.813012455658 0.0101456347471 -0.000221293743573)
(0.816454349584 0.00562871081288 -0.00140759733415)
(0.820050625709 0.00341355751622 -0.00174109106798)
(0.82175739439 0.00206592596464 -0.00152858496015)
(0.82206993352 0.000965913502758 -0.00101782130594)
(0.822476751832 -0.000191900382125 0.000185111882037)
(0.826435587799 -0.00303588574762 0.00143394860473)
(0.820344363965 -0.00701195541768 0.00134188982368)
(0.876255579197 -0.102835261608 0.00384400306854)