/*--------------------------------*- C++ -*----------------------------------*\
| =========                 |                                                 |
| \\      /  F ield         | OpenFOAM: The Open Source CFD Toolbox           |
|  \\    /   O peration     | Version:  v1906                                 |
|   \\  /    A nd           | Web:      www.OpenFOAM.com                      |
|    \\/     M anipulation  |                                                 |
\*---------------------------------------------------------------------------*/
FoamFile
{
    version     2.0;
    format      ascii;
    class       surfaceScalarField;
    location    "13.15";
    object      alphaPhi0.water;
}
// * * * * * * * * * * * * * * * * * * * * * * * * * * * * * * * * * * * * * //

dimensions      [0 3 -1 0 0 0 0];
oriented        oriented;


internalField   nonuniform List<scalar> 
92311
(
0.203920503473
2.54231641322e-05
-0.00121598183098
-0.203695217555
0.000967470411875
-7.76382775478e-05
0.204092750223
-0.000861559294447
0.000768791367857
0.20393104082
9.17645483235e-05
-0.00126487597276
-0.203717987137
0.000986257787377
-7.57674662845e-05
0.204074784329
-0.000855896209139
0.000711172402378
0.203642359353
0.000143954158444
0.000123334755302
-0.00130965628773
-0.20374381476
0.000985050814934
0.000127982628714
0.000122809226423
7.97379683106e-07
-0.000102577807208
-0.000103477546949
0.203922619288
-0.000838683556847
0.000670768776037
1.73971735925e-05
0.0511369395064
5.26747553443e-05
4.34295850074e-05
4.58398406218e-05
5.01366425285e-05
-0.000356542237958
-0.0511142538173
0.000285773173524
-0.0511910760346
0.0512047368016
9.57798833199e-06
2.47466939847e-05
1.86703932976e-05
1.43596453927e-05
-0.000232933706214
0.00015275619501
-1.5655858264e-05
-0.000633533267654
-1.24968444409e-05
-8.60658748947e-06
-7.08860224535e-06
6.22404815803e-05
0.000482515852025
-8.05009569095e-07
0.000171877767451
-0.00124423739634
-5.34399577838e-05
-5.6496860258e-07
0.00110518145647
2.84065612284e-06
3.79150267345e-06
9.99881852859e-07
1.67932742601e-06
0.000218758864293
-2.3344372509e-09
1.42524970622e-10
0
1.86165538148e-10
6.13546889621e-29
-9.944308783e-28
0
2.00574674213e-09
3.53427678542e-05
3.78815699331e-05
3.15404538035e-05
4.33889473813e-05
-0.000290225710841
0.000211356744298
-5.91674805351e-05
0.0100474826302
4.96053618113e-05
-3.00926715306e-05
-0.0100352496475
0.0101000923707
1.44233819887e-06
-4.10809372318e-05
-0.010083945264
6.59893446218e-05
-4.41315055023e-05
6.49288390926e-05
-2.61133484393e-05
0.0512397565687
-1.90504875465e-05
-9.22834880786e-06
-2.78408953836e-06
-0.000145327597768
-4.72655247171e-05
0.0511731024272
-5.73342533677e-05
-2.11641045336e-05
-2.89310886538e-05
-0.0511102838874
5.35083322894e-05
-1.62301798694e-06
-3.49907575939e-05
0.0101147596101
6.22269607677e-05
-3.77822705686e-05
3.08154309685e-07
0.0127487850379
-1.16494808379e-05
-1.56414599664e-05
-0.0127478947747
0.0127389493121
-2.01869543017e-06
-5.30430464941e-05
-0.0127295244621
-0.000121756068577
0.204155545607
-0.00206319256317
0.00173490069757
-0.203703297401
0.204201039004
-7.21966763894e-05
-0.000439507177684
0.000404229457349
-7.19713178518e-05
0.204300998887
-0.000282009027685
0.000254128606657
-4.68047476058e-05
0.204212933507
-0.00214868340001
0.00175914065047
-0.203898054802
0.204299856729
-0.000180172756557
-0.00054922086022
0.000432951027082
-0.000139144603534
0.20449572492
-0.00037274640631
0.000244201264039
7.59976601294e-06
0.000106181687564
0.000135261459587
-0.00226778408124
0.204259320294
0.0018171547964
-0.204127025852
2.27170514685e-05
-0.000182204536496
-0.000182555005289
-0.000199676506635
-0.000238960567054
0.204546730267
-0.000391996963409
0.000391180861666
0.0512570494534
1.79515221953e-05
-8.61730536584e-06
9.52333204532e-06
1.861916274e-06
-0.000688078474183
-0.051203403846
0.000621421524231
0.0512965799051
1.29236818048e-05
-3.99000006396e-05
-3.26250568832e-05
-5.88398710846e-05
-4.63350289255e-05
-7.42880203897e-05
-0.000258901594002
-8.38423637306e-08
-0.00126668428704
4.16718812935e-06
7.71732894668e-06
4.33701701364e-06
8.34265348935e-06
0.000262357385038
0
0
0
5.50614650318e-32
1.96190830799e-33
0
-3.99940554337e-30
0
-2.43319354948e-08
2.96747157668e-10
-1.15511380286e-07
1.19894550296e-09
5.21194724779e-30
5.06261901849e-09
-1.25240956185e-08
0.00052754640777
3.26142610189e-05
3.24165486872e-05
2.34527681508e-05
4.48990384805e-05
0.0513051713568
-0.00060290742224
5.16170374985e-05
6.08409197209e-05
4.72781120432e-05
5.6228748728e-05
0.0512101467117
0.000410198460337
-0.051173445298
8.93989556579e-06
7.91192136975e-06
0.0100776141926
-3.93547958063e-05
4.77059845541e-05
-0.0101116373804
1.47387652428e-05
-3.26078955952e-05
-0.0100441734342
-3.94723774413e-05
5.40075787537e-05
0.0100359892478
7.83867427458e-05
0.0127495251176
-0.000124331186938
9.53293495768e-05
-0.0127481021624
4.51793259067e-06
-5.66263558677e-05
-5.32718298943e-05
-4.50681060283e-05
-6.56204983389e-05
0.0513762031515
-4.61501073163e-05
0.051275074849
-6.28133345831e-05
-9.23051655707e-05
-7.1825692551e-05
-8.21035414651e-05
2.04837434557e-05
-9.13345309189e-05
-0.000101252509995
-8.19834301115e-05
-8.84036926767e-05
0.0513810228612
2.26483034528e-05
-4.8864651004e-06
-4.14245286765e-06
-3.50357076927e-05
0.0127525716096
-5.29315398779e-06
4.76000423749e-05
-0.00996395619558
-3.60281202476e-05
0.00992350267036
5.01666187386e-05
-7.25451392154e-06
-6.79818178099e-05
0.0127469665663
-0.0127568420334
-0.000117849109846
0.0127767785891
7.36835645981e-06
8.87770283526e-08
-0.000849437506552
-4.80974003255e-06
-1.68973810395e-07
-2.74173502688e-06
6.24198492508e-05
0.000218794903601
-5.1972591283e-07
1.88482993129e-06
1.0805177697e-05
1.07469241421e-05
7.12286705858e-06
6.71071221004e-06
-0.000424949823931
0.000174979339432
0.000150702849132
-3.33812349034e-06
-8.18949593538e-07
1.04758717321e-06
2.4991905429e-06
1.6282632773e-06
-9.16598593752e-07
-3.53105319186e-06
-2.30205070542e-07
2.5951231289e-06
7.94327475253e-07
1.18644514967e-06
0.000118339614187
0.000170851615711
-1.3646488725e-06
1.59672536346e-06
1.89904014388e-06
6.75623769674e-05
0.012740322595
-7.9102865264e-05
-0.012735662366
-0.0127305205117
4.38713518325e-05
-6.11790036782e-05
0.0127369161213
5.42592297931e-05
5.68148763621e-05
-5.34870695075e-05
0.0100618693241
-3.65935493811e-05
-4.85000021301e-05
0.01006554255
-0.0100557356962
6.9853909883e-05
-0.0127248517013
5.88869013995e-05
0.0100742082383
7.91346177264e-05
0.0127480194815
-7.23030269994e-05
0.0127382049214
4.23643301754e-05
-5.64936408389e-05
4.88150515484e-05
5.19314285422e-05
-0.012751469245
0.0127590888476
-6.11182682787e-05
6.13437179378e-05
-5.11710206367e-05
-3.97519048537e-05
-3.49241911581e-05
-0.0100855134691
0.010095294725
9.00699649544e-05
0.0127446934729
4.36225229436e-05
8.69412554428e-05
-6.6986972593e-05
-0.0127455680285
1.76545458044e-05
-3.44630263622e-05
0.0127512067862
2.2663361448e-05
4.251578795e-05
0.0127606313359
-5.21604824998e-05
5.49148188621e-05
-2.33092585963e-05
0.0101155140169
-2.70158635708e-05
-2.94742160765e-05
0.0101086132544
8.22257464407e-05
3.30385833943e-05
0.010114579555
7.44062148525e-05
0.0127644832377
-4.59681458648e-05
1.32386757223e-06
-0.0127605953644
0.0127585248696
-3.01673163471e-05
2.79317512381e-05
-0.0101082667089
0.0100851849766
-1.86521793164e-06
-0.0101179791061
4.5066365624e-05
0.0100952745555
7.66704556229e-06
-2.12352184021e-05
7.97486281504e-06
4.46112722821e-05
-1.65918151527e-05
-1.86227321487e-05
5.90725361051e-05
-3.66843698583e-05
-7.19807806265e-05
-0.0127191130867
0.0127314764368
2.0075490839e-06
5.95456175156e-05
-0.0101360919288
0.0101047083488
-0.0101338071537
0.0100975276935
6.46058070537e-05
5.99250662706e-06
-1.45511299267e-05
-0.0127322798882
2.99360112925e-05
-6.95204390746e-05
-0.0101355274481
7.47824476365e-05
-0.0127198877609
9.98750861002e-06
-0.0101312021851
-2.19720713073e-06
0.000344777124521
-4.05374792587e-05
-4.06516184408e-05
-3.23196154922e-05
-3.01747104258e-05
-0.000479328187267
0.000428259895608
-0.000114791747187
-1.4859602963e-06
-1.42360013054e-06
2.57583088859e-06
2.43047656688e-06
-0.000599646497388
-1.20876508331e-06
-1.56757368125e-05
-1.90714526148e-05
-2.70338933059e-05
0.000287704505429
-0.00022723723685
0.000619413892
-1.59341821169e-06
-1.07033742353e-05
-3.34308768556e-05
-2.84943523048e-05
-0.000665421210573
0.000526068940249
-2.45295054483e-06
5.34356196529e-09
3.34298925299e-06
1.45397852554e-06
1.43078926221e-08
-1.89483983372e-06
3.33640056732e-06
-0.000731311915046
1.0826832384e-05
1.27551588532e-05
1.37530196683e-05
1.14635095186e-05
-3.39247664105e-05
-8.24923171397e-07
-1.11075029973e-06
1.01325385803e-06
-8.45307802148e-07
-2.56734178265e-06
4.98958030249e-06
0.000391084585621
1.20696859708e-05
1.29807620762e-05
8.5070295197e-06
8.89279681931e-06
-0.000982031225812
-0.000256019162946
-5.33866280759e-07
-1.19622166622e-06
7.59314055561e-07
2.56745951039e-06
3.96152931992e-06
9.21143947734e-06
7.79506923796e-06
-0.00125374753762
0.0003104889407
-5.43366537235e-07
-7.22774022814e-07
-0.000164723431164
-0.0127752421036
3.29686085155e-05
0.0127716866951
0.000152754006343
0.0127823199727
0.000169710289546
-0.000174316408506
-0.0127783701829
-1.49346390151e-05
-3.73812011989e-05
0.0100577765049
4.93390899567e-05
-5.50781150073e-06
0.0100487775664
-0.0100781221969
-3.22640285134e-05
0.0127813974935
-0.00016952227942
-0.0127701554008
0.000160797634636
0.0100355174316
-2.76720377661e-05
-0.000158667815488
0.012772720718
4.37279953151e-05
0.000146232294926
-0.0127874351534
0.000148363019182
-0.000152113718611
0.0127907896865
-1.99582273541e-05
-3.87501849813e-05
5.35104159254e-05
-5.75879602067e-05
-0.010026346395
-2.75595109668e-05
0.0100227038211
-0.000161460009013
0.000132522377469
0.0127756859437
-2.85143804989e-05
0.0100262822267
3.34320766628e-06
1.76867264488e-05
-0.0100254218061
-8.61904348264e-05
6.83150763821e-07
0.0100284146729
2.36250529792e-05
-0.000110199482528
0.012751035961
8.27903033871e-05
0.0127611004616
6.90593128354e-05
-0.0127614193208
-7.58917676899e-05
-0.0100274680677
0.0100268142904
0.0127633497685
-0.0100277646392
-1.42704293995e-05
0.0127590537408
-2.37802575296e-05
1.23854149441e-05
0.0100505688879
1.23851779196e-05
0.0100535462868
3.39144431208e-05
-9.13014659206e-07
-5.49253342846e-05
0.0127555710668
-6.71587876367e-06
2.90630761642e-05
-3.62298455276e-06
0.0100043037466
2.87395599005e-05
0.0127601700304
-2.08141939048e-05
0.0100003037565
1.67058823448e-05
-5.76179729972e-06
0.0127696121749
-6.23762969031e-05
-3.21671048744e-06
-0.0127684258455
1.03695363252e-05
0.0127769744297
-2.64919577244e-05
3.61049678284e-05
-1.91792097852e-05
3.70494291285e-05
7.01874457174e-05
-0.00994893048586
-1.98933993718e-05
0.00989892180416
-2.49232319323e-05
2.26193765458e-06
0.0127818112967
-4.79726799229e-07
-0.0127434879872
-0.000111281087359
9.89956487016e-06
-3.95491515078e-06
-8.82435394648e-05
-1.95158334121e-06
4.29052623377e-05
0.0100603043167
0.0100537049303
4.19264288462e-05
-2.09829397935e-05
0.0099916166193
1.81480522917e-05
-8.89893166714e-05
0.0127567449022
0.0099994619061
0.00993306027856
2.30608991797e-06
-1.30944387497e-05
0.000125270338913
2.87176595915e-05
0.00987267053168
-4.20694602085e-05
2.64079307642e-07
0.0127962912773
6.23428927812e-06
0.0127735557428
-9.46353512594e-05
9.87703313424e-05
-0.00994221979602
0.00988994149184
0.0127875306148
-0.000174963536988
-0.000207963899504
-0.00014103101157
-0.00018748488659
0.205070114978
-0.000147639517421
0.000196453794877
2.82646396353e-05
-5.46543367338e-05
-4.80363661759e-05
-4.88817125825e-05
-5.73828778869e-05
-5.9584180168e-05
0.0514415346599
7.30054450674e-06
-0.000451520868123
3.35102658728e-06
7.01014334452e-06
9.12463024156e-06
8.44361175398e-06
0.000274841282413
-0.00116202914561
0
0
0
-8.05315162562e-30
-3.24422391339e-29
0
-5.60826927845e-30
4.90691607102e-05
5.90676887485e-05
5.4450710676e-05
5.48383030056e-05
-0.000129809711352
-0.000461364383889
0.0512273867484
2.22880141274e-05
-8.12451042591e-05
-2.64208410515e-06
0.0100436882925
0.0514666302722
-6.84439819351e-05
-8.93657010382e-05
-7.61882814689e-05
-8.02642132975e-05
4.90805653281e-05
0.0514784256037
-4.87434779325e-05
-3.34912372009e-05
-3.15748437559e-05
-5.7256067311e-05
-3.41056604344e-05
5.23875754633e-05
5.08675481306e-05
0.0098830821524
-5.19699552309e-05
6.79167499838e-05
-1.35971006076e-05
0.000117934708535
5.19021868678e-05
0.0098106548486
-5.96309599778e-05
0.00971276186031
-2.57018726274e-06
2.42298616687e-05
0.000104118358617
-0.00972898666725
-0.000102514019708
0.0514386594851
-1.10393120791e-05
-2.10242490027e-05
-2.18939578174e-05
-4.78669446414e-06
8.0667520506e-05
-5.88142091825e-05
7.64547059862e-05
-7.00231127014e-06
4.24090207759e-06
-8.25844945139e-06
2.87333461312e-06
6.44289695557e-05
-4.8174827122e-05
0.0513676056891
6.27428052962e-05
-8.00230910714e-07
6.69182413819e-06
0.000123102167529
0.00970677877735
-0.000118540698341
6.78119364493e-06
-1.90589413919e-05
0.000169490006129
-0.00972433069097
0.00973165057667
-0.000166596874039
-1.52383170877e-05
-1.60620845509e-05
-8.51571779315e-06
0.000431672829121
-0.000747908877313
-1.01204709846e-06
-0.00107877774127
4.10518681796e-06
9.11163745559e-06
1.09705379513e-05
7.23081417924e-06
-0.000462138913088
1.93510746072e-06
-0.00103743316672
4.60156650671e-06
6.78755946301e-06
6.63717950768e-06
0.000422046742623
-0.000529095143669
3.66205574657e-07
-5.72514807293e-07
2.26449044552e-07
-1.6032540093e-07
2.28959561393e-08
5.50886251524e-08
6.75915334646e-07
-3.9826925809e-07
-0.000817455316524
2.84255537797e-06
-1.37018602006e-06
1.40703807575e-06
0.000133078866399
8.31133965932e-07
-0.000384303064369
1.37641340081e-06
-4.4686772515e-06
1.63920970911e-06
-0.000177786927368
-1.01767387382e-07
-0.000547600369613
-8.57557339126e-05
-0.0127664593967
5.78114404268e-05
9.57986628625e-05
-0.000111935786377
0.0127740332516
-0.000104738290958
0.0127541687044
-7.00126309664e-05
0.0100382647653
2.72094291694e-05
-4.70022617452e-06
-7.06972403442e-05
0.0100566173724
-0.000123670298127
2.56528665928e-05
0.0100500538759
0.0127619740585
-2.56232912663e-05
-0.0127993233032
-5.92748437352e-05
1.77547831752e-05
0.012811822636
0.0127912364627
2.0969217467e-05
-3.3988224785e-05
4.90785184462e-05
-7.36984986091e-05
8.83391874663e-05
0.00984631418774
6.74892151674e-05
0.00985719087527
-4.20410994233e-05
-3.77163998864e-05
0.0128027530416
1.33449034274e-05
-6.36795009447e-05
0.00981890152007
-0.0128106467237
-7.41450216386e-05
1.50425805935e-05
0.0128203060463
-7.34100014544e-06
0.0128219140061
1.29568971081e-05
9.17210689462e-05
0.00984392550215
7.13621465378e-05
9.02289443234e-05
0.00976353888723
-7.73151913747e-05
0.00980537779258
0.0128284389555
2.09060933039e-05
0.0128276137731
-5.58938210082e-05
3.02461724604e-05
-2.87383097e-05
-3.36793485252e-05
-0.0128339596388
0.0128285780886
3.15745714352e-05
2.79908665044e-05
-0.00977145337319
0.0097530564739
0.000110253728119
8.69289485763e-05
6.06333649119e-05
-8.89032078557e-05
0.0128255001996
-3.34036410008e-05
8.73021935895e-05
3.00033701218e-05
-0.0128201890951
-2.25193042526e-06
3.62239975377e-05
0.0128137581873
-3.68282375106e-05
-3.65178380575e-05
0.0128191520862
3.32280912338e-05
1.40553285747e-05
0.00974426080217
0.000129829213603
0.00013991110617
-1.03868641477e-05
0.00971295786374
-0.00013254303057
-3.72734359992e-05
0.00974601118203
0.000147676649832
0.0128086140836
3.31314046803e-05
0.0128066751833
1.35980786969e-06
3.34791227268e-05
-3.3088541296e-05
-3.06846038396e-05
-0.0127973400084
0.0127880851103
2.52917389251e-05
1.30428227087e-06
-0.00975159937622
0.000174397668025
0.00975191465401
0.000155443864341
-1.97651723475e-05
-0.000150529197282
-2.96205510298e-05
0.0127997448983
0.000162932645556
2.88774594228e-05
-0.000421020774305
-0.0496113991305
0.0494862094384
0.000562126593191
-1.27221011569e-05
-5.48622659079e-06
5.76866701873e-06
-1.80495538137e-05
1.48542987616e-05
-0.000666582555319
0.0500905938592
-6.55473001511e-05
-6.41532733464e-05
-6.39658690271e-05
-6.62793242866e-05
0.000183089719037
-0.0500406467079
0.000693563373973
-0.00113568556783
-0.0501909701056
0.0503267369183
0.00101726104924
-6.82116075449e-05
-5.80451643554e-05
-7.20228339575e-05
-5.7834115839e-05
0.000238882921204
-0.000870057226612
-1.87970664021e-05
-1.58851697394e-05
-2.17190516066e-05
-1.23261097145e-05
0.000134160820403
0.0505533963807
0.000719177792316
-0.0504680388767
-3.82843483953e-05
-0.00039230331197
-0.000279252946404
0.000499602567024
0.000395100147051
-1.81763209358e-07
-4.05755856717e-05
-1.84363145791e-05
-1.90811257345e-05
-2.96242494829e-05
-0.00069167995777
0.000796709474318
0.000366682819513
-3.91793610424e-08
-1.88931478392e-05
3.29753359216e-07
3.93634882678e-06
-0.000384489355807
5.9257115772e-06
-0.000255089774217
-0.000340812173053
-1.07551320589e-07
5.80083249052e-06
7.23080668657e-06
7.26197571411e-06
0.00052874182438
9.04446260208e-05
9.53258088866e-06
-0.000258561683785
0.00016174994518
-2.8288053384e-05
0.000101996617051
4.9155620126e-07
1.1818296116e-05
9.25927264593e-06
1.03154285418e-05
4.72940683004e-06
2.67045648316e-05
5.2849882385e-06
3.88097963847e-06
4.84255827208e-06
-0.000580282649272
-8.10632588334e-05
-2.65238434868e-07
0.000673518088526
-5.98305784448e-09
-1.44040434426e-28
3.054716792e-09
0
2.92834105247e-09
0
5.96070981464e-29
2.53235584606e-27
-1.04287478909e-08
2.09842583925e-08
-3.55377003457e-07
1.51742286438e-08
-1.85091025764e-07
-3.35246354593e-08
1.15172134907e-07
0
9.3361702073e-29
1.78156724224e-09
1.69685311907e-09
0
0
-3.4784203613e-09
1.83760809517e-27
1.03487449487e-08
-7.82216557214e-08
-1.11588033555e-08
-9.92460810819e-08
6.42646476611e-09
-2.68942342285e-28
0
0
0
1.42692498592e-32
1.87950934474e-30
0
4.61743537487e-09
-4.61743537487e-09
0
0
0
2.21464324468e-28
7.87332473354e-05
1.3266844872e-05
3.67616848677e-05
2.58143702577e-05
2.25085214102e-05
0.049383258908
-2.94808614299e-05
3.01972498313e-05
-0.0495609978264
0.0494080363381
0.000239096787653
2.82286529189e-06
6.00023284558e-06
1.20887566986e-05
-6.33915062108e-06
2.90635570686e-06
-0.0495857323139
5.97317575269e-05
-5.6722560179e-05
-0.0105858213155
0.000107504634006
0.0105655684753
-9.44011656731e-05
0.010625047666
0.000103680230159
3.54779656001e-05
-4.75751778847e-06
-0.00010839623424
-0.0106510546857
5.55137774702e-05
2.3695954764e-05
3.86059973272e-05
4.55623923067e-05
-0.000178528407914
0.0123238355494
0.0122344935597
0.0122521901326
0.0123158992665
-0.000124252658414
0.000117684488129
4.32519043941e-05
-1.96978717662e-05
-0.000127272674213
0.0106093436191
0.000364818758996
-2.94660557945e-05
-1.45031273373e-05
-2.31293003801e-05
-2.72433818224e-05
4.33706212732e-05
-0.0496859987171
0.0498297472154
-5.20360504835e-05
-6.0102000674e-05
-4.94984945002e-05
-5.98973473442e-05
7.87527720067e-05
-0.0498150448621
0.000493057126389
0.0106400327807
3.36717361355e-05
1.1674129073e-05
-0.0106646093641
8.42873937357e-05
0.0106267127597
-3.99105748825e-06
8.77723194886e-05
-4.22688507617e-05
-0.0106614506172
1.95871901483e-05
0.000813120295375
4.58772225356e-06
2.25697119792e-05
2.02325688214e-05
3.1629747051e-06
0.0493439604042
-0.000183415895261
-0.000139868338873
-0.000177346304388
-0.000141439054286
-3.80635898246e-05
-1.48998061056e-05
-1.97221138462e-05
-6.59303048271e-06
0.0497795284839
-4.39583166148e-05
-5.41493121965e-05
-4.3950786433e-05
-5.67543215546e-05
0.000144657181831
0.0498528149314
0.000864772291035
-3.12471608913e-05
-5.28727145449e-05
-3.70091171885e-05
-4.45476606362e-05
4.09944148063e-05
-2.36005729561e-06
0.0106230047946
9.77720335744e-05
0.0106247559499
4.20794114426e-05
-1.99748704976e-05
-0.010619264375
0.000139597701889
-0.000168685334174
2.46831331178e-05
-3.50775080613e-06
7.63406382952e-05
-5.26985924212e-05
0.0106065904862
0.0105609278833
5.01937410542e-05
-6.45486919284e-06
8.20321873136e-05
-8.20254566427e-05
-0.010576148105
0.0499748304921
-5.63742742878e-05
-5.5122714782e-05
-4.18649049773e-05
-6.97159490127e-05
-0.00111899930617
8.49196744534e-05
0.0014145595255
-5.99011678822e-05
-9.3034611123e-05
-7.09050403483e-05
-8.76316412616e-05
0.0505413524227
-1.56021864589e-06
-0.0016673127049
-1.83392070433e-05
0.0106412723793
0.000159257975393
-0.000190425508251
-1.79787719567e-05
0.000112589842578
-0.0106661138914
0.000233410543896
0.0106437707098
-0.000265349026448
6.71954432381e-05
-9.96740925172e-06
8.08714715515e-05
-9.9783520246e-05
0.0105575860098
0.0001241527515
-2.01609245491e-05
0.000141894501981
-0.000164167497338
-0.0105301902579
0.0105035424506
0.000857397896808
-5.17487701038e-05
-5.77396989331e-05
-5.10599414374e-05
-5.77585990151e-05
0.00012537678489
0.0503626450812
-3.53245680353e-05
-3.39494549072e-05
-3.83929467449e-05
-3.2308565613e-05
0.000131246436306
-0.0502721945168
0.000775686806396
7.38776594813e-05
0.010549259646
1.43257970174e-05
-0.0105730228887
0.0104985779016
-7.45892526032e-06
7.18496210653e-05
-0.0105143097345
3.24807763725e-05
0.0103732192275
-5.05368028284e-06
2.03245799105e-05
-1.6638555977e-05
-0.0103814929807
1.93021521662e-05
0.00120580672716
-7.52523796079e-05
-9.47358836667e-05
-7.56349186335e-05
-8.78311169686e-05
0.0505961120278
0.000273025910563
0.0504714605564
-4.29196350108e-05
-3.11510462631e-05
-3.42890685851e-05
-3.74478140894e-05
0.000184174874398
-4.5477211761e-05
-5.06521681105e-05
-4.45986398467e-05
-5.77716416141e-05
0.0506446644889
0.00100458436748
0.000226558928423
6.49411767478e-05
0.0104970303048
4.67613698146e-05
-1.51397055783e-05
0.000109931910638
-0.0104841637821
8.97270476638e-05
0.0104680487743
2.16590591567e-05
-6.06663543663e-06
1.38022797016e-05
-2.38038022764e-05
0.0103787406604
2.72225495826e-05
-7.7919254907e-06
2.87415186838e-05
-3.86611603677e-05
-0.0103915033662
0.0103968394461
6.61154768971e-07
0.0103658839617
2.34686414174e-05
-0.0103591737467
2.06820306871e-05
-0.0103813456368
0.0103851846047
-6.48604513133e-06
1.8538394761e-05
0.000306095432725
-5.22854421658e-05
-5.46601235942e-05
-4.50374819828e-05
0.000545701011308
-0.000165552338099
-0.000313944817911
-7.20466140769e-07
0.000436493600041
0.000386241030431
-4.95855361532e-05
-3.04532653582e-05
-4.06672752228e-05
-0.000205808015079
-6.82160007134e-07
-1.53960425073e-07
-5.38589863479e-05
-4.58857274738e-05
-6.16977636602e-05
-0.000302114752884
0.000674539895732
-9.33480692597e-08
3.5505306785e-09
1.83392925251e-07
-3.31317189812e-08
1.01768162295e-07
2.62077599671e-08
-6.79672846745e-08
2.05637838259e-07
-2.13468300644e-07
-5.97195605956e-08
-3.3931061375e-08
1.04568398171e-07
-2.48210433688e-08
-1.18885505886e-08
1.29500254863e-07
-2.3010605056e-07
-3.40673171555e-08
2.01565859698e-07
-8.72468964531e-09
-5.87271193718e-08
-5.55054059898e-06
-2.2496489397e-06
-4.15605592367e-07
-1.04571104297e-07
-4.29978705842e-08
1.16646086266e-07
-3.33635231677e-08
-3.18087617886e-06
-3.91506016415e-06
0.000370889702058
-2.79189137549e-05
-1.28805113864e-05
-1.04089393541e-05
-5.79216916071e-07
-5.52570546185e-05
-7.61960799896e-05
1.2618700549e-06
3.73004741282e-06
1.67777697833e-06
0.000273788658388
-2.22732822692e-07
0.000232804177817
0.000400315382544
-1.31817837819e-07
-4.04079673076e-05
-1.81171371666e-05
-2.11610614494e-05
-0.000383061119154
0.000122787140609
-1.24969963485e-07
1.08919187771e-06
3.59199853328e-06
7.30833299007e-07
-5.47627580867e-08
0.000289717448244
0.000267475869041
2.37496986469e-06
5.06353560064e-06
1.83138299625e-06
-3.00565724633e-08
-1.15262315433e-07
6.95336240669e-08
-7.66795915335e-08
5.49279766049e-09
-2.27408057872e-08
-2.53623854228e-07
8.92019609778e-08
3.99127880706e-08
-2.09733546628e-07
0.000276138350478
4.05999879238e-06
9.0199492941e-06
2.23941982813e-05
1.25988806212e-05
0.00072739640689
-0.00029828270175
0.000373212643344
1.16665343467e-06
6.60737986656e-06
1.32412860984e-05
9.31063137949e-06
3.19370775502e-06
0.000217613160573
2.05965120525e-05
1.68911473595e-05
1.50467693234e-05
0.000349518129413
7.84241013678e-09
-1.20084397481e-07
-2.5074506181e-08
-7.36824300824e-07
9.81242356212e-08
-3.04893290985e-07
-1.53274776227e-07
1.54250598774e-07
9.86413473366e-05
-5.39216368002e-08
6.95601430314e-06
8.23233396584e-06
8.03497312406e-06
-2.31483787215e-07
-0.000484062656653
6.68104036782e-06
5.20108421413e-06
6.71239123383e-06
0.000654864805175
-3.15709614917e-05
1.58495846735e-07
-7.46234882198e-08
-2.77773395995e-07
-2.55078001929e-07
2.48254170205e-07
2.90456211291e-07
-1.6375039202e-07
-2.62085872993e-07
9.62969467226e-05
2.0986869354e-06
1.35313530813e-05
1.25236732612e-05
1.17783137994e-05
2.91413129582e-05
-0.000343846708269
-1.25921610416e-07
7.36685856671e-06
6.45090790604e-06
8.31899339836e-06
1.28985933165e-07
9.32008010049e-06
7.60441600295e-06
9.38204487277e-06
-0.000260797692896
-8.27725799464e-06
3.43881217631e-07
-3.7010159434e-07
-2.94901308549e-07
7.76094995071e-07
4.24265565761e-07
-3.93985676668e-07
8.66036415553e-07
-4.41232899607e-07
0.0124235925753
1.76843209814e-05
6.83558756525e-06
4.57141911111e-06
-0.0124376623546
-2.07495593881e-06
-0.0124167967449
0.0123892888417
1.13246119073e-05
9.46855033895e-05
-3.21625571293e-05
-8.64330052338e-05
-0.0106174892651
-4.02580360646e-05
-0.0106014403427
0.000113217751096
0.0105799375629
1.03561542947e-05
0.0123985468363
9.89462283587e-05
-0.010632995499
1.46842946502e-05
-0.0124326916862
0.0124319844
1.38611025495e-05
4.28858693294e-06
-0.0124410059833
-2.77007025447e-05
-0.012443098735
0.0124245056441
4.93297465491e-05
-2.08977152605e-05
-0.0106247422173
0.0106008289424
1.03386640965e-05
-9.5158125444e-05
8.93494606503e-05
-0.0106834133278
0.0124075854145
2.82683977379e-05
-0.0124515322615
-0.0106561496013
-0.0123850888162
6.07885203898e-05
5.93709608972e-05
-3.54410310593e-05
0.0123560886519
-3.93558240797e-05
0.0124031450586
6.55089211922e-05
-4.25502046951e-05
0.0105928995238
-0.000133428949598
-3.72449290995e-05
-0.000142142148241
0.000134491412032
0.0106068454872
-1.9742805011e-05
9.10888630404e-05
0.0123812465608
-0.000145701557075
0.0105899558921
-3.68548743796e-05
0.0124757163793
-4.39000901729e-05
5.45715213907e-05
-0.0124767408813
-0.0124594824835
5.67422903599e-05
0.012450947144
2.48521279804e-05
7.28460787577e-05
-0.0106971106274
3.90666545364e-05
-0.0106869901354
6.39925083823e-05
0.0106586185743
-0.0124642679166
7.4574129813e-05
0.0124717154323
5.7808301582e-05
-0.0107209394911
0.0124913230026
7.3399163535e-05
-7.19904652816e-05
-0.0124877462636
-9.35468115755e-05
-0.0125078898967
0.0125104505477
0.000121072577552
6.57545057587e-05
-0.0106786181763
0.0106512207454
9.09164992881e-05
-4.01253456715e-05
-0.0107019612878
2.05237389459e-05
0.0124908143338
-0.0125027278914
0.0001017616519
-0.0107135892526
-0.000102920176283
-0.0124587115665
-1.86246013558e-05
0.0124454453556
0.000122538169605
0.0124317884698
7.7414992491e-05
-1.07739599295e-05
0.000111010404847
0.0106148262047
2.3969515549e-05
0.0106399542954
7.59270751877e-05
0.0124151133233
9.75341997801e-05
0.0106272388446
8.66383105361e-05
-0.00013488683403
0.0124351035354
-5.22139722946e-06
0.000155119255305
-0.0123965129599
0.000168407289385
0.0123828165256
-0.000152147234938
-2.0412116634e-05
0.000125319832747
-0.000151072823257
1.13867346562e-05
-0.0106289164808
0.000111123664981
0.0106260892255
-0.000116469382989
0.000189781335912
0.0124283392402
9.64539948158e-05
-0.0124834150081
0.000140453722061
-5.34847840332e-05
0.01247605265
-0.000117663640393
0.0125065260699
0.000145684235776
5.50556146905e-05
0.0106326212212
7.9038479141e-05
-6.15096063093e-05
0.0105851628309
3.13382754898e-05
0.0125026972579
0.000168095776721
0.0106134035283
0.0124702605722
0.000172036061231
-4.17065573924e-05
-0.000204460949159
-0.0125034198967
0.0125089972177
0.000229305452504
5.222137412e-05
-0.0106088036559
0.0106009950468
7.08828568303e-05
-7.06744941249e-05
3.84806920257e-05
0.0124714504226
0.000198938685877
-0.000248908568615
-0.0124234273559
-5.09810578875e-05
0.0124373304355
0.000278351668411
7.94422102025e-06
0.0123741106753
0.000208162511329
-2.86545566204e-05
-0.000189271259372
-2.36647395082e-06
0.000181017318227
0.010647968225
-0.000210093475434
1.73170828639e-05
0.010640572192
0.000128770049945
0.0123869562091
-2.69667934377e-05
-0.000237389041137
0.000233957329068
-3.41507792552e-06
0.0106381743168
0.00014724151973
-0.000295225696153
-7.67543191732e-05
0.0124882953886
0.000325467354123
-4.02096917145e-06
-0.012443610122
0.00033282567209
0.0125397147296
-0.000324755656392
8.8036089457e-06
3.53432287735e-05
0.000206618977145
-0.000237183297146
-0.0106343024773
0.00013173128178
0.000206415576102
0.0106002122185
-0.000281768902524
-3.46628125325e-05
0.000173569897007
0.000365330558855
0.0125655199386
2.26411092502e-05
-0.0124723034099
0.000286243413234
-8.22767824831e-05
0.0124911598357
-0.000245248061329
0.012514319194
0.00026690480428
5.32425315646e-05
0.0106029611042
0.000102017974071
-0.000115781387343
0.0105417096395
8.4014254082e-05
0.0125303632313
0.000303734208079
0.0105927035919
0.000326475214332
-9.8129136743e-05
0.0125293003689
-0.0125593648097
-0.000364091202889
0.00036816548182
0.0126052890791
-0.0105864676574
0.000146777607053
0.010558699038
0.000111190846961
-0.000139532205472
0.000103534892135
0.000338953905985
0.0125906729144
-0.000180760677948
-0.0125530899508
-7.22620489026e-05
0.0125522003449
0.000189882882467
0.0125303174898
0.000159248644161
-0.0125321031939
7.34377792948e-05
1.86306102192e-05
0.0105261256298
7.62645588817e-05
0.0104966489355
-0.0105250115489
8.75501470793e-06
0.0125286200486
-0.0125522090212
0.00017045230538
0.0104732507108
1.01492173216e-05
-0.000209096857446
0.0125602973607
-6.42792944495e-05
0.000214735922823
-0.0125331018078
0.000236370881979
0.0125413645585
6.4478936227e-05
2.3053835464e-05
6.69615708614e-05
-0.0104604147354
1.72347922556e-05
0.0104459688053
0.000237346404966
0.0125696639336
1.2323039432e-05
0.0125818610173
0.000211309385554
-3.83889250836e-05
-0.0125745711876
-0.000228742489915
-0.0125995954578
0.0126076110933
0.00020742197175
3.86759532157e-05
-0.0104175739452
0.0104051737324
2.23560525026e-05
-1.54220806272e-05