/*--------------------------------*- C++ -*----------------------------------*\
| =========                 |                                                 |
| \\      /  F ield         | OpenFOAM: The Open Source CFD Toolbox           |
|  \\    /   O peration     | Version:  v1906                                 |
|   \\  /    A nd           | Web:      www.OpenFOAM.com                      |
|    \\/     M anipulation  |                                                 |
\*---------------------------------------------------------------------------*/
FoamFile
{
    version     2.0;
    format      ascii;
    class       volScalarField;
    location    "13.15";
    object      p;
}
// * * * * * * * * * * * * * * * * * * * * * * * * * * * * * * * * * * * * * //

dimensions      [1 -1 -2 0 0 0 0];


internalField   nonuniform List<scalar> 
28582
(
17090.6977109
17090.2686161
12192.8954722
12192.4907847
7295.24118933
7294.78551894
3621.89010981
3622.13505796
55.0849235147
53.8972884193
-27.087943129
3622.11535674
654.008123098
653.812986946
3621.88946002
3623.19105015
653.420644542
1787.80441755
1788.5847648
17089.9074102
17090.1828811
17090.662075
12191.747578
12192.2959949
12192.7102408
7293.38476098
7294.28901644
3618.67660017
3621.45913951
54.9021915701
-27.1000389972
-27.053975137
3619.07388603
3620.2002825
644.222652227
647.9513504
1785.17003441
3620.88626951
3622.33806835
3621.11679363
1787.35598739
654.547547277
1787.76341052
1785.73376791
54.7791263867
54.6936037879
-22.9521173708
-22.9408028223
54.2199125394
-22.9850456465
1787.37501176
1788.21775406
654.34721007
654.744840656
1787.92290222
655.010835731
1787.69150055
1788.37051352
1787.74733791
654.193546177
654.641229944
1788.43881435
654.878098968
1787.80267368
1788.27117127
1787.61963828
653.035947016
654.427705517
1788.43356875
654.210313332
1787.36838346
1787.04465593
652.810782183
653.747273344
1788.0800797
652.727770302
653.85996708
1787.19299605
1789.3367933
654.740526686
655.705858783
1789.11408226
656.303574103
1790.03443168
655.2578708
53.015335764
-22.9677772277
49.552002302
51.0148293564
-23.0542836198
-23.0157199726
55.0115221861
-22.9362346874
-22.922315785
55.7811673228
-22.9472477903
55.8675038188
-22.9287425591
1782.83834565
1781.77871448
645.47386406
645.155672174
1782.3558773
1782.0238344
646.5936291
1783.72320808
1783.73471951
646.763212513
649.271912908
1783.06084173
1784.54925744
648.019079203
650.746008558
652.029875278
1786.10155913
1784.42307018
650.764771994
1785.34455329
649.460056291
1786.79315893
653.318458654
653.935902778
1786.71212547
653.776018983
1786.51488064
654.049215749
1786.07662706
1785.87594163
654.186464713
654.348711354
1786.22399753
1785.50527774
654.184438558
1786.97877575
1788.27666067
654.326513529
654.985118157
654.459916059
1786.73403362
654.094239857
654.079689239
654.050449056
1784.6531052
1785.78705158
654.106754728
1785.04000675
653.891765741
7293.52319119
3620.4016163
56.5992527208
-27.051563068
3620.68905679
653.128689546
3620.45808252
3620.47437033
654.719605538
654.021514408
655.471139005
3620.6001091
3621.10888692
656.51270597
659.461955297
54.0219552092
56.8753799886
58.1513055237
-22.9428809049
-22.9488595514
-22.9789929214
59.3658256171
60.1248352401
1786.30028379
1786.74124981
651.962344239
653.499485507
1785.99153558
652.356942236
1787.07616827
1784.68934946
1785.42396482
654.928781133
654.511677875
1785.01936252
1785.02116511
654.762512302
1784.15765036
1783.87369024
654.286631111
654.265865029
1784.48924517
654.577773725
1783.37672821
1784.01778691
1783.67436176
655.548498827
654.73011557
1784.14467376
654.978651896
1783.28500017
1785.13743212
1784.21910972
656.337427353
657.473258601
1784.51027322
657.162445462
1784.94183416
1785.82741068
1786.4974148
658.882213224
658.516723224
1786.501177
658.069533946
1785.6959098
3640.53995639
3634.32286362
3632.32832024
3628.09987703
33.7016854942
36.2643685239
35.196943443
38.2818725689
40.0609738933
-27.1165322042
-27.1924465324
-27.0827169073
-27.145312619
-27.0897590159
-27.1073761751
3641.53146207
3640.80004933
644.22877356
641.822760253
3642.97263086
642.735131542
3639.29420014
3637.16858872
640.927066004
639.364275241
3641.17004985
3637.53548051
3637.52982534
641.854549156
645.50145855
639.844924019
642.504140683
3636.33241571
3633.39734166
647.394565388
649.270592287
643.4724263
644.339197041
3633.73280673
3630.91421568
639.396472694
641.651115882
640.167697935
3629.96489128
3629.59805465
3627.76674751
642.35176886
643.309744474
640.781211038
642.197299793
640.531620594
642.153473271
35.5873845563
34.3476399366
34.8756307218
-23.0768596223
-23.0634322065
-23.0891856909
-23.0889078805
-23.0474562591
-23.0482632488
-23.0838274846
-23.0728943285
33.1066938588
33.0621129082
34.6818503016
33.6236437872
34.8345115154
-23.103893952
-23.099281914
-23.1354672745
-23.1280939707
38.5070247995
36.8134453384
39.1867717843
-23.0987390628
-23.0600405913
-23.1266458991
-23.0820573358
36.5835472486
37.9943702945
-23.1492977083
-23.136786643
-23.1447674332
40.2817512781
39.6275900937
41.3650141814
-23.1268916959
-23.0777665725
-23.1345423625
-23.0852305678
1804.56357535
1806.06601866
643.509125756
643.482365703
1805.81609077
642.808663307
1804.77841111
1804.20219142
1804.84435769
642.665975023
641.22258884
1805.40529676
1803.81929665
642.050322805
1808.14753146
1805.92981284
643.65590591
643.824380524
1806.67709094
1807.20778065
644.824972001
1802.6899057
1804.07663615
640.393738159
640.263225359
1803.26075477
1803.31493656
639.796785706
1801.76845129
1800.71110529
639.804393365
639.092240506
1802.19339459
1800.5181543
639.463351555
1804.8354129
1804.92282279
642.824093746
641.051365014
1805.99975032
1804.00940914
641.94046724
1805.63661288
1807.92908099
643.9970963
644.417745525
1807.05510258
1806.32271536
643.062950473
1803.30239578
1800.9854014
640.435179689
640.605821028
1802.69708006
1801.31655102
641.268886988
1803.80066346
1801.55567862
643.474812601
641.483980318
1804.14851313
1801.52941016
642.290232422
1805.83161209
1808.21684198
648.927609068
645.962065136
1807.6980157
1806.51879677
647.145291816
1803.98197863
1802.87667
649.696821065
647.664252547
1806.11899523
647.912204609
1800.96440385
1803.17657527
1801.20095726
644.663577325
644.07257966
1804.05077208
1800.23711622
645.480692167
1801.44399427
1796.26964509
645.848977797
644.433286426
1798.63684269
646.013221207
1798.6324355
1796.9887343
1798.97945704
640.076345002
638.865105035
1799.10814561
1797.02583442
639.504099014
1796.85015571
1798.93549158
640.856399856
640.92444519
1799.11965868
1796.54915611
640.247520434
1795.08024694
1793.51579469
640.499006274
639.488244989
1794.75162634
1793.83582106
639.844982035
1795.08316324
1798.4446281
642.778972098
641.541616535
1797.46257939
1795.99846198
641.911894176
1793.93598361
1794.23315583
643.120850996
642.658084174
1796.06538789
642.319450537
1792.58546844
1793.43020185
1793.02654541
641.089350784
641.281334024
1794.22646994
1792.33133533
641.514168326
1792.48222196
1790.6492727
642.335784923
641.784703048
1791.52243983
641.949894447
1791.4150673
1791.30478931
1792.31318522
641.09963671
640.423068629
1791.67297368
1791.87751739
641.005879902
1790.1494477
641.685393952
1790.92865204
17088.8489914
17088.2963796
17088.3860708
17091.7191831
17093.3778019
17104.7740374
12190.9503332
12190.4584092
12190.5495296
12193.602672
12194.9712253
12207.0501716
18302.0648379
18305.0996
17077.6926849
17083.3931442
17088.2055119
17091.9305557
17097.819283
17078.3134171
18303.77536
18305.9445571
17083.5080612
17085.0740936
17086.5979514
17087.442424
17088.2431342
17102.4255852
17084.7253668
17083.6323076
17083.9959026
17085.1628418
17086.6213403
17087.6466103
17088.3001743
17102.6478371
17087.89626
17086.5554435
17086.28567
17086.9299199
17088.060343
17089.112025
17090.3480444
17104.3738492
17089.1414989
17090.2154177
17091.9131636
17104.6099129
13401.6360672
13404.2838562
12182.7222289
12186.6468626
12192.3536567
12199.7326678
12258.8210095
12081.5765392
13405.4024741
13407.2953078
12187.7344836
12189.0654334
12189.0271249
12188.6716897
12188.2642831
12192.90791
12185.7661879
12186.0078558
12187.0516842
12187.7882018
12188.1796111
12188.3586731
12188.3374289
12198.8932375
12189.6052076
12188.6439908
12188.6863846
12189.4181713
12190.099275
12190.3769518
12190.5830942
12204.970914
12191.1889241
12191.9842237
12193.1312862
12206.7901987
8500.58562138
8503.93184453
7283.5460456
7286.41487502
7289.13539535
7287.3385128
7279.84370668
7217.3866481
8505.41952992
8508.53204092
7283.71503247
7286.33479881
7286.52555156
7282.86411628
7271.92244081
7264.1183467
7287.05052967
7286.73812851
7287.50895287
7287.79938585
7286.63767961
7283.78125322
7277.28349866
7295.80257529
7293.21228882
7291.14208406
7290.12041518
7290.03517024
7290.0769088
7289.43612896
7288.05139839
7284.29616105
7302.09414979
7292.96204632
7292.4605
7292.31473576
7291.80758379
7291.15316114
7289.60762319
7305.53262637
7293.20061514
7292.65340184
7306.64572868
3602.49960043
3604.45492138
3609.05709488
3613.11431867
3616.99294026
3619.94221211
3616.82069962
3590.31627898
3608.73264021
3606.64256052
3608.84757024
3610.43530921
3612.75879982
3613.76806873
3613.24918437
3609.62615026
3598.08557947
3626.31019339
3616.74710878
3612.58852715
3612.90212766
3614.18878799
3614.4133222
3612.4108159
3611.02649726
3610.01547862
3612.56090678
3619.58926207
3616.6683659
3616.34937788
3616.85143857
3617.04682772
3615.87296365
3614.75842123
3614.89172952
3620.31759367
3619.41398262
3619.42183805
3619.41811333
3618.80391394
3618.41695912
3619.37335324
3624.99763011
3620.44744104
3621.95503691
3626.68815803
56.0917515246
58.9454634025
55.499363367
51.5037246528
50.368054545
53.9554341725
59.9675079414
64.4906139321
41.804654877
49.44766395
52.5994203966
53.8998447886
54.3885193922
53.1306493944
53.6149801941
55.8412715914
59.552559503
61.3433400167
42.6470451019
46.1894174168
47.3065139681
49.4706482821
53.0986879057
55.4568162773
57.177618802
58.2269075836
59.1541605057
60.6411640749
45.6230166761
47.1322062843
49.7366907123
52.2522522717
54.8464676492
56.6406912406
57.5111700033
58.6104739498
58.2897910069
52.2895476181
52.6216444735
54.882219002
56.1912286917
57.4031763612
58.408196577
56.6841258429
58.4088088225
59.4579237989
57.6105629395
-27.0212354668
-27.6252919439
-27.6273315948
-27.6619116713
-27.3795267562
-27.0970459532
-27.0965038194
-27.0454848882
-27.1480515263
-27.4479247033
-27.3081287845
-27.4867541827
-27.4247728552
-27.5646628294
-27.1014973869
-27.4004546527
-27.0723669573
-27.1167608696
-27.146020005
-27.3923137565
-27.3492548648
-27.1506478653
-27.1931953205
-27.1538857388
-27.0961873056
-27.0896600375
-27.2902889687
-27.0833983889
-27.1880674606
-27.4146697268
-27.1248748343
-27.1333943648
-27.0830724034
-27.0285249784
-27.0514567756
-27.0124333404
-27.0765298909
-27.1656611173
-27.4026512985
-27.0680158379
-27.020575723
-27.1859717477
-27.0634367875
-27.1239833737
-27.1714399524
-27.4242979665
-27.0920553125
-27.1846064654
-27.4717275775
18303.6786833
18302.2083687
18303.9661829
15852.1501833
15853.9155228
15852.7050855
15854.16279
18306.01658
18305.6066027
18306.8142715
15855.3451894
15852.4617335
15855.2658512
15854.8676526
18304.6693456
18306.1077687
18305.9926441
15854.2885704
15855.5905826
15856.5947492
15857.035943
18307.0571074
18306.6689666
18307.7220344
15856.8240093
15857.207603
15858.1559547
15859.3510542
13403.3077659
13402.9111082
13404.093492
10950.6378488
10952.7052512
10952.278571
10954.0405679
13405.0926039
13404.7689902
13406.6163149
10953.9116483
10954.6633874
10955.0527514
10955.5394639
13406.3594487
13407.1971834
13407.9201239
10955.3280211
10956.7789555
10957.5077804
10957.9823762
13407.9113389
13408.9680917
13412.7058859
10957.9227742
10954.8498819
10958.6350979
10961.8887166
8502.53413947
8502.61111101
8504.43811096
6051.33735868
6053.07453691
6053.37346629
6054.67999146
8504.95677453
8505.56702608
8506.62254766
6054.36340143
6055.56585704
6055.75572473
6058.0683424
8507.12603223
8507.93682079
8508.48661571
6055.91795012
6057.30984128
6058.28827071
6059.03539567
8505.4968095
8509.11306863
8511.18016048
6058.29137026
6057.99076966
6059.6609158
6061.79592022
3600.86324077
3603.43780784
642.917070919
642.075105363
3603.3919919
3604.56003854
3605.22766266
644.853723215
645.626780046
643.872850927
645.700419501
3606.4017721
3606.13375063
3607.66108306
644.585394662
644.032186913
644.860598867
643.66596644
3611.15855924
3609.63200596
3610.96628494
644.568720351
645.526083585
644.161108436
645.609069738
3615.20500798
3612.62932085
3614.17677511
645.626744381
645.793374384
645.589296521
645.45638748
3618.66667016
3615.30855305
3616.2460662
646.868995453
651.212101786
646.087868303
648.807054211
3619.88041424
3616.7520313
3616.47434606
653.218770448
656.49109893
649.671978961
652.108004001
3606.7897236
3615.19052001
3607.17753501
656.62078916
657.383921563
652.421716557
653.377661593
3578.47562306
3594.01430022
3598.32787793
663.307759205
548.499897486
654.839534399
625.567394637
3628.07735655
3620.21376416
647.265698702
638.757991068
643.905980187
641.054509941
3606.00997022
3613.4060894
3610.07159946
638.107135718
641.657865611
640.107677147
641.024307001
3607.88174381
3609.59462817
3610.25811479
643.425330214
645.725005033
641.977999196
643.845790979
3609.49053971
3611.07790487
3611.88902265
645.112295891
644.235113999
643.926471479
644.899060558
3611.54637759
3613.18418489
3614.01799235
644.73582373
646.249614315
645.915983709
648.604941013
3613.52981044
3614.1451579
3613.73335518
646.621097681
646.003266027
649.018932207
648.681049711
3613.63094355
3612.83906631
3612.09177888
646.219556775
648.671069149
648.291687929
648.046696425
3611.95501303
3611.3936184
3610.44746379
649.310887219
651.184802076
648.216286094
649.931353481
3605.04354472
3609.6006064
3608.5276089
651.611180295
652.933861716
650.736032646
653.335126503
3617.24236778
3606.52685196
3628.38275684
654.375374194
629.413690375
655.234362781
629.630737351
3621.33722809
3625.12844951
3621.86274054
643.297690121
641.589260904
642.492414956
642.653858064
3613.7602543
3618.72757814
3616.21973472
640.730936404
641.04235649
642.243810426
641.609186385
3612.55736036
3614.93319166
3614.55118903
641.681601027
643.187785101
641.760437988
643.20178399
3613.48600501
3614.57391398
3614.94505758
643.582397704
645.315934572
644.035956847
647.006766144
3614.61571923
3615.5147351
3615.83200735
646.405627003
649.234936408
648.074893819
650.103764675
3613.55476895
3615.72769344
3615.06471417
649.658303864
649.542487987
650.456731651
651.45240304
3611.6297725
3614.07519354
3613.32710775
649.024554092
648.064042303
651.413660514
650.464855868
3610.41781286
3612.91582141
3612.46519184
648.383082768
650.356862534
650.713559098
651.967576988
3610.50165821
3612.4954171
3613.80460542
651.032742355
653.41744936
652.437333698
654.406401782
3632.15745946
3617.07441838
3634.65819261
655.536701937
629.513648858
656.065563751
630.794771601
642.500535751
642.796086662
3617.68242831
3618.4377283
642.364762391
641.801576998
642.498573109
3616.3851839
3617.82617334
3617.84816859
642.024246979
643.781262509
643.332858316
646.628530748
3616.51851282
3617.964023
3618.02846327
644.692775103
647.482287271
647.792826152
649.115232386
3617.08022368
3618.10380437
3618.17869562
648.350135974
650.076118909
649.103758742
650.240688744
3616.61648397
3618.20950245
3618.05829503
650.605060012
652.188694639
651.074450801
653.384699453
3615.2114919
3617.56607877
3617.11953885
652.427661167
651.55580811
654.096573423
654.429450618
3614.61411439
3616.82583656
3616.85551627
651.590600218
652.455333961
654.387316569
655.045840345
3616.66875034
3617.40336668
3619.37422988
652.972215691
654.869003666
655.412358897
656.392615371
3636.2426663
3623.09500892
3638.13078262
656.248819567
630.339826468
657.190031972
629.049451094
3619.49017601
3620.86389802
649.11123159
649.921754011
653.002604354
3619.36468797
3620.81514641
3620.64376514
649.617228683
650.372358566
652.426671818
651.985940591
3619.26799389
3620.55280606
3620.321943
651.332805897
653.973350079
652.589425785
654.633173084
3618.50006349
3619.83206544
3619.51729295
654.435942894
654.909668471
654.797966304
655.594909788
3618.52532022
3619.61604421
3619.95115857
655.044257772
656.044365593
656.032960787
657.67049288
3621.47618748
3620.83167608
3622.92780058
656.338376762
657.061365072
658.032754339
658.394711841
3639.14692862
3626.05947364
3639.27270649
657.796983248
629.066633271
658.780618589
630.516441215
3620.26908488
655.596891699
3620.93184776
656.125719896
657.945649947
3623.83707035
658.405755406
658.750013202
3638.74142412
658.985637993
631.107324394
-22.9186620083
-22.837555698
-22.9232436663
-22.8035401227
54.338007667
53.6651037431
-22.9363837913
-22.9298436425
-22.8873578896
-22.875246521
58.0129987617
55.3009137121
56.9571768629
-22.8942881991
-22.8261317039
-22.8235446988
-22.7992909862
57.6228136332
57.3515040422
56.2244698095
-22.8250382316
-22.9010902112
-22.8539497502
-22.9092625682
53.3302072488
54.6898979377
53.1623757386
-22.9549128402
-23.0000372907
-22.9201554575
-22.96822289
50.2461680588
51.9173736542
51.208122795
-23.0712853486
-23.1015846174
-23.0193609929
-23.0696507776
51.4658009389
51.4374831905
52.4822000779
-23.0904949204
-23.0881838001
-23.0612116541
-23.0688563102
57.1311482384
54.5872063945
57.37732367
-23.0842593102
-23.0840791929
-23.0563286418
-23.0588107242
62.1921503091
59.6243918161
61.50245822
-23.105064826
-23.1174521711
-23.0835651839
-23.0998467636
72.4653987157
62.3525347769
71.0752177123
-23.1379474763
-23.0342784611
-23.1246304133
-23.0222262306
45.8431592709
42.0698908052
45.2158287374
-22.994574125
-22.9229757649
-23.0230929079
-22.9762308452
51.6386687137
47.6264949754
48.897387031
-22.9094007795
-22.8968779467
-22.9759913611
-22.9719608648
53.3506241293
49.4218052984
50.0329078498
-22.8896409272
-22.8625762259
-22.9586947688
-22.9212535888
54.2507021217
50.9636579786
52.3755665786
-22.8341613334
-22.897835228
-22.8694118329
-22.8920715297
53.5508010175
53.8966092422
54.3302624109
-22.8577601925
-22.7896661277
-22.8437981416
-22.7888668713
53.1114959583
54.5928225127
54.9751069957
-22.9434620894
-23.0080267927
-22.8726354367
-22.9113450158
54.5009040907
55.7135109654
56.6383554234
-23.0079618825
-23.039211012
-22.9358946462
-22.9875100015
57.7555230666
57.2936276355
58.1698769434
-23.0189245277
-23.0258331132
-22.9758028503
-22.9941431193
61.5307176204
59.4058779892
61.4506807485
-23.0563521476
-23.0776948698
-23.0296472314
-23.0577452852
69.5002283481
61.0239960271
67.4533651811
-23.1097954913
-23.021562008
-23.0979626468
-23.0282381935
44.7763042528
43.1676509951
44.7091278185
-23.0551351413
-23.0301918908
-23.0685852165
-23.0562380266
46.8520155658
45.6756223308
46.2641397459
-22.9873167996
-22.966721784
-23.0153999274
-22.9976073056
48.1011078478
46.899263651
47.8282642746
-22.9472962566
-22.916281807
-22.9775419439
-22.9481964078
51.2486624746
49.2160476578
50.7719817386
-22.8794010273
-22.8609192957
-22.9210400389
-22.8976255651
54.5177846294
52.4342607298
54.0506684214
-22.8231028933
-22.8067863765
-22.8624884243
-22.8474681847
56.2368724552
55.458179252
56.4553421875
-22.830294588
-22.8280081968
-22.8470691677
-22.8323800081
58.0284942988
57.3976306398
57.8686830074
-22.8926500286
-22.9401819606
-22.8962635822
-22.9147985653
58.4946180179
57.9013406225
58.2526229095
-22.9439152537
-22.9846815949
-22.9361272201
-22.9803807104
61.1775147048
58.8941891853
60.5869476289
-23.0192444264
-23.0455140674
-23.0147019813
-23.040288316
66.1304950775
59.7076520923
64.7623246737
-23.0975532148
-23.0385291674
-23.0936234431
-23.0373853947
46.2602795861
46.8568347332
-23.0351314515
-23.0175358319
-23.0545500844
48.3912135745
47.9170963708
49.3250098745
-22.9955305429
-22.9652162878
-23.0312714437
-22.9942771888
50.9885284094
50.7845439778
51.659572795
-22.9527218248
-22.9417669328
-22.979534533
-22.9815135975
53.6342508977
52.182655826
53.0706843982
-22.9147644391
-22.8907934363
-22.9569885253
-22.9128121892
55.7110930064
54.1949831824
55.0487078407
-22.8966956617
-22.895097442
-22.9013979218
-22.923147227
57.1724492092
56.0654860473
56.8843061917
-22.9009900435
-22.9186504824
-22.9291734232
-22.9587578506
58.0367882636
57.4061903938
57.9635194064
-22.9373499344
-22.9773448543
-22.9625324343
-22.9857731867
59.8003806402
58.3828400024
59.1176463891
-23.0151775229
-23.0452855756
-23.0229594984
-23.0584977546
63.524910875
57.2589103111
62.6257870055
-23.1035883057
-23.033046236
-23.1129241419
-23.0324878217
52.6588815964
53.8775118082
-22.9980329797
-23.0130291415
-22.9803412615
-23.0051459963
53.1974281047
53.5204346533
53.646981787
-23.0015685391
-22.9284661152
-22.9957082981
-22.9301908285
55.6154654951
55.1262566833
56.017124547
-22.9121133538
-22.9465771479
-22.8918372623
-22.932557993
56.9050329466
56.5931639978
57.1623726038
-22.9553829842
-22.9875150622
-22.9398495317
-22.9717136375
58.162725229
57.7230139262
58.4539875566
-22.9839063307
-22.9978823837
-22.984279177
-23.0047802908
58.9042795546
58.6799688744
59.1748139078
-23.0312676086
-23.0711387938
-23.0377620825
-23.0780188858
62.2221587536
56.6978340399
62.3720607147
-23.1247115594
-23.0392123882
-23.130256694
-23.0430018663
57.4755076419
-22.9730569289
59.1406839247
-22.9880446202
-23.0121040796
-22.9975244524
-23.0211707344
60.165642507
-23.0424131972
-23.0762304473
-23.0511985531
-23.0748143878
63.0564703151
-23.1257715334
-23.0362058595
-23.1238801284
-23.0331190364
1765.34892818
1766.28431331
640.216559448
642.756129816
1766.60542134
640.100041205
1764.89335581
1765.75784859
1767.96996608
642.354566463
639.873136066
1766.97636985
1766.85719457
639.922297405
1767.73020447
1767.34430769
645.721423375
644.650089913
1767.50202735
645.637443331
1767.66853018
1767.23035678
1765.87636463
646.043649302
645.629366
1766.0041521
646.015920691
1767.14322647
1768.34166056
1769.06041608
644.299766138
645.025468685
1768.00511996
1769.65285206
645.415194111
1768.08154527
1769.15079792
645.698730515
645.853198249
1767.11684744
1769.70019077
646.048671923
1764.63919029
1764.92057612
644.012253014
644.533808516
1765.01315869
643.873499261
1764.56697878
1765.79564509
1767.95623838
643.73257719
643.584049705
1768.00425218
643.328789117
1765.87104544
1765.87540133
1768.55855582
644.555094521
644.293364739
1766.17773931
1768.16863153
644.04234861
1766.69351453
1769.8445816
643.494115005
643.703010611
1768.55628672
1768.62980783
643.439230253
1772.10777424
1769.9056161
644.969021337
644.259793629
1770.0898813
644.696573541
1771.80330564
1773.98785515
1775.23089108
645.389686083
645.392601805
1775.5616987
645.230018752
1773.59072323
1772.40942522
1771.40254252
644.058299673
644.637845277
1770.4557796
1773.10677866
644.530462302
1774.08976366
1775.73848388
645.324678525
645.317231664
1775.35110593
1774.62292098
645.167934632
1777.80700171
1776.65437832
645.473987019
645.458462469
1776.79785869
645.276157487
1777.89259426
1778.81455326
1780.54162982
645.449238565
645.375700668
1780.03424343
645.142395272
1779.11267696
1776.92860968
1776.48439369
645.223623889
645.512974194
1776.20961557
1776.93662753
645.147329248
1777.87142366
1778.11114794
645.254746304
645.364694384
1779.01151791
1777.51708152
645.061826844
1782.43173677
1782.01498485
648.083482728
646.36732065
1781.22637662
647.522102875
1783.58990455
1783.30210635
1785.50672775
649.519302148
650.418226323
1783.85044818
648.949264032
1784.74789403
1780.80876592
1778.68999357
646.170764669
646.848632041
1780.0034638
1779.24286333
647.235670599
1781.38564558
1780.00722725
649.415556455
647.90947728
1781.85277225
1779.71972309
648.372741007
1783.95494264
1785.86937891
654.767285033
651.879709796
1784.07588359
653.181095912
1785.94183737
1783.20515621
1784.97375471
655.840372215
654.725148145
1781.934994
654.139972075
1785.72218292
1781.46686008
1779.82276376
650.469380294
650.615345333
1781.88353353
1779.19447212
651.61285945
1780.74107179
1777.25680578
653.227358769
651.388294503
1779.61885584
1778.31591404
652.554419154
1778.7191675
1783.74821796
656.575031573
654.801208484
1780.39483285
654.789542584
1781.98319247
1776.37473668
1775.08596716
656.485812613
655.031634975
1772.62616176
654.826693005
1779.25992769
1776.64664315
1776.08596212
653.380049356
652.63018771
1778.23601612
1774.75495827
653.508974745
1774.39590807
1770.22027596
654.038021778
652.994872558
1770.99744421
1772.89130787
653.741930926
1759.26592987
1769.16405875
686.910364926
656.4397125
1766.78299296
663.357698621
1761.12638428
1745.86230953
1738.98369498
762.285877291
616.673800934
674.693552939
1759.40648143
1743.10808679
1760.41253343
1766.41589394
655.804289434
661.672311577
1766.09420784
1762.0997282
663.549358627
1748.70589511
1774.38048453
620.446429189
671.563696066
1750.96310019
676.3013301
1767.82616225
1790.08847429
1797.33651031
644.3854788
646.198565707
1790.0172459
644.110079551
1796.19920112
1783.40231781
1775.10990845
640.892683237
639.679548224
1781.97948248
1777.3732804
641.567482804
1789.75373503
1793.16388557
644.981445926
643.126863249
1789.39292178
643.669073196
1794.66620136
1784.40283499
1781.0657391
640.475273736
642.051033593
1779.31232328
1785.18031584
641.956443411
1770.66883559
1770.59604418
638.495226278
638.749334581
1768.54888654
1773.0045753
638.880943064
1770.21058416
1769.24260371
639.827680462
641.329985669
1768.26441803
1770.98094245
639.917931781
1773.00471294
1777.72719233
639.349819322
639.780324098
1775.38793637
1775.52350375
639.197035794
1772.41589417
1774.92012608
641.061197358
640.25843487
1772.92347321
1774.71258022
639.982869262
1772.99444813
1770.45450497
644.684348904
642.870647809
1771.34605223
1772.02251779
644.131509411
1773.44606619
1771.39251324
645.530902732
645.265513968
1771.66020742
1773.35346985
645.065585154
1774.56614815
1775.35252991
642.329119756
642.840687514
1773.72394613
1775.83157261
643.446227296
1774.99842987
1776.10362569
644.53510912
643.491147837
1774.97804569
1776.11465827
644.190646236
1772.1258165
1770.79405052
644.53434783
644.819996176
1770.17191948
1772.84982501
644.467965243
1771.94565606
1770.91573141
644.11144983
644.544765931
1770.18039022
1772.37804142
644.171393349
1773.87505847
1775.80539342
644.402098682
643.985772721
1774.52507316
1775.36629897
644.218307158
1773.65653338
1775.46411573
644.686016426
644.230059331
1773.91806761
1775.21161842
644.207141596
1774.65670296
1772.10456535
645.234494995
645.176766464
1773.57656354
1773.38784954
645.777735041
1775.8523406
1776.20571879
645.777554314
646.979201336
1774.95751342
1776.95432598
646.404413886
1775.81816874
1776.17817259
645.553913682
646.929543998
1774.77575658
1777.02181961
646.368760098
1776.78308843
1778.32022983
647.82455142
647.877634134
1777.66889971
1777.73350995
647.161661648
1777.61527074
1776.99640206
646.585818412
647.405855373
1777.23879082
1777.64854621
647.352364132
1777.14881088
1777.09271174
646.328232571
646.72639264
1777.27358879
1776.50182222
646.916291536
1777.95712797
1778.51783856
648.300059755
649.077626095
1778.14434137
1778.21884724
648.314832007
1777.2826562
1776.47825498
647.728860473
648.896598783
1776.32085085
1777.51489491
648.086520443
1776.15562843
1777.2161764
646.846198264
646.69738017
1777.70377636
1776.10754156
647.055022099
1776.27596303
1778.16956811
647.885733371
648.436138479
1778.05679158
1776.30871367
647.850196312
1774.98390716
1775.31292222
647.444340286
648.055626287
1775.46211738
1774.32477476
647.52417706
1774.8135168
1773.65464933
648.145692238
647.980221793
1774.72221718
1773.78049374
647.899959074
1775.57930468
1777.91661716
649.977843718
648.842186524
1777.28977591
1776.04305761
649.371220018
1774.95111973
1775.41769684
650.531691134
650.360881932
1776.42717499
1774.21280495
649.890067784
1774.42589163
1773.63129708
648.313419731
648.625653579
1774.58014101
1773.65360143
648.806724447
1774.07569157
1773.29131235
650.01578842
649.234535447
1773.61149869
1773.46075707
649.400401603
1772.45903953
1774.36666473
652.03558067
650.912289077
1773.20225476
1773.37934953
651.677797884
1771.46870416
1769.92066739
652.583234887
652.867135527
1771.77588271
1770.31710479
652.38953762
1772.51301803
1773.1244696
650.711169638
651.571785204
1773.07883396
1772.86617531
651.573650735
1771.7669602
1772.00989541
653.130058571
652.479955526
1771.08337229
1772.40680019
652.464579209
1766.53106971
1767.67645285
661.482043424
654.444982536
1764.72340279
1768.91247341
661.353603258
1758.47330277
1781.15860645
671.515130298
630.408026541
1756.19937225
670.967459083
1784.44146136
1767.97745609
1771.26443058
654.978165978
661.548582672
1770.1358666
1768.87207354
661.643415949
1759.57712267
1786.34618028
630.191580681
669.897610442
1759.69949203
670.387340707
1785.80804219
1788.88786503
1791.92520963
642.957691414
642.841058188
1789.08890884
642.803405854
1790.93293988
1786.42737839
1782.53381736
642.291459972
642.057470587
1785.84449801
1783.81862909
642.513216228
1788.66996814
1789.65329577
642.61698168
642.773561839
1788.47975258
642.784758543
1790.16990945
1786.81482991
1785.21583572
642.436590759
642.851757047
1784.70651471
1787.00300514
642.70477593
1779.76326826
1779.74534567
640.391758807
641.435958805
1777.78768712
1781.52258023
641.041543731
1778.7455765
1776.73635477
640.582829298
641.240076462
1776.8631733
1778.32212577
641.064910991
1781.14442634
1783.46357597
641.934621786
641.842190406
1782.72594549
1782.00551675
641.566758375
1780.06671676
1780.1955405
641.429467949
641.666483556
1779.40234197
1780.92757968
641.440472769
1777.97176369
1776.82729848
642.249078865
641.605089105
1776.97930798
1778.12362226
642.009399002
1777.92450732
1777.03216012
642.717029009
642.890691652
1777.09584414
1777.84962512
642.369067079
1778.73675342
1779.70477492
641.622189098
642.108150173
1778.98928526
1779.42362304
641.967923194
1778.65405708
1779.43484904
642.884417355
642.510342941
1778.63283922
1779.35208928
642.308677342
1777.81952354
1776.89964276
643.970002461
643.45027684
1776.71149906
1777.81349601
644.099090581
1778.02513643
1776.94797787
644.525996797
645.85104612
1776.68603955
1778.40618351
644.905493745
1778.9074106
1779.65071848
643.593425043
644.892125956