/*--------------------------------*- C++ -*----------------------------------*\
| =========                 |                                                 |
| \\      /  F ield         | OpenFOAM: The Open Source CFD Toolbox           |
|  \\    /   O peration     | Version:  v1906                                 |
|   \\  /    A nd           | Web:      www.OpenFOAM.com                      |
|    \\/     M anipulation  |                                                 |
\*---------------------------------------------------------------------------*/
FoamFile
{
    version     2.0;
    format      ascii;
    class       volVectorField;
    location    "13.15";
    object      U;
}
// * * * * * * * * * * * * * * * * * * * * * * * * * * * * * * * * * * * * * //

dimensions      [0 1 -1 0 0 0 0];


internalField   nonuniform List<vector> 
28582
(
(0.815022288626 0.00430200948747 -0.000454091958329)
(0.816064548304 0.00330444809452 -0.000692571386575)
(0.815218192762 0.00448133762316 0.000656745923266)
(0.816363053397 0.00312811062232 6.71780723733e-05)
(0.814890812899 0.00453866097467 -8.04294728857e-05)
(0.815708109576 0.00301512940716 -0.000841951934404)
(0.817979877049 0.00495247990414 0.00299676166215)
(0.819634701099 0.00287597261176 0.000462297880328)
(-0.144989701719 0.0283153369441 -0.00290267645853)
(-0.323614408084 -0.0582239360009 -0.00455275177626)
(-0.00879602258914 0.0314483808655 -0.244161046288)
(0.818789807262 0.00376291846003 0.00255664107641)
(0.75207880765 0.00268859115725 0.00301027145407)
(0.75518037003 0.00398223675651 0.00263097571769)
(0.819700942869 0.00145755914321 -0.0022956194794)
(0.818582226735 0.000817671825002 -0.00240399833249)
(0.756255902823 0.00371496882429 0.00253288772671)
(0.817418243679 0.000275061424046 -0.00151692794573)
(0.816684981594 -0.000337091490401 -0.00382691479391)
(0.814631688602 0.00761049588909 -0.000630670111605)
(0.817488229604 0.00161637468541 -0.000496612831658)
(0.817484855586 0.00092538580177 -0.000807678245638)
(0.815064141608 0.00781505191714 -0.000323412471393)
(0.817885074434 0.00188358441955 -4.26728060671e-05)
(0.817759006174 0.000981766589728 0.000357637491654)
(0.816121006619 0.00818964500449 -6.95611639573e-06)
(0.818072411719 0.00138753162063 -0.00159657826836)
(0.819379636699 0.0103225973289 0.000205431040343)
(0.820350210332 0.000312086262915 -0.00381741630821)
(-0.332248432761 -0.0805602058325 -0.00429087896991)
(0.0680504487326 0.307325665447 -0.366442907876)
(-0.0954484613033 -0.214446527425 -0.0995052816483)
(0.820488576794 0.00896997825603 0.00248583995711)
(0.819072870305 0.00746716955622 0.00282546871033)
(0.753634312038 -0.00341965706922 -0.000739220831406)
(0.749919929777 -0.00379689221109 0.00130404897461)
(0.817527711733 0.00691122199174 0.00411034358499)
(0.820954520625 5.42686426024e-05 -0.00356255901368)
(0.819494253933 0.000110781597082 -0.00426241585935)
(0.821071319865 -1.20075084586e-05 -0.00448704939017)
(0.817539647658 -0.000163274565622 -0.0022288651686)
(0.74828321818 -0.0033716267626 -0.00183027311823)
(0.817246042492 -0.000652731604756 -0.00445687869336)
(0.818923063589 -0.000360643233796 -0.00749308116038)
(-0.180017686151 0.030537476785 -0.00496950586574)
(-0.0626524447366 0.0266481361063 -0.00741605347044)
(-0.0668657361294 0.203697136472 0.0378933541755)
(-0.0612636830882 0.185976662363 -0.00667223092066)
(-0.273980594832 -0.003579058624 -0.00623362347205)
(-0.0993126950569 0.141156209839 0.00353998071351)
(0.816831180721 0.00451530784098 0.0039367971753)
(0.816654595985 0.00352006843921 0.00287698841661)
(0.752760472162 0.00322011033418 0.00293462729263)
(0.753231984573 0.00428044433828 0.00276236829073)
(0.816211177086 0.00389781934935 0.00310512907517)
(0.753832653233 0.00490478226106 0.00257626688399)
(0.817281907463 0.00407122192394 0.00362926834217)
(0.817104593398 0.00320671740451 0.00244552352654)
(0.81803818973 0.0034550191095 0.00270598595668)
(0.753834030089 0.00356779510659 0.0031177687356)
(0.755420858132 0.00586694190836 0.00234547783772)
(0.817293917922 0.00292343843229 0.0020673951495)
(0.754503006495 0.00539261218483 0.00275281707125)
(0.81775971227 0.00374355179546 0.00325047029247)
(0.817564916981 0.0017872794417 0.000814664966282)
(0.818274273396 0.00284666541533 0.0024032975316)
(0.756616351967 0.00290543494833 0.00195230327199)
(0.75588556761 0.0055255424906 0.00236322863626)
(0.817480990661 0.00232973056548 0.00182851897246)
(0.756170578835 0.00505102138565 0.00197626442569)
(0.818411957593 0.00241196412445 0.00139528268292)
(0.818152242431 0.00125756638386 -0.000340849943143)
(0.756444030571 0.00105018075919 0.000663011763926)
(0.756222204728 0.00288873077737 7.97170502402e-05)
(0.817489974672 0.000882286791541 0.000149548971327)
(0.756914686668 0.00225348111647 0.00148112806838)
(0.756570862207 0.0041692020174 0.00122968205541)
(0.818305640922 0.00175064558124 0.000982749288454)
(0.816125287609 -4.59225033251e-05 -0.00493000829503)
(0.756902418932 0.00416048157951 -0.00178155400685)
(0.756204478551 0.00468917224573 -0.00280150027057)
(0.816481840998 0.000228735503998 -0.00122364630272)
(0.756372373623 0.00512878169631 -0.00076545842639)
(0.815795689001 0.000552086873195 -0.00203709905005)
(0.756415905 0.00514954433666 3.58842616167e-05)
(-0.102619329996 -0.0641452377611 0.00169201640267)
(-0.116094032409 0.161583365204 -0.076321758287)
(-0.16956251538 -0.063805609649 0.0047649210302)
(-0.160095677597 -0.117998978554 0.00252812753054)
(-0.153407623382 0.057354343801 -0.0604339680813)
(-0.140270604221 0.0624045431748 -0.0723596154575)
(-0.157825217353 -0.059204478804 -0.00581483300292)
(-0.0477460324901 0.0458791408648 0.0503895030201)
(-0.0346576160202 0.0499519424186 0.0112162355097)
(-0.233235236446 -0.116630431939 -0.00162078814453)
(-0.0860205133038 0.0234680255549 0.0631958496977)
(-0.326406556049 -0.094881133769 -0.00250746851161)
(-0.0596994672678 0.024016832075 0.0380517555018)
(0.819116251042 0.0101217322335 0.00186477955246)
(0.819527068796 0.0109668128917 -0.00071819272521)
(0.751854471408 -0.00346988534807 0.000464349308481)
(0.752877778536 -0.00313555788201 0.000251478732839)
(0.819637611815 0.0106229161189 0.000876304642367)
(0.819009231808 0.010527491556 0.00023468442588)
(0.751223990474 -0.00285988117599 0.00144252486191)
(0.819040194051 0.00977009405869 0.00231350789038)
(0.819898022166 0.00960985160565 0.00210233512512)
(0.750650315017 -0.00373270794924 0.000691842271865)
(0.749753029593 -0.0029289872672 0.00293002598888)
(0.819730164006 0.010148539835 0.00122786878994)
(0.818958717252 0.00912659192889 0.0034507474294)
(0.750198402477 -0.0029190566554 0.00220042252473)
(0.750945238869 0.000437610837793 0.00449671165801)
(0.750812997951 0.000782708766143 0.00517310988209)
(0.817463305752 0.00602272146325 0.00483048541707)
(0.818296276063 0.00860558066275 0.00365169364472)
(0.750362817867 -0.00158288885875 0.00433084092907)
(0.818196571408 0.00773973121621 0.00442399089297)
(0.750532382978 -0.00163869032246 0.00381961594742)
(0.818121376727 0.000779697973648 -0.000939647028298)
(0.754761104041 -7.01016385855e-05 -0.000532648119492)
(0.754881535353 0.00198443826524 -0.00152433719617)
(0.817986450986 -0.000358871911108 -0.0038860411816)
(0.753119611743 -0.00128988241886 -0.00104042979696)
(0.818107134987 0.000503304730296 -0.00225649177556)
(0.752560852466 0.000874957972096 -0.00249453214248)
(0.818581322127 -3.5381932971e-05 -0.0040886457094)
(0.818902027967 0.00115185375539 -0.00368451368514)
(0.750616183692 -0.00227892011551 -0.00150248629329)
(0.747297343063 -0.00139420104034 -0.00338161477147)
(0.8183716254 0.000915241735543 -0.00261485150234)
(0.819496174035 0.000282956875815 -0.00501020488365)
(0.75027163681 -0.000119888479461 -0.00319818944613)
(0.81803451368 -0.00051425393064 -0.00741326575222)
(0.81696106359 -0.000357537959324 -0.00553594604288)
(0.755570143717 0.00300747060341 -0.00308529255969)
(0.755059801481 0.00357827708726 -0.00427409603396)
(0.752645060855 0.00188165166978 -0.00538315561959)
(0.818045764146 -0.000729260081235 -0.00616006615638)
(0.753640870345 0.00161313908136 -0.00416265742561)
(0.750064535441 2.99449616765e-06 -0.00613445946307)
(0.74650781033 -0.0020133028363 -0.00623746237455)
(0.820506658788 8.04209286186e-05 -0.00850434437875)
(0.818782248576 -0.000516114289115 -0.00619987252074)
(0.747541351869 -0.00139746138415 -0.00460849768728)
(0.819951728747 -9.29735474703e-05 -0.00704182017895)
(0.750753688668 0.000282997688691 -0.00487806065867)
(0.819450103392 0.000537662634913 -0.00176053226169)
(0.822360637289 0.000460034259637 -0.00293397715408)
(-0.311439131218 -0.0983285136982 -0.00370699143568)
(0.0642923419883 -0.0502200186832 -0.178896819031)
(0.819537311656 0.0065055207756 0.00272575155929)
(0.751108529326 0.00124025055605 0.00515696776643)
(0.822638515767 0.000320200524288 -0.00340164102032)
(0.823285410514 0.000474932658692 -0.00176932970502)
(0.745688627954 -0.0046537885307 -0.00222679657451)
(0.743629336901 -0.00376492581629 -0.00644683428491)
(0.737928323222 -0.00755633738538 -0.0014595538688)
(0.823146134589 0.000992744838329 -0.00146041317206)
(0.822274772564 0.000890192918092 -0.00130633909602)
(0.737368670089 -0.00892431849469 -0.000135717802251)
(0.737959136257 -0.0129450162576 0.00134932939285)
(-0.147814953347 -0.0647496840641 -0.00436004931024)
(-0.264163944871 -0.138815784786 -0.00189717706308)
(-0.271698147071 -0.134763122681 -0.00045276225519)
(-0.00182089484678 0.0399432957532 0.0476759003651)
(-0.0304807104832 -0.00437960326739 0.0537533160124)
(0.00600553577454 -0.0219486494683 0.0270536876051)
(-0.238506179152 -0.0716664607866 -0.00100072832434)
(-0.162968395823 0.00933777675558 -0.00176407848268)
(0.818888883567 0.00676358859239 0.00359284516009)
(0.817672475035 0.00568554553158 0.00466071560968)
(0.750584013846 -0.00152082817007 0.00423936492221)
(0.75206517473 0.00154575050258 0.0048746808708)
(0.818409435714 0.00737491836802 0.00422754737663)
(0.751346173454 -0.00140299235526 0.00367583593047)
(0.818064803653 0.00522938265474 0.0041530002984)
(0.821298054085 0.00133884166523 -0.00439109466123)
(0.819805825471 0.0018056446088 -0.00372137070892)
(0.743640267923 -0.00626111570564 -0.00193976587445)
(0.744785766641 -0.00281396778419 -0.00342859423198)
(0.821078044303 0.00215690058914 -0.00388240923152)
(0.820299352466 0.00104212991186 -0.00470163022517)
(0.742475911973 -0.00454619534171 -0.00299247144862)
(0.821718246318 0.000850557749911 -0.00576140095495)
(0.821253637446 0.000600124023214 -0.00794767039354)
(0.744540699709 -0.00316528030223 -0.00457010033495)
(0.740610550823 -0.00524980060199 -0.00500104255361)
(0.820751676708 0.000535474828943 -0.00650851152163)
(0.742134052116 -0.00473350611159 -0.00339133109008)
(0.822355860507 0.00109749153553 -0.00684918173396)
(0.8224426597 0.00174346006711 -0.00460064629116)
(0.823030847142 0.00222078972184 -0.00265159748397)
(0.739325758439 -0.00779501578711 -0.00151437536281)
(0.739067950687 -0.00629843605914 -0.00381510838603)
(0.822922731401 0.00208838241834 -0.00273541018805)
(0.740597410936 -0.00624290790012 -0.00290290328434)
(0.823006576508 0.00195676103707 -0.00532006690173)
(0.822570202309 0.00228592914678 -0.000581036021091)
(0.822869241106 0.0023568209543 -0.00119494065)
(0.738677080959 -0.00933685160955 -0.000667443408361)
(0.737252403133 -0.0102512988489 0.000701373374932)
(0.822960052806 0.00228006853719 -0.00168483495365)
(0.738480128271 -0.0106519804488 0.00011563350145)
(0.822349449194 0.00224359988556 0.000179916003336)
(0.822239385017 0.00211215209774 -0.000225222217757)
(0.821011693283 0.0019156380239 0.000898716942582)
(0.738352757359 -0.012883939609 0.000165655691575)
(0.737563574693 -0.0116578798603 0.00117204228802)
(0.821538446712 0.0019701190429 -0.000390759938796)
(0.738478655148 -0.011869514789 0.0002844148418)
(0.821947162975 0.00201939034989 0.000887085343708)
(0.795212924384 0.00778290496937 -0.000244357285619)
(0.801964369592 0.0111460136471 -0.00320868421554)
(0.804717037929 0.0177258768908 -0.00363057901343)
(0.808331559585 0.0128400616791 -0.00138995943796)
(0.142942673772 0.14100032979 0.0046321008896)
(0.255545361956 0.13462299439 -0.0007563585263)
(-0.153401187361 0.0663110087845 -0.00346398860655)
(-0.0305281067533 0.0681172411301 -0.0089150363313)
(-0.209571017663 -0.0233872672142 -0.00765751786668)
(-0.139588032554 0.00427303733225 -0.129999671343)
(0.0569958594847 -0.325434307685 0.0372803443497)
(-0.0305016536189 -0.136029730372 -0.131168812582)
(0.254566872625 -0.108917130383 -0.0768945251492)
(0.0349220299306 -0.0335678487888 -0.236877351531)
(0.323825692172 -0.0442459669071 -0.1695242249)
(0.792201750936 0.000213535680419 0.00143804568468)
(0.793491094525 0.00237144474637 0.000831723019293)
(0.753025697791 0.00717279740616 0.0045055620429)
(0.755983367448 0.00762202755917 0.000446430766082)
(0.791309459802 0.00480208495334 0.00318199852183)
(0.754113476721 0.00872597126653 0.00193286920714)
(0.795367511723 0.00479696513747 -0.000427552356403)
(0.797914233669 0.00694174018445 -0.00131960697903)
(0.756517494528 0.00664641123303 -9.81827894157e-05)
(0.757343406077 0.00213048543073 -0.00445081975093)
(0.794039637053 0.0125102448386 0.00187857415242)
(0.799082124086 0.00989856507532 -0.00181079021525)
(0.799167141284 0.0134405909982 -0.000904376247016)
(0.754657126157 0.0076477407363 0.0009098261064)
(0.752441888534 0.0109598191411 0.00195499113392)
(0.755519205474 0.00261457813695 -0.00390546216835)
(0.753486009028 0.00466259108755 -0.00387728139015)
(0.800564712671 0.0190811767637 -0.00217597776913)
(0.803103607362 0.0247988266064 -0.00207695401422)
(0.753229592414 0.0124667239625 0.00183476221516)
(0.759860827495 0.0183298071518 -0.00575887130789)
(0.754550767822 0.00586547026999 -0.00410316185131)
(0.760203517845 0.0103480134247 -0.00706977127737)
(0.802841765762 0.0143170058288 -0.00203514434985)
(0.805237594165 0.0133357284405 -0.00163461870218)
(0.754720623907 0.00133788445879 -0.00352693887394)
(0.753020556495 0.00291544649138 -0.0030823300705)
(0.752026441014 0.00132377336143 -0.000999106845353)
(0.806677982931 0.0212805338651 -0.00497643899236)
(0.80702647395 0.0153227246267 -0.00238844002828)
(0.808211964914 0.0177576884884 -0.00362546079812)
(0.754154926041 0.00403923218186 -0.00296960481809)
(0.75982088584 0.00772855453883 -0.00508822976976)
(0.753416984798 0.00160412986593 -0.000774176558569)
(0.759404427776 0.00248547380932 -0.00149603893895)
(0.753374022347 0.00163889452615 0.0002802467982)
(0.759136242218 0.00163058051876 -0.00108260038938)
(0.148229341933 0.0840108627457 0.00469470546199)
(0.113637968155 0.130091930466 0.00578427773649)
(0.19409775926 0.127711196121 0.0039661173357)
(-0.188305078328 0.0368404767813 -0.1744266808)
(-0.138702209942 0.102403994851 -0.150085684583)
(-0.190242541708 -0.0157634844179 -0.154450530157)
(-0.0939027370882 0.0261594853984 -0.141216495545)
(-0.0666883414515 -0.0437324381534 -0.0772032979533)
(-0.165532012251 -0.0276075467314 0.0968326266447)
(-0.0255071349422 -0.0762029674017 -0.0829716101682)
(-0.175600934972 0.00901435016445 0.116192426693)
(0.0600446510895 0.135912850685 0.00579815425042)
(-0.0712671950103 0.123991999452 0.00273761984073)
(0.212316799848 0.139443021077 0.0032576829774)
(0.0144063489414 0.12986309922 0.00202494347408)
(0.0725990136081 0.129949451219 -0.00126672876348)
(-0.074073651147 -0.0884700781191 -0.10623199209)
(-0.0115388026595 -0.063478546111 -0.0899917352738)
(-0.0356953567849 -0.0865282383576 -0.0180282162166)
(0.00652156042233 -0.0801803355022 0.00104766683903)
(0.257491176247 0.101180090202 -0.0150122696805)
(0.117244674458 0.11496157498 -0.00800461011502)
(0.118172237833 0.0886686722578 -0.0152898063882)
(0.0198491262652 -0.0601148621053 -0.00848893082257)
(0.00439078135463 -0.0133043347312 0.119448026951)
(0.0282968907701 -0.103941438625 0.0483114568082)
(0.0564655969649 -0.00288366591016 0.0983971990911)
(-0.085955134481 0.0703797950765 -0.00608094672723)
(-0.190406550772 0.000498979017365 -0.00619718056118)
(0.0303999972785 -0.0842747456552 -0.00355532390086)
(0.0593070007299 -0.0720269695767 0.00659768565412)
(0.0459395351392 -0.0666152264324 -0.0146286973508)
(0.00526584773816 0.0557292070547 -0.0101056848146)
(-0.137568700571 0.00308752500615 -0.0080361688966)
(-0.0905164692616 0.00948030499063 -0.00840163589231)
(0.0819776777148 -0.0954453798605 0.0302095147391)
(0.122624931099 -0.0534469187951 0.0654500060519)
(0.0806808215486 -0.0912390465381 0.00317973668394)
(0.126744184197 -0.0706966190514 0.0269132389779)
(0.796356548553 -6.00078758408e-05 0.000503438490988)
(0.795056741691 -0.000498310728169 0.00283994230546)
(0.755645989364 0.006353072445 0.00283011243178)
(0.753749762468 0.00793147829589 0.00319164647057)
(0.795513810839 0.000177437485659 0.00180904628596)
(0.756521939115 0.00698571371917 0.00168793606629)
(0.79605922005 -0.000895862789965 0.00134146323606)
(0.79669007416 0.000610172890241 -0.000303250777658)
(0.796844312188 0.00241571336904 3.14917712461e-05)
(0.754837826297 0.00793672872104 0.00192167417572)
(0.758731242173 0.00669401563281 -0.000181236592201)
(0.796080679947 0.00117734967785 0.00069748897094)
(0.797372101115 0.00124722948665 -0.00125977463933)
(0.757629865402 0.00703722217742 0.000742041140507)
(0.793359767013 0.00298824580381 0.00377077276938)
(0.795539310793 0.00329912016685 0.000607452543069)
(0.753128859295 0.00935886154601 0.00330418091515)
(0.752667773304 0.00998271882565 0.00223875671929)
(0.794452475155 0.00174204693119 0.00216278136509)
(0.794712976855 0.0048017703081 0.00276838305672)
(0.751646278237 0.0103315201101 0.00406165378125)
(0.799380636782 0.00287489580963 -0.00318783279205)
(0.797677837119 0.00342341805749 -0.00151760140849)
(0.759047058166 0.00564926397709 -0.000711783927014)
(0.75740636164 0.00539768806524 -0.00182182430266)
(0.79840940201 0.00214313344424 -0.00236946853733)
(0.798809419914 0.00407540537884 -0.00289743756438)
(0.759916514315 0.00480260241178 -0.00206165928529)
(0.800249089532 0.0040775499239 -0.00508539290756)
(0.801148716743 0.00703597569124 -0.00592817143649)
(0.757459499031 0.00372935879195 -0.00291646543574)
(0.75969258034 0.00206569565912 -0.00462977304729)
(0.799959088272 0.00536343363685 -0.00484610282037)
(0.801389709324 0.00573872826922 -0.00602122522859)
(0.759661369873 0.00355387953913 -0.00337605262695)
(0.79775292259 0.00722272311849 -0.00158620538388)
(0.79722620713 0.00462496250699 -0.000751035392736)
(0.753323980259 0.00863430725739 0.0011327135823)
(0.755532735816 0.00625225766956 -0.000873773998093)
(0.795946266862 0.00623677169011 0.000345227574975)
(0.798718449312 0.00554958822412 -0.00210900378722)
(0.754117140568 0.00722404142561 -0.000787838284337)
(0.797142797155 0.00911953501731 -0.000848242236498)
(0.79403147206 0.0102971265555 0.00100314339409)
(0.752922377999 0.00979971041141 0.00189168123019)
(0.753290398893 0.00905254986357 -0.00049720927757)
(0.795120805567 0.00817640243615 0.000960360557802)
(0.796481276693 0.011334649199 -0.00105640613506)
(0.753737453665 0.00803082269154 -0.000139369850671)
(0.799374199133 0.00835096557817 -0.0041317784147)
(0.801406995507 0.00856054173271 -0.00508286417382)
(0.755496047539 0.00459357769787 -0.002448798269)
(0.754167276909 0.00322292169741 -0.00384169460049)
(0.800046338706 0.00691518338171 -0.00404640330424)
(0.800991812753 0.0100837062538 -0.00540242293121)
(0.754063807515 0.00523295157834 -0.00214397297501)
(0.799249267035 0.0104837955115 -0.00326307921296)
(0.801112643457 0.0141302802392 -0.005563080465)
(0.753281984197 0.00692732880429 -0.00189404235696)
(0.75362418442 0.00381365228923 -0.00357088881343)
(0.798931095989 0.0126631505204 -0.00403062543029)
(0.801139874551 0.0121112115264 -0.00462585338319)
(0.753479506224 0.0059378327511 -0.00161071549464)
(0.797193985203 0.0168937734049 -0.00287408574738)
(0.793594283503 0.0127120591038 0.00101517864919)
(0.754481175897 0.0140716472279 0.00057283854591)
(0.754119232132 0.0103032586127 -0.000728303418099)
(0.794414945267 0.0154664506576 -0.00030036476997)
(0.796070218801 0.0141604766726 -0.00143802070334)
(0.755295187375 0.0118280481821 -0.00267032265191)
(0.798658333703 0.0199658858443 -0.00415050453288)
(0.799271662167 0.021087776447 -0.00541382684742)
(0.756172445285 0.0160087602669 -0.00145447979541)
(0.759819501649 0.0160141570069 -0.00695389481645)
(0.795833847057 0.0185528475152 -0.00202020163012)
(0.757317227733 0.0137403731428 -0.0038042151512)
(0.801688682174 0.0225864201341 -0.00689571282591)
(0.799922627385 0.0182883645958 -0.00555969053295)
(0.80140270536 0.0166060105543 -0.00509635244626)
(0.754253160355 0.00828721912482 -0.0021049235106)
(0.756096031277 0.00708566593967 -0.00495834258609)
(0.798895466935 0.0154876347594 -0.00382587834813)
(0.802275432507 0.0191142218492 -0.00656874347729)
(0.755918300326 0.009664400857 -0.00343907525977)
(0.801557614492 0.0209773147445 -0.00607786774794)
(0.805554546432 0.0236654782708 -0.00891974092687)
(0.759985934342 0.0134521457627 -0.0067737688559)
(0.758156409208 0.00867146747705 -0.00570780833186)
(0.803667702638 0.0214985285008 -0.00668459875126)
(0.757762111352 0.0113763238776 -0.00433078596695)
(0.803897252263 0.0235011186487 -0.0090728973565)
(0.804015239049 0.0120119448657 -0.00519678447454)
(0.802939055474 0.00994776413321 -0.00522548038374)
(0.753489472393 0.00171115166817 -0.00330163984363)
(0.754053886213 0.000679157288776 -0.00393882637595)
(0.802528382266 0.0113463134426 -0.0052894808549)
(0.80429863813 0.0106704144095 -0.00532765216173)
(0.752907643138 0.000903737730084 -0.00358604855226)
(0.804558575866 0.0136928606414 -0.00433110149872)
(0.803001084103 0.0150961838537 -0.00524204477984)
(0.753004525128 0.00212898684878 -0.00302917736941)
(0.752777554755 0.00163989847374 -0.00329252498962)
(0.802986470519 0.0132764412056 -0.00446027290775)
(0.804755187185 0.0153661969736 -0.00485757995991)
(0.752650166086 0.00112917497003 -0.00342527894768)
(0.805991846997 0.013731735061 -0.00281457779214)
(0.807206762306 0.0140315402815 -0.00211410553966)
(0.752478648339 0.00109155146882 -0.00179289528548)
(0.751541320632 0.00136375624087 -0.00133674566906)
(0.806076769186 0.0150599316897 -0.00307675220217)
(0.807060748149 0.0130511813022 -0.00209536934854)
(0.752172715932 0.000913709593294 -0.00197257545662)
(0.80616762439 0.0189046216633 -0.00493380978788)
(0.80361891892 0.0172951844401 -0.00441877376181)
(0.75583210755 0.00514436761732 -0.00357275414443)
(0.753983466875 0.00243333163311 -0.00299490643997)
(0.80439663409 0.0194667001703 -0.00583013694996)
(0.805452587717 0.0170781554217 -0.00400432581721)
(0.755746174347 0.00327170309889 -0.00321271802466)
(0.807166588579 0.020499304427 -0.00493906702865)
(0.8072479995 0.0233007740204 -0.00737314239881)
(0.757957318909 0.00640712095502 -0.00399673583593)
(0.759861771545 0.00514120765378 -0.00439220024124)
(0.805715249162 0.0215498781969 -0.00553426629592)
(0.758029974221 0.00416992344594 -0.00375357759114)
(0.808339173506 0.0218119317169 -0.00597306118725)
(0.807383776338 0.0177451267973 -0.00297784589189)
(0.808005975518 0.0151662767444 -0.00138300998717)
(0.753663608946 0.00180651407342 -0.00148912396093)
(0.755334634768 0.00182453788852 -0.000766378858079)
(0.806975363644 0.0164817545342 -0.0021657860591)
(0.808400244567 0.0161745196415 -0.0020163665523)
(0.755410259899 0.00201434743493 -0.00148641051442)
(0.8084058812 0.0190694129454 -0.00263711477093)
(0.809908909667 0.0179937260551 -0.00255384678184)
(0.759612388516 0.00321099690235 -0.00222767839634)
(0.757463504087 0.0020144333787 -0.00128600635649)
(0.809212332448 0.0172338241403 -0.0021676407219)
(0.757580733526 0.00265560230093 -0.00184319398863)
(0.809352814812 0.0199899556806 -0.00364930040058)
(0.809785574217 0.0125926108519 -0.000598855832194)
(0.808854527181 0.0137027498116 -0.000340270438184)
(0.755192046063 0.00156291692786 0.000128801189744)
(0.753209428616 0.00192918536719 0.000710532796276)
(0.809212926136 0.0143427385566 -0.00099720232837)
(0.809466635919 0.0120331607788 -2.61438613482e-05)
(0.754933783791 0.00165339120848 0.000503051629198)
(0.810519070315 0.0158165974459 -0.00184358693749)
(0.757369466234 0.00143318872181 -0.000501579459932)
(0.809876244389 0.0152491104412 -0.00112955113579)
(0.816910904701 0.00535248159671 -0.000568665871606)
(0.818251402063 0.0037943450192 -0.000706022232133)
(0.819331526316 0.00208492685053 -0.000691552498585)
(0.816992285319 -0.000278500760015 -0.000487710250152)
(0.8090885414 -0.00120563034519 0.000121721628385)
(0.835413449055 -0.0496168097141 0.000268023131034)
(0.817320529454 0.00573461103296 0.000369572050651)
(0.818379439636 0.0040062096417 5.39172525096e-05)
(0.819417718701 0.00277078200649 -6.05822186835e-05)
(0.817967953528 -0.000128433555779 0.00236243942185)
(0.810011250214 -0.00150281335775 0.00566806710469)
(0.840597892747 -0.0564359695524 0.00689480316392)
(0.816401998486 0.00607466842677 -0.00104438063664)
(0.81414926141 0.00574808777421 0.000449352768338)
(0.789458629688 0.00995156350966 0.00292795686768)
(0.785184141821 0.0108331996162 0.00169225049598)
(0.781714888762 0.0114387997068 0.00180908364228)
(0.773015460636 0.0138333108498 -0.00123934145654)
(0.782256073799 0.0167931885232 -0.0361695444201)
(0.712189480783 -0.00954311397613 0.0272600309501)
(0.826379829935 0.00604923632789 -0.000813611288794)
(0.824788520526 0.00328958873575 -0.000495622084713)
(0.820234169958 -0.000140197724729 -0.00115805508082)
(0.81846890331 -0.00174210727536 -0.00345691100484)
(0.817055748451 -0.000306840149914 -0.00420599025544)
(0.817926941577 0.00255196914745 -0.0035305591222)
(0.808912238102 0.00963882483923 -0.00186351785865)
(0.839391372897 -0.0873944572704 0.00699973855572)
(0.820354720826 0.00745200632429 -0.00105761171158)
(0.822782589104 0.00507845673936 -0.000975409066332)
(0.822772099708 0.00339774722149 -0.00135978473076)
(0.822125195154 0.00303090405538 -0.00221273409151)
(0.820856694229 0.00287719865535 -0.00209011998432)
(0.820903466364 0.00238936709932 -0.00134145291994)
(0.812457376345 0.00131366101457 2.68448799612e-05)
(0.845971972534 -0.0622261985948 0.00346348983515)
(0.816876893581 0.00829929706578 -0.000867241881158)
(0.819530165539 0.00533747526331 -0.000851960222748)
(0.82049029338 0.0030494846458 -0.00099146576586)
(0.820700394217 0.00156839527687 -0.00121493689277)
(0.8197611883 0.000896721397271 -0.00161122667372)
(0.819584439529 -8.83476477869e-05 -0.000864882881786)
(0.810778613316 -0.00153775998066 0.000548989249563)
(0.840028283949 -0.0677542178235 0.00178943239926)
(0.818952201488 0.00148950493874 -0.00105588220994)
(0.818523065119 0.000244603164259 -0.000626831349788)
(0.809881178013 -0.0011175504039 0.000253740116289)
(0.837858086181 -0.0524888674274 0.000539633639715)
(0.638589223128 0.0408903388182 0.00713495583305)
(0.636886671271 0.040185203365 0.0132787558659)
(0.64578591721 0.0242389418128 0.0210621628763)
(0.641830756441 0.0218633992307 0.0162959900642)
(0.637860946523 0.0205385652151 0.0176316528988)
(0.589836359707 0.0202834838341 0.0235021407729)
(0.68458815179 0.020002212834 0.0336258857462)
(0.113912710563 0.0246619402171 0.0680841427933)
(0.772702957419 0.0142930168513 0.00471728191337)
(0.770303232954 0.00932539486903 0.00628558526312)
(0.776119077982 0.00250473244085 0.0116297065329)
(0.772792894167 0.00159515258457 0.0133873417392)
(0.771995453306 0.00390583142209 0.0137775791322)
(0.770849911361 0.00749780840099 0.0188304806761)
(0.767784493917 0.0542339300369 0.0326289932696)
(0.793004016959 -0.196413513322 0.0514976909864)
(0.822436787943 0.00853076997228 -0.00199127802075)
(0.822658042643 0.00635914102602 -0.00119379638331)
(0.821722723048 0.00626834954588 -0.000800085435143)
(0.821588267323 0.00691519476623 -0.000411020308503)
(0.821301749384 0.00714883260564 0.00104082693667)
(0.823450661446 0.00667770013118 0.00470324897496)
(0.816255720365 0.00543273626574 0.0145693382373)
(0.889605123538 -0.107114160275 0.0197859616278)
(0.817741047834 0.00863968304424 -0.000926133313846)
(0.819791491512 0.00519116889825 -0.000255381327085)
(0.820327552845 0.00372518824924 -0.000149463332774)
(0.820455236639 0.00308757948488 6.94817784154e-05)
(0.820201095742 0.00231742935742 0.00114864335405)
(0.822002070749 0.000833486139301 0.00435550218105)
(0.813838723308 -0.00135600325964 0.0104739515545)
(0.856432384008 -0.0854146880133 0.0136065046068)
(0.81917495149 0.00219813832509 0.000692431019755)
(0.819903683533 0.000771907709547 0.00322768587365)
(0.811290843331 -0.00154228035475 0.00748099297479)
(0.846625530539 -0.0657126393821 0.00899998788663)
(0.634105666219 -0.0176264087336 0.0111068732574)
(0.628929597574 -0.0172914749609 0.0183432944387)
(0.635853943114 -0.0209532872491 0.0243178864377)
(0.633330770814 -0.0184884827426 0.0239419972601)
(0.636083326073 -0.0151253350787 0.0256939599203)
(0.634639735776 -0.00367002833862 0.0294304921856)
(0.68994058694 0.0643744636409 0.0825656072727)
(0.634059844676 -0.416762553334 0.0199536793787)
(0.733740214179 0.00656172405857 0.0163961655359)
(0.731392173794 0.00120326262669 0.0201876461796)
(0.783610914005 0.000681455021472 0.00799172302622)
(0.782826557269 0.00012577409715 0.0102408768038)
(0.784715148575 0.00197148489738 0.0113756205737)
(0.793617443482 0.000576600437282 0.0118135608816)
(0.803932657911 0.0112848864086 0.0186341561618)
(0.914723351437 -0.221429817402 0.015677023369)
(0.82312346359 0.00867263461435 -0.00334198772107)
(0.823575079765 0.00737819005549 -0.0024021971671)
(0.82316158739 0.00432152068615 -0.00206061586874)
(0.8237061527 0.00236148219948 -0.00243329741475)
(0.82554260489 0.00219285533231 -0.00205040777995)
(0.833176367006 -0.000846957475627 6.69150300888e-06)
(0.825834725437 -0.00631415283731 0.00113270188919)
(0.925164141899 -0.193033625142 0.00114924213195)
(0.814769205163 0.0124596596926 -0.00252867399199)
(0.819038116454 0.00912513044018 -0.00131858673343)
(0.820384978575 0.00618080772488 -0.000906843636231)
(0.820781174862 0.00365246203307 -0.000967460191354)
(0.821919477412 0.0023041344058 -0.00187500479589)