/*--------------------------------*- C++ -*----------------------------------*\
| =========                 |                                                 |
| \\      /  F ield         | OpenFOAM: The Open Source CFD Toolbox           |
|  \\    /   O peration     | Version:  v1906                                 |
|   \\  /    A nd           | Web:      www.OpenFOAM.com                      |
|    \\/     M anipulation  |                                                 |
\*---------------------------------------------------------------------------*/
FoamFile
{
    version     2.0;
    format      ascii;
    class       volScalarField;
    location    "6.2";
    object      p;
}
// * * * * * * * * * * * * * * * * * * * * * * * * * * * * * * * * * * * * * //

dimensions      [1 -1 -2 0 0 0 0];


internalField   nonuniform List<scalar> 
28582
(
17104.457583
17101.7552575
12206.7051664
12203.4626592
7309.00120526
7303.76865545
3638.85605352
3629.85032467
23.9686920562
30.1195402165
-27.546924315
3634.54506705
631.535035107
631.005794428
3626.26840838
3625.62766296
629.852510388
1784.16937615
1783.04197865
17106.6679156
17100.0113815
17099.4753171
12209.1504631
12201.5525208
12201.2932682
7312.44446602
7301.05404274
3642.16678818
3625.12285103
31.2545445892
-27.2861571017
-27.1266776054
3640.31343485
3640.80992712
626.939579092
629.404494591
1806.92835817
3625.55391283
3624.1691845
3624.67715263
1783.67556725
631.585857224
1782.72010753
1784.54002391
26.8295048427
29.8877689791
-23.0829355708
-23.1016207352
28.9298162632
-23.1127572379
1805.13180358
1804.11171295
631.857271478
632.575252651
1806.55504243
632.756395697
1802.78988033
1800.92386683
1796.56664599
631.684619486
631.381759833
1797.21107161
632.372664601
1799.89292002
1789.48259911
1793.10833455
628.579619774
629.945442065
1793.32472622
628.300152811
1789.66872696
1784.77574931
626.223766522
625.702462981
1786.36748733
627.144359292
626.637304016
1786.82272763
1781.38755247
624.602338733
623.243217057
1785.29551485
624.383450599
1783.63886066
625.596438062
20.9384106555
-23.1774717464
18.1370431402
20.8448746236
-23.1918360683
-23.1703535005
31.3393464419
-23.0391755741
-23.0471507379
33.8895705885
-23.0682122723
33.3613843449
-23.0555017126
1807.03542412
1807.67813381
627.763312185
626.905478053
1807.04338746
1807.63746055
627.882870356
1806.14907246
1804.96492893
628.57662503
629.61542617
1806.09749094
1804.9662053
628.830592503
629.184534087
630.112648604
1805.83675366
1806.37828971
629.780474372
1805.21825393
628.948462701
1784.29467172
625.896742236
625.468652023
1784.5674574
626.823929322
1785.11662647
626.578921391
1786.13341993
1788.16053142
629.14616094
631.640183298
1786.59754612
1787.74313108
629.065854256
1782.65195436
1781.23399458
624.516516903
623.288630219
625.241979805
1783.88113835
625.928415443
628.326250064
631.392822751
1786.40972469
1785.56922253
631.516033933
1787.22755443
628.76511288
7301.94788526
3627.17861502
35.4403221626
-27.3536945296
3637.87169303
630.899374455
3626.59769756
3628.96979028
633.972650442
634.221420538
641.441987814
3630.9014901
3632.34789201
642.988156113
645.072260631
24.0750387871
36.0397131267
37.9753891256
-23.0828001099
-23.0911740679
-23.120887658
38.7855990643
38.9202246618
1801.360706
1804.25172424
630.599073072
631.282161491
1803.63485019
630.941501323
1801.98996818
1791.39370279
1789.81489525
636.193179295
634.035267698
1791.70463065
1789.44708945
636.285928604
1791.16445469
1788.54528514
634.093387315
636.705601088
1789.07042652
636.476412784
1790.86696196
1793.36369159
1795.35043692
640.958532393
639.308048724
1795.40320126
638.94968259
1793.20604814
1797.91106111
1796.91209744
642.546981517
644.053072616
1796.93306741
643.612040552
1797.81780744
1798.59114977
1798.73826101
644.449028832
644.785697151
1798.75407908
644.149509106
1798.48585836
3652.37433058
3646.82762479
3646.93579116
3644.99538996
12.6421334257
13.4831023704
15.2549610249
16.2497377586
15.432274373
-27.0159206452
-27.2115688566
-27.0597015235
-27.1618267651
-27.1171698155
-27.1742062216
3656.14653378
3654.64717203
622.777396358
622.257093947
3655.9376438
622.737415064
3651.64763965
3648.85238193
621.831524266
621.830547009
3652.94679176
3649.07602105
3649.44989
622.909445747
626.075402519
623.343519662
625.371462605
3649.29167748
3648.3759265
626.350619062
626.597502891
625.830609305
626.243091457
3647.02545544
3645.68188647
623.501149336
625.34279102
624.451734988
3646.76697749
3645.79064131
3645.83900866
625.902162473
626.388078354
625.140428747
625.823887722
624.550242741
625.253056796
8.71908774996
9.72666445791
11.2143517468
-23.240984025
-23.2511695983
-23.2484457277
-23.2628519816
-23.2702777032
-23.2243944983
-23.2810881501
-23.2377671649
11.179574016
12.2843530366
13.397103791
14.3398124365
14.8422161766
-23.2467727971
-23.2660401444
-23.2427388925
-23.2587788609
13.9091707495
14.9396510195
15.049837327
-23.2894422267
-23.2477311722
-23.28885381
-23.2451964223
15.8396014001
15.6529380261
-23.2262149388
-23.2516033581
-23.2502085747
16.1738162084
16.2336265709
16.2299857981
-23.2829883503
-23.2475587831
-23.2850219428
-23.256085572
1817.14977597
1817.61269415
622.257083057
623.122357128
1817.20506469
622.757447627
1817.3048115
1816.22706619
1814.66024419
622.903794746
622.244236677
1816.14915992
1814.72511614
622.748137531
1817.03345639
1815.09640599
623.007181594
623.995652794
1816.32618884
1816.04161802
623.631956477
1811.32374116
1813.22340386
621.243390181
621.784263973
1812.97820902
1811.98263944
620.55873708
1810.38508587
1810.02630802
621.88318476
620.369623712
1811.13924257
1809.57109626
620.364705944
1813.71341695
1814.00343089
624.30387011
623.101425687
1815.03494928
1812.86045265
624.403828225
1814.35117692
1816.5729557
625.521623966
625.894435765
1815.88299493
1814.87700887
625.489755602
1812.31346167
1810.37112857
623.5316896
624.451632844
1811.85869063
1810.81800747
624.516513925
1812.75427515
1811.73499959
625.594128829
624.963617669
1813.20262766
1811.26718423
625.169776747
1815.09256886
1816.92255859
626.649501176
626.076243608
1816.80105338
1815.16939173
626.36075678
1814.55043135
1814.66853483
626.875958281
626.32068854
1816.08796704
626.46787753
1813.58689129
1813.62023263
1812.11139223
625.870579427
626.256765283
1813.54232999
1812.2874644
626.232607078
1813.30320775
1811.64312398
626.21357078
626.318493625
1812.14930981
626.302461081
1812.60905451
1809.01136746
1809.41338359
624.427951017
623.473894888
1809.77598019
1808.78379712
624.1134571
1809.33706181
1810.60251779
624.897231916
625.178076983
1810.16501427
1809.76650054
624.559475219
1808.69740106
1808.62308092
624.885315694
623.667837886
1809.12992423
1808.19483659
624.171254928
1810.48443083
1810.98029183
626.309295206
625.875546891
1811.21967905
1810.18951153
626.329649111
1810.57213655
1810.93256934
626.440533612
626.452667079
1811.26639326
626.440253937
1810.39021617
1809.89391097
1809.05206501
625.629431688
625.576184341
1809.5786823
1809.36147953
626.064308522
1809.99783763
1809.46661021
626.256256268
625.749224561
1809.50344785
626.178377559
1809.93092044
1808.41793367
1808.60007019
624.995047908
623.775825003
1808.88841298
1808.16453001
624.191810492
1809.00774839
625.182612105
1809.0338328
17103.572816
17101.0778738
17099.8843829
17099.3271043
17099.2304492
17101.9743798
12205.7278476
12202.8092591
12201.5172692
12201.604983
12201.7166976
12204.1989086
18322.4316379
18324.283814
17093.6432971
17096.3804168
17098.7447224
17100.7585493
17104.2118898
17098.3662258
18323.1482133
18324.9422831
17099.4876367
17099.1414937
17099.4118877
17099.6765661
17099.7117982
17100.2290564
17102.9888018
17100.6578752
17099.3314936
17099.2089319
17098.9259779
17098.6225552
17098.5132547
17100.281096
17105.3943574
17102.37556
17100.710826
17099.931853
17099.6543562
17099.2774046
17099.0167434
17101.2297624
17099.5141481
17099.1619472
17098.8184603
17101.4293805
13422.5556179
13424.4467697
12199.2985014
12198.1623791
12198.3697799
12202.308513
12208.2570005
12184.2572535
13425.639239
13426.7310972
12203.46355
12201.7325112
12200.2403315
12200.6502537
12200.6219647
12194.5535098
12205.0660725
12203.6220873
12202.2641486
12200.8647814
12200.0780704
12199.8816806
12199.339255
12199.0864112
12207.8352713
12204.8748099
12202.5980533
12201.6725314
12201.3760398
12201.1293075
12200.7752432
12202.2834203
12201.3080794
12201.3008302
12201.0957364
12203.3765327
8523.52819661
8526.22329296
7303.03797949
7298.15159639
7298.15714577
7303.17077113
7309.55248959
7281.06725765
8527.79143923
8530.16937707
7301.63491179
7298.336172
7299.20685373
7301.71578322
7301.11348687
7291.47148788
7308.92166503
7307.11174803
7304.05061007
7300.370864
7300.47824266
7301.44889356
7299.88692361
7298.4991702
7314.75641687
7311.42079096
7307.50118434
7303.158951
7300.87989731
7301.6003886
7302.29786911
7301.56128025
7302.10084753
7307.8843182
7303.32267931
7301.26946281
7302.09977243
7302.82405575
7302.26421688
7303.92380527
7303.09459693
7302.95081203
7305.13803886
3629.12751106
3633.3169285
3632.99736787
3624.44699445
3621.29619965
3628.94684205
3634.33921363
3637.79251142
3633.38042119
3632.06582943
3635.52762737
3632.28316259
3622.9818448
3621.28689449
3628.01187884
3631.00819382
3626.7259518
3645.67651286
3640.43029029
3637.50772691
3638.08949193
3633.89959289
3624.06625526
3623.16250288
3628.55778077
3630.270413
3627.39238712
3642.92752167
3641.02739024
3638.60653733
3631.20544391
3624.47549572
3625.50671522
3630.0898382
3631.65891626
3629.19738695
3637.54293107
3629.45019287
3625.06903773
3627.11206396
3631.00997303
3632.13111713
3630.24206419
3631.11391165
3632.42295409
3631.34832438
19.0648181795
22.9979220981
32.9852511495
39.1237001659
40.2311955957
42.6354018975
43.0846389005
45.0118201237
14.4063937698
14.9589238581
17.9392715943
22.1941356671
30.6634034099
38.1891244655
41.8870879526
44.6041542012
44.1314581612
45.5777092821
16.1024926257
15.796724499
16.2969353959
20.0609235327
28.7170116949
35.4239027735
39.3841258657
43.017926424
42.7686805014
43.9223013972
15.7829234478
16.7182034496
21.9161041434
29.7351817843
33.2126286212
35.8872185274
38.5355987629
39.3898277985
41.4932614615
24.0055567742
29.7773284325
32.0304557283
34.9227344154
37.1245745654
37.8966812718
39.3090648456
38.1293272341
38.2572850938
38.2919658256
-27.1213851371
-27.1130966436
-27.2475868247
-27.2569304872
-27.5854357453
-27.6164813246
-27.4025741285
-27.1685286861
-27.3348450098
-27.7854631468
-27.1383499126
-27.0934103452
-27.1869744282
-27.1370520913
-27.4792442456
-27.6608808303
-27.7554380782
-27.18647933
-27.3911658791
-27.8526223385
-27.2215292651
-27.0567022837
-27.1312356096
-27.0913913408
-27.1878807211
-27.2729903247
-27.6565219589
-27.1225464499
-27.3647179179
-27.6870826508
-27.0501352794
-27.1122119983
-27.0807429932
-27.1982719489
-27.1960657094
-27.6163030849
-27.0904780028
-27.3302553494
-27.6088916819
-27.3648185279
-27.5225220138
-27.5776394534
-27.5961651566
-27.1282294516
-27.2975664448
-27.6441280368
-27.0682421503
-27.2306137461
-27.6394469954
18323.6069237
18322.0673571
18323.5725811
15872.8447952
15874.3796917
15873.0092949
15874.3942271
18324.2126078
18324.6737976
18324.8251638
15875.3498599
15870.6748086
15875.0189853
15872.9702957
18323.9449085
18325.225851
18324.7643199
15874.1636226
15875.325597
15876.0150685
15876.1026862
18324.8719854
18325.1008006
18325.1785487
15875.9692588
15875.0964113
15876.533243
15876.8328731
13423.7980614
13423.5971148
13424.5795719
10972.4367832
10974.0863027
10973.8537215
10975.2695884
13424.0680038
13424.696755
13425.0996064
10974.8503116
10974.3863787
10975.7935859
10975.0298128
13426.5428741
13427.1466534
13427.4167166
10976.4679311
10977.7046115
10978.4116913
10978.3800472
13425.9746212
13427.6162973
13430.2363935
10978.2723294
10973.8461255
10978.2387948
10980.2083148
8525.34241107
8525.28518101
8526.75696554
6075.81107888
6077.90025398
6077.55933296
6078.98173558
8526.22582861
8527.67804976
8527.70707107
6079.09672682
6079.58264075
6080.0019778
6081.64073713
8529.1772191
8529.9188517
8530.03741497
6079.70242577
6081.17139428
6081.80553371
6082.38751591
8526.16197426
8530.05145449
8530.96903358
6082.12954148
6081.05618539
6082.85924881
6083.66254681
3627.05859059
3629.44128951
617.76620722
618.090582169
3631.40674895
3630.68338341
3632.50502115
619.646226531
625.611199255
619.729795593
626.140362279
3634.29713788
3634.01972521
3634.18203393
627.448815958
636.790551584
628.397075084
636.26332083
3629.22764403
3631.51211982
3627.20738418
640.578482083
637.533491416
637.962973032
634.060773014
3621.10634585
3622.7870979
3620.06600426
632.559263533
625.920933009
630.95828656
628.464044047
3624.9132915
3620.82332217
3624.31459649
629.80222862
641.316712977
632.049350908
643.409212887
3631.82303844
3628.11376955
3630.75564166
644.802836791
648.726857025
646.727831653
649.753262203
3636.11951067
3632.40931988
3632.38083239
649.359227712
649.963080998
649.960940591
648.109807795
3618.16148163
3629.61556551
3620.15482382
649.738873817
610.529782134
647.222051155
614.132580852
3646.25448486
3642.07225008
625.928426487
620.137328886
626.004927568
623.441751295
3631.71052552
3637.80934783
3635.23699574
618.937546965
618.655041224
622.32673275
621.124629979
3633.88041766
3634.58496603
3635.74456394
620.013311767
626.026544207
621.645742975
625.493588152
3635.24832053
3637.01069967
3636.79587797
628.30184459
636.055217878
627.676793314
635.882143465
3627.42316431
3634.25863135
3629.42665876
637.322236692
633.652709026
637.128013643
632.070764966
3620.56024077
3624.49386659
3621.87725634
631.106292584
629.535183037
629.363538448
630.250099782
3624.71853425
3622.48358549
3625.49204307
632.793207108
643.785560107
633.473906795
644.052632923
3630.31232328
3628.41087599
3630.08478447
646.973641511
649.812941045
646.809038641
649.343583992
3629.72469242
3630.35649027
3629.04106286
649.901559499
647.365227907
649.045287467
645.817633625
3623.11333728
3626.49202129
3626.21911582
646.345379607
614.56108282
644.781652837
615.560501741
3643.27808041
3645.18154333
3643.76536188
626.098117231
624.183414551
625.658766027
624.92486762
3638.41487277
3641.94808128
3640.49397512
623.28982783
621.974972314
624.603042536
623.923663916
3637.70945066
3639.58787283
3639.14642574
622.195451144
625.718073504
624.141244452
627.747116891
3637.09336874
3638.61558889
3636.4984165
627.839533056
635.928516078
629.867011639
635.094842812
3628.46788801
3632.86575617
3627.96366723
637.058141407
631.228844124
634.566209699
628.207275976
3622.08670989
3624.36171153
3623.09178248
628.419195765
630.121771064
625.963208494
629.519612797
3625.97942826
3624.46699026
3627.05405704
633.227342161
643.734199415
632.576613653
642.062090488
3630.10764421
3629.39262655
3630.73725709
646.223148392
648.865389885
643.642233864
646.448307755
3629.29047296
3631.09185396
3630.19182174
648.663557825
645.636291849
646.705712924
644.954272502
3628.15935177
3628.4068772
3629.44927536
644.578833051
615.721830336
643.72855097
615.76481278
625.209627201
624.651706783
3641.9088006
3642.74553292
624.52768043
624.517050009
625.954814388
3640.13096435
3641.80709524
3640.33503934
624.921045535
628.884821466
626.818662064
629.303355663
3635.46430158
3637.94989034
3634.17673514
630.565672663
633.901252083
630.33149774
632.001295181
3626.83508872
3629.91458278
3626.2923569
633.36246636
627.739693176
631.189684139
626.815525488
3624.0076783
3624.7744044
3624.93849001
625.834790587
629.538713135
625.966804766
629.920785034
3627.89610556
3626.53046322
3628.68278316
632.288028565
641.291696778
632.473163993
640.020712342
3631.43295467
3630.63313063
3631.80764621
642.705474264
645.528042888
641.257828586
643.480339901
3630.81429418
3632.00869465
3631.1952395
645.920986334
644.732299663
643.796465881
642.809319017
3630.54342894
3629.68102259
3631.60200258
643.52832433
616.016190887
642.178403577
617.549107645
3633.61333859
3633.75773196
630.322262954
631.379939138
630.688592893
3626.15698222
3629.52930515
3626.33623311
630.491401863
626.503452545
629.714718146
626.233234322
3625.50345946
3625.31099874
3625.78372944
625.915284154
630.347985566
625.765434068
631.297765955
3629.12821668
3627.40838872
3629.39959997
632.907309726
640.022071096
633.812965651
640.242752069
3632.16291368
3631.19812335
3632.32915403
641.258755966
643.09561395
641.55304874
642.963755048
3631.27895896
3632.28625755
3631.51932238
643.287243146
642.14641886
642.825871537
641.277503739
3632.7451867
3630.78278462
3633.78006447
641.817082173
617.472516235
641.27215906
618.712394676
3629.27221518
640.352874195
3632.37767087
641.769114717
643.451065499
3631.7456514
643.201985109
641.331701576
3634.46136408
641.349092895
618.154787103
-23.2109017446
-23.2046845765
-23.2065552657
-23.1934194561
16.9706258868
16.254909815
-23.1739020407
-23.1723630823
-23.1744232149
-23.1614825269
21.0004609186
18.6564285978
20.7557588629
-23.191895296
-23.1983612382
-23.1773981711
-23.1840593781
26.9743882566
23.0621479585
27.3623437763
-23.1984757859
-23.1839848783
-23.1774137451
-23.1605274819
37.0791674876
32.3894378593
36.3491292807
-23.1637911263
-23.0743737054
-23.125072242
-23.0542518821
39.0822687924
39.2850572646
39.8292416331
-23.0391755715
-23.0884421069
-23.0477993516
-23.0811740889
40.9494903397
41.3576846174
42.4112274765
-23.1020543773
-23.0892794458
-23.0713285555
-23.0890195604
42.9023380299
44.0135260551
43.8630661558
-23.0874290688
-23.1711988672
-23.099697949
-23.1912571627
44.3093400729
43.8183611756
44.915498379
-23.2054864656
-23.2017720959
-23.2208699878
-23.204334689
46.3862656506
45.5675614283
47.0738101134
-23.2353696163
-23.1478506411
-23.2442754679
-23.157325219
14.6324756947
15.2559979605
15.3863401759
-23.2205422987
-23.2061849393
-23.2180393102
-23.214507179
15.7154166787
15.4626309683
15.8375830002
-23.1804188457
-23.1632010641
-23.1765759293
-23.1763164171
19.9224896081
16.9745952678
18.5530525178
-23.173934537
-23.1750969439
-23.1799440227
-23.1706604319
25.9930059804
20.8307968135
24.2076356188
-23.1635535012
-23.1427329219
-23.1455566348
-23.1284901033
34.738450777
29.2174474127
33.7331025891
-23.0839134493
-23.0242975651
-23.0719013261
-23.0281174107
39.5513822594
36.7359773524
38.0683842299
-23.0691215542
-23.0587521468
-23.1177677101
-23.0507448654
43.1873583856
40.8662476223
42.853832424
-23.1011013405
-23.1446555509
-23.0759381497
-23.1654212289
44.2999807922
44.3066932065
44.1404597714
-23.1242521001
-23.2185063577
-23.1426868024
-23.24829453
45.0132290181
43.8638067242
44.500474139
-23.2386061832
-23.2025675142
-23.2570199939
-23.206733234
47.2135092962
45.0174679537
46.8854196546
-23.2539097122
-23.160102307
-23.2579895123
-23.1663065161
16.0401134316
16.1204632943
16.1076890135
-23.2295802488
-23.20637476
-23.2354182871
-23.190639154
15.9645061278
15.9455141601
15.9203312127
-23.1510188106
-23.1671674751
-23.1335311093
-23.1611151017
17.6522282738
16.227764314
17.6763774601
-23.1736569547
-23.1506251869
-23.1610187631
-23.1467045856
23.6142096658
20.3431918
24.6867426236
-23.1397300418
-23.1158524788
-23.1354290655
-23.0972620424
32.9593401648
29.2250107324
32.6952935112
-23.0037368521
-22.9798685606
-22.9859643425
-22.9904419411
36.7601759602
34.264147071
35.4132582242
-23.0236402151
-23.0006708817
-23.0355586781
-23.0469727138
41.7800646975
37.6368870744
39.9861398625
-23.0648094002
-23.1610554957
-23.0862671968
-23.1945207955
43.1358184709
40.6910812624
41.1644547637
-23.1374037644
-23.2557215717
-23.1513956703
-23.26728139
43.4803035857
41.0909119956
42.0763419275
-23.266734138
-23.2107597717
-23.2762922232
-23.2159350639
46.4004674957
42.648932854
45.4755917769
-23.2463215982
-23.175004791
-23.2440628057
-23.1761468128
16.0103211264
16.1402753693
-23.1199842254
-23.1671740888
-23.185660291
18.542813055
17.607257206
19.9956975772
-23.1683559859
-23.1514292556
-23.178815967
-23.1509783918
26.0027363545
23.2331087734
26.8315146229
-23.0946044484
-23.0465313849
-23.084036744
-23.0517731866
32.4218171905
29.9567252829
31.9669771483
-22.9856912741
-22.9809048599
-23.0056295703
-23.0010236833
34.0683471906
32.4463820904
33.0206189507
-23.0394740176
-23.0628759514
-23.0513241461
-23.0540397038
38.0837761769
34.9056095075
36.9066678638
-23.087803291
-23.1907297198
-23.0804440005
-23.1972994075
39.2127587828
37.3408787355
37.8553366329
-23.1557131874
-23.2629875048
-23.1588873479
-23.2522569968
40.7022745342
38.417827117
39.6457391574
-23.2734901793
-23.2193745449
-23.2658928859
-23.2158579777
44.7347693855
40.4209593962
43.5653285797
-23.2408969503
-23.1738933566
-23.2475843614
-23.1765898045
27.1151907658
27.1176738345
-23.1428392632
-23.1135195049
-23.160640736
-23.1371760718
31.5053681307
29.4010347067
30.7958892074
-23.0841841552
-23.0848066731
-23.0984131677
-23.0906391767
33.0195634787
31.5357915005
33.1127120338
-23.1216641987
-23.110774806
-23.1047639649
-23.1133954439
36.7803199355
35.1669292514
37.0121640999
-23.0851917243
-23.1901829897
-23.1285817982
-23.1906649337
37.3605575635
37.4569916777
37.4858959403
-23.1568056704
-23.2304760869
-23.1477803861
-23.2045080977
38.8205071908
37.7529084079
38.3153030121
-23.2422604624
-23.2081696173
-23.2192853865
-23.1986476472
42.0898091079
38.4383580833
40.5352085204
-23.2554342076
-23.1761659199
-23.2555891909
-23.186512992
37.3056958902
-23.1219354021
38.11224065
-23.1293080994
-23.1703684343
-23.1211302415
-23.1625180096
38.5853037809
-23.1961176922
-23.1868630262
-23.1785103075
-23.1649435786
39.9617642314
-23.2455245383
-23.1858531512
-23.2267178295
-23.1714524729
1791.17582
1791.32003658
616.329946538
617.755009772
1791.58039994
616.289387773
1790.65404096
1792.11448485
1793.72056519
617.887936369
617.065285906
1792.42143777
1793.43200508
616.556245813
1794.49294039
1792.66475701
621.745406262
619.613833639
1792.79892955
621.863591696
1794.28563675
1796.28453399
1797.77001967
623.745466798
625.886529918
1798.00956219
623.951547831
1796.00442815
1795.1758148
1794.62061002
619.641796006
621.983861401
1793.53786698
1796.11607487
621.898732258
1796.9403571
1799.33502423
625.998726335
624.113506497
1798.56558275
1797.77244848
624.008232901
1800.99388985
1799.44447829
629.873183308
627.88023109
1799.50637676
630.255928431
1801.17012428
1802.23091641
1803.69842191
633.175447341
636.914632626
1802.78040725
633.439339105
1802.71178225
1801.22632761
1800.71299066
628.17412019
630.916318718
1799.92424121
1801.89509903
630.634570067
1802.2148979
1802.23484541
636.605186271
633.943189645
1802.29085294
1802.61744191
633.712041344
1798.27054461
1803.02661144
642.035845479
640.095818091
1801.60244829
640.870287824
1799.99722614
1792.8804698
1787.66943928
640.681468779
636.176340102
1785.92791281
639.357308576
1794.62276936
1797.00157582
1800.18437197
638.868801955
637.743787011
1800.69490875
1796.3569194
639.155345412
1791.7412237
1785.19898533
634.919548167
636.199916604
1785.23020915
1791.26148307
637.629424854
1775.02573392
1781.14596733
628.300559366
631.364719057
1779.57766606
628.021413783
1776.02939014
1774.55081307
1776.81907439
625.247207757
626.565872386
1776.55721969
625.336323452
1774.9370264
1775.26315759
1779.75392803
630.968355051
628.749294272
1779.29041965
1776.14529574
628.228720255
1774.9626899
1777.79861833
627.467350661
626.994668905
1777.07708982
1775.76301709
626.14501966
1782.05662173
1778.79758901
633.548607276
630.243123439
1778.48141828
634.042854846
1782.399576
1786.40723655
1791.06089386
637.445803426
642.045386734
1790.86987452
638.028716069
1786.72184516
1782.12216776
1779.42039478
631.217694749
635.597719202
1778.74275472
1782.48711904
634.899304366
1786.42384507
1790.83307353
642.77130521
639.561255674
1790.79025353
1786.61892709
638.853394457
1796.62339079
1794.3627535
646.525540815
645.571306785
1794.19198012
647.233853017
1796.77381622
1798.24028954
1799.69575904
647.628025946
649.203576525
1799.31777326
648.198985391
1798.50642667
1796.42833688
1793.96857345
646.25896751
648.246607471
1794.04703861
1796.25101352
647.881395228
1797.96246784
1798.22435015
649.575812847
648.982999785
1798.84579472
1797.60795655
648.687811748
1799.10667486
1800.11906099
649.960843623
649.71151138
1799.61386624
650.087914179
1799.89032454
1797.97498024
1796.90689186
650.390015867
649.712389106
1795.71287411
650.300042498
1798.92375341
1798.25172275
1798.18154364
649.927821913
649.664150823
1798.97751756
1797.35383598
650.007710142
1796.86040804
1792.43587949
648.899287784
649.062213271
1794.11957034
1795.53892968
649.721368128
1785.57470268
1793.35047846
650.958764667
649.317019346
1791.91370147
650.350124204
1787.46136454
1777.58508342
1777.77031033
653.575384743
611.597126431
652.825323347
1778.14358021
1779.63390206
1783.35370265
1787.80875765
648.108566967
647.57941321
1789.68690366
1781.3183102
648.598459584
1773.97911858
1779.62257062
612.888684073
648.860520629
1770.79481648
650.133517053
1778.75318868
1809.57148244
1812.61997938
624.579601011
625.744495351
1809.36208169
624.613046209
1812.15047407
1806.21656107
1801.29214576
622.358463325
621.291851051
1805.21603706
1802.93580565
622.828006909
1809.49769858
1810.82211215
625.774454196
625.355853245
1809.48943054
624.832182874
1811.44237041
1806.91379902
1805.53404991
622.401653215
624.570295848
1804.27012509
1807.65117715
623.53869384
1798.2870681
1798.22291642
618.303531738
620.260414748
1796.10576045
1800.26197788
619.36373321
1797.05318432
1795.10260434
617.982574315
619.391521698
1795.07103936
1796.77541893
618.897470502
1800.16383528
1803.47039349
621.520083714
621.538612242
1801.96262683
1801.81668284
620.528169791
1798.89674554
1800.05949218
620.222751333
621.031709337
1798.42029172
1800.66050709
619.950241405
1798.02213419
1795.71648154
621.918491294
620.438793574
1796.94380208
1797.11280341
621.993738651
1799.38290001
1800.06822977
623.938351644
625.79222536
1798.46716299
1800.92762211
623.785186078
1799.19504162
1800.0096993
621.0326823
622.532238715
1798.54046666
1800.55244178
622.242175296
1800.32109108
1802.63856943
625.550241245
623.780855123
1801.71535212
1801.44092253
623.70448865
1803.78790336
1801.592714
631.041971946
628.204601372
1802.88113623
1802.42136776
630.999530404
1804.3196602
1802.70013735
634.05527085
635.911820308
1803.42740198
1803.46639921
633.932892111
1804.55275908
1803.91295863
627.826462444
630.407683988
1803.10314298
1805.29091082
630.583205975
1805.22071726
1805.16867764
635.923051955
633.463412805
1804.46160141
1805.9556015
633.588837063
1796.9581669
1800.35941817
637.041786988
637.014525647
1796.43482201
1800.96754314
636.612653555
1791.889436
1785.7144836
635.460326122
633.252910907
1791.42491957
1786.25768735
635.036636347
1797.54335825
1802.24029398
637.062877246
636.455268985
1801.75434913
1797.77369002
636.472137891
1792.33412472
1786.39576496
632.756285218
634.366242619
1786.4936652
1792.33367888
634.754255148
1778.36685839
1780.59569725
629.209924359
630.943415165
1777.23654335
1781.4182332
629.184886994
1777.93401196
1778.53722932
627.98168707
629.984824326
1776.75772688
1779.42632991
628.194136321
1779.17882276
1781.93664033
630.236745207
628.081565028
1781.83920366
1779.73160459
628.769276978
1778.88709552
1780.81876951
630.178679546
627.851352168
1780.22030778
1779.61455599
628.089228235
1783.67700005
1780.55091075
636.279805095
633.204774299
1783.05212882
1781.33173114
636.705015513
1787.21842878
1790.85136113
640.120874633
644.0611176
1786.83779187
1791.05834464
640.47713189
1784.33486462
1782.4855569
633.449797894
636.815348599
1781.76822901
1785.07297438
636.847285514
1787.78137326
1791.78224515
644.130414122
640.567455036
1791.40542564
1788.36731925
640.641340132
1796.03504898
1793.86087224
648.499184361
647.138726117
1796.11069847
1793.94911654
648.596428851
1796.92366798
1797.6326676
649.156128978
649.768908518
1797.29892393
1797.19557859
649.178042008
1795.9717087
1794.31381043
647.041818482
648.18238304
1794.11101246
1796.0809713
648.48117157
1796.87649321
1797.12351786
649.652772102
648.830603103
1797.08829848
1796.98331849
649.107189175
1795.91640864
1797.47447768
649.278966209
649.573814331
1796.59044241
1797.03662077
648.83849773
1793.61714236
1791.19476201
648.461800902
646.709668469
1794.47093904
1790.25248874
647.851891777
1795.58676307
1796.54873769
649.358162534
648.156502869
1796.80249114
1795.54503563
648.491456216
1793.24091301
1789.79080903
646.175951332
647.030810922
1789.84449611
1793.2351034
647.370015673
1779.34934319
1786.70684105
646.645706762
645.681866572
1780.22623943
1785.77993053
645.910669695
1769.23204428
1780.25484449
648.129705597
615.036730111
1769.94950518
647.18242852
1781.04597347
1779.18248374
1785.31792128
645.168065022
644.988855053
1785.38375592
1779.20524548
645.469256496
1769.51834081
1782.3213068
615.303268746
646.190118762
1769.71829409
647.040017666
1781.94248149
1809.19615782
1810.27566392
625.547907567
626.183812643
1809.30647882
625.778805181
1809.92251381
1808.30987942
1806.51617005
624.979811012
624.750176235
1808.04839631
1807.23232122
625.375431779
1809.06921674
1809.20950302
626.056124132
625.459689092
1808.82640179
625.74612985
1809.60659501
1808.40870009
1807.76952158
624.946126578
625.244253776
1807.61020589
1808.34169889
625.443740478
1804.75855766
1804.8281983
622.529930651
624.01678082
1803.37760951
1805.93410402
623.288149135
1803.8477579
1801.67087144
622.070677508
622.754338206
1802.30279925
1803.23238709
622.868853644
1805.75488708
1807.10852107
624.379675674
624.145774935
1806.65317252
1806.44076537
623.775775694
1805.04942616
1805.58874552
623.376991623
623.840685965
1804.56308
1805.88904881
623.41882285
1803.23873244
1801.53419585
623.032233608
622.818686702
1801.90978172
1803.03614944
623.582171685
1803.927209
1803.76272991
624.192449825
626.173775462
1802.68918177
1804.86867056
624.731110089
1804.52481531
1805.46020765
623.459789262
624.965340976
1804.34471105
1805.61610038
624.16870857
1805.00619071
1806.30983071
626.842324314
626.178410683
1805.76885585
1805.94408131
625.295528077
1806.34366654
1804.78501806
630.579659263
628.216975762
1805.84910764
1805.59279771
630.860181508
1806.49159246
1805.42308411
633.48348003
635.965868159
1806.33325928
1805.17700821
633.748492869
1806.68118042
1806.56055108