/*--------------------------------*- C++ -*----------------------------------*\
| =========                 |                                                 |
| \\      /  F ield         | OpenFOAM: The Open Source CFD Toolbox           |
|  \\    /   O peration     | Version:  v1906                                 |
|   \\  /    A nd           | Web:      www.OpenFOAM.com                      |
|    \\/     M anipulation  |                                                 |
\*---------------------------------------------------------------------------*/
FoamFile
{
    version     2.0;
    format      ascii;
    class       volScalarField;
    location    "6.2";
    object      p_rgh;
}
// * * * * * * * * * * * * * * * * * * * * * * * * * * * * * * * * * * * * * //

dimensions      [1 -1 -2 0 0 0 0];


internalField   nonuniform List<scalar> 
28582
(
19553.4479926
19550.7436224
19553.6785159
19550.4280049
19553.9744405
19548.7402285
19557.3759439
19548.3043372
795.427812773
897.741208117
0.476306163105
19553.0295301
18109.1355341
17833.8056519
19544.6931438
19544.0685302
17731.7978424
19524.4813395
19522.0627371
19555.6599213
19548.993858
19548.4574855
19556.1277118
19548.5086538
19548.2459391
19557.4251432
19546.0405591
19560.6839631
19543.5740667
923.670266395
0.126416515886
-0.123606331748
19558.8155705
19559.3692481
18310.7844084
18143.9638707
19557.6698272
19543.9925024
19542.623197
19543.2480146
19523.9082846
17453.9837142
19520.7458258
19523.4750962
843.433779286
892.915417338
14.109278053
14.4600960658
877.814325663
14.276558465
19555.7034926
19553.9337502
18026.3024205
18150.7450396
19557.2796263
18069.853259
19552.4013118
19549.3487088
19543.0314488
17932.7690582
17860.9621894
19543.6250754
17971.1289407
19548.2318551
19531.8010605
19537.4632402
17634.5301142
17752.9768245
19537.7051917
17642.9234231
19532.0552557
19525.5221683
17488.2826889
17477.4811672
19527.4062069
17556.0728137
17557.3406034
19528.00958
19520.6135473
17447.9636177
17388.5684285
19525.4738833
17489.9941593
19524.5505745
17532.8711393
743.062902701
7.98015562224
695.02997079
742.108785207
5.42228738885
7.37757170222
923.982904178
9.09335197134
9.73447486519
974.497428747
7.85423275958
963.865651088
8.6830631485
19558.0395525
19559.6387708
18267.0474233
18297.6697425
19558.4903882
19559.1903247
18256.8168359
19556.5191304
19554.4441575
18210.0420566
18141.4001306
19556.6614255
19554.4857928
18204.5483786
18213.3908856
18156.7282754
19556.0376144
19556.8886966
18144.3648769
19555.0907079
18206.3145383
19525.1490904
17451.6943014
17433.2837481
19525.4778158
17429.7049942
19526.7734048
17411.2750236
19527.8406929
19531.8934811
17442.5892995
17434.8876731
19529.3382496
19530.5380248
17423.0309255
19521.2682332
19519.3226053
17407.9190711
17350.2721446
17342.3440698
19522.6368358
17397.8917316
17352.531099
17378.6597353
19526.0747511
19525.2713016
17417.4706788
19527.7395052
17405.5308157
19546.9376265
19545.6514608
1006.41419506
-0.376194529584
19556.3835878
18083.3930998
19545.1681255
19547.5361941
17460.0451813
17401.9206042
17475.0835639
19549.4605302
19550.8898979
17511.806396
17557.1699342
797.912840694
1017.21096322
1053.77970679
6.78690532795
5.76036320848
3.24268093901
1066.15163477
1069.21331252
19549.4598759
19553.7077702
18073.5523738
18001.3626232
19552.662113
17985.8912635
19550.3359484
19534.5249001
19533.8761676
17467.3930336
17439.9264885
19535.6005152
19532.6146012
17448.3112388
19532.0596998
19529.348157
17425.8490415
17418.7783622
19529.9365874
17436.9373957
19532.021448
19534.2552296
19536.2783512
17491.5511671
17440.0157043
19536.276583
17457.8055384
19534.1449967
19539.2924835
19538.3160673
17519.8938967
17537.8726865
19537.8892244
17538.0794805
19539.4327173
19539.875057
19540.1175016
17558.8388279
17550.9954142
19539.7359908
17549.2483343
19540.1399662
19570.8937937
19565.2960863
19565.4600329
19563.5016435
599.967634204
613.252994659
650.052947647
668.524920114
652.947747942
-0.0243113332662
0.458121525216
-0.0822015234621
0.179111098062
-0.139669815452
0.0119958861428
19574.7195781
19573.2271585
18701.5316417
18588.741953
19574.5442795
18548.0511611
19570.1148986
19567.2696479
18523.0057288
18392.7265445
19571.4979118
19567.553438
19567.9532807
18513.8293557
18546.8623885
18364.4774915
18379.5873302
19567.820055
19566.9474229
18559.5162175
18530.7963242
18389.4519314
18406.9653802
19565.5257559
19564.1935249
18344.6037099
18344.9884843
18323.5796643
19565.3209177
19564.3301676
19564.3961738
18349.512734
18372.9738865
18325.8890172
18347.3942469
18333.8668989
18347.3591791
526.330446536
545.191774665
572.861968763
1.68357664518
1.88839259558
2.15531933215
2.27155118338
2.78251669287
8.56181324812
3.46833925493
8.95290723477
573.043399466
593.944293824
614.968058691
634.147247788
641.465007414
2.61276850196
2.32572880683
2.52857878198
1.97121653951
617.547852741
642.985246491
642.324509814
2.86110587661
6.09705831731
2.18343058308
3.27973416263
659.574982149
656.386787297
2.32699101246
1.59626923628
1.4838023065
665.925333263
668.205562191
667.177705325
1.70459478817
2.07092959018
1.5863771267
1.77870049311
19571.9796461
19571.9476598
18726.6605549
18699.0310219
19571.4760752
18734.5837748
19572.048414
19570.7687223
19568.3856023
18658.0779083
18637.465374
19570.3010641
19568.7937654
18701.7519694
19570.8513393
19568.5591014
18612.4196153
18544.3027439
19569.6978776
19569.4030773
18570.9324663
19563.1135672
19565.9153602
18550.0639264
18450.9618267
19565.7559457
19563.8495275
18475.2728003
19561.403547
19561.4585081
18434.6091568
18418.4103984
19562.2025737
19560.7312427
18450.6426315
19565.8453463
19566.7424111
18526.0001013
18460.9153142
19567.9147196
19564.7555402
18472.5766531
19567.0510762
19570.0504203
18538.9355541
18487.6818303
19569.1703942
19567.9725252
18480.506253
19564.2857191
19562.0874116
18428.1908855
18361.2086641
19563.64527
19562.241316
18426.1167941
19564.603137
19563.2441946
18433.5114812
18368.5129176
19564.9882773
19562.6045107
18428.5437658
19569.4046266
19570.7364074
18564.9693162
18497.8411156
19570.9057277
19568.7231273
18508.5425164
19569.1415768
19569.2855773
18555.7228152
18501.3896942
19570.6974255
18507.2360547
19568.2814998
19566.9024718
19564.0120977
18446.3306061
18401.2937486
19565.7768738
19564.8570591
18459.8084252
19567.3697319
19565.2917394
18453.4093092
18406.4345124
19565.6303476
18459.7108089
19566.851656
19560.9291839
19561.3563088
18335.7642741
18350.4216629
19561.2310466
19560.8731842
18324.3875827
19560.9972532
19561.8685831
18340.1986303
18322.1619263
19561.4152072
19561.2700443
18319.0334853
19560.330016
19560.7407968
18320.7022556
18324.1788699
19560.80093
19560.5440176
18318.7434488
19562.3515623
19562.5185783
18358.138384
18330.5156232
19563.3451186
19561.7553781
18340.7806088
19562.8906958
19564.343247
18368.7694037
18357.144465
19564.2434582
18348.3365312
19563.1694651
19562.180812
19561.2305524
18326.4438405
18331.1847836
19561.5043906
19561.7265165
18333.0008534
19562.7459593
19562.2881766
18350.6060903
18339.5914918
19562.0884671
18339.3633259
19562.8638265
19561.1672986
19561.1607497
18338.8635861
18344.0615961
19561.4819917
19560.7804793
18347.0774199
19561.7669739
18343.2595683
19561.7265855
19552.5634192
19550.0641671
19548.8627656
19548.3105053
19548.2071984
19550.9484897
19552.7019773
19549.7728174
19548.475935
19548.5554082
19548.6642762
19551.1360177
19546.9360034
19548.7953214
19542.6679948
19545.3755548
19547.6420388
19549.4878159
19553.0425313
19547.3259143
19547.6492676
19549.4387456
19548.4695975
19548.0952071
19548.3640289
19548.6389887
19548.6710041
19549.1885004
19551.9822001
19549.6497066
19548.3152279
19548.186278
19547.9059035
19547.6069648
19547.4998511
19549.2678844
19554.3869244
19551.365106
19549.6918222
19548.9092995
19548.6382317
19548.2672555
19548.0082026
19550.2195805
19548.4976835
19548.15111
19547.8075711
19550.4152028
19545.1640794
19547.3186859
19546.4042871
19544.1817282
19543.4513272
19547.8451027
19554.8494895
19531.1953072
19548.192891
19549.3726775
19550.5250811
19548.6536648
19546.5926736
19546.8595753
19547.2288907
19541.4860243
19552.0547111
19550.6111515
19549.2465215
19547.8262736
19546.9837768
19546.7734808
19546.248612
19546.0427261
19554.8148772
19551.8503953
19549.5666144
19548.6412282
19548.3482039
19548.1044346
19547.7495343
19549.2541519
19548.2723617
19548.2731586
19548.0704979
19550.3509219
19544.0972693
19547.5071373
19548.3286574
19541.9632477
19540.7048142
19546.8140576
19554.3033725
19526.0171118
19548.2821899
19551.1351179
19546.9295864
19543.4021809
19543.9582036
19546.3080205
19545.8475723
19536.393959
19553.9580601
19552.1550259
19549.0841856
19545.3781995
19545.4599407
19546.4141245
19544.8461957
19543.4659328
19559.7346589
19556.4002867
19552.4787242
19548.1344634
19545.8588378
19546.5836186
19547.2805744
19546.5394457
19547.0798045
19552.8651095
19548.3055752
19546.257849
19547.089388
19547.8122841
19547.2491556
19548.9110677
19548.0795624
19547.9335196
19550.1247167
19547.5946919
19552.8738255
19552.6144857
19543.3832755
19538.8963073
19546.5922395
19552.7186711
19556.1761128
19552.0813682
19550.7858448
19554.2549498
19550.9854657
19541.3534937
19539.5920438
19546.4305033
19549.4514822
19545.1433513
19564.2379905
19558.9882612
19556.0844472
19556.6716042
19552.4363084
19542.4811401
19541.5433327
19547.0019701
19548.7427625
19545.8367814
19561.4446012
19559.5385277
19557.1198502
19549.6594564
19542.9022505
19543.9716759
19548.5868809
19550.1380141
19547.6495556
19555.9874085
19547.8798537
19543.5025028
19545.5806299
19549.4788485
19550.5792309
19548.6914644
19549.553147
19550.870303
19549.798815
720.431351732
782.512373499
958.502765641
1050.76571676
1090.86158219
1138.83333153
1146.32596962
1180.65183473
624.328584083
638.110968938
700.107099793
770.83824679
909.034589495
1036.54556002
1106.78282322
1176.73237546
1166.29740321
1188.44195372
660.939113508
652.856230827
664.021916446
732.539625549
875.957831201
996.349157086
1070.51805622
1146.61181312
1142.82041952
1160.57507151
653.123814749
671.579968956
760.140011107
896.737825378
956.748803233
1007.04163578
1064.8592108
1082.00727787
1118.18156951
797.021654061
896.58289192
931.953522414
983.325218568
1040.10332184
1053.97425066
1078.6284775
1055.04593182
1058.03832942
1055.13803387
0.308891925808
-0.0969795156611
-0.205514490594
0.0260897542222
0.381462358841
1.05577773521
-0.0259962625806
-0.191028686054
-0.357345009841
1.31630751116
0.185358763266
-0.0295730067779
-0.185361168602
-0.0252453672086
0.31427173844
0.987700883034
1.38250391718
-0.208979330021
-0.413665879143
1.65895480109
0.311117783953
-0.0241635874467
-0.142204034671
-0.0310338315937
-0.0236791913217
-0.248664401688
0.483854847947
-0.145046449912
-0.387217917928
0.928491806019
-0.0726352794279
-0.0824505301278
0.0678079623638
-0.100109158175
-0.206736211055
0.41747164165
-0.112978002841
-0.352755349359
0.682512977057
0.249779605631
0.432154027645
0.748933743195
0.584106265971
-0.15072945162
-0.32006644482
0.961883893564
-0.0907421503113
-0.253113746055
1.26211042114
19548.1140005
19546.5689267
19548.0726895
19546.3920757
19548.0079845
19546.5317699
19547.9575125
19548.7243428
19549.1702862
19549.3171322
19549.023871
19544.3574175
19548.6052252
19546.5554783
19548.4430931
19549.724338
19549.261581
19547.6779542
19548.8371949
19549.5124569
19549.5937336
19549.365573
19549.5965225
19549.6724069
19549.4650743
19548.5846777
19550.0196696
19550.3150598
19546.574419
19546.1121219
19547.2752371
19544.0151207
19545.9654282
19545.4033533
19547.1148499
19546.8876033
19547.5011062
19547.886814
19546.905239
19546.4082947
19547.803768
19546.9929564
19549.1420806
19549.6681065
19549.9301366
19548.010975
19549.381576
19549.9251347
19549.9254567
19548.6147635
19550.1094275
19552.7186236
19550.0631392
19545.6765971
19549.8109075
19551.8036741
19546.360275
19545.8785351
19547.7091892
19545.1376689
19547.9011963
19546.8596838
19548.9471425
19547.4656276
19548.8350554
19548.8462679
19549.5367713
19550.035924
19550.4593197
19552.1511765
19549.9155441
19550.4726971
19550.6775868
19549.4082029
19551.087051
19551.4671844
19552.0658675
19547.2573523
19550.7522663
19551.7190652
19552.2260512
19551.2438765
19552.5305006
19553.338023
19545.140461
19547.9604051
17984.8875462
18065.0489471
19550.4801694
19549.41724
19551.5328671
17986.9733975
18011.703161
18028.7719952
18039.6876739
19554.0443761
19553.3049975
19553.6097718
18023.7643318
18003.3847242
18049.1302539
17966.8563781
19548.6796735
19550.9900684
19546.471694
17935.4574295
17431.7520961
17867.1429827
17331.5669169
19539.632104
19541.6136169
19538.5777095
17218.2485828
16951.8897238
17149.1401685
16942.8702624
19542.3010592
19539.2248469
19542.4836258
17004.3054857
17322.9211663
16986.9261559
17254.7298571
19549.9812638
19546.2979788
19548.9726302
17374.6453917
17460.1562704
17307.8872149
17407.1852784
19554.505279
19550.6813577
19550.6868227
17463.0800006
17370.6502779
17404.9712906
17243.5245381
19536.5563842
19547.9870333
19538.6168042
17357.372129
16876.9333487
17215.7858254
16825.8926153
19564.8976042
19560.7278808
18482.4822988
18280.126316
18398.4845425
18321.7898502
19550.4417836
19556.4850044
19553.9265084
18224.8516889
18099.4418187
18282.4242491
18200.1046151
19552.6161879
19553.3027603
19554.4702771
18052.9090967
18060.2525105
18188.1896344
18168.8789646
19553.9719789
19555.7470435
19555.5077626
18072.3540154
18011.4331987
18172.6322453
18164.4952712
19545.8818299
19552.9007901
19547.9018221
17905.4726684
17391.4343427
18045.8267392
17450.2389367
19538.8969528
19542.9401707
19540.1876582
17206.5244528
16985.0465938
17285.9989945
17120.9430871
19543.0930785
19540.8290977
19543.9004215
17011.0135632
17236.9659407
17138.1250323
17271.0928881
19548.7638842
19546.8772732
19548.5887732
17289.9374289
17390.0961344
17311.7363894
17394.8951428
19548.120659
19548.8448624
19547.4950754
17386.6454888
17215.5749951
17387.4996938
17210.2526372
19541.5957912
19544.9347751
19544.6890361
17191.6947805
16844.7514225
17188.0458372
16871.249379
19561.8481794
19563.7500615
19562.3271384
18367.7354406
18323.6472062
18346.1945149
18332.8089339
19556.9962222
19560.505224
19559.0418347
18301.0261686
18226.0883139
18326.2811816
18301.3389957
19556.3214508
19558.17396
19557.7474839
18225.6070462
18203.2201227
18301.6387564
18274.4108846
19555.7140321
19557.2212304
19555.124447
18203.92844
18181.7062194
18264.1625042
18071.2504906
19546.9219005
19551.3781344
19546.3951707
18056.0846678
17446.7569408
17906.1288428
17368.5408657
19540.5138773
19542.7874602
19541.5062736
17287.1173549
17145.6575702
17267.5511774
17258.9320218
19544.3969049
19542.9771496
19545.5714898
17162.1209974
17289.2811507
17292.7690937
17413.989229
19548.5805901
19547.9278965
19549.2895173
17327.7467006
17410.7062934
17450.915135
17503.4358456
19547.7424752
19549.6312482
19548.7054409
17409.8680671
17246.2924349
17504.1187058
17357.5804674
19546.6293108
19546.8833767
19547.9365783
17216.8137106
16863.2681672
17313.7729293
16904.4315451
18346.6916181
18337.2449355
19560.4406074
19561.3213316
18333.862507
18315.6606299
18341.9630107
19558.6783275
19560.3851049
19558.911555
18313.6044938
18288.4531205
18320.1549382
18169.6915182
19553.959835
19556.4789758
19552.6709782
18245.8020147
17983.8771706
18102.8336392
17846.4313993
19545.2428963
19548.3585652
19544.6732734
17841.3126819
17372.6963493
17722.4788977
17393.377385
19542.4730061
19543.2114017
19543.3925025
17301.4230264
17305.9561521
17364.0151713
17418.0239933
19546.4009853
19545.0897146
19547.2411593
17338.4068179
17452.0116285
17446.3277879
17526.5622426
19549.9350497
19549.1814287
19550.3561125
17486.2835962
17528.7610736
17551.7141431
17590.7741718
19549.2707697
19550.5383369
19549.7108855
17534.7136316
17399.9670188
17575.7303098
17421.1441113
19549.012917
19548.189165
19550.0987048
17349.2267379
16925.0251915
17385.9323706
17023.2089536
19552.0336019
19552.2263787
18075.9509948
17821.6830449
17807.6043438
19544.567232
19547.977398
19544.7698768
17702.3689354
17400.2011059
17706.452474
17468.9999075
19543.977265
19543.7791528
19544.3058159
17382.0995179
17438.2618964
17450.9895241
17471.309925
19547.609621
19545.9612625
19547.9236185
17463.7397984
17528.5918065
17479.0680515
17518.198529
19550.6169262
19549.6868847
19550.8222082
17554.8980985
17589.1134457
17543.021032
17580.309797
19549.7269369
19550.7671344
19549.9999814
17572.5865636
17436.7241166
17562.2720384
17460.1831759
19551.2203986
19549.2893242
19552.2829933
17425.58989
17080.5223975
17475.2323768
17232.0585252
19547.7257108
17507.2491407
19550.826784
17534.7748482
17576.4405549
19550.1996639
17557.3106666
17459.2817896
19552.9376511
17487.15586
17270.0673858
9.44982804657
7.81796829113
9.73050910615
7.24525887759
681.181557919
665.775756608
3.77897165482
0.776074449816
3.10286372412
1.07540028663
752.739290686
712.785160601
748.462553708
0.977315790728
3.11523089829
0.884797621903
2.24693211814
851.573092431
783.240322988
857.790139902
5.90734399301
8.01892261178
5.94029024073
9.44840623559
1022.39789694
943.207196161
1008.68163347
12.7766370605
19.0167617005
14.2177546496
19.3697067819
1051.65614077
1056.44547489
1065.1808988
23.3616412908
23.4936088024
24.7206469262
27.1295096296
1103.56845068
1106.90321318
1130.11903029
13.154075206
4.90127738046
17.7705731395
5.99829894436
1143.02358903
1164.69144244
1160.21149568
1.53025636759
1.14463623273
1.60293206162
1.28535894138
1173.71161413
1160.51602337
1184.32011822
1.374313167
1.75910479704
1.63007423608
2.09629517487
1164.34140523
1189.72234314
1173.93081372
4.86723463395
35.9224246413
5.92629914983
40.6054433493
629.306787385
642.566011272
644.924805029
7.76102081804
5.74109557566
6.00580058155
6.02628564714
652.874427232
647.674570564
655.021476663
3.15058088136
1.84660083921
4.50940375511
2.71238118365
735.132014347
679.893830292
709.116910364
0.776126908017
0.668730587383
1.31435796323
0.658804603592
833.093137468
746.73636803
801.842409351
2.18979831823
8.18765444501
0.925008743677
4.5705411307
977.914461665
882.353949027
960.403354968
13.8021605971
18.1658896611
12.6049068417
17.3621700719
1061.86674892
1014.09829242
1037.11894806
24.13522892
28.080770568
20.6502591991
22.7315263888
1142.13979942
1086.38284237
1136.52674474
27.9623060069
8.07214767261
27.0147780241
8.34210158672
1167.82469402
1171.67096362
1165.87188783
1.67646832229
1.38468744357
1.62605699551
1.36514597244
1185.9162524
1162.33897668
1176.3830985
1.81749441659
2.37878200211
1.86206524312
2.37020763253
1170.00709575
1178.01312022
1161.44799836
7.21836913285
45.4615872991
7.33260002591
46.537005013
657.50580831
662.210903828
659.29296978
4.05289225981
6.66059360416
2.71917707988
5.0502913737
657.430211759
655.632114028
655.406615963
5.46058835296
3.26510327756
4.69034788609
3.13312014802
690.130333963
663.458488594
689.762876959
1.39724132596
0.741315161153
1.60105817893
1.03347991936
791.661345965
735.361173554
811.034100104
0.757133192856
3.75158816655
1.41159876335
6.18788409928
949.012397183
887.146251849
946.09336397
10.2944544646
14.1286011603
9.81905167808
13.481457281
1025.51788312
975.442217935
1001.78610259
12.8637976601
12.1399995665
12.0125667221
10.5018910637
1121.27479118
1040.08712601
1090.55471139
17.4842531315
6.35129875109
14.293806983
5.30843962058
1148.40755812
1103.95520866
1112.82155816
1.30012543917
1.04109235404
1.01524566768
0.783520068689
1158.1856608
1112.74460898
1133.52058533
1.50973643567
1.92835858056
1.12964873084
1.47654872932
1172.46325806
1138.2959469
1157.93230242
5.53917413175
34.316932028
4.53163007469
30.3825127903
658.566607883
660.639128105
3.87336103802
2.2448358617
2.72398247093
703.094131866
686.695696145
727.961231445
1.65781856903
1.94513567631
3.59001764525
5.32675685899
831.661485911
782.501455672
846.277026255
5.27176580386
8.41563942885
7.53120004914
9.41776283134
942.234169499
900.963479059
934.643434856
10.1771500805
12.8887360319
10.742284922
12.4815442807
978.141017671
944.292013275
959.803374479
11.2797912409
9.66918930605
10.6713117377
9.6346436466
1055.84706368
987.468819185
1033.79341986
14.1139244187
5.49587736762
15.2924349435
6.29832253408
1077.79376744
1043.82484976
1052.96140389
0.967203329566
0.73240703414
1.25419178459
0.969485198624
1108.91922709
1064.50904849
1088.58496987
0.951851247666
1.3356033522
1.48393537396
2.0159139483
1152.55422374
1099.50621922
1133.53351981
3.91865414371
26.2872448448
4.45288021563
23.9146202544
850.974439192
850.71655387
9.29652240628
11.1333454045
9.69452906212
11.7049926531
924.324827485
887.429757401
909.682455307
13.1326049169
15.6541864021
14.4904395439
16.4406689087
951.579615779
918.036544702
947.588799793
16.3515359712
16.7864842545
18.3776834114
19.8525791681
1028.31807518
990.157249755
1031.78455748
18.6276675846
8.08045369263
17.1423538949
8.61134801179
1043.64038861
1044.45783377
1044.3249842
1.85941019683
1.74716415858
2.9377919958
2.6067538414
1072.47552859
1050.15332797
1061.77920294
2.23166925144
2.55251248762
3.08690534282
3.36044627695
1101.2326213
1060.48377957
1067.21378697
4.82609407371
27.4027455446
6.22317029735
30.4201881365
1042.15147323
3.97847650621
1054.22913733
2.70748703571
3.03469474411
2.25758248623
2.78998760996
1065.4068483
3.50012160876
3.96069285082
3.7509487136
4.77275442683
1045.06816661
6.96649702001
35.3699449629
9.00442506692
37.0185939719
19546.4905422
19546.4664557
18010.6457641
17994.6698445
19546.9200206
18028.8830764
19546.1208538
19547.386687
19549.2112748
18020.5185231
18090.8274544
19547.5927249
19548.9459083
18062.314772
19548.5610199
19547.104579
17993.9389496
17986.4437616
19547.6843526
17992.743477
19548.0914541
19549.6896152
19550.9034572
17998.1650461
18018.918165
19551.2074494
18001.9549049
19549.3207059
19548.665989
19549.4246928
18001.3118662
18026.8420031
19547.9040456
19549.7277431
18006.3073119
19549.7754272
19552.1614204
18028.6244078
18030.3838631
19551.3643076
19550.9423756
18014.0102839
19554.0737158
19552.5933279
18028.5063216
18032.3661998
19552.7570866
18023.7410243
19554.29804
19554.2856438
19553.5369157
18024.4373278
17965.4992758
19552.7059785
18002.5937512
19555.0159559
19554.2172951
19553.4344011
18042.6462476
18053.7599779
19552.8099358
19554.7077999
18031.4101457
19554.8816617
19552.9224766
17953.1436886
18024.2536342
19553.5090995
19554.9100768
17999.2581271
19541.1384189
19549.7738437
17823.4440601
17888.5576958
19547.367312
17766.5142753
19543.8091542
19533.175684
19526.3290582
17640.8567314
17356.6839924
19521.8034552
17580.3838711
19535.8706315
19540.3362399
19548.5926535
17862.8308079
17718.0239821
19548.9032091
19540.1483932
17725.6869311
19530.0973697
19517.5815509
17337.3949518
17535.9285431
19518.9160626
19529.6164686
17550.2639213
19504.6634444
19516.2133633
17006.7176
17130.6560233
19510.9696545
16944.6979573
19508.2748179
19503.261802
19509.9909831
16931.0002937
16926.085077
19507.9899884
16888.5327974
19505.3426661
19502.9402481
19507.1460789
17123.8747881
16978.7652246
19509.2888994
19500.254739
16952.7696196
19501.1976657
19502.9610363
16938.0429325
16919.5655454
19504.9514116
19498.7219255
16903.4093411
19517.7215282
19514.4212447
17102.0501742
16979.2060781
19512.8075915
17067.4599569
19518.8402661
19522.8973695
19530.7843395
17214.4677139
17292.8839483
19529.2158468
17178.4906846
19524.030222
19513.4255704
19507.7416195
16982.7497875
17061.3643405
19508.4546717
19512.9301353
17058.5820012
19519.5666275
19525.6463161
17267.6805887
17155.8183572
19527.0848879
19518.8071181
17160.2291808
19536.4228444
19535.505344
17400.1076776
17349.899335
19534.0626191
17377.1859525
19537.6917229
19537.4650701
19538.8458026
17423.4871587
17439.6119558
19537.6769732
17402.7427644
19538.372441
19535.6661286
19531.2165905
17326.2156449
17342.03916
19532.8574751
19533.9029826
17357.2390962
19537.0050299
19535.9599536
17420.3776356
17373.6991884
19537.5784043
19535.1970591
17384.4603535
19535.4821337
19539.0064543
17458.801571
17442.0480198
19537.3245205
17437.4945385
19538.1084791
19532.3878923
19531.3816534
17422.8723601
17343.9281198
19526.9161734
17400.2168162
19535.3341756
19535.5215364
19536.0441443
17420.9371559
17388.3065413
19537.23642
19534.8553574
17413.413605
19532.4302254
19525.4767747
17289.278829
17323.7569278
19527.1594156
19531.3771105
17360.4026206
19508.8329579
19526.1570409
17248.6914407
17328.2018547
19520.1313955
17217.1695449
19516.5727598
19488.6529785
19500.6269864
16779.097246
16860.6897007
16753.6739702
19495.6725491
19497.6688366
19508.5443235
19517.9275105
17264.9719226
17103.7395917
19520.1015882
19506.1698046
17148.4589141
19488.5502757
19499.7155993
16857.1909162
16652.5535656
19484.3717489
16692.3673213
19499.3316967
19563.4059039
19567.3073143
18426.8842974
18476.6724632
19564.0732258
18427.6348959
19566.5448662
19560.0406775
19555.9773435
18356.341459
18286.4488943
19559.758073
19556.5789913
18356.0328443
19562.9757575
19564.3385956
18435.0237579
18381.0294732
19562.3557354
18397.4222119
19565.481998
19560.0189765
19557.9212616
18297.2418179
18359.6869063
19557.3331987
19560.0531137
18345.5224999
19552.666345
19552.8309016
18173.3103729
18252.9105378
19550.8286543
19554.2144873
18217.5856673
19551.2233649
19550.1603777
18140.5258459
18142.5542652
19550.2336208
19550.7604696
18178.5128893
19553.4948886
19556.0105637
18268.8469356
18247.0484728
19555.2023979
19554.5306443
18229.7563156
19552.3936233
19552.807113
18174.8770643
18222.1915978
19551.5882159
19553.3218707
18198.2654619
19550.054353
19549.7133688
18047.0466137
18099.6082318
19549.2381872
19550.0917145
18082.264407
19551.0615094
19551.9602023
18051.5148504
18091.4063614
19550.3221242
19552.6388863
18084.5784565
19550.9177716
19552.8551599
18145.175972
18179.2774066
19550.9168129
19553.2587786
18125.836804
19552.00443
19555.2621976
18132.5455015
18168.8820215
19553.4115224
19554.0251399
18127.1276356
19555.6934162
19553.5894428
18102.7181245
18102.3245761
19555.2253175
19554.4139815
18119.1463144
19555.8552944
19553.4364697
18076.0877138
18062.8842671
19555.3972825
19553.9642726
18103.912357
19556.3311308
19556.552525
18140.3628215
18180.0712104
19554.8645377
19557.8157024
18150.0341672
19556.6066784
19557.1566489
18129.2212002
18186.697904
19555.3548744
19558.4603476
18156.9104135
19543.0657725
19549.481055
17759.5602595
17952.1035798
19542.0935363
19549.7271985
17794.9270228
19533.9715636
19519.8995778
17580.1449694
17430.307786
19532.2432654
19522.1965491
17617.0390515
19544.8582144
19553.0005872
18005.1356586
17868.4072951
19551.4007175
19546.18383
17831.2933257
19536.4763941
19527.4525644
17439.4968712
17656.0096683
19525.8734045
19537.6539398
17636.7666306
19501.6338324
19507.4420441
17044.1583013
17256.3939118
19498.5487796
19510.3976969
17101.0801216
19496.0067607
19497.7236459
16973.8692028
17028.8184354
19494.6761017
19498.1272712
17051.0676246
19508.764906
19518.3132224
17273.439527
17151.3817534
19515.6526165
19512.5075884
17133.1941593
19503.6342738
19509.0095206
17080.4602016
17126.1985809
19505.1916834
19508.6634704
17092.7364698
19506.6972487
19502.3962436
17070.8187177
17045.3442607
19508.115316
19501.7146846
17092.7401294
19512.9045193
19522.0384881
17151.1083801
17242.381059
19514.9830758
19519.6655349
17161.3265864
19510.8056669
19510.4098621
17094.9076028
17170.6670693
19507.3924094
19513.0620683
17130.1330694
19515.1574903
19520.7744599
17251.8925374
17212.9944573
19520.2846001
19516.5076678
17183.8670036
19529.2377364
19527.5038523
17327.8155941
17290.90879
19531.0722996
19525.1958272
17325.2793725
19531.3894226
19534.5197741
17361.659187
17383.7130802
19533.284349
19533.0381531
17354.076734
19528.5653822
19524.9513497
17294.2060538
17342.4476192
19524.8705554
19528.4643958
17325.4012357
19531.1535392
19533.1059457
17382.3335929
17367.4947292
19533.2923506
19530.9615511
17353.3728906
19532.5277769
19534.6263896
17368.2543332
17377.345114
19533.1892549
19533.8328756
17352.1757247
19529.4475903
19523.6749341
17300.1623635
17193.8367012
19529.4219996
19524.4183103
17280.090757
19532.3759291
19534.3988463
17374.4558573
17360.5146344
19533.8875249
19533.2235491
17348.8793775
19529.0625033
19524.8947057
17198.8948421
17291.9089477
19523.9442824
19529.9272691
17280.8277861
19506.3649464
19516.4496767
17085.9720519
17168.7665213
19504.8716865
19517.6462778
17065.9151081
19485.6694775
19500.2246838
16663.3626381
16838.4477986
19483.2543399
16651.3444411
19503.006456
19506.128358
19518.1999832
17175.3985009
17087.5166046
19517.1797868
19507.2961172
17074.2869413
19485.6957331
19505.1622321
16856.8615107
16681.1076673
19487.5782282
16672.34241
19503.5658933
19562.0822399
19563.6721016
18353.4000164
18355.870683
19562.5002565
18351.5031
19562.98394
19560.8574912
19558.5498665
18336.3771584
18327.778098
19560.6038067
19559.4115951
18341.4726562
19561.9339334
19562.1084824
18352.426984
18342.3465619
19561.7575925
18350.8661765
19562.5989613
19560.8608354
19560.1705994
18330.045837
18337.41241
19559.6646182
19561.1416543
18342.2695061
19556.5776592
19556.7746185
18267.8419448
18314.1143443
19555.3523398
19557.8422828
18298.5626637
19555.7148654
19553.9958381
18246.4069017
18269.6148376
19554.3236096
19555.1704429
18286.7961273
19557.5688136
19559.2167535
18320.5023899
18313.9609535
19558.5117418
19558.5295356
18314.2918121
19556.818147
19557.7298222
18295.9563977
18302.7937139
19556.4808914
19557.9972281
18307.6363587
19556.1669933
19554.2208508
18225.6763394
18263.7855348
19554.9453625
19555.4334736
18259.684071
19556.9863618
19557.0123688
18213.8054763
18243.1611042
19555.962285
19558.0187389
18254.0973681
19557.3593044
19557.7732316
18281.7235595
18300.5940135
19556.6479162
19558.2813072
18273.7512556
19558.0132579
19559.5650578
18262.7246076
18290.0167433
19558.8909732
19559.0913687
18269.6183537
19559.0384291
19557.6948571
18207.057621
18231.1000916
19558.4438201
19558.6851185
18228.7742998
19558.3302384
19557.3731262
18205.4008667
18183.552087
19558.8503991
19556.4078139
18221.0475539
19559.3220898
19559.4932242
18249.8596352
18244.731243
19559.3808051
19559.2288325
18241.8252113
19558.3929508
19553.0170927
18128.720634
18179.9266812
19555.168609
19557.0866324
18199.828039
19543.8918207