/*--------------------------------*- C++ -*----------------------------------*\
| =========                 |                                                 |
| \\      /  F ield         | OpenFOAM: The Open Source CFD Toolbox           |
|  \\    /   O peration     | Version:  v1906                                 |
|   \\  /    A nd           | Web:      www.OpenFOAM.com                      |
|    \\/     M anipulation  |                                                 |
\*---------------------------------------------------------------------------*/
FoamFile
{
    version     2.0;
    format      ascii;
    class       volVectorField;
    location    "9.55";
    object      force.turbine;
}
// * * * * * * * * * * * * * * * * * * * * * * * * * * * * * * * * * * * * * //

dimensions      [1 -2 -2 0 0 0 0];


internalField   nonuniform List<vector> 
28582
(
(0 0 0)
(0 0 0)
(0 0 0)
(0 0 0)
(0 0 0)
(0 0 0)
(0 0 0)
(0 0 0)
(0 0 0)
(0 0 0)
(0 0 0)
(0 0 0)
(0 0 0)
(0 0 0)
(0 0 0)
(0 0 0)
(0 0 0)
(0 0 0)
(0 0 0)
(0 0 0)
(0 0 0)
(0 0 0)
(0 0 0)
(0 0 0)
(0 0 0)
(0 0 0)
(0 0 0)
(0 0 0)
(0 0 0)
(0 0 0)
(0 0 0)
(0 0 0)
(0 0 0)
(0 0 0)
(0 0 0)
(0 0 0)
(0 0 0)
(0 0 0)
(0 0 0)
(0 0 0)
(0 0 0)
(0 0 0)
(0 0 0)
(0 0 0)
(0 0 0)
(0 0 0)
(0 0 0)
(0 0 0)
(0 0 0)
(0 0 0)
(0 0 0)
(0 0 0)
(0 0 0)
(0 0 0)
(0 0 0)
(0 0 0)
(0 0 0)
(0 0 0)
(0 0 0)
(0 0 0)
(0 0 0)
(0 0 0)
(0 0 0)
(0 0 0)
(0 0 0)
(0 0 0)
(0 0 0)
(0 0 0)
(0 0 0)
(0 0 0)
(0 0 0)
(0 0 0)
(0 0 0)
(0 0 0)
(0 0 0)
(0 0 0)
(0 0 0)
(0 0 0)
(0 0 0)
(0 0 0)
(0 0 0)
(0 0 0)
(0 0 0)
(0 0 0)
(0 0 0)
(0 0 0)
(0 0 0)
(0 0 0)
(0 0 0)
(0 0 0)
(0 0 0)
(0 0 0)
(0 0 0)
(0 0 0)
(0 0 0)
(0 0 0)
(0 0 0)
(0 0 0)
(0 0 0)
(0 0 0)
(0 0 0)
(0 0 0)
(0 0 0)
(0 0 0)
(0 0 0)
(0 0 0)
(0 0 0)
(0 0 0)
(0 0 0)
(0 0 0)
(0 0 0)
(0 0 0)
(0 0 0)
(0 0 0)
(0 0 0)
(0 0 0)
(0 0 0)
(0 0 0)
(0 0 0)
(0 0 0)
(0 0 0)
(0 0 0)
(0 0 0)
(0 0 0)
(0 0 0)
(0 0 0)
(0 0 0)
(0 0 0)
(0 0 0)
(0 0 0)
(0 0 0)
(0 0 0)
(0 0 0)
(0 0 0)
(0 0 0)
(0 0 0)
(0 0 0)
(0 0 0)
(0 0 0)
(0 0 0)
(0 0 0)
(0 0 0)
(0 0 0)
(0 0 0)
(0 0 0)
(0 0 0)
(0 0 0)
(0 0 0)
(0 0 0)
(0 0 0)
(0 0 0)
(0 0 0)
(0 0 0)
(0 0 0)
(0 0 0)
(0 0 0)
(0 0 0)
(0 0 0)
(0 0 0)
(0 0 0)
(0 0 0)
(0 0 0)
(0 0 0)
(0 0 0)
(0 0 0)
(0 0 0)
(0 0 0)
(0 0 0)
(0 0 0)
(0 0 0)
(0 0 0)
(0 0 0)
(0 0 0)
(0 0 0)
(0 0 0)
(0 0 0)
(0 0 0)
(0 0 0)
(0 0 0)
(0 0 0)
(0 0 0)
(0 0 0)
(0 0 0)
(0 0 0)
(0 0 0)
(0 0 0)
(0 0 0)
(0 0 0)
(0 0 0)
(0 0 0)
(0 0 0)
(0 0 0)
(0 0 0)
(0 0 0)
(0 0 0)
(0 0 0)
(0 0 0)
(0 0 0)
(0 0 0)
(0 0 0)
(0 0 0)
(0 0 0)
(0 0 0)
(0 0 0)
(0 0 0)
(0 0 0)
(0 0 0)
(0 0 0)
(0 0 0)
(0 0 0)
(0 0 0)
(0 0 0)
(0 0 0)
(0 0 0)
(0 0 0)
(0 0 0)
(0 0 0)
(-0.002420620124 4.55463881488e-05 0)
(0 0 0)
(0 0 0)
(0 0 0)
(0 0 0)
(-2.1945987494e-05 2.15204967258e-07 0)
(0 0 0)
(-2.05575998817e-06 1.65976595289e-08 0)
(0 0 0)
(0 0 0)
(0 0 0)
(0 0 0)
(0 0 0)
(0 0 0)
(0 0 0)
(0 0 0)
(0 0 0)
(0 0 0)
(0 0 0)
(0 0 0)
(-0.0160328039257 0.000483124150878 0)
(0 0 0)
(0 0 0)
(0 0 0)
(-0.0288821708021 0.000648835515491 0)
(0 0 0)
(0 0 0)
(-0.154537708292 -0.00958747307509 0.0254731998312)
(-1.39843842157 -0.1071015739 0.270867242939)
(-0.0783001436448 0.00175900608071 0)
(-0.727773749903 0.0163183783257 0)
(-0.00557707626157 6.29689222996e-05 0)
(-0.0742660957072 0.0016683815362 0)
(0 0 0)
(0 0 0)
(0 0 0)
(0 0 0)
(0 0 0)
(-0.0160325984937 0.000483117960499 0)
(0 0 0)
(0 0 0)
(0 0 0)
(-0.0272153057734 0.000611389534109 0)
(0 0 0)
(0 0 0)
(0 0 0)
(0 0 0)
(0 0 0)
(0 0 0)
(0 0 0)
(0 0 0)
(-1.30772298165e-05 1.36807680491e-07 0)
(0 0 0)
(-7.96868869047e-06 8.33645834476e-08 0)
(-0.000118430983389 1.79613246376e-06 0)
(-0.000833718830082 1.26442372892e-05 0)
(-7.35489180424e-05 1.11544796463e-06 0)
(-0.000436294600988 6.61687401534e-06 0)
(0 0 0)
(0 0 0)
(-0.000222263642825 2.43032631817e-06 0)
(0 0 0)
(0 0 0)
(0 0 0)
(0 0 0)
(0 0 0)
(0 0 0)
(-0.0123230787526 0.000231871049278 0)
(-0.000526471595474 8.34632141834e-06 0)
(-0.00272558902169 5.12846829147e-05 0)
(-2.81367838967e-05 3.85182899812e-07 0)
(-0.000157262845122 2.38505915753e-06 0)
(-3.49793344039e-06 2.82413845159e-08 0)
(-3.5257874037e-05 4.82668176031e-07 0)
(0 0 0)
(0 0 0)
(0 0 0)
(0 0 0)
(0 0 0)
(-0.00028277378117 3.09197021039e-06 0)
(0 0 0)
(0 0 0)
(0 0 0)
(0 0 0)
(0 0 0)
(0 0 0)
(0 0 0)
(0 0 0)
(0 0 0)
(0 0 0)
(0 0 0)
(0 0 0)
(0 0 0)
(0 0 0)
(0 0 0)
(0 0 0)
(0 0 0)
(0 0 0)
(0 0 0)
(0 0 0)
(-0.00488030808818 5.62349277974e-05 0)
(0 0 0)
(0 0 0)
(0 0 0)
(0 0 0)
(0 0 0)
(-0.00440323424005 4.97154605252e-05 0)
(0 0 0)
(0 0 0)
(0 0 0)
(0 0 0)
(0 0 0)
(0 0 0)
(0 0 0)
(0 0 0)
(0 0 0)
(0 0 0)
(0 0 0)
(0 0 0)
(0 0 0)
(0 0 0)
(0 0 0)
(0 0 0)
(0 0 0)
(0 0 0)
(0 0 0)
(0 0 0)
(0 0 0)
(0 0 0)
(-0.0354261388759 0.000897157014366 0)
(-0.00845441523458 0.000150305167826 0)
(-0.0139299449025 0.000247650801183 0)
(-0.00997400953614 0.00019125232249 0)
(-0.0189622892704 0.000480214648482 0)
(0 0 0)
(0 0 0)
(0 0 0)
(0 0 0)
(0 0 0)
(0 0 0)
(0 0 0)
(0 0 0)
(0 0 0)
(0 0 0)
(-0.00497604744615 5.61829048591e-05 0)
(0 0 0)
(-0.00776777518684 0.000148947626296 0)
(0 0 0)
(0 0 0)
(-0.171981831341 -0.000373590709082 0.00875492906426)
(-0.0993633171965 0.00249971489301 0)
(-0.190028766936 0.00426088645275 0)
(-0.0418323116453 0.000939759330301 0)
(-0.354747075124 -0.00397006900174 0.0243520331432)
(-0.0515440379637 0.00130533828058 0)
(-0.0996088910987 0.00223770528353 0)
(-0.483357005819 -0.0116167665755 0.0449850394464)
(-1.66502937449 -0.0420343983001 0.16064128385)
(-0.396878205419 0.00889893144144 0)
(-0.387130005168 0.0086803541436 0)
(-0.920628598219 -0.0246552104253 0.091256947409)
(-0.211198674005 0.00473556495374 0)
(-0.878995089221 -0.0200456146821 0.0799872454153)
(-0.0602601845306 0.00151598482193 0)
(-0.00880169973396 0.000168773200976 0)
(-0.0196719357325 0.000441928366436 0)
(-0.0193629604229 0.000434987262333 0)
(-0.0243469792836 0.000616580410285 0)
(-0.0243449664588 0.000616529436062 0)
(-0.0467382527259 0.00104997088025 0)
(-0.1756760736 -0.000658459984126 0.00944976983467)
(-0.0993203045356 0.00249863280968 0)
(-0.182087452916 0.0040828237422 0)
(-0.0404024873397 0.00090763844864 0)
(-0.0515324988973 0.00130504605697 0)
(-0.0975415967298 0.00219126369101 0)
(-0.340934494082 -0.00249310176853 0.0207374030791)
(0 0 0)
(0 0 0)
(0 0 0)
(0 0 0)
(0 0 0)
(0 0 0)
(0 0 0)
(0 0 0)
(0 0 0)
(0 0 0)
(0 0 0)
(0 0 0)
(0 0 0)
(0 0 0)
(0 0 0)
(0 0 0)
(0 0 0)
(0 0 0)
(0 0 0)
(0 0 0)
(0 0 0)
(0 0 0)
(0 0 0)
(-0.00483535539513 5.4594397474e-05 0)
(0 0 0)
(-0.00776617585759 0.000148916959047 0)
(0 0 0)
(0 0 0)
(0 0 0)
(-0.0354063461335 0.000896655768725 0)
(-0.0133311922548 0.000237005994333 0)
(-0.00792427755594 0.000140880218785 0)
(-0.0189556778902 0.000480047217136 0)
(0 0 0)
(-0.00996762700834 0.000191129937078 0)
(0 0 0)
(0 0 0)
(0 0 0)
(0 0 0)
(0 0 0)
(0 0 0)
(0 0 0)
(0 0 0)
(0 0 0)
(0 0 0)
(0 0 0)
(0 0 0)
(0 0 0)
(0 0 0)
(0 0 0)
(0 0 0)
(0 0 0)
(0 0 0)
(0 0 0)
(0 0 0)
(0 0 0)
(0 0 0)
(0 0 0)
(0 0 0)
(0 0 0)
(0 0 0)
(0 0 0)
(0 0 0)
(0 0 0)
(0 0 0)
(0 0 0)
(0 0 0)
(0 0 0)
(0 0 0)
(0 0 0)
(0 0 0)
(-0.015323639803 0.000304906097169 0)
(0 0 0)
(0 0 0)
(0 0 0)
(0 0 0)
(0 0 0)
(0 0 0)
(0 0 0)
(-0.00341915771014 6.80335772966e-05 0)
(0 0 0)
(0 0 0)
(0 0 0)
(0 0 0)
(0 0 0)
(0 0 0)
(0 0 0)
(0 0 0)
(0 0 0)
(0 0 0)
(0 0 0)
(0 0 0)
(0 0 0)
(0 0 0)
(0 0 0)
(0 0 0)
(0 0 0)
(0 0 0)
(0 0 0)
(0 0 0)
(0 0 0)
(0 0 0)
(0 0 0)
(0 0 0)
(0 0 0)
(0 0 0)
(0 0 0)
(-0.32943465447 0.00893229561781 0)
(-0.0078657322612 0.000156510447646 0)
(0 0 0)
(0 0 0)
(0 0 0)
(0 0 0)
(0 0 0)
(0 0 0)
(-0.0723003988463 0.00197640706965 0)
(0 0 0)
(0 0 0)
(0 0 0)
(0 0 0)
(0 0 0)
(0 0 0)
(0 0 0)
(0 0 0)
(0 0 0)
(0 0 0)
(0 0 0)
(0 0 0)
(0 0 0)
(0 0 0)
(0 0 0)
(0 0 0)
(0 0 0)
(0 0 0)
(0 0 0)
(0 0 0)
(0 0 0)
(0 0 0)
(0 0 0)
(0 0 0)
(0 0 0)
(0 0 0)
(0 0 0)
(-1.55265027899 0.0538979119172 0)
(-0.0446553434826 0.00157118125826 0)
(0 0 0)
(0 0 0)
(0 0 0)
(0 0 0)
(0 0 0)
(0 0 0)
(-0.340576296582 0.0116969422734 0)
(-0.00673295641857 0.000256793641709 0)
(0 0 0)
(0 0 0)
(0 0 0)
(0 0 0)
(0 0 0)
(0 0 0)
(0 0 0)
(0 0 0)
(0 0 0)
(0 0 0)
(0 0 0)
(0 0 0)
(0 0 0)
(0 0 0)
(0 0 0)
(0 0 0)
(0 0 0)
(0 0 0)
(0 0 0)
(0 0 0)
(0 0 0)
(0 0 0)
(0 0 0)
(0 0 0)
(0 0 0)
(0 0 0)
(0 0 0)
(0 0 0)
(0 0 0)
(0 0 0)
(0 0 0)
(0 0 0)
(0 0 0)
(-2.56617958142 0.075417077229 0)
(-0.077490270198 0.00227735024249 0)
(0 0 0)
(0 0 0)
(0 0 0)
(0 0 0)
(0 0 0)
(0 0 0)
(-2.566100001 0.0754147384515 0)
(-0.572581729314 0.0168275208844 0)
(-0.0160326173871 0.000483118529823 0)
(0 0 0)
(0 0 0)
(0 0 0)
(0 0 0)
(0 0 0)
(0 0 0)
(-0.0470000360486 0.00138127720059 0)
(-0.0774896167111 0.00227733103726 0)
(-0.0160324846303 0.000483114529399 0)
(0 0 0)
(0 0 0)
(0 0 0)
(0 0 0)
(0 0 0)
(0 0 0)
(0 0 0)
(0 0 0)
(0 0 0)
(0 0 0)
(0 0 0)
(0 0 0)
(0 0 0)
(0 0 0)
(0 0 0)
(0 0 0)
(0 0 0)
(0 0 0)
(0 0 0)
(0 0 0)
(0 0 0)
(0 0 0)
(0 0 0)
(0 0 0)
(0 0 0)
(0 0 0)
(-0.0715929715647 0.00134757192396 0)
(-0.00226249381344 4.25710834962e-05 0)
(0 0 0)
(0 0 0)
(0 0 0)
(0 0 0)
(0 0 0)
(0 0 0)
(-0.0354670074133 0.000667584294551 0)
(-0.0638244693854 0.00120134785755 0)
(-0.0157454950396 0.000296267233986 0)
(-0.000386035048463 4.22107334376e-06 0)
(0 0 0)
(0 0 0)
(0 0 0)
(0 0 0)
(0 0 0)
(0 0 0)
(-0.000994256572342 1.57622652322e-05 0)
(-0.00192583046872 3.62364260165e-05 0)
(-0.000365177081666 3.99300335892e-06 0)
(0 0 0)
(0 0 0)
(0 0 0)
(0 0 0)
(0 0 0)
(0 0 0)
(0 0 0)
(0 0 0)
(0 0 0)
(0 0 0)
(0 0 0)
(0 0 0)
(0 0 0)
(0 0 0)
(0 0 0)
(0 0 0)
(0 0 0)
(0 0 0)
(0 0 0)
(0 0 0)
(0 0 0)
(0 0 0)
(0 0 0)
(0 0 0)
(0 0 0)
(0 0 0)
(-0.000181605491918 2.06343171039e-06 0)
(-0.00016961694479 1.92721585016e-06 0)
(-2.15887382014e-05 2.11701738144e-07 0)
(0 0 0)
(0 0 0)
(0 0 0)
(0 0 0)
(0 0 0)
(0 0 0)
(0 0 0)
(-2.37257943139e-05 2.32657964919e-07 0)
(-2.38715978844e-05 2.34087732097e-07 0)
(-2.12246940086e-06 1.71362535893e-08 0)
(0 0 0)
(0 0 0)
(0 0 0)
(0 0 0)
(0 0 0)
(0 0 0)
(0 0 0)
(0 0 0)
(0 0 0)
(0 0 0)
(0 0 0)
(0 0 0)
(0 0 0)
(0 0 0)
(0 0 0)
(0 0 0)
(0 0 0)
(0 0 0)
(0 0 0)
(0 0 0)
(0 0 0)
(0 0 0)
(0 0 0)
(0 0 0)
(0 0 0)
(0 0 0)
(0 0 0)
(0 0 0)
(0 0 0)
(0 0 0)
(0 0 0)
(0 0 0)
(0 0 0)
(0 0 0)
(0 0 0)
(0 0 0)
(-0.00341916323385 6.8033687206e-05 0)
(-0.0092942416093 0.000184934582884 0)
(-0.00207382336109 4.12644381737e-05 0)
(-0.0884546589065 0.00209394514969 0)
(-0.0181023964644 0.00036019712851 0)
(-0.0536503935141 0.00127004029711 0)
(-0.0109797819421 0.000218473058801 0)
(0 0 0)
(0 0 0)
(0 0 0)
(-0.00244958766998 4.87413059643e-05 0)
(0 0 0)
(0 0 0)
(0 0 0)
(0 0 0)
(0 0 0)
(0 0 0)
(-0.0181026824792 0.000360202819564 0)
(-0.00403924773026 8.03719792924e-05 0)
(-0.00403924354304 8.03718959761e-05 0)
(0 0 0)
(0 0 0)
(0 0 0)
(0 0 0)
(0 0 0)
(0 0 0)
(0 0 0)
(0 0 0)
(-0.0722944316275 0.00197624394948 0)
(-0.199812545556 0.00541772002684 0)
(-0.0438516168428 0.00119872984004 0)
(-0.822380530898 0.0256572450743 0)
(-0.181794714335 0.00571078242783 0)
(-0.498797356785 0.0155618543297 0)
(-0.110261816305 0.00346369389957 0)
(0 0 0)
(-0.00477096353011 9.49314841905e-05 0)
(0 0 0)
(-0.0233946902553 0.000756139309494 0)
(0 0 0)
(-0.0124744715982 0.000393293286696 0)
(0 0 0)
(-0.0152516457132 0.000407448501088 0)
(-0.0152515788598 0.000407446715098 0)
(-0.00289424282516 5.75889472359e-05 0)
(-0.181809200835 0.00571123749746 0)
(-0.0385785963 0.00124689802896 0)
(-0.038578800919 0.00124690464245 0)
(-0.00756769102056 0.000238593037848 0)
(0 0 0)
(0 0 0)
(0 0 0)
(-0.00341874317464 6.80253289689e-05 0)
(0 0 0)
(0 0 0)
(0 0 0)
(-0.340553289961 0.0116961521212 0)
(-0.925785756005 0.0317957023263 0)
(-0.206558254149 0.00709415188054 0)
(-2.26563667827 0.0770456406765 0)
(-0.499646684661 0.0168612794915 0)
(-1.35823925165 0.045835692183 0)
(-0.303056647142 0.0102270724216 0)
(0 0 0)
(-0.0270848401854 0.000952969789579 0)
(0 0 0)
(-0.0676157311381 0.00228178786279 0)
(0 0 0)
(-0.0410118354619 0.00138400201865 0)
(0 0 0)
(-0.0759927200884 0.00260993636078 0)
(-0.0759941648739 0.0026099859813 0)
(-0.0144429141528 0.000550682108586 0)
(-0.499668471988 0.0168620147355 0)
(-0.111490748636 0.00376241198269 0)
(-0.111491903296 0.00376245094831 0)
(-0.0248772078021 0.000839516335439 0)
(0 0 0)
(0 0 0)
(0 0 0)
(-0.0138793743926 0.000499415909288 0)
(0 0 0)
(0 0 0)
(0 0 0)
(-7.16970190166 0.215904330435 0)
(-4.25716849363 0.125816374542 0)
(-3.84685109696 0.0862553390683 0)
(-1.81833531775 0.0407713024028 0)
(-0.572587300445 0.0168276846136 0)
(-1.55646384284 0.0457426887384 0)
(-0.347291489654 0.0102064989083 0)
(-2.3460071699 0.0526029312796 0)
(-0.250834234714 0.00562428631103 0)
(-1.10717458296 0.0248254264731 0)
(-0.118627377223 0.00265990140695 0)
(0 0 0)
(-0.0470004012396 0.00138128793314 0)
(0 0 0)
(-0.0911146328832 0.00204688249373 0)
(0 0 0)
(-0.0430738292259 0.000967649917365 0)
(0 0 0)
(0 0 0)
(0 0 0)
(0 0 0)
(0 0 0)
(0 0 0)
(0 0 0)
(0 0 0)
(0 0 0)
(0 0 0)
(0 0 0)
(0 0 0)
(0 0 0)
(0 0 0)
(0 0 0)
(0 0 0)
(0 0 0)
(0 0 0)
(0 0 0)
(0 0 0)
(0 0 0)
(0 0 0)
(0 0 0)
(0 0 0)
(0 0 0)
(0 0 0)
(0 0 0)
(0 0 0)
(0 0 0)
(0 0 0)
(0 0 0)
(0 0 0)
(0 0 0)
(0 0 0)
(0 0 0)
(0 0 0)
(0 0 0)
(0 0 0)
(0 0 0)
(0 0 0)
(0 0 0)
(0 0 0)
(0 0 0)
(-1.61795591097 -0.100649120013 0.270865257264)
(-0.69860230822 0.00640226982844 0.0254726449528)
(-1.17519438744 0.0263505885215 0)
(-2.36514494982 0.0530320447687 0)
(-0.122602596188 0.00274903505186 0)
(-0.25075840694 0.00562258607617 0)
(-1.55642973315 0.0457416862935 0)
(-0.572575484432 0.0168273373545 0)
(-0.347284115632 0.0102062821942 0)
(-2.34416354506 0.0525615929274 0)
(-1.10672693402 0.024815389144 0)
(-0.249455265367 0.00559336661447 0)
(-0.117805855366 0.00264148097826 0)
(-0.127760130917 0.00375472384314 0)
(-0.127758733833 0.00375468278444 0)
(-0.0285069033387 0.000837785222133 0)
(-0.67325613565 0.0150959667522 0)
(-0.0707469401803 0.00158932400601 0)
(-0.0704369513467 0.00158236013317 0)
(-0.00511137165036 5.77108056624e-05 0)
(0 0 0)
(0 0 0)
(0 0 0)
(-0.0261066922332 0.000586484625029 0)
(0 0 0)
(0 0 0)
(0 0 0)
(0 0 0)
(0 0 0)
(0 0 0)
(0 0 0)
(0 0 0)
(0 0 0)
(0 0 0)
(0 0 0)
(0 0 0)
(0 0 0)
(0 0 0)
(0 0 0)
(0 0 0)
(0 0 0)
(0 0 0)
(0 0 0)
(0 0 0)
(0 0 0)
(0 0 0)
(0 0 0)
(0 0 0)
(0 0 0)
(0 0 0)
(0 0 0)
(0 0 0)
(0 0 0)
(0 0 0)
(0 0 0)
(0 0 0)
(0 0 0)
(0 0 0)
(0 0 0)
(0 0 0)
(0 0 0)
(0 0 0)
(0 0 0)
(0 0 0)
(0 0 0)
(0 0 0)
(0 0 0)
(0 0 0)
(0 0 0)
(-0.0774898351484 0.00227733745688 0)
(0 0 0)
(0 0 0)
(-0.0442522957424 0.000994124067627 0)
(-0.0908031711396 0.00203988553209 0)
(0 0 0)
(0 0 0)
(-0.0469999297626 0.00138127407697 0)
(0 0 0)
(0 0 0)
(-0.0904993126346 0.00203305937657 0)
(-0.0427922727119 0.000961324774178 0)
(0 0 0)
(0 0 0)
(0 0 0)
(0 0 0)
(0 0 0)
(-0.0260133072647 0.000584386739639 0)
(0 0 0)
(0 0 0)
(0 0 0)
(0 0 0)
(0 0 0)
(0 0 0)
(0 0 0)
(0 0 0)
(0 0 0)
(0 0 0)
(0 0 0)
(0 0 0)
(0 0 0)
(0 0 0)
(0 0 0)
(0 0 0)
(0 0 0)
(0 0 0)
(0 0 0)
(0 0 0)
(0 0 0)
(0 0 0)
(0 0 0)
(0 0 0)
(0 0 0)
(0 0 0)
(0 0 0)
(0 0 0)
(0 0 0)
(0 0 0)
(0 0 0)
(0 0 0)
(0 0 0)
(0 0 0)
(0 0 0)
(0 0 0)
(0 0 0)
(0 0 0)
(0 0 0)
(0 0 0)
(0 0 0)
(0 0 0)
(0 0 0)
(0 0 0)
(0 0 0)
(0 0 0)
(0 0 0)
(0 0 0)
(0 0 0)
(0 0 0)
(0 0 0)
(0 0 0)
(0 0 0)
(0 0 0)
(0 0 0)
(0 0 0)
(0 0 0)
(0 0 0)
(0 0 0)
(0 0 0)
(0 0 0)
(0 0 0)
(0 0 0)
(0 0 0)
(0 0 0)
(0 0 0)
(0 0 0)
(0 0 0)
(0 0 0)
(0 0 0)
(0 0 0)
(0 0 0)
(0 0 0)
(0 0 0)
(0 0 0)
(0 0 0)
(0 0 0)
(0 0 0)
(0 0 0)
(0 0 0)
(0 0 0)
(0 0 0)
(0 0 0)
(0 0 0)
(0 0 0)
(0 0 0)
(0 0 0)
(0 0 0)
(0 0 0)
(0 0 0)
(0 0 0)
(0 0 0)
(0 0 0)
(0 0 0)
(0 0 0)
(0 0 0)
(0 0 0)
(0 0 0)
(0 0 0)
(0 0 0)
(0 0 0)
(0 0 0)
(0 0 0)
(0 0 0)
(0 0 0)
(0 0 0)
(0 0 0)
(0 0 0)
(0 0 0)
(0 0 0)
(0 0 0)
(0 0 0)
(0 0 0)
(0 0 0)
(0 0 0)
(0 0 0)
(0 0 0)
(0 0 0)
(0 0 0)
(0 0 0)
(0 0 0)
(0 0 0)
(0 0 0)
(0 0 0)
(0 0 0)
(0 0 0)
(0 0 0)
(0 0 0)
(0 0 0)
(0 0 0)
(0 0 0)
(0 0 0)
(0 0 0)
(0 0 0)
(0 0 0)
(0 0 0)
(0 0 0)
(0 0 0)
(0 0 0)
(0 0 0)
(0 0 0)
(0 0 0)
(0 0 0)
(0 0 0)
(0 0 0)
(0 0 0)
(0 0 0)
(0 0 0)
(0 0 0)
(0 0 0)
(0 0 0)
(0 0 0)
(0 0 0)
(0 0 0)
(0 0 0)
(0 0 0)
(0 0 0)
(0 0 0)
(0 0 0)
(0 0 0)
(0 0 0)
(0 0 0)
(0 0 0)
(0 0 0)
(0 0 0)
(0 0 0)
(0 0 0)
(0 0 0)
(0 0 0)
(0 0 0)
(0 0 0)
(0 0 0)
(0 0 0)
(-0.00298259891851 4.52557818401e-05 0)
(-0.00477970310521 7.25237307796e-05 0)
(-0.0017966349311 2.72478893016e-05 0)
(-0.00304897957943 4.62629936011e-05 0)
(-0.184627159396 0.00347517879149 0)
(-0.112640697877 0.00212020033023 0)
(-0.00362855202805 5.50570034601e-05 0)
(-0.00204793882646 3.10739309188e-05 0)
(-0.00228000596927 3.45951485796e-05 0)
(-0.00128443768326 1.94798705083e-05 0)
(-0.0163227871946 0.000307129563151 0)
(-0.0436853685232 0.000822275913723 0)
(-0.00990744684391 0.000186418519388 0)
(-0.00066424015377 1.00739119931e-05 0)
(-0.000133084141302 2.01836326748e-06 0)
(-0.000429864825635 6.51935959879e-06 0)
(-8.33432569391e-05 1.26398958398e-06 0)
(0 0 0)
(-0.0012835543984 2.0348595554e-05 0)
(0 0 0)
(-1.44009710199e-05 1.50656023462e-07 0)
(0 0 0)
(-8.74932825837e-06 9.15312586597e-08 0)
(0 0 0)
(0 0 0)
(0 0 0)
(0 0 0)
(0 0 0)
(0 0 0)
(0 0 0)
(0 0 0)
(0 0 0)
(0 0 0)
(0 0 0)
(0 0 0)
(0 0 0)
(0 0 0)
(0 0 0)
(0 0 0)
(0 0 0)
(0 0 0)
(0 0 0)
(0 0 0)
(0 0 0)
(0 0 0)
(0 0 0)
(0 0 0)
(0 0 0)
(0 0 0)
(0 0 0)
(0 0 0)
(0 0 0)
(0 0 0)
(0 0 0)
(0 0 0)
(0 0 0)
(0 0 0)
(0 0 0)
(0 0 0)
(0 0 0)
(0 0 0)
(0 0 0)
(0 0 0)
(0 0 0)
(0 0 0)
(0 0 0)
(-0.0613457878073 0.00115469241596 0)
(-0.00780654878738 0.000146888021647 0)
(-0.0135475358608 0.000254910434172 0)
(-0.000670688227637 1.01717039262e-05 0)
(-0.00131405060634 1.99289821424e-05 0)
(-0.000145896353083 2.21267415517e-06 0)
(-0.000286795734976 4.34956390057e-06 0)
(-0.0406198541297 0.00076457470313 0)
(-0.0141643129454 0.000266515711769 0)
(-0.00903960700248 0.000170089244969 0)
(-0.00122911994546 1.86409178808e-05 0)
(-0.000746153891226 1.1316221386e-05 0)
(-0.000241638204549 3.66470167903e-06 0)
(-0.000127682413828 1.93644029599e-06 0)
(-0.00364482201613 6.85809708985e-05 0)
(-0.00350561700819 6.5961689475e-05 0)
(-0.000765337419121 1.2133137188e-05 0)
(-0.000238198113897 3.6125290269e-06 0)
(-3.53355653109e-05 4.83731742864e-07 0)
(-3.7175854233e-05 5.08924665627e-07 0)
(-3.53951596668e-06 2.85771107766e-08 0)
(0 0 0)
(0 0 0)
(0 0 0)
(0 0 0)
(0 0 0)
(0 0 0)
(0 0 0)
(0 0 0)
(0 0 0)
(0 0 0)
(0 0 0)
(0 0 0)
(0 0 0)
(0 0 0)
(0 0 0)
(0 0 0)
(0 0 0)
(0 0 0)
(0 0 0)
(0 0 0)
(0 0 0)
(0 0 0)
(0 0 0)
(0 0 0)
(0 0 0)
(0 0 0)
(0 0 0)
(0 0 0)
(0 0 0)
(0 0 0)
(0 0 0)
(0 0 0)
(0 0 0)
(0 0 0)
(0 0 0)
(0 0 0)
(0 0 0)
(0 0 0)
(0 0 0)
(0 0 0)
(0 0 0)
(0 0 0)
(0 0 0)
(0 0 0)
(0 0 0)
(0 0 0)
(0 0 0)
(0 0 0)
(0 0 0)
(-0.00183662143924 3.45578689216e-05 0)
(0 0 0)
(0 0 0)
(-1.56300514456e-05 1.63514070964e-07 0)
(-2.76656733112e-05 2.89424950701e-07 0)
(0 0 0)
(0 0 0)
(-0.00115326428267 1.82830649673e-05 0)
(0 0 0)
(0 0 0)
(-1.81058702179e-05 1.89414894634e-07 0)
(-9.70832547096e-06 1.01563825655e-07 0)
(0 0 0)
(0 0 0)
(0 0 0)
(0 0 0)
(0 0 0)
(0 0 0)
(0 0 0)
(0 0 0)
(0 0 0)
(0 0 0)
(0 0 0)
(0 0 0)
(0 0 0)
(0 0 0)
(0 0 0)
(0 0 0)
(0 0 0)
(0 0 0)
(0 0 0)
(0 0 0)
(0 0 0)
(0 0 0)
(0 0 0)
(0 0 0)
(0 0 0)
(0 0 0)
(0 0 0)
(0 0 0)
(0 0 0)
(0 0 0)
(0 0 0)
(0 0 0)
(0 0 0)
(0 0 0)
(0 0 0)
(0 0 0)
(0 0 0)
(0 0 0)
(0 0 0)
(0 0 0)
(0 0 0)
(0 0 0)
(0 0 0)
(0 0 0)
(0 0 0)
(0 0 0)
(0 0 0)
(0 0 0)
(0 0 0)
(0 0 0)
(0 0 0)
(0 0 0)
(0 0 0)
(0 0 0)
(0 0 0)
(0 0 0)
(0 0 0)
(0 0 0)
(0 0 0)
(0 0 0)
(0 0 0)
(0 0 0)
(0 0 0)
(0 0 0)
(0 0 0)
(0 0 0)
(0 0 0)
(0 0 0)
(0 0 0)
(0 0 0)
(0 0 0)
(0 0 0)
(0 0 0)
(0 0 0)
(0 0 0)
(0 0 0)
(0 0 0)
(0 0 0)
(0 0 0)
(0 0 0)
(0 0 0)
(0 0 0)
(0 0 0)
(0 0 0)
(0 0 0)
(0 0 0)
(0 0 0)
(0 0 0)
(0 0 0)
(0 0 0)
(0 0 0)
(0 0 0)
(0 0 0)
(0 0 0)
(0 0 0)
(0 0 0)
(0 0 0)
(0 0 0)
(0 0 0)
(0 0 0)
(0 0 0)
(0 0 0)
(0 0 0)
(0 0 0)
(0 0 0)
(0 0 0)
(0 0 0)
(0 0 0)
(0 0 0)
(0 0 0)
(0 0 0)
(0 0 0)
(0 0 0)
(0 0 0)
(0 0 0)
(0 0 0)
(0 0 0)
(0 0 0)
(0 0 0)
(0 0 0)
(0 0 0)
(0 0 0)
(0 0 0)
(0 0 0)
(0 0 0)
(0 0 0)
(0 0 0)
(0 0 0)
(0 0 0)
(0 0 0)
(0 0 0)
(0 0 0)
(0 0 0)
(0 0 0)
(0 0 0)
(0 0 0)
(0 0 0)
(0 0 0)
(0 0 0)
(0 0 0)
(0 0 0)
(0 0 0)
(0 0 0)
(0 0 0)
(0 0 0)
(0 0 0)
(0 0 0)
(0 0 0)
(0 0 0)
(0 0 0)
(0 0 0)
(0 0 0)
(0 0 0)
(0 0 0)
(0 0 0)
(0 0 0)
(0 0 0)
(0 0 0)
(0 0 0)
(0 0 0)
(0 0 0)
(0 0 0)
(0 0 0)
(0 0 0)
(0 0 0)
(0 0 0)
(0 0 0)
(0 0 0)
(0 0 0)
(0 0 0)
(0 0 0)
(0 0 0)
(0 0 0)
(0 0 0)
(0 0 0)
(0 0 0)
(0 0 0)
(0 0 0)
(0 0 0)
(0 0 0)
(0 0 0)
(0 0 0)
(0 0 0)
(0 0 0)
(-6.9710995028 0.175899029821 0)
(-5.4160699006 0.136253810502 0)
(-5.57052705801 0.12490415877 0)
(-3.39345626486 0.0760891735504 0)
(-4.77969081791 0.12024421747 0)
(-4.91091151509 0.110114045798 0)
(-7.90811446884 0.19981230121 0)
(-5.41542720251 0.136237641939 0)
(-2.55824588897 0.0643586137123 0)
(-2.64185954365 0.0592366288595 0)
(-2.63453391228 0.0590723711843 0)
(-3.72217688321 0.0936399996686 0)
(-3.72207288162 0.0936373832674 0)
(-3.82054170777 0.0856654214373 0)
(-1.55186085337 0.0390406620521 0)
(-3.28513059074 0.0826450856798 0)
(-1.26095717958 0.028273589576 0)
(-2.06760261968 0.0463604544403 0)
(-2.89916062721 0.0729351153074 0)
(-1.11181631577 0.024929504907 0)
(-1.75844788745 0.0442378384382 0)
(-0.733063925899 0.0184419246941 0)
(-0.346282575991 0.00871154201386 0)
(-0.598165362097 0.0134122571491 0)
(-0.221517868744 0.00496694527461 0)
(-0.305601234667 0.00768810844053 0)
(-0.52805038237 0.0118401164039 0)
(-0.830642501067 0.0208967402585 0)
(-1.20844035898 0.0304011223446 0)
(-1.55166761143 0.0390358006026 0)
(-1.61035681125 0.036107941086 0)
(-0.595599753573 0.0133547302452 0)
(-2.25763675727 0.05679609321 0)
(-0.83055391428 0.0208945116523 0)
(-0.865574484922 0.0194081909603 0)
(-0.570842037742 0.014360856537 0)
(-0.163556733024 0.0041146492783 0)
(-0.172499700717 0.00386784406244 0)
(-0.282958024498 0.00634457631189 0)
(-0.237978354679 0.0059868979236 0)
(-0.392330373591 0.00986998125177 0)
(-0.411039638841 0.00921646368031 0)
(-0.0353771342295 0.000895915985462 0)
(-0.127399163132 0.00320502167624 0)
(-0.0296717452673 0.000666573238832 0)
(-0.0804283551903 0.00180681617243 0)
(-0.11243102198 0.00282846334047 0)
(-0.0261796621323 0.00058812388762 0)
(-0.0400864713584 0.00101517862521 0)
(-0.00879035772567 0.000168555717182 0)
(0 0 0)
(-0.00768762268 0.000136672896355 0)
(0 0 0)
(0 0 0)
(-0.00514043741534 5.80389775953e-05 0)
(-0.00996045907585 0.000190992491477 0)
(-0.0275503760791 0.000697705534163 0)
(-0.0601737498391 0.00151381035663 0)
(-0.0626670875598 0.00140781080272 0)
(-0.012651558548 0.000224923259393 0)
(-0.0875544475315 0.00220263536503 0)
(-0.0189342893821 0.000479505559176 0)
(-0.0203960237312 0.000458194941864 0)
(-0.00487398119858 5.61620241665e-05 0)
(0 0 0)
(0 0 0)
(0 0 0)
(0 0 0)
(0 0 0)
(-0.00400397355976 4.5207540322e-05 0)
(0 0 0)
(0 0 0)
(0 0 0)
(0 0 0)
(0 0 0)
(0 0 0)
(0 0 0)
(0 0 0)
(0 0 0)
(0 0 0)
(0 0 0)
(0 0 0)
(0 0 0)
(0 0 0)
(0 0 0)
(0 0 0)
(0 0 0)
(0 0 0)
(0 0 0)
(0 0 0)
(0 0 0)
(0 0 0)
(0 0 0)
(0 0 0)
(0 0 0)
(0 0 0)
(0 0 0)
(0 0 0)
(0 0 0)
(0 0 0)
(0 0 0)
(0 0 0)
(0 0 0)
(0 0 0)
(0 0 0)
(0 0 0)
(0 0 0)
(0 0 0)
(0 0 0)
(0 0 0)
(0 0 0)
(0 0 0)
(0 0 0)
(0 0 0)
(0 0 0)
(0 0 0)
(0 0 0)
(0 0 0)
(0 0 0)
(0 0 0)
(0 0 0)
(0 0 0)
(0 0 0)
(0 0 0)
(0 0 0)
(0 0 0)
(0 0 0)
(0 0 0)
(0 0 0)
(0 0 0)
(0 0 0)
(0 0 0)
(0 0 0)
(0 0 0)
(0 0 0)
(0 0 0)
(0 0 0)
(0 0 0)
(0 0 0)
(0 0 0)
(0 0 0)
(0 0 0)
(0 0 0)
(0 0 0)
(0 0 0)
(0 0 0)
(0 0 0)
(0 0 0)
(0 0 0)
(0 0 0)
(0 0 0)
(0 0 0)
(0 0 0)
(0 0 0)
(0 0 0)
(0 0 0)
(0 0 0)
(0 0 0)
(0 0 0)
(0 0 0)
(0 0 0)
(0 0 0)
(0 0 0)
(0 0 0)
(0 0 0)
(0 0 0)
(0 0 0)
(0 0 0)
(0 0 0)
(0 0 0)
(0 0 0)
(0 0 0)
(0 0 0)
(0 0 0)
(0 0 0)
(0 0 0)
(0 0 0)
(0 0 0)
(0 0 0)
(0 0 0)
(0 0 0)
(0 0 0)
(0 0 0)
(0 0 0)
(0 0 0)
(0 0 0)
(0 0 0)
(0 0 0)
(0 0 0)
(0 0 0)
(0 0 0)
(0 0 0)
(0 0 0)
(0 0 0)
(0 0 0)
(0 0 0)
(0 0 0)
(0 0 0)
(0 0 0)
(0 0 0)
(0 0 0)
(0 0 0)
(0 0 0)
(0 0 0)
(0 0 0)
(0 0 0)
(0 0 0)
(0 0 0)
(0 0 0)
(0 0 0)
(0 0 0)
(0 0 0)
(0 0 0)
(0 0 0)
(0 0 0)
(0 0 0)
(0 0 0)
(0 0 0)
(0 0 0)
(0 0 0)
(0 0 0)
(0 0 0)
(0 0 0)
(0 0 0)
(0 0 0)
(0 0 0)
(0 0 0)
(0 0 0)
(0 0 0)
(0 0 0)
(0 0 0)
(0 0 0)
(0 0 0)
(0 0 0)
(0 0 0)
(0 0 0)
(0 0 0)
(0 0 0)
(-1.42259501256 0.0120291501075 0.0449524891136)
(-2.27596944275 -0.0266474901992 0.160608182979)
(-1.67386264895 0.0375318895116 0)
(-0.626199479575 0.0140408471952 0)
(-2.67545646994 0.0195244606141 0.0911941525962)
(-0.894918271792 0.020066146837 0)
(-1.20595823518 -0.0118104250272 0.0799688934464)
(-1.59679803726 0.035476291296 0.00874501411449)
(-3.28550886205 0.0826546019726 0)
(-2.11633812533 0.0474532177051 0)
(-1.26830649978 0.0284383784097 0)
(-3.01668514557 0.0630119158665 0.0243241701448)
(-1.75859912901 0.0442416432709 0)
(-1.13323807608 0.0254098305428 0)
(-0.619326572169 0.0105063964546 0.00944270145934)
(-0.163713363439 0.00411858967996 0)
(-0.295228140757 0.00661970082586 0)
(-0.175862188424 0.00394323884898 0)
(-0.238124076516 0.00599056389465 0)
(-0.422573467746 0.00947507892116 0)
(-0.495381385667 0.00139498967002 0.0207324925215)
(-0.73324901543 0.0184465810509 0)
(-0.346262652048 0.00871104078082 0)
(-0.600711984284 0.0134693583351 0)
(-0.223387786338 0.00500887317149 0)
(-0.830614931493 0.0208960466819 0)
(-0.305656093633 0.00768948854516 0)
(-0.536087268262 0.0120203220579 0)
(-1.55125661022 0.039025460913 0)
(-3.28436394751 0.0826257989897 0)
(-2.05393637632 0.0460540255131 0)
(-1.25898600256 0.0282293912075 0)
(-2.89803619967 0.0729068277225 0)
(-1.75798098486 0.0442260924199 0)
(-1.10474574944 0.0247709663828 0)
(-1.20796798728 0.030389238738 0)
(-1.55107769515 0.0390209598892 0)
(-1.60389798631 0.0359631192248 0)
(-0.594327226923 0.0133261972412 0)
(-2.25677451583 0.0567744015252 0)
(-0.830197979621 0.0208855572897 0)
(-0.862033792229 0.019328800404 0)
(-0.732698772915 0.0184327384232 0)
(-0.346170745782 0.00870872866536 0)
(-0.59685744838 0.0133829306848 0)
(-0.219369764961 0.00491877979707 0)
(-0.830337444816 0.0208890658604 0)
(-0.305470279146 0.00768481395042 0)
(-0.524377204983 0.0117577552329 0)
(-0.570543473062 0.0143533454494 0)
(-0.163479898842 0.00411271633608 0)
(-0.281763044195 0.00631778207719 0)
(-0.170977581005 0.00383371460214 0)
(-0.392119490409 0.00986467599581 0)
(-0.237867108915 0.00598409927815 0)
(-0.408983584832 0.00917036217256 0)
(-0.269514920193 0.00678027343391 0)
(-0.940764171972 0.0236671065121 0)
(-0.361816666564 0.00811277028104 0)
(-0.361566870013 0.00810716926203 0)
(-0.503548893199 0.0126679412806 0)
(-0.503526311094 0.0126673731753 0)
(-0.194188138837 0.00435414923433 0)
(-0.127309846047 0.00320277469764 0)
(-0.0991593481701 0.00249458357868 0)
(-0.171738814306 0.00385078322133 0)
(-0.0378823121747 0.000851022927477 0)
(-0.237859537017 0.00598390878949 0)
(-0.0514352911799 0.00130258429883 0)
(-0.0904922827672 0.0020329014512 0)
(-0.127304176646 0.00320263207068 0)
(-0.0991563134881 0.00249450723421 0)
(-0.171279465521 0.00384048355436 0)
(-0.037803933208 0.000849262150643 0)
(-0.237832773407 0.00598323548876 0)
(-0.051438901958 0.00130267574077 0)
(-0.0904144241241 0.00203115236339 0)
(-0.0601353443977 0.0015128441786 0)
(-0.00878443083401 0.000168442068625 0)
(-0.0179124270812 0.000402401153936 0)
(-0.0178934198984 0.000401974159187 0)
(-0.024296290115 0.00061529672133 0)
(-0.0242984913109 0.000615352465997 0)
(-0.042824292525 0.00096204409656 0)
(0 0 0)
(-0.0353567167567 0.0008953989187 0)
(-0.00766441564701 0.000136260314658 0)
(-0.0126122950395 0.000224225220784 0)
(-0.00995547636408 0.000190896947634 0)
(-0.018923494977 0.000479232193901 0)
(0 0 0)
(0 0 0)
(0 0 0)
(0 0 0)
(0 0 0)
(0 0 0)
(0 0 0)
(0 0 0)
(0 0 0)
(0 0 0)
(-0.004515740463 5.0985731054e-05 0)
(0 0 0)
(-0.00775193546624 0.000148643898558 0)
(0 0 0)
(0 0 0)
(0 0 0)
(0 0 0)
(0 0 0)
(0 0 0)
(0 0 0)
(0 0 0)
(0 0 0)
(0 0 0)
(0 0 0)
(0 0 0)
(0 0 0)
(0 0 0)
(0 0 0)
(0 0 0)
(0 0 0)
(0 0 0)
(0 0 0)
(0 0 0)
(0 0 0)
(0 0 0)
(0 0 0)
(0 0 0)
(0 0 0)
(0 0 0)
(0 0 0)
(0 0 0)
(0 0 0)
(0 0 0)
(0 0 0)
(0 0 0)
(0 0 0)
(0 0 0)
(0 0 0)
(0 0 0)
(0 0 0)
(0 0 0)
(0 0 0)
(0 0 0)
(0 0 0)
(0 0 0)
(0 0 0)
(0 0 0)
(0 0 0)
(0 0 0)
(0 0 0)
(0 0 0)
(0 0 0)
(0 0 0)
(0 0 0)
(0 0 0)
(0 0 0)
(0 0 0)
(0 0 0)
(0 0 0)
(0 0 0)
(0 0 0)
(0 0 0)
(0 0 0)
(0 0 0)
(0 0 0)
(0 0 0)
(0 0 0)
(0 0 0)
(0 0 0)
(0 0 0)
(0 0 0)
(0 0 0)
(0 0 0)
(0 0 0)
(0 0 0)
(0 0 0)
(0 0 0)
(0 0 0)
(0 0 0)
(0 0 0)
(0 0 0)
(0 0 0)
(0 0 0)
(0 0 0)
(0 0 0)
(0 0 0)
(0 0 0)
(0 0 0)
(0 0 0)
(0 0 0)
(0 0 0)
(0 0 0)
(0 0 0)
(0 0 0)
(0 0 0)
(0 0 0)
(0 0 0)
(0 0 0)
(0 0 0)
(0 0 0)
(0 0 0)
(0 0 0)
(0 0 0)
(0 0 0)
(0 0 0)
(0 0 0)
(0 0 0)
(0 0 0)
(0 0 0)
(0 0 0)
(0 0 0)
(0 0 0)
(0 0 0)
(0 0 0)
(0 0 0)
(0 0 0)
(0 0 0)
(0 0 0)
(0 0 0)
(0 0 0)
(0 0 0)
(0 0 0)
(0 0 0)
(0 0 0)
(0 0 0)
(0 0 0)
(0 0 0)
(0 0 0)
(0 0 0)
(0 0 0)
(0 0 0)
(0 0 0)
(0 0 0)
(0 0 0)
(0 0 0)
(0 0 0)
(0 0 0)
(0 0 0)
(0 0 0)
(0 0 0)
(0 0 0)
(0 0 0)
(0 0 0)
(0 0 0)
(0 0 0)
(0 0 0)
(0 0 0)
(0 0 0)
(0 0 0)
(0 0 0)
(0 0 0)
(0 0 0)
(0 0 0)
(0 0 0)
(0 0 0)
(0 0 0)
(0 0 0)
(0 0 0)
(0 0 0)
(0 0 0)
(0 0 0)
(0 0 0)
(0 0 0)
(0 0 0)
(0 0 0)
(0 0 0)
(0 0 0)
(0 0 0)
(0 0 0)
(0 0 0)
(0 0 0)
(0 0 0)
(0 0 0)
(0 0 0)
(0 0 0)
(0 0 0)
(0 0 0)
(0 0 0)
(0 0 0)
(0 0 0)
(-0.0275581268092 0.000697901819225 0)
(-0.0602193167236 0.00151495669738 0)
(-0.0635486102987 0.00142761413623 0)
(-0.012901127035 0.00022936016393 0)
(-0.0875933743094 0.00220361465848 0)
(-0.0205822663241 0.000462378865905 0)
(-0.0189454077236 0.000479787128052 0)
(-0.0353763760593 0.000895896785015 0)
(-0.127384561814 0.0032046543462 0)
(-0.0808231408286 0.00181568499828 0)
(-0.0295198915484 0.000663161857926 0)
(-0.112439993163 0.00282868903142 0)
(-0.0400806176666 0.0010150303821 0)
(-0.0262125547686 0.000588862817901 0)
(-0.00487481161311 5.61715928863e-05 0)
(0 0 0)
(0 0 0)
(0 0 0)
(0 0 0)
(-0.00402846451709 4.54840596159e-05 0)
(0 0 0)
(-0.00878982363921 0.000168545476038 0)
(0 0 0)
(-0.00765405907848 0.00013607619243 0)
(0 0 0)
(-0.00995930051516 0.000190970275995 0)
(0 0 0)
(-0.00514323489638 5.80705630278e-05 0)
(-0.0353667747441 0.000895653634404 0)
(-0.127354288085 0.00320389274027 0)
(-0.079754017617 0.00179166723608 0)
(-0.0294703766284 0.000662049509452 0)
(-0.112393541815 0.00282752043994 0)
(-0.0400748801235 0.00101488508044 0)
(-0.0259873525056 0.00058380366818 0)
(-0.0275452121364 0.000697574758766 0)
(-0.0601595392378 0.00151345285596 0)
(-0.0621446098985 0.00139607338641 0)
(-0.0125754218447 0.000223569677903 0)
(-0.0875318857156 0.00220206777017 0)
(-0.0189320286103 0.000479448305765 0)
(-0.0202529738077 0.000454981337476 0)