/*--------------------------------*- C++ -*----------------------------------*\
| =========                 |                                                 |
| \\      /  F ield         | OpenFOAM: The Open Source CFD Toolbox           |
|  \\    /   O peration     | Version:  v1906                                 |
|   \\  /    A nd           | Web:      www.OpenFOAM.com                      |
|    \\/     M anipulation  |                                                 |
\*---------------------------------------------------------------------------*/
FoamFile
{
    version     2.0;
    format      ascii;
    class       surfaceScalarField;
    location    "9.75";
    object      phi;
}
// * * * * * * * * * * * * * * * * * * * * * * * * * * * * * * * * * * * * * //

dimensions      [0 3 -1 0 0 0 0];
oriented        oriented;


internalField   nonuniform List<scalar> 
92311
(
0.203969453396
-1.1963701179e-05
-0.00118955034333
-0.203810580427
0.0010426414686
-5.39082252488e-05
0.204059122384
-0.000836050474274
0.000800297766016
0.203934771107
4.82384871579e-05
-0.0012269843533
-0.203831222934
0.00106323178032
-0.000131154151969
0.2040792492
-0.000776024190307
0.000708791472974
0.203833110642
-1.30323196511e-05
-3.72079755964e-05
-0.00106712190229
-0.203619135916
0.00102364299379
-2.32192482522e-05
-4.87896918672e-05
-7.61791102422e-05
-0.000105023294188
-0.000169076977797
0.204172850756
-0.000553194362714
0.000530880544436
-9.82972119441e-05
0.0510223943903
1.56823896618e-05
7.2778378661e-06
1.55227392936e-05
7.14670922415e-06
-0.00032304101976
-0.0510597846275
0.000301785438433
-0.0510627206358
0.0511503959429
-3.64655245934e-05
-2.47522689525e-05
-2.45831391541e-05
-3.19031703769e-05
-0.000169561307426
0.000123405498271
-3.00977119602e-05
0.00587741149307
-2.26587370415e-05
-1.60695377759e-05
-1.18255735298e-05
-0.00355015764895
-0.00543500970223
-0.00195280625133
0.00514101634366
-0.00959733788085
0.00858966843998
0.000522047872309
0.00381857723485
2.82054422773e-05
4.52585724182e-05
4.16287025245e-05
5.1990674214e-05
-0.00350025287253
-0.0536885348363
0.000946393271436
0.003320940453
0.00521691716014
-0.0272322129591
0.101300505806
0.0298921410758
0.00204411738469
-2.15962391594e-06
-2.28478363774e-05
-1.97885067578e-05
-3.03102403415e-06
-0.00023880627514
0.000209131459111
-3.1775486732e-05
0.0118297533749
-7.09023900519e-06
6.47753042199e-06
-0.0118273936637
0.0118239874129
-3.2132698342e-05
2.81350966795e-05
-0.0118289348674
4.54218760111e-05
-3.65575818126e-05
3.45340832327e-05
-2.81181217721e-05
0.0512077053705
-2.09261041401e-05
-3.05792643201e-05
-2.71971357263e-05
-9.00450593099e-05
-5.40702620898e-05
0.0511215799697
-6.3301821425e-05
-5.38696932094e-05
-5.39921705451e-05
-0.0510489026032
1.79487476511e-05
-6.8515158407e-05
3.60289276954e-05
0.0118508581766
5.84020427761e-05
-5.27714818898e-05
-2.03065452267e-05
0.012796167975
6.4008833169e-06
-1.8003903792e-05
-0.0127923827531
0.0127887848232
-3.71190303151e-05
-4.75455321823e-05
-0.0127785288674
-2.4131403064e-05
0.204271186346
-0.002029633602
0.0017967347929
-0.204014156076
0.204119537199
-2.25466069896e-05
-0.000336454130779
0.000298470659847
-3.09180723265e-05
0.204216825957
-0.00019466152139
0.000128278925953
0.000150211139438
0.204313854405
-0.0021000123368
0.00182354475441
-0.20421164593
0.204229034436
-6.57424598004e-05
-0.000438267755826
0.000331560901606
2.97861902177e-06
0.204322841667
-0.000227272195457
9.95331710604e-05
0.000157302315941
0.000141031779702
0.000124418745427
-0.00199977653883
0.204218019203
0.00171443598939
-0.20435496515
0.0001498227845
-5.37189925223e-05
-4.62881296844e-05
-0.000123626430516
-0.000104729335531
0.204491823021
-0.000212312761397
0.000155823118903
0.0512072486019
5.78239116794e-05
6.13652686311e-05
5.68785515201e-05
6.16417830926e-05
-0.000530542123346
-0.0512534914944
0.000496390696553
0.0512120531455
-1.26564670406e-05
-1.42146705602e-05
-2.5085235347e-06
2.49014827326e-06
1.27385448563e-05
-4.39256770891e-05
0.00710912468788
0.000435746335585
-0.0125117901274
1.08716735084e-05
2.77996720947e-05
-4.39200276531e-06
1.07143020862e-05
-0.00467550714845
0.0104562596394
0.0164610090773
0.0128545025473
-0.0496305038085
0.0119976391363
0.09154457001
0.00769640314882
0.0132129693107
0.00163227015164
0.00234377256007
0.00264996027049
0.00357123475179
-0.0240840591364
0.0341807646561
-0.00332605853268
0.000416342501594
4.67555917977e-05
3.45428648984e-05
4.45066525907e-05
3.62276613972e-05
0.0512098670519
-0.000439947905371
4.6579661246e-05
3.65187792279e-05
4.35864291931e-05
3.31748294453e-05
0.0511370867165
0.000383884378671
-0.0511400243184
0.000121410624929
-7.06294185406e-05
0.011765509548
2.85421437106e-05
-6.08701866598e-05
-0.0117838921683
6.26392987169e-05
-3.13939264094e-05
-0.0117538039876
3.43035373276e-05
-6.08174727683e-05
0.0117490525913
5.29417312355e-05
0.0127685149767
-9.85663621753e-05
9.74481560906e-05
-0.012773739273
-5.38431400344e-05
7.32985296904e-06
2.14509905904e-05
1.72216917115e-05
1.15064579627e-05
0.051188132925
-2.60519318328e-05
0.0511865333358
-4.13562056585e-05
-4.52353662151e-05
-5.10329577022e-05
-2.57434179433e-05
-3.79602979184e-05
-3.81739041179e-05
-3.02755674909e-05
-1.87718845744e-05
-8.27844305739e-06
0.0511915374573
-6.85220392923e-05
-2.96508816699e-05
1.65214071436e-05
-2.12818938695e-06
0.0127971340622
5.51684269126e-06
-5.3838405531e-05
-0.0119002818742
5.024519637e-05
0.0119078367794
-9.4357900145e-06
-4.64815880501e-05
-2.82470645797e-05
0.012792540413
-0.012789236626
-3.80250306165e-05
0.0127905937568
4.70962162289e-05
-4.86929758606e-05
0.00236437202314
7.62952802089e-06
3.20253898542e-05
1.04126426388e-05
-0.00300344492258
0.00678405812238
-0.000349154718196
0.00212332885627
7.37642957122e-05
8.7714294824e-05
8.94557069486e-05
8.6204352672e-05
-0.00159201151526
0.0108602280379
-0.00313843543382
-0.00645499887681
-0.019037496377
0.0171224231887
0.0114480808116
0.0114731866153
-0.0132361128554
-0.000853075060109
0.000334176006495
6.20898552664e-05
6.28194250286e-05
6.32998049076e-05
-0.00276253444098
0.00835504780486
-0.00220111601232
0.00969162699633
0.00953170935084
7.18768201005e-05
0.0127530923891
-7.93197166556e-05
-0.0127617276531
-0.0127440358123
1.37166578328e-05
-6.75244368964e-05
0.0127413538558
6.37771609431e-05
8.51046899898e-06
-1.76659177796e-05
0.0118208934784
-4.55035589174e-06
-2.71184629558e-05
0.0118613741259
-0.0118540669926
-3.3022908078e-06
-0.0127534269847
6.96448358884e-05
0.0118506080196
2.13267908771e-05
0.0127496076827
-7.4614459246e-05
0.0127376238109
6.4278706288e-06
-5.33074646716e-05
4.84157852329e-05
4.21158533081e-05
-0.0127471411724
0.0127580564109
-4.77017196451e-05
2.77327598518e-05
-7.77452097552e-06
-2.03758364092e-05
2.53740399684e-05
-0.011855584763
0.0118503306382
5.73373284374e-05
0.0127454797327
3.97998289983e-05
3.95199541815e-05
-6.16195627641e-05
-0.0127645171096
-4.56233431905e-05
-1.15760237754e-05
0.0127818508158
3.39407555116e-06
3.02760622693e-05
0.0127773564393
-3.82443320478e-05
7.00428619037e-05
3.62638934416e-05
0.011871675769
-6.48981041249e-05
3.73851246322e-05
0.0118720495417
6.23036464699e-05
2.41732886003e-05
0.011882175546
7.76585235689e-05
0.0127948158318
-2.45158043591e-05
-6.29691556541e-07
-0.0128026474601
0.0128000798068
-1.13493141579e-05
7.13862764881e-05
-0.0118765186961
0.0118815098931
-4.87533165149e-05
-0.0118851906442
9.11195474053e-05
0.0118927230444
-3.34847665808e-05
-2.53484992121e-06
-5.11333574887e-06
7.13086095808e-05
2.11493904381e-05
-5.5714887791e-05
8.69332362665e-05
-1.65070703452e-05
-7.16170074377e-05
-0.0127619451171
0.0127744592596
-4.12847523951e-05
0.000110773244107
-0.0119096496667
0.0119161488196
-0.0119226735125
0.0119286141811
0.000120810822068
-1.40442088551e-05
-5.91659072624e-05
-0.0127642564875
6.82848737345e-05
-0.000108366677538
-0.0119105771325
0.000117432930044
-0.012742185276
-1.91856498157e-05
-0.0119040659093
-0.00463235971
-0.00191603932095
-5.87456656482e-05
-5.14729996131e-05
-6.04400555433e-05
-7.56198266002e-05
0.00369981223788
-0.000489896779408
0.0035847978373
-0.0194159268774
0.000415381086205
0.0264672716892
-0.00164102951933
-0.0034192347342
-0.00706980940708
-0.000102782240917
-0.000118986712941
-0.000102652627958
-0.000368194251522
0.00184847848134
0.00945418676224
-0.00538670841066
-7.74309392371e-05
-6.65733652286e-05
-7.84788546052e-05
-0.000884069281659
0.00122054611669
0.00169872009723
-0.012993825951
0.00256082078428
0.0181255473084
-0.0118939223088
0.00164316146017
0.0015403061072
-0.00482787824238
4.3795175884e-05
7.35327475845e-05
6.01118355836e-05
2.3627493856e-05
0.00860343215892
-0.00211476138799
-0.0166669608467
0.00292186705904
-0.0134921784266
0.000921740560812
0.00104342322745
-0.00371044648496
4.32389769415e-05
4.0263098348e-05
6.63319412808e-06
7.95930277439e-06
-0.00652890165935
0.00426871272855
0.000384968074648
-0.0138352775849
0.000481915450713
-0.000151838750036
-7.64217422625e-06
1.31320654641e-05
1.15797550665e-05
-0.0129308411591
-0.00315132127883
-0.011631603844
0.00194227313265
-0.000107866665523
-0.0127877817381
5.84123928121e-05
0.0127844082245
0.000110654587142
0.0127997263531
0.000117178913613
-0.00011442340218
-0.0128117660939
-5.77998224141e-05
3.12502927632e-05
0.0117567102889
-6.74836136738e-05
-7.40664722921e-05
0.0117692740651
-0.011787167169
1.57808713326e-06
0.0127964713906
-0.000105531940079
-0.0128023036406
0.000119286260981
0.0117575532
-1.29435735355e-06
-0.00010015999426
0.0127808373061
4.65838204129e-05
0.000103931219824
-0.0127924515672
9.35856169423e-05
-8.86192542239e-05
0.012790661535
-4.45792738905e-05
3.26517480672e-05
-6.25917950104e-05
-3.28543338774e-05
-0.0117560453355
7.11217897878e-06
0.011749542041
-9.60996874495e-05
9.91596064959e-05
0.012778706688
2.29640449368e-06
0.0117977861469
1.79255778327e-05
-2.94316457324e-05
-0.0117920461088
-3.95034916549e-05
1.12329311712e-05
0.0117937971046
-1.91972726645e-05
-9.40663584423e-05
0.0127657885896
9.38823053257e-05
0.0127754970045
5.3718516228e-05
-0.0127801742935
-4.05594130436e-05
-0.0117737086194
0.0117721947356
0.0127732628579
-0.0117753729715
2.05135361118e-05
0.012796053821
-2.58952019222e-06
7.33295781791e-05
0.0118823076198
-4.27285315999e-05
0.0118925881796
9.90918182286e-05
1.80101064503e-05
2.84166052492e-05
0.0127856113151
-3.24874124641e-05
-4.93600161075e-05
6.33551028402e-05
0.0118898328832
-2.58545579599e-05
0.0127812839682
-4.00529696617e-06
0.0118956439947
9.94592789006e-05
1.40343315003e-05
0.0127736193023
3.68338796352e-05
-3.16648799201e-05
-0.0127687995283
-6.68140765206e-06
0.0127615881898
-1.85168792102e-05
-5.49863205766e-05
5.77405477045e-05
-2.0860665236e-05
-3.85176798894e-05
-0.0119011378235
9.58308916243e-05
0.011907224976
-1.13263633725e-05
-2.74724644817e-05
0.012767298857
0.000100615325034
-0.0127863107641
-4.61990341413e-05
5.05867134354e-05
-5.26045783291e-05
-6.00929500881e-05
-4.93104923963e-05
0.000112551570767
0.0119183208212
0.0119328395486
0.00012181167593
-0.000114572982026
0.0119387596419
0.00012257461171
-1.79747653606e-06
0.012786572169
0.0119250036502
0.0119357203907
-0.000111344346733
0.000119534930427
2.53919144701e-05
-0.000109296262532
0.0119376947637
0.000122313783253
4.0933455734e-05
0.0127844853819
-3.98903740952e-05
0.0127810860531
2.08023316955e-06
-1.05667410114e-05
-0.0119243039873
0.0119280198862
0.0127756175624
-2.1462717102e-05
-5.67615549539e-05
-1.32449025491e-05
-5.45346505901e-05
0.204627712849
-1.54467967086e-05
2.84165766083e-05
-6.61725821418e-05
1.03719862432e-05
1.81504166314e-05
1.32344605439e-05
1.02705499448e-05
-1.28338672944e-07
0.0511809184955
1.59902263041e-05
-7.71436669453e-05
-3.26786871638e-05
2.93872056283e-05
2.59061175048e-05
2.62741011824e-05
-0.00115236885629
-0.011765774911
0.00666725635879
0.00591827040317
0.00607611757754
0.0426956342587
0.00476223772994
0.00704189809265
0.00132232924292
1.52586123848e-05
2.88132486736e-05
2.5855988199e-05
1.91718110918e-05
-4.96365411752e-05
-0.000346192490056
0.0511208445682
3.57940169962e-05
-3.6408655634e-05
-1.0992115599e-06
0.0118020126899
0.051184986537
-1.26708878759e-06
-2.56667849218e-05
-5.32773478783e-06
-1.55968580624e-05
-6.87275500272e-05
0.0511499970434
6.25660242939e-06
3.84470341752e-06
1.07307077508e-05
-9.65923001106e-06
6.0039425148e-05
-4.96332776593e-05
-4.03120936461e-05
0.0119182098013
4.31912944615e-05
2.76362592012e-06
-2.60846717734e-05
2.27221095595e-05
-0.000108360895694
0.0119298344632
0.000119449914947
0.0119127608472
-6.12269121059e-06
-8.64281387682e-06
-7.30820338845e-05
-0.0119148693022
9.00490627867e-05
0.051118222611
-2.16681100016e-07
3.13689608699e-06
8.04419157877e-06
-1.36008900469e-06
6.56135494167e-06
5.83345949533e-05
-4.26910668946e-05
-5.97451870208e-06
-1.10044282362e-05
-1.13577241041e-05
-5.85516593837e-06
2.81759949288e-05
7.19787330244e-05
0.0510945940504
-4.22361585248e-05
-1.09384493685e-05
-5.81457162881e-06
-5.47643027292e-05
0.0119112157998
7.29480972749e-05
-2.8563711302e-05
1.61390462698e-05
9.13112440396e-06
-0.0119118455772
0.011908002381
7.06223447565e-06
-4.80873973852e-05
-3.35294246743e-05
-4.34970828422e-05
-0.000481046117386
0.00440244573582
-0.00361070611409
-0.00714632156225
0.000502436106527
7.81801053906e-06
2.01501295315e-05
1.07540354348e-05
-2.71842465963e-05
0.000721200765466
-0.0068229489644
1.44498553379e-05
1.38486340145e-05
1.64530241179e-05
0.00186247404962
-0.00295790226214
-0.000189316695134
0.00250758459618
-0.00731292590456
-0.00709736672793
-0.000483005647253
0.00127570611584
-0.00162263419979
7.45769623787e-05
-0.00722663092092
1.54434430667e-05
1.462659065e-05
2.56374727917e-05
0.00205851228192
0.00120737078371
-0.00292889823809
3.11978344015e-05
2.44356152353e-05
2.92929394582e-05
0.000578485828878
0.00131319890071
-0.0078732338473
-0.0013585539274
-0.0127667902532
2.32833158926e-05
7.29320537526e-05
-7.78494519133e-05
0.012763689657
-7.94114047242e-05
0.0127583059339
-3.76090528109e-05
0.0117766353531
-1.59796336066e-05
-6.98172603872e-06
-2.09653434504e-05
0.0117918723631
-8.47043664453e-05
-1.85730006101e-05
0.0117679955654
0.0127547903461
-2.05966326708e-06
-0.012765648531
2.93722878084e-05
-1.4705752347e-05
0.0127634077214
0.0127608835315
-9.62569642788e-07
-2.04908900445e-05
-3.16548530429e-05
3.46253148428e-05
1.80548838213e-05
0.0119265313721
-3.04696333243e-05
0.0119135770526
9.31566366256e-05
-1.93633663749e-05
0.01275975275
-1.95990484957e-05
8.41075254441e-05
0.0119197366489
-0.0127712304506
6.55436883281e-06
-1.60682495606e-05
0.0127647825282
2.62804747826e-05
0.0127771686028
-2.20499305255e-05
-5.67301608176e-06
0.0119262595584
-0.000103208162159
1.38211410139e-05
0.0119220492835
0.000117426381578
0.0119244251539
0.0127715515597
-1.24109728593e-05
0.0127597084056
8.6970729791e-06
-1.08762839459e-05
1.34555322633e-05
6.73926061793e-06
-0.0127649570269
0.0127561364969
-2.75147756325e-06
-1.18888164927e-05
-0.0119234733847
0.0119210387528
-4.43063968182e-05
-9.14079481676e-05
5.87428840537e-06
0.000106469645922
0.0127535447264
1.17294219392e-05
-6.53126293522e-05
-8.16546790169e-06
-0.0127480545487
-1.02350013271e-06
-6.44598336735e-06
0.012742404986
1.29044912876e-05
6.6581049868e-06
0.0127488315344
-2.02417245191e-06
-8.23894455559e-06
0.0119156004875
-2.57051088895e-05
-3.26957995761e-05
-8.74538636633e-07
0.0119090530737
5.03979208904e-05
1.20221925109e-05
0.011912229529
-4.74684110367e-06
0.0127416086852
-1.34827548747e-06
0.0127385920564
-9.76720010674e-06
-8.64431001769e-06
1.62921510917e-05
1.31960022893e-05
-0.0127363366824
0.0127359072348
-7.58673044997e-06
1.84109737671e-05
-0.0119097203598
2.82185813524e-05
0.0119033463848
-1.16711754358e-05
4.58575085646e-06
2.86493331576e-05
2.00245141681e-05
0.0127388689501
1.03398054168e-05
-4.54848943806e-06
-0.00048538129574
-0.0492009356032
0.0492031884861
0.0005880650945
-9.1683178159e-05
-7.77431147922e-05
-8.55524486484e-05
-8.09092783758e-05
0.000230919679911
-0.000623312080461
0.0498347430105
-0.000200216676773
-0.000156193637732
-0.000177889631815
-0.000167862856765
0.000475667465072
-0.0496443199209
0.000659694529187
-0.00114052476688
-0.0502172400808
0.0507153774617
0.0010644339839
-0.000277125273901
-0.0002375061826
-0.000283155757443
-0.000245634295427
0.00062139313422
-0.000933475605159
-0.000214988647277
-0.000200657887158
-0.000216679739302
-0.00020161415068
0.000544346555419
0.0509963957227
0.000789256375562
-0.0505625767655
-8.92371301009e-06
-0.00185138850805
-0.0108443728701
0.00712596277287
0.00149848316867
0.00404765003224
3.59045600518e-06
-6.21719144916e-06
1.57453056148e-05
0.000273728483234
0.0013977327869
-0.0126134890429
0.00404201179038
0.00703413143344
0.000385985236028
0.000332895410893
0.000449037678847
-0.0013308190212
0.000108862738285
-0.000332601271047
-0.0110693613191
0.00676696239594
0.000160847703173
0.000152536245434
0.000209234208946
0.00436007520537
-0.000355484165664
0.000331646507203
-0.00629901531353
0.0166304346098
-0.0198665282311
0.00353677054971
0.00467333633681
0.000368032015283
0.000312738107431
0.000313209357176
0.000249995989499
0.000627614734282
0.000250167388096
0.0002540878157
0.000252317128753
-0.0223017999226
-0.00359281320752
0.00342836437285
0.0208322680057
0.0969151623388
-0.0109620241302
-0.00167174319501
-0.00595609731814
-0.00181228270543
-0.00711985081053
-0.000238967571495
-0.0406817288407
-0.0332810208098
-0.016989263935
-0.0129981239082
-0.0171464787637
-0.0146475337794
0.060724028407
0.0333639748513
0.100404108396
-0.0180958108358
-0.00398805036424
-0.00935576741385
-0.00747952323469
-0.0104998747755
-0.0410268816727
-0.0312122558536
-0.0077713592815
-0.0100241096385
-0.00614538517772
-0.00830587592216
0.17481894974
0.0852031026156
-0.00637556637268
-0.00572510901582
-0.00440396132464
-0.0362501896064
-0.0105982694965
-0.00554665996723
-0.00158761091174
-0.00387768392289
-0.000949447239782
-0.00243384735376
0.128170937502
-0.00881124529616
0.000158554712285
-2.77243554478e-05
-3.68721290624e-05
-3.1989373004e-05
-3.26770425078e-05
0.0489604083637
0.000162247271007
-9.40860325766e-07
-0.0491510422548
0.0489721220009
0.000315994784144
-2.86010971547e-05
-3.33367504333e-05
-3.34608171883e-05
-3.054320951e-05
0.000151885705199
-0.049155614818
2.44251638322e-05
4.01599316724e-05
-0.012199622575
3.04407471006e-05
0.0121318558553
-2.70349124769e-05
0.0121287957254
5.69131979851e-05
2.12049261833e-05
3.71330453504e-05
-4.7738179124e-05
-0.0121962151622
-6.8655920628e-05
-5.89999977649e-05
-5.84455650644e-05
-6.49546462719e-05
-0.000288107200207
0.0122522609606
0.0121820388871
0.0121962798133
0.0122206901218
0.000174720349398
5.11841957347e-05
1.65492131916e-05
5.96824327616e-05
-4.44442280066e-05
0.0120456048398
0.000429897294205
-4.40267802905e-05
-4.56774523927e-05
-4.19972476896e-05
-4.84074891774e-05
0.000153424392623
-0.0492881862809
0.0494333175757
-5.90918941166e-05
-8.01329477368e-05
-6.7530649699e-05
-6.99748067188e-05
0.000188795193688
-0.0494037397873
0.000488155765349
0.0121262377006
2.30325381462e-05
4.7078332126e-05
-0.012195809528
5.63780750279e-05
0.012111544457
-3.25548437452e-06
9.43173378403e-05
-4.47120210495e-05
-0.0121852143366
2.61269502688e-05
0.000876041563102
-0.000132422966691
-0.000153414181291
-0.000128419320863
-0.000171892246588
0.0493141985502
-0.000190501719117
-0.000163022744002
-0.00019189742941
-0.000168521451879
6.87598184901e-05
7.64619142089e-05
8.73908294452e-05
8.05550850457e-05
0.0495013612194
-0.000123821333514
-0.000121237053179
-0.000110595197243
-0.000141738546768
0.000394321244527
0.049851180241
0.000884994226587
-0.000170471434493
-0.000239026605066
-0.000215361646763
-0.000180458015845
0.00044689492688
7.14538036744e-05
0.0120455273349
5.15000773834e-05
0.0117734685242
-0.000104420256675
0.000205698956187
-0.011875365061
5.7710734791e-05
-5.65570804533e-05
1.69831809801e-05
-4.06587073448e-05
0.000134512628209
-3.61303018537e-05
0.012037011211
0.0118528328366
8.28968938286e-05
-0.000297047064883
0.000335546764865
-6.56693107566e-05
-0.0119086058289
0.0503542769869
-0.00030153540042
-0.000246828908216
-0.000229936162141
-0.000308966211105
-0.00116440564823
0.00060865994944
0.00143421163074
-0.00025263277522
-0.000271023638392
-0.000259616523489
-0.000278858007618
0.0512191774323
0.000461911049863
-0.0016982217432
0.000265857943446
0.0117667224091
8.45422830695e-05
-6.99082456318e-05
-0.000556629491628
0.000432626824152
-0.011848424608
0.00026495151929
0.0119469290978
-0.000239847504503
0.000137623766913
-0.000383425047559
0.000347130113449
-0.000116739906047
0.0118680592348
0.000282027876529
-0.000379529608852
0.000348226957917
-0.000296844445708
-0.011931714276
0.0119776366366
0.000853594635071
-0.000220715744692
-0.000256920033842
-0.000208715496558
-0.000269421393567
0.000604944690484
0.0504383183187
-0.000213017642684
-0.000248895420411
-0.00025094201679
-0.000214877349444
0.000632307414566
-0.0500741710985
0.000784964046471
0.000169477554789
0.012037582979
1.86861471921e-05
-0.0121011567934
0.0118922769983
-0.000291568852085
0.000326056391539
-0.0119329305392
8.8817728649e-05
0.0119619379394
-0.00025154815075
0.000285634765099
-9.47835197575e-05
-0.0119868225295
8.56068517688e-05
0.00120276583803
-0.000241739242033
-0.00025780790496
-0.000248449022545
-0.000242745902625
0.0512331559735
0.00070475073348
0.0509014881252
-0.000244962649086
-0.000218985802691
-0.000221813225958
-0.000236301083067
0.000590039135704
-0.000202611152728
-0.000185907857393
-0.000194936282637
-0.00020051395077
0.0512553600117
0.00101439793338
0.000618590828554
0.000321456252384
0.0119061986379
0.000134187039334
-0.000331995399702
0.000308033826369
-0.011961224278
0.000264178512515
0.0120031401917
0.000102296331394
-0.000257647007544
0.00025941042083
-0.000116691999965
0.0119747158438
0.000181073214504
-0.00021332975539
0.000191299755099
-0.000205369171793
-0.0120171965105
0.0120635734682
0.000246970937571
0.011992869911
9.48371710413e-05
-0.0119824331234
0.000169287607026
-0.0120349596168
0.0120828161574
-0.000185325819487
0.000149099986986
0.00227470652583
-3.14255659154e-05
-2.81292168994e-05
-3.58757271243e-05
0.0119418404963
-0.00260350854542
-0.0109181943149
-0.000573788888823
0.0116705712955
0.00238621185631
-2.21454040711e-05
-2.95763731427e-05
-3.18131659742e-05
-0.0111765361092
-0.0004992783553
0.0024979821689
-1.70887920162e-05
-6.08811465558e-06
-9.02102109634e-06
-0.00211374384688
0.00948544277514
0.00564582139083
-0.00331814547124
-0.00234084448121
0.00233706074767
-0.00404074927843
-0.000234653509921
0.00695406671322
-0.00605695587017
-0.000955085181096
0.00647311754666
-0.00494406553331
-0.0042682154062
0.00830199687774
-0.00215541059479
-0.00704510270714
-0.00150772763705
0.00205910410949
-0.00741210037336
-0.0031863516382
0.0052846777295
-0.0100991207905
-0.00559352294828
-0.00411621376735
0.0028789540866
-0.00162491175603
-0.00807412318537
0.00205748432661
-0.00314025066032
-0.00543138083342
0.0022835714171
-2.56169205162e-05
-1.76435658532e-05
-2.44545789601e-05
0.000188374015577
-0.0108417440803
0.00659545509853
-1.32594395264e-05
-1.15683891877e-05
-1.60286616491e-05
-0.00800447493126
0.00254059515102
0.00118875593608
0.000940305988677
0.00858068783768
5.90300476346e-05
0.000155627569856
7.70129988438e-05
-0.00141184248977
0.000198322387394
0.00737192836988
2.12125550441e-05
8.85449869931e-05
4.24625855211e-05
0.00730280600345
-0.00895198823914
0.00190682115839
0.000229899598531
0.000206197053872
0.000148541692205
0.0046167318431
-0.00543231582403
-0.00389656008022
-0.00293521108873
0.00456465763547
0.0040869790906
-0.00598616053406
-0.00365508118392
0.00174126864184
-0.00380781012313
0.00817349272849
0.00493976605362
0.000517925322369
0.00050762902866
0.000525017751916
-0.0238113818426
-0.00403477293757
-0.0176061752973
0.00481163727727
0.00035321350082
0.000424868892364
0.000426380331203
0.00501093567091
0.00783175171003
0.000437746431011
0.000412623052735
0.000450871472163
-0.0239503025934
0.00369287774962
-0.00150452275102
0.00279799120187
-0.00202988703677
0.000532596792442
-0.00163033225348
0.0016392338651
-0.00162224656451
0.00151825557767
0.0048554826418
0.000237774114266
0.000302472838867
0.000265261581892
0.00421147090374
-0.0185711083591
0.000272793557825
0.000236651792154
0.000241574948445
0.0167526092572
-0.00187651016321
-0.00161918653166
0.000160794388511
-0.00411408437089
-0.00317409984576
-0.00310243128586
-0.00311409515995
0.00354252579159
-0.00380181291474
0.00358130555821
0.00453504307838
0.000360966751514
0.000277176518029
0.000303888437718
-0.0214223039092
-0.0196751562912
0.00418917108337
0.000281712466098
0.000255126679301
0.000285412926486
0.00342040446444
0.000241735782312
0.000244601874864
0.000271532916527
-0.0206105300257
0.000125999536534
-2.60261683231e-05
-0.00158043671699
-0.000391696577233
0.00267131894787
0.000899670677503
-0.00234914831766
0.00401795952141
-0.00252840424369
0.0122943449901
-1.92879758902e-05
-1.85006359488e-05
3.46991500609e-05
-0.0123189719184
2.41329921165e-05
-0.0122901059119
0.0122726625979
-3.3774794471e-06
3.42499630963e-05
2.65416614159e-05
-2.88321341387e-05
-0.0122631201635
3.27828619168e-05
-0.0121984184173
3.76239752695e-05
0.0121304000999
4.28692838585e-05
0.0122764302362
4.13934026285e-05
-0.0122608437119
1.15655137079e-06
-0.0123158789235
0.0123018726032
4.80520758519e-05
-1.99223356956e-05
-0.0123239005421
-6.18264810775e-05
-0.0123137475687
0.0123014301718
7.79196106481e-05
3.60392661895e-05
-0.0121976113463
0.0121292004299
2.42040691848e-05
-4.97017286086e-05
5.78108036044e-05
-0.0122583545405
0.0122855146693
5.94239196409e-05
-0.0123314152275
-0.0122578580374
-0.0122656450374
9.14908898632e-05
-7.68818659597e-05
-6.65807626614e-05
0.0122489460772
-7.24910353879e-05
0.0122868876125
8.76492323682e-05
5.67579759451e-05
0.0120485865242
-3.74229615184e-05
7.8385005425e-05
-4.46417522731e-05
5.00485537558e-05
0.0119550822425
-5.4356563356e-05
0.000114155352081
0.0122773749886
-3.60925180361e-05
0.0119544512396
-6.62143511563e-05
0.0123401245852
-4.08049742029e-05
7.41182520721e-05
-0.012351247834
-0.0123282023302
8.67696437366e-05
0.012320747966
3.56511645301e-05
5.73263361674e-05
-0.0122565854992
5.44947193013e-05
-0.0121920003195
5.32382457923e-05
0.0121230736052
-0.0123413366112
9.65983392615e-05
0.0123362715771
5.33784364083e-05
-0.0122534060318
0.0123544622268
7.50340135915e-05
-4.98952413454e-05
-0.0123645534884
-9.69112264237e-05
-0.0123656308205
0.012371122147
0.000105047936468
6.83883340189e-05
-0.0121911314541
0.0121177151494
6.87828864809e-05
-4.75637727636e-05
-0.0122475916823
2.98044619175e-05
0.0123546120642
-0.0123754523238
8.35602546161e-05
-0.0122512528366
-0.000123410740231
-0.012325569289
-0.000112109276666
0.0123334504454
0.000135400798648
0.0123079215757
9.40705029622e-05
9.35330055639e-05
5.10844409538e-05
0.0119545950104
8.14519407895e-05
0.0120420959627
4.44001549406e-05
0.0123062746666
0.000104998169776
0.0119514771337
4.27036961665e-05
-0.000139680312765
0.0123399695669
-0.000159059953936
0.000159740210858
-0.0123015559487
0.00018134931194
0.0123376942719
-0.000165337665202
0.000134304096513
5.13688411146e-05
-4.86908919848e-05
0.000247653800576
-0.0118806047455
5.75469549875e-05
0.0117894291917
-0.000129382603681
0.000204034860393
0.0123930856666
4.01814388378e-05
-0.0123465731827
0.000137507772368
-0.000145755662498
0.0123663758681
-0.000106170202552
0.0123706866605
0.000119765957736
0.000104313463317
0.0120418114805
0.000189151713424
-3.61576141542e-05
0.0119473051986
2.55461238192e-05
0.0124009749406
0.000154132843702
0.0119455020097
0.0123826877396
0.000169423501053
-0.000196905140038
-0.000215477051414
-0.012434098149
0.0125061826275
0.00024028167872
0.000292722658113
-0.0118927463374
0.0118217038262
0.000240275617168
-4.38240086026e-05
4.8601957047e-05
0.0124490709832
0.000196468055734
-0.000286171980774
-0.0124692778378
-0.000415287152269
0.0125707251731
0.000321213949855
0.000279385720024
0.012400664694
0.000225942421419
0.000181826767456
-0.000204683176764
0.000387746140453
0.000126138210107
0.0117523219096
-0.000114007964271
0.000303810508187
0.0117997293081
0.000102810165837
0.0125068432849
0.000258857433243
-0.00026284851703
0.000257606685113
0.000196863291475
0.0118008990398
0.000160523123091
-0.000331456674986
-0.000404635548219
0.0127241648126
0.000362292748095
0.000221283990916
-0.0126798893647
0.00039025901957
0.0128336106508
-0.000370188076131
0.000259240736835
0.000400939546827
0.000182331701083
-0.000160374744336
-0.0118820946233
0.000406081332056
0.000293753252658
0.0119558676627
-0.000308986244982
0.000206681862638
0.000222230250048
0.000409686981378
0.0128535833534
0.000258530034039
-0.0125329228982
0.000329111312588
-0.000404844706104
0.0126292052538
-0.000271459144815
0.0125924697787
0.000285764074412
0.000326351629507
0.0118362586763
0.000399879287366
-0.00017292271592
0.0118781650028
0.000187864020567
0.0126801463316
0.000333155104813
0.0118468439556
0.000362832437294
-0.000382623144039
0.0127597676349
-0.0127854661861
-0.000400658247782
0.000389559553178
0.0128740883641
-0.0119167377286
0.00037597180464
0.0119767414638
0.000360122048495
-0.000222826344246
0.000222305860584
0.000358607935429
0.0128669157878
-0.000160930641975
-0.0124298192734
-0.00026660941005
0.0124806649978
0.000176447446251
0.0123991448094
0.000126238105795
-0.0123923343644
0.000228398775124
3.47811812983e-05
0.0119604352102
0.000207491520425
0.0120399036702
-0.0120974036076
2.07649667307e-05
0.0124431386599
-0.0124102199082
0.000146951285369
0.0119736373428
4.35913859286e-05
-0.000203537351944
0.0125329361508
-0.000281265310693
0.000212071079153
-0.0124858252719
0.0002434594656
0.0125520293811
0.000257887457395
5.63889200821e-05
0.000330208779086
-0.0119493105123
9.54177509037e-05
0.0119149085177
0.000243827648998
0.0125938392038
6.45998353241e-05
0.0125690374899
0.000207360940385
-0.000263181435523
-0.012513848411
-0.000235818294839
-0.0125960291915
0.0126515664382
0.000217108497248
0.000300304881464
-0.0119719579546
0.0119452419852
0.000258739816297
-6.4602519484e-05
-0.0120071657366