/*--------------------------------*- C++ -*----------------------------------*\
| =========                 |                                                 |
| \\      /  F ield         | OpenFOAM: The Open Source CFD Toolbox           |
|  \\    /   O peration     | Version:  v1906                                 |
|   \\  /    A nd           | Web:      www.OpenFOAM.com                      |
|    \\/     M anipulation  |                                                 |
\*---------------------------------------------------------------------------*/
FoamFile
{
    version     2.0;
    format      ascii;
    class       volVectorField;
    location    "9.75";
    object      U;
}
// * * * * * * * * * * * * * * * * * * * * * * * * * * * * * * * * * * * * * //

dimensions      [0 1 -1 0 0 0 0];


internalField   nonuniform List<vector> 
28582
(
(0.815697208734 0.00443105901066 -0.000394687769836)
(0.81652676452 0.0033565463655 -0.000476487373288)
(0.815905214497 0.00463020015437 0.000269214548841)
(0.816785189112 0.00306486934308 4.87929202895e-07)
(0.815495478565 0.0041426897416 1.69253456902e-05)
(0.816746745311 0.00213883789207 -0.00118935674147)
(0.816905692762 0.00514053097805 -0.000406889614302)
(0.817780102045 0.00246571818286 -0.001050755703)
(0.104623960572 0.0762503731655 -0.00248357026918)
(-0.124095608976 0.103705868281 -0.0087052319213)
(-0.34264880067 -0.06092128479 -0.240546637271)
(0.81686221999 0.00368123047812 -0.000935268240084)
(0.757099245048 -0.000316615959495 0.00352381066697)
(0.757354049605 0.00271567111139 -5.3703868376e-05)
(0.819263525187 0.000862062348131 -0.00146722863068)
(0.817929448669 0.000453936823332 -0.00304729099317)
(0.757759308833 0.00357401627261 -0.00103046192583)
(0.818864637692 -0.000955089372608 -0.00222365731993)
(0.8184384086 -0.00186896598455 -0.00406868894789)
(0.815475468801 0.00778272790293 -0.000618173302456)
(0.817642067706 0.00116704622672 -0.000292177246964)
(0.816969281903 0.000494821756703 -0.000459733110467)
(0.815935646938 0.00779884088162 0.000381194996246)
(0.817811068179 0.00140587357653 0.000150996375533)
(0.817115412022 0.000450112215282 0.000272966651786)
(0.816608212522 0.00752025846658 0.000709153247149)
(0.81823400575 0.000425835904007 -0.000771160981375)
(0.820084487335 0.00810685382756 0.00268972370666)
(0.81941695368 0.000125023488239 -0.000611836919495)
(-0.18818631849 0.0979736703824 -0.00677494127362)
(0.151452101019 0.428486142106 -0.44437067941)
(-0.125427978168 -0.233708162616 -0.270508201235)
(0.819379694943 0.00680408028276 0.00233477558787)
(0.818291791996 0.00651720050107 0.00195110727824)
(0.753557688742 0.00283879387413 0.00362709276134)
(0.752213078515 0.00358911269753 0.0022658546007)
(0.817645975332 0.00627685992261 0.00405435132778)
(0.819249253854 -0.00035627414339 -0.000685115468196)
(0.818361583515 -0.000450921975144 -0.00208521877452)
(0.819092948319 -0.00115928251087 -0.00169917375248)
(0.819097523573 -0.00160358672874 -0.000914907251288)
(0.762071084249 0.00117294197633 0.00408325718756)
(0.818581944798 -0.00245976655443 -0.00311040557846)
(0.818478281926 -0.00319206668414 -0.00338807497967)
(0.0798434802945 0.084042269101 -0.00613712527673)
(0.00827448724627 0.163702600539 -0.0139312623888)
(-0.297218821775 0.154831777384 0.0867818206618)
(-0.196460192622 0.0509032415844 0.0252023832481)
(-0.00328626815536 0.0935497395155 -0.0118228426493)
(-0.192101289623 0.050856097758 0.0163391677449)
(0.81643204769 0.00490087794331 0.00183222775625)
(0.815734770515 0.00416946983411 0.000604357573142)
(0.757109401208 0.000484235482892 0.00266320326434)
(0.758959233573 -0.000488884261979 0.003057795895)
(0.81582689581 0.00447432847551 0.00172941369811)
(0.758973820001 0.000745567026162 0.00221888111263)
(0.816273336852 0.00467270539242 0.000688702526833)
(0.815553517426 0.00325996983096 -1.20831277458e-05)
(0.816270702501 0.0029482835463 -0.0022942465108)
(0.757025949359 0.00164239493544 0.00192294941875)
(0.758976433417 0.00312076815532 -8.66485234043e-05)
(0.815620574318 0.00263773426035 -0.00196316552018)
(0.75897942138 0.00189984321155 0.00169740415993)
(0.81618863693 0.00377262933584 -7.54875526812e-05)
(0.81736271687 0.00040228019382 -0.00345277284394)
(0.817133049558 0.00227590994562 -0.00238603531525)
(0.758449206185 0.00434910981584 -0.000858135846721)
(0.759331738848 0.00377218465556 -0.00114606700452)
(0.81628410763 0.00182439161751 -0.00235543635983)
(0.759524461617 0.00463058429601 -0.00138058089244)
(0.818092552778 0.00127562192112 -0.00299140143458)
(0.819314457028 0.000239536683749 -0.00109852746488)
(0.759724349011 0.00381429789256 0.000817085241255)
(0.760496430107 0.00511387585374 -0.000382036079022)
(0.818068775085 -0.000241701289177 -0.00263907821038)
(0.759816737371 0.00399747543472 -0.000384378680108)
(0.760501031345 0.00506325616766 -0.00116013291163)
(0.818792672859 0.000707790091089 -0.00221240322182)
(0.817587234475 -0.00258496783661 -0.00536641994027)
(0.762091827957 0.00644105217619 -0.00176145640811)
(0.762972338575 0.00760057875837 -0.00244062806449)
(0.817026168873 -0.000529486196094 -0.00430194346077)
(0.762710392718 0.00734653776454 -0.00261477578364)
(0.81594586643 -0.00104399526427 -0.00448975135735)
(0.76213333319 0.00630422066819 -0.00228295841669)
(0.0421983865983 0.0498585819506 0.0043497198591)
(0.0287580310672 0.405030570484 -0.10521944183)
(-0.0888013761942 0.0249872181858 0.017194366734)
(-0.0276619521355 0.00665532631964 0.00913178833872)
(0.0401637145642 0.278054188436 -0.222284189156)
(0.0377619625369 0.266505568318 -0.148410855017)
(-0.061140579358 0.120948348726 -0.00906525697303)
(-0.297232793436 0.0381500212478 0.0758409059935)
(-0.231505077927 0.0194026617667 0.038607657962)
(-0.0899815549491 0.0499677841047 -0.00482925505491)
(-0.261090489121 -0.00104618111412 0.0509942769138)
(-0.203711506243 0.0563764143914 -0.00719582070773)
(-0.208936706737 -0.0174636662889 0.0126052723664)
(0.818181566349 0.00702296580692 0.00487251655002)
(0.819915070673 0.00733221905552 0.00526041992924)
(0.753042144925 0.00350018978104 0.00326721907175)
(0.753696064468 0.000984367789175 0.00387304802942)
(0.818956148858 0.00673005666233 0.00478253613446)
(0.819230674562 0.00756223394795 0.00535266648613)
(0.75328032182 0.000603382264873 0.00321828812304)
(0.818446609011 0.00660056841537 0.00391226840527)
(0.818758932368 0.00578124418498 0.00266247065325)
(0.752770939726 0.00346110839602 0.00309964152734)
(0.752223272916 0.00084600878908 0.00225969014842)
(0.819150917772 0.00623600576691 0.00365489050333)
(0.817997285093 0.00622424677427 0.00285754766073)
(0.752807621211 0.00071180371076 0.00304044696204)
(0.75501346506 -0.00181409940291 0.00396662054832)
(0.755035031944 -0.00136758167537 0.00330437354517)
(0.81724986903 0.00600109468583 0.00299603473233)
(0.818085913255 0.00659561088616 0.00381087753652)
(0.75343761946 -2.48337553498e-06 0.0035214566568)
(0.817678880721 0.00636842666224 0.00274085203218)
(0.753821218693 -0.000405263820197 0.00405598041107)
(0.81927602805 -0.000316726580929 0.000198233166129)
(0.760354509311 0.00341346271406 0.00161320891348)
(0.760983320135 0.00549974654007 0.000477479590754)
(0.8187843176 -0.00176980508453 0.000667365556294)
(0.760639103642 0.00230376706167 0.00347377633037)
(0.818692296904 -0.000260871018309 0.00177304646719)
(0.760932974769 0.00540171244755 0.00210951199289)
(0.817967463592 -0.00168962494288 0.00128416204632)
(0.81694934312 0.000716785405287 0.00254228868441)
(0.761217966315 0.00178701013856 0.00395212595326)
(0.761970862695 0.00533899792513 0.00272290120723)
(0.817713222778 0.000166005459019 0.00227743896663)
(0.817229829752 -0.00138493615442 0.00166387886425)
(0.761335580477 0.00550073269503 0.00255507613052)
(0.818474914871 -0.00341418468712 -0.00387548393817)
(0.817879536034 -0.00311457798069 -0.00461891434447)
(0.762844479085 0.00660822569848 -0.000974565388951)
(0.76380119048 0.00781826792994 -0.00215560565073)
(0.763697836402 0.00792771863437 -0.00154720830092)
(0.818669911208 -0.00264857261011 -0.00138479420506)
(0.76275136051 0.00670501330921 0.000988683849147)
(0.763985942778 0.00767951936932 -0.00120656939606)
(0.763912618262 0.0077601087836 -0.000945076028461)
(0.818143242948 -0.00278551631047 -0.00244111797939)
(0.81816002069 -0.00256323370329 -0.000962773545525)
(0.763288389179 0.00634834915522 0.00144822797869)
(0.817581364639 -0.00224571207623 -0.000136548591681)
(0.763040822711 0.00667921238333 0.00112054689126)
(0.818330124384 -2.71026496681e-06 -0.000294452793385)
(0.819041878273 -0.000460846970469 -0.000466520814483)
(-0.202086604381 0.0102182949875 -0.0086322377161)
(-0.0473050674669 -0.0658810799504 -0.389539887846)
(0.81834922042 0.00559843290366 0.00063916356301)
(0.755060661825 -0.000588728167182 0.00325088635657)
(0.819083659231 -0.00138698277605 -0.000951996721997)
(0.818436240769 -0.00109156219405 -8.34801727014e-05)
(0.762634022832 0.000475450222052 0.0032717396498)
(0.763753568057 0.00769836729804 -0.000915416958004)
(0.762800387556 0.00565413746943 0.000878382008515)
(0.818200222398 -0.00109496083517 -0.000268351028592)
(0.817602972647 -0.00105322939906 -0.000708602364475)
(0.76231013144 0.00453074076774 0.000727191309508)
(0.762590696823 8.48649987021e-05 -0.000391198087467)
(0.0713336766604 0.0372848635244 -7.55856653865e-05)
(-0.112869131278 -0.0148603988379 -0.003181683413)
(-0.112568831829 -0.0482045647987 -0.00364365299103)
(-0.151099397056 0.0165506324302 0.00918629072497)
(-0.154304612548 -0.0247197130185 0.0255360844849)
(-0.0872761236292 -0.0231369371288 0.0294635116907)
(-0.111466035299 -0.0478053615192 -0.00417524142927)
(-0.119445168692 -0.0279901183418 -0.00469906697656)
(0.817153572217 0.00502774509292 0.00114542652827)
(0.816662563422 0.0050863343469 0.00269816453559)
(0.753528831208 0.000730681080727 0.0034934413652)
(0.755082222207 -2.7048770568e-05 0.00248229833663)
(0.817171651459 0.00540978582046 0.00247802873513)
(0.753464026887 0.000955069554031 0.00291153506746)
(0.816630097566 0.004667059765 0.00133162822502)
(0.816859685593 -0.000733130048841 0.00140142946302)
(0.81654693426 0.000945863770332 0.00201222824241)
(0.763038338107 -0.000232121127743 0.00241352398878)
(0.762313063488 0.00510730380479 0.00225839243289)
(0.816467716501 0.0010615174229 0.00159388105439)
(0.816929925866 -0.00101040835628 0.00139468782569)
(0.762833474929 0.00450540310825 0.00206592246473)
(0.817041326564 -0.00104081506591 0.000257932418306)
(0.817877928532 -0.00167831438791 -0.00228700410164)
(0.763322677142 0.00629746443963 0.0011648071454)
(0.763308636233 0.00745078925971 -0.000787490953623)
(0.817401834658 -0.0015636780763 -0.000219891072233)
(0.763496167372 0.00588329357774 0.000949613133607)
(0.81743241598 -0.00106154745551 -0.00120611701923)
(0.816842528462 -0.000901516419224 0.000441598317028)
(0.816789186774 -0.000430455177663 0.000264789550841)
(0.763166561697 0.00355501221884 0.00102686057739)
(0.76290992034 0.00679389608009 -6.34762589237e-06)
(0.816450417309 -0.000644776764118 0.000859298837586)
(0.763361182103 0.0048155200783 0.000904623523351)
(0.817114283768 -0.000717512201141 -0.000848723306716)
(0.815709259114 -0.00062949646706 5.91056060729e-05)
(0.816138999854 -0.00039679778419 0.000331842059766)
(0.762742048926 0.00234496286306 0.000747032217338)
(0.762591108469 0.00302028381393 0.000457618094919)
(0.815988749464 -0.000595882969036 0.000708414942832)
(0.762634276902 0.00106323991749 -3.64452490816e-05)
(0.815833426226 -0.000303889308715 -0.000101496527494)
(0.815539859306 -0.000714894739753 -0.000366636461662)
(0.815295468301 -0.000652812766796 -0.000998574838366)
(0.762224009875 -0.00127746536996 -0.000985105863645)
(0.762353673626 0.0016358638866 0.000117455389766)
(0.815453268446 -0.000940444095315 -0.000891724066799)
(0.762329401923 -7.87751487004e-05 -0.000496516743959)
(0.81542354278 -0.000430586299196 -0.00040976227145)
(0.789354555736 0.00841996624097 -0.0042132663062)
(0.796650675715 0.010379851358 -0.00886944798479)
(0.807208890867 0.0180556147696 -0.0124759057048)
(0.811122204623 0.0138295111559 -0.00970600301912)
(0.15090507585 0.0275120444851 0.00638083659928)
(-0.0950420591749 0.0340337178957 -0.0407136485615)
(-0.11398173843 0.00678370990629 -0.0114853649852)
(-0.298031711911 0.10229801168 -0.0386275708035)
(-0.344152764535 -0.0352983762568 -0.0280390074725)
(0.248323910387 -0.000791837794675 -0.102788316908)
(0.533949726985 -0.154731939278 0.377317574879)
(0.200699818958 -0.0797593260488 -0.0748551602625)
(0.676782236189 -0.141485967136 -0.162787315264)
(0.142724993634 -0.0641697912861 -0.132795973901)
(0.633427176503 -0.079087346337 -0.221191577556)
(0.785995238078 0.00148483827495 -0.00210346876322)
(0.787127120709 0.00366090330409 -0.00191786649792)
(0.778873914341 0.00184354070063 -0.00230549120356)
(0.778706403368 0.0034188648202 -0.00181583907605)
(0.785461317194 0.00659531865126 -0.00260294649612)
(0.773675721758 0.00308022187395 -0.00252449904373)
(0.788864977029 0.00596371814669 -0.0023673448162)
(0.791569303628 0.0075396951437 -0.00345773500822)
(0.778365303179 0.00361425930618 -0.00205353034666)
(0.777470632273 0.00230912218907 -0.00403041664576)
(0.791668020477 0.013053749487 -0.00648494353819)
(0.793343706417 0.00969094370495 -0.00626229249013)
(0.797141449001 0.0143848827569 -0.00932607240281)
(0.773647176905 0.00327574806077 -0.00283258324681)
(0.758451861006 0.00374055289909 -0.0072422489073)
(0.773049879913 0.00170242604915 -0.00536873302112)
(0.761267833949 0.00454136004059 -0.0138148485214)
(0.803462901555 0.0191915751185 -0.0126030947405)
(0.811339908631 0.0255135595593 -0.010283316477)
(0.754257993829 0.00495794007533 -0.0101970020348)
(0.758345890863 0.0161802047774 -0.0210762258236)
(0.759900037578 0.00793493119082 -0.0155290596958)
(0.76348772493 0.018887832901 -0.0174396177394)
(0.801768708224 0.0141367708745 -0.0121871348686)
(0.805152847998 0.0131234153994 -0.0121348702187)
(0.772657790813 0.00106796873509 -0.00652813207409)
(0.762198680205 0.00534423310257 -0.0133031703253)
(0.765964305257 0.00598369711092 -0.0130589748545)
(0.815148502952 0.021097923082 -0.0129779987031)
(0.809661061468 0.0161602251122 -0.0114491480283)
(0.817372479626 0.0176792655223 -0.0106149066643)
(0.762614856827 0.00864103073544 -0.0143890290453)
(0.76569793507 0.0175256663056 -0.015676193732)
(0.766337076078 0.00716923348458 -0.0125281822423)
(0.769597209169 0.0125707732092 -0.0111856571704)
(0.767457832036 0.00626055635664 -0.0121535956934)
(0.770781111738 0.0104451873471 -0.0105596389105)
(0.186304032909 0.0371022531934 0.00800927817242)
(0.184197886787 0.0351334650295 0.00688920410612)
(0.173996487219 0.0305788862266 0.00735410378632)
(0.0716959149533 -0.0478844725491 0.0780070145411)
(0.12229779065 0.00867250356853 0.177767576269)
(0.0778498721119 -0.0606202682948 0.0822205922838)
(0.14339182887 -0.0152757949379 0.204596796898)
(0.0869862491609 0.0561467085518 0.227638044251)
(-0.131993660935 0.0956151279915 0.205964140723)
(0.110436800573 0.000896305854617 0.251480085579)
(-0.00629443935573 0.0492203105053 0.218851333771)
(0.178858875158 0.0371279971512 0.00732698933402)
(0.126727896513 0.0296469808261 0.00746981291573)
(0.0578074379472 0.0174417130187 -0.00526490892976)
(0.0656682843908 0.0123475481113 0.00242058456528)
(-0.0545746283742 0.0188729802901 -0.0206917858619)
(0.0690148606495 -0.0905442768752 0.119310405687)
(0.0697885357074 -0.0493938353408 0.247337037765)
(0.0650489571224 -0.098474748149 0.206289110142)
(0.053102647264 -0.0576626093152 0.247912472525)
(-0.2938445882 0.101348395927 -0.0645165574139)
(-0.217323865169 0.0982498200053 -0.047672301815)
(-0.343517895866 0.146491657183 -0.0493365636751)
(0.0883319153656 -0.0423979690542 0.236372126109)
(0.047499570128 0.029362474868 0.256409048066)
(0.0145923407203 -0.0152606600177 0.197475762887)
(0.0109146217567 0.0502746663036 0.234259890565)
(-0.227179570947 0.0493684316681 -0.0304990368655)
(-0.28314116924 -0.000932475104749 -0.0285731071235)
(-0.00552394238278 -0.075206038417 0.205322188301)
(-0.0478131277452 -0.0476885318643 0.180398114097)
(-0.0620228155911 -0.0523016119573 0.160171004953)
(-0.33283895713 0.108343786357 -0.0348236227966)
(-0.304939851951 0.0180845960858 -0.0305672015045)
(-0.321431431592 0.0172903662485 -0.0245160145806)
(-0.0394951534156 -0.0269445716815 0.161362704123)
(0.040758824498 0.0090879884208 0.180069317289)
(-0.0254554444642 -0.0269815532528 0.142289656848)
(0.0556894957615 -0.0257817175981 0.147860099624)
(0.787606310659 0.00180712074748 -0.00133069699336)
(0.786167783798 0.000976877607389 -0.00225649157568)
(0.78309693203 0.0019397782447 -0.00149434048419)
(0.778771761382 0.0020546930586 -0.00180199349287)
(0.786416864678 0.00205021955045 -0.00181350936363)
(0.783024477221 0.00243543559132 -0.000921180768343)
(0.78732498819 0.000529360494404 -0.00175884422323)
(0.787913994897 0.00264923882328 -0.00145709525015)
(0.788043318583 0.004445442154 -0.00211629696317)
(0.778712637851 0.00271615491376 -0.00194003078829)
(0.782790373579 0.0034937652526 -0.000941630777507)
(0.78719153917 0.00334842762584 -0.00200528304783)
(0.788701110369 0.0033855987849 -0.00169600172709)
(0.782868011496 0.0028427014615 -0.000860840588213)
(0.785671662927 0.00488823554754 -0.00494702585028)
(0.787174536182 0.00507957393376 -0.00393231572141)
(0.773804766711 0.00251379397734 -0.00257828169923)
(0.768321128988 0.00306206307697 -0.00337780003739)
(0.786204719436 0.00407656086853 -0.00375449520484)
(0.786865247926 0.00661181998512 -0.00478118267458)
(0.768227717515 0.00244947452747 -0.00328207925458)
(0.790194905041 0.00447308520125 -0.00276609995123)
(0.788849287612 0.00527292565461 -0.00298796650217)
(0.782757048868 0.00372180855715 -0.00148635928207)
(0.778094880934 0.00353602789012 -0.00237172795662)
(0.789503989119 0.00397571572485 -0.0025092328605)
(0.789695192961 0.0058918413381 -0.00334600400418)
(0.78254386714 0.00350063249944 -0.00162226936832)
(0.791056203071 0.00476892971677 -0.00351578648018)
(0.791553814058 0.00654895714935 -0.00580772957926)
(0.777837456661 0.00308152295393 -0.00262793755342)
(0.782116639966 0.00255226239173 -0.00293404724598)
(0.790687466919 0.0062093168149 -0.00451629327617)
(0.791780689563 0.00510979600221 -0.00453091663382)
(0.782417908461 0.00321333536736 -0.00187630904606)
(0.789534204377 0.0084124759815 -0.00699736827972)
(0.788424189458 0.00579843249603 -0.00491234953024)
(0.768119827343 0.00321734515262 -0.00358063581556)
(0.773456143873 0.00310497784363 -0.00320798144281)
(0.788139952611 0.00766350997884 -0.00608384611156)
(0.789472339997 0.00642355003848 -0.00536250987171)
(0.767928763562 0.0030280621195 -0.00436210490552)
(0.790606423543 0.00963134148308 -0.0100927946736)
(0.789725385563 0.0111161504013 -0.0132033504814)
(0.762949067909 0.00317017804682 -0.00469415046297)
(0.758978971551 0.00373623466839 -0.00925953705435)
(0.788597096623 0.0086141146548 -0.00895397284383)
(0.792338501148 0.0124219307301 -0.0154596605535)
(0.763163217014 0.0031098864199 -0.005764826825)
(0.79112133176 0.00871991888899 -0.00939504000577)
(0.792048252041 0.00729927191084 -0.00861033207809)
(0.77322834657 0.00254435346564 -0.0037990368294)
(0.767639945063 0.00184870918066 -0.00768767835579)
(0.790750066331 0.00674661043465 -0.00714378278956)
(0.792996694566 0.00941261143045 -0.0116543280061)
(0.767897117154 0.00262679082427 -0.00540233009104)
(0.792972849911 0.0105684303287 -0.0127264999523)
(0.798504058638 0.0146035312043 -0.0211857601368)
(0.760089264188 0.00410007345467 -0.0109833369394)
(0.763851497461 0.00287799866909 -0.00961830830888)
(0.795143611431 0.0132892509298 -0.0188139817599)
(0.795454542893 0.0116991274298 -0.0147223684179)
(0.763256782404 0.00269826647022 -0.00700245014975)
(0.802442283877 0.0195026238949 -0.0259801182896)
(0.793735694581 0.0138741625607 -0.0157346181396)
(0.754576482861 0.00778494455287 -0.0152851428173)
(0.755876064311 0.00609422178003 -0.0124818901961)
(0.798527797142 0.0176273618968 -0.0242343046083)
(0.796827303684 0.0155019842143 -0.01757315121)
(0.756609798225 0.00900097827784 -0.0174312068833)
(0.808315835206 0.0223771967413 -0.0227842394884)
(0.816251983527 0.0244658374939 -0.026641787753)
(0.756737552769 0.0108790113219 -0.0194588494615)
(0.760047695952 0.0178326198937 -0.0204620180452)
(0.805318597689 0.0204487458212 -0.0218516502123)
(0.758955071331 0.012892233786 -0.0203211661255)
(0.818879166914 0.0257880921175 -0.0259008239873)
(0.806271891673 0.0207191915958 -0.0264557972651)
(0.803345147453 0.0178967142844 -0.0207789568707)
(0.758220996535 0.00711992269348 -0.0136756550674)
(0.759383322449 0.011454726943 -0.0177692327478)
(0.800161385071 0.0167767524591 -0.0193685842653)
(0.809665709697 0.0213303509372 -0.0264147370974)
(0.75767901648 0.0106360981177 -0.0167034502783)
(0.811194405664 0.0232091274433 -0.0229360950173)
(0.821799995804 0.0254110447834 -0.0238303583316)
(0.762461119665 0.0189802537294 -0.0184253228914)
(0.762894433503 0.0144528775123 -0.0180247598608)
(0.813593607523 0.0231782513712 -0.0227460713002)
(0.761714520218 0.0141665689345 -0.0186435362267)
(0.820700291803 0.0259816625635 -0.0250257264205)
(0.797156890549 0.0106893058209 -0.0166070821141)
(0.793695574958 0.00785593014895 -0.011030920608)
(0.768158459065 0.00185062599485 -0.00933657727939)
(0.772691692984 0.00109575618387 -0.00900522843086)
(0.795071521285 0.00999836294088 -0.0144005022505)
(0.795229644716 0.00863112986014 -0.0128846114599)
(0.768580068955 0.00235255828393 -0.0118419107419)
(0.800854669717 0.0132052324127 -0.0174127536038)
(0.801525162375 0.0153470730446 -0.0214416035556)
(0.764980915079 0.00325139277459 -0.0105078933564)
(0.76324881555 0.00593811059649 -0.0146025133358)
(0.798338829588 0.012748025155 -0.0161820052869)
(0.804445796639 0.0156036021656 -0.0219900685658)
(0.766025535485 0.00374608234903 -0.0125537224994)
(0.802927526974 0.0134216700332 -0.0167150835028)
(0.808377417285 0.0145822796858 -0.019673640888)
(0.764766580722 0.00591353575484 -0.0131757767776)
(0.768047384672 0.00412178893513 -0.0118354415397)
(0.806706625177 0.0153705923379 -0.0203491205269)
(0.804555143548 0.0128715143172 -0.0165843430762)
(0.767299001191 0.00393349539992 -0.0115507462254)
(0.813832763273 0.0203054897649 -0.0228360887491)
(0.806059746561 0.0183286276746 -0.0198478357047)
(0.761520855399 0.0121188641334 -0.0159620346735)
(0.763808879125 0.00841246642551 -0.0144312155179)
(0.812003230605 0.0211872026285 -0.0241123217749)
(0.808203727154 0.0177665517963 -0.019821162114)
(0.762964226739 0.0115999057159 -0.0153020373858)
(0.81710417346 0.0212769824669 -0.0193902175189)
(0.822879098575 0.0243498023756 -0.0211699897508)
(0.764755446783 0.0139931800944 -0.0161472311142)
(0.766400682217 0.0162874497065 -0.0138435417191)
(0.815550002168 0.0225367114116 -0.0206384673656)
(0.765543744302 0.0131170287844 -0.0148375218006)
(0.823650208518 0.0225297620489 -0.0193259091177)
(0.815209956386 0.0188584406936 -0.0201996104929)
(0.811505236801 0.0157496120952 -0.0173469651727)
(0.765551856203 0.00768496839684 -0.0130888572374)
(0.766314310179 0.00918738549211 -0.0128164647056)
(0.810052013317 0.0169359248549 -0.0180848628873)
(0.816411289494 0.0171435795761 -0.0190322323887)
(0.765167028675 0.0100983976024 -0.013714818976)
(0.818138011999 0.0196359791516 -0.0167020328701)
(0.824674985834 0.0184782455074 -0.0146013233177)
(0.768583914633 0.0137808579472 -0.0125621823886)
(0.768522077606 0.0105201746145 -0.01241891878)
(0.819109272311 0.0177630429043 -0.0156583161763)
(0.767402920267 0.0114716698693 -0.0133210050555)
(0.824362995885 0.0206356027176 -0.0161572295774)
(0.818053354842 0.0138379219593 -0.0176681364189)
(0.812509648397 0.0143596584726 -0.016350451541)
(0.767671564746 0.0076636677032 -0.0122352191894)
(0.768072632427 0.00602083935415 -0.0123138362859)
(0.817269645456 0.0153680096458 -0.0177738731729)
(0.813342301582 0.0129097401137 -0.0164346576577)
(0.768555403816 0.00699965416595 -0.0122790220922)
(0.825039648427 0.0165035996977 -0.0131668826511)
(0.769592288493 0.00885735329537 -0.0118047498918)
(0.819611360677 0.0159561910612 -0.0145198035356)
(0.817717534442 0.00521534714605 -0.000451767794561)
(0.81872692901 0.00369359069463 -0.000462284617984)
(0.819161592172 0.00177721858217 -0.000472633842232)
(0.81651859463 -0.00107589919562 -0.000164837436018)
(0.810079830586 -0.002253791049 0.00027610708306)
(0.832732451634 -0.0485931595347 0.000604831735643)
(0.818256135931 0.00542646786076 0.000465668539775)
(0.818777740958 0.00354764104307 0.000605045501276)
(0.81923386787 0.00242673791643 0.000592502493549)
(0.817168214287 -0.00112434220086 0.0016291864063)
(0.810882534126 -0.00283489406803 0.00370110836143)
(0.83573293597 -0.0528521085476 0.00473164338222)
(0.818489210974 0.00602666250558 -0.000227820641617)
(0.813570343352 0.00610635233495 0.000930202320787)
(0.78810228509 0.0106203645497 0.00287544576749)
(0.78375784029 0.010988165404 0.00244143888837)
(0.781085287138 0.01276508015 0.00148743667159)
(0.774132162785 0.0158938889662 0.00121959863601)
(0.782060719976 0.0187137607105 -0.0133467126003)
(0.720636327333 -0.0214024672081 0.0269711543613)
(0.828667040843 0.00574153888261 0.000201065631139)
(0.825277383301 0.00342592159926 7.205525578e-05)
(0.819653825303 0.000516013108728 -0.000854709154923)
(0.817202713676 -0.00127491814261 -0.00287120240883)
(0.816226399048 8.95269784919e-05 -0.00324230686401)
(0.817696680296 0.00292429254703 -0.00243769384033)
(0.812133790282 0.0082000434559 0.00107686450181)
(0.83746534505 -0.085159166973 0.0137711574561)
(0.821727488663 0.00713424342028 -0.000873072738327)
(0.823178312869 0.00538203482169 -0.000895239102921)
(0.822570184948 0.00384478549571 -0.00123236678592)
(0.821198160548 0.00334692349706 -0.00189101728021)
(0.819590510846 0.00293583915386 -0.00134490292482)
(0.819802436005 0.00233471475671 -0.000344908640716)
(0.813421605764 0.000763651496534 0.00152098298326)
(0.841102493626 -0.0677713168185 0.00496263021577)
(0.817809410439 0.00799988365969 -0.000567410693455)
(0.820391614463 0.00492446046125 -0.000428992144293)
(0.820594729634 0.00295135288958 -0.000669425263808)
(0.82004832 0.00155250730244 -0.000753317602687)
(0.818662124033 0.000801881513878 -0.000902860359577)
(0.818718955666 -0.00054087139221 -0.000291126221028)
(0.812001600104 -0.00196870903167 0.000899934083736)
(0.837717624164 -0.0691341920142 0.00265196471371)
(0.818153105104 0.00124696198795 -0.000656570510963)
(0.817869076197 -0.000183470505878 -0.000201611661091)
(0.810978412309 -0.00179353767109 0.000599514635813)
(0.835773613651 -0.0531632173391 0.00133352455102)
(0.641403292126 0.0413041852305 0.0112479850668)
(0.636024607648 0.0399177183822 0.0163702558691)
(0.645065794623 0.0249084073522 0.0206552630543)
(0.642445441751 0.0213190799537 0.0156286153656)
(0.640630022651 0.0224605963016 0.0143541066011)
(0.619714905384 0.0259373189942 0.0159197789221)
(0.68099140371 0.0408579925141 0.0132712079712)
(0.335238619121 -0.0867430281289 0.0587064056986)
(0.77577588432 0.0135314706952 0.00781914506466)
(0.770394391892 0.00940753231778 0.0085053562685)
(0.775129314811 0.00337267079592 0.0124571693092)
(0.77241360598 0.00216507388399 0.0126327259967)
(0.772528088676 0.00319540945028 0.0131041219916)
(0.774753357309 0.00519898432286 0.0162863043168)
(0.780742350451 0.0308454466031 0.0261453451268)
(0.81001425179 -0.167216844239 0.0423214148291)
(0.823271194446 0.00742076860189 0.00094718184689)
(0.822871774861 0.00602358911509 0.000884852420649)
(0.821927667872 0.00581344615129 0.000583188509922)
(0.820682758065 0.00659458057426 -2.23514256545e-05)
(0.82075739956 0.00658602846909 0.000722840201923)
(0.823118877789 0.00546016419333 0.00335641216571)
(0.818327989146 0.00261149619976 0.00916199778377)
(0.873556012705 -0.113454092754 0.0139121833283)
(0.818828480715 0.00850663317413 0.000557485876333)
(0.820673474469 0.00516028102122 0.000683763142218)
(0.820473875472 0.00323125658212 0.00052348328782)
(0.819675229522 0.00289769198832 0.000520158189138)
(0.819057807534 0.00198741206221 0.00130068858494)
(0.820721910197 -0.000240900769523 0.0032162858163)
(0.815013923157 -0.00284535834962 0.00687833105361)
(0.849444565852 -0.0874219554965 0.0097629878498)
(0.81847879667 0.00157832819414 0.000724647597408)
(0.81893742622 5.68283819855e-06 0.00197631861483)
(0.812539932214 -0.00242824333018 0.00451103727284)
(0.841370039898 -0.0626540401134 0.00585034197978)
(0.637020510194 -0.0157605720402 0.0208517516223)
(0.629987916832 -0.016535140372 0.0239422743285)
(0.63486366819 -0.0206190580944 0.0249306418591)
(0.633556192483 -0.0196913689346 0.0221652774884)
(0.63377942884 -0.0161610654296 0.0193217427561)
(0.624845768381 -0.00633561183676 0.0223734032403)
(0.683991599542 0.0314801923326 0.0520365431786)
(0.471575683811 -0.324432112555 0.0136823804622)
(0.738696922715 0.00487875399574 0.0239139334568)
(0.732228709133 0.00075209751578 0.024862746254)
(0.78206173337 0.000295230761057 0.00943525500637)
(0.78144836937 -0.000168243636684 0.00907402183148)
(0.783455264067 0.000885252417115 0.00931749514314)
(0.79188120258 0.000947936136891 0.00938695498387)
(0.804954818969 0.0192297228731 0.0102025435621)
(0.88047359977 -0.187560349054 0.00173262423048)
(0.824682011715 0.00674448182315 0.000128930008328)
(0.823060308547 0.00621451711986 -0.00015038483643)
(0.822249767469 0.00398759373497 -0.00126894293404)
(0.822086251015 0.0022404660523 -0.00196012052832)
(0.82308820964 0.0017623100915 -0.00145672002965)
(0.828261193757 -0.00175953236979 -0.000920646111058)
(0.823359869544 -0.00658449487919 -0.00135029898461)
(0.899984423454 -0.15818298769 -0.000982635713746)
(0.817973604694 0.0114953548197 -9.35282153165e-05)
(0.819406918298 0.00788917371194 0.000767752193929)
(0.821211214851 0.00514911027599 0.000683268231529)
(0.820841318864 0.00291671251776 7.55123095518e-05)
(0.820763548852 0.00214584366391 -4.96642243171e-05)
(0.820900772957 0.00127269650605 0.000532105535641)
(0.823918129069 -0.00191148055318 0.000864614407419)
(0.818697315543 -0.00564642389663 1.93967665959e-05)