/*--------------------------------*- C++ -*----------------------------------*\
| =========                 |                                                 |
| \\      /  F ield         | OpenFOAM: The Open Source CFD Toolbox           |
|  \\    /   O peration     | Version:  v1906                                 |
|   \\  /    A nd           | Web:      www.OpenFOAM.com                      |
|    \\/     M anipulation  |                                                 |
\*---------------------------------------------------------------------------*/
FoamFile
{
    version     2.0;
    format      ascii;
    class       volScalarField;
    location    "3.2";
    object      p;
}
// * * * * * * * * * * * * * * * * * * * * * * * * * * * * * * * * * * * * * //

dimensions      [1 -1 -2 0 0 0 0];


internalField   nonuniform List<scalar> 
28582
(
17113.5955257
17114.2614212
12216.3599553
12217.1455762
7320.10925519
7321.25291971
3647.5806889
3649.87682475
11.0550728908
11.5926593136
-26.9782614191
3648.88573198
622.286693416
623.756325225
3650.34750366
3650.60864871
624.155646729
1815.44435564
1815.66160817
17111.7052497
17114.3529991
17113.6813389
12214.0212691
12217.1235286
12216.1760603
7317.02864221
7321.13231427
3643.58863215
3650.50152332
12.0071591807
-27.0714054235
-26.9745734051
3644.59067233
3645.42833948
617.194263624
620.121103226
1809.46588196
3650.31178677
3650.51197395
3649.96023035
1815.51313485
626.624004354
1815.61408911
1814.63177543
11.2415638506
11.0982363789
-23.2318369726
-23.244166296
11.3616832885
-23.2588755396
1811.58631351
1812.77588222
622.801239483
622.150588788
1812.01600839
622.82518274
1812.38311114
1813.49292206
1813.84480834
623.238714283
623.678322585
1814.11415065
623.325035746
1813.12818824
1814.94234476
1814.38081516
624.443542403
623.986973779
1814.55433772
624.314736885
1814.79184101
1815.32923817
624.868546545
624.922099597
1815.25256978
624.631248456
624.596645353
1815.09566537
1815.80690127
624.98393807
624.921758039
1815.55122979
624.411161518
1815.68483742
624.593409239
10.870169021
-23.2788597065
9.1534609867
10.5256244343
-23.2553320374
-23.264029446
12.1178392414
-23.2204877201
-23.2256427653
13.5126285091
-23.19987153
12.8990521259
-23.2046601214
1808.09873657
1807.23736746
618.077498484
617.644679271
1807.80902163
1807.37578031
618.640418077
1808.80206323
1809.14336114
619.085930106
620.553788124
1808.40777909
1809.43065985
619.743773756
620.210432751
621.095468261
1810.26344814
1809.18464554
620.953695061
1809.8349494
620.156641328
1815.47512733
625.1709024
625.252768947
1815.44193703
625.477698444
1815.50771555
625.691554837
1815.26114278
1815.53020037
625.886045281
626.649088782
1815.49152761
1815.05647406
626.118690091
1815.2267991
1815.70931293
625.422388919
625.474259013
625.814939495
1815.34568658
625.784152616
625.9411028
626.172226002
1813.98559624
1814.9571685
626.478395264
1814.49837777
626.102695091
7319.40135958
3649.60577189
14.6282842042
-26.960085846
3646.70279683
622.075783727
3649.01214208
3647.26809515
627.574523568
626.48639162
629.99055937
3644.40758984
3640.53297473
631.05067891
628.891443369
11.4550893823
15.4242595571
18.0349842205
-23.1610059703
-23.154447594
-23.1027974493
20.9373857044
23.5227307111
1811.40310912
1811.12545896
621.647655318
622.586313422
1810.50476134
622.439870416
1811.93080466
1814.22336291
1815.47344137
628.635068013
627.440304382
1815.09211352
1814.78588884
628.307364585
1813.4822862
1813.39615101
627.104878942
627.40139478
1814.04557882
627.912453157
1812.8968615
1812.71995007
1811.72971697
630.089484239
628.817910861
1811.59826374
628.999232406
1812.46165075
1807.0934595
1810.22528998
630.784604219
631.186818451
1809.76700612
630.680021421
1807.52130101
1803.73565036
1799.84517172
628.768538409
630.127619604
1799.96946868
629.931437104
1803.83257196
3650.99575973
3645.59368767
3643.90764793
3641.75263976
-2.07787870454
2.20101585383
-2.76483685958
0.290496218994
0.876468449296
-27.000793646
-27.1160093195
-26.938689881
-27.0381369273
-26.9412839323
-27.0385786023
3651.78822434
3650.95968826
612.608777971
610.818674117
3654.16133957
612.287005449
3649.11695417
3646.96764756
609.882650664
607.513694007
3651.58851367
3647.93757215
3647.75835898
611.321973065
614.720349878
608.490024688
610.691418163
3645.59537207
3641.70230572
615.070205846
610.630782096
610.403772409
608.89427148
3645.2969582
3643.68298825
607.785129762
609.687516388
608.44851716
3641.53563091
3642.72975221
3641.2339478
609.455518185
608.536237658
608.013972514
608.257581475
607.881265937
608.383722776
-0.639524206909
-1.68139893208
-1.11562576931
-23.3706595102
-23.3375695017
-23.3479600569
-23.3169023124
-23.3146335378
-23.2989483069
-23.3010701032
-23.2893704692
-2.6239774338
-3.09513722179
-0.356019577977
-2.66508037996
-1.25752678691
-23.3245073793
-23.2928399987
-23.3472012785
-23.3040712765
3.81606612403
0.954346506614
2.49990409457
-23.2785188355
-23.2707914902
-23.2772330534
-23.2626880156
-1.68170506833
-1.52776802137
-23.3467490202
-23.314548213
-23.3224548584
1.91090461079
0.256073175621
1.87978517899
-23.2864556615
-23.2652593436
-23.2967720717
-23.2763881972
1814.03507644
1815.946531
611.285147165
612.092082706
1815.90876392
610.98601807
1814.07313377
1813.73552987
1814.96773962
611.488420434
609.572588643
1815.54359996
1813.32084855
610.354673241
1818.42197781
1816.36758744
612.855904398
612.963881715
1817.15411468
1817.26202622
614.683511506
1811.81476331
1814.09517457
608.729902019
608.88833972
1812.64549594
1813.03268228
608.054922302
1810.9432193
1810.93387543
608.035912842
606.620183408
1811.97038522
1809.99835686
607.466904492
1814.72596208
1815.33104217
611.825407935
609.897927068
1815.96319396
1814.02925324
611.589918217
1814.49553524
1815.29058023
612.575974376
611.643762337
1816.03806421
1813.35771291
612.705820394
1813.26074018
1811.58537454
608.839733071
608.722145787
1812.7558417
1811.8798193
610.381951133
1812.89516531
1810.67698236
610.351402282
609.54202849
1811.84325337
1811.67815711
611.306567656
1809.02143303
1813.45386263
611.866072215
611.52327869
1810.53998321
1811.64888122
612.561105397
1805.98333995
1802.8923102
610.122973695
608.325757675
1806.93464019
611.781235006
1803.03487572
1807.79428603
1808.85443771
610.362652621
608.547271164
1810.17246096
1806.9428476
611.213880287
1805.38007871
1803.03701254
608.04668876
608.3255551
1805.23203074
610.569557156
1803.16653485
1809.71713668
1810.48482434
608.067856518
606.923512195
1810.72805962
1809.47279047
608.008719407
1809.38894054
1809.5541635
608.818588762
608.210737075
1810.52735687
1808.74075853
608.462219237
1808.59696574
1807.27110994
608.138638025
608.141124717
1808.11475895
1807.99419257
608.090349082
1805.79199122
1807.95545933
608.142087285
608.817672286
1806.3271324
1807.71520439
608.943388429
1804.26130332
1803.1394699
608.050371401
607.840378671
1804.8481212
608.29952274
1803.46520965
1805.33462211
1806.03348101
608.747533847
607.871778422
1807.19267771
1805.05488713
608.604415273
1803.96595638
1803.08486703
607.863334018
608.417153492
1804.21100607
607.995870723
1803.38975102
1803.80265247
1805.37722155
608.030036711
609.015187522
1804.56753992
1805.28346218
608.293899724
1802.96006593
608.570176511
1803.91108881
17112.5625771
17113.5849763
17113.9785804
17112.3562405
17110.9242383
17110.0879211
12215.2268762
12216.4421285
12216.7560908
12214.3915317
12212.3690182
12211.6192354
18322.4852368
18328.9659312
17107.7288137
17111.5782338
17112.766761
17111.7373037
17110.3900657
17108.4455799
18324.9589976
18331.874034
17111.7328705
17113.0369692
17112.9353705
17111.8771388
17110.6095856
17108.6623794
17107.1688692
17109.3621512
17111.6801797
17112.762463
17112.6858027
17111.8075713
17110.6037823
17108.8616207
17109.736949
17111.0442996
17112.8016393
17113.5825824
17113.1799654
17112.0926796
17110.7096372
17109.2989558
17113.4135414
17112.2112462
17110.8113545
17109.7285413
13421.7339894
13428.2120062
12209.4924703
12213.5031408
12215.2103687
12214.0669902
12212.0769311
12210.2350511
13426.5370427
13431.6669094
12215.883229
12216.3717329
12215.6870058
12214.1725418
12212.2374766
12210.5111257
12209.2194044
12212.0876685
12214.2637044
12214.9763964
12215.0278175
12213.9449839
12212.2131565
12210.5796639
12212.0871399
12213.6801875
12215.6173473
12216.3630661
12215.7906819
12214.3393212
12212.3420315
12210.9205679
12216.0093347
12214.3742526
12212.3435878
12211.3169627
8522.15290736
8530.30149017
7315.07999338
7318.31096892
7319.02700486
7316.55163493
7312.53184855
7308.28668198
8527.51878525
8534.00365899
7316.89959842
7319.2969166
7318.91201583
7316.43914609
7312.58496235
7308.36746405
7312.08600249
7315.35662996
7317.85995294
7318.75927075
7318.48346684
7316.37389588
7312.52551958
7307.98908618
7314.26218204
7315.11992706
7317.13536624
7319.33610728
7320.12479833
7319.24179034
7316.79369626
7312.52209885
7308.32865335
7318.80082746
7320.45676586
7320.79660058
7319.53766652
7316.67924555
7312.38102787
7309.51657262
7316.27994612
7312.20115724
7310.35307073
3627.56339994
3634.68165419
3642.23573493
3646.20540936
3647.5710184
3646.72654605
3640.13449954
3635.18763533
3625.7142239
3630.84325641
3638.23519595
3643.49991331
3646.88911867
3647.78329283
3646.38427282
3640.07187978
3635.59061008
3639.22085285
3635.97520367
3636.99286569
3641.91817583
3645.47069603
3647.1643071
3647.86419209
3646.25285103
3639.37948473
3634.4814914
3640.27199233
3641.59713438
3644.33916366
3647.0979219
3647.98485384
3648.4901253
3646.88590454
3639.03769283
3633.69528311
3645.79568968
3648.51103735
3649.76789908
3649.95604381
3646.63967104
3638.48215197
3634.85677312
3644.89676146
3637.68118754
3635.49131833
11.1481173054
12.5775542217
12.9640452355
13.1934451493
13.2188432993
15.9017747728
25.3278868211
34.0902797079
4.12014690109
5.3560358205
8.85167064303
11.4642196238
12.039186457
11.957924582
12.2150858486
15.9204860173
25.4234804206
33.9255493549
2.95729397878
4.53248546114
6.85286466341
9.72124288399
10.9802396674
11.8705292523
12.7022388264
16.8860169396
26.2471174835
34.4654838514
4.90554713487
6.70752819408
9.71069910231
11.7599538724
13.4046538234
14.0201907425
18.4497601768
27.1317450384
34.5384577523
11.4919194507
11.5532427573
11.735846537
13.295209485
19.4732017298
27.1308691186
32.8865050767
20.6089845019
26.6082797174
31.6069707788
-27.0395211094
-27.0210527795
-27.0231395009
-27.0176476974
-27.0156935841
-27.0234892124
-26.9755038351
-27.0142857592
-27.124587672
-27.6690698458
-26.9930896937
-26.9893500753
-27.0048513812
-27.0165682532
-27.009996007
-27.0124606687
-26.9751372345
-27.0222787811
-27.1438838262
-27.683244056
-27.0123884284
-26.9710010131
-26.9884677799
-27.0007116909
-26.9936398867
-26.9950066847
-26.9779809961
-27.0233946713
-27.1372198464
-27.6240853954
-26.9733135498
-26.9973668696
-27.0049351946
-26.9903569844
-26.9889716668
-26.9837741082
-27.0175296306
-27.1303951374
-27.6030238487
-27.0330489915
-27.0014099856
-26.9886996317
-26.9852486865
-27.0096829645
-27.1312211477
-27.6020583504
-27.0025977116
-27.1120253216
-27.597675659
18325.6777343
18322.8891534
18326.9079944
15872.1851294
15875.21099
15872.9195774
15875.7600309
18331.9704925
18330.4569205
18332.8698012
15878.6532273
15880.3796023
15879.3570148
15882.331356
18328.6834599
18327.506475
18329.8462514
15875.5921204
15879.0715326
15878.0243345
15880.682912
18333.5506091
18332.4410335
18334.1250555
15882.0289045
15883.5642534
15883.1743214
15885.1898311
13424.9077964
13423.1466423
13425.6760152
10971.1865142
10975.022186
10973.2010492
10976.481626
13430.8636555
13428.844171
13433.0773518
10978.9734393
10980.5329765
10979.7969385
10983.2034309
13428.858643
13428.884543
13431.5022753
10976.7612783
10979.0957213
10979.8841165
10982.1244145
13434.2238266
13434.0699041
13437.0202574
10982.3444866
10984.8453389
10984.8206192
10987.4915101
8526.27060203
8524.35817313
8527.89545812
6074.16986819
6078.29463419
6076.14680551
6079.53775761
8532.46715486
8531.52631155
8535.35374442
6082.02948937
6085.71281337
6083.29733175
6088.20186295
8530.35048518
8531.11926638
8533.42755082
6078.9272783
6082.22055289
6081.84808769
6085.27643097
8536.49571375
8536.47593638
8538.67929393
6086.0009579
6088.82224766
6088.65989089
6091.1538554
3623.26082414
3625.18679261
608.753294349
608.73341333
3631.16981661
3629.03705108
3632.41689109
611.435642515
615.991696829
611.073932627
615.746800348
3638.53559901
3635.99803204
3639.63605851
617.200913774
620.712994857
617.087719611
620.474959836
3645.14079982
3642.64122299
3645.23128262
621.45891506
623.47814386
621.303764964
622.721266976
3647.00477246
3646.37133939
3647.07708785
623.869301808
623.912070589
623.029252913
623.334846254
3647.79439717
3647.56631057
3647.6766002
624.041426562
626.798521063
623.477749481
626.274113984
3643.76305689
3646.51787668
3643.58393168
628.778840645
632.190432651
628.212971742
630.64747719
3636.88236727
3640.20133823
3637.15575092
631.163215677
631.236864694
630.032297145
631.920934937
3634.32136788
3635.60221205
3634.52601473
633.360226591
618.590640369
634.082469273
619.101001795
3637.42342826
3634.0214052
609.604466516
604.318148903
608.592349176
607.993776884
3627.25294114
3631.57847695
3631.39960457
604.983618672
608.999281996
608.447997927
610.281281112
3634.75620682
3633.75337995
3637.21447417
610.928939641
615.560386988
611.451588097
615.867900635
3640.92478824
3640.26502521
3642.68965357
617.100584518
620.54369341
617.365366413
620.545284728
3645.72045712
3644.68587161
3646.17519847
621.270752377
622.520023873
621.116380859
622.425293122
3647.38737168
3647.07456961
3647.60156835
622.782614236
623.188797639
622.689203533
623.221137602
3647.71521113
3647.89861708
3647.7364293
623.414729299
626.31057625
623.54283531
626.819744368
3643.37926277
3646.24048222
3643.24123803
628.30205589
630.372831897
628.724123556
630.679848205
3637.10654017
3639.83571962
3636.65300117
629.758446461
631.912842984
630.015671717
631.69420355
3634.65328484
3635.08384874
3634.55082981
634.148548879
619.222484125
634.001938941
619.686751922
3637.37747305
3639.96242228
3639.14141727
608.55645428
608.605215224
608.251266398
610.220396344
3635.71363506
3638.67763512
3638.86972781
609.178249259
610.876354265
610.573599259
612.514995371
3639.30954259
3639.78157725
3641.28106595
611.963816386
616.100482602
613.505302144
617.206781594
3643.9541531
3643.25124768
3645.01850232
617.531678674
620.611486559
618.340077551
621.467428266
3646.5514329
3646.36278159
3647.11413351
621.274339454
622.760905718
622.277040593
623.467568086
3647.54659433
3647.40658449
3647.61884268
622.912678699
623.363527542
623.545752747
623.851867869
3647.7263799
3647.95347143
3647.91955474
623.721551559
627.158444947
624.315219095
628.337582779
3643.1616927
3646.48933023
3643.29915937
629.098790009
630.993886331
630.587089484
633.016369955
3636.02404956
3639.19129657
3635.57793378
630.222680134
631.474469742
631.617873358
630.276193007
3634.35603417
3633.9303189
3633.94392309
633.79518602
619.634990625
632.395022479
619.050561058
608.591082667
610.834841215
3640.83219847
3641.96458956
611.254555712
613.261721017
615.479402322
3642.69568523
3642.88439223
3643.91064242
614.162742824
617.777958678
616.324532454
619.526532864
3645.8911788
3645.16412953
3646.60075862
618.727095995
621.900153366
620.649773827
622.812278192
3647.77334814
3647.83240098
3648.62113825
622.68271177
623.929741858
623.533878827
624.660920596
3648.17053354
3648.97232793
3649.22043658
624.02117814
624.323005809
624.927786578
625.564056161
3648.45692452
3649.37327954
3648.98516474
624.844357825
629.08898296
626.241683871
630.955881727
3643.47275305
3647.00783203
3643.34324268
631.43749267
633.497852078
633.087998677
632.745075048
3635.23599093
3638.93072181
3635.40650053
631.769816393
629.911527552
630.598404376
630.163759813
3634.14836236
3634.16742648
3634.77871926
632.124278982
619.107792197
632.440165759
619.496124742
3647.28868467
3648.12981484
621.210043271
623.035806545
623.627149193
3649.32398871
3649.31130589
3649.94822144
623.564453056
624.514137402
624.007434577
624.735273071
3650.02021054
3650.31333996
3650.40906608
624.807786197
625.809564902
625.010460758
626.35168427
3649.0774024
3650.04904514
3648.63009904
626.629239405
631.415949249
627.405206774
631.05495884
3642.66736898
3645.80293745
3641.73516488
633.174733947
631.781877331
631.464727128
629.248529969
3635.72454152
3638.10119839
3635.98109387
629.807509186
630.558454008
628.505726482
631.276197965
3635.87979502
3635.57522274
3636.78852542
632.956574887
619.757933619
633.643341793
620.388949713
3647.86531717
630.569197727
3640.91209289
630.866164339
628.942136469
3635.85330963
628.340257257
631.123290832
3637.00419609
633.492826207
620.275567358
-23.2803872591
-23.2783101204
-23.2818148087
-23.2913058833
9.3490563278
8.25381369159
-23.2740377932
-23.2568753399
-23.2616476915
-23.2504039301
12.0318743849
10.2063901187
11.3685066186
-23.2608356914
-23.2727453239
-23.2627234509
-23.2741691876
13.0461331442
12.0773901704
12.5327261546
-23.2758531004
-23.281019948
-23.2742970752
-23.2759654622
12.8909399133
12.5918350173
12.4887290608
-23.2738809562
-23.2625644962
-23.2690580712
-23.2578506808
13.3130293651
12.46978871
12.5187307646
-23.253149563
-23.2458459313
-23.2472625804
-23.2376652545
13.6952700462
12.6158620111
13.4134998861
-23.228754882
-23.1905887129
-23.220266189
-23.1916649699
20.1817576975
15.8529651259
20.0336099184
-23.1461780458
-23.1082125501
-23.1528406682
-23.1105866821
30.6945901444
25.2407815689
30.6523497168
-23.0686348018
-23.1112284063
-23.0634242174
-23.1009521452
35.5932140156
33.8815542838
35.8757932608
-23.2077607303
-23.1276000254
-23.2006160391
-23.1086996764
4.43224501229
3.3425591958
4.1009106963
-23.2726819045
-23.2747123789
-23.2584516252
-23.2591483522
7.08508665504
4.87801055152
6.14370726587
-23.2580028237
-23.2585831117
-23.2585316503
-23.2568913936
10.3042708545
7.64781609349
9.2644740876
-23.2601588985
-23.2628760291
-23.2560188688
-23.2644743366
12.0370536853
10.5634706352
11.249817674
-23.2693625229
-23.2753481351
-23.2700652686
-23.2746317671
11.9190384758
11.2983733743
11.4523750835
-23.2685593019
-23.2539427272
-23.2603378844
-23.2494225021
12.0343855024
11.6004149057
11.7727848251
-23.2441491919
-23.2318537159
-23.24240677
-23.2297338173
13.2150972488
12.1366722632
13.3673083108
-23.2152595083
-23.1880712163
-23.2099660068
-23.1839808945
20.1999690777
16.2495419459
20.5774437186
-23.1479914459
-23.1047091488
-23.141312339
-23.0943944641
30.7349776692
25.7422254416
30.9383764962
-23.0469559829
-23.0781286377
-23.0368611031
-23.0684234413
36.143795217
34.1443062271
36.2705810954
-23.1900133171
-23.108730744
-23.1965716201
-23.1494966804
3.65854625113
2.90507896012
3.69451193853
-23.2601275756
-23.2567782727
-23.2598650712
-23.2591656575
5.48508856619
4.25294746392
5.08503436101
-23.2572297067
-23.2544424121
-23.2578293675
-23.2533597942
8.38143473526
6.40591799854
8.02951386194
-23.2571127321
-23.2633764405
-23.2527306997
-23.2638119713
10.5315875248
9.31327850924
10.312105642
-23.2673417258
-23.2679919945
-23.2654130408
-23.2648056808
11.485335602
11.2714573802
12.176029484
-23.2548373593
-23.2483148741
-23.2580537408
-23.2454232869
12.2786186085
12.8301402388
13.2375788662
-23.2420738547
-23.2283061663
-23.2311736527
-23.2173657623
13.9578016301
13.5819321401
14.7785952486
-23.2076268162
-23.1724179277
-23.1997317819
-23.1603534931
21.2347993324
17.6919549907
22.0226683475
-23.124872629
-23.0848968644
-23.1133128723
-23.0738030259
31.2771302061
26.7454257578
31.5157625276
-23.0282881862
-23.0629738983
-23.0238171461
-23.058938722
36.3346838323
34.7055943638
36.3476174027
-23.185710634
-23.1585225685
-23.1794660309
-23.1706928409
5.54327569745
6.69309038352
-23.2558871181
-23.2512250425
-23.2483614079
8.39813773468
7.70541148333
9.29670611189
-23.2499538579
-23.2586075738
-23.2471397761
-23.2573364562
10.830793126
10.6756241072
11.327415184
-23.2563503724
-23.2516273529
-23.2596732724
-23.2588870077
12.7292636553
11.813256045
12.3719185925
-23.2481046575
-23.2394486289
-23.2516691753
-23.2426830808
13.685744892
12.834037702
13.1137169341
-23.2343327846
-23.2203873849
-23.2354030833
-23.2175213815
15.3330692598
13.7179371084
15.5224711212
-23.2021197227
-23.1613654025
-23.1910171801
-23.1512924663
22.7566751697
19.0227573873
23.1655710231
-23.1096320619
-23.0674649233
-23.094329026
-23.0387275058
31.5638131427
27.2389740256
31.2571420571
-23.01102307
-23.0480567847
-22.9945236133
-23.0373648676
36.0140036809
33.8125333994
35.047839275
-23.1648392778
-23.1630282316
-23.1570830423
-23.1599988225
11.5834157347
11.3562909467
-23.2724179703
-23.2689804475
-23.2742596093
-23.2789561901
11.5716354829
11.229170998
11.3243458275
-23.2589094993
-23.2481829799
-23.2699534679
-23.2538287245
12.1922410265
11.613279961
12.2668682412
-23.2393653302
-23.2208828856
-23.2390584647
-23.2175601183
15.7672223322
13.6858136138
16.4353404131
-23.185716464
-23.1391196994
-23.1768251486
-23.1243325418
23.347945784
19.9364686705
23.5216195509
-23.0679688885
-23.0126349114
-23.0485822726
-22.9968363419
30.5947291999
26.8957794563
29.8777927021
-22.983136783
-23.0310096314
-22.973404061
-23.0154786066
33.8297544042
31.9308619596
32.7858575723
-23.170875766
-23.1724840565
-23.1650739193
-23.1703303003
17.4509789697
-23.1067531919
23.6164554474
-23.0372577974
-22.9928303818
-23.0475063595
-23.0029683415
29.4047631557
-22.9836090693
-23.0352018252
-22.995918988
-23.0477967381
32.2208009505
-23.1862631792
-23.1809227381
-23.1899706021
-23.1775428859
1786.62817809
1788.13296434
605.527606777
608.680549651
1788.68621992
607.008514528
1785.4469715
1787.56514987
1791.01398518
608.658332323
606.029271825
1789.51845494
1788.71031705
606.88844005
1793.34328265
1790.78394561
613.095405879
610.947446211
1791.05485683
613.027709566
1792.97776095
1795.35351096
1796.95611118
614.674694016
615.743802255
1797.01705387
614.504310627
1795.03921635
1793.94943522
1793.24306637
610.860025412
612.718436609
1791.74472356
1795.05709328
612.944866807
1795.89240459
1798.45732235
615.773697856
614.230838534
1797.57131452
1796.74693464
614.505118642
1800.76490669
1798.90942583
618.461568017
616.970987192
1798.91311483
618.174400798
1800.71700644
1802.63769722
1804.51215465
619.722141637
620.614443868
1804.4795315
619.472958529
1802.63740662
1801.28808834
1800.292112
617.011277902
618.351909854
1799.42299944
1802.07207866
618.171540225
1803.14220752
1805.4638743
620.533246076
619.468877399
1804.95639373
1803.80378658
619.41671837
1807.80536872
1806.1091821
622.323462753
621.468931133
1806.10818098
622.298000046
1807.79223136
1809.08204211
1810.07944487
622.937312258
623.520606899
1809.91988221
623.049704971
1809.11884451
1807.87766993
1806.78065044
621.386077047
621.927413603
1806.42837868
1808.0288477
622.14843044
1809.00866006
1809.82753884
623.126383589
622.31003962
1809.88449758
1809.01521173
622.757020486
1810.6426567
1810.52950712
623.924256329
623.835471497
1810.43056808
623.885804052
1810.62733768
1810.83669036
1810.85367447
623.852408386
623.744994747
1810.96795807
623.873434262
1810.6874432
1810.72964664
1810.34249929
623.352003484
623.154264443
1810.39708936
1810.7247842
623.454695899
1810.97290044
1811.36111248
623.457541913
623.258484285
1811.16587835
1811.04209527
623.522489357
1811.92973621
1811.23777828
624.419250088
623.676477701
1811.28987174
624.268084676
1811.81577324
1812.74356416
1813.48117142
625.213590768
626.50092164
1813.45426275
625.229547925
1812.58709305
1812.02086625
1811.70321023
623.448121863
623.892783745
1811.45262454
1812.11100288
624.06765704
1812.73368407
1813.27064049
626.299083608
624.69258599
1813.33951199
1812.66367353
625.066828512
1812.89474437
1813.88652289
630.674487908
628.413180164
1813.72928571
630.274284214
1813.23642544
1810.42796319
1807.18503286
632.243486853
631.587607272
1806.89912455
631.514084629
1810.93249052
1812.48763698
1813.30514225
628.186853728
629.677613205
1813.48602444
1812.15242896
629.88899684
1809.9533471
1806.11932091
631.044899481
630.666340922
1806.56983211
1809.55715699
630.937652153
1798.78719468
1802.87501328
630.538629472
630.945245855
1802.95327389
630.486300773
1798.49222932
1795.90392087
1793.74995398
630.41856391
631.496260443
1794.25588539
630.441353679
1795.48190789
1798.95392701
1802.44164584
630.599616278
630.31431284
1802.85070891
1798.89114395
630.40179873
1796.30140092
1795.05617631
631.744364771
630.928435953
1794.71546111
1796.57329779
630.635817508
1791.19738847
1792.55403062
636.275212518
633.826935516
1793.11429148
636.604323336
1790.81723809
1787.68628699
1789.41923161
639.531725065
618.900558064
640.023312868
1789.17194915
1786.7773561
1791.60478289
1793.79460066
634.046004639
636.980811973
1793.5716736
1791.85293743
636.849719809
1788.24485053
1788.86338742
619.163653776
640.462293169
1788.50692879
640.203365173
1788.8384996
1796.88107282
1799.14182667
606.114049568
606.86213033
1795.05890291
607.316473177
1799.89417794
1794.80381629
1789.46425692
603.708342725
605.481326328
1791.48569426
1792.86794469
606.658020228
1798.65618326
1801.58558352
606.710525854
607.590294554
1800.18212325
607.69156479
1800.90305858
1797.18207201
1797.78957334
606.674348156
607.128869988
1795.58032885
1798.7077504
607.775957494
1791.9481587
1789.0404112
605.376101295
604.974579197
1789.39378849
1791.64892524
606.648122188
1792.98941005
1792.4994464
606.579700223
609.222402483
1790.55660277
1794.2095155
608.225647509
1794.5056783
1797.15968745
606.254677807
608.338295042
1794.41501041
1796.77546599
607.687660224
1795.12477226
1797.80200329
609.660961584
609.096179114
1795.93606174
1796.96994922
608.862149576
1797.36612905
1794.362547
612.470124284
610.790495938
1796.00588725
1795.73761536
612.515268578
1798.91778699
1799.36744689
613.990731082
615.591259256
1797.64797833
1800.4684707
614.084203797
1798.65961385
1798.85710803
610.934102955
612.780364709
1797.16509803
1800.0795338
612.563235486
1800.15095708
1802.89904393
615.740277194
614.364843309
1801.62383916
1801.47164862
614.203563979
1803.81158941
1801.1715387
618.421059774
617.098876478
1802.87496031
1802.16568828
618.485783902
1805.25479219
1805.93486901
619.568770792
620.504256878
1804.45624041
1806.5407046
619.667392657
1804.76769036
1804.35190404
617.232221316
618.620016703
1803.21337187
1805.70682352
618.566536055
1806.17666505
1807.98437948
620.528417561
619.659848978
1807.33231554
1806.95202645
619.716964752
1808.69766122
1807.17581346
621.842176096
621.041336553
1808.34099971
1807.62944827
621.643615452
1809.57829665
1809.98693593
622.177293737
622.3933497
1809.28017357
1810.229049
622.095242043
1809.15671535
1808.80591156
621.00316054
621.610092528
1808.25941005
1809.62565669
621.52706168
1809.90863289
1810.70390779
622.271670656
622.060642178
1810.47727233
1810.24695531
621.965590081
1810.92508901
1810.4712704
622.906939353
622.629855282
1810.82938857
1810.61503617
622.807966788
1811.29606607
1811.54105814
623.064924165
623.156817539
1811.19530218
1811.68331366
622.991282705
1811.12157556
1811.00632946
622.524345521
622.908907253
1810.83068331
1811.30892313
622.730590752
1811.46395766
1811.90084304
623.122880833
623.050493583
1811.86094102
1811.61231332
622.908152723
1812.47103642
1811.91354098
623.875300079
623.338601291
1812.30190331
1812.05416394
623.890934968
1812.9632537
1813.33555457
624.742009562
626.386945161
1812.81188013
1813.39901843
624.862809977
1812.65285321
1812.26720265
623.406860361
624.230915156
1812.23354712
1812.7043476
624.046742288
1813.11607243
1813.54682822
626.580879385
625.282897687
1813.48493837
1813.15462036
625.071270028
1811.81777163
1813.24286213
629.633305576
628.318261677
1811.96279918
1813.19421587
629.751584924
1808.99591421
1805.75490804
630.437244719
630.281517824
1809.24027119
1805.53372903
630.409193353
1811.76348565
1813.2953096
628.427851453
630.121991024
1813.18466866
1811.83975167
629.853753444
1808.93055511
1805.34424934
630.38360857
630.829098162
1805.40421821
1808.99077791
630.516269899
1798.58729121
1802.09936406
630.126834279
629.95549796
1798.75755825
1802.00795639
630.1259578
1796.24097324
1795.12925034
630.856878449
631.821350344
1796.53075473
1794.98053173
630.606057921
1798.31209353
1801.47866771
630.009373657
630.146213351
1801.80238365
1797.90510862
630.10908069
1795.93200279
1794.24784138
631.742250714
630.70535282
1794.69726377
1795.56094602
630.550060208
1791.93688501
1793.94583757
637.198167922
634.223194173
1791.97265739
1793.90528923
637.356517844
1788.87656231
1788.96353887
640.905149334
619.306795056
1788.68336403
641.256111163
1788.85256215
1791.72799518
1793.1893983
634.137762118
636.992079341
1793.63163862
1791.38650544
637.262775597
1788.73492365
1788.91539687
619.648543292
640.788837084
1788.31428638
641.05687519
1788.86487271
1801.91543906
1802.06338404
607.950522983
607.798051613
1801.24492398
608.551495651
1802.69516915
1801.3711184
1799.49847669
607.50721946
608.899589375
1800.12383549
1800.89296023
608.777059522
1802.40051875
1802.60193656
608.000656867
608.927358705
1802.85917434
608.740703987
1802.7507695
1802.1711818
1802.7347463
609.531621314
609.531887951
1801.97160356
1802.77316339
609.276217618
1800.56746572
1799.14491199
609.21677348
609.309368799
1798.8213413
1800.55547819
610.0346725
1800.79475372
1799.59036598
609.829518011
611.384511985
1798.9489058
1801.23058887
610.722818636
1801.94720636
1802.81842922
609.842789687
611.08469561
1801.80972658
1803.029312
610.542079173
1802.23830895
1803.81823399
611.930507804
611.682718385
1802.65898542
1803.3431063
611.200172861
1802.98553983
1800.44913234
613.249950367
612.395097905
1801.55769438
1801.9679593
613.693569403
1804.05656931
1804.08121163
614.664824371
616.404099935
1802.77978849
1805.20529679
615.038774335
1804.20546802
1804.46234463
612.930835069
614.694717203
1803.30217781
1805.292271
614.191975799
1805.17624077
1806.95276916
616.819389189
616.023805344
1806.1900841
1806.12864948
615.524949276
1807.44213732
1805.39989027
618.747926631
617.761814305
1806.63920524
1806.3794962
618.924955107
1808.40504959
1808.6147458
619.760462099
620.845579877
1807.75019714
1809.20327204
619.908680986
1808.13376188