/*--------------------------------*- C++ -*----------------------------------*\
| =========                 |                                                 |
| \\      /  F ield         | OpenFOAM: The Open Source CFD Toolbox           |
|  \\    /   O peration     | Version:  v1906                                 |
|   \\  /    A nd           | Web:      www.OpenFOAM.com                      |
|    \\/     M anipulation  |                                                 |
\*---------------------------------------------------------------------------*/
FoamFile
{
    version     2.0;
    format      ascii;
    class       surfaceScalarField;
    location    "3.2";
    object      phi;
}
// * * * * * * * * * * * * * * * * * * * * * * * * * * * * * * * * * * * * * //

dimensions      [0 3 -1 0 0 0 0];
oriented        oriented;


internalField   nonuniform List<scalar> 
92311
(
0.201066496924
-1.87267787885e-05
0.000753248979765
-0.201345330439
-0.000455688719247
-9.84653435258e-05
0.200778630562
0.0011346641099
-0.000748357908089
0.201009217678
-0.000100567568246
0.000802044607381
-0.201296902932
-0.000432519425962
-0.000262788895981
0.200699854333
0.00118735619018
-0.000713557221891
0.20081104616
-6.74523294233e-05
-8.20729615755e-05
0.000915838504504
-0.201150660772
-0.000472224567145
-2.64338986509e-05
-2.860588702e-05
-0.000152342018282
-0.000153825695552
-7.03491486196e-05
0.200441989596
0.00127908201443
-0.000725436681166
-7.07795342384e-05
0.0502297722338
-6.68562585472e-06
-2.42887340069e-05
-1.58593599008e-05
-1.32018040072e-05
0.000172284928141
-0.0502761885737
-0.000133278688024
-0.0502100150846
0.0501518415501
-4.71418115525e-05
-4.30640807756e-05
-4.71096436389e-05
-4.34430514036e-05
0.000281498662278
-0.000194907137473
-2.96705745462e-06
0.0327074329349
-2.54659044385e-06
-3.77551272057e-06
1.81855999668e-05
-0.00860836597572
-0.0342466614504
0.00313034614981
0.00700838145513
0.0309248936603
0.00289207473087
0.00300396304133
-0.0301026218523
4.15048979805e-05
4.45103309903e-05
4.00631324836e-05
3.93574314931e-05
-0.00688380512676
-0.00194010769489
-0.00228608708584
-0.00349456453186
-0.0045174001854
0.00305347627382
0.00380296699858
0.00356528594562
-0.0034846961052
-3.39529155739e-05
-2.98872195309e-05
-3.69699720425e-05
-2.55922084102e-05
0.000239712451807
-0.000175592949762
-1.41907077943e-06
0.0124559624949
2.14342240629e-05
-1.56990853913e-05
-0.012463311338
0.0124144405436
-2.22143872131e-05
3.43076841178e-05
-0.0124279817707
1.27222343251e-05
-1.12602613449e-05
-0.000207680688901
-5.12990684516e-05
0.0501030695113
-5.00604431608e-05
-5.18275414035e-05
-4.89201117006e-05
0.000304781784779
-2.84957296375e-05
0.0500944423989
-1.85734873216e-05
-2.90974808377e-05
-2.17096388755e-05
-0.0501464821924
-0.00012804703765
-3.14506046969e-05
4.32366325037e-05
0.0124028624254
9.06384619199e-06
-9.25683981752e-06
-5.35048636356e-05
0.0125192669657
6.39439625294e-05
-5.35248513441e-05
-0.0125274620051
0.0125168765391
-3.21365119783e-05
-4.2316914172e-05
-0.0125242688188
7.39206706305e-05
0.201806470788
0.000207094331287
-6.75655367096e-05
-0.202019920273
0.20063984653
-0.000193744353657
0.00114609360717
-0.000813177428227
-0.000279953664154
0.20061531331
0.00109617716327
-0.000791188707494
0.000210770844243
0.201691739465
0.000267818210851
-8.25347701843e-05
-0.202013936928
0.200547611939
-0.000454870961673
0.00119492354726
-0.000781195914327
-0.000642973235506
0.200558266083
0.00113945409727
-0.000786653438186
6.37887746383e-05
6.31333826865e-05
0.000154294977795
0.000283130088794
0.201610602824
-0.000124928522089
-0.201983937426
0.000144651645749
-0.000229833653825
-0.000252132831162
-0.000136723222655
-0.00017150015526
0.200276198948
0.00125307738698
-0.000751949541991
0.0505235689747
3.23649162463e-05
2.93814440549e-05
2.91977146787e-05
2.2857163467e-05
-8.64376003837e-05
-0.050547355305
6.02105625606e-05
0.0500274218467
-0.000214414421955
-6.1512663861e-05
-6.28389723884e-05
-6.34059235784e-05
-6.35733907417e-05
0.000311640462432
0.00196920632514
0.00297834592918
0.0313531937712
4.337716863e-05
4.65490203867e-05
4.79814685933e-05
5.35075548327e-05
-0.00556649236579
0.00175088348468
0.00256322663349
0.00369067083279
0.00524240432744
-0.000491647591327
-0.00996691179444
-0.00632702159322
0.00213565611742
-0.00101778562582
-0.00208260480395
-0.0019143070586
-0.00270716680899
0.0107883275309
-0.000893431437272
0.00980299532385
-7.95464773207e-05
3.81307082573e-05
2.59923218226e-05
2.35905552043e-05
3.73842052241e-05
0.0504708493033
7.02659079981e-05
4.6590958721e-05
3.85857449542e-05
5.6360722474e-05
5.65529406673e-05
0.0503358223051
-8.70219476338e-05
-0.0503721769166
5.7084023077e-05
-4.37728392451e-05
0.0124753355738
-1.21982545788e-05
5.57545834162e-06
-0.0124820325398
4.23258542597e-05
-4.15005438447e-05
-0.0124646446678
-6.1744191187e-06
7.2927878153e-06
0.0124626932578
5.63954181221e-05
0.0125626234963
2.34966049254e-05
-2.34116773494e-05
-0.0125725127261
-0.000213265712685
-7.44850306817e-05
-7.72118795966e-05
-7.40057865582e-05
-7.87979198875e-05
0.0499873920582
0.000305679323834
0.0500266810387
-3.85189143313e-05
-3.58980556083e-05
-2.74570764474e-05
-4.11054595351e-05
-0.000140363922474
-4.62290329334e-05
-5.36461332427e-05
-5.42661830288e-05
-5.83208760991e-05
0.050002499299
-0.000148059173603
-5.54715966341e-05
6.6058767288e-05
-5.83424102886e-05
0.0125056665753
-6.19036540152e-05
7.90565990465e-05
-0.012379287492
-2.704142329e-05
0.0123706201514
1.85693346442e-05
-3.34296202278e-05
-4.76562520777e-05
0.0125040286673
-0.0124973850809
-5.56144949487e-05
0.0124927897268
3.55692693162e-05
-2.15871122959e-05
0.0306966140107
7.79375485171e-06
3.26661831089e-05
3.01656484002e-05
-0.00874693740802
0.00618291926168
0.00448166671566
0.00194666277549
3.57362897639e-05
2.3694919136e-05
2.53873619709e-05
3.32721062796e-05
0.0306351018639
7.29636507071e-05
-0.0298799607588
-0.00213103846276
0.00673901319031
-0.00637705373638
0.00142762900562
-0.00600813114551
0.00440422976704
-0.00100558961711
0.00385839829545
3.6723915327e-05
3.43800109255e-05
3.96000578479e-05
-0.00791319602349
0.00450826716013
-3.91031172695e-05
-0.00778396327249
0.00116312618972
-4.58327723731e-05
0.012543726188
4.42792224894e-05
-0.0125503156131
-0.0125358114958
-3.0065318807e-05
5.3268118688e-05
0.0125364136104
-4.80959789468e-05
1.66695299247e-05
7.60617533e-06
0.0124441945676
-1.50870001472e-05
1.10771531101e-05
0.0124506508944
-0.0124624945896
1.83912624195e-05
-0.0125416699258
-4.46123865619e-05
0.0124399604987
1.53232387979e-05
0.0125407146853
5.08263733845e-05
0.0125385139108
-4.2885498269e-05
5.81793779293e-05
-5.12597749868e-05
-5.99061776417e-05
-0.0125405096538
0.0125430452727
6.18277717462e-05
1.38507276049e-05
2.42589138134e-05
-1.40143672939e-05
4.76036869451e-05
-0.0124270075971
0.0124144724641
1.03832236609e-05
0.012542156563
-5.26115560529e-05
1.42836920151e-05
5.72522259624e-05
-0.0125391579578
-5.06158011484e-05
6.06549390196e-05
0.0125354834839
-5.34926132489e-05
-6.00145196904e-05
0.0125390066239
6.42954932465e-05
5.2676199686e-06
4.48587352424e-05
0.0123957920871
-6.31745170991e-06
5.10184866533e-05
0.0124020908828
4.93194052147e-06
-5.29253484508e-05
0.0123960015846
4.45184525268e-07
0.0125347510704
6.64864135047e-05
-4.97544499534e-05
-0.0125268109704
0.0125189633651
7.16395421465e-05
-6.5240782662e-06
-0.0123919874967
0.0123907338681
-3.56062982213e-07
-0.0123900390615
-1.33086600044e-05
0.012388012881
-5.2482893774e-05
6.21468929414e-05
-5.32194647397e-05
-2.18638702526e-07
4.75388273285e-05
-3.26759766733e-06
-7.25202150881e-06
6.89502819519e-05
-2.44127389528e-05
-0.0125244178982
0.0125152445085
-1.71238860319e-05
-1.55258078709e-05
-0.012380324538
0.0123760262123
-0.0123777219554
0.0123743935695
-1.29402063625e-05
-3.17797088251e-05
-4.18169599624e-05
-0.0125328951879
2.85489449805e-05
1.03593066487e-05
-0.0123816680667
-9.64568605574e-06
-0.0125341835322
-1.53290928561e-05
-0.0123857461346
-0.00293064140136
-0.00525157419446
-4.13971453558e-05
-2.3207250342e-05
-6.4379062409e-05
-6.33837564786e-05
0.0344462576859
-0.0331665389847
0.00709487458909
-0.00215630421741
0.0115634144901
0.00202936539822
-0.0126138254763
0.0303475667735
-0.00305102788767
-6.48518193302e-05
-3.88997421201e-05
-5.91610316086e-05
-0.000476190071422
0.00194034933769
-0.0285409397506
-0.00485095589108
-4.19204827296e-05
-7.75673822258e-05
-7.75605072872e-05
0.0330125965592
-0.00282609252152
0.00725654236583
-0.00392801013447
-0.008029486721
0.00421330973609
-0.00142240503211
0.0053699743202
0.00204301840986
0.0300861862779
4.75515000535e-05
3.59569078205e-05
5.55297374418e-05
5.58203509142e-05
0.000280625559835
-0.00385376917119
0.00849348199451
0.00312502269837
0.00348840256473
-0.00203986028651
0.00222770705312
-0.00118092196681
7.13658086777e-05
7.57601203642e-05
7.16191523416e-05
6.88468338521e-05
0.0281818650319
0.000570915832539
-0.00383995038477
0.0103590106708
0.00228658137609
0.00384594428756
5.46912941857e-05
7.44406153423e-05
6.53918672038e-05
0.0300551102095
-0.00398431315831
0.0030240310228
-0.00223434633711
-1.4332858274e-05
-0.0126189316863
5.2201804108e-05
0.0126107862548
2.63471877969e-06
0.0126361865215
3.14928594902e-05
-4.14690647787e-05
-0.0126406295018
-4.83340324014e-05
-1.20620498625e-05
0.0124652302506
5.647667743e-06
-3.9295150476e-05
0.0124760776174
-0.0124748048028
-1.30776752057e-05
0.0126267475109
-2.41433589012e-05
-0.0126226204094
1.86068628855e-05
0.0124702029224
-1.31699666303e-05
1.56391906031e-06
0.0125985267211
6.8163799204e-05
-1.94201900059e-05
-0.0126174697035
-1.82295304469e-05
1.27061076293e-05
0.0126074587976
-4.07628363425e-05
-8.11137381327e-06
7.55521398279e-06
-6.75190965016e-05
-0.0124652483688
-1.13892947742e-05
0.0124604645812
-6.47629536964e-06
-3.61120161242e-05
0.0125861147368
-1.25861685663e-05
0.0124679596192
-1.47830828882e-06
1.75697081538e-05
-0.0124690217857
-3.70214760057e-05
-1.10897425039e-07
0.0124651064258
1.67747199591e-05
4.1385538323e-05
0.0125574923251
-3.47075576796e-05
0.0125821261515
7.24410797886e-05
-0.0125942396423
-7.30363147559e-05
-0.0124686494151
0.0124659025176
0.0125708792004
-0.0124736709229
-5.67052565582e-05
0.0125062736437
7.28019513351e-05
-1.38360880895e-05
0.0123877889157
3.55312084047e-06
0.0123855914425
-2.30946428036e-05
6.6028271488e-05
-6.47597965058e-05
0.0124969918358
-5.59380864078e-05
6.13774110375e-05
-1.92486872609e-05
0.0123856623644
8.02116493724e-06
0.0124962969722
7.39950244327e-05
0.0123840296264
-2.88768046173e-05
6.62130138903e-05
0.0124875694362
-7.66329463202e-05
-5.45438374954e-05
-0.0124837470539
-6.38075725308e-05
0.0124762720971
7.31827938184e-05
6.99873355102e-05
-2.42056312284e-05
1.53444533528e-05
8.51983394284e-05
-0.0123801858463
-3.2033853114e-05
0.0123744542612
7.49014122562e-05
-5.05693640171e-05
0.0124808923624
-3.15627368342e-05
-0.0125027902129
-4.54713173728e-05
3.48705186646e-05
-1.98458938288e-05
-2.99512081002e-05
-1.84261941312e-05
-2.23388414289e-05
0.0123751731654
0.0123741487966
-1.61382411773e-05
2.70850583732e-05
0.0123740058001
-1.68859256595e-05
-5.50930121938e-05
0.0124971091982
0.0123741600706
0.0123790407126
2.86753253825e-05
-1.79520158527e-05
6.23905642403e-05
3.01496319459e-05
0.0123792965942
-1.70740988543e-05
3.19177699506e-05
0.0124896760955
-1.99617254607e-05
0.0124900691103
-6.60573960298e-05
7.2689822772e-05
-0.0123741012976
0.0123712248814
0.0124858365012
-0.000332343286165
-0.000254742493402
-0.000328693737897
0.00117749780197
0.200545913507
-0.00041042282028
-0.00076399289763
-0.000208716011556
-0.000105082403868
-9.40782681117e-05
-0.000104371386668
-9.48891884756e-05
0.000297665287952
0.0499645546749
7.69643777048e-05
0.000787015106948
0.00535698193153
9.27840728892e-05
7.87771231119e-05
9.71096862422e-05
-0.0027538110671
0.0263192389016
-0.00212189922218
-0.000652455275075
-0.00179626627611
0.000151823073581
0.0413280342026
-0.00326873264424
0.00802393558055
2.75845871169e-05
2.681576744e-05
3.6595298967e-05
2.27843562171e-05
-8.36928791871e-05
0.000206209484424
0.0502718138259
1.77024130293e-05
-2.51511553184e-05
-1.50056956658e-06
0.012458325667
0.0499862844786
-7.79788726565e-05
-6.79276013295e-05
-7.19116472902e-05
-7.4062513816e-05
-0.000155385610387
0.0500350003208
-9.77400489188e-05
-0.000107883858781
-0.000115697123657
-9.44116033833e-05
0.000195752149288
-0.000157400156535
9.55207909153e-05
0.0123560824802
-2.57905981332e-05
2.18222859307e-05
-7.1456195702e-05
7.02128926089e-05
2.48717176743e-05
0.0123675142127
-1.20597703548e-05
0.012304654821
-9.4959629158e-05
0.000120173283948
7.12398373645e-06
-0.0123339409382
-3.87122008172e-06
0.0501939100512
-0.000149062999374
-0.000120524008198
-0.000123423579927
-0.000140406409141
0.000341271028806
0.000192525993344
-0.000159371633957
-0.000140036321627
-0.000151286422017
-0.00014776914633
-0.000134338675927
0.000405600930706
0.000181616106367
0.0503455378574
-0.000165490650249
-0.000118638665912
0.000138554328136
5.388515415e-06
0.0122877151166
-8.43171869015e-06
-0.000210898783209
0.000201326075392
9.78238958474e-06
-0.0122721899256
0.0122789272032
-5.99207612394e-06
-5.13110008508e-05
-1.51469813521e-05
-2.66883137968e-05
-0.00786960418542
0.0341995115836
-0.000381511639163
0.0245301403062
0.00325412734459
7.64083755315e-05
6.94419234518e-05
8.17953398787e-05
0.000885876347915
0.00465602721674
0.0189424333786
0.000114459103369
8.43081727138e-05
8.90510125975e-05
-0.00128810581792
0.00183669942016
-0.000192105027283
0.000386252775504
0.00606834018956
0.0124300594427
0.0003328113314
0.00254997462725
0.012781880776
-6.12232292929e-05
0.0129748814621
0.00014962477599
0.000157031972064
0.000171811598878
-0.00257847708087
0.00492248077368
0.00302650366103
0.000180177884225
0.00019654482279
0.000182745723358
-0.00379445755463
0.00469821707917
0.0076563368904
0.00364452597751
-0.0125580888198
2.64695054652e-05
-6.15024529035e-05
6.66294339396e-05
0.0125540789619
5.31468049499e-05
0.0125502350468
-5.06388849817e-05
0.0124552099776
8.48261194527e-06
-4.30927400863e-06
-1.53189722183e-05
0.0124477090959
5.20722634751e-05
7.72858662425e-06
0.0124428732057
0.0125471555527
5.36408969015e-05
-0.0124720016472
-0.000116475058486
-4.19602489094e-05
0.0124717156896
0.0124659700562
-5.85844589917e-05
7.04025518863e-05
0.000117470774785
-2.4712252241e-05
2.20751001054e-05
0.012334082394
9.71753101148e-05
0.0123602471709
-2.98979175711e-05
6.63328108972e-05
0.012466414921
-4.73359099662e-05
-2.4609562324e-05
0.0123408380095
-0.0124786141636
-9.07974727211e-05
-2.59787588939e-05
0.0124755002043
3.0898413608e-05
0.0124810026451
-1.99026496751e-05
8.11525697501e-05
0.0123615359071
1.69974214737e-05
7.70446014003e-05
0.0123519494563
-8.87459080315e-06
0.012344992225
0.0124762231139
-1.80988443615e-05
0.0124705838707
-0.000106030272535
-2.4703585659e-05
3.79013119815e-05
2.76626898643e-05
-0.0124707980146
0.0124787876893
-2.34640799051e-05
0.000136630782439
-0.0123249546178
0.0122985200772
1.13185536456e-05
1.45191256402e-05
9.46966300545e-05
-6.85893715307e-06
0.0124808269113
3.82886709275e-05
1.76777382829e-05
-1.89962841494e-05
-0.0125048677226
-0.000187072801173
-4.07069632142e-05
0.0125387180572
4.48602211494e-05
3.23124138069e-05
0.0124947625827
-3.01918699727e-05
0.000154588544979
0.0122890952376
9.93440126514e-06
2.50529337806e-06
0.000178053269777
0.0122683488874
-3.87532435698e-06
3.95529679598e-05
0.012274455343
2.06587243134e-06
0.0125286339441
-3.66996423882e-05
0.0125822479122
-0.000183984648243
-4.72230084549e-05
4.76692804741e-05
5.24810017905e-05
-0.0125814870984
0.0126242946676
-4.49881353894e-05
0.000181126534167
-0.012275427446
6.24191092532e-06
0.012278104583
1.0465994154e-05
0.000192212152874
-9.17046825072e-06
4.90460550443e-05
0.0126191914741
8.26034634605e-06
-4.185678676e-05
-0.000560756239041
-0.0492616855223
0.0491961078816
0.000689298916158
-1.74900218856e-05
-3.63407819789e-06
-1.82552523831e-05
-4.21784980263e-07
-2.38183597681e-05
-0.000703288760469
0.0497045983566
-6.47438974454e-06
8.6127159265e-06
-7.77883504444e-06
8.3095335929e-06
2.73807635859e-05
-0.0496578207622
0.000626403475566
-0.00102426148023
-0.0498805194216
0.0501778942931
0.000866215905226
-4.57017051347e-05
-4.52593023852e-05
-5.42974365009e-05
-3.87897473203e-05
4.47191839942e-05
-0.000694969230031
-3.4304095822e-05
-3.44026742147e-05
-4.02726956296e-05
-3.47475121243e-05
7.60176569916e-05
0.0502759433466
0.000580098570703
-0.0500933628189
1.40474449708e-05
-0.000887584842598
-0.0478208337205
0.0430274219983
-0.00318363646144
0.00881604619463
1.95711117175e-05
-1.47808834751e-05
2.51442032488e-05
0.000198176457397
-0.0332855581263
0.0244666357302
-0.003078731217
0.0114034162263
0.000125785205922
2.83625044318e-05
0.000102698380383
4.38121215748e-05
-1.8858469197e-05
0.00477546495695
0.0447072808213
0.00233615205739
-4.35639087559e-06
-3.97303936854e-05
-1.47136939044e-06
-0.047833797443
-0.00392036373114
0.000126395671061
0.00530593736462
-0.0360273960447
0.0277172645074
-0.00630442294541
0.00906825103717
5.4715078675e-05
-4.40260406076e-06
6.36637389211e-05
8.2468570253e-05
0.00722612477431
4.80398972087e-05
4.97402139876e-06
3.84397512251e-05
0.0287850183908
-0.00818468200357
0.00689981631467
-0.0349002032503
0.0216633221623
-0.00554245623371
-0.00564049505055
-0.0123314387052
-0.00806373426577
-0.0132239148054
0.0120971148216
0.000718928742326
0.00135293978173
-0.0172396759078
-0.0151237577194
-0.0171737380966
-0.0142088487979
0.0247321181727
0.00378579796999
0.0204002114863
0.00900667914294
-0.00537467276283
-0.0101158908872
-0.00267118481396
-0.00791032729346
0.00427279050664
0.0174112181473
-0.0135707343104
-0.0102380532572
-0.011619648563
-0.00800461770491
0.0238323719904
0.0324214616009
0.00141476962836
-0.00506905591507
-0.00369231019406
-0.000628864937137
0.00639825680669
0.00282692934027
-0.0112278396332
-0.00842205690841
-0.00993966321173
-0.00828431793849
0.0296891094277
0.0172538873128
0.000180765158504
1.39368041375e-05
1.68181228449e-05
9.09469207376e-06
2.24146463762e-05
0.0489662628067
-1.00161532638e-05
3.52303468346e-05
-0.0492344997226
0.049067780542
0.000379999008393
1.23160612146e-05
2.33283441496e-06
6.36489613489e-06
1.04889759313e-05
-3.99267704438e-06
-0.0492946867544
1.81351467656e-05
-1.66623751485e-05
-0.0123931994382
3.20644136423e-05
0.0123799383746
-1.96359647916e-05
0.0123905569585
5.20207685023e-05
3.28397260996e-06
7.19065629673e-06
-4.46313755295e-05
-0.0124076314897
-4.21017406589e-06
5.38901394036e-06
1.37386294434e-05
-5.89588589941e-06
-0.000284401762629
0.0122435427661
0.0122335037638
0.0121569501225
0.0122201833047
-7.1947104741e-05
6.6304953115e-05
-1.8544008423e-05
1.89309026281e-05
-5.32376341522e-05
0.0123776061283
0.000511960460722
1.21909604166e-05
3.34728441065e-06
1.16580301699e-05
5.93625765497e-06
-3.96295123545e-05
-0.0493872223397
0.0494699679743
1.78406786253e-05
1.45855686045e-05
1.25889173184e-05
2.04354826625e-05
-4.49343711358e-05
-0.0495270935306
0.000548369739043
0.0124027932225
7.76036610484e-06
4.61005250225e-06
-0.0124168303818
5.3621716477e-05
0.0124366551699
2.01060595092e-05
-1.66059294969e-05
-5.1794750766e-05
-0.0124412904433
5.3507004666e-05
0.000974581105487
-2.00329892898e-05
-3.93734975093e-05
-1.53482171524e-05
-4.24310654915e-05
0.0492746586491
-0.000225994679144
-0.000194797686377
-0.00022742152405
-0.000190390092029
-2.89103795176e-05
-1.84986083527e-05
-2.57365190486e-05
-2.44521106009e-05
0.0494492424438
-1.22948045892e-05
8.55443183497e-06
7.84073885024e-06
-9.28904786159e-06
1.14714185686e-05
0.0496631220657
0.000875818104891
-2.13228896057e-05
-3.82730081792e-05
-4.51434245902e-05
-1.58154212391e-05
5.08137166792e-06
1.50456615486e-05
0.0123958703844
7.281822499e-05
0.0123587136656
-9.65695313099e-05
9.38952883387e-05
-0.0123659269628
0.000123824401728
-0.000113714763698
6.71921601918e-05
5.05984098853e-06
-7.85421413761e-06
-6.2968890093e-05
0.0124355928048
0.0124248121313
9.72149891383e-05
-6.80556517626e-05
6.96102683551e-05
-0.00010039161165
-0.0124229801531
0.0500071176424
-4.45353947323e-05
-3.59320525042e-05
-3.15230177135e-05
-4.60789027077e-05
-0.00116738832656
-4.34180049247e-05
0.0011808213447
-2.56821867498e-05
-1.49197352425e-05
-1.39908947049e-05
-1.7569454734e-05
0.050595012198
-0.00021244455681
-0.00148447570625
0.000113586061194
0.0124115211483
0.000175135473318
-0.000143640704947
-0.000132203505495
6.84775317897e-05
-0.0124438720066
0.000205775867166
0.0125015692299
-0.00019924875039
0.000114440236289
-0.000149997065742
8.65262403892e-05
-9.98795249918e-05
0.0124738664677
0.000130427089253
-5.01563449449e-05
3.71049234807e-05
-0.00014763156561
-0.0124707086281
0.0125012815191
0.00075000456234
-1.87711185254e-05
-4.2135615754e-05
-1.79972686558e-05
-4.28250841432e-05
7.1304892534e-05
0.0500107338644
-9.95697190684e-06
-3.0919173175e-05
-3.12891540827e-05
-1.1998068494e-05
6.03381791277e-05
-0.0498513441235
0.000614419081445
-1.52341746533e-05
0.0124476059296
6.69622923779e-05
-0.0124508794358
0.0124425022303
-6.53889173028e-05
6.2346140134e-05
-0.012438738337
9.66355034779e-05
0.0124580378225
-4.45597865881e-05
4.52875406737e-05
-6.56710409971e-05
-0.0124562009938
6.32139791506e-05
0.000951837749633
-3.74317439761e-05
-3.29041426178e-05
-3.15324808503e-05
-3.07467725142e-05
0.0505206486154
1.85955765184e-05
0.0502317935541
-3.51685404795e-05
-3.342136808e-05
-2.70842959863e-05
-4.05159420997e-05
8.61070521804e-05
-3.0702534658e-05
-1.66742876903e-05
-2.18378054857e-05
-2.51243307855e-05
0.0504660366686
0.000744349133457
6.74537134264e-05
7.88469405634e-05
0.012482565145
0.000120955826372
-3.75888675271e-05
3.08502607198e-05
-0.0124777916256
0.000109648291599
0.0125051348311
6.95090087527e-05
-9.76286102418e-05
5.69132225875e-05
-5.97650957047e-05
0.0124890778749
6.59743507112e-05
-1.72039202417e-05
1.27124689048e-05
-7.54048179016e-05
-0.012478113262
0.0124921980831
5.50243026087e-05
0.0124909936356
7.2072335173e-05
-0.0124664729721
1.16290986854e-05
-0.0124816242098
0.0124919193189
-1.08455919735e-05
5.48464878217e-05
0.00607802184927
-4.95880328876e-05
-1.79186558074e-05
-3.58664456612e-06
0.0496819434867
-0.00811239281409
-0.0495546535967
0.00199757834723
0.0484978006613
0.0010662562554
-7.59120806404e-06
-2.28934408009e-05
-5.17743948114e-06
-0.0491847739893
0.00573551209437
0.00962471627465
-1.02638021829e-05
3.170735178e-05
3.99077459918e-05
-0.00558321406718
0.0434836080723
0.0157682092215
0.000119510711381
-0.00641883064338
0.000322573188393
-0.0154486487631
-0.000617455490737
0.0167802567192
-0.0126460521894
-7.61298926392e-05
0.0147970488701
0.000498042072834
-0.0136585841949
0.0157895816865
-0.000730506994624
-0.0140869622922
0.0119854935373
-0.000902631628747
-0.0110290970756
-0.000521723507984
-0.000609474122929
0.00586357448882
-0.007956301281
-0.000428651175175
0.0108707272919
-0.00137993059502
-0.0117611720924
-0.000452019590312
0.00496610993925
-0.00845619837992
-0.00330366204069
-2.12490641645e-05
-1.18050512691e-05
-9.14480697434e-06
0.00502984902566
-0.0484347396837
0.048008143321
-2.31487508571e-05
-3.71391745702e-05
-1.64197985113e-05
-0.0477377834762
0.0010872249354
-0.00456472015121
-0.00283836598859
0.0129751869187
2.08454820473e-05
8.47411783766e-05
9.36198826856e-05
-0.00068418035812
0.0439001643546
0.00570720924387
-2.38867448001e-05
-3.4655643899e-07
1.93603594284e-05
0.0108532904154
0.034877325965
-0.00488935028706
6.73062053395e-05
-1.25115573413e-06
8.47890314514e-05
0.01323404819
0.00178769887032
-0.0111117745349
0.000993061571023
0.0143069171369
0.0128678670199
0.00173937086686
-0.00978069639698
0.0143172230322
0.00245136659542
-0.00286538385689
0.00770481646674
-1.05343959971e-05
5.19975957405e-05
0.000183088838782
0.0190579525389
0.000209585540176
0.0264691180621
0.0103128400498
8.87942507244e-06
6.19356477923e-05
9.22257407969e-05
0.00659330231546
-0.00435091964969
3.45357531001e-05
-4.87797526818e-05
0.000143059214155
0.0211783004124
0.00987910283993
0.000872273653184
0.00185692664268
0.00504994312984
0.0104780616436
0.00337148498667
0.00415606265646
0.00670280819283
-0.00494456119647
0.00857977216983
1.99600995265e-06
3.40480700196e-05
5.16652939819e-05
0.00744146495001
0.0358303724147
2.85763408604e-05
-1.16151724503e-05
3.23822537198e-05
-0.0445093495047
-0.0038036315179
0.0139549606103
-0.0110281814904
0.00257292353212
0.00330917248941
0.0166014594979
0.0216164376522
-0.0178263183069
0.00324736371243
-0.00526675567176
0.00575128082958
-3.63967666637e-05
1.90319381461e-05
9.95175944134e-05
0.0227555171528
0.0285815000759
0.00795911873054
6.27175775958e-06
4.50477142779e-05
5.92630654304e-05
0.00560297112531
2.22665852569e-05
-2.61652527186e-05
8.3484937931e-05
0.0246345119422
-0.00702558934235
0.0133744034329
0.00446260674843
0.00518523484199
0.00964761000582
0.0198915287756
0.00419766231519
0.0176251459139
0.00475502863388
0.0122796335545
1.13909495447e-05
2.54492353473e-08
2.97036071852e-05
-0.0123068365553
9.96466228781e-06
-0.012273080074
0.0122418914337
2.13509619551e-05
2.270269743e-05
-3.44546054804e-05
-1.97571186523e-05
-0.012411408832
-5.01997934403e-06
-0.0124021528272
3.6508535885e-05
0.012383751073
4.14373424999e-05
0.0122521351193
3.5490644336e-05
-0.0124074850272
2.05168013006e-05
-0.012305479565
0.0122904069728
5.85358857076e-05
8.64436748364e-06
-0.0123154765187
-7.32466633804e-05
-0.012303350839
0.0122834242946
0.000102599720221
-1.02115602118e-07
-0.0124035317175
0.0123873194588
-9.09723083642e-06
-4.57185917472e-05
4.5312764596e-05
-0.0124213289275
0.0122648809805
8.52345708187e-05
-0.0123285848391
-0.0124106934161
-0.0122455243243
0.000118149038859
-4.0407902018e-05
-7.28462879451e-05
0.0122363819865
-8.96049396446e-05
0.0122701634333
0.000127047407151
3.92964754567e-06
0.0123620605267
-4.30315961547e-05
3.98263261102e-05
-6.71879476459e-05
7.75303815655e-05
0.0123574962545
-5.25333269613e-05
0.000154823806114
0.0122674274647
-4.62952267981e-05
0.0123404241541
-0.00010591036092
0.0123448003729
8.51083002364e-06
0.000122417326269
-0.012357647299
-0.0123237246449
0.000124193930841
0.0123099689263
-9.90339192709e-06
4.37932308323e-05
-0.012426818059
-1.95725968731e-06
-0.0124269931386
5.46841547761e-05
0.0124159394616
-0.0123426231012
0.00013950583123
0.0123334939853
4.64161531699e-05
-0.0124305941038
0.0123661973606
0.000132683479515
1.87566627716e-05
-0.0123773429316
-0.000147339326626
-0.0123832901472
0.0123772265743
0.000151286562887
-1.34596027469e-05
-0.0124362692972
0.0124287308469
-2.79227490296e-05
-5.01833551707e-05
-0.0124459482713
4.5601055928e-05
0.0123573906742
-0.0123945671409
0.00013645220618
-0.0124378546211
-0.00017239809185
-0.012321129046
-4.13794041639e-05
0.012329001464
0.000189030001461
0.012297983637
0.000150246054914
3.80674144252e-05
7.33503829797e-05
0.0123782380878
3.22959904444e-06
0.0124025048422
6.7332192939e-05
0.0122997196942
0.000165456394997
0.012386001893
7.78640304644e-05
-0.000197527825049
0.0123546941423
-6.35920486784e-05
0.00021570912461
-0.0123125670317
0.0002435679363
0.0123469327039
-0.000223362228174
4.44252153593e-05
8.65620133696e-05
-9.95750665942e-05
8.8974845918e-05
-0.0124054824199
0.000115868280828
0.0124046902932
-0.000181067591037
0.000251457744098
0.0123928111329
9.9082090712e-05
-0.0123494681363
0.000196663051318
-2.92671900382e-05
0.0123589638798
-0.000172644061937
0.0123761054153
0.000174326243643
-8.52707971783e-06
0.0124167122931
1.62594566341e-05
-8.13161726994e-05
0.0124284233003
7.21298282679e-05
0.0123862220583
0.000193697156546
0.0124042382133
0.0123858265517
0.000221336305961
-5.33155277521e-05
-0.000244214566887
-0.0124055629365
0.0124426955514
0.000238463602298
7.74064326758e-05
-0.0124280378017
0.0124294099757
2.68803412386e-05
-0.000108301522711
8.5643272983e-05
0.0124246879712
0.00021325906542
-0.000304511076339
-0.0124305734606
-9.04357508032e-05
0.0124831222469
0.00030805477967
3.5600507877e-05
0.0124026966709
0.000276038458848
3.19835396338e-05
-0.000250740950911
9.96676817927e-05
0.000163706532174
0.0124442372472
-0.000169828463744
5.67613237303e-05
0.0124059809171
0.000140454306427
0.0124611642757
4.0901711357e-05
-0.000303289699556
0.000271139544399
2.428298739e-05
0.0124306092468
0.000156759336982
-0.000310272262265
-9.13001707526e-05
0.0125698497146
0.000325037020414
-8.39755586426e-06
-0.0125314154532
0.00035182659906
0.0126194022825
-0.000356063784059
-1.5051981129e-05
3.08289394597e-05
0.000149406493753
-0.000189969150845
-0.0124982408344
3.99810491958e-05
0.000182844713439
0.0125259015467
-0.000326419943636
-2.19485576219e-05
0.000177149684507
0.000349290147274
0.0126320890617
-1.96915926854e-05
-0.0124613561531
0.000292297833007
-8.03215861886e-05
0.0125141888789
-0.000254983868809
0.0124944508369
0.000253268427259
5.14558031322e-05
0.0124228853806
7.48358686385e-05
-0.000146450116175
0.012485718608
0.000121831698933
0.0125413288843
0.000275152343387
0.0124509153057
0.000314403749282
-8.40198510629e-05
0.0125851302503
-0.0125823217598
-0.000317652385495
0.000295104041001
0.0126267663876
-0.0125063961629
3.95648565071e-05
0.0125289945775
2.42772581568e-05
-0.000186294832959
0.000128251531847
0.000284518561856
0.0126382710607
-0.000180913047111
-0.0124182463649
-3.20779903861e-06
0.0124279309199
0.000167923592256
0.0124012276971
0.000166330657667
-0.0124000937352
3.98001285466e-06
6.75266433767e-05
0.012443967008
-2.10978729869e-05
0.012448799519
-0.0124596576722
5.87788134073e-05
0.0124102407751
-0.0124174241578
0.000152679762529
0.0124438004434
6.76530293034e-05
-0.000198082708664
0.0124506377792
-2.52590993326e-05
0.000181953449412
-0.0124296055741
0.000222592767641
0.0124654810252
2.18683353592e-05
7.09811430356e-05
5.44686386176e-05
-0.0124652636451
7.77331233929e-05
0.012463741058
0.000199348227973
0.0124855996095
7.48361798266e-05
0.0124667270235
0.000165649576355
-1.2897970212e-05
-0.0124474287335
-0.000178599409624
-0.0124769675531
0.0125057807562
0.000164150606898
4.18779047777e-05
-0.0124702217767
0.0124691048481
1.2084967762e-05
-7.53446663571e-05
-0.0124631470962
5.86218416898e-05
0.012498119739
-0.0124605083247