/*--------------------------------*- C++ -*----------------------------------*\
| =========                 |                                                 |
| \\      /  F ield         | OpenFOAM: The Open Source CFD Toolbox           |
|  \\    /   O peration     | Version:  v1906                                 |
|   \\  /    A nd           | Web:      www.OpenFOAM.com                      |
|    \\/     M anipulation  |                                                 |
\*---------------------------------------------------------------------------*/
FoamFile
{
    version     2.0;
    format      ascii;
    class       volScalarField;
    location    "6.6";
    object      alpha.water;
}
// * * * * * * * * * * * * * * * * * * * * * * * * * * * * * * * * * * * * * //

dimensions      [0 0 0 0 0 0 0];


internalField   nonuniform List<scalar> 
28582
(
0.999999111905
0.999998608758
0.999999246756
0.999998405514
1.0000008178
1.0000006013
1.00000214379
0.999998235004
0.039438470206
0.0458843285971
5.99032527818e-05
1
0.911146061526
0.890646895208
0.999995735064
0.999997058287
0.884625869297
0.998814640277
0.998743112916
0.999999527359
0.999996081173
0.999993626561
0.999999518918
0.999996694819
0.999995257797
1.00000123961
1.00000208876
1.00000486261
0.999997236906
0.0462892456929
2.11328425459e-05
-1.93831957312e-23
1.00000315132
1.00000715043
0.929452022501
0.916849282252
0.999704366644
0.99999900509
0.999998995793
1.00000483091
0.998827615618
0.885379493069
0.99875957893
0.998945232359
0.0425122403732
0.0460792615478
0.000795765802694
0.000821251248888
0.0447224217731
0.000870466959071
0.999618345925
0.999518142616
0.904672189773
0.911042980253
0.999622065412
0.903839159849
0.999527038266
0.999399123054
0.999285568002
0.897642307984
0.888403042589
0.999250075486
0.895901233349
0.999422635265
0.998964769433
0.999145347242
0.879668143885
0.882502340798
0.999091370668
0.877663365219
0.999026061944
0.998861780334
0.877019182242
0.875872433638
0.998832247779
0.87761725942
0.875658872045
0.998866542735
0.998789538479
0.875298173777
0.872891520022
0.998738098674
0.871346467023
0.998781965888
0.874313727004
0.0355951275984
0.000427268449949
0.0325346932682
0.0352273772429
0.000264230572323
0.00038902478365
0.0467629903861
0.000364658428481
0.000436937934641
0.0473225786209
0.000212296539475
0.0466258433718
0.000279560776686
0.999733321681
0.999808858174
0.925955357368
0.928039551955
0.999773676246
0.999770938778
0.924999692548
0.999688142464
0.999667490542
0.92157553606
0.91671661149
0.999730402891
0.999632384139
0.921141771993
0.921874023439
0.917042743238
0.999641407979
0.999706055055
0.917103041878
0.999639022197
0.921452978802
0.998880757375
0.878362018882
0.877359111502
0.998887538734
0.880575531523
0.998947576327
0.87995321514
0.998990946797
0.999165081785
0.883140484489
0.884436827613
0.999053580916
0.999108141723
0.882439317901
0.998879131308
0.998811176907
0.877577788362
0.875091333391
0.87766567585
0.998813309481
0.88027129829
0.880365471446
0.882604210093
0.999027203934
0.998907320012
0.8841945116
0.999013080006
0.882456909615
1.00000212437
1.00000082876
0.0476215135434
-8.97615556901e-28
1.00000361153
0.911200089614
1.00000686531
1.00000607579
0.886685053342
0.883901611929
0.887330069137
1.00000564644
1.00000189793
0.887732754082
0.883394314792
0.0386015668646
0.0487107571971
0.0494385965989
0.000206062977356
0.000161548046414
9.68909229602e-05
0.0501551779748
0.0505706065875
0.999479404004
0.999575158845
0.91165780867
0.905157631135
0.999573147855
0.905553598349
0.999492358194
0.999297400261
0.999262867057
0.888080065421
0.885810681752
0.999357055374
0.999213893279
0.887328357124
0.999177838121
0.999084708816
0.885402845564
0.885451851507
0.999100950453
0.886698800129
0.999135679195
0.999212868645
0.999227584328
0.887414918506
0.88663332616
0.999226271046
0.887211155752
0.99920441203
0.999180231615
0.999225612579
0.887678721667
0.887740371498
0.999218822899
0.887351172037
0.999189538758
0.999120902279
0.999060413359
0.883496495992
0.886088047804
0.999040060027
0.885860039545
0.99913768066
1.0000022012
1.00000114714
1.00000322238
1.0000030082
0.0291506807595
0.0303406462571
0.0287273226523
0.0306181101873
0.0295199236929
1.71427569976e-06
2.54862451622e-05
3.92910790963e-25
1.08938576436e-05
3.30872245021e-25
4.56862858345e-06
1.00000381453
1.00000020889
0.943714197309
0.938560934245
1.00000643562
0.939041124052
0.999997842911
1.00000158663
0.940922924598
0.939921125147
1.00000535422
1.00000413519
1.00000501357
0.94102679575
0.942343118406
0.939209126013
0.936894154672
1.00000607159
1.00000702071
0.942814423892
0.942817860517
0.936917288378
0.938515460284
1.00000293071
1.00000398376
0.938963095126
0.935966619984
0.936299731854
1.00000476986
1.00000523254
1.00000593862
0.935951046029
0.936581956294
0.935686400524
0.935426314732
0.935748960253
0.935545363255
0.0285187424071
0.02876246823
0.0298392196261
0.00017240416627
0.00014962595678
0.000173713193866
0.00015981488138
0.000151311219097
0.000357134360655
0.000196065455709
0.000382783282746
0.0281334742268
0.0278425218487
0.03014360292
0.0288789927213
0.0300999716118
0.000114931896346
9.83519233748e-05
6.57802506643e-05
4.60372260249e-05
0.0299813977243
0.0305995540022
0.0300070415898
0.000127682379741
0.000234919516934
5.91251392183e-05
8.70537557189e-05
0.0300635416914
0.0294483395617
5.0122021766e-05
3.02707951579e-05
2.97501913891e-05
0.0303591627298
0.0301631446423
0.0300763890961
3.52106452116e-05
4.41148742592e-05
3.31966187211e-05
3.9925031226e-05
0.999850659817
0.999867317649
0.944153646874
0.939895024449
0.999838913631
0.940862256478
0.999836467839
0.999799185041
0.999829122373
0.938284544506
0.939198859394
0.999800984945
0.99979753347
0.938879245625
0.999838749942
0.999835480994
0.939001281542
0.940145784989
0.99981704317
0.999857063042
0.940175989699
0.99977011041
0.999824987462
0.941106350114
0.940722181389
0.9998110263
0.999790364789
0.941315108565
0.999794226036
0.999792999909
0.940877590306
0.941121193393
0.999793340598
0.999792282962
0.941630350858
0.999803030668
0.999838773583
0.941191175001
0.940165905438
0.999837779244
0.999805468407
0.939757517671
0.99980396427
0.999849458434
0.941659286605
0.940429516802
0.999839204715
0.999813521067
0.939866822984
0.999799423591
0.99980154119
0.940144496073
0.93844199407
0.999800810192
0.999818509642
0.939109586601
0.999805158121
0.999809729562
0.938669524444
0.937363471105
0.999813403085
0.999818897406
0.9385850321
0.999861921846
0.999865748681
0.943626564199
0.940961383238
0.999883568132
0.999835145315
0.941620976469
0.99989063238
0.999933409279
0.943343235742
0.941730388058
0.999901354456
0.941698281021
0.999921303391
0.9998156942
0.999797660664
0.938857154831
0.93731345966
0.999817375223
0.999798351464
0.939160177487
0.999822582295
0.999839806661
0.940152704039
0.937810383693
0.999809113298
0.939515308296
0.999858148293
0.999875740783
0.999868291677
0.938090351389
0.938359908763
0.999867254209
0.99989102288
0.937477325292
0.999856932623
0.999828461556
0.936672154526
0.936035913882
0.999853232502
0.999844150644
0.936784785906
0.99988722603
0.999890541344
0.936132205496
0.936862528153
0.999861215725
0.999891431551
0.936929045167
0.999813318283
0.999802336169
0.936151381857
0.935616518498
0.999797352549
0.999828299066
0.935629725599
0.999812317077
0.999815628171
0.936346062628
0.936012500084
0.99979985294
0.935722983486
0.999817412961
0.999823219583
0.99987487633
0.935481071585
0.935515737334
0.999830645378
0.999851543824
0.935443605293
0.999824661508
0.999846022772
0.935633630551
0.935439587109
0.999846461477
0.935469988029
0.999835249431
0.999864541362
0.999882222458
0.93555320245
0.935806304401
0.999869658407
0.999871960029
0.935663218736
0.999859476883
0.935501288878
0.999859753283
0.999998967288
0.99999813238
0.999993837249
0.999994489959
0.999993044493
0.999992327288
0.999999249596
0.999998369239
0.999996719203
0.999995087321
0.999995254803
0.9999944742
0.999999877315
1.00000618861
1.00001230771
1.00000435611
0.999991270978
0.999919002279
0.999904969692
0.999966496557
1.00000017465
0.999997922364
0.999995202562
0.999991809046
0.999980260065
0.999983651134
0.99998541137
0.999985948159
0.999999973691
0.999999770784
0.999998194656
0.999993756291
0.999992400234
0.999994221633
0.999996048018
0.99999700102
0.999999346829
0.999998819168
0.999995902274
0.999993452541
0.999993389313
0.999996587533
0.999998616944
0.99999872669
0.999993452541
0.999996476138
0.999998230685
0.999997294303
0.999996177344
1.00004043997
1.00002811156
0.999973247963
0.999772801865
0.999756654225
0.999874077906
0.99998245022
1.00000313279
1.00001178512
1.00001152018
1.00000284265
0.999969818777
0.999892952408
0.999913499398
0.999979057506
1.00000019792
1.00000039442
0.999999875621
0.999999105415
0.999994513159
0.999988214495
0.999988138806
0.999993792028
0.999999929401
0.999999464593
0.99999861298
0.999998117775
0.999998270379
0.999998636297
0.999998759209
0.999998812524
0.999996857149
0.9999980108
0.999998984541
0.99999935296
0.999989870262
1.0000406172
1.00003928417
0.999991814043
0.999834943288
0.999840980162
0.999940584578
0.999993631038
0.999989046884
1.00001501156
1.00002901562
1.00001800419
1.0000014896
0.99997674665
0.999973409314
0.999988575581
1.00000432714
1.0000054428
1.00000558946
1.00000467987
1.00000270136
1.00000068869
0.999999671888
0.999999868974
1.00000103284
1.00000117106
1.00000084475
1.00000094128
1.00000126048
1.00000132688
1.00000114677
1.00000102078
1.00000120671
1.00000144016
1.00000161964
1.00000192338
1.00000191601
1.00000175557
1.00000169877
1.00000200053
1.00000145826
1.00000155375
1.00000254418
1.00000558128
1.00003311856
1.00005716049
1.00003550674
1.00000667434
0.999940125861
0.999970092592
0.999991920823
1.00001394841
1.00001678555
1.00001674601
1.00001204256
0.99999531548
0.999994326769
0.999993573921
0.999995531275
0.99999462715
1.00000594216
1.00000745786
1.00000683755
1.00000719933
1.00000120638
0.999997299289
0.99999872863
0.999998521306
0.999998406275
0.999998372233
1.0000050461
1.00000482784
1.00000299698
0.999998545546
0.999996182159
1.00000021858
1.00000176225
0.999999680585
0.999998495403
1
0.999995214687
0.999996264354
1.00000010465
1
0.999997568605
0.99999827723
1
0.999997382907
0.999999671501
0.0312381943166
0.0369384085092
0.0467331652467
0.0521274446888
0.0536241556862
0.0518647810071
0.0504639105998
0.0522124877764
0.0293358530741
0.0297897801612
0.030562091305
0.0362705212508
0.0453877401661
0.0478138707922
0.0520993657811
0.0533544210704
0.0515893012646
0.0521674516933
0.029467568615
0.028847564328
0.0312509967657
0.0353668831849
0.0431820166944
0.0469642950236
0.0498414476074
0.0513564542789
0.0507436730894
0.0514187526319
0.0289812323718
0.0310615841228
0.0368895391793
0.0432155797147
0.0467463535936
0.0482972083077
0.0487825264666
0.0491367654509
0.0500882807986
0.0381543280276
0.0439287485664
0.0463629218287
0.0469131480332
0.0484751900853
0.049114489248
0.0490677725818
0.0494690090515
0.049965342673
0.0494012555458
2.05817757367e-05
2.01181025552e-06
1.65958504614e-06
1.95155801376e-05
7.02494484018e-05
6.46633639592e-05
1.6162486205e-06
-2.61084362624e-28
-3.82803284474e-25
6.95773969676e-05
1.59655686689e-05
4.4595981067e-06
1.35644052363e-06
8.30167485243e-06
3.50219982517e-05
6.47843899187e-05
5.15467403119e-05
-1.01162824806e-26
-9.36079411285e-26
8.14985419792e-05
1.77972132238e-05
1.04815084302e-06
1.57861776993e-06
9.48996743666e-06
3.18191473251e-06
0
3.24162272055e-05
0
-1.63560048467e-27
5.14770265278e-05
1.15805285757e-24
3.1057996121e-06
5.09940329815e-06
1.89018067622e-06
3.30872245021e-24
3.17643416191e-05
0
-2.41101814421e-26
4.11953936233e-05
3.28968589423e-05
4.71330917845e-05
5.72164011365e-05
3.816034424e-05
-5.57212620428e-28
-5.38757574012e-27
5.39254084305e-05
-8.2482799092e-27
-4.34468053085e-26
6.98731446227e-05
1.0000010644
1.00000023024
0.99999947077
0.999983854492
1.00000741722
0.999994840367
1.00000173404
1.00000679126
0.999995567149
0.999991192841
1.00002338666
1.00003668302
1.00000912674
1.00001322595
0.999998741257
0.999999315555
0.999999105243
1.00000053816
1.00000113101
0.999999605268
0.999998835466
0.999994088936
0.999997793286
0.9999951273
0.999997601268
0.999993919377
0.999997397066
0.999994999311
1.00001306268
0.999988972179
1.00000212243
0.999995551864
1.0000088938
1
1.0000062773
1.00004832694
1.0000205214
1.00003442507
1.00003413218
1.00005211594
1.00002977057
1.00004397044
1.00000442631
1.00000284721
1.00000295046
1.00000149049
1.00000640612
1.00000032959
1.00000182917
1.00001454287
1
0.999998260781
1.0000138092
1.00002409171
1.00000430966
1.00000791577
1.00000534783
0.999993266253
1.0000059218
0.999966735205
0.999996674617
0.999965510831
0.999994158687
1.00005782434
1.00003122618
1.0000497898
1.00002909078
1.00005918958
1.00002391966
1.00005388462
0.999999664226
0.999999477997
1.00000453086
1.00000095473
1.00001272136
1.00001000934
1.00001307088
1.0000356681
1.00000948269
1.00001599124
1.00002623713
1.00003946079
1.00001414858
1.00001547103
1.00002751471
1.0000150166
0.918189371902
0.919723450231
1.00000876357
1.00001104572
1.00001920651
0.918234574184
0.917363759286
0.920398660771
0.919667270486
1.00005542951
1.00003288545
1.0000452208
0.916808445138
0.902359545298
0.918702462279
0.901099926591
1.00004920439
1.00005826037
1.00004874633
0.890947821905
0.849802217464
0.889698579574
0.85854407685
1.00003350228
1.00003281182
1.00001989942
0.842654382989
0.849267752549
0.855759470139
0.858020801982
0.999970367183
1.00001063224
0.999997590644
0.857880115971
0.875846509087
0.862237568226
0.872927985005
0.999945050802
0.999982167632
0.999979425995
0.880210869496
0.886250208066
0.876478539892
0.8818720911
0.999988471253
0.999980047248
0.999983649999
0.886258871345
0.877827606729
0.880837053742
0.871459377744
0.999992203974
0.999985387189
0.999994480357
0.878207666904
0.860344749956
0.871542246892
0.85534855743
1.00001111846
1.00001247921
0.940593518063
0.927562916354
0.938511289319
0.934617945149
1.00001505708
1.00001345918
1.00001325687
0.92353876396
0.920354760093
0.931459888123
0.924748526739
1.00001745792
1.00001340727
1.00001532127
0.92129108443
0.920224749069
0.924121186884
0.923627693451
1.00001358249
1.00001569458
1.00001470782
0.919783049823
0.902549264587
0.923685356144
0.908546722431
1
1.00000478324
0.999998416976
0.891076815707
0.860602697379
0.89646076047
0.863897687495
0.999996651084
1
0.999998286666
0.858683620578
0.860971050797
0.863003066188
0.868337176332
0.999993476146
1.00000033275
0.999998276538
0.864077109262
0.872252471933
0.871783088841
0.877484044686
0.999994996523
0.999997048631
0.999998347332
0.875385608615
0.880540609853
0.878918892832
0.880959048182
0.99999423763
0.999997559505
0.99999787269
0.879427372011
0.869942127565
0.879375129698
0.868294252148
0.999999372636
0.99999968002
1.00000039608
0.870436136378
0.85629305634
0.869200335188
0.857411836454
1.00000802493
1.00000684886
1.00000760541
0.936844142131
0.936297519701
0.935537819063
0.935670174744
1.00000735416
1.00000818087
1.00000777089
0.934165619096
0.92663528935
0.935251259393
0.932780360028
1.00000773482
1.00000731943
1.00000760702
0.925391660087
0.924548765354
0.931916221553
0.927564727688
1.00000542376
1.00000703306
1.00000622327
0.924314293705
0.908693880131
0.923613712333
0.900701705617
0.999997995968
1
0.999993789471
0.896528637691
0.86431211308
0.890702650405
0.867207349494
0.999999479305
0.999997602916
0.999999804103
0.863482998128
0.869365081258
0.868267202641
0.875313018072
0.999999168203
1.00000380031
1.00000471035
0.873005644979
0.879122010785
0.878174533393
0.885200556875
0.999998405689
1.00000389658
1.00000445444
0.880519736471
0.88261014607
0.886118894223
0.887330137721
0.999997332235
1.00000131958
0.99999959342
0.880769728155
0.868851662184
0.88518088063
0.871959616906
1.00000023106
1.00000147408
1.00000262729
0.869861495558
0.856809951169
0.872450045965
0.857376380766
0.935639732337
0.935469648062
1.00000651156
1.00000865273
0.93514944369
0.933801108384
0.933672233999
1.00000496098
1.00000902287
1.00000746111
0.933153518534
0.924907447693
0.930739546226
0.917472457998
0.999999628988
1.0000031146
1
0.919492613897
0.898692302184
0.912308414412
0.894861128297
0.99999647287
0.999998575116
0.999995143026
0.890219548322
0.869992781777
0.888073908379
0.874594612004
0.999999749672
0.999997234998
0.999999874527
0.870860997225
0.877159540244
0.875102888652
0.881767190453
1.00000204897
1.00000329234
1.0000054754
0.879784867125
0.886455632852
0.884174577863
0.889530297316
1.00000056242
1.00000470705
1.00000390788
0.887304377262
0.888880297745
0.890026091339
0.887720638527
0.999997216664
1
0.999998255512
0.886789948158
0.873101288891
0.88513870592
0.873537548711
1.00000104424
1.00000167762
1.00000381228
0.873121169011
0.858024840661
0.874395903576
0.861986260665
0.999998138986
1
0.911676692095
0.89453400038
0.89224997846
0.999996027488
0.999999777018
0.99999863354
0.88800484923
0.875999763664
0.886182835999
0.877413677548
0.999999069519
0.999999988185
1.00000232001
0.876580569926
0.883216185751
0.878814863755
0.886347272462
1.00000124921
1.00000463241
1.00000576397
0.885244163247
0.889593235212
0.887602575063
0.888753391594
0.999999045635
1.00000276052
1
0.889489894074
0.886163814388
0.888122075791
0.883587633104
0.9999970391
0.999996966345
0.999997419164
0.884109345341
0.87505199135
0.882046563946
0.876867548573
1.00000198729
1.00000126286
1.00000372018
0.876405565658
0.864056042452
0.878567375902
0.869975347778
1.00000150733
0.888512141597
0.999998189265
0.888480957605
0.883262830068
0.999999008749
0.88154304089
0.876759278824
1.00000276383
0.878502023637
0.871132923327
0.000447337440307
0.000400007071185
0.000462533616178
0.000387376561704
0.0297227140345
0.030005899289
0.000224199565585
3.55324061685e-05
0.000192045453821
5.54304380755e-05
0.033773450602
0.0309063385042
0.0334561493682
2.60591202143e-05
9.19786577296e-05
2.47661060523e-05
5.63907524193e-05
0.041947085409
0.0367606810065
0.0414558326465
0.000325335936733
0.000562929718253
0.000281071051673
0.000569926084921
0.0507235793696
0.0463520994164
0.0495449226713
0.000900709138937
0.00124321870097
0.000899671389031
0.00116108550235
0.0538670405889
0.049717447463
0.0519530336028
0.00124660091998
0.000876305548685
0.00127118303073
0.00097681214079
0.0536017411277
0.0536006687535
0.054319777869
0.00024093360031
0.000107481882955
0.000299270755894
0.000131310097341
0.0504270677725
0.0528590216823
0.0512926032416
3.80191838908e-05
2.86787446082e-05
3.7433461378e-05
3.37634023591e-05
0.0511093266361
0.0512667209493
0.0515895208879
3.57362320996e-05
4.59523980002e-05
4.34012950599e-05
5.48799898654e-05
0.0529018486025
0.0521875599806
0.0539788263382
0.000145216713548
0.00139087449097
0.000172386849419
0.00150113620859
0.0293264781346
0.0290505156212
0.028830609873
0.000362016160641
0.000305502239921
0.00020680150047
0.000265266312674
0.0302893531415
0.0293402169286
0.0302103682737
0.000185514831185
0.000110846662258
0.000219568027142
0.000153606796964
0.032986927107
0.0311414063984
0.0325843707951
3.15463285597e-05
2.12290902314e-05
8.64844618644e-05
4.34994096832e-05
0.0408073663501
0.0354800494094
0.0399965945384
0.000134290466131
0.000484074785023
0.000107198111639
0.000392132840943
0.0480915679167
0.0440628342656
0.0467217183139
0.000801782301641
0.000983974294691
0.000726705785234
0.000887296817079
0.0499310268117
0.046922568863
0.0489307995602
0.00122713572232
0.0010639711883
0.000936881288595
0.000797554228782
0.0542587246554
0.0503363341929
0.0527796533021
0.000664616165289
0.000191248665826
0.000774993792859
0.000215319295616
0.051780732315
0.0526338830201
0.0515335192529
3.95479731527e-05
3.87190269543e-05
3.93899523223e-05
3.9822008745e-05
0.0520348489963
0.0513540003571
0.0518858343374
5.14853339029e-05
6.45886244949e-05
5.5035898551e-05
6.70724450722e-05
0.0539577014253
0.0519146795803
0.0536248694121
0.000212239564389
0.00165474735369
0.000223212406511
0.00171434306129
0.0286644042402
0.0295050292199
0.0288801017394
0.000101292751861
0.000229286446175
6.72719959316e-05
0.000148874557877
0.0297498460015
0.0288041297072
0.0293350133522
0.000205822789233
0.000157026913633
0.000145480779269
0.000125784972871
0.0327177975515
0.0307880991142
0.0327564664502
0.000108518660195
8.01913535371e-05
0.000100546010659
9.98212199261e-05
0.0393221463768
0.0358284242791
0.0393056202381
0.00014176573569
0.000393062937696
0.000212558125265
0.000444131352627
0.0461667807749
0.0429731080704
0.0458290949369
0.000566718981444
0.000644426411355
0.000516235327796
0.000596018693437
0.0489521597743
0.0468409275664
0.0481974964067
0.000469612965211
0.000302707065473
0.000431783187943
0.000252470036275
0.0512033915183
0.0492371302628
0.0497288776051
0.000450536402508
0.000169433662359
0.000382246740404
0.000162472156898
0.0506273339019
0.0499333826589
0.0493913222664
2.86296776343e-05
2.85639670757e-05
2.26598400273e-05
2.15916144704e-05
0.051357497964
0.0498403852342
0.0505063313139
4.62525006718e-05
6.14348616455e-05
3.50286183202e-05
5.48317578079e-05
0.0538420164352
0.0507116993902
0.0533696432599
0.000178200715221
0.00124425891394
0.000151872478175
0.00112460436821
0.0295246871044
0.0298733331474
0.000126009243094
7.55718661131e-05
0.000106466550307
0.03388404904
0.0319884250575
0.0348705346474
8.91279950953e-05
0.000174755069436
0.000171757841609
0.000282251824464
0.0398838467527
0.0377623090782
0.0406128675328
0.000325698178769
0.000438648125025
0.000376851089652
0.000455824996138
0.04563379578
0.0436241451364
0.0457213833211
0.000491911560855
0.000559498297493
0.000505024846204
0.000557111089968
0.0475770960705
0.0467876376418
0.0473032720172
0.000436267981752
0.000262089406199
0.000445176904233
0.000295066129774
0.0485958614603
0.0475392809209
0.0479439946306
0.000417398037402
0.000192868693633
0.000511369832282
0.000240856115218
0.0484578602065
0.0482231023884
0.0485378904175
2.45052930486e-05
2.29664634398e-05
4.13278554275e-05
7.12985912434e-05
0.0498015400105
0.0489758072939
0.0496200933916
5.34698237675e-05
6.59534408356e-05
0.000107689451174
0.000115765333392
0.053169463858
0.0494849221654
0.0521764638623
0.000152223893175
0.00095647207217
0.000190187961688
0.000840686085648
0.0410724901536
0.0416438932023
0.000494715724629
0.000596466822127
0.000534858716051
0.000654422535552
0.0456397670478
0.0442929684899
0.0456168578098
0.000714429972148
0.00080263904279
0.000820275577909
0.000912150603324
0.0466366168183
0.0458139165292
0.0458985324721
0.000771199162518
0.000631177730203
0.00095057302377
0.000859651821137
0.0476760832864
0.046664451009
0.047817110773
0.000700250784084
0.000311952804786
0.000647888346628
0.000324859595134
0.0488670020671
0.049011786895
0.0494680841618
0.000117138135657
0.000142092676935
0.000172185654103
0.000194051214287
0.0495390981062
0.0493678581188
0.0496669926945
0.000157916999166
0.000153067564656
0.000201360951728
0.000200615881056
0.0505058114681
0.0490246074969
0.0492160329816
0.000222946329212
0.000976726082681
0.000303213266756
0.00119780476354
0.0485430597973
0.000124558537482
0.0499977377065
0.000132976807182
0.000199819984523
0.00010623880462
0.000184261899479
0.0500571624298
0.000228258470608
0.000233906494467
0.000228081257135
0.000263373056333
0.0491102537806
0.000362455785611
0.00147909435932
0.000454978650169
0.00159808965442
0.999969053076
1.00001722821
0.916007357525
0.918171551948
1.00001183637
0.916407665596
0.999978670874
0.999962418682
0.99996071634
0.918750419779
0.918584162908
1
0.99993928638
0.917758131014
1.00001237124
1.00002980398
0.91799532466
0.918805444777
1.00002779625
0.918662403028
1.00002929799
1.00000631478
0.999961043059
0.917585009667
0.917421728471
0.999977794726
0.917850414378
1.00000454953
1.00000497333
0.99999661401
0.919534931474
0.920755807434
1.00000260219
1.00002524448
0.919632751118
0.999992113421
1.00000084067
0.918406711428
0.920450112643
0.999954832163
1.00003195018
0.918977423923
0.999888466641
0.999919146401
0.915217773204
0.916878069724
0.999943211019
0.914916721438
0.99989161845
0.99982223345
0.999699329801
0.910066150807
0.900636675729
0.999683300035
0.909010174703
0.999829553248
0.99987008297
0.999943738062
0.917743737441
0.916512987603
0.999909234076
0.999871589319
0.915399608859
0.999815820271
0.999683785205
0.900530487004
0.910149011424
0.999718187231
0.999810797328
0.909098706148
0.999067674174
0.999465990474
0.87720886993
0.889649278501
0.999451042058
0.877023127502
0.999059109199
0.998565704189
0.997986913753
0.863010906661
0.850233463657
0.998048661132
0.863469649827
0.998530516018
0.999223894409
0.999498042117
0.88958086157
0.878570393349
0.999545076101
0.999198189467
0.877535250823
0.998805837317
0.998410641751
0.85526427695
0.867924173131
0.998309336051
0.998812128034
0.866173824707
0.997698413671
0.99749973894
0.838646899871
0.845196500773
0.997656847366
0.842341417974
0.997599001307
0.997873103324
0.998097572185
0.841414281489
0.850834964025
0.99808089756
0.844533007985
0.99779985883
0.99784774732
0.998071421539
0.851176955658
0.853768326794
0.997847014786
0.997897346643
0.84877759612
0.997911938042
0.997987532345
0.854085537709
0.854727074846
0.998054314348
0.997918961327
0.849873531173
0.998628014991
0.99841287521
0.865874255534
0.858319363962
0.998340738283
0.865681808221
0.998758180038
0.998865054029
0.999044865819
0.871313825621
0.875219673364
0.998976811433
0.871017545438
0.998994023683
0.998450900289
0.998111003007
0.859500080425
0.866447205573
0.998246413344
0.99830123918
0.865361991624
0.998625825087
0.99862997426
0.873678493419
0.86963946742
0.998723774687
0.99849534951
0.86981101127
0.999079922379
0.999065679744
0.88451320342
0.879111897247
0.99901378439
0.882961901341
0.99914004015
0.999143906907
0.999229191717
0.886158739609
0.884987905392
0.999161474648
0.884634015281
0.999226559888
0.998907042828
0.998717329009
0.877476387939
0.879641636632
0.998798167556
0.998825812756
0.881005621041
0.99905614802
0.998975448528
0.883267126957
0.880933624086
0.999105093424
0.998975123741
0.882706213651
0.999059068934
0.999193669381
0.885726495117
0.884849981285
0.999134964065
0.884018878316
0.999102605721
0.998975467746
0.998993940753
0.882872157122
0.87612536176
0.998892117718
0.881053420748
0.999037651298
0.999028206276
0.998948092322
0.882416786794
0.879033941137
0.999081476571
0.998896344987
0.88124611661
0.998962521243
0.998837536926
0.874007865311
0.876078509468
0.998897710824
0.998865460726
0.878527513822
0.998435477291
0.998900150791
0.873833364324
0.876596876797
0.998765549837
0.872346815852
0.998629676008
0.997554016836
0.998131743114
0.849293988851
0.858794063592
0.847811248788
0.997821322873
0.997891952509
0.998457703022
0.99874409522
0.874126517896
0.867136692158
0.998783914607
0.998436895684
0.869413774515
0.997685477901
0.997925884169
0.85711966586
0.841963512013
0.997642107766
0.843947230185
0.997958585308
0.999968812971
0.999958367323
0.936433524625
0.940073584261
0.99995320424
0.936882480536
0.999955965704
0.999957779133
0.999921378243
0.931646300844
0.929234687026
0.999922428654
0.999919571231
0.932927929675
0.99993946878
0.999891238189
0.939688227626
0.938413986654
0.999923300688
0.938278003403
0.999921977491
0.999924049114
0.999920594628
0.93171968977
0.937033444001
0.999919004238
0.999932538172
0.935068568579
0.999875024644
0.99991391478
0.9200067357
0.926250900784
0.999893996715
0.99990088392
0.923354346195
0.999838346118
0.999894988255
0.920093321321
0.921286128026
0.999883243201
0.999844145236
0.921613914476
0.999874088686
0.999889439566
0.929102233197
0.928437790517
0.999916556542
0.999868372005
0.926045890208
0.999838523019
0.999819666887
0.922331261837
0.9265474848
0.999822246543
0.999821052646
0.923484878104
0.999938100572
0.999948506058
0.921882202627
0.921886813216
1
0.999891478877
0.923128266017
0.99993360861
0.999947396816
0.92140624936
0.921536334554
1.00000891714
0.999904778764
0.922858472645
0.999877303264
0.999819004097
0.922317562679
0.923586209739
0.999838575243
0.999829893505
0.922882808342
0.999878379831
0.999838210889
0.922978055208
0.923430375709
0.999855665753
0.999841398339
0.9234963844
0.999772775222
0.999871959216
0.918028508134
0.920640894463
0.99980273868
0.999842627227
0.918859806838
0.999705636322
0.999603367766
0.911788268917
0.904767474225
0.999740277227
0.9995854056
0.913144751007
0.999767499357
0.999829353948
0.922396000764
0.922668280232
0.999822163769
0.999811755905
0.921005523843
0.999705745942
0.999617775775
0.906944953926
0.917333385511
0.999574968
0.999745965387
0.915533230313
0.999149707568
0.999420599377
0.879805803578
0.893286603817
0.999142802332
0.999396873058
0.88206352089
0.998883459794
0.998532573009
0.869505537884
0.862041977342
0.998826239243
0.998604291672
0.871637014038
0.999162098465
0.999445762109
0.895281918901
0.884570168871
0.999387747746
0.999208048278
0.883860529193
0.998901866293
0.998821572082
0.863493418379
0.873712148046
0.99871766769
0.998962879139
0.872841577705
0.998300753787
0.998269287317
0.857282051256
0.860950260379
0.998136048176
0.998400405352
0.860553246976
0.99815920965
0.997865967877
0.858091731952
0.864125765712
0.99792036608
0.997980223382
0.861392508981
0.998650645457
0.998719222808
0.8622662328
0.864181776574
0.998629522009
0.998777550312
0.862584487594
0.998609699717
0.99871626803
0.866543399704
0.865608298479
0.998473810192
0.998775779805
0.863710045539
0.997990859692
0.997886727898
0.867299740019
0.867458791625
0.997977854321
0.997968831833
0.870231004356
0.998066222092
0.99825635212
0.869620716999
0.873335301941
0.998109733399
0.99817816188
0.87171230106
0.99840149778
0.998614645415
0.869925004989
0.875071475042
0.998396452691
0.998598451447
0.872947088457
0.998420065195
0.998569591876
0.87518266571
0.876391345604
0.998452908633
0.99859082898
0.874111414966
0.998429609209
0.998413507269
0.878115939003
0.875590665784
0.998569485157
0.998296412817
0.877810896306
0.998582510895
0.998768029931
0.879433939018
0.879991745991
0.998731216928
0.99864071897
0.87916694398
0.998517137588
0.998554352582
0.876813617728
0.880033346235
0.998482160936
0.998556411301
0.878499968345
0.998586229957
0.998629124016
0.879859479749