/*--------------------------------*- C++ -*----------------------------------*\
| =========                 |                                                 |
| \\      /  F ield         | OpenFOAM: The Open Source CFD Toolbox           |
|  \\    /   O peration     | Version:  v1906                                 |
|   \\  /    A nd           | Web:      www.OpenFOAM.com                      |
|    \\/     M anipulation  |                                                 |
\*---------------------------------------------------------------------------*/
FoamFile
{
    version     2.0;
    format      ascii;
    class       volScalarField;
    location    "12.55";
    object      p;
}
// * * * * * * * * * * * * * * * * * * * * * * * * * * * * * * * * * * * * * //

dimensions      [1 -1 -2 0 0 0 0];


internalField   nonuniform List<scalar> 
28582
(
17094.3058392
17093.5961889
12196.1491956
12195.7037159
7297.28673407
7297.89317683
3622.16288658
3624.43872909
54.8345777558
55.4280289978
-27.0905269128
3623.39075968
651.55099152
654.946726155
3625.23878546
3627.00376107
656.051115982
1792.33207552
1793.69228888
17095.093681
17093.2546962
17093.372231
12196.7323472
12195.4678486
12195.4676687
7297.47682629
7297.68415351
3622.83174767
3625.34894523
55.086102115
-27.0890729476
-27.0512571963
3621.89676874
3621.51830225
648.880758566
649.374157719
1783.53733547
3624.60653169
3627.35202635
3626.38074401
1792.23684027
656.140228718
1793.6819366
1793.68060085
55.3772164032
54.1399388395
-22.947087188
-22.9207686909
55.8439805788
-22.9553081716
1785.20604029
1786.58742117
652.662816333
651.668033407
1785.37707058
652.672120423
1786.4209188
1787.9098753
1788.85717106
653.845422915
654.851439408
1789.29282112
653.695982856
1787.67461988
1791.51542307
1789.84999214
656.560103263
656.110850288
1790.54700864
656.794665135
1790.51593373
1790.95388145
656.732172098
657.25831788
1792.03619252
656.613924323
657.093108701
1790.83338578
1794.70156957
657.719823208
657.913270259
1793.14802972
657.439142793
1793.9483954
657.391050515
53.5962572447
-22.8737259598
51.7647207578
52.7708447746
-22.9159114147
-22.891204922
54.025459388
-22.9626070156
-22.9320797748
54.6415502467
-22.9769537733
55.3132837407
-22.94243118
1784.63963459
1786.06431296
648.83311575
648.690972597
1785.29764843
1785.27079778
648.600473208
1784.31234995
1784.75235923
648.808324886
649.566488059
1784.83845546
1784.48511795
648.810398896
648.901611588
649.916523546
1784.13753357
1783.85845559
649.755556321
1784.26871351
648.812759892
1790.85707777
656.619969774
657.090268322
1791.86947311
656.506967946
1790.55720585
656.96964864
1791.27444034
1789.29597883
656.372994896
656.431558242
1790.05802068
1790.36699279
656.743400272
1794.49225703
1794.84093273
657.595526937
657.992189459
658.095741997
1793.28425263
657.558706155
658.081932111
657.723647581
1792.39447744
1792.49856294
656.947839971
1791.34530835
657.342140152
7296.48583997
3623.48324222
56.0304892867
-27.054110386
3621.81229042
651.360682749
3624.8017573
3623.27520226
655.933879091
656.993196252
655.464550708
3622.34598969
3622.02804576
655.44723949
657.184104873
54.8604959672
55.6887334099
57.1165279202
-22.9398440555
-22.9564151817
-22.9741808445
58.2447401583
58.9338125134
1786.11026944
1785.04784067
651.089584331
652.58841184
1785.04710901
652.337421392
1786.2364498
1788.27291354
1788.46071462
655.764088067
656.15416001
1787.64059393
1789.35943819
655.836045887
1788.62226946
1790.74958573
656.481737757
656.272240354
1790.05543123
655.974296859
1788.88311985
1787.30438458
1786.05457432
655.438232099
655.732426821
1786.26426546
655.600158148
1787.28509457
1785.39151196
1785.3231652
655.414958129
655.692812679
1785.64591123
655.581017307
1785.06768352
1785.44169564
1785.58666252
656.654574625
656.310191051
1785.67604635
656.037515465
1785.22725495
3650.68798026
3645.23997238
3643.22010049
3638.85398219
40.9982986019
40.593810193
39.2052406018
40.3744961673
41.8998903661
-27.1183568132
-27.1170336408
-27.0389101788
-27.085580505
-27.03733212
-27.0516630928
3651.41220043
3650.83273801
661.165993197
657.083309639
3653.88259624
657.208992972
3648.90958036
3646.81951159
655.416220419
651.326270095
3652.03240633
3647.66207495
3647.63607314
655.527991694
655.876709972
651.525385557
651.67863759
3646.52063689
3643.3627733
655.737840014
655.15526331
651.765215683
651.564174585
3644.6471421
3642.39571322
650.792013738
651.117359801
649.547279127
3640.68937862
3640.76768223
3638.3735127
651.241377759
650.98286018
649.565101889
648.671313815
648.935546758
648.316850123
45.7087273703
43.3256358202
43.1363547155
-23.1277235085
-23.1166163766
-23.1261962691
-23.1299374705
-23.0962337101
-23.0018277327
-23.1453703894
-23.0461149981
41.0033040548
39.2429588278
40.9243476441
39.5722286242
39.7977854732
-23.1262773568
-23.1442580884
-23.1469918193
-23.1658498722
40.5349420396
40.0287262431
40.5834897094
-23.1599550057
-23.0657429585
-23.1698655444
-23.0973573303
39.7854101269
40.6162101112
-23.1577185499
-23.171697356
-23.1750738014
41.3235083723
41.3582455696
42.1875373548
-23.1725335723
-23.1163801316
-23.1713859098
-23.122728519
1816.63508428
1818.50240414
659.862424582
659.953034822
1818.32643894
658.730650926
1816.79295701
1816.40729502
1817.16592352
658.627187369
656.255317096
1817.90868802
1815.95791639
657.568510451
1820.03109727
1818.0395089
658.849446559
657.392074535
1819.04496881
1818.81541316
659.0335727
1814.30446723
1816.09797242
654.735776055
653.945376011
1815.15083111
1814.9548191
653.402695998
1813.2332098
1812.43118604
652.483735021
650.954448603
1813.68901972
1812.07349285
652.068900517
1815.73267875
1816.71880075
655.665939472
654.03031939
1817.27516064
1815.37918964
654.103626376
1816.07128414
1818.3200427
655.858969069
654.200011621
1817.90369494
1816.15181988
654.274234385
1814.1189218
1812.65509862
652.627646913
651.603722652
1814.00962505
1812.65189636
652.645300769
1814.18547093
1812.3356403
652.681071498
651.700300683
1814.0693769
1812.55460356
652.783731722
1815.33876995
1818.44965625
655.597460551
653.981221055
1818.09645416
1815.9127249
653.926769484
1813.99033064
1813.75879472
655.324890102
653.729306277
1816.61957183
653.846329363
1811.79973991
1813.01463994
1811.91898189
652.674887562
651.778224568
1813.66228155
1811.25000663
652.774712096
1811.8356654
1808.61825346
652.589602711
651.770668967
1810.15670707
652.776575453
1810.25396084
1810.13906839
1811.4429938
650.90265553
650.267952255
1811.34355601
1810.32192338
650.465748433
1809.83607987
1810.80803062
651.080125223
650.524064638
1811.15374137
1809.4271102
650.64541905
1808.58219606
1806.39998413
650.180335196
649.677082462
1807.9698166
1807.15878481
650.187258431
1807.96700551
1810.27667842
651.211770848
650.607355396
1809.58972712
1808.8159706
650.667166157
1806.74405653
1806.93495981
651.246072609
650.278633036
1808.46691788
650.619372678
1805.12168866
1806.24718633
1805.5753476
650.194375615
649.469066095
1807.21178351
1804.54666619
650.148163484
1804.925362
1801.57418915
649.463834888
649.149393262
1803.18898708
649.907500776
1803.28950828
1802.10229959
1804.19462015
648.838005624
648.366301146
1803.17670989
1803.10860816
648.292427822
1800.40164812
648.609147397
1801.88740625
17093.2617491
17092.2148581
17091.8968404
17094.0259369
17095.2656141
17106.2042938
12195.0700178
12194.2256133
12194.0128941
12195.7170025
12196.4906064
12208.2264321
18309.5003521
18311.9182989
17084.0708942
17088.6207104
17092.2234128
17094.9869641
17100.233512
17079.0908739
18311.4396417
18312.9094024
17089.3451728
17090.2209778
17090.8603712
17090.559703
17090.0070937
17102.8778556
17091.9044913
17089.9315217
17089.5514462
17090.0594836
17090.8056694
17091.0356693
17090.967531
17104.2761955
17094.1126634
17091.8774395
17090.9045682
17090.9701043
17091.5306191
17091.9038454
17092.4865403
17105.9929922
17092.1919211
17092.7670716
17093.9320607
17106.2170942
13409.6684588
13411.7561572
12189.0493131
12191.7455339
12196.2092538
12202.3224709
12257.6156885
12088.406439
13413.8205266
13414.6413172
12193.9261505
12194.6016654
12193.6992292
12191.8516845
12189.1424747
12190.9919895
12193.3126483
12192.482588
12192.6707617
12192.7604544
12192.5649169
12191.9532129
12191.0372121
12201.0603085
12195.8189838
12193.8379808
12193.2119382
12193.3896769
12193.6011563
12193.2421213
12192.5595724
12206.1686205
12194.1970096
12194.3649754
12194.8427176
12208.0710104
8510.00990302
8513.14282777
7290.32922423
7292.3625958
7294.08071994
7291.06562622
7285.70147559
7219.44306091
8515.27914796
8517.23957416
7290.65760408
7292.75567585
7292.48453445
7286.94104018
7274.0047701
7264.5785628
7294.85999321
7293.76341558
7293.40138088
7293.33850734
7292.37148878
7288.61419873
7281.16961672
7298.18707805
7300.81809997
7296.96399764
7294.83791256
7294.26478388
7293.74997265
7293.03140996
7291.21403019
7286.74526164
7303.19841051
7296.13049702
7295.9112246
7295.2245913
7294.47115007
7293.25970539
7291.21367936
7306.99979263
7295.30926585
7293.93741327
7308.0352038
3615.41108192
3618.67147304
3616.89049394
3619.08016587
3621.42963511
3622.19461063
3617.50533916
3588.34348287
3621.02206848
3619.54045138
3620.79458126
3618.63194897
3620.32816888
3621.23637136
3618.43824513
3612.09223069
3598.98071074
3636.99310178
3627.68678967
3622.32296193
3621.03833749
3620.75981199
3621.16601894
3620.79559689
3617.57861806
3614.5857771
3615.60184279
3628.06519234
3623.36691881
3620.98796359
3620.80928619
3620.90013313
3620.49516785
3619.28188983
3617.94470268
3622.28669801
3621.62816305
3622.11686367
3622.04970965
3621.48925039
3620.47305589
3620.53614273
3625.04089784
3622.00442063
3622.39819615
3626.81297209
46.2652292924
47.6432508235
52.0077913432
54.8096565394
55.981939876
58.1519397729
62.1007200972
66.4510112341
41.3000239133
42.6264435394
42.9572508586
45.9101211969
48.9871286067
52.5190367155
54.5585463485
57.5379297199
60.7617240829
60.6671717011
42.3197206393
44.1366013996
46.5578133832
48.5661519089
50.2207426256
52.5850373187
54.1947355989
57.8466596723
59.82437147
57.7494673565
46.7449538955
50.1465688956
51.9398836829
53.1529330914
54.3459931115
55.6376410884
57.7646591389
58.4072266644
56.2277006728
53.9610161762
55.943215881
56.3714301291
56.3873357577
57.3135880729
57.171921875
56.6515755197
57.4725678352
58.0473887458
58.4423517084
-27.0834969242
-27.2152693851
-27.1178247647
-27.2715775934
-27.2826101481
-27.042444059
-27.1025910684
-27.0571934436
-27.1553706287
-27.4878233375
-27.1622099263
-27.1829228732
-27.1256356375
-27.2714843051
-27.032261959
-27.2910063637
-27.03446736
-27.1194794876
-27.154862434
-27.4014424924
-27.2533087956
-27.0856944716
-27.1326541033
-27.1179244309
-27.1090965629
-27.0898601814
-27.2653851995
-27.1034797901
-27.193281968
-27.410016438
-27.0879714465
-27.118407749
-27.0624155331
-27.0208598143
-27.0586617349
-26.990381164
-27.1065434888
-27.1857001112
-27.4509819073
-27.0646331397
-27.0174401853
-27.2509532123
-27.0779124015
-27.1264321923
-27.1898994195
-27.4923020472
-27.0931166045
-27.2035860883
-27.5478621969
18310.9422517
18309.6910236
18311.2202326
15859.7649643
15861.3054223
15860.4601925
15861.6149153
18312.3864243
18312.5455217
18313.3733943
15862.1743851
15859.2958041
15862.3326733
15861.5872285
18312.0220864
18313.8198172
18313.3082806
15862.3038717
15863.139722
15864.5904288
15864.538244
18313.5628896
18313.528075
18314.1469883
15863.8738397
15863.8004981
15865.13364
15865.8325585
13410.9988135
13411.11162
13411.9547004
10959.3676026
10961.0945576
10961.3294548
10962.5964909
13412.14419
13412.3112053
13413.4893006
10961.9891229
10962.103476
10963.164811
10963.0781664
13414.2177877
13415.5699325
13415.6782012
10964.5367576
10965.2433173
10966.4564625
10966.2990176
13414.7838137
13416.1408953
13419.3939184
10965.6778117
10962.3413829
10966.2764179
10968.8992734
8511.94543519
8512.51971233
8513.97584567
6061.9200405
6064.012875
6064.48813546
6066.01961724
8513.15967709
8514.75185584
8514.94803086
6065.4353172
6065.17016937
6066.7413213
6067.62570559
8516.41846393
8517.26664999
8517.26977675
6066.83353479
6067.84953351
6068.45270361
6068.63822912
8513.75386882
8517.36537082
8518.81748788
6068.51237819
6067.3480042
6068.87917578
6070.12473882
3613.01010762
3616.37170082
640.608764168
639.532958906
3617.94505499
3618.20444589
3619.83491878
643.121239624
647.00452543
640.74817411
644.926385333
3617.42944127
3620.12631913
3618.5668414
646.412542176
642.148963256
645.283581712
642.137595245
3617.73564617
3617.3322351
3618.18015545
642.065244518
648.386877646
641.541693508
647.171451512
3620.37971625
3619.74223399
3620.98020502
650.314484506
652.702529123
649.537260075
652.221733268
3622.19235088
3621.56461903
3621.53543484
654.155321531
657.679589508
653.11897899
655.565404138
3621.2799617
3621.05287723
3619.60524469
658.873805705
659.892216314
656.139230357
655.675562901
3605.9410883
3617.00452526
3607.89017097
659.033920446
657.433008832
654.839291917
652.857356085
3576.70156491
3593.94088234
3598.60611422
662.892110217
556.830379187
653.925185828
623.890322861
3638.0563794
3631.68090083
654.687108006
646.148236461
651.143728957
647.868822629
3618.87868826
3625.70753162
3622.07551829
642.618001577
639.655016538
645.846306083
642.679500999
3620.67040012
3620.95093096
3620.99568637
640.522214479
644.790875327
643.171922785
646.101003706
3619.60170578
3621.07517759
3620.74166369
645.476877401
642.8402795
646.748897084
645.945715062
3619.04999992
3621.13153138
3621.3954435
641.985110423
646.881391632
645.515722816
647.921461427
3621.18941511
3621.80102202
3621.8139221
649.139473136
652.883591182
649.508082828
653.327170589
3620.2367687
3621.38539804
3619.94154611
653.102646465
654.935103949
653.442561953
653.561559472
3615.77978783
3617.64896339
3615.46801815
655.31703453
654.836917067
653.30457861
653.85864817
3606.19909708
3613.3610366
3610.73092604
654.031419742
652.513942136
653.944240264
653.725942674
3618.14101802
3608.70303361
3630.02036153
653.579694415
627.434952393
654.881836516
630.176357046
3632.36765444
3635.25342382
3631.68767927
650.370988373
647.532585041
648.128745131
647.154851508
3624.10264252
3628.10075034
3624.99140143
646.003982107
643.895847036
646.830349454
646.917186809
3621.58626815
3623.0059403
3621.71495552
644.512673727
646.813300604
647.63548135
648.267143169
3620.67096342
3620.8123911
3620.49013996
647.150789198
646.685566277
648.062029614
648.588947955
3620.99497386
3620.62537284
3620.83274314
646.609471637
648.562587724
649.311688257
650.680241504
3621.14823845
3620.93450298
3620.91076008
649.7215577
653.265597395
650.796352574
651.997441138
3619.59846149
3620.52115945
3619.72970828
653.981490098
653.231208696
652.725883722
653.596585972
3615.79867689
3618.43688721
3617.07896869
652.816479944
654.143549556
653.709297467
655.133040763
3614.17646982
3616.42883681
3617.07576941
654.518963421
654.167402428
655.507818939
654.626700456
3634.18254529
3619.76479104
3636.8869189
655.46552537
629.854744546
655.549951088
629.190329828
647.88983142
647.254833701
3625.40781149
3625.26258031
647.17483775
647.629873366
648.711057271
3622.00733471
3623.228204
3622.03406658
648.269146544
648.594783079
648.985548909
649.184621435
3620.64037695
3621.31385652
3621.1800055
648.348659663
649.417180827
649.849223703
652.400126256
3620.97037445
3621.24776622
3621.25292831
650.187369459
651.344427395
653.073229886
653.468693416
3620.75349357
3621.1421446
3621.00612375
651.295060602
652.196263477
653.447336753
654.347140624
3620.0218355
3620.82056924
3620.44350319
652.882263739
654.191817891
654.780561783
655.365256237
3618.34390554
3619.9336216
3619.42615166
654.487574783
655.119051133
655.390100468
654.722725344
3619.04017534
3619.28738711
3620.5613542
654.994828469
654.379582177
654.610635837
654.48416332
3638.01103251
3623.70447793
3639.22575833
655.328060724
629.082866778
655.587049055
629.171365141
3621.91136723
3622.6282735
650.332563595
653.26841449
654.889060685
3622.09848508
3623.20102631
3623.48549059
653.972673589
654.020785671
655.729791381
656.061424121
3621.78383605
3623.48787346
3623.04142785
654.031679866
655.26255097
655.975043635
656.118894666
3621.02351481
3622.3391267
3621.67256585
655.373825054
655.424995599
655.919622529
655.418703385
3620.25415958
3621.24397645
3621.06594686
655.445039783
655.045902209
655.349544328
655.709756912
3621.93842682
3621.41072071
3622.91674781
654.873453649
654.963781497
655.806100316
656.62288664
3640.07720251
3625.96593868
3640.26124103
656.176289784
629.538153722
657.968937346
632.861370151
3622.49337094
655.504483543
3621.87754502
655.42878155
655.834349299
3623.9250164
656.086623306
657.152245065
3640.01687166
658.440597018
634.285743266
-22.9837005045
-22.9250568011
-23.038300355
-22.9982948663
47.06087996
43.9886099846
-22.9299933466
-22.9185852089
-22.9806648652
-22.9724488286
46.2263136107
43.2547186286
43.8321666712
-22.9136810063
-22.847816247
-22.9603009604
-22.9050611064
49.8121479134
45.9455266609
48.1332801654
-22.7889677148
-22.8049333379
-22.8419262205
-22.8583488202
54.0113305709
49.8978330506
51.8840307719
-22.8844792044
-22.9792933184
-22.8746112246
-22.9715902846
54.9300364108
53.1160380985
53.5249719566
-23.0116136782
-23.0260960085
-22.9808361182
-23.0081954215
56.8947672503
54.4604385015
55.8745772213
-23.0477155257
-23.0323589142
-23.0409450294
-23.0421707135
59.7849891301
57.5167689802
59.334787173
-23.0237903428
-23.0172223311
-23.0161420489
-23.0099874208
64.3422861016
61.2929840674
63.0362087717
-23.0147846215
-23.0433082362
-23.0214315463
-23.0429868698
72.7385915463
63.0992813345
69.3638713059
-23.0976295974
-22.9699100505
-23.0844490293
-22.9690456846
42.0979129099
41.4022472206
42.3917008772
-23.0859130367
-23.0462221523
-23.1101284709
-23.0633569303
42.8922044879
42.9124478198
43.5750852372
-23.0101038706
-23.0057146597
-23.0471105248
-23.0379697043
44.0035504727
44.33426206
45.5849643713
-22.994206404
-22.9574763453
-23.0092676884
-22.975445034
47.5203040333
47.0652830432
48.071381819
-22.9318351969
-22.9456608014
-22.9452126806
-22.9301788176
50.7920184759
49.2405817723
50.547426501
-22.8479903176
-22.762613114
-22.8310442345
-22.7697361318
53.611103248
52.0527298992
53.457062234
-22.9006541495
-23.0038516814
-22.8335665152
-22.8950903776
56.0397438644
54.2381016725
55.9087329476
-22.9989577781
-23.0347714602
-22.926233245
-22.9718813785
59.3641887328
57.7754025398
59.3731179305
-22.9876043795
-22.9824244347
-22.9448964527
-22.9516941025
61.9417494365
60.3288846909
60.7214526296
-23.0090859042
-23.0393682511
-22.9901734225
-23.0297364311
66.9185557762
58.8773327233
64.3918230656
-23.088319495
-22.9882327095
-23.0858832549
-23.0009069977
43.2530519678
43.233048977
44.3137326663
-23.1152124767
-23.0652162725
-23.1171832959
-23.0564913514
45.3252529114
45.6181352544
47.2315939064
-23.0194167724
-23.001706346
-23.003245565
-22.9907677892
47.6022326463
48.7204036543
49.716072286
-22.9782989737
-22.9393243873
-22.9674738134
-22.9318576532
49.3970521972
50.4138434859
51.0194131668
-22.8984488518
-22.8734115244
-22.892888115
-22.8617090653
51.26344093
51.6075019991
52.356505633
-22.8208146413
-22.7989510172
-22.8274223558
-22.811482548
53.436766847
53.3960606658
53.9170353707
-22.8182616396
-22.8263830481
-22.8205063149
-22.821923393
55.9788804323
54.7746264171
56.5280360041
-22.8685069471
-22.9195375902
-22.8356153363
-22.8685896317
59.2485365239
57.8896282377
58.9617778693
-22.9007968922
-22.9319146003
-22.8885704899
-22.9269392485
59.7835337541
59.2680947088
59.0588086875
-22.9796623913
-23.0291923682
-22.9749940602
-23.0293372648
62.9954264438
56.8917430737
62.0737518655
-23.0952609502
-23.0203967992
-23.0977123662
-23.0284304181
48.6415465248
49.4591550702
-22.9901005689
-22.968371371
-22.9636644542
51.2203500271
51.0054250917
51.9873076341
-22.939093644
-22.9017573731
-22.9323520676
-22.8974271156
52.5826909233
52.9402367279
53.9771183766
-22.8765288588
-22.8639059716
-22.8797066254
-22.8844045739
53.6972020066
54.6775064767
54.9075739787
-22.8410615398
-22.8070691688
-22.8682276963
-22.8205917317
54.8521830234
55.2151946697
55.6993059417
-22.8093645313
-22.8061587055
-22.8168345568
-22.8295111187
56.7344901443
56.3013286482
57.0427712656
-22.7886371933
-22.8232347264
-22.8273640336
-22.87710499
58.4549504681
57.6537968702
57.8647258421
-22.8918821055
-22.9312285935
-22.9186977317
-22.9517823036
58.1120061152
57.5603843609
57.496355188
-22.9827876419
-23.036699112
-23.0030070557
-23.0461909012
61.8826229148
56.1086229531
62.099530802
-23.1015176828
-23.0231309605
-23.100144103
-23.0142352769
55.0400251695
55.8014895241
-22.9008711692
-22.9239687809
-22.904829244
-22.9315262033
55.9095674564
56.438245812
56.2960800165
-22.9135738843
-22.8378088789
-22.9282680027
-22.8732610405
56.2648188897
56.4216919367
56.2607888624
-22.8516965456
-22.8888444901
-22.8940029109
-22.915961062
57.0221856242
56.5366058702
56.9576828316
-22.9020654731
-22.9396134906
-22.915964678
-22.9506942105
57.3954658054
57.2840791281
57.4407250507
-22.9473079681
-22.9759985797
-22.9619572817
-22.9921600615
57.4896728693
57.3721690861
57.9741589819
-23.0175563776
-23.0529005563
-23.0306034023
-23.0596667379
62.7526354208
57.4729747079
63.8607880919
-23.1050089934
-23.0119300045
-23.1107816431
-23.0151198038
56.8642743563
-22.9618608617
57.8522471778
-22.970895995
-22.9993379719
-22.9751126269
-23.0003591008
58.861845034
-23.0335440257
-23.0583872738
-23.031430742
-23.0570785532
64.9565869725
-23.1110908069
-23.0113144671
-23.1076620656
-23.0112110978
1776.72441503
1777.4568718
638.81997499
639.963425986
1778.86292386
638.479353015
1774.96734264
1778.73861979
1781.88383943
639.531594475
639.144397141
1780.41382808
1781.04869129
638.647123965
1783.98672297
1780.35834826
645.348371362
642.180265244
1781.52405669
644.292357076
1782.80842002
1785.45503052
1784.23938564
646.638010594
646.206504475
1785.59190724
645.667561767
1784.17838925
1784.93192667
1783.57356199
641.285682544
642.444965519
1782.6500257
1785.49770874
643.218461253
1786.35317757
1787.08417256
645.469307205
643.943458238
1786.54204829
1786.78617316
644.718475786
1781.71180757
1782.87536192
644.997152991
645.799491209
1784.24771499
644.62593747
1780.35662325
1779.1408604
1775.72782263
643.138004496
641.926028385
1776.9850381
642.891724739
1777.7812413
1782.99189114
1786.21325265
645.422901546
644.617152552
1785.37626667
1784.11858003
644.469722322
1780.4184478
1779.49832516
641.864205736
643.163863374
1778.28554961
1781.6449156
642.847059446
1777.71317281
1775.67533214
643.526326889
641.669252884
1776.65512393
642.87426649
1776.90195149
1779.46539997
1780.47617763
646.277413506
647.769204249
1781.38774773
645.551979298
1778.67165679
1778.60788933
1778.73572089
641.444949591
642.361116663
1777.73891438
1779.47801148
642.51040831
1780.28357971
1783.01189963
647.387408521
644.763493616
1782.17598521
1781.07922748
645.070683897
1783.89612798
1781.80104376
651.246029197
649.800919255
1782.82108711
650.797240794
1782.8558939
1784.79517609
1784.96081792
651.690941002
652.173308186
1785.73782349
651.252814506
1783.80992412
1784.78606735
1784.58055678
649.650950645
650.78878029
1783.66585461
1785.78475032
650.774581645
1785.64732339
1786.90383597
652.00459854
651.4350308
1786.32677216
1786.54059018
651.215547231
1787.52079313
1786.13528248
655.354513431
653.503846312
1786.61917972
654.68083374
1787.26572453
1788.11850709
1788.8588637
656.487552143
657.040991874
1788.42476722
655.789584515
1788.14274119
1787.50423627
1787.13711735
653.186799795
653.872497696
1786.93444741
1787.44151584
654.252321757
1787.71229545
1786.95813284
656.43208413
654.755492898
1787.51873478
1787.44012027
655.206652132
1787.13256042
1789.01356971
659.82959994
658.155745921
1788.20592166
658.916114267
1788.40302538
1785.68526227
1785.67789085
660.22991926
658.237162136
1783.58490028
658.89341013
1787.2148802
1785.77909652
1786.01355357
657.223564443
656.440457664
1786.97286765
1784.43007687
657.63229201
1784.06228545
1780.01961855
656.841694484
656.187128251
1781.81426444
1782.41012903
657.455976124
1778.60166332
1783.72066315
658.042220381
657.222356269
1781.20146224
656.041252702
1781.13898388
1775.59784303
1773.40900724
657.038310446
654.982152772
1771.43287803
655.065297286
1777.88990384
1776.89921369
1777.7169595
655.883341955
653.966467817
1779.48530688
1775.37166057
654.879715984
1773.99212608
1769.96454658
653.631880454
653.149047673
1770.24342313
1772.90568267
653.816384915
1758.91735035
1767.69287276
686.44233539
656.319139597
1765.73544886
663.995267672
1760.65606984
1746.58988772
1742.03784335
758.441803421
618.759109416
677.762519527
1757.14788897
1744.59570019
1760.3418352
1766.51621003
655.166647946
660.738732097
1765.47085746
1762.86458376
663.325631349
1750.28035183
1773.17428725
616.928290889
670.648812578
1752.56739486
675.803783903
1765.06824729
1804.79920743
1809.45288371
652.632981831
653.243038888
1804.41774104
651.94620594
1808.77915338
1800.19360322
1792.77967572
649.714641814
647.198909439
1798.64016243
1795.22591775
649.87453311
1804.76344683
1806.53456584
652.130760081
650.450052646
1803.85901042
651.18676807
1807.90196994
1800.88803494
1796.94808854
647.716503046
649.397451062
1796.64758185
1800.57508893
649.70936188
1787.00186909
1787.79952467
640.519314113
644.29752994
1784.36679729
1790.61676957
642.047758503
1784.94787276
1783.0679786
639.55680757
640.35364404
1782.94364532
1784.24400747
640.655804513
1788.83764778
1793.21333258
645.279948865
644.111390134
1792.43529694
1789.82377424
643.211831067
1786.51450815
1786.25527602
641.439618534
642.865536008
1785.41556417
1787.4855503
641.800909712
1785.79828749
1784.14495893
641.988438981
640.933806392
1785.65239149
1784.71139247
642.174352742
1786.7892363
1787.18544753
643.619704735
644.911422029
1786.86993289
1787.16976986
643.721784322
1786.16630574
1786.03486376
641.94309116
644.069803692
1785.45322571
1786.43155577
642.999613972
1786.87253719
1787.10797474
645.470729944
645.241918166
1787.22765671
1786.88021312
644.408120415
1785.45456075
1786.53655452
645.094917325
645.696349571
1784.84150185
1786.76525365
645.634143323
1783.623938
1780.45241002
643.902743443
643.827674204
1782.60958354
1781.71319818
644.762316708
1785.99792538
1786.91621902
646.273454061
646.816972283
1786.99394796
1786.19872817
646.339434657
1784.48595069
1783.91772762
644.918458191
646.390183164
1782.9007801
1785.1134819
645.633618126
1780.9339722
1779.43829689
642.619745515
642.905508095
1779.96439425
1780.64097468
643.441769497
1782.19018801
1783.35813463
644.645193302
646.981329241
1781.42496746
1784.01371658
645.090334957
1781.99095911
1783.15080361
644.226697512
645.833297241
1781.95318987
1783.04601823
644.562991611
1782.99779986
1784.72912081
647.420214188
646.779814923
1784.45204572
1783.66195471
645.854497114
1786.83590857
1785.0326409
650.909797831
649.151238362
1786.38910668
1785.60745625
651.233506567
1787.57134252
1787.13015622
652.346170509
653.259398919
1787.00328656
1787.51897339
652.751417008
1787.08790377
1785.98215669
649.30161412
651.256367006
1785.90470976
1787.17123933
651.35738289
1787.76400534
1787.64966593
653.42582977
652.68817484
1787.69516124
1787.70174701
652.884050624
1786.33948805
1786.92797945
653.598453511
653.231486986
1786.57224939
1787.04094904
653.480752062
1785.62863289
1785.56801734
654.331849153
654.302663624
1786.197457
1784.60466886
653.960735038
1786.19190162
1787.12429259
653.388885297
653.748107069
1787.10429468
1786.24314822
653.585332467
1785.10340995
1783.16804097
653.897782281
653.815664724
1783.74128294
1784.92543225
653.811121162
1781.47637123
1784.50713543
655.520788333
654.444250053
1782.84568482
1783.21366926
654.560476233
1779.60658008
1778.47778103
655.29795817
654.173054577
1780.81101397
1777.62204989
654.414392204
1780.62499301
1781.49546637
653.963697093
653.435553759
1782.24747676
1780.03745841
654.059033298
1779.05660789
1777.99294545
653.886338823
653.628324775
1777.54361611
1778.94248471
653.944121751
1774.0496192
1776.19478705
653.361226803
653.698419716
1774.06048992
1775.73820321
653.15399559
1772.62871782
1770.26910051
652.766230175
652.724768814
1772.13100203
1771.63385837
652.827523263
1775.03387368
1777.1110034
653.681151994
653.876051764
1776.17835517
1776.41109337
653.429781761
1774.03666557
1775.22430649
653.259201183
653.770138136
1773.53961404
1775.7308699
653.243401354
1768.23453362
1768.36067962
660.403593495
653.692335545
1765.84826638
1770.42815951
659.989143544
1761.00240734
1781.57101733
670.280194051
628.841878136
1758.15130805
669.31846854
1786.04439021
1770.59629246
1774.29484407
654.555107167
659.811423734
1772.81996184
1771.51741051
660.210806922
1762.81017243
1788.77045859
629.985191571
666.645818023
1762.57749611
667.891135256
1788.36165803
1800.85557853
1804.93481363
649.616786264
649.620717931
1802.46326075
648.90862801
1803.15616204
1798.33438679
1796.48692436
648.701877447
647.250046246
1799.58344638
1795.68343767
648.165988068
1799.43389323
1799.87695335
648.863999247
647.748216603
1798.13470667
648.29573737
1801.46066496
1797.26500173
1794.40908259
647.222208029
647.45080521
1795.004903
1796.31135204
647.776943198
1790.35580596
1793.29822138
644.731837431
646.163476034
1790.27591059
1792.96675904
645.397702983
1788.46746281
1787.00960194
643.858270985
645.031669627
1788.13788331
1787.4593072
644.880008506
1790.47538982
1792.46813335
646.517433993
646.697310281
1792.72169401
1790.52789167
646.084408174
1788.78418424
1788.09398308
646.072363145
646.629400945
1787.81491772
1789.0409902
645.848134896
1786.98824971
1786.66526894
645.29534675
645.731947662
1786.85227111
1787.01298331
646.391971701
1786.9105499
1786.94764041
646.211716035
647.486172776
1787.01587074
1786.55285047
647.147949446
1786.97576174
1787.43881148
646.792487045
648.11989614
1787.2633271
1786.92958009
647.320091044
1786.62430439
1785.5983092
647.855731462
648.322894275
1786.04062074
1786.34606561
647.748516884
1785.51120022
1786.60844598
647.105090892
647.592953836
1785.99665569
1786.06004312
647.384349958
1784.96948078
1784.43084552
646.865285986
647.264037284
1785.20971352
1784.57690091
647.185246056
1785.00843484
1784.98339084
647.772171272
647.949256698