/*--------------------------------*- C++ -*----------------------------------*\
| =========                 |                                                 |
| \\      /  F ield         | OpenFOAM: The Open Source CFD Toolbox           |
|  \\    /   O peration     | Version:  v1906                                 |
|   \\  /    A nd           | Web:      www.OpenFOAM.com                      |
|    \\/     M anipulation  |                                                 |
\*---------------------------------------------------------------------------*/
FoamFile
{
    version     2.0;
    format      ascii;
    class       volScalarField;
    location    "0.4";
    object      alpha.water;
}
// * * * * * * * * * * * * * * * * * * * * * * * * * * * * * * * * * * * * * //

dimensions      [0 0 0 0 0 0 0];


internalField   nonuniform List<scalar> 
28582
(
1.00000000528
1.00000008746
1.00000010142
1.00000015089
1.00000003492
1.00000003373
0.999999806434
0.99999979357
0.00183264962862
0.00225628033724
1.01387897196e-10
0.999999736393
0.996303711808
0.990201875497
0.999999934665
0.999999864816
0.992191671708
0.999999344373
0.999999933546
1.00000000112
1.00000034605
1.00000033178
1.00000003885
1.00000029556
1.0000002883
0.9999999837
1.00000005699
0.999999841616
0.999999971211
0.00165923231833
1.97877627297e-10
1.16981170124e-10
0.999999696174
0.999999776654
0.993457024706
0.990191361581
0.999999859169
0.999999897283
0.999999965602
0.999999364066
0.999999970325
0.990328777138
0.999999493553
0.999998826938
0.00208449052535
0.00241702241088
3.58152542681e-08
1.13860809268e-07
0.00264911822564
5.68220028047e-09
0.999998274068
0.999998858395
0.995448763618
0.994470584684
0.999998951469
0.994071470682
0.999997881419
0.999998007277
0.999999038728
0.991463855661
0.994823609154
0.999998959192
0.995185197796
0.999998574737
0.999999494308
0.999999214839
0.993448847163
0.989793326198
0.999999865064
0.988227021961
1.00000015968
0.999999647436
0.990116123018
0.994790777359
0.999999001646
0.990708186317
0.991755620986
0.999999880867
0.999999545494
0.994883319172
0.990162858099
0.999999852277
0.99083350876
1.00000002717
0.992187838582
0.00155861425807
7.87201286071e-10
0.00239073162088
0.00209330363275
2.04330532458e-09
1.37332789036e-10
0.00102152612908
5.10769095261e-08
1.50812931174e-09
0.00100029017497
3.81203660877e-08
0.00152467011171
1.34543757838e-08
0.99999869925
0.999999119386
0.993211462395
0.994891521516
0.999996897651
0.999998477689
0.99358928091
0.999998163457
0.999999548268
0.990272370315
0.995341196212
0.999997682764
0.999999531227
0.995179617229
0.995610178865
0.995131550811
0.999999972855
1
0.994975329051
1.00000035785
0.996356232009
0.999998931588
0.993556666393
0.991902620176
0.999999183801
0.994220734798
0.999999970325
0.99128880077
0.999998739128
0.999998423854
0.990160156575
0.993789949518
0.999997913794
0.999998822904
0.994409215606
0.999997496701
0.999999153059
0.99296264544
0.994182871278
0.995517181551
0.999999207447
0.993318994507
0.992497541612
0.993762287859
0.999996676657
0.999998694852
0.99403371782
0.999998855277
0.996064504691
1.00000007902
0.999999604845
0.00186145940645
1.73921538259e-10
0.999999738788
0.99635630483
0.999999114499
0.999999443986
0.992720394781
0.995692730454
0.989765783031
0.999999627249
0.999999701979
0.993318308757
0.98792030388
0.00182865923172
0.00122084513918
0.00150339899978
1.06912421276e-09
5.34851201103e-08
4.46023761188e-10
0.00131352478002
0.00132972043182
0.999999688782
0.999998908641
0.99124929082
0.995928479173
0.999999101903
0.990966212854
0.999998329296
0.999998382627
0.99999725632
0.991789136001
0.988810637674
0.999998613815
0.999998156539
0.987710468085
0.999998332555
0.999993707146
0.989248986372
0.99369008772
0.999999133321
0.990458005738
0.999994377314
0.999999614903
0.999994864928
0.991305804145
0.988992286259
0.999999656688
0.993598968721
0.999995963508
0.999998966121
0.999994256779
0.986069294782
0.991286153415
0.999998839439
0.98781150337
0.999994857835
0.999999078003
0.999991544703
0.988906250968
0.985446044063
0.999999446812
0.992447856972
0.999993546429
1.00000031518
0.999999800887
0.999999967575
0.999999917856
0.00399734171218
0.00538897948651
0.00196883909823
0.00286859226116
0.00224328390197
3.46702607288e-10
-1.08504530593e-28
5.3653274855e-10
8.77051644751e-10
4.76293909299e-10
4.67680672905e-10
1.00000015254
1.00000016873
0.997647829394
0.9964676374
1.00000013461
0.997420391503
1.00000009135
0.999999942977
0.995928414451
0.997560791158
0.999999968017
0.999999897023
1.00000004193
0.997315008713
0.998153050946
0.999270119405
0.999582838999
1.00000055702
1.00000053759
0.998383412591
0.999016964794
0.999586387913
0.998923109128
1.00000008297
0.999999868002
0.997748334561
0.997945662862
0.997118816307
1.00000016763
1.00000006342
1.00000018547
0.997151050223
0.995770707943
0.997838377374
0.995581355788
0.99663982258
0.994143046127
0.00394476736285
0.00379603260684
0.00481878910184
5.755482505e-07
7.01937245989e-09
1.78501654315e-09
5.1207084867e-10
4.17498515468e-10
1.28379603949e-09
9.50043908776e-09
1.38766503323e-08
0.0036774169852
0.00272852694396
0.00481204902719
0.00264297195629
0.00264242042942
3.38125995697e-07
6.19086512867e-08
2.299999345e-07
9.70812481533e-10
0.00519137373977
0.00350729528327
0.0032771506461
5.92330651011e-09
2.7937143781e-07
4.23979238393e-07
3.09155535301e-09
0.00246996763933
0.00164840263415
9.26852193283e-08
2.28802124427e-07
7.93094090671e-10
0.0025036366342
0.00211493058065
0.00220209408862
2.03983539475e-09
1.91270471382e-07
1.76563798364e-07
2.65341027168e-09
1.00000002024
0.999999843697
0.995636950381
0.998354296596
0.999999924226
0.997869240659
1.0000003937
0.999999855023
0.999999188983
0.997166883736
0.995403886472
0.999998967937
0.99999940359
0.996897647667
1.00000053519
1.00000039571
0.997388086336
0.997443625594
1.00000076508
1.00000088669
0.998685841017
0.999998988431
1.00000026115
0.994197280529
0.99728697088
1.00000030695
0.999999771569
0.997005278844
1.00000040192
0.999999765112
0.99798808484
0.99647910489
0.999999792303
1.00000049727
0.997250059153
0.999999982472
0.999999828366
0.997016231842
0.997672677615
1.0000016171
1.00000046223
0.998760740347
1.00000256749
1.00000176649
0.997158491267
0.999341383534
1.00000308493
1.00000381596
0.999268740015
1.00000041531
0.999999922215
0.998138293146
0.999458246681
1.00000034021
0.999999930875
0.99886608165
0.999999900609
1.00000097214
0.998670874155
0.999427248642
1.00000111278
1.00000139707
0.998977086377
1.00000142629
1.0000008537
0.998319510915
0.999519916366
1.00000134737
1.00000347925
0.999887281553
1.00000243947
1.00000183627
0.998707515176
0.999759496048
1.00000157569
0.999898717144
1.00000314842
1.00000173144
1.0000009501
0.998715066391
0.999084929036
1.00000149659
1.00000155458
0.9989580789
1.00000048537
1.00000147464
0.997577647699
0.998741483279
1.00000226102
0.998508596127
1.00000002993
0.999999444397
1.00000007987
0.998274302875
0.998922305349
0.999998582567
1.00000002907
0.998982121264
0.999999044134
0.999999603762
0.998175518685
0.998478049876
0.999998527002
0.999999730366
0.998991399929
0.999999036497
1.00000004484
0.997320616728
0.99844637862
0.999999792934
0.999999653258
0.998192953239
1.00000054558
0.999999965641
0.996214269803
0.997837458823
1.00000038957
1.00000072675
0.997579588117
1.00000064997
1.00000045694
0.995019209472
0.998565997777
1.00000102027
0.998516672524
1.00000145123
1.00000080926
1.00000062203
0.995848577857
0.997861352247
1.00000061363
1.00000102574
0.996326241543
1.00000071285
1.00000160691
0.996701090771
0.996420559535
1.00000190178
0.99705744415
1.00000138518
0.999999799656
0.999999836863
0.995955734756
0.99679306143
0.999999762368
0.999999679747
0.995470721556
0.999999845825
0.99410755487
0.999999479672
1.00000014191
1.00000011706
1.00000008706
1.000000336
1.00000031412
1.0000002852
1.00000005592
1.00000005123
1.00000004961
1.00000028274
1.00000026037
1.00000021379
0.999998174018
0.999999426157
0.999999656972
0.999999936308
1.00000007418
1.00000015887
1.00000018628
1.00000019981
0.999996282116
0.999998362561
0.999999599883
0.999999941333
1.00000002076
1.0000000571
1.00000008252
1.00000006924
0.999999913704
0.999999911031
0.999999856765
0.999999949504
1.00000001749
1.00000004641
1.00000006443
1.00000005997
0.999999922734
0.999999913758
0.9999999777
1.00000003113
1.00000001233
1.00000006016
1.00000007082
1.00000006342
1.00000013342
1.0000001276
1.00000012473
1.00000007893
0.999998447118
0.999999267177
0.999999569327
0.999999889678
1.00000003456
1.00000011431
1.00000014946
1.00000017444
0.999997368128
0.999998713604
0.999999596041
0.999999936169
1.00000000686
1.00000003751
1.00000006547
1.00000003209
0.999999830702
0.999999866009
0.999999877752
0.999999953571
1.00000001036
1.00000003742
1.00000005762
1.00000004983
0.999999914091
0.999999903577
0.999999963919
0.999999997114
1.00000003281
1.0000000625
1.00000007406
1.00000006976
1.00000005441
1.00000006776
1.00000008416
1.00000006354
0.999999020198
0.999999656289
0.999999664055
0.999999709822
0.999999841517
0.999999943501
1.00000001312
1.00000016142
0.999999267808
0.999999252301
0.999999665358
0.999999891785
0.99999993657
0.999999954856
1.00000000401
1.00000002896
0.999999891497
0.999999909426
0.999999905716
0.999999932372
0.999999955977
0.999999969854
0.99999998892
1.00000000369
0.999999993238
0.999999909065
0.999999943472
0.999999961435
0.999999963722
0.999999977979
0.999999995326
1.00000002132
1.00000001661
0.999999938613
0.999999962383
0.999999966882
0.999999976909
0.999999990192
1.00000002254
1.00000000234
1.0000000501
1.00000009586
1.00000007919
0.999999731298
0.999999706249
0.99999967652
0.999998178915
0.999998837426
0.99999909583
0.999999350352
0.999999610713
1.00000051838
0.999999283302
0.999999767133
0.999999295035
0.999999686803
0.999999522673
0.999999603012
0.99999957903
0.999999598516
1.00000017913
1.0000000258
0.99999979782
0.999999685707
0.999999684657
0.999999639834
0.99999961991
0.999999616295
0.999999624533
0.999999490773
0.999999900044
0.999999838463
0.999999834165
0.999999776072
0.999999757602
0.999999739901
0.999999673724
0.999999635968
0.999999536868
0.999999812656
0.999999842808
0.999999772108
0.999999800625
0.999999749224
0.99999968224
0.999999553525
0.999999620475
0.999999680626
0.999999546789
0.000999815148535
0.00121625152769
0.00129069325338
0.000961201841441
0.0013996572218
0.00144503964883
0.00156216632259
0.00214678009936
0.0037748310659
0.00111784960568
0.000726801225475
0.000730459086147
0.000977665003052
0.00184142391976
0.00218183081653
0.0019498862967
0.00140671851877
0.00191881342926
0.0022713126219
0.00196039043437
0.0020002297822
0.00207342973357
0.00213498456618
0.00222474750317
0.00232194784005
0.0023396094942
0.00233524235093
0.00305218836422
0.00235953119349
0.00238536934581
0.00229420175934
0.00230802053402
0.00226090064929
0.00230219245801
0.00230886817307
0.00241912090531
0.00329050560409
0.00224110220265
0.00238292597881
0.00222293603793
0.00229082410047
0.00225533817492
0.00228333873716
0.00310823517348
0.00189845206552
0.00189798551192
0.00230925248194
9.7665805932e-10
1.66990874401e-10
1.18173386075e-10
6.70695205759e-11
8.77525034621e-11
1.1951962059e-10
1.06382614072e-10
2.6710481771e-10
1.5714252894e-10
2.51391764479e-09
7.39487627773e-10
3.28164162647e-10
2.02520299196e-10
1.31156259936e-10
7.69957131249e-11
1.85262438572e-10
3.35470256055e-10
1.5828198556e-10
2.36906861471e-10
3.77422331443e-09
3.02171951054e-10
5.26911574085e-10
4.26681260182e-10
3.68873404531e-10
3.76651948854e-10
3.54752704517e-10
3.26796372974e-10
2.54767906936e-10
2.82340940555e-10
9.46098243937e-09
4.67880512301e-10
2.00198701429e-10
4.82233336292e-10
4.15187802065e-10
3.29664613169e-10
2.86033495112e-10
2.26718742167e-10
2.73650429632e-10
1.08454372316e-08
2.32266519653e-10
2.1230601035e-10
2.39768901621e-10
2.83828513472e-10
2.48273597462e-10
2.3443710706e-10
7.07435215483e-09
1.87691276449e-10
1.48778152944e-10
2.83765274556e-09
0.999998635791
0.999996459901
0.999996581475
0.999997536211
0.99999865117
0.999997209116
0.999997182438
0.99999912897
0.999996872397
0.999998218772
0.999997878308
0.999998552389
0.999997484515
0.999998549809
0.99999688575
0.999998300473
0.999999036642
0.999996223328
0.99999724941
0.999998253373
0.999998821717
0.999998510676
0.999998858983
0.999999105451
0.999997613379
0.999998308434
0.999999095667
0.999999339576
0.999998550924
0.999997351229
0.999998155158
0.999998320705
0.999999265538
0.999997936684
0.99999904711
0.999999165613
0.999997936051
0.999998497888
0.999998967924
0.999998986192
0.999999090716
0.999999024782
0.999997999339
0.999998356335
0.999999203761
0.999997862441
0.999998734198
0.999998857694
0.999999278955
0.999998763412
0.999999102763
0.999999278659
0.999998788873
0.999998759736
0.99999954846
0.999999540041
0.999999437666
0.999998894444
0.999999288189
0.9999990313
0.999999464808
0.999999626381
0.999999665721
0.999999652989
0.999999372454
0.999999221618
0.999999481464
0.999999448648
0.999999757982
0.999999599916
0.999999124369
0.999999256104
0.999999563958
0.999999631364
0.999999748446
0.999999329929
0.999999720283
0.999999237714
0.999999622446
0.999999594172
0.999999791384
0.999999386731
0.999999803536
0.999999733847
1.00000023528
1.00000000761
0.985786351336
0.987377200173
0.999999282769
0.999999298367
0.999999239865
0.991214934016
0.986868573925
0.992027212039
0.991120411033
0.999999539619
0.999999480325
0.999999442336
0.992359445173
0.989546149083
0.995633154036
0.993611138753
0.999999319946
0.999998955062
0.9999980248
0.993249666405
0.991323861032
0.996605845465
0.99184046686
0.999998241188
0.999999050254
0.999999223067
0.995237234489
0.990782681924
0.994799545603
0.988532759381
0.999998753907
0.999999087082
0.999998968668
0.994323606093
0.988416081351
0.992389934823
0.987083356363
0.999998021947
0.999999147926
0.999999274639
0.993039935529
0.984826698775
0.991616506784
0.986344263121
0.999998729716
0.999998367774
0.999998764937
0.990699487311
0.980017002529
0.991466777487
0.983469925267
0.999999231674
0.99999854139
0.999998332193
0.98754386206
0.971700730777
0.988421929293
0.974017200542
1.00000042652
0.999999961942
0.998325253606
0.989221394735
0.999105872964
0.992932698652
1.00000028878
1.0000003326
0.999999729051
0.989450013326
0.987888900395
0.994634288461
0.989201225972
0.99999961646
0.999999585835
0.999999347947
0.992311513417
0.990570078586
0.992832391783
0.98928037851
0.999999625589
0.999999772374
0.999999566112
0.994932933689
0.992685624109
0.993076000622
0.990011788162
0.999999505405
0.999999731208
0.999999416421
0.995922331042
0.991615523548
0.993368359689
0.98883657544
0.999999384577
0.99999938427
0.99999935572
0.993682090483
0.988209838523
0.992343518045
0.987724851946
0.999999286565
0.999999420249
0.999999318368
0.991367158429
0.986205145697
0.991358371971
0.985975106396
0.999999199667
0.9999993226
0.999999185972
0.990537750813
0.985137213942
0.990319802917
0.983862420576
0.999998924651
0.999999234693
0.999998667905
0.990823996159
0.982812551318
0.989535916164
0.979780728875
0.999999438693
0.999998738468
0.999997773907
0.98831811458
0.974030619762
0.986886744322
0.96926160349
1.0000003981
1.00000026177
1.00000011142
0.996102957368
0.992183219908
0.996450322564
0.993051346483
1.00000010446
1.00000022212
0.999999742004
0.993162259431
0.988806871513
0.99504335394
0.990695679686
0.999999893039
0.999999947569
0.999999699729
0.99147320575
0.988749212168
0.993351658001
0.989931419288
0.999999817405
1.00000007503
0.999999730466
0.991857986469
0.989452284574
0.992962954164
0.989508596508
0.999999684382
0.999999942951
0.999999675676
0.992281314708
0.98884534434
0.992777266385
0.989108821226
0.999999555399
0.999999770436
0.999999502247
0.991821177644
0.987776507748
0.99243721622
0.987890944373
0.999999415323
0.99999955638
0.999999309768
0.991083063832
0.985788276993
0.991613777869
0.986033611132
0.99999926276
0.999999304117
0.99999910314
0.989951881316
0.982961077771
0.990425611872
0.983159890582
0.999998912675
0.999999204283
0.999998897331
0.988695567351
0.9782373114
0.988853361979
0.97821719531
0.999998572621
0.999999007069
0.999998196529
0.98577794612
0.967227788656
0.985500729482
0.966233152023
0.994893077758
0.992693639229
0.999999968368
0.999999911282
0.993719538278
0.990703893735
0.990154152859
1.00000018446
0.999999826093
0.99999979736
0.992826901336
0.990111371538
0.992031028977
0.990269787006
1.00000006097
1.00000018746
0.999999908473
0.992419912437
0.989378515113
0.993478556146
0.99029372861
0.999999877778
0.999999917407
0.99999958809
0.992231219367
0.989292624282
0.992969492471
0.989377085546
0.999999733349
0.99999987307
0.999999607676
0.992156363477
0.98804593782
0.992761604759
0.988362042527
0.999999510273
0.999999821319
0.999999468827
0.991427727355
0.986037689164
0.991952970602
0.986527126231
0.999999267969
0.999999462978
0.999999127512
0.990310951825
0.982900129463
0.990797264806
0.983583497094
0.999999191167
0.999999206652
0.999998793786
0.988769340291
0.977569175524
0.989098918139
0.978492537049
0.999998974782
0.999999005975
0.999998062562
0.985238565019
0.965734879321
0.985626546781
0.966396085072
0.999999968992
0.999999643013
0.993064554004
0.990991398359
0.990797857332
0.999999901181
0.999999913913
0.999999961906
0.992931805218
0.989251177312
0.993084385946
0.990350692587
0.999999833839
0.999999894474
0.999999177244
0.992355952512
0.988349168721
0.993853867469
0.989543299743
0.999999694257
0.999999550959
0.999999641118
0.991606784281
0.986588741023
0.992545517373
0.987309958108
0.999999320074
0.999999352151
0.999999216993
0.99063711704
0.983655479758
0.991165742628
0.984986051845
0.999999145183
0.999998999415
0.999998884757
0.989303771668
0.978296025878
0.990190528563
0.980699284729
0.999998912632
0.999998765955
0.999998071806
0.985809766137
0.966328698621
0.987244220089
0.969832846392
0.999999084005
0.987993765698
0.999998648053
0.991398885095
0.985449877594
0.999998684818
0.990673040186
0.981379059764
0.999998609425
0.988246991983
0.971604244012
1.34194753931e-08
2.85510786524e-07
9.92432252455e-08
2.53299479565e-07
0.000659208767124
0.000697592452497
1.57014657102e-09
4.76016061775e-08
2.00553865079e-08
2.88188279497e-10
0.00081067644288
0.000422564902871
0.000522563133659
1.74960550743e-08
1.02858164819e-08
2.73561784802e-08
2.22824649926e-08
0.00111898820453
0.000586445868174
0.000726808910896
2.91559222364e-10
1.97698338402e-10
2.38659594171e-08
2.78271778206e-08
0.00100561152212
0.000838399718141
0.00126442515304
2.34561439996e-09
4.56343924941e-08
3.2664926337e-08
3.10384812003e-10
0.00109927350687
0.00130181710438
0.00164965141702
4.35210587029e-08
2.8831128788e-08
5.76931104596e-08
7.5563542909e-10
0.0012001943646
0.00184721105967
0.00178121893476
2.42996648527e-10
4.57161878499e-08
6.96059578079e-08
6.43092798916e-10
0.00133983995356
0.00149552152634
0.00153500061389
1.63987573978e-08
5.31617834954e-08
8.93707113577e-08
5.50592716752e-08
0.00159625269973
0.00134695799367
0.00138693026566
5.16922357811e-08
5.88815001164e-08
5.10653631017e-08
6.39584431524e-08
0.00314132987985
0.00192328723565
0.00341212663068
1.58781776049e-07
6.23931398138e-07
1.38679070487e-07
8.55051644456e-07
0.00194402600418
0.00270406071432
0.00186438650783
3.59151940155e-08
1.3672790779e-07
3.56746780775e-07
5.94343643449e-10
0.00051934280717
0.00143779834864
0.00140963752236
3.64807504375e-08
3.56792287901e-08
1.08637679589e-07
1.55701810435e-09
0.00061280898324
0.00139169740627
0.00143225743196
9.58687157575e-09
3.041918469e-08
8.60777879695e-08
1.26830252646e-09
0.000712122412713
0.00158567004397
0.00157638186572
1.46668383934e-08
3.15950882156e-08
6.19165954693e-08
8.66128343819e-10
0.00115881625132
0.0017492306386
0.00188790655316
1.27531731501e-08
4.57548364371e-08
5.12916709544e-08
7.31273763366e-10
0.00179742784181
0.00206224254874
0.0021371950532
9.50872742779e-10
6.06514768136e-08
1.14835667287e-07
1.27167220918e-09
0.00198553346041
0.00227428511257
0.00224539577152
1.45813805986e-09
1.07870288444e-07
1.33062747387e-07
1.93742106991e-09
0.00155958113527
0.00218542522459
0.00207843465767
1.22883309259e-09
6.81012445729e-08
9.84310727293e-08
2.07562817187e-09
0.00140929716286
0.00194903773843
0.00204685050101
5.36929029285e-08
6.96690144454e-08
9.82476882188e-08
1.98854053183e-08
0.00338917000299
0.0025587086009
0.00409833517365
1.35492832316e-07
9.00117529613e-07
2.49967245344e-07
1.13153414354e-06
0.00182989163946
0.00245040095112
0.0021835760454
1.73885524631e-09
1.74388599076e-07
6.77857210025e-10
4.72797085103e-09
0.00177843001624
0.00183251066178
0.00196002543727
2.43655030032e-09
1.25949137597e-07
1.8687751063e-07
2.30153130288e-09
0.00192456394888
0.00210622187562
0.00208643529037
2.53125579275e-09
1.1635992626e-07
1.70806206476e-07
1.87478339128e-09
0.00198012863964
0.00215672585123
0.00213597696928
1.66793972798e-09
1.2060580045e-07
1.55315342335e-07
1.73060164835e-09
0.00204485375272
0.00222686776481
0.00218213040943
1.11547945404e-09
1.2778047503e-07
1.62122453956e-07
1.67580586675e-09
0.00211970097626
0.00224764403875
0.00225168219307
9.64029023698e-10
1.34347521034e-07
1.6048396233e-07
1.45437562314e-09
0.00214810757476
0.00230717398166
0.00229602361028
1.02715997921e-09
1.23610217073e-07
1.61970205774e-07
1.44179163687e-09
0.0021090293146
0.00229870191377
0.00231281873255
1.06938100907e-09
9.77771304922e-08
1.42142883514e-07
2.46981602975e-09
0.00224514380079
0.00231458890439
0.00258041575281
2.14146036006e-09
1.23809239266e-07
1.30553961729e-07
3.02018231723e-08
0.00483532109912
0.00319436576768
0.0054261409473
2.33489976777e-08
1.85522199927e-06
3.97853162447e-07
2.19156546791e-06
0.00221107546265
0.00250664822585
3.16165472242e-09
2.07656669599e-07
1.33037015189e-09
0.00225737434023
0.0024155481841
0.00233682627431
2.62277409015e-09
1.77947518627e-07
4.73202021976e-09
1.97006539749e-09
0.00220334097407
0.00250540109042
0.00236248124578
1.47605865283e-09
1.67922056324e-07
1.84788012812e-07
9.61278884719e-10
0.00215320581356
0.00232921212185
0.00225632589122
6.29649348494e-10
1.78321006505e-07
1.55675760193e-07
6.46250811556e-10
0.00210683828948
0.00226653796234
0.00221407607895
5.82232097639e-10
1.57223472449e-07
1.41158711052e-07
4.3364365425e-10
0.00209960813462
0.00226296921246
0.00222029456598
6.96322157103e-10
1.45994638488e-07
1.29586437789e-07
4.67008383157e-10
0.00211905608847
0.00220685249327
0.00221990499544
8.92734309014e-10
1.27077944026e-07
1.18271590885e-07
9.8698734214e-10
0.00238953995011
0.00225008098561
0.00252293230414
2.12211857411e-09
1.75818270735e-07
1.14306097608e-07
4.59860339145e-09
0.0053372263966
0.00318460779508
0.00545777051281
1.77807285078e-07
2.41345842509e-06
3.7684305472e-07
2.15391912618e-06
0.00225066287571
0.00205583242444
1.74177067589e-10
1.82564906504e-07
3.61877697108e-09
2.22623724611e-10
0.00219375340496
0.00262595682759
0.00239407523086
1.50918393165e-09
1.56986042884e-07
1.62759388548e-08
6.72463240853e-08
0.0021036596675
0.00208063096599
0.00195900885638
1.22615128219e-09
1.17739258189e-07
1.18232861388e-07
2.44617339384e-10
0.00202737284483
0.00216390118472
0.00211355382796
2.03572560945e-09
1.47193163332e-07
8.53816518234e-08
1.14126296704e-09
0.00200486477774
0.00183417677759
0.0019184913184
2.23319078425e-09
1.29121225145e-07
8.77072189236e-08
1.1787923231e-09
0.00222620993127
0.0018311840836
0.00214064661563
3.06073138315e-09
1.53151189334e-07
7.50217568904e-08
5.3296564214e-09
0.00499159178428
0.00263811056441
0.00452341741455
8.09391216253e-08
1.97901529808e-06
2.23853601028e-07
1.30421516116e-06
0.00158593150289
9.3928619102e-08
0.00146147740346
1.48089886703e-09
7.44471109902e-08
6.40027758121e-08
3.57382958493e-08
0.00148923909274
1.04493299925e-09
7.84459215427e-08
4.16476653528e-08
5.26091080071e-08
0.00305534308621
1.72709780343e-07
7.63078788665e-07
1.37750432917e-07
6.65229870024e-07
0.999997375352
0.999997450913
0.980132313352
0.986834244754
0.999998411433
0.98951729598
0.99999869475
0.999998294358
0.999994972997
0.986296958766
0.985884536484
0.999997185997
1
0.990112059725
0.999996011521
0.999996517721
0.987114322393
0.98246796407
0.999995238965
0.986968206137
0.999994864971
0.999995998211
0.999996640598
0.983636194111
0.989765175161
0.999996661205
0.992421385454
0.999994153666
0.99999657856
0.999993230785
0.981955764475
0.988600367577
0.999998043883
0.999994573079
0.987708393154
0.999997421106
0.999995410355
0.990065950887
0.985853631371
0.999999293636
0.999996543138
0.993315575457
0.999998264267
0.999995357432
0.991214895078
0.986584428819
0.999997043579
0.988803550268
0.999996411365
0.999998035071
0.999999025904
0.988346450918
0.992567519939
0.999998873628
0.993646422409
0.999997636485
0.99999807061
0.999994847808
0.987328044302
0.99329580842
0.999999473778
0.999995375803
0.991238773522
0.999999104201
0.999995725713
0.993299380201
0.990837092478
0.999999447901
0.999996514209
0.99559598512
0.999998000438
0.999997632427
0.993182444663
0.989131813419
0.999997943313
0.989820554565
0.99999725041
0.999994417255
0.999998057018
0.989980245075
0.993608795721
0.999997383047
0.993910648026
0.999999300805
0.999994994561
0.999996182684
0.990093534662
0.994702885993
0.999999435168
0.99999577267
0.992293106959
0.999996184366
0.999998403714
0.99289009683
0.991213075069
0.999995808677
0.999998460608
0.995032455371
0.999996255439
0.999996534091
0.994131377362
0.989883505182
0.999996366683
0.991231372801
0.999994003237
0.999997713041
0.999991857502
0.989495885915
0.992919100029
0.999998648577
0.994861647737
0.999992698452
0.999998333128
0.999998965437
0.98894075456
0.993662168015
0.999996058496
0.999999063168
0.990759517098
0.999999282773
0.999998582768
0.992461458903
0.988534961583
0.999998448758
0.999998892179
0.993771079883
0.999998515941
0.999994402612
0.992021376685
0.987366410816
0.999998384203
0.988291551848
0.999996173498
0.999998856352
0.999992666615
0.986354135079
0.991648976349
0.999999277336
0.993183286101
0.99999359607
0.99999866466
0.999996820617
0.986942704215
0.992229086277
0.99999873079
0.999997728373
0.987785926034
0.999999100797
0.999998015905
0.991256943602
0.986948170795
0.999998113458
0.999997569279
0.992277875832
0.999996580487
0.999994273832
0.990355360954
0.985383443537
0.999999259518
0.986880395618
0.99999514957
0.999989154765
0.999998177538
0.982913044097
0.989018370885
0.999996088403
0.992253506939
0.999998287266
0.999998130426
0.999996193958
0.985128834244
0.990682199129
0.999997713259
0.999996873541
0.986843851182
0.999996349617
0.999993364291
0.988785155616
0.984060059878
0.999992173358
0.999999189041
0.991663473985
0.999995537206
0.99999784199
0.987409196003
0.980499857266
0.999994319543
0.983376202116
0.999997497507
0.999995473881
0.999993581787
0.977287732232
0.984859025272
0.999996322627
0.989839039851
0.999992592326
0.999994038671
0.999989442288
0.981227991353
0.987009562552
0.99999604415
0.999993489686
0.984452008409
0.999998182692
0.999988344817
0.983866186691
0.977645105515
0.999996951503
0.999991514264
0.990480370303
0.999991521349
0.999991050195
0.981248016277
0.973549975409
0.999989143112
0.978538514974
0.99999048205
0.999991821392
0.999988655691
0.966711504037
0.971441981954
0.985167975977
0.999990959954
0.999985314891
0.999993731803
0.999986887723
0.972198765708
0.980320385958
0.999997909986
0.99998683082
0.979516977017
0.999996903195
0.999980576994
0.970722121443
0.966138237841
0.999985041615
0.985247025168
1.0000004187
0.999999980186
1.00000087791
0.99627026986
0.998900813178
1.00000058783
0.997327534241
1.00000127205
0.999997155682
1
0.990624151292
0.99499593349
1.00000016994
0.99999997785
0.996581833494
0.999997455207
1.0000011717
0.99578509533
0.998659849585
1.00000077584
0.995931383041
0.999999017463
1
1
0.993201417508
0.995265816147
1
1.0000017336
0.994977293794
0.99999816406
0.999999426598
0.989368812205
0.988896400578
1
1
0.987629251853
0.999997982506
0.999995650999
0.985603034472
0.991401116101
0.999999723245
0.99999981402
0.991375488677
0.999997898283
1
0.987662555159
0.995061380624
0.999999380261
1
0.987652633863
0.99999973475
0.999999352608
0.990758842993
0.990403660269
0.999998950415
0.999999519987
0.990577447868
0.999999612009
0.999995244077
0.989438797186
0.987773725614
0.999995718006
0.999999191629
0.989744262268
0.999999520533
0.999994423497
0.986818717115
0.99257373238
0.999994928145
0.999999612454
0.994389554558
0.999999193323
0.999998411552
0.987408083401
0.993585572309
0.999999015554
0.999998369821
0.988547374353
0.999999538325
0.999999479362
0.99215925396
0.989902013269
0.99999950547
0.999998754434
0.992262503156
0.999999708185
0.99999571154
0.992941758531
0.989532502095
0.999996936355
0.999999279396
0.991204761081
0.999999401617
0.999995167521
0.990436641535
0.994380771968
0.999996368286
0.999999545706
0.995401655033
0.999999359262
0.999998397166
0.989093623846
0.994069048195
0.999999714191
0.999998702128
0.989942748509
0.999999602305
0.999999614071
0.993665316957
0.990800241918
0.999999294047
0.99999902423
0.993501361782
0.999999282564
0.999995701383
0.994152879442
0.99094982
0.9999973754
0.999998951235
0.991694885953
0.999999130334
0.999999445929
0.990225190206
0.994557410192
0.999997694556
0.999999410191
0.995051111674
0.999999059741
0.999999000111
0.990117925318
0.994095827791
0.999999446725
0.999998670358
0.990325265309
0.999999446408
0.999999317824
0.993487155811
0.990074696183
0.99999946291
0.999998766538
0.993302210405
0.999998757683
0.99999577034
0.992198084124
0.989810469156
0.999996351095
0.999998498863
0.988491266316
0.999998533303
0.99999753978
0.987179342149
0.992979531714
0.999998022511
0.99999859567
0.992013712984
0.999998579056
0.999998523982
0.989025863474
0.993575152507
0.999998816746
0.999998830949
0.988630861378
0.999998846774
0.999998878033
0.992390883272
0.989260972664
0.999999031941
0.999998390965
0.991796180302
0.999998302424
0.999994430708
0.99096633846
0.987871506374
0.999995691956
0.999997875486
0.985976393373
0.999998005203
0.999997014363
0.985206362546
0.991512936856
0.999997052578
0.99999806652
0.990263706939
0.999998057775
0.999998285222
0.987387457698
0.992433269927
0.999997852978
0.999998163026
0.98683582976
0.999998280564