/*--------------------------------*- C++ -*----------------------------------*\
| =========                 |                                                 |
| \\      /  F ield         | OpenFOAM: The Open Source CFD Toolbox           |
|  \\    /   O peration     | Version:  v1906                                 |
|   \\  /    A nd           | Web:      www.OpenFOAM.com                      |
|    \\/     M anipulation  |                                                 |
\*---------------------------------------------------------------------------*/
FoamFile
{
    version     2.0;
    format      ascii;
    class       surfaceScalarField;
    location    "0.4";
    object      alphaPhi0.water;
}
// * * * * * * * * * * * * * * * * * * * * * * * * * * * * * * * * * * * * * //

dimensions      [0 3 -1 0 0 0 0];
oriented        oriented;


internalField   nonuniform List<scalar> 
92311
(
0.200222472052
-7.87363039266e-05
0.000101036569805
-0.200175394084
-6.94136526027e-05
-9.89844831915e-05
0.200297515516
8.07114263189e-05
-5.68359880668e-05
0.200202453722
-0.000159338220596
9.33232679519e-05
-0.200151256621
-6.40044660895e-05
-0.000193272148466
0.200274183819
7.41353461402e-05
-5.16651771869e-05
0.200170383361
-9.13537280249e-05
-8.8958564101e-05
7.95958291274e-05
-0.200128388173
-5.01523869388e-05
-2.37210038695e-05
-2.67514574332e-05
-9.49961092796e-05
-8.82845822059e-05
-4.60841086642e-05
0.200220784231
6.14499821211e-05
-3.66340397469e-05
-3.92067180413e-05
0.0500203250241
-1.98377960475e-05
-2.64578958722e-05
-2.18065967248e-05
-1.86568896185e-05
1.17601905401e-05
-0.0500288035755
-7.89371665301e-06
-0.0500370708804
0.0500297781417
-2.65163654371e-05
-2.87873812546e-05
-2.26418151056e-05
-1.59281510151e-05
1.20877218123e-05
-5.9277309895e-06
2.85259991418e-08
4.82590915777e-05
-8.60943543845e-06
-3.90521244168e-05
3.53132153811e-07
-6.18223513201e-06
-2.58094375863e-05
5.6448240866e-09
-2.38273585724e-06
6.80746185811e-05
2.8853596339e-06
1.19636211062e-08
-0.000104091631839
5.49254156629e-07
-2.29834950008e-05
-0.000131491816216
5.72952474366e-07
-2.27895590905e-06
-4.9048012068e-13
-1.50976257978e-11
-1.50040113983e-10
4.3935357024e-11
9.13875369028e-14
1.26064809356e-13
-2.71657377287e-13
7.46796625124e-11
-2.77061810348e-05
-3.40480054941e-05
-2.4778939444e-05
-2.52807080141e-05
1.19060574506e-05
-5.87200091067e-06
2.27322959673e-05
0.0124466132789
1.32876303669e-05
-1.29039765723e-05
-0.0124500695681
0.0123849805504
-7.48100775911e-07
4.3210027181e-05
-0.0123540520514
2.16710698187e-05
2.63759268647e-06
-4.41471337997e-06
-2.99678148467e-05
0.0500373465739
-2.50682771406e-05
-3.34680898341e-05
-1.39727862731e-05
1.09972590953e-05
-2.01032283562e-05
0.050040614529
-1.13518794538e-05
-2.17014386727e-05
7.23002009605e-06
-0.050038335212
-6.87945526999e-06
-3.30762243086e-07
4.71320637045e-05
0.0124506887173
3.23778365378e-05
4.32444974764e-06
-2.00566460403e-06
0.012512910962
-1.5102318036e-07
-2.47287660364e-05
-0.0125159934469
0.0125108428764
-1.07404765492e-06
-1.75328195714e-05
-0.0125143576004
-9.15971578332e-05
0.200193015667
0.00024227875539
-0.000119559842208
-0.200224167221
0.200400957622
-0.000121719712213
6.15944862454e-05
-4.34955321958e-05
-0.000145267654398
0.200533690694
4.46160681874e-05
-3.22859933097e-05
-0.000129935483963
0.200201211711
0.000236308709805
-0.000124769827416
-0.200274466624
0.200377706164
-0.000245014102422
5.63700605549e-05
-3.67025544671e-05
-0.000294078150834
0.200512483442
4.04294430867e-05
-2.65196705436e-05
-0.000107494356375
-0.000103403502721
3.67075872984e-06
0.000223568561581
0.200146267461
-0.000106134789554
-0.200196037157
9.6412887691e-06
-0.000106232945201
-9.8711660853e-05
-8.64842493659e-05
-9.00651742083e-05
0.200331676056
4.83136087826e-05
-2.276647392e-05
0.0500051703912
-2.4014242416e-05
-2.25449868841e-05
-1.67777440859e-05
-1.63284365038e-05
3.72372693597e-05
-0.0500239196982
-4.63392409994e-05
0.0500449849791
-6.27063003863e-06
-2.73671856238e-05
-3.2110576512e-05
-3.22460787857e-05
-2.9361328687e-05
1.3483341689e-05
1.0253586788e-05
-1.06207463805e-12
4.98574333133e-05
2.05177258816e-07
-5.5323875099e-05
1.26720608737e-08
3.61005737557e-07
-7.35274291613e-06
3.06254231157e-12
1.86006055777e-11
1.39945412297e-13
4.14503868365e-13
-5.48230772989e-16
-4.4816198013e-13
6.83566784977e-14
-4.15449702824e-10
-1.52578569035e-10
1.54471453104e-12
-6.34119724941e-11
-3.80060343938e-12
7.95186904235e-14
5.31015248805e-13
-3.15614763157e-13
-3.59099637786e-05
-2.78593777021e-05
-3.5597324606e-05
-2.16112425637e-05
-2.72536770733e-05
0.050016994953
3.29270126319e-05
-1.2349007765e-06
-5.93497119831e-06
-4.49800936901e-06
-4.05701738862e-06
0.0500309998687
-1.43253084354e-05
-0.0500331827247
-1.72320985893e-07
1.59497286946e-05
0.0124305901837
2.78539284464e-05
-2.16123009586e-05
-0.0124149669427
-5.05309334822e-07
3.12150394483e-05
-0.0123466576338
1.66518420806e-05
-8.42589052833e-06
0.0123904564348
-5.59427685113e-06
0.0125037769841
4.02332159255e-06
5.40235871676e-06
-0.0125088548336
-3.65186060155e-06
-3.41792523456e-05
-3.59096969167e-05
-2.98744608794e-05
-3.10988063916e-05
0.0500690042658
1.1876223726e-05
0.0500536122644
-2.17671693754e-05
-2.72070827617e-05
-2.56053366243e-05
-2.62109674879e-05
-5.01808294655e-06
-2.83185862534e-05
-3.36191047795e-05
-2.53520754136e-05
-2.25785064415e-05
0.0500716635306
-1.99416278697e-06
-3.12350767487e-06
-8.15819491292e-06
-5.16657639683e-06
0.0125019921182
-4.48149160541e-07
4.92183037383e-05
-0.0123552301662
2.14727884233e-05
0.0123951845437
-2.96411692671e-06
-1.105956039e-05
-4.03003306719e-06
0.0125010669321
-0.0125160448862
-2.13788732304e-05
0.0125142022647
-8.00609671991e-06
2.93775912657e-06
6.89111233607e-05
-7.13980930508e-05
-7.73033768336e-06
2.22932752354e-07
2.2351081935e-06
-2.12951636019e-06
-3.0992624901e-12
-1.30996645466e-10
-1.88216734502e-05
4.74854728516e-07
-0.000133783039778
5.46790155383e-07
7.93092325796e-05
6.47443016699e-06
-0.000120984563901
-9.72125068253e-13
-1.26977202012e-10
4.90565292937e-11
-5.67653359832e-12
8.27907952185e-11
-2.12031710453e-12
-3.43192479162e-12
-1.45939895097e-10
-5.28850302731e-05
-8.67122361762e-05
1.04404015585e-06
8.22163371252e-07
-1.2207127201e-07
-3.41239021711e-12
-4.07690443711e-13
-6.70033076946e-13
2.99756104777e-06
0.0125074228817
-2.82308959619e-06
-0.0125047082583
-0.0124974985545
-4.09422141013e-05
8.94798112612e-06
0.0125050224213
-2.00160022686e-06
-2.04161655992e-05
1.03634215092e-05
0.0124324963308
-1.01375852965e-05
5.1499941802e-06
0.0124049099381
-0.0124622349848
-4.38380349101e-06
-0.0125083183307
-2.85899786913e-06
0.012425428655
-1.39506694969e-06
0.0125107898033
-2.74771048527e-06
0.0125176595442
-5.35499868931e-05
1.55498473745e-05
-2.31207898671e-06
4.11408882607e-06
-0.0125014076834
0.0125087944951
-2.339776464e-06
-2.98142907388e-05
-2.14737478555e-06
-6.1210363049e-06
1.54956687411e-05
-0.0124603877355
0.0124311732685
-2.08065797635e-06
0.0125151844195
-2.70700080727e-06
-2.31216514703e-06
-2.42718732988e-06
-0.0124974901014
-4.09732689225e-05
1.22329550044e-05
0.0125019015319
-2.207963745e-06
1.01030477193e-05
0.0125187389479
-1.64408285804e-06
-3.94936385204e-05
-6.94780488333e-06
0.0124420145539
1.39953393556e-06
-8.03844128786e-06
0.0123283026685
-1.97643736729e-06
-2.80862784596e-06
0.0123683172466
8.82925790975e-07
0.0125104335715
-2.37128962155e-06
-3.40098989716e-05
-0.0124937476239
0.0125017335897
8.10883275748e-07
1.89818731238e-05
-0.0123514650208
0.0123915706201
1.62570591914e-06
-0.012477432445
-1.0109324329e-06
0.0124547494303
-6.58113460415e-05
2.03479588637e-05
-2.03534327274e-06
-5.67063948305e-05
-2.42457458452e-05
1.57393597834e-06
6.27537044998e-07
-1.35693312074e-06
-1.84163169381e-05
-0.0124970060076
0.0125018218783
1.19073924216e-06
-1.57907438501e-05
-0.0124750082887
0.0124573384146
-0.0123597734787
0.0123970794542
2.13120638208e-06
1.68382604662e-05
-5.19002759539e-05
-0.0125030196686
-3.71338677646e-05
-5.36990491251e-05
-0.0124400680749
2.30225391857e-06
-0.0125109333484
7.14681738549e-07
-0.0123751439996
-2.37548488569e-12
-1.26569996434e-05
-1.31869054577e-05
1.88566473122e-07
6.47430118327e-08
6.72169517176e-08
4.79537720168e-05
-2.61960472493e-05
5.42410399647e-06
1.49678209064e-12
1.01315985166e-12
-3.46028366329e-11
-1.4876394043e-10
8.27791023102e-05
-4.68575694732e-11
-3.06353154118e-05
-4.82282662392e-05
2.83749966596e-07
-9.15688657676e-06
2.78589835215e-05
-7.6091225328e-05
-3.00376663242e-14
-9.69521981271e-05
6.3479310313e-10
1.53556468386e-07
6.32474143775e-05
-6.78784680539e-06
5.46463961044e-13
2.33681274587e-12
-2.00362529766e-10
-2.35747899477e-10
2.39451525817e-13
1.52360957543e-13
9.46804683258e-09
2.78643083748e-05
-5.10116345661e-05
8.71281267718e-08
1.10964266914e-08
1.49346239003e-07
4.48689951863e-06
1.05785191621e-10
5.09146825455e-12
-6.50373937636e-11
-3.18509770702e-12
2.49028217572e-12
6.28593764148e-09
-1.23029317515e-05
4.48442727936e-08
7.42055053636e-08
1.18308533114e-07
3.38586245788e-08
2.80167030365e-05
3.82658550825e-06
7.21654265945e-11
4.28731355494e-11
-2.15464521295e-11
2.7401183276e-09
-4.7945689809e-05
4.03404676209e-08
1.3220333559e-07
4.06262490194e-05
-1.07261772618e-05
6.93063307696e-12
7.33332073374e-12
2.05865361278e-05
-0.0124995382467
-2.83078810036e-05
0.0125022108138
-1.89780782425e-05
0.0125085189353
-8.96629976776e-06
-2.80990668645e-06
-0.0125033880865
-1.27346956708e-05
-8.58351233967e-06
0.0124192249892
-1.29515532892e-05
-7.57588018764e-07
0.0124093603431
-0.012452110671
1.04284790316e-06
0.0125041320236
-4.69768237839e-06
-0.0125059348796
-1.97053357781e-05
0.0124266770381
7.89828071784e-06
2.43871783687e-05
0.012508856347
-4.20097145815e-05
-1.68788673205e-05
-0.0124932365402
-6.88259701422e-06
-3.05783580115e-06
0.0124987850356
-1.91752041245e-05
-2.12859380976e-05
-1.69081063081e-05
1.95889319481e-05
-0.0124557913041
2.30090556011e-07
0.0124403874858
-5.45302084378e-06
-1.46391715365e-05
0.0125089353986
1.87604375838e-06
0.0124333246546
-1.58100129108e-05
8.32404098393e-06
-0.0124713468147
2.62251301586e-05
5.58482265848e-06
0.0124470005193
1.34184011466e-05
1.18986510163e-05
0.0125074472753
4.69716635034e-06
0.0125094535965
-2.21385645164e-05
-0.0125046894115
7.15633131709e-06
-0.0124526865956
0.0124269480859
0.0125097712906
-0.0124504504233
-5.52149020629e-05
0.0125141441684
2.56112377707e-06
3.19029516322e-05
0.0124534509956
2.71474548223e-06
0.0123828813205
2.80660616324e-06
7.51050613184e-06
-4.21629062264e-05
0.0125082913307
-3.94890985578e-06
2.48289127311e-05
-1.0622798971e-05
0.0124386891072
-9.50261107871e-07
0.0125155780408
1.41859736494e-06
0.0124070654126
9.67508159778e-06
1.51112752647e-05
0.0125169915084
-5.51124401976e-05
-2.86693723886e-06
-0.012505147979
1.89682479359e-06
0.0125137040726
2.85786059936e-06
4.97200802259e-06
-1.79789544288e-05
-3.28087568573e-06
3.35054088718e-05
-0.0124447101431
8.11407198354e-06
0.0124166333169
6.7522062745e-07
-9.42823650056e-07
0.0125222705833
1.24821284433e-05
-0.0125110406639
-3.35358839269e-05
-1.38017199388e-06
2.67411456386e-06
-4.7169130428e-05
1.3373506406e-06
-2.66242219366e-05
0.0124046113028
0.0124689136054
2.62217514631e-06
-1.33188279057e-05
0.012458465848
1.59463507205e-06
-3.96183709404e-05
0.0125091935024
0.012445149578
0.0124190429945
-1.6309460162e-05
2.62003337789e-06
3.99899976832e-05
-6.53589168622e-06
0.012452648853
5.16131189012e-06
1.21718873259e-06
0.0125161278191
3.1575985211e-06
0.0125162777457
-4.33708695938e-05
3.00171544504e-05
-0.012451941483
0.0124161105748
0.0125240179648
-0.000119330023311
-0.000107253773262
-0.000106409652687
3.24890194393e-05
0.200467667707
-0.000112742189528
-1.68188774428e-05
-3.56727946314e-06
-4.02390399998e-05
-3.26556067592e-05
-2.89603612999e-05
-3.25057621759e-05
1.04258870722e-05
0.0500771944274
2.22739687125e-07
1.92654290317e-05
-3.8174174809e-11
5.21662523528e-08
-1.71538173507e-05
6.53515059856e-07
-7.00733702876e-06
6.63791642821e-05
1.71868857395e-11
-1.10554078736e-10
1.83325851043e-12
4.55010816452e-13
-7.0977973066e-13
-2.09033056363e-10
-1.42968975747e-13
-1.94519300254e-05
-7.86926012876e-06
-1.14061202154e-05
-6.66937834726e-06
2.2665471314e-05
2.90726644037e-05
0.0500363561047
-1.01221518111e-07
2.98879788837e-05
1.22069886928e-05
0.0124604506168
0.0500782444556
-3.07424012406e-05
-3.03377794687e-05
-2.61933980132e-05
-2.66758965809e-05
-3.42897421564e-06
0.0500983197695
-2.50955555645e-05
-4.1101508481e-05
-2.60609654635e-05
-3.16178510857e-05
2.35350378457e-06
-4.88286159256e-06
5.65416038597e-05
0.012437317891
2.78388841686e-05
3.98849903304e-06
-2.03408726449e-08
3.91859810932e-05
-3.1574210413e-06
0.0124359586029
5.75217197042e-06
0.012415924929
-2.83988694661e-07
4.96736976644e-05
-1.66456928891e-06
-0.012361968606
5.99673255029e-06
0.0501125419205
-3.92369781858e-05
-3.99883627057e-05
-3.23742678135e-05
-3.37498675776e-05
0.000128731730293
6.41733587565e-06
-3.95241701922e-06
-3.4434905739e-05
-4.84553333141e-05
-3.34653246946e-05
-3.71361546578e-05
0.000122927647716
1.35689083834e-06
0.0501446588718
-2.84086758426e-06
-6.0343760746e-08
5.50647401749e-05
7.28083565441e-06
0.0124223832604
1.92164294206e-06
-1.86705723472e-07
6.0798952197e-05
-6.60331682605e-06
-0.0123346141978
0.0124152823626
6.12258113636e-07
-4.63732633485e-05
8.1020079442e-10
5.59093509054e-07
-9.697974815e-06
5.44502087858e-05
1.34970078995e-09
3.27734029532e-05
9.63089211347e-09
-1.3862496516e-05
3.82071092185e-08
2.59594575215e-07
4.84036164115e-06
-3.54851529613e-12
4.76699172846e-05
1.52617112243e-07
-6.72534135795e-06
8.51750081549e-08
-8.38463705649e-06
3.75789516735e-06
-1.58592810684e-10
1.29573426537e-12
-7.43553007696e-12
5.45180068999e-11
-5.75536862235e-11
5.45619215732e-13
-1.80419949604e-11
-2.88591189911e-11
3.69515742259e-05
-2.11142000559e-05
5.19639705419e-08
2.92497955975e-07
-1.70185140223e-05
1.13444711075e-08
2.82608477429e-06
2.18007173197e-07
5.28320912359e-08
3.65518152873e-08
-7.06790435403e-06
5.33229545618e-09
4.01935608474e-05
-2.64989454752e-07
-0.0124975053922
-3.66484732445e-05
-3.86213388681e-07
1.1863187638e-05
0.0125032478338
1.51955853584e-05
0.012511449458
-3.68867564416e-06
0.0123678392888
-3.60504056036e-06
-2.39610620363e-05
1.02969142872e-05
0.0124413788061
1.24238154116e-05
1.68714886773e-07
0.0123988076404
0.0125120497759
8.68190659549e-06
-0.0125116903395
-5.19327410146e-05
-1.68736217948e-06
0.0125163880547
0.0125274252588
6.79116461862e-06
3.43173408506e-06
1.93034872003e-05
-1.47965209123e-05
5.78067532085e-06
0.0124038323951
1.36930491356e-05
0.0123463057339
1.39774912583e-05
-3.54316764387e-07
0.012526791693
-1.39857847129e-06
1.71103170317e-05
0.0123619407501
-0.0125127250367
-3.92689296622e-05
3.6443024536e-06
0.0125159878305
5.91633078098e-06
0.0125175181254
1.49805125876e-06
1.03643741393e-05
0.0123608954401
-2.30597783699e-05
2.89305991572e-05
0.0124062812924
5.34612941874e-06
0.0124129605547
0.0125231059214
3.71748321475e-07
0.0125240285221
-4.40563946452e-05
9.66922671696e-06
1.25744967638e-06
2.91632880368e-06
-0.0125157593471
0.0125212084959
2.05731750239e-07
3.09646820128e-05
-0.0124264517491
0.0123876149019
-5.3389858062e-06
-2.69848990492e-05
1.45734095238e-05
9.21055512015e-06
0.0125306095103
1.23957661881e-06
-1.06372900964e-05
-7.44400699321e-09
-0.0125198664574
-4.64894401088e-05
2.3509322537e-06
0.0125233890281
1.38970358251e-06
1.10529456215e-05
0.0125259752034
-7.31899178337e-07
1.17993270739e-05
0.0123335939605
-1.56297346505e-05
-1.75631038167e-05
3.63282516934e-05
0.0123822973131
3.3117884029e-06
1.24343510052e-06
0.0124025043838
-1.19423312288e-05
0.0125319678244
-9.82271799348e-07
0.0125278755899
-5.04195047577e-05
9.04969397679e-06
2.44723571633e-06
1.85294273082e-06
-0.0125243553245
0.0125325427016
2.33049186689e-06
4.6426169294e-05
-0.012400548895
-6.9237438887e-06
0.0123471314922
-1.81251302157e-05
1.94116893623e-05
1.98124074269e-06
2.25294445305e-06
0.0125404193907
-1.05517797924e-05
-9.99603604216e-07
-0.000114698397998
-0.0498637410497
0.0498354973115
0.000108623692247
3.27664667164e-05
3.06774287189e-05
4.25799961258e-05
3.34317988187e-05
-0.000105096543748
-9.83488031149e-05
0.0499886083294
4.73829981467e-06
7.56560043593e-07
-1.8134227012e-06
4.40384945734e-06
2.24657608014e-05
-0.0499773694695
5.65472763824e-05
-0.000230866066578
-0.050002671674
0.0500637988343
0.000104323772116
6.44378656194e-06
1.20222037334e-07
-1.1978851252e-06
1.43676960645e-05
4.56729945117e-05
-8.36119196994e-05
-2.42593356664e-05
-1.94165386515e-05
-1.82248671957e-05
-1.43015477378e-05
0.000117667803628
0.0500558505168
3.16150314751e-05
-0.0500453230254
-5.42464129451e-05
-3.2952600224e-05
-0.000139526561879
0.00014068296736
3.14509731312e-05
3.93719272116e-08
-9.82752731445e-05
-3.46011199208e-05
-2.87774527676e-05
-9.1274083088e-05
-0.000168381189644
0.000224149581007
6.10760450873e-05
-1.17994243221e-10
-8.56419224318e-05
-3.2094954029e-05
-3.13309137429e-05
-8.38004520868e-05
-3.63200266822e-05
-1.52385149806e-05
5.95899526144e-05
2.03288736292e-08
-4.70057455185e-05
-2.99270442807e-05
-1.61850883863e-05
-7.11274465865e-05
6.81905476288e-06
-7.11295363941e-05
-1.60488411006e-05
-7.05666444896e-05
0.000101291228932
1.26469666365e-05
-3.68670719365e-11
-5.52254153603e-05
-3.49101301156e-05
8.23587354945e-08
-2.83705282808e-05
-2.75216940824e-06
-3.74308187617e-05
-2.6277367086e-05
2.67770647812e-07
6.85360652471e-05
-3.84339188194e-06
-4.93046590726e-12
-3.86157370435e-05
1.69259439867e-12
-3.31010842331e-12
-7.23624972739e-10
8.2919678887e-11
4.96743344332e-12
5.56041838539e-12
6.06772464551e-13
-1.47494688321e-12
-1.05875613577e-11
7.04025016104e-12
1.96609660929e-11
0
0
-1.44210604976e-11
2.26228961846e-30
5.19589871221e-13
-9.72632658129e-13
-4.21855645686e-10
2.24057219486e-11
-4.87518250102e-10
6.88938961288e-12
1.11270987594e-12
-2.50550978857e-12
4.71057004048e-11
-2.74304274675e-10
-1.02266146243e-09
6.97063717695e-12
-3.83839812578e-12
1.67977655574e-12
-1.39847403803e-10
-6.03255281596e-10
1.00005598006e-11
-1.16548195847e-12
2.02771443001e-13
-2.68358227932e-10
2.22848553295e-11
-3.37505746495e-10
-3.90998228646e-10
1.32517593108e-11
-6.61130230083e-13
3.73366033224e-13
4.36362656064e-05
3.14417157215e-05
4.1359318511e-05
3.76449460919e-05
4.75710934483e-05
0.0497574189804
-9.32874014074e-05
-6.19827628029e-07
-0.0498652107936
0.0497957433686
7.65950002468e-05
3.79647659381e-05
5.09064528225e-05
4.7574794611e-05
5.23577102606e-05
-0.000129036562887
-0.0498884732591
3.86704377647e-05
-4.55794064348e-05
-0.0124272932459
-2.38591302966e-06
0.0124640880363
5.5033569286e-06
0.0124661662654
1.5400179232e-05
1.87238201933e-05
-4.94984084207e-05
1.37034455027e-06
-0.012431045116
5.95483676425e-05
6.50451992431e-05
6.22759401667e-05
7.47176222106e-05
-8.23481638525e-05
0.0124642572143
0.0124023145295
0.0123785426641
0.0124652883337
-0.000208610662682
1.41136458003e-05
7.72350459507e-05
-6.60026529219e-05
-6.66821088365e-06
0.0124513126344
6.50714854279e-05
2.66594374739e-05
2.51791192834e-05
3.74430571071e-05
3.05572270395e-05
-5.01802919545e-05
-0.0499218773461
0.0499272407996
2.50676183578e-05
4.25273880236e-05
3.29744655052e-05
4.36719086907e-05
-0.000127868431486
-0.0499492474317
7.06931392377e-05
0.0124617840967
1.73338203846e-05
-3.7727011648e-05
-0.012409171243
1.61323886542e-05
0.0124864828237
2.66009085143e-06
-2.95252013023e-05
-5.71498490635e-06
-0.0124505230991
2.04961649698e-05
0.000205093028308
6.61865832305e-05
6.53275095697e-05
6.78402476848e-05
7.08953812512e-05
0.0498009720727
-9.44496329448e-05
-5.37716870993e-05
-4.13492026519e-05
-4.34856335546e-05
-6.17317377104e-05
-5.02590457118e-05
-5.18101579705e-05
-4.40356930904e-05
0.0499166946374
3.32103079322e-05
4.3847929534e-05
3.80212683815e-05
4.58814309919e-05
-0.000140184258387
0.0499286734002
0.000154364939435
4.27812653255e-05
6.43396741511e-05
4.29869434254e-05
6.56513138848e-05
-0.00017702022305
-4.46392308427e-05
0.0124579185999
1.37198214363e-05
0.0124427729535
9.15248773479e-05
-6.82711545482e-05
-0.0124344582233
3.01421581265e-05
-4.95889419803e-05
2.08663077682e-05
2.44163221262e-05
-2.90423879859e-05
-1.00021606451e-05
0.0124930005874
0.0124887387572
3.06349009769e-05
2.18111235755e-05
-4.312139638e-05
-1.96284616582e-05
-0.0124762906366
0.0500856098033
3.46492027061e-05
6.77104065268e-05
3.75630498958e-05
7.58759295565e-05
-0.000358128008968
-0.000245539722448
0.000240536480659
3.33193847653e-05
6.13294419107e-05
6.97653399389e-05
3.30993073085e-05
0.0502879111509
-0.00023356257727
-0.000406853880148
-6.93666793419e-05
0.0124522136762
3.75917446434e-05
-6.95494688394e-05
3.14551264543e-05
-2.78006547238e-05
-0.012510457393
5.89481070441e-05
0.0125421275049
-9.31640959554e-05
3.51571596013e-05
4.21243827211e-05
-5.09705395179e-05
-2.93437278017e-05
0.0124914356543
2.9102081467e-05
-3.72620768418e-08
-2.97037447091e-05
-1.68436145933e-05
-0.012485809689
0.0125160600119
8.22888499126e-05
1.92604107691e-06
-1.39671558913e-05
-1.41882370018e-05
1.18476155015e-05
7.2369456704e-05
0.0500126811503
2.718031297e-05
3.8207300821e-05
2.68779596132e-05
4.05333482502e-05
-0.000149794392376
-0.0499838132439
7.04176780917e-05
-1.86991430848e-05
0.0124778278613
9.67445289548e-06
-0.0124731250846
0.0124708096519
3.72489368896e-05
-1.32936032382e-05
-0.0124762007789
7.59590542457e-06
0.0124655775085
-8.1043360884e-08
-1.57610497743e-05
-6.3797738151e-07
-0.0124581528771
2.26971106209e-05
9.46113076321e-05
1.22038287324e-05
-1.93047861546e-05
-2.5313049824e-06
1.17042209444e-05
0.0501838005548
2.38339894387e-05
0.0500548291591
2.10121768647e-05
4.14298784504e-05
2.75026317583e-05
4.75202536263e-05
-0.00015894701696
2.34521778077e-05
4.53071351625e-05
5.07305721795e-05
2.8571334861e-05
0.0500760866857
7.95178466874e-05
-0.000154193014577
-3.1994014478e-05
0.0124473241761
4.49956162834e-06
3.89259922062e-06
1.83817417576e-06
-0.0124359987512
7.41575027605e-06
0.0124657946334
2.23352611105e-05
-1.90322786926e-09
-1.85417062539e-05
-2.85290835254e-06
0.0124736540014
2.54629654864e-05
-2.26485445475e-07
-1.1182690128e-05
3.99647607431e-06
-0.0124330108453
0.0124559673668
-5.01432897277e-06
0.0124487205296
9.56035045499e-06
-0.0124672892766
1.93186013143e-05
-0.0124123876281
0.01244490869
-1.75867481563e-07
1.03652227482e-05
-7.85320028631e-06
-0.000110705102703
-7.14897585961e-05
-1.48840504121e-05
0.000131365600303
1.02828711667e-05
-0.000154876592686
7.06696376249e-08
0.000139956755513
1.29728431675e-05
-7.06582350714e-05
-6.74126265173e-05
-8.30340068557e-06
-0.000149750340234
-5.82477055662e-12
-6.43903816153e-12
-7.79154743082e-05
-0.000117828890994
-3.06542547893e-05
-3.96453992963e-06
0.000163797097156
1.59499132522e-09
-5.66544816892e-13
-9.84370234403e-08
6.17486789566e-11
-4.23558380748e-10
-5.95609901434e-13
1.508272991e-12
1.81414294704e-10
3.13534358882e-12
1.17008602706e-12
-2.89142522254e-10
6.61901858343e-13
1.54725759397e-12
-8.60283987728e-11
4.43548602718e-12
1.02286139384e-12
-7.8913233846e-12
2.36636923279e-11
1.43048380088e-13
-2.72632183523e-12
-2.83569080776e-12
9.19767171889e-11
4.53202116054e-13
2.31425019916e-11
-1.35499063358e-11
4.0287758713e-10
-1.04788653365e-09
-1.36672322921e-10
8.16177157955e-10
2.32239644664e-05
-0.000111210581053
-7.19031870433e-05
-4.01046002967e-05
-4.49843729018e-12
-0.000176070072692
0.000100020669443
-4.39735778537e-05
-6.69112912988e-05
1.39287722214e-07
-0.000123895067949
2.73355593003e-08
1.42944222323e-05
4.68764802934e-05
-7.07186126355e-11
-0.000109314373675
-7.0813479379e-05
-6.51786931972e-05
-5.03112448993e-05
7.62867255108e-05
5.10938277539e-08
-5.46655654316e-05
-5.24498827504e-05
-3.92034273507e-05
-7.32743262784e-14
8.85265166924e-05
1.77877907654e-05
-5.56450993642e-05
-3.78507374735e-05
-4.74355242128e-05
4.15018158854e-10
-7.76247673278e-10
7.44114986376e-11
-2.36276815611e-12
4.90342354796e-11
1.25487384201e-10
-7.63264103208e-11
1.18153576534e-10
2.66257456371e-12
-1.65932492095e-10
4.84591216682e-05
-3.25081855361e-10
-3.84968593992e-05
-5.17666875767e-05
-8.11058492441e-05
0.000224908803278
-0.000106405343941
0.000119938783858
6.69545843357e-08
-3.15428848338e-05
-7.0698580092e-05
-3.55116570785e-05
-6.98967982274e-12
1.64417883508e-05
-5.22240038941e-05
-3.13371031238e-05
-6.77038863376e-05
0.000127087208694
6.84526813696e-12
-1.38246195067e-09
-9.22800095726e-12
-7.39563935165e-11
4.6477855427e-10
-2.71388583549e-12
-3.11894250687e-10
1.77498741341e-13
6.6342802469e-06
4.02081003486e-08
-2.21989962643e-05
-5.46966197269e-05
-2.29928203681e-05
-1.11674625727e-11
5.09128930827e-05
-8.74359438166e-06
-6.33247848791e-06
-7.64207695561e-06
-3.86729794534e-05
6.2357689636e-06
1.49528773561e-10
8.50525949088e-11
-1.43191913773e-10
-4.62492262639e-13
4.31988394271e-10
2.43800269775e-12
-1.09942585867e-10
-2.26320863518e-12
4.56844388746e-06
2.81062244989e-08
-7.503890032e-05
-1.58923387329e-05
-4.08304861319e-06
7.83811128979e-05
5.86728043397e-05
2.12479745959e-08
-2.90367071412e-05
-3.00298858753e-05
1.10511037681e-07
-2.41631748022e-11
-1.18080731734e-05
-4.17351726379e-05
1.1482140897e-07
7.33207945804e-05
1.11972175558e-06
2.04521544426e-12
-7.68956430547e-11
3.62073165302e-11
-4.75071841807e-13
3.21608827941e-10
3.8774202972e-11
9.60159596974e-13
1.92000803972e-12
0.0124722790295
2.59406296564e-05
7.58669900631e-06
5.31217941896e-06
-0.0124796719427
2.21116001448e-06
-0.012459737784
0.0124528451073
4.7412213235e-07
-2.43019259932e-05
-7.26127249977e-05
4.83467822064e-07
-0.0124342987315
-4.81744780425e-05
-0.0124790861361
-4.53175264412e-06
0.0124606022864
8.77250730067e-06
0.0124552260061
-5.48872385361e-06
-0.0124565914936
-2.34214513705e-06
-0.0124748285214
0.0124746444044
1.96145425803e-05
2.9339941547e-05
-0.0124803047442
-1.38321434546e-05
-0.0124711200659
0.0124649963852
2.13602613817e-05
-5.86042111045e-05
-0.0124629209844
0.0124481936964
-6.23570865878e-05
-2.11828376768e-05
1.96404509508e-05
-0.0124375126721
0.0124584879462
1.92022860889e-05
-0.0124806955518
-0.0124427834119
-0.0124479054853
3.1285387223e-05
4.94977799864e-05
-1.45495852826e-05
0.0124412026711
-1.85805554932e-05
0.0124588939244
2.37414361125e-05
-6.65166894908e-05
0.0124375710528
-3.36669077246e-06
-8.77914892357e-05
-2.56349169969e-05
2.40919062583e-05
0.0124219150834
-1.21249809284e-05
3.09539999736e-05
0.0124461359254
-2.9326906181e-06
0.0124538847149
-4.3725649154e-07
0.0124832175237
3.1744637912e-05
1.19476173332e-06
-0.0124890555237
-0.0124725743191
1.04568311254e-05
0.0124709450347
-6.88879548733e-05
-6.22752774866e-06
-0.0124260435691
-4.75936154627e-05
-0.0124688278365
8.71591281778e-06
0.0124533884077
-0.0124852075398
5.13839540637e-06
0.0124715173505
-4.80013025686e-07
-0.0124676079447
0.0124883591385
1.7774368411e-05
8.08036896136e-06
-0.0124879322687
-1.23288630584e-05
-0.012481888067
0.0124823499774
2.48433838492e-05
-3.24442534039e-05
-0.012487694847
0.0124809410094
-4.76809870703e-05
-2.53420348473e-05
-0.0124636449903
1.89874680828e-05
0.0124816866494
-0.0124899060202
2.17957216937e-05
-0.0124508359537
-1.64672834127e-05
-0.0124656134114
3.78204164417e-05
0.0124563445912
2.06315057902e-05
0.0124664742061
1.42511842586e-05
-7.23557311102e-05
9.81121824149e-06
0.0124411665468
-4.28766641877e-05
0.0124654768936
1.71651385958e-05
0.0124511856669
1.07000345504e-05
0.0124768690963
2.13765395497e-05
-2.46299789245e-05
0.012460165431
5.58795696282e-05
3.11607027394e-05
-0.0124537786419
3.79224667041e-05
0.0124558270435
-4.29590160719e-05
-7.79286006897e-05
1.88169462332e-05
-3.94378854091e-05
-6.28235549888e-05
-0.012465883892
3.12550377773e-05
0.0124572782727
-3.73003858797e-05
4.55959456914e-05
0.012460553723
2.25293694699e-05
-0.0124787235713
2.45156527656e-05
3.05934218991e-05
0.012477446505
-1.41020413859e-05
0.0124821998875
2.91129610674e-05
-3.75548874051e-05
0.01247274537
-4.0201175924e-05
-1.84427649038e-05
0.012476855659
2.21187265635e-05
0.01247647294
3.59006868537e-05
0.0124754244509
0.0124796266785
3.26466604988e-05
3.9057381855e-05
-4.00973891568e-05
-0.0124830129513
0.0124903920081
5.39171067088e-05
-4.40369394644e-05
-0.0124717471308
0.0124669255129
-4.57260617192e-05
-1.71938084669e-05
2.46627301234e-05
0.0124840725095
4.60525843592e-05
-5.74833585335e-05
-0.0124813092231
6.14823867683e-05
0.0125036737832
7.33122670104e-05
-9.97262606489e-05
0.0124726261985
4.62670175925e-05
-8.25654868842e-05
-4.98785592831e-05
-6.97744528789e-05
4.95874293132e-05
0.0124673367593
-8.22700668279e-05
-5.86085666726e-05
0.0124805117066
4.38412587241e-05
0.0124964662759
-8.67787356442e-05
-6.43435443656e-05
6.08014682289e-05
-9.39522827378e-05
0.0125089683599
5.3822140588e-05
-6.76293996823e-05
6.91063876399e-05
0.0125316633061
7.87070469935e-05
-0.000108137460101
-0.0125379149759
5.97633191583e-05
0.012590950648
-7.39216670344e-05
-6.67332127072e-05
-4.30668506005e-05
6.38629245334e-05
-9.55242901636e-05
-0.0125068328602
-6.03586661525e-05
5.37687987637e-05
0.0125164620198
-7.58754353001e-05
-7.63092145541e-05
5.33147199055e-05
7.46376149276e-05
0.0125705485863
-0.000114144620454
-0.0124968877254
5.73343628484e-05
2.81925911579e-05
0.0125193044155
-5.11824872959e-05
0.0124982342681
6.0059735387e-05
-3.43229974553e-05
0.0124856197035
-6.27517244753e-05
-3.36564714775e-05
0.0124762848282
3.12374224046e-05
0.0125070947333
6.1596600871e-05
0.0125003286799
5.42668629878e-05
3.86904464339e-05
0.0125382501099
-0.0125204092453
-4.4088710638e-05
5.1188043111e-05
0.0125449165116
-0.0124861372702
-4.1255937771e-05
0.0124957933104
-5.22134335094e-05
-2.67443881418e-05
3.64840193348e-05
5.85100573911e-05
0.012560550003
-1.25728961527e-05
-0.0124936053642
1.35288088634e-05
0.0124959937881
1.37343985486e-06
0.0124920398647
1.12524243862e-05
-0.0124921343902
-1.94902836942e-05
3.09618696253e-06
0.0124702925914
-1.60961102861e-05
0.0124835608314
-0.0124948905048
4.46924603758e-06
0.0124940047653
-0.0124959191865
1.91827405343e-06
0.0124836860149
9.05066164722e-07
-1.77765390685e-05
0.0124957879317
1.6050147883e-05
3.84025242087e-06
-0.0124966290628
2.36358403212e-05