/*--------------------------------*- C++ -*----------------------------------*\
| =========                 |                                                 |
| \\      /  F ield         | OpenFOAM: The Open Source CFD Toolbox           |
|  \\    /   O peration     | Version:  v1906                                 |
|   \\  /    A nd           | Web:      www.OpenFOAM.com                      |
|    \\/     M anipulation  |                                                 |
\*---------------------------------------------------------------------------*/
FoamFile
{
    version     2.0;
    format      ascii;
    class       surfaceScalarField;
    location    "0.4";
    object      phi;
}
// * * * * * * * * * * * * * * * * * * * * * * * * * * * * * * * * * * * * * //

dimensions      [0 3 -1 0 0 0 0];
oriented        oriented;


internalField   nonuniform List<scalar> 
92311
(
0.20023344808
-8.13680556908e-05
0.000109403803249
-0.200186765628
-7.47181977536e-05
-0.000101505749416
0.200308978556
8.75090223977e-05
-6.16182010739e-05
0.200213462017
-0.000165738880912
0.000101769842645
-0.200161943245
-6.90274912335e-05
-0.000198371667939
0.200285938294
8.06574338739e-05
-5.63773110167e-05
0.200182397827
-9.46885004178e-05
-9.28555521606e-05
8.81630279213e-05
-0.200139037442
-5.45954355795e-05
-2.58888118046e-05
-2.92371307897e-05
-9.6961890904e-05
-9.0590547458e-05
-4.66921078656e-05
0.200232071593
6.74558682194e-05
-4.12736711171e-05
-4.00061438153e-05
0.05002412663
-2.39604070014e-05
-2.54314425922e-05
-2.32613940604e-05
-2.15157449162e-05
1.42964403356e-05
-0.050031524125
-7.41888937635e-06
-0.0500412079599
0.0500332896399
-2.21037468277e-05
-3.28311105678e-05
-1.93252217775e-05
-2.17483399249e-05
1.33001762244e-05
-6.34814934197e-06
7.92899497304e-05
0.0246038420347
-2.92157673103e-05
-8.24992320574e-05
9.89945625456e-05
-0.00347156926271
-0.0222391328296
0.00244952646518
-0.00140961531341
0.0380340348108
0.00152055784627
0.00279562748434
-0.0413300689056
0.00010476943661
-4.18254034029e-05
-0.000198918175806
0.000226667683113
-0.0011106036916
-0.0059824351962
7.30945346055e-05
-0.00425984425507
0.00725841410627
0.000735974234979
0.00099099907374
-0.00314737352597
0.00746738102202
-3.19852328844e-05
-3.12726170524e-05
-3.05403768924e-05
-2.37001501756e-05
1.37292821647e-05
-6.19531126563e-06
3.6295698332e-05
0.0125141428511
3.00655665001e-05
-9.94895423937e-06
-0.0124915585704
0.0124892333518
-0.000118142357349
4.10597413547e-05
-0.012442334873
2.81966916598e-05
1.62534541814e-06
-5.7679394381e-06
-3.5620386068e-05
0.0500388125933
-2.05886130274e-05
-3.6723513595e-05
-8.75571349558e-06
1.1281074075e-05
-2.46236230665e-05
0.0500420391127
-5.84133544353e-06
-2.52152024509e-05
9.7706799905e-06
-0.0500411442956
-7.44721369559e-06
-0.000184446037759
5.65419794442e-05
0.0125571885821
5.78336212664e-05
1.69038486979e-06
-2.44837053295e-06
0.0125130554158
4.02029411918e-07
-2.67780739724e-05
-0.0125198504845
0.0125114658893
-2.90185541089e-09
-2.00303584093e-05
-0.0125185588696
-9.5173120882e-05
0.200205989634
0.000257981371667
-0.000128227772156
-0.200240570124
0.200413137172
-0.000124010526776
6.68602050557e-05
-4.74477871315e-05
-0.000146393689298
0.200545955921
4.85983013945e-05
-3.53831893554e-05
-0.000134255197305
0.200215299271
0.000250041972829
-0.000134591323494
-0.200291680029
0.200391180194
-0.000250554001654
6.15480355838e-05
-4.05057095862e-05
-0.000297362138349
0.200527077753
4.42995447899e-05
-2.94296600427e-05
-0.00010963384087
-0.000105962278539
1.90441612123e-06
0.000239908392823
0.200158354978
-0.000115974207248
-0.200210261426
7.48209419939e-06
-0.000109284313248
-0.000102573810018
-8.85624511241e-05
-9.33483326082e-05
0.200347964404
5.34926905948e-05
-2.62254985105e-05
0.0500094714071
-2.25422668653e-05
-2.49557535613e-05
-1.94638673494e-05
-1.769532849e-05
4.26261556251e-05
-0.0500262859637
-5.07601235444e-05
0.0500485376033
-7.22180243323e-06
-2.77390416134e-05
-3.52730867967e-05
-2.90350481619e-05
-3.42992638959e-05
1.45665965318e-05
0.00770656542947
0.00020995268399
0.0342140646325
0.000176209599463
-0.000114415836768
-1.79812906813e-05
0.000110112824545
-0.00424979717712
0.00292679815639
0.00847386177587
0.000397886639704
0.002872194355
5.16223325033e-05
-0.00281703529013
0.000762508256254
-0.0154357276389
-0.0111577042833
0.000542198056871
-0.00642884513995
-0.00133391423382
0.000653598965643
0.00614127745754
-0.00245736534981
-4.1346424462e-05
-3.07142706422e-05
-3.01292926613e-05
-1.6713495104e-05
-3.19971626571e-05
0.0500181654885
3.62642545102e-05
-9.73198942195e-07
-5.92238900408e-06
-8.31016890547e-06
-6.50999937311e-06
0.0500349651876
-1.60646366171e-05
-0.0500365474128
-8.43396479011e-05
2.58417941457e-05
0.012528275997
4.13741642967e-05
-1.61736695788e-05
-0.0124950403265
-7.63638137578e-05
2.60027681311e-05
-0.012451330489
2.35007894021e-05
-1.13786065439e-05
0.0124891992633
-1.63408120794e-06
0.0125017633329
2.85105302391e-06
5.41085387505e-06
-0.0125093659545
-5.04583622986e-06
-3.67637703739e-05
-3.33975015828e-05
-2.96237430162e-05
-3.58781524625e-05
0.050073593019
1.29836903472e-05
0.0500564192531
-2.22710041646e-05
-3.0184324432e-05
-2.71097816618e-05
-2.50599479293e-05
-5.59796924174e-06
-2.87793659031e-05
-3.27447994398e-05
-2.84519319022e-05
-2.63967746966e-05
0.0500766113154
-2.29526271908e-06
-2.72284191876e-06
-9.96059512655e-06
-1.36989459475e-06
0.0124993195843
-0.000107229034646
4.95544204807e-05
-0.0124578647471
3.40405406942e-05
0.0124867888102
-5.84096929571e-06
-1.22673824768e-05
6.59470163768e-07
0.0124980501883
-0.0125170457132
-1.34819973065e-05
0.0125102834519
-1.18814330243e-05
3.31494856526e-06
0.0313852020674
-0.000140070916491
-3.05631815127e-05
0.000173069544353
0.000962658743393
-0.00109932493335
-0.00676602216502
-0.00272484533103
-3.26053236117e-05
8.71460571226e-05
-0.000194392826289
0.000207988910003
0.0445868075412
0.00316487309481
-0.0435741967627
0.000132461610428
-0.00293669932873
0.00156192087335
-0.00141346780202
0.000536667764315
-0.00177394357029
-9.49921272286e-05
-0.0102580447376
-6.7659857915e-05
-0.000160568953486
0.000138267328932
0.000311283187845
-9.39193027068e-05
-0.000226488508365
-0.00216022791446
-9.29496185514e-05
5.07744626087e-06
0.0125126720838
-1.47268903721e-06
-0.0125039409175
-0.012495872594
-4.33097014353e-05
1.05777678666e-05
0.0125053068962
-2.13863358952e-06
-2.96700627505e-05
9.3266331573e-06
0.0125130218487
-7.91751554225e-06
3.19259205857e-06
0.0124565732736
-0.0125068712262
-5.50573843162e-06
-0.0125085740376
-2.26182288892e-06
0.0124833278701
-9.22468070377e-07
0.0125125300861
-1.46995693057e-06
0.0125230590435
-6.49322051853e-05
1.78588349012e-05
-2.59355894786e-06
3.30343014341e-06
-0.0124997751533
0.0125083478337
-2.0978178351e-06
-5.51035082048e-05
-8.89394325053e-06
-5.93072174462e-06
1.782347088e-05
-0.0125386101731
0.0125211133489
-3.22652400204e-06
0.012516955188
-3.29922842218e-06
-2.76858098171e-06
-1.89317541686e-06
-0.0124963109758
-3.53244855269e-05
1.04826159731e-05
0.0125017569441
-2.73243491285e-06
1.1608653446e-05
0.0125227807313
-2.28859696468e-06
-4.4254932907e-05
-2.32386602314e-06
0.0125328820784
2.39060803446e-06
-1.62458949123e-05
0.0124378531177
-4.06315465169e-06
-3.23670043006e-06
0.0124960421579
-3.26494321529e-07
0.012512060519
-2.89845011697e-06
-2.98506995571e-05
-0.0124913576154
0.0125006675817
2.96161704033e-07
2.31092547965e-05
-0.0124456294599
0.0124963980974
1.13009605342e-06
-0.0125728386921
-1.60033539368e-06
0.0125289393862
-7.29156442329e-05
2.08430023968e-05
-2.70264795393e-06
-7.83531790375e-05
-3.40946646161e-05
9.2676535072e-07
-1.32338570395e-06
-1.38135146755e-06
-1.2975727992e-05
-0.0124953049403
0.0125012253551
1.16049203167e-06
-1.81735291565e-05
-0.0125687027796
0.0125324585736
-0.0124564695412
0.0125086399926
3.64130526566e-06
1.80623093627e-05
-6.17273815739e-05
-0.012502830429
-4.54278930367e-05
-7.50643691081e-05
-0.0125333053585
2.85153116012e-06
-0.0125130882097
1.1260579963e-07
-0.0124989143361
-0.000678825245523
-0.00749497067622
-5.23698613852e-05
8.23882724177e-05
-3.96061513985e-06
9.40797193456e-05
0.0279518987121
-0.0241727481896
0.00427402899109
0.00263138614089
0.00180169721031
-0.00035308191246
-0.00184601530607
0.0361624195248
-0.0106073865319
-4.0947263952e-05
-7.66091789788e-05
8.37730207182e-05
-0.0040843310939
0.0125564113393
-0.0340781623802
-0.000400762868862
-0.000158639884267
-1.99203231652e-05
0.000120252214905
0.0322451290552
-0.00320983164207
0.000302314382318
0.00133075786767
-0.000905630277849
-0.00288027861578
0.00183914847337
0.00110391850217
0.0150517371682
0.0311164800974
-0.000111382200014
0.000142963302081
-1.61738030968e-05
8.22255805843e-05
0.00601622843442
0.00246196349274
0.000107851225455
-0.00161628636248
-0.000519246054239
0.00194194676918
0.00953596530119
-0.0103177856908
-4.29189796129e-05
7.11316507491e-05
1.53409617445e-05
0.000109207074368
0.0272797801433
0.00447751734357
0.00236257640171
0.0015666585311
-0.000713527611044
0.00214661898722
-0.000115107026723
-8.78485610478e-06
0.000150097204139
0.0279725184977
-0.00636501788684
0.000579578211165
0.00205333290346
2.29806548106e-05
-0.0124985985031
-2.9279501977e-05
0.0125027870612
-2.04334738632e-05
0.0125126921894
-8.88194479485e-06
8.94310286896e-08
-0.01250303399
-1.19981010024e-05
-1.37281418223e-05
0.0125216480475
-9.85198030465e-06
-1.34766755694e-06
0.0124673478335
-0.0125062875509
3.7586942537e-06
0.0125065481836
-2.38482762765e-06
-0.0125062173056
-2.03308895033e-05
0.0124980522777
8.76814645592e-06
2.80546243617e-05
0.0125131145922
-5.00090164356e-05
-1.90398750604e-05
-0.0124905907538
-8.267939274e-06
-2.33011964098e-06
0.0124970423432
-3.17216087753e-05
-3.93518237095e-05
-1.79091380517e-05
2.07989230256e-05
-0.0125301063339
-1.84516002284e-06
0.0125140652807
-4.37618755596e-06
-1.65574730617e-05
0.012510209328
-1.75012308261e-06
0.0124735109535
-3.34349555979e-05
1.02964527344e-05
-0.0125054364681
3.01786744697e-05
1.28037439738e-05
0.0124969945646
1.48766269327e-05
1.44625079684e-05
0.012507546048
3.9648271384e-06
0.0125139401378
-3.35671968078e-05
-0.0125048844985
5.75625241746e-06
-0.0125155212974
0.0125158192571
0.0125110023409
-0.0124912053616
-6.57956061227e-05
0.0125192735612
1.98236213875e-06
5.67122790587e-05
0.012548990835
5.2620246206e-07
0.0124639175703
5.25136149757e-06
8.82155917115e-06
-4.20816975192e-05
0.0125076123842
-4.16386984921e-06
2.4107683212e-05
-1.92500517565e-05
0.0125257786364
-1.68400132571e-07
0.0125166787176
1.06716483535e-06
0.0125003516064
1.17836595289e-05
1.79813957417e-05
0.0125234915531
-6.67081460341e-05
-3.88060018625e-06
-0.0125025108197
2.33742946301e-06
0.0125136143764
2.70402811548e-06
-2.04153825766e-06
-4.07426861995e-05
-5.26639870784e-06
3.2778892534e-05
-0.0125334314042
6.6685888502e-06
0.0125183654176
5.86010950955e-07
-2.05311451665e-06
0.0125248668958
8.8541183732e-06
-0.0125149666593
-3.22489311565e-05
-2.51379901258e-06
2.51861357367e-06
-5.45179792724e-05
1.45258333951e-06
-4.71638447216e-05
0.0124742251382
0.0125468433522
3.33257465546e-06
-2.28556660089e-05
0.0125194110556
1.95021633468e-06
-4.16689402715e-05
0.0125080391438
0.0125039940913
0.0124964298304
-3.90927639855e-05
4.32698667379e-06
4.50271639095e-05
7.53968744057e-06
0.0125070504674
6.36492855163e-06
3.42651266603e-06
0.0125156955881
3.46643888185e-06
0.0125224938271
-5.86594060941e-05
2.85989180785e-05
-0.0125229348497
0.0125224799599
0.012526079519
-0.0001211201195
-0.000109132251441
-0.000108664502481
3.62012776091e-05
0.200487410953
-0.000114556949382
-1.95034871721e-05
-5.08112753594e-06
-3.46591302503e-05
-3.63607009289e-05
-3.37785035538e-05
-3.17711972229e-05
1.10909193086e-05
0.0500831025403
0.000192971142536
0.0114676888843
-0.0150522886349
-4.08371044447e-06
-9.23429844812e-05
0.000127562465928
-0.00420699241974
0.0355340746727
0.0128530934287
-0.00774708246631
0.00304326923528
0.00271594853983
-0.00482058671293
-0.00763882562961
-0.00288672266574
-1.56478584795e-05
-1.20333452105e-05
-7.73888619447e-06
-1.09703475486e-05
2.41518712216e-05
3.21791842954e-05
0.0500393134365
-0.000106919765111
4.08336175329e-05
2.86888588925e-05
0.012524104185
0.0500842284627
-2.85383515065e-05
-3.32931997434e-05
-2.60329724636e-05
-3.0283503919e-05
-3.64339291784e-06
0.0501043531615
-2.87101638098e-05
-3.79403226165e-05
-2.89982650838e-05
-3.15947541081e-05
3.93079272849e-06
-5.4750027681e-06
7.0809708545e-05
0.0125475695689
5.82624211694e-05
2.39454589528e-06
-8.44049149107e-05
5.49029013967e-05
1.83949473618e-05
0.0125132069299
4.64020296121e-06
0.0125115244807
-0.00010993392713
5.15777271904e-05
1.28677468629e-05
-0.0124747850349
8.40546668234e-06
0.050119938615
-3.55770345609e-05
-4.20868571608e-05
-3.11646570857e-05
-3.84709021247e-05
0.000128759629065
7.42302160389e-06
-4.45186136619e-06
-3.64715986031e-05
-4.47969779013e-05
-3.61888992482e-05
-3.63249477453e-05
0.000123018812188
2.05890850348e-06
0.0501524364862
-3.80294700287e-06
-0.000128767926328
7.17903479082e-05
3.08896169942e-05
0.0125343780302
2.71987008289e-06
-0.000108031751736
6.28209305168e-05
1.11724902549e-05
-0.0124901610014
0.0125220066986
1.84598368891e-06
-0.000104318970078
-2.27615197037e-05
9.54169795087e-05
-0.00512916302242
0.0287412194313
0.000787384062626
0.0248313611439
0.0091440792405
-8.09241064283e-05
-5.63423000877e-06
8.24784504658e-05
0.00469851030524
-0.00375576633412
0.031727462213
1.69523329978e-05
-8.45334687636e-05
0.000151305249406
-0.00598243074484
0.00266033064095
-0.00347678310923
0.00171766288102
0.000120395974953
0.00129437319885
-0.0017734711446
0.00159114353316
-0.000161517981783
-0.000834407001081
0.0291576569052
-0.000100687867516
-6.83570848992e-06
9.29486303773e-05
-0.00907114161109
0.00927859327775
0.00226334148428
3.68890256643e-05
-8.01828429244e-05
0.000129299687609
-0.00560226070128
0.0045034050709
0.0303349189262
-0.000258025044151
-0.012495508494
-3.33194355832e-05
-2.19494617933e-06
1.28733084586e-05
0.0125024976041
1.86939940001e-05
0.0125161973288
-1.28448001085e-05
0.012457874935
-5.32500420092e-06
-3.26470761557e-05
1.14385823268e-05
0.012514157815
1.37239615739e-05
-1.74034386281e-06
0.0124887089567
0.0125131791453
9.29946797371e-06
-0.0125092249105
-4.79957397993e-05
-2.77987838117e-06
0.0125160168855
0.012534404687
1.07194091317e-05
3.02765514967e-06
1.91423779913e-05
-2.40408212541e-05
6.36822885964e-06
0.0125415853438
2.79551167696e-06
0.0124650725201
1.59587538495e-05
-6.56904231685e-07
0.012529698116
-2.54328735277e-06
1.93080432292e-05
0.0125007849092
-0.0125105747796
-4.13487770325e-05
5.06349179147e-06
0.0125156381073
1.10414872619e-05
0.0125249422335
1.3750715826e-06
2.08644855843e-06
0.0124738687318
-3.87619401608e-05
2.67171988182e-05
0.0125145704918
5.35434672192e-06
0.0124956616492
0.0125262107465
2.9842817282e-07
0.012531849949
-6.18823503318e-05
1.37750773743e-05
3.16927781007e-06
5.20124867505e-06
-0.0125121929134
0.0125207633074
-7.21959314214e-08
2.70927614254e-05
-0.0125306739885
0.0125339197704
-1.07718087737e-06
-5.92659695977e-05
3.06157289933e-06
1.10639275337e-05
0.0125331977954
1.8620424161e-06
-5.48634315953e-06
-7.25906715983e-07
-0.0125170951591
-4.71021298962e-05
4.16099077538e-06
0.0125228579495
1.59580666157e-06
1.6262520116e-05
0.012535079498
-8.52914811093e-07
9.93084325902e-07
0.0124831422884
-1.98522926515e-05
-3.38945122254e-05
3.36679928922e-05
0.0125267853314
1.57430063931e-06
2.20521223999e-06
0.0125107748412
-1.54814493718e-05
0.0125357767544
-1.27036203562e-06
0.012537674717
-6.94491346529e-05
1.47643046175e-05
3.40190303047e-06
4.84268693989e-06
-0.0125203700821
0.0125318280309
1.76967841235e-06
4.22940526684e-05
-0.0125249700562
-5.51880921303e-06
0.0125352937011
-5.10918817894e-05
3.93049496126e-06
2.91210272275e-06
2.66125326875e-06
0.0125458804925
-6.44041879136e-06
-2.21373511728e-06
-0.000124559514863
-0.0498535613402
0.049824806993
0.000118590676029
3.39594667507e-05
3.21305538612e-05
4.32357817111e-05
3.52985755462e-05
-0.000109825354795
-0.000107299388885
0.0499854349284
5.16926307487e-06
2.64337129002e-06
1.46847921891e-06
4.82370833462e-06
1.88426266805e-05
-0.0499739494679
6.28828208471e-05
-0.000243406549683
-0.0500044596242
0.0500672754926
0.000114967159279
7.49714313651e-06
-7.82820129732e-07
8.10481865918e-07
1.37390896907e-05
4.43596017578e-05
-8.87164331791e-05
-2.16365576473e-05
-2.0329592282e-05
-1.73427588182e-05
-1.3679569625e-05
0.000113474609333
0.0500598810113
3.59247189363e-05
-0.05004757538
-4.71868864973e-05
-0.00745231115381
-0.0407802634625
0.034955621709
0.0104184233225
0.00306358353383
-9.74092116444e-05
-4.84958318654e-05
-2.5527394758e-05
-8.67986657576e-05
-0.0347458683645
0.043601274612
0.0150703250674
-0.010144610012
-8.67915675236e-05
-3.16922157868e-05
-2.30382781514e-05
-0.0135698842402
-3.38369120492e-05
-0.00816900929403
0.0331655923006
0.00845461676222
-5.40583324344e-05
-3.53054359437e-05
-1.54285485863e-05
-0.0380329079675
0.00471860677485
-6.09395155688e-05
-0.00661794889602
-0.0282420916344
0.037650511874
0.00604231256361
-0.00868266140559
-6.25184573644e-05
-4.45735746748e-05
1.78575771543e-05
-3.17402906802e-06
-0.0015914522501
-4.44015087844e-05
-4.58423584639e-05
5.17985603885e-05
0.0318599892649
-0.00163113534535
-0.00532999485849
-0.0232659204139
0.00789294423334
-0.00771518787064
-0.00443871251129
0.0112857869274
0.00253050613738
0.00705385643044
0.00210887694859
-0.00541315108941
-0.0149078372066
0.0193967960632
0.0210114301703
0.0126656537386
0.017227513565
-0.0174928087212
-0.00328874927794
0.0011498836043
-0.00267018137211
-0.0036629738903
0.00107146971888
-0.00795471793914
0.00440364616136
0.00347958587648
-0.00529561179256
0.00755795671523
-0.00179218041174
-0.00793806530396
0.0019808246808
-0.00595653993368
0.00482217114236
-0.00606915835488
-0.00927319230415
0.0078618288554
-0.00190116927895
0.000491923240873
-0.00999102931168
0.00895596189612
-0.00615044172625
-0.00740924771377
0.00367531115847
-0.0025276942652
0.00155836952275
4.80082592151e-05
3.27993396711e-05
4.60000173993e-05
3.81558145632e-05
5.16545182752e-05
0.0497402505245
-0.000103437082058
-1.04908741424e-06
-0.049852423318
0.0497830174232
8.2867500423e-05
3.97862985238e-05
5.45568185251e-05
4.831233758e-05
5.47420718606e-05
-0.00013827568205
-0.0498770014733
4.59697617141e-05
-5.10652010152e-05
-0.0124708576843
-3.18843311483e-06
0.0124754617076
3.64147379962e-06
0.0124965397238
1.74228744731e-05
2.51319079068e-05
-5.37081747377e-05
-2.79918902642e-06
-0.0124825943792
6.1663732189e-05
6.50683708305e-05
6.40934688913e-05
7.51162439091e-05
-9.04047936203e-05
0.0124564654307
0.0124019621537
0.0123777812569
0.0124584452298
-0.000211703780458
1.65679293698e-05
6.63620252586e-05
-6.46805623882e-05
-5.17270171945e-06
0.0124834384925
7.15082915055e-05
2.68683986606e-05
3.04284110843e-05
4.24109656008e-05
3.19388719766e-05
-6.00485840258e-05
-0.0499138033653
0.0499211300856
2.67055894328e-05
4.52872578478e-05
3.24577740284e-05
4.48878513123e-05
-0.000134157429624
-0.049941949119
7.71504608725e-05
0.012495230442
2.73245336624e-05
-4.42904920637e-05
-0.0124769187706
1.60613049382e-05
0.0125039810213
3.82736503779e-06
-3.28581222382e-05
-8.59902270895e-06
-0.01248880407
2.23960466499e-05
0.000215274295396
6.34824185586e-05
6.59405104952e-05
6.83501822558e-05
6.88311770132e-05
0.0497969814061
-9.29604160758e-05
-5.62036141729e-05
-4.9340576031e-05
-4.82432599356e-05
-6.02817346157e-05
-5.06153314429e-05
-5.17863989281e-05
-4.46116914979e-05
0.049910746181
3.45716867781e-05
4.40257997827e-05
3.89530515935e-05
4.48211985059e-05
-0.000140642330242
0.0499251682841
0.000164983185777
4.32343828938e-05
6.38941624098e-05
4.40741690639e-05
6.48449703205e-05
-0.000180153860082
-4.50716614599e-05
0.0124906086138
1.89985855478e-05
0.0124584832178
9.24530834094e-05
-7.04675892684e-05
-0.0124629084082
3.42007986913e-05
-5.17904235242e-05
2.37394212802e-05
1.65062152786e-05
-2.80742609401e-05
-1.03939623745e-05
0.0125021585334
0.0124894640234
3.11932126036e-05
2.60479423622e-05
-4.31469447459e-05
-2.26302242038e-05
-0.0124809434711
0.050088343538
3.4394657292e-05
6.5995627141e-05
3.8866504924e-05
7.44645780877e-05
-0.000374118035427
-0.000246187697892
0.000257942933185
3.22414489401e-05
6.17415578503e-05
6.88664411289e-05
3.31794383702e-05
0.0503011723928
-0.000240641017839
-0.000426155245733
-6.86929182147e-05
0.0124699311658
4.29459205333e-05
-7.27959519272e-05
2.20364551544e-05
-2.11222875695e-05
-0.0125201946692
6.81147867843e-05
0.012551475989
-0.000100342060663
3.88235613875e-05
3.2200884033e-05
-4.71705371083e-05
-3.19558076013e-05
0.0124975389994
3.42593976226e-05
-1.03876655033e-05
-2.89226124192e-05
-2.11019152634e-05
-0.0124976206082
0.0125237304528
9.15841893592e-05
1.57344343166e-06
-1.23747165974e-05
-1.16371900684e-05
1.08263214423e-05
6.59858339483e-05
0.0500147205391
2.78552363265e-05
3.89207167894e-05
2.77089726374e-05
4.05424133192e-05
-0.000151208839062
-0.0499824440978
7.54939842104e-05
-2.04342115073e-05
0.0125026518465
1.33529495513e-05
-0.012506150571
0.0124973146112
3.37980683502e-05
-1.36061144195e-05
-0.0124968041105
1.04788809637e-05
0.012495721675
-1.59316503048e-05
-1.77850993049e-05
-1.91673933402e-06
-0.0124827005321
2.25700100847e-05
0.000105711889353
1.03105935317e-05
-1.72323538152e-05
4.67528761018e-06
9.03190682132e-06
0.0501922686068
2.04581419639e-05
0.0500580930982
2.33442499856e-05
4.04283552697e-05
2.92899654079e-05
4.54004076589e-05
-0.000155575955113
2.31841911656e-05
4.68637315232e-05
4.99838681062e-05
2.70235981372e-05
0.0500846138771
8.54629888087e-05
-0.000153300039799
-2.95760263095e-05
0.0124943358427
9.95049422068e-06
7.42394287379e-06
-1.13498763952e-06
-0.012492914774
1.09775073402e-05
0.0125098329001
2.2354720825e-05
-1.69136524875e-05
-1.53853307279e-05
-3.92636718934e-07
0.0125059220223
2.73699036215e-05
-4.73696669774e-05
-1.2067305624e-05
4.06741860156e-06
-0.0124735392981
0.0125014274625
6.63611879232e-08
0.0125032984569
1.68384154533e-05
-0.0125012555056
1.56887566875e-05
-0.0124768577689
0.0125031021926
-2.82620910124e-05
1.34306006499e-05
-0.00181332719644
-0.000130524627826
-7.17352172446e-05
-4.32412106743e-06
0.0346655334826
0.00270391554267
-0.0416770479943
0.00637300647054
0.0370646299935
0.00358900256233
-6.93337171525e-05
-8.57827254048e-05
3.40409443167e-06
-0.0412249088465
-0.00106392625057
-0.00212139692056
-8.89001013324e-05
-0.00011930601184
-3.21934093663e-05
-0.00100665896015
0.0330455009502
0.00308693835609
-0.000308198898961
-0.00630621959486
0.000197469793915
-0.00107773865244
-0.00139245193132
0.00305124686568
0.0121342456928
0.00057029262569
0.000783292490793
-0.000900600614002
0.000222459316548
0.00364643968825
-0.001277834063
0.0040533311145
0.00241314914967
-0.000796464947483
0.0204439562558
0.000375061224671
-0.00130183209042
-0.00119229964497
0.0253720638057
0.000532624679458
0.00230518975568
-0.00255204007082
0.0157223585609
-0.00361350988735
-0.00187345615209
0.0236770701426
0.00770901153885
-0.00013193317368
-7.52104405466e-05
-1.93551010574e-05
-0.000844392586902
-0.0438015392536
0.0406092531786
-4.48763288401e-05
-8.34729019634e-05
3.32636011313e-05
-0.0447412108942
0.00535652774018
0.00658019586711
0.0127991357619
-0.00146763100804
-0.000118711612802
-6.92403107494e-05
-5.51471108512e-05
-0.0108038530537
0.0319559496506
0.0110600776082
-5.84762813185e-05
-5.1695627266e-05
-3.96523810977e-05
0.000951267990697
0.0356304667777
0.00835017585383
-6.54094296899e-05
-4.60548520707e-05
-4.82653070724e-05
0.0014934048593
-0.00320786327535
0.000176654869175
-0.00337914062352
0.00315015289023
0.000851470278739
-0.00124771511004
0.000302999257828
0.00391968158593
-0.00110786474516
0.0132450021906
-0.00212210604122
-4.29003182143e-05
-4.52585655628e-05
-6.11872296523e-05
0.0487478127341
-0.0161108058952
0.0369081535661
0.00732588321954
-3.66951749853e-05
-6.72089033134e-05
-3.08606096078e-05
-0.00121638116587
0.00738503862576
-5.51524769699e-05
-4.2756117443e-05
-5.52943997483e-05
0.0441103063553
0.00168380644438
-0.00373940218754
-0.00412924215009
-0.00180776548675
0.00153466469169
-0.00197946514396
-0.0022691649682
0.000425693677965
0.00399386240995
0.0094049256302
-3.01778006064e-05
-5.46583883207e-05
-1.57226424236e-05
-0.00487046982444
0.0299360355534
-1.34948317241e-05
-2.00549996308e-05
-4.48045283541e-07
-0.0257699045626
0.00471421985136
0.002076821463
0.000940398185478
-0.00188762958391
-0.0012229477605
0.00231200233714
0.0038860845395
-0.00173343178026
-0.000391824584668
0.00278009370685
0.00662909329802
-0.000101408910767
-1.87684837738e-05
1.78495327567e-05
0.0357277733501
0.0276899611903
0.00673485597242
-4.78149798875e-05
-3.54352681846e-05
2.05035209779e-05
-0.00327466571455
-1.59077598081e-05
-6.71175412386e-05
5.55787241252e-05
0.0330186517736
0.000703657590316
0.00137550286418
-0.000792121148282
-0.000214126684029
-0.000214444794923
0.00216433304106
0.000248178790504
0.00158898327717
0.000760003735614
0.0124691787129
2.51534711503e-05
7.6449978527e-06
6.59689717116e-06
-0.0124757747581
2.10563532766e-06
-0.0124548998654
0.0124477916657
-2.87965410789e-08
-2.78828030496e-05
-7.95943147106e-05
1.02060717569e-07
-0.0124935456355
-4.75120876864e-05
-0.0125004879159
-3.48469469872e-06
0.0124770594255
1.00810156275e-05
0.0124518711507
-4.65883539103e-06
-0.0125024186059
-2.90608389283e-06
-0.0124722640386
0.0124715601172
2.14592077203e-05
2.91589509953e-05
-0.0124757736533
-1.60580725894e-05
-0.0124674586484
0.0124614861638
2.2887614249e-05
-5.84113861166e-05
-0.0124984352958
0.0124812519422
-6.74579501949e-05
-2.62922720211e-05
1.95474855261e-05
-0.0124941139088
0.0124554346668
2.0121914285e-05
-0.0124788210739
-0.0124967715365
-0.0124431614626
3.39196442233e-05
5.25307732562e-05
-1.71170988424e-05
0.0124354896355
-1.97348359224e-05
0.0124559125921
2.56926762742e-05
-7.08365358133e-05
0.0124622227484
-4.41961268726e-06
-8.87271346828e-05
-2.73587796265e-05
2.53765710027e-05
0.0124545978052
-1.41263262943e-05
3.33857664471e-05
0.0124428111939
-4.29144476044e-06
0.0124592082259
-6.34243416243e-07
0.0124823866693
2.82297546879e-05
3.42782960789e-06
-0.0124865458919
-0.0124696682278
1.11577738683e-05
0.0124675515006
-7.57409635704e-05
-1.08700574232e-05
-0.0125027439163
-4.82723832477e-05
-0.0125078759726
1.06319927657e-05
0.0124863318628
-0.0124834850054
7.11384725392e-06
0.0124700986442
3.60726743877e-06
-0.0125135189297
0.0124864309973
2.00571995799e-05
8.47802353346e-06
-0.0124848165769
-1.45291854446e-05
-0.0124794918711
0.0124801792062
2.62840666334e-05
-3.16222145789e-05
-0.0125153463969
0.0125042603883
-5.14004947618e-05
-3.2461586962e-05
-0.0125091802311
2.08874214636e-05
0.0124798765271
-0.0124889917508
2.3069037082e-05
-0.0125023350432
-1.9111334014e-05
-0.0124625712981
3.86145829658e-05
0.0124539434763
2.30361615945e-05
0.0124636774448
1.66316544402e-05
-7.2102424622e-05
1.22377792374e-05
0.012478390354
-4.65634925143e-05
0.0124849577401
1.84120206562e-05
0.0124490655483
1.28754606106e-05
0.0124848412187
2.53066763669e-05
-2.68606631755e-05
0.01245788211
5.24105310037e-05
3.40176594771e-05
-0.0124499170576
4.12343119721e-05
0.0124520390216
-4.78960403964e-05
-8.17440251498e-05
1.97031917775e-05
-4.12610328606e-05
-6.12999190151e-05
-0.0124738513911
3.7897414693e-05
0.012462135657
-4.11111755491e-05
4.92752984218e-05
0.0124573656123
2.79038290831e-05
-0.0124762188093
2.61017540241e-05
3.20871301695e-05
0.0124756384517
-1.61453193543e-05
0.0124808942023
3.14162154535e-05
-3.93086477422e-05
0.0124927620215
-3.85826997505e-05
-2.18408492691e-05
0.01248533783
2.51857437952e-05
0.0124756023864
3.76202475642e-05
0.012488313928
0.0124779448136
3.56243020483e-05
3.92756468314e-05
-4.31015974134e-05
-0.0124811639665
0.0124883886085
5.66123030907e-05
-4.6256046438e-05
-0.0124847716568
0.0124803537989
-4.6865682119e-05
-2.19097749439e-05
2.66017850643e-05
0.0124819208002
4.80421560199e-05
-6.16753773646e-05
-0.0124785975214
5.60900053645e-05
0.0125021547543
7.82324190625e-05
-9.62110583028e-05
0.012470120855
5.08721786454e-05
-8.19086302621e-05
-5.57399600782e-05
-6.98510574697e-05
5.34591873994e-05
0.0124863846612
-8.71396641456e-05
-5.61713234338e-05
0.0124804247953
4.88524541216e-05
0.0124950063535
-8.62857539781e-05
-7.01429645113e-05
6.48400904273e-05
-9.13979503318e-05
0.0125071460928
5.94757596308e-05
-7.22626339539e-05
6.10887160778e-05
0.0125328421268
8.46878631633e-05
-0.000104165713832
-0.0125371723613
6.58993532384e-05
0.012593524339
-7.81473063384e-05
-6.5262700318e-05
-4.27298216069e-05
6.76285944026e-05
-0.000101968746454
-0.0125127107707
-5.49972523074e-05
6.23791550251e-05
0.0125278608743
-8.14204862779e-05
-7.57658097838e-05
6.16354425884e-05
8.10144845617e-05
0.0125739570239
-0.000111240363535
-0.0124946780308
6.2257394706e-05
2.66623285265e-05
0.0125183785287
-5.4518415095e-05
0.0124976730564
6.40430664117e-05
-3.64134106959e-05
0.0124965834677
-6.00022031015e-05
-3.98367853372e-05
0.0124930297346
3.67593586183e-05
0.0125079912364
6.63996366545e-05
0.0125116550997
6.0215010776e-05
3.44280060112e-05
0.0125406027706
-0.0125205325596
-4.94169989137e-05
5.71090497421e-05
0.0125456464855
-0.0125157709077
-4.10389321737e-05
0.0125422915242
-5.30316660905e-05
-3.60213325494e-05
4.1111905431e-05
6.35039608516e-05
0.0125642672072
-1.4498835257e-05
-0.0124925120971
1.32073310272e-05
0.0124954345287
3.53688205922e-06
0.0124907632662
1.27656524346e-05
-0.0124899303015
-2.2344727724e-05
4.0907241092e-06
0.0124916221372
-1.61061334613e-05
0.0124957976168
-0.0125079987744
6.01568231356e-06
0.0124929725906
-0.0124948131639
3.81767663412e-06
0.0124948505225
2.38314155118e-06
-1.94257091067e-05
0.0124961228287
1.38432196103e-05
6.45181993913e-06
-0.0124953176068
2.66296227317e-05
0.0124993013637
-1.46379106125e-05
5.57985975337e-06
-3.03158727179e-05
-0.0124970914509
-2.22674357419e-06
0.0124851494743
8.44671878065e-06
0.0124948157414
1.17088246394e-06
0.0125018968137
1.18514195508e-05
1.76514498424e-05
-0.0124970922994
-1.17808150696e-05
-0.0124993705878
0.0125014445711
3.08348797259e-05
-2.49194336375e-05