time,x,y,z,rel_vel_mag,alpha_deg,alpha_geom_deg,cl,cd,cm
0.00119048,5,-1.98462,2.73222,11.3361,-10.246,13.8777,-0.143849,0.233381,1e-300
