time,x,y,z,rel_vel_mag,alpha_deg,alpha_geom_deg,cl,cd,cm
0.00625,5,-5.4888207535,1.33189814305,1.91753476541,21.1208347352,21.1208347352,0.648520698899,0.21645142607,1e-300
0.0135416666667,5,-5.47579520488,1.33120308091,1.91716731772,21.0847206755,21.1208347352,0.897317725229,0.216039323916,1e-300
0.02265625,5,-5.45956813479,1.32961586307,1.9168691488,21.0255859113,21.1208347352,0.898166199756,0.215380985369,1e-300
0.036328125,5,-5.43542243374,1.32574697366,1.91660130351,20.9567125043,21.1208347352,0.898994025861,0.214644608608,1e-300
0.05,5,-5.41162689433,1.32011177284,1.9161341018,20.856554985,21.1208347352,0.900441148432,0.213569189609,1e-300
0.0666666666667,5,-5.38327967655,1.31089824542,1.91562987524,20.7712845686,21.1208347352,0.901820571884,0.21261958841,1e-300
0.0833333333333,5,-5.35587278656,1.29918004489,1.91502930851,20.6778880628,21.1208347352,0.903222360129,0.211574456076,1e-300
0.1,5,-5.32962702102,1.28505157594,1.91462397989,20.5994070138,21.1208347352,0.904237349158,0.21071249057,1e-300
0.116666666667,5,-5.30475382232,1.26862666103,1.91446707972,20.5330544133,21.1208347352,0.905021107092,0.20997366075,1e-300
0.133333333333,5,-5.2814535751,1.25003762333,1.9144325781,20.4813468817,21.1208347352,0.905578652401,0.20936895691,1e-300
0.15,5,-5.25991399191,1.22943422071,1.91416154778,20.4399633458,21.1208347352,0.905999858344,0.208853711205,1e-300
0.166666666667,5,-5.24030860096,1.2069824393,1.9140475139,20.4047404303,21.1208347352,0.906273320217,0.208418139092,1e-300
0.183333333333,5,-5.22279534812,1.18286315618,1.91405441521,20.3760718191,21.1208347352,0.906437074463,0.208045163633,1e-300
0.2,5,-5.20751532448,1.15727068227,1.91412234682,20.3467179555,21.1208347352,0.906560337193,0.207669371874,1e-300
0.216666666667,5,-5.1945916297,1.13041119686,1.91421036599,20.3157239625,21.1208347352,0.90670518565,0.207264790498,1e-300
0.233333333333,5,-5.18412838026,1.1025010866,1.91426941263,20.2808076242,21.1208347352,0.906888006937,0.206816190882,1e-300
0.25,5,-5.17620987067,1.07376520226,1.91457002916,20.2395317869,21.1208347352,0.907233272406,0.206298326842,1e-300
0.266666666667,5,-5.17089989442,1.0444350472,1.91515437449,20.1907760793,21.1208347352,0.907751910531,0.20571608048,1e-300
0.283333333333,5,-5.16824122998,1.01474691242,1.91551364418,20.1408706631,21.1208347352,0.908350676384,0.205144233966,1e-300
0.3,5,-5.1682552962,0.984939972873,1.91580678908,20.0805406447,21.1208347352,0.908842113103,0.204493231817,1e-300
0.325,5,-5.17328162662,0.940531879046,1.91660020438,20.0377671424,21.1208347352,0.908302089453,0.204013154244,1e-300
0.35,5,-5.18422526374,0.897200832424,1.91645137364,19.9240154213,21.1208347352,0.907741162718,0.203049395799,1e-300
0.375,5,-5.20088800366,0.855731616213,1.91597425932,19.8065089303,21.1208347352,0.907528584106,0.202094167121,1e-300
0.4,5,-5.22296806188,0.816875293382,1.91521901364,19.6953195942,21.1208347352,0.906912032325,0.201238959109,1e-300
0.425,5,-5.250065539,0.781335603903,1.91415915622,19.6024196889,21.1208347352,0.906135537369,0.200613220363,1e-300
0.45,5,-5.28168966349,0.749756219087,1.91269425592,19.5265167802,21.1208347352,0.905371338074,0.20014244886,1e-300
0.475,5,-5.31726768014,0.722709083826,1.91134626285,19.4700956278,21.1208347352,0.904840113908,0.19976764766,1e-300
0.5,5,-5.3561552235,0.700684057914,1.91015993874,19.4289071612,21.1208347352,0.904207777115,0.19949271471,1e-300
0.525,5,-5.39764798814,0.684080044027,1.909071119,19.3936918108,21.1208347352,0.90388799554,0.199187681986,1e-300
0.55,5,-5.44099448461,0.673197763064,1.9083054563,19.3617686403,21.1208347352,0.903548252047,0.198905859427,1e-300
0.575,5,-5.48540964987,0.668234307686,1.90785401475,19.3355382156,21.1208347352,0.903246537101,0.198690322597,1e-300
0.6,5,-5.53008906589,0.66927957271,1.90744595551,19.3012939357,21.1208347352,0.902670436894,0.198431816457,1e-300
0.625,5,-5.57422352869,0.676314626987,1.90727909817,19.2651929262,21.1208347352,0.902201920494,0.19816374796,1e-300
0.65,5,-5.61701370411,0.689212056275,1.90712302999,19.230261981,21.1208347352,0.901259050877,0.197934337605,1e-300
0.675,5,-5.65768460485,0.707738270882,1.90694190728,19.1901277416,21.1208347352,0.90043829157,0.197685535588,1e-300
0.7,5,-5.6954996265,0.731557736282,1.90679846101,19.1437505699,21.1208347352,0.89862122767,0.197559790204,1e-300
0.725,5,-5.72977388846,0.760239050101,1.90665843087,19.1152367705,21.1208347352,0.897174186254,0.197550207105,1e-300
0.75,5,-5.75988663798,0.793262755386,1.90640274658,19.0772536364,21.1208347352,0.895311495051,0.197497621189,1e-300
0.775,5,-5.78529249292,0.830030748667,1.90619795361,19.0539473126,21.1208347352,0.894453831014,0.197494180739,1e-300
0.8,5,-5.80553131924,0.869877112412,1.905852584,19.0322576377,21.1208347352,0.89401369534,0.197456428925,1e-300
0.825,5,-5.82023656475,0.912080175681,1.9052603641,19.0100374214,21.1208347352,0.894727797026,0.197132039905,1e-300
0.85,5,-5.82914189778,0.955875584555,1.90419244234,18.9603006258,21.1208347352,0.891776232907,0.197043513056,1e-300
0.875,5,-5.83208603084,1.00047014561,1.90279545816,18.8522317529,21.1208347352,0.885401359511,0.197136525266,1e-300
0.9,5,-5.82901564173,1.04505619169,1.90188024763,18.7422031379,21.1208347352,0.877183676731,0.197650556951,1e-300
0.925,5,-5.81998633932,1.08882620989,1.90187597731,18.7079358057,21.1208347352,0.875286530601,0.197759586497,1e-300
0.95,5,-5.80516165634,1.13098746662,1.9023712958,18.7093553992,21.1208347352,0.878158797894,0.197204573918,1e-300
0.975,5,-5.78481008764,1.17077636515,1.90263315763,18.7046515668,21.1208347352,0.880325685126,0.196889661231,1e-300
1,5,-5.75930022733,1.2074722753,1.90253249803,18.7011497371,21.1208347352,0.880216766863,0.196866684191,1e-300
1.025,5,-5.72909409311,1.24041058507,1.90235995892,18.7149995288,21.1208347352,0.880287964053,0.196921472078,1e-300
1.05,5,-5.69473875847,1.26899473761,1.902105313,18.7156646925,21.1208347352,0.878806801395,0.197099700032,1e-300
1.075,5,-5.65685644446,1.29270703569,1.90170560167,18.716480465,21.1208347352,0.878969055269,0.197108284165,1e-300
1.1,5,-5.61613325046,1.31111801788,1.90099314884,18.7111199658,21.1208347352,0.878522025226,0.19719147993,1e-300
1.125,5,-5.57330672798,1.32389423667,1.90003104908,18.7050084456,21.1208347352,0.878747305996,0.197151196117,1e-300
1.15,5,-5.5291525226,1.33080429764,1.89892184601,18.7038726946,21.1208347352,0.879233838021,0.19711004212,1e-300
1.175,5,-5.48447032606,1.33172305036,1.89773120552,18.7034666534,21.1208347352,0.879188103452,0.197136847926,1e-300
1.2,5,-5.44006939268,1.32663385498,1.89651730922,18.7012417811,21.1208347352,0.87900531527,0.197132701092,1e-300
1.225,5,-5.39675388275,1.31562888364,1.89550065181,18.7036410944,21.1208347352,0.879242642575,0.197070787099,1e-300
1.25,5,-5.35530829808,1.29890745108,1.89467578201,18.7037396654,21.1208347352,0.879157248077,0.197018738209,1e-300
1.275,5,-5.31648327366,1.27677240481,1.89405831576,18.6993982508,21.1208347352,0.877095226923,0.197256884313,1e-300
1.3,5,-5.28098198259,1.24962464013,1.89356279696,18.6917117058,21.1208347352,0.875315573431,0.197446882878,1e-300
1.325,5,-5.24944740073,1.21795583937,1.89308834412,18.6720146509,21.1208347352,0.872677368319,0.197700049065,1e-300
1.35,5,-5.22245066155,1.18233956685,1.89271081116,18.6511971133,21.1208347352,0.870738693557,0.19781477282,1e-300
1.375,5,-5.20048071208,1.14342088091,1.89252611197,18.6343429914,21.1208347352,0.869446743312,0.197915093911,1e-300
1.4,5,-5.18393545751,1.101904651,1.89247677817,18.6276764171,21.1208347352,0.868445848707,0.198088907477,1e-300
1.425,5,-5.17311455452,1.05854279157,1.8925426138,18.6357091563,21.1208347352,0.868746771716,0.198148977499,1e-300
1.45,5,-5.16821398413,1.01412064388,1.89313081792,18.6810441286,21.1208347352,0.873739068599,0.197827294137,1e-300
1.475,5,-5.16932250222,0.969442752457,1.89418415188,18.7166193634,21.1208347352,0.876982837235,0.197610984649,1e-300
1.5,5,-5.17642003206,0.925318293651,1.8952903091,18.7270504128,21.1208347352,0.878475192766,0.197422405577,1e-300
1.525,5,-5.18937802789,0.882546420428,1.89606756244,18.7125935648,21.1208347352,0.876775353865,0.197531332076,1e-300
1.55,5,-5.20796180306,0.841901788617,1.8966505121,18.6889040386,21.1208347352,0.875078843232,0.197623933133,1e-300
1.575,5,-5.23183478056,0.804120526859,1.89706984929,18.6620945085,21.1208347352,0.871676147294,0.197927737839,1e-300
1.6,5,-5.26056458884,0.769886904335,1.89742834671,18.6516447927,21.1208347352,0.870910797799,0.197980425707,1e-300
1.625,5,-5.29363089264,0.739820937733,1.89754093724,18.6271931187,21.1208347352,0.868308421909,0.198151585381,1e-300
1.65,5,-5.33043481698,0.71446716192,1.89756471014,18.6189921089,21.1208347352,0.868692423291,0.198022690285,1e-300
1.675,5,-5.37030979357,0.694284767685,1.89739254575,18.6115996723,21.1208347352,0.868196877768,0.198059205654,1e-300
1.7,5,-5.41253363325,0.67963928518,1.89704732023,18.6072277003,21.1208347352,0.868025361014,0.198036330417,1e-300
1.725,5,-5.4563416058,0.67079596368,1.89660697199,18.6010158752,21.1208347352,0.867488476788,0.198063067315,1e-300
1.75,5,-5.50094029027,0.667914967565,1.89614173928,18.6012555367,21.1208347352,0.867661284412,0.198058360265,1e-300
1.775,5,-5.54552194482,0.671048475528,1.89556068674,18.5972025152,21.1208347352,0.867778253215,0.198023837238,1e-300
1.8,5,-5.58927913607,0.680139735548,1.89515102421,18.5947304953,21.1208347352,0.868230987031,0.197935768065,1e-300
1.825,5,-5.63141936276,0.695024092748,1.89480463352,18.5881778444,21.1208347352,0.868469885307,0.197811829393,1e-300
1.85,5,-5.67117940903,0.715431971512,1.89462202938,18.5808499558,21.1208347352,0.868015902364,0.197862909145,1e-300
1.875,5,-5.70783916726,0.740993757862,1.89466639708,18.5709502074,21.1208347352,0.867098270755,0.197937267022,1e-300
1.9,5,-5.7407346802,0.771246493659,1.89491348614,18.5678424357,21.1208347352,0.867330724677,0.197917914605,1e-300
1.925,5,-5.76927016611,0.805642261398,1.89518650593,18.5471588038,21.1208347352,0.866106334372,0.197930200318,1e-300
1.95,5,-5.79292880919,0.843558107723,1.89561858414,18.5357350222,21.1208347352,0.866191585038,0.197836029545,1e-300
1.975,5,-5.81128211976,0.884307325947,1.89607032715,18.5223533925,21.1208347352,0.865239658953,0.197877164161,1e-300
2,5,-5.82399769483,0.927151893229,1.89648274744,18.5058645137,21.1208347352,0.864244105501,0.197866876577,1e-300
2.025,5,-5.83084523831,0.971315837154,1.89681792632,18.4855177876,21.1208347352,0.862273684544,0.198004851734,1e-300
2.05,5,-5.83170073205,1.01599928963,1.89713611258,18.4613066237,21.1208347352,0.860051930692,0.19817649319,1e-300
2.075,5,-5.82654868191,1.06039297357,1.89744539766,18.437264549,21.1208347352,0.858340566171,0.198269138556,1e-300
2.1,5,-5.8154823984,1.10369286,1.8978783965,18.4218518777,21.1208347352,0.857785429068,0.198233664866,1e-300
2.125,5,-5.79870230672,1.14511473004,1.89822335102,18.4121778761,21.1208347352,0.857681578312,0.198172084307,1e-300
2.15,5,-5.77651231677,1.18390837824,1.89852846122,18.4089183971,21.1208347352,0.857377038202,0.198168203391,1e-300
2.175,5,-5.74931431895,1.21937119975,1.89876274437,18.4119219729,21.1208347352,0.857599119817,0.198172598559,1e-300
2.2,5,-5.71760090537,1.25086091544,1.89873288611,18.4112605501,21.1208347352,0.857522735214,0.198167123812,1e-300
2.225,5,-5.68194644837,1.27780720444,1.89839107802,18.4130192679,21.1208347352,0.857435935814,0.198198107812,1e-300
2.25,5,-5.64299669785,1.29972203342,1.89770875191,18.4197669384,21.1208347352,0.857922523966,0.198215185114,1e-300
2.275,5,-5.60145708589,1.31620849552,1.8966723544,18.4316259575,21.1208347352,0.85832660157,0.198258768911,1e-300
2.3,5,-5.5580799504,1.32696799885,1.89540090142,18.4453012202,21.1208347352,0.858724289065,0.198292650968,1e-300
2.325,5,-5.51365090934,1.33180567444,1.8938331555,18.4654720564,21.1208347352,0.859702066872,0.198302191158,1e-300
2.35,5,-5.46897463205,1.33063390549,1.89209209771,18.4798804651,21.1208347352,0.860294100858,0.198325715743,1e-300
2.375,5,-5.42486026567,1.32347391431,1.89064213627,18.4946516849,21.1208347352,0.861361840881,0.198273451159,1e-300
2.4,5,-5.38210678037,1.31045537792,1.88941742348,18.5047099686,21.1208347352,0.861941295344,0.198226482183,1e-300
2.425,5,-5.34148849896,1.29181407942,1.88848842888,18.5135926156,21.1208347352,0.862575713835,0.19820164377,1e-300
2.45,5,-5.30374107282,1.26788763767,1.88791272314,18.5174546913,21.1208347352,0.861687388262,0.198363442873,1e-300
2.475,5,-5.26954815834,1.23910939252,1.88767459576,18.5301810071,21.1208347352,0.862845036553,0.198305579972,1e-300
2.5,5,-5.23952903493,1.20600055647,1.88757880367,18.5203991316,21.1208347352,0.861474327212,0.198417012033,1e-300
2.525,5,-5.21422738905,1.16916077484,1.88784305365,18.5207951482,21.1208347352,0.862314821633,0.198275734155,1e-300
2.55,5,-5.19410146736,1.12925726533,1.88833080886,18.5170426757,21.1208347352,0.861766740545,0.198332875641,1e-300
2.575,5,-5.17951577721,1.08701273388,1.88898245407,18.5122858028,21.1208347352,0.861158293456,0.19837350576,1e-300
2.6,5,-5.17073448496,1.04319228544,1.88966583458,18.505790841,21.1208347352,0.86029215222,0.198456428403,1e-300
2.625,5,-5.16791663156,0.99858956695,1.8904627486,18.5066768595,21.1208347352,0.860283907371,0.198488069655,1e-300
2.65,5,-5.1711132521,0.954012393286,1.89138600281,18.4977942323,21.1208347352,0.859950118606,0.198475853292,1e-300
2.675,5,-5.18026645151,0.910268116684,1.89207822516,18.4838318837,21.1208347352,0.859396347319,0.198457917606,1e-300
2.7,5,-5.1952104531,0.868149004499,1.89257788581,18.4650252216,21.1208347352,0.858661072944,0.198420561455,1e-300
2.725,5,-5.21567460102,0.828417890184,1.89310716258,18.4492414084,21.1208347352,0.857555657906,0.19851881022,1e-300
2.75,5,-5.24128826218,0.791794357357,1.89363610162,18.4356072474,21.1208347352,0.856471407089,0.198590924633,1e-300
2.775,5,-5.27158753892,0.758941707179,1.89406427846,18.4335845401,21.1208347352,0.856785064617,0.198523279288,1e-300
2.8,5,-5.30602367082,0.730454945081,1.89417933424,18.4202136508,21.1208347352,0.85607175762,0.198494086291,1e-300
2.825,5,-5.34397297347,0.706850004426,1.89410853743,18.4203202062,21.1208347352,0.856773691903,0.198403041336,1e-300
2.85,5,-5.38474813424,0.688554402259,1.89384806668,18.4208888245,21.1208347352,0.856792522136,0.19837778492,1e-300
2.875,5,-5.42761066045,0.675899496403,1.89343499233,18.4214374571,21.1208347352,0.856828267762,0.1983340377,1e-300
2.9,5,-5.4717842544,0.669114484128,1.89285724736,18.4224371547,21.1208347352,0.856715618646,0.198342764659,1e-300
2.925,5,-5.51646887325,0.668322251082,1.89221400505,18.4231996805,21.1208347352,0.856774719762,0.198343973517,1e-300
2.95,5,-5.56085521878,0.673537145665,1.89165829895,18.4220913473,21.1208347352,0.857032079514,0.19831636041,1e-300
2.975,5,-5.60413939491,0.684664719161,1.89120436486,18.4185721989,21.1208347352,0.85697878515,0.198324712714,1e-300
3,5,-5.64553746731,0.701503436331,1.89080056907,18.4092242508,21.1208347352,0.85692616031,0.198271521274,1e-300
3.025,5,-5.68429966154,0.723748325488,1.89053772035,18.3967725528,21.1208347352,0.85618939442,0.19827025882,1e-300
3.05,5,-5.7197239424,0.750996501937,1.89057768589,18.3880636359,21.1208347352,0.85592138474,0.198265788381,1e-300
3.075,5,-5.75116872881,0.782754464761,1.89076694621,18.3720430705,21.1208347352,0.855263654503,0.198228811082,1e-300
3.1,5,-5.77806451362,0.818447034778,1.89113778512,18.3577884527,21.1208347352,0.854773389981,0.198189806097,1e-300
3.125,5,-5.79992417819,0.85742777181,1.89161601404,18.3456488946,21.1208347352,0.854778679068,0.198105007085,1e-300
3.15,5,-5.81635181477,0.898990682575,1.89208632875,18.329678569,21.1208347352,0.854162046945,0.198025963883,1e-300
3.175,5,-5.82704989688,0.942383007171,1.89257620196,18.3073091577,21.1208347352,0.853210957272,0.197919929806,1e-300
3.2,5,-5.83182466796,0.986818852566,1.89323527867,18.2832623768,21.1208347352,0.851962902978,0.197879710845,1e-300
3.225,5,-5.83058965051,1.03149342617,1.8936762538,18.2598300302,21.1208347352,0.850995912118,0.197823785398,1e-300
3.25,5,-5.82336721234,1.07559761171,1.89419132834,18.2435119588,21.1208347352,0.850553530563,0.197783226531,1e-300
3.275,5,-5.81028816148,1.11833262339,1.89473070503,18.2287843657,21.1208347352,0.850019740426,0.197761627023,1e-300
3.3,5,-5.79158937703,1.158924473,1.8950772117,18.2149437615,21.1208347352,0.849875397929,0.19768272364,1e-300
3.325,5,-5.76760951898,1.19663798785,1.89527629878,18.2025714626,21.1208347352,0.848782213089,0.197748610177,1e-300
3.35,5,-5.73878289463,1.23079012576,1.89535972438,18.2097992339,21.1208347352,0.849424855028,0.197729663792,1e-300
3.375,5,-5.7056315927,1.26076234582,1.89507135897,18.2013047039,21.1208347352,0.848469968972,0.197767834729,1e-300
3.4,5,-5.66875602762,1.28601181104,1.8945764819,18.2086075028,21.1208347352,0.848874627741,0.197771981203,1e-300
3.425,5,-5.62882406517,1.30608121985,1.89377434733,18.217107517,21.1208347352,0.849219145844,0.197792734336,1e-300
3.45,5,-5.58655892661,1.32060708841,1.89280110209,18.2301621651,21.1208347352,0.849680489725,0.197815883011,1e-300
3.475,5,-5.54272609012,1.3293263338,1.89156816216,18.2430543172,21.1208347352,0.849819758843,0.19788547552,1e-300
3.5,5,-5.498119427,1.33208103884,1.88997078004,18.2628765378,21.1208347352,0.850356146766,0.197986700717,1e-300
3.525,5,-5.45354682357,1.32882131213,1.88844031886,18.2783821799,21.1208347352,0.850996012628,0.198027147554,1e-300
3.55,5,-5.40981554929,1.31960619168,1.88731567874,18.2921356935,21.1208347352,0.851399325793,0.19811421593,1e-300
3.575,5,-5.36771763603,1.30460257566,1.88637847503,18.3018480446,21.1208347352,0.851622241398,0.198176058996,1e-300
3.6,5,-5.3280155333,1.2840821996,1.88566942934,18.3089748445,21.1208347352,0.851889918288,0.198179373447,1e-300
3.625,5,-5.29142829928,1.25841671496,1.88520013298,18.3109226457,21.1208347352,0.851558704581,0.198251513607,1e-300
3.65,5,-5.25861857771,1.22807095801,1.88497592935,18.317807245,21.1208347352,0.852206477679,0.198216456932,1e-300
3.675,5,-5.23018059653,1.19359453097,1.88488461564,18.3074568199,21.1208347352,0.851579222052,0.198207665428,1e-300
3.7,5,-5.2066294056,1.15561184806,1.88514633513,18.3052693798,21.1208347352,0.851852687022,0.198163179008,1e-300
3.725,5,-5.18839154851,1.11481082646,1.88550223657,18.3010686044,21.1208347352,0.851444773618,0.198164081645,1e-300
3.75,5,-5.17579733723,1.07193042725,1.88603426342,18.295340823,21.1208347352,0.851109324297,0.198132210361,1e-300
3.775,5,-5.16907486976,1.02774727179,1.88658603279,18.2928392012,21.1208347352,0.850865469086,0.19813616393,1e-300
3.8,5,-5.168345899,0.983061576135,1.88727485645,18.2897249634,21.1208347352,0.850690430179,0.198131535779,1e-300
3.825,5,-5.17362362757,0.938682657988,1.8881692676,18.2813551537,21.1208347352,0.850506988661,0.19810207908,1e-300
3.85,5,-5.18481246875,0.895414278911,1.88880965865,18.269913462,21.1208347352,0.849960367585,0.198118872555,1e-300
3.875,5,-5.20170977766,0.85404008712,1.88935965837,18.2554072003,21.1208347352,0.849608474778,0.198066502814,1e-300
3.9,5,-5.22400952144,0.815309424562,1.88993545849,18.2426399497,21.1208347352,0.849004039537,0.198050789004,1e-300
3.925,5,-5.2513078219,0.779923755336,1.89050887703,18.2392436602,21.1208347352,0.849022270049,0.198045460897,1e-300
3.95,5,-5.28311027032,0.748523961238,1.89083400564,18.2317475087,21.1208347352,0.84877769326,0.198004177746,1e-300
3.975,5,-5.31884088181,0.721678734532,1.89095134871,18.2282537011,21.1208347352,0.848793433593,0.197963213371,1e-300
4,5,-5.35785252723,0.69987427818,1.890833173,18.2298700308,21.1208347352,0.84922920306,0.197907387067,1e-300
4.025,5,-5.39943865349,0.683505500046,1.89052457135,18.2323497829,21.1208347352,0.8494387558,0.197869816987,1e-300
4.05,5,-5.44284608023,0.672868860596,1.8901338215,18.2324603352,21.1208347352,0.849240223367,0.197852902227,1e-300
4.075,5,-5.48728864089,0.668157003595,1.88953054437,18.2373017385,21.1208347352,0.849414442022,0.197866751078,1e-300
4.1,5,-5.53196142127,0.669455267076,1.8888248393,18.2401079339,21.1208347352,0.849636137177,0.197859913265,1e-300
4.125,5,-5.57605533756,0.67674013775,1.88838833146,18.2422411601,21.1208347352,0.849952869819,0.197865918277,1e-300
4.15,5,-5.61877178997,0.689879676867,1.88799559144,18.2377261122,21.1208347352,0.849736737889,0.19788533353,1e-300
4.175,5,-5.65933712642,0.7086359098,1.88775175954,18.2301999293,21.1208347352,0.850061160407,0.197782046461,1e-300
4.2,5,-5.6970166544,0.732669136086,1.88771285563,18.2183874374,21.1208347352,0.849119137097,0.197818486717,1e-300
4.225,5,-5.73112794728,0.761544081853,1.88793939491,18.2184264782,21.1208347352,0.849627352234,0.197758541197,1e-300
4.25,5,-5.76105320391,0.794737783215,1.88826405626,18.1956937739,21.1208347352,0.848273660166,0.197760183404,1e-300
4.275,5,-5.78625043789,0.831649057848,1.88883323103,18.1876741988,21.1208347352,0.848342757789,0.197708542759,1e-300
4.3,5,-5.80626329359,0.8716093932,1.88942248641,18.1775523408,21.1208347352,0.848037293966,0.197668101237,1e-300
4.325,5,-5.82072931144,0.913895054155,1.89006874574,18.1636251799,21.1208347352,0.847561825386,0.197578892465,1e-300
4.35,5,-5.8293864925,0.957740190838,1.89082895611,18.1414550883,21.1208347352,0.848057676382,0.19736893154,1e-300
4.375,5,-5.83207804366,1.00235070919,1.89161258442,18.1206426974,21.1208347352,0.847444682631,0.1973005829,1e-300
4.4,5,-5.82875521731,1.04691865304,1.89208772293,18.101361387,21.1208347352,0.847392025679,0.197179852132,1e-300
4.425,5,-5.81947819429,1.09063683735,1.89266779234,18.0873096024,21.1208347352,0.847725334971,0.197092767438,1e-300
4.45,5,-5.8044149939,1.13271346731,1.89323160537,18.0773824806,21.1208347352,0.847780441011,0.197028453142,1e-300
4.475,5,-5.78383843083,1.17238647888,1.8937488941,18.074848617,21.1208347352,0.847846500279,0.196995850812,1e-300
4.5,5,-5.75812117416,1.20893734076,1.8940714854,18.0743051008,21.1208347352,0.847663286423,0.197032995943,1e-300
4.525,5,-5.72772899781,1.24170406796,1.89414501974,18.0846418986,21.1208347352,0.848432994716,0.197022082897,1e-300
4.55,5,-5.69321234474,1.27009321123,1.89377714505,18.0857067074,21.1208347352,0.847659205318,0.197105555047,1e-300
4.575,5,-5.6551963577,1.29359060521,1.89314920903,18.0995250184,21.1208347352,0.846972137632,0.197250940406,1e-300
4.6,5,-5.61436955706,1.31177068068,1.89220880055,18.1174771104,21.1208347352,0.84660751769,0.197414034396,1e-300
4.625,5,-5.57147137077,1.32430417215,1.89113811061,18.1378619299,21.1208347352,0.846316131876,0.197557124728,1e-300
4.65,5,-5.52727874238,1.33096408133,1.88967730719,18.1624265943,21.1208347352,0.846702949648,0.197698496358,1e-300
4.675,5,-5.48259205947,1.33162978835,1.88790070962,18.1884156398,21.1208347352,0.847495938021,0.197818429068,1e-300
4.7,5,-5.43822065765,1.32628923637,1.8863494753,18.2117476385,21.1208347352,0.8484256518,0.197910960371,1e-300
4.725,5,-5.39496816235,1.31503914994,1.88512782782,18.2313334439,21.1208347352,0.848940501627,0.198040932463,1e-300
4.75,5,-5.3536179341,1.29808328315,1.88412964111,18.2475513694,21.1208347352,0.849599772339,0.19807419805,1e-300
4.775,5,-5.31491888084,1.27572872945,1.88348846909,18.2618871119,21.1208347352,0.849755503863,0.198131693222,1e-300
4.8,5,-5.27957189418,1.24838035968,1.88321585106,18.2764529713,21.1208347352,0.850436585255,0.198148287861,1e-300
4.825,5,-5.24821715532,1.21653348941,1.88319087069,18.2804760778,21.1208347352,0.850738457704,0.198117031821,1e-300
4.85,5,-5.22142254052,1.18076490805,1.88344339114,18.2836536375,21.1208347352,0.850887914715,0.198111690361,1e-300
4.875,5,-5.19967333609,1.14172243244,1.88387279496,18.2842008933,21.1208347352,0.850954049854,0.198112424842,1e-300
4.9,5,-5.18336344921,1.10011317404,1.8844699391,18.2819280742,21.1208347352,0.850509621959,0.198129665338,1e-300
4.925,5,-5.17278827374,1.05669073216,1.88525334714,18.2769820385,21.1208347352,0.849850212566,0.198156183391,1e-300
4.95,5,-5.16813934026,1.01224154531,1.88607240196,18.2781357431,21.1208347352,0.849737626954,0.198187811319,1e-300
4.975,5,-5.16950084717,0.967570647693,1.88710712694,18.273905891,21.1208347352,0.849590436804,0.198172535137,1e-300
5,5,-5.17684813575,0.92348708902,1.88818808837,18.2681686852,21.1208347352,0.849549025057,0.198162471086,1e-300
5.025,5,-5.19004813679,0.880789281495,1.88903852152,18.255296614,21.1208347352,0.848926345011,0.198171898098,1e-300
5.05,5,-5.20886178061,0.840250539519,1.8897827266,18.2424297576,21.1208347352,0.848949823909,0.198078074082,1e-300
5.075,5,-5.23294832696,0.802605073926,1.89054130086,18.2315399166,21.1208347352,0.848196576733,0.198122947244,1e-300
5.1,5,-5.26187153627,0.768534694445,1.89126978185,18.2409569574,21.1208347352,0.849224528758,0.198079887628,1e-300
5.125,5,-5.29510757054,0.738656461217,1.89152148451,18.2314001854,21.1208347352,0.848636331063,0.198054014884,1e-300
5.15,5,-5.33205448074,0.713511509005,1.89162516065,18.2398598012,21.1208347352,0.849642445671,0.197988195202,1e-300
5.175,5,-5.3720431089,0.693555246523,1.89143223139,18.2474169252,21.1208347352,0.850033861868,0.197977491616,1e-300
5.2,5,-5.4143492075,0.679149108374,1.89112444585,18.2550494614,21.1208347352,0.850306072286,0.197965301419,1e-300
5.225,5,-5.4582065565,0.670554008989,1.89067326916,18.2589441331,21.1208347352,0.850131736105,0.197994645335,1e-300
5.25,5,-5.50282084066,0.667925617111,1.88995446328,18.2677310837,21.1208347352,0.85035045921,0.198050943188,1e-300
5.275,5,-5.54738403562,0.671311536433,1.88924173437,18.2764228801,21.1208347352,0.850924655705,0.198055423299,1e-300
5.3,5,-5.59108904232,0.680650443429,1.88878745075,18.2828835669,21.1208347352,0.851223459505,0.19810361064,1e-300
5.325,5,-5.63314430464,0.695773198001,1.8883469794,18.2845134117,21.1208347352,0.85137234748,0.198116782657,1e-300
5.35,5,-5.67278814554,0.71640590684,1.88804430607,18.2837079757,21.1208347352,0.851730429872,0.198049476539,1e-300
5.375,5,-5.70930256202,0.742174883992,1.88792631125,18.2795929604,21.1208347352,0.851467266212,0.198065729732,1e-300
5.4,5,-5.74202622918,0.772613418819,1.88813484532,18.2808879003,21.1208347352,0.851970072012,0.198004113808,1e-300
5.425,5,-5.77036647764,0.807170228744,1.88852408476,18.2669406753,21.1208347352,0.851149652039,0.198008529357,1e-300
5.45,5,-5.79381002759,0.845219443723,1.88904609756,18.2636509424,21.1208347352,0.851425569226,0.197967423219,1e-300
5.475,5,-5.81193228499,0.886071941584,1.88956758135,18.2575996325,21.1208347352,0.850994722924,0.197960903249,1e-300
5.5,5,-5.82440503152,0.928987828954,1.89021295207,18.2437266997,21.1208347352,0.850297705126,0.197890480552,1e-300
5.525,5,-5.83100236906,0.973189841716,1.89100125703,18.2265089566,21.1208347352,0.849039869236,0.197888149878,1e-300
5.55,5,-5.83160481101,1.0178774223,1.89163350654,18.2102220218,21.1208347352,0.848066633985,0.197879552364,1e-300
5.575,5,-5.82620144633,1.06224121886,1.89213370614,18.1960477793,21.1208347352,0.847627175038,0.197842653963,1e-300
5.6,5,-5.81489013719,1.1054777437,1.89268450683,18.1828473053,21.1208347352,0.846991060615,0.197854769942,1e-300
5.625,5,-5.79787574652,1.14680392553,1.89327441675,18.1731211053,21.1208347352,0.846758265126,0.197809278602,1e-300
5.65,5,-5.77546642769,1.18547129193,1.89377265027,18.1714550392,21.1208347352,0.846793074185,0.197802574493,1e-300
5.675,5,-5.74806804344,1.22077952518,1.8940844226,18.1793191284,21.1208347352,0.847457581292,0.197788840733,1e-300
5.7,5,-5.71617681514,1.25208914595,1.89407476726,18.1825542917,21.1208347352,0.847734023189,0.197766447589,1e-300
5.725,5,-5.68037033561,1.27883309514,1.89369595966,18.1910685495,21.1208347352,0.848175892063,0.197776819407,1e-300
5.75,5,-5.64129710806,1.30052700405,1.89308476187,18.2011639118,21.1208347352,0.848686463927,0.197792899062,1e-300
5.775,5,-5.59966480092,1.31677796699,1.89224115512,18.21379173,21.1208347352,0.849328411071,0.197806588707,1e-300
5.8,5,-5.55622743093,1.32729165728,1.89128793814,18.2249783735,21.1208347352,0.849605653451,0.197837733726,1e-300
5.825,5,-5.51177170697,1.33187765792,1.88989665344,18.2432193371,21.1208347352,0.850198000591,0.197915679479,1e-300
5.85,5,-5.46710278165,1.33045291032,1.88833462568,18.2562519825,21.1208347352,0.850506768325,0.197975480025,1e-300
5.875,5,-5.42302966896,1.32304321855,1.88714615105,18.2698276185,21.1208347352,0.850932152699,0.198051615473,1e-300
5.9,5,-5.3803505919,1.30978278205,1.88615549896,18.2797330622,21.1208347352,0.850933902171,0.198142649319,1e-300
5.925,5,-5.33983852564,1.29091176505,1.88543972632,18.2889441472,21.1208347352,0.851556854507,0.198110275762,1e-300
5.95,5,-5.30222719789,1.26677194691,1.88497664761,18.2944140003,21.1208347352,0.851033398716,0.198203279573,1e-300
5.975,5,-5.2681978001,1.23780053203,1.8849317864,18.3094107291,21.1208347352,0.852166229696,0.198165351183,1e-300
6,5,-5.23836665016,1.20452223147,1.88502599037,18.3004125185,21.1208347352,0.851599896212,0.198154529905,1e-300
6.025,5,-5.2132740301,1.16753975976,1.88538369692,18.3029702189,21.1208347352,0.852140773943,0.198118685252,1e-300
6.05,5,-5.19337440084,1.12752291893,1.88580568009,18.2988844461,21.1208347352,0.851734520523,0.198138522629,1e-300
6.075,5,-5.17902817127,1.08519646749,1.88641492217,18.2917912561,21.1208347352,0.851121385207,0.198133374705,1e-300
6.1,5,-5.17049517079,1.04132699407,1.8870729537,18.2820981093,21.1208347352,0.850265915465,0.198151523934,1e-300
6.125,5,-5.16792994346,0.996709033525,1.8877742708,18.2756891712,21.1208347352,0.849727994675,0.19817735896,1e-300
6.15,5,-5.17137894897,0.952150676781,1.88866155803,18.2645645826,21.1208347352,0.849351175529,0.198137192121,1e-300
6.175,5,-5.18077972122,0.908458935275,1.88942779033,18.2545088084,21.1208347352,0.849074201715,0.198122511688,1e-300
6.2,5,-5.19596199966,0.866425124881,1.89007740348,18.2394773788,21.1208347352,0.848459227365,0.198096844228,1e-300
6.225,5,-5.21665081291,0.826810534122,1.89062242179,18.2281718534,21.1208347352,0.848435677248,0.198024368644,1e-300
6.25,5,-5.2424714589,0.79033263622,1.89125658096,18.2223069465,21.1208347352,0.848113928524,0.19805263565,1e-300
6.275,5,-5.2729562912,0.75765209469,1.89172517309,18.2281841757,21.1208347352,0.848883994679,0.197997279775,1e-300