/*--------------------------------*- C++ -*----------------------------------*\
| =========                 |                                                 |
| \\      /  F ield         | OpenFOAM: The Open Source CFD Toolbox           |
|  \\    /   O peration     | Version:  v1906                                 |
|   \\  /    A nd           | Web:      www.OpenFOAM.com                      |
|    \\/     M anipulation  |                                                 |
\*---------------------------------------------------------------------------*/
FoamFile
{
    version     2.0;
    format      ascii;
    class       volScalarField;
    location    "3.7";
    object      alpha.water;
}
// * * * * * * * * * * * * * * * * * * * * * * * * * * * * * * * * * * * * * //

dimensions      [0 0 0 0 0 0 0];


internalField   nonuniform List<scalar> 
28582
(
1.00000159402
1.00000172764
1.00000171401
1.00000175792
1.00000141479
1.00000151327
1.00000406696
1.00000317584
0.0263317640593
0.0277685358043
1.62266602558e-06
1.0000029014
0.943639326437
0.93807811674
1.00000307111
1.00000447585
0.936615374478
0.999812701381
0.999826314127
1.00000065714
1.00000047584
1.00000015541
1.00000059945
1.00000137871
1.00000143787
1.00000081115
1.00000238197
1.00000521986
1.00000289611
0.0282884053876
1.49663666366e-06
2.28804249315e-06
1.00000681909
1.00000623042
0.943450857685
0.945007464843
0.999944165816
1.0000033114
1.00000545082
1.00000856297
0.999828368553
0.931215263534
0.999844236702
0.999895045784
0.0269793452482
0.0276167867378
7.81703696264e-05
9.17890805067e-05
0.0274984473002
0.000119773932287
0.999947871918
0.999918386166
0.942161717114
0.942234060612
0.999934183915
0.940359060625
0.999936661024
0.999885518693
0.999891841667
0.940222208166
0.937349873093
0.999861757612
0.938570790745
0.999913362964
0.999813147683
0.999863651091
0.935934882002
0.936308811396
0.999830743525
0.935169942198
0.999843071344
0.999840245153
0.935006253869
0.934430452068
0.999806039357
0.935478572229
0.93469868994
0.999839958354
0.999837702324
0.934255559961
0.935701590879
0.999802254508
0.935624897638
0.999821720445
0.934676319018
0.0254138121913
4.72750802639e-05
0.0254271848639
0.025045121505
3.22915293862e-05
3.37905791039e-05
0.0277853489232
9.95319296509e-05
9.06799485081e-05
0.0286049181228
0.00015477094999
0.029508744748
0.000132205840549
0.999927074372
0.999918558847
0.944017624544
0.943635190237
0.999938786636
0.999910349504
0.944192330864
0.999945133767
0.999973491228
0.944727750821
0.944207367517
0.999966318646
0.999961215077
0.944226224024
0.944455517185
0.944436599774
0.999963490693
0.999968024012
0.94402040444
0.999996101436
0.944086876436
0.999846454967
0.934729123156
0.934053859348
0.999832525984
0.934150778119
0.999859322113
0.933360302487
0.999831659465
0.999831843493
0.933105810834
0.930914267603
0.999848430639
0.999821184537
0.932366138008
0.999878782395
0.999852079438
0.933798611328
0.935508548416
0.934726981636
0.999839209794
0.933304221943
0.933699400489
0.932880749318
0.99989991616
0.999824035841
0.931634201081
0.999832814121
0.932616906603
1.00000303916
1.00000353943
0.0315282223899
5.43025271308e-06
1.00000649349
0.944031536427
1.0000107129
1.00001059399
0.928577490727
0.931672445821
0.921561903712
1.00000899758
1.00000822076
0.916181939522
0.896659299267
0.0256351721607
0.0303593315096
0.0329149144183
0.000219530738673
0.000223948126787
0.000302679601628
0.0358210963772
0.0388994415978
0.999976081254
0.999963475375
0.943870516462
0.943343424436
1.00000384775
0.943544130683
0.999973108858
0.999763200355
0.999807860018
0.925260166007
0.928714773593
0.999776632913
0.999800301768
0.925580005318
0.999816532062
0.999897076569
0.930003177755
0.929772903279
0.9998357973
0.927581268663
0.999879599694
0.999784721019
0.99978506609
0.919185061311
0.926184705567
0.999735937469
0.923836242817
0.99983929672
0.999588029839
0.999715254242
0.913478266591
0.909376421701
0.999675560469
0.908125429746
0.999620460383
0.999497854107
0.999403698165
0.897756186799
0.902320338419
0.999418506215
0.902909225875
0.999502622517
1.00001578896
1.00000661184
1.00000600341
1.00000593007
0.0197265556882
0.0234377481106
0.0178511625118
0.0211411854301
0.0211112183639
5.62966133443e-06
1.87090686376e-05
3.75628584176e-06
1.14627807942e-05
1.30784410039e-06
1.03296999467e-05
1.00000466749
1.00000554533
0.961526821273
0.963046307698
1.00000760831
0.962943199445
1.00000603669
1.0000083361
0.9637222331
0.96443204401
1.00001545985
1.00001496397
1.00001732361
0.963302598727
0.955828665273
0.965250167116
0.959718407221
1.00001910956
1.00001670121
0.948554496581
0.941962036183
0.952927734844
0.94752631706
1.00000826368
1.00000981103
0.964666447945
0.960462330962
0.959278664591
1.00000542142
1.00000995934
1.00000870035
0.954461429598
0.949083356604
0.954389111821
0.950622433948
0.953390246703
0.950538559445
0.0198862587492
0.0196160762653
0.0201906230856
5.6576145056e-05
0.000131002559066
8.6460696314e-05
0.000146558930354
0.000232362943592
0.000258535943811
0.00023303194058
0.000231240907573
0.0189833659795
0.0181343812476
0.021487165265
0.0184875214849
0.0200624093899
8.20459784139e-05
0.000135313472774
5.20033368851e-05
0.000110490108253
0.0242585952102
0.0221880772956
0.0232804625323
0.000205612060527
0.00019418362951
0.000182035271108
0.000173497324261
0.019138293056
0.0188957156651
2.5227771687e-05
8.12710177489e-05
6.51994131111e-05
0.0224928631694
0.0208233308154
0.0221924599434
0.000156693421704
0.000168443962806
0.000126674294636
0.000164142853245
0.99997377966
0.999994841916
0.960609595179
0.961962446159
0.999985231224
0.960776368468
0.999985318962
0.999969133927
0.999994515284
0.962609958707
0.961702933121
0.99997420148
0.999972494098
0.961057485021
0.999985223983
0.999986157403
0.964056842539
0.962434408776
0.999977959201
0.999980871369
0.962945568837
0.999985633359
0.999995127412
0.962472093398
0.96427220692
0.999978718027
0.999988630732
0.962986281254
0.999999712053
1.0000150799
0.964613249625
0.96380038583
1.00000958875
1.00000163931
0.963530827108
0.999963526564
1
0.96269708082
0.964927430514
0.999991804861
0.999988029928
0.963388605587
0.999954732111
0.999920418168
0.961152053048
0.956722227491
0.999943715441
0.99995811964
0.959362859843
0.999986465307
1.00001958872
0.965696182761
0.965208625524
1
1
0.964681751913
0.999963274304
0.99998336128
0.958538578035
0.963963989954
0.999970974788
0.99999056527
0.961058414282
0.99988593473
0.999928034816
0.947235972723
0.954372070962
0.999892463115
0.999927971639
0.94844576452
0.999853366277
0.999908144615
0.94666919148
0.944057235873
0.999889306171
0.942778089349
0.999890615673
0.99989133007
0.999978227829
0.956296074371
0.951372780897
0.999953605729
0.99994339287
0.950263269122
0.999867918307
0.999943167583
0.945493858949
0.951033765225
0.999920148054
0.944477766388
0.999888029477
1
1.0000273022
0.965329445504
0.964016212173
1
1.00001410239
0.96462978239
0.999996485053
0.999987631883
0.964153762685
0.9603903441
0.999988709393
0.999990051595
0.962713793382
1
0.999990602297
0.960057348116
0.962180765125
0.999994461784
0.999999242502
0.962434907104
0.999969427181
0.999990913635
0.95249494319
0.958092364075
0.999968866702
0.999981347555
0.95380544422
0.999949512478
0.999938522855
0.952079926013
0.949199456552
0.999924184973
0.94927321387
0.999943774631
0.999950946238
0.999982176189
0.957710036206
0.951950254597
0.999970230098
0.999960106948
0.953858444887
0.999940151873
0.999965452418
0.949447996097
0.951766179962
0.999953791544
0.949726056394
0.999940604501
0.999946748326
0.99997110454
0.95085708558
0.952437891405
0.999960812105
0.999952786049
0.951357140373
0.999944329531
0.951089774446
0.999937576932
1.00000093914
1.00000107452
1.00000126412
0.999999746099
0.999998986483
0.999998140662
1.00000100079
1.0000012059
1.00000138423
1.00000120729
1.00000061269
1.00000044164
0.999990887346
0.999962997905
0.999940867858
0.999958807334
0.999987599317
0.999996153585
0.999997197515
0.999996453659
0.999997882874
0.999999847066
0.999995087207
0.999984416071
0.999984597799
0.999993123214
0.999997691287
0.999999075561
0.999997389728
0.999997808926
0.999998407071
0.999999148087
0.999999307934
0.999999272137
0.999999270812
0.999999831251
0.999999505538
1.00000005815
1.00000029545
1.00000027833
1.00000061629
1.00000045586
1.00000029744
1.00000061043
1.00000078857
1.00000053117
1.00000029521
1.00000096605
0.999945514375
0.999692181174
0.999908353404
0.999988906433
0.99999774633
0.999998589409
0.999998581281
0.999999317995
0.999953373638
0.999839589161
0.999948337797
0.999991056252
0.999998323833
0.999998956368
0.999999217771
1.00000038042
0.999980980761
0.999983132037
0.999994163833
0.999999075711
0.99999971501
0.999999831786
0.999999964098
1.00000096068
1.00000030381
1.00000055755
1.00000057523
1.0000005447
1.00000042313
1.00000019625
1.00000017854
1.00000103393
1.00000148067
1.00000138544
1.0000014212
1.00000263918
0.999918115887
0.999513076363
0.999979018617
0.999998765024
1.00000116848
1.00000215215
1.00000192121
1.0000019164
0.999978681088
0.999745407888
0.999986274671
0.9999995944
1.00000093354
1.00000142073
1.00000124626
1.0000018885
0.999995697318
0.999993835037
0.999997082743
0.999999745413
1.00000040852
1.00000082894
1.00000132735
1.00000242294
0.999999791035
1.00000048925
1.00000069205
1.00000073319
1.00000067
1.00000058439
1.00000069145
1.00000128309
1.00000243396
1.00000101154
1.00000116007
1.00000155347
1.00000181717
1.00000180253
1.00000238038
1.00000317473
1.00000333051
1.00000378398
1.00000448166
0.999961632431
0.999828978619
0.999992563126
1.00000144769
1.00000901036
1.00001258348
1.00001064765
1.00001160558
1.00000745952
1.00000654433
1.00000458288
1.00000453742
1.00000735612
1.0000100599
1.00000935402
1.00000695532
1.00001178062
1.00000460484
1.00000395911
1.00000389399
1.0000045903
1.00000527733
1.00000554259
1.0000048595
1.0000028826
0.999999441228
1.00000105053
1.00000692354
1.00000715022
1.00000744653
1.00000487662
1.00000130009
1.00000031919
0.999999471004
0.999996723153
1.00000045728
1.00000805493
1.0000061708
1.00000411012
1.00000290858
0.999999668326
0.999997537558
1.00000127927
1.00000091034
0.999999740753
1.00000399121
0.0271331139357
0.0274145055041
0.0266843353406
0.0255682251846
0.0274503690539
0.0343526154623
0.0403042749441
0.04234998277
0.0243573955776
0.0235572488839
0.0249809828608
0.0260014522192
0.0259459754089
0.0252140837305
0.0268747694266
0.033627523228
0.0397182299209
0.0416543609378
0.0227720808726
0.0228426924447
0.0235621351059
0.0245200351928
0.0254151181727
0.0260980567712
0.0284329426827
0.034725873842
0.0403177636016
0.0433094885715
0.0245245547554
0.025058458087
0.0247352590857
0.0261493854538
0.0272263528003
0.0300080483172
0.0363839460274
0.0417819743845
0.0452622027322
0.0252495083108
0.0266596143899
0.0278375711306
0.0315577215325
0.037376448532
0.0420511329149
0.0437861712036
0.0367144368584
0.0412923686246
0.0430195461788
5.61168656128e-06
1.32210351212e-07
-3.56208223249e-27
2.63425972383e-10
8.96831017168e-45
-7.75481824268e-27
8.50677691998e-07
7.66700003895e-06
2.71868783832e-06
6.74502903076e-05
2.26514566794e-06
2.71995660406e-08
-5.0655615667e-27
1.4590266432e-25
5.6354741689e-26
4.53811701278e-08
1.17027510765e-06
5.52576569464e-06
3.14764981628e-06
7.32199643271e-05
5.2880668808e-06
6.60971122508e-07
6.73920448776e-08
2.59522601169e-07
6.74895099591e-07
9.35417812821e-07
2.89232321972e-06
8.29477905586e-06
2.10799659674e-06
5.44788998509e-05
1.64240563485e-06
4.85096670171e-07
4.95436778798e-07
1.76423084877e-06
1.38337001713e-06
5.29966070096e-06
1.23202430614e-05
2.97224065877e-06
5.11887117231e-05
7.03748736852e-07
5.26666299633e-07
1.35832007435e-06
8.49888659613e-06
8.18991802819e-06
7.06703967923e-06
7.17864993109e-05
3.79733769793e-06
6.1960152994e-06
8.21546048859e-05
0.999950574415
0.999990781272
0.999993793848
0.99990714193
0.999882464933
0.999924986264
0.999877797527
0.999991009099
0.999995850322
0.999998955617
0.999919228851
0.999893443575
0.999910311226
0.999949538907
0.999999416761
0.999997085857
0.999999523466
0.999984679262
0.999989516822
0.999994526135
0.999993492846
0.99999884134
0.999999300501
0.999998633807
0.999992505029
0.999991975167
0.999996065165
0.999997138813
0.999893886601
0.999946583561
0.999705902235
0.999963600527
0.999654268814
0.999798949135
0.999513066693
0.999679693422
0.999571539045
0.999748586791
0.999513066693
0.999701012062
0.999513047723
0.999610536053
0.999842767302
0.999991455525
0.999990797851
0.999969694307
0.999859705441
0.999988099511
0.999950495182
0.999878736307
0.999987601449
0.999992085129
0.999542868033
0.999672338587
0.999926545575
0.99993715854
0.999554691442
0.999947518147
0.999651591655
0.999858819906
0.999513302097
0.999908503067
0.999750146821
0.999783281215
0.999584583883
0.999804234951
0.999685512308
0.999923690881
0.99979542885
0.99992356553
0.999874725645
0.999994204309
0.999968701217
0.999978878874
0.999934074793
1.00000425013
1.00000284805
0.999819626357
0.999947804553
0.999959942447
0.999934629415
0.99996476405
1.00000074559
1
1.0000217524
1.00001737309
0.926924005175
0.932833823617
0.999813955098
0.999988319514
0.999947738732
0.927855821171
0.930002624972
0.93288895628
0.932994843617
0.999935998142
0.99994804454
0.999972066622
0.930890628871
0.933167334892
0.933322065295
0.934835029954
0.999999860501
0.999996227286
1.00000011141
0.93376531099
0.936420628878
0.935515583146
0.938245233487
1.00000549259
1.00000509382
1.00000915111
0.937251131107
0.93757917288
0.939266026591
0.940367425145
1.00000963102
1.00001173754
1.00001177452
0.937279060458
0.933475432269
0.940469976287
0.936202084142
1.00001344508
1.00000800383
1.00000944342
0.927741000914
0.903304530735
0.930848039166
0.907013275916
1.00001044216
1.00000933714
1.00001147003
0.895609581238
0.88552515429
0.899797027022
0.88904086149
1.00001390569
1.00001630769
1.00002162639
0.887587253327
0.884587702355
0.890891430111
0.884047865541
1.00001380307
1.00001175833
0.939315336356
0.937395179138
0.945850934327
0.946547659844
1.00000786489
1.00001207246
1.00000834718
0.937087110968
0.935246087968
0.945946525642
0.942944116443
1.0000055182
1.00000562907
1.00000335727
0.935173942793
0.934684418529
0.942171114718
0.940293932349
1.00000370635
1.00000150477
1.00000133851
0.934823942159
0.935972885011
0.93995776386
0.940177525237
1.00000607714
1.00000086279
1.00000209227
0.93654484425
0.939076684476
0.940464475468
0.93958733245
1.00001001137
1.00000404983
1.00000579528
0.940188122838
0.941760269693
0.939433942981
0.93934231088
1.00001047079
1.00000797377
1.00000791956
0.94172227505
0.936232057164
0.93906030879
0.933034767357
1.00000519669
1.00000466439
1.00000126323
0.930819016661
0.907182489355
0.927729315897
0.905352593952
1.00001009536
1.00000082628
1.0000014989
0.900435954792
0.889944053847
0.898994760921
0.888488266129
1.00001583954
1.00000800689
1.00000979303
0.891585853944
0.883311091653
0.889822559897
0.881326443587
1.00000515552
1.00000800827
1.00000757088
0.947376583143
0.947952006609
0.948952556833
0.948602713004
1.0000046513
1.00000614576
1.00000608719
0.947287995265
0.944531764517
0.947582788329
0.945283078269
1.00000439791
1.00000540723
1.00000693912
0.943969131217
0.942252323291
0.944768050572
0.94426111445
1.00000499306
1.00000754306
1.00000814151
0.941830745528
0.941792230075
0.944016137419
0.941475418656
1.00000520921
1.00000656715
1.00000495368
0.941300645504
0.938799285067
0.939664245182
0.935076673046
1.00000572067
1.0000051096
1.00000463286
0.938245243073
0.938026751635
0.934924390719
0.93456930003
1.00000384074
1.0000058376
1.00000490064
0.93781253167
0.93180584831
0.934575697201
0.928765899642
0.9999995289
1.00000131117
0.99999909209
0.926615224478
0.904287404217
0.922937826606
0.897803653267
1
0.99999929329
0.999999882355
0.897855654272
0.887544339895
0.890969565471
0.881210051892
1.00000541291
1.00000631716
1.00000835659
0.888555743303
0.881628050277
0.882211303114
0.880862201163
0.94887579261
0.947922967783
1.0000059793
1.00000543794
0.946450491354
0.94412801229
0.943057364246
1.0000072845
1.00000547835
1.00000724948
0.943952820443
0.944237378362
0.943032135026
0.945073429892
1.00000632419
1.00000906697
1.00000883983
0.944116750275
0.94197301848
0.945037149345
0.943122690039
1.00000315302
1.00000745931
1.00000506505
0.940000109676
0.934379916898
0.941978195731
0.936405981641
1.00000252824
1.00000353573
1.00000354069
0.934206975658
0.933949087786
0.935504155208
0.933784310211
0.999999978351
1.00000332402
1.00000345469
0.933965623506
0.927226038652
0.932702804544
0.920810863163
0.999996180687
0.999998977329
0.999994710584
0.920912272045
0.895392009398
0.913142061178
0.889613243487
0.999999953897
0.999996628425
0.999998939231
0.888768634948
0.880562914138
0.885064052025
0.882801744848
1.00000553503
1.00000525252
1.00000867208
0.881590522597
0.88144242795
0.884677032921
0.883821604686
1.00000868112
1.00000699541
0.944628228917
0.94271815097
0.93945362579
1.00000481663
1.00000512624
1.0000033681
0.94211718247
0.937620209005
0.938020649438
0.935810411491
1.00000326138
1.00000310104
1.00000439116
0.936648556633
0.933275015035
0.935465452115
0.932160885954
0.999999462828
1.00000400243
1.00000202002
0.931488765241
0.918315787074
0.929277005327
0.914915089566
0.999996415111
0.999999208617
0.999996202145
0.910991239629
0.889832763834
0.908800048792
0.894492993754
1.0000000299
0.999999356517
1.00000115911
0.886200015166
0.885462374538
0.892429813652
0.892243595805
1.00000614044
1.00000615739
1.00000816416
0.887323004023
0.882586076744
0.894595722123
0.881291812564
1.0000020016
0.915712422355
1
0.91009634057
0.896235755817
1.00000250744
0.893984788067
0.893520984618
1.0000060302
0.895708694095
0.880816671449
0.000189198365713
4.6898364252e-05
0.00015202170209
3.21408523558e-05
0.026293768141
0.0251965699705
1.31603457669e-06
1.53136888457e-07
5.03042100409e-07
1.68474890769e-07
0.0276038688882
0.0261286941486
0.0268911192786
4.07490501555e-07
7.26572909887e-07
4.46450599345e-07
1.81748957188e-06
0.0270859821242
0.026874070097
0.026738170094
4.31729460828e-07
2.57431873264e-07
2.77382837564e-06
2.29834042905e-06
0.0261918571973
0.0263451954916
0.0258206773561
1.04247295862e-06
7.03064493664e-06
2.39877020764e-06
2.4040902304e-06
0.025866810847
0.025406710752
0.0256234982525
1.47323953135e-05
1.13520464863e-05
2.63453469732e-06
1.78197221526e-06
0.0303445510456
0.0269439387865
0.02983330869
2.3864296086e-05
0.000123597105556
2.08261546107e-05
0.000108902920594
0.0378371943495
0.0337628987155
0.0373674430611
0.000241228296115
0.000358008495018
0.000218126209738
0.000343840477966
0.0420760748264
0.0399064759366
0.041684574793
0.000386595373104
0.000364244200687
0.000379576988209
0.000361807151865
0.0417553366322
0.0417748160178
0.0410201831126
0.000614032437093
0.00118591751655
0.000608087690165
0.0012001257113
0.02427026574
0.0233906339669
0.0229958198094
0.000114733843322
3.71015887128e-05
0.000104247241211
3.44361969889e-05
0.0239026498813
0.0229106688597
0.0232412666649
5.91512030005e-06
3.25932040887e-07
1.21709781037e-05
4.36587697623e-07
0.0257795460287
0.0239570509911
0.0246711647619
4.09606661388e-07
1.14786630036e-06
3.59235493152e-07
3.563204356e-07
0.0261428228225
0.0251782123883
0.0254832372433
1.98682352817e-06
2.50186331407e-06
1.75371005104e-06
3.14091594087e-06
0.0255252212157
0.0254625218636
0.0253933570152
2.95529550147e-06
3.22473979037e-06
7.01083626104e-06
6.04940413159e-06
0.0255045627924
0.0254876194382
0.025991936704
1.84289592253e-06
1.83896632082e-06
6.46303847176e-06
1.2432479818e-05
0.0298136358672
0.0275049489146
0.0304385579684
2.96922417047e-05
0.00011561138448
5.07330125361e-05
0.000133203715752
0.0371949670515
0.0340085316921
0.037360785772
0.000214944593574
0.000336290819262
0.000234151873398
0.000360826336702
0.0414773437901
0.0398516403301
0.0417279537088
0.000385629885326
0.00038073754556
0.000400592196873
0.00039823822848
0.0408535887046
0.0421327862943
0.0412241309614
0.000643139177326
0.00123242873247
0.00069156414117
0.00126180128848
0.0226714713788
0.0227077807028
0.0230817375112
0.0001237313313
5.73309845439e-05
0.000149706200821
0.000113599383364
0.0232188987619
0.0235927230128
0.0239485480841
2.18586946093e-05
1.04453419374e-05
7.18231103235e-05
4.80285952567e-05
0.0239850457615
0.0241737459784
0.0242765066154
1.5663767626e-06
4.99711771357e-08
3.29648604164e-05
1.36218211165e-05
0.0248729982007
0.0246209040897
0.0253082620162
1.84060420764e-07
2.93012042438e-06
4.47368840786e-06
3.80022017108e-05
0.0257585676367
0.025859633958
0.0262143209533
1.39611304457e-05
3.46022042826e-05
9.55655866382e-05
0.000139414957408
0.0267873939301
0.0266898218132
0.0275507643558
4.28914761677e-05
5.10460855687e-05
0.000140932964894
0.000124955031094
0.0313436077166
0.0292900772022
0.0322588821786
8.3509803641e-05
0.000163594268076
0.000136478778403
0.000204697194625
0.0378713191616
0.0355324084227
0.0385681445157
0.000263495955082
0.000392060001597
0.000299651889304
0.000418652817237
0.0423522712472
0.041053020222
0.0431426502117
0.000392083352637
0.000379360008833
0.000417576119958
0.000403341465889
0.0423517282345
0.0446048688161
0.0433418818883
0.000617824186162
0.00106494125017
0.000637568890011
0.00107655242595
0.0250438406956
0.0254164537964
9.97206091775e-05
7.78365052301e-05
7.40950077568e-05
0.0247258881952
0.0253704148889
0.0248627728245
5.19230212328e-05
1.75893330179e-05
4.28749699261e-05
2.48593229538e-05
0.0254939102199
0.0247898022387
0.0254945435555
2.15312774772e-05
6.96049579088e-05
3.48313161037e-05
4.49356149697e-05
0.0266324365802
0.0263458868819
0.0269344595866
0.000123524860115
0.000144899772493
7.45998311989e-05
9.03502209533e-05
0.0281532251825
0.0275313110246
0.0285622968249
0.000134649323367
0.000116458829897
9.01666492483e-05
0.000100160919116
0.033205267917
0.03079210706
0.0341224254662
0.000137527371362
0.000226435166718
0.000159190125526
0.000268178963368
0.0393521118437
0.0370421993008
0.0398926415774
0.000324944807781
0.000449274025868
0.000365867898104
0.000487215314628
0.043799474773
0.0421679347413
0.0438619139846
0.000444509854007
0.000425640927616
0.000464540124813
0.000433502080884
0.0440466423692
0.0448467317915
0.0436107654677
0.000620025440238
0.00103819666276
0.000614353623389
0.00104444687976
0.025902577711
0.0263984965814
3.19118568745e-05
2.14139406644e-05
5.66114955641e-05
6.36131837863e-05
0.0272128258024
0.0270782639211
0.0274825535456
1.06101363638e-05
2.90344676558e-05
5.67186258944e-05
5.35598736355e-05
0.0291140621304
0.0281281734992
0.0295159295865
4.80833415365e-05
9.27240546398e-05
7.15686720565e-05
0.000117397122398
0.0346298924089
0.0318635565106
0.0345746644186
0.000182120306121
0.000301768418935
0.000208356317466
0.000344670729407
0.0400902826079
0.0372784805539
0.0398628292726
0.000375788703352
0.000467125626731
0.000408976884688
0.000471304834746
0.0433012515642
0.041620886591
0.0427909784475
0.000500561939545
0.000491435558978
0.000485936670556
0.000485471003024
0.0430193973961
0.0431773271852
0.0429928838857
0.000713416695051
0.0011858219143
0.000730488927474
0.00118463113164
0.0339810766707
0.000328559423727
0.0394365217345
0.000386166053267
0.000428316078955
0.000345958806149
0.000394503828748
0.0425316509309
0.000467424513491
0.000479386264303
0.000438549082277
0.000431597870221
0.0430841213785
0.00075219677398
0.0013134466384
0.000641204153111
0.00130285156636
0.999977999985
0.999971241323
0.92653857349
0.928953983414
0.99999205558
0.928543663587
0.99997409701
1
0.999976189866
0.930631271885
0.933045503809
1.00000758399
0.999962654918
0.93010695363
0.999975968571
0.999952170983
0.928590007981
0.929034282585
0.99999083548
0.929545195786
0.999925371674
0.99994655696
0.999910027829
0.929112499892
0.9306054393
0.999937896715
0.930190084212
0.999914361177
1.00000022345
0.999973394769
0.930705366725
0.93287682094
1.00000615528
0.99996112984
0.931189892211
0.999980435489
0.999958619598
0.932001475849
0.93283387264
0.999970835902
0.999961593338
0.931714876184
0.999931760867
0.999910545541
0.93163474608
0.931097391199
0.999934782827
0.931678819461
0.999916987949
0.99993322524
0.999937980163
0.932431545748
0.932801349227
0.999943245596
0.932204620988
0.999930139535
0.999955325844
0.99995884624
0.93227521852
0.933665191009
0.999962052203
0.999956462496
0.932658836918
0.999952774244
0.999941289931
0.933535891852
0.934147652447
0.999950796757
0.999952128136
0.933054586933
0.99994400793
0.999938891174
0.934418444842
0.933637801508
0.9999463148
0.934500915573
0.99993725433
0.999932630283
0.999889764118
0.935441896614
0.936680756591
0.999880354265
0.935376404627
0.999913670436
0.999943152768
0.999934587618
0.934292051802
0.936212262911
0.999944541843
0.999927016883
0.935238419448
0.999928234058
0.999931467794
0.93726316204
0.937126337258
0.999901660606
0.999927582393
0.93616859819
0.99983004828
0.999889599607
0.937465520672
0.937805139095
0.999828700487
0.939175610264
0.999892608095
0.999828125213
0.999932212853
0.937635920174
0.939802388039
0.999818370315
0.939867667924
0.999913994963
0.999907253109
0.999937056544
0.938277680364
0.939925328295
0.999899513802
0.999946291885
0.939257584991
0.999914757231
0.99996343954
0.939959508808
0.94037229091
0.999912709457
0.999958373437
0.939890303961
0.999765310971
0.999927381133
0.93686066455
0.939354045597
0.999806447668
0.938677003298
0.999904045407
0.999750947907
0.999808450256
0.935949887847
0.935004468212
0.999750602538
0.937325033356
0.999863662508
0.999897832417
0.999959306857
0.93995096702
0.940296779357
0.999910154783
0.999954448249
0.939547555467
0.999879911337
0.999893008663
0.935840944057
0.938937028645
0.999857482553
0.99993659575
0.938239626204
0.999685944757
0.999771307809
0.920538604422
0.929803327209
0.999722742908
0.922193367897
0.999681983837
0.999609448451
0.999493961142
0.911999709617
0.904328497086
0.999498003183
0.9128682646
0.999583973463
0.999745271336
0.999849112979
0.930803151063
0.923972369772
0.999806512971
0.999765413144
0.923392726445
0.999671319236
0.999582067946
0.905848198364
0.915597160472
0.999559936102
0.999673651767
0.914136097768
0.999356357894
0.99940829183
0.889937126168
0.897638903337
0.99941477455
0.892293394412
0.999342327683
0.999299519435
0.999312160995
0.886651994704
0.886835445303
0.999314450156
0.888548813093
0.999310283512
0.999409753598
0.999469834425
0.899199854418
0.894571807397
0.999479748962
0.999403807669
0.893895472938
0.999373070574
0.999370578547
0.887781714684
0.891059520271
0.999374569503
0.99936226079
0.889893938215
0.99929971095
0.999338351096
0.888466230173
0.888979128045
0.999340551142
0.889609305369
0.999305506752
0.999171051782
0.999272134907
0.87835668571
0.884693638085
0.879176099145
0.999254319696
0.999192832699
0.999311758382
0.999385562007
0.889974584036
0.890760631697
0.999373338553
0.999339541007
0.889962038385
0.999168050873
0.999297259362
0.883832762073
0.879732560987
0.999188833801
0.878799880099
0.999255892124
0.999925356952
0.999934507372
0.940466702354
0.944631288803
0.999920352853
0.942252479934
0.999929935349
0.999917374357
0.999937722026
0.939620698561
0.941513180915
0.999921802656
0.999948205567
0.94123926769
0.999911608098
0.999958927877
0.946662092022
0.946911157275
0.999949181185
0.94514048598
0.999923561111
0.999919413958
0.99997982918
0.944411935451
0.947223986045
0.999952664837
0.999955470189
0.944211012839
0.999965546941
0.999948644278
0.936911974559
0.940917483099
0.999946033924
0.999959738488
0.93946472476
0.99997600396
0.999976641562
0.935788199631
0.938523255959
0.999964974634
0.999983595094
0.939178950184
0.999970881169
0.999978835945
0.943811779122
0.945076075841
0.999979877479
0.999970400733
0.942287200018
0.999974045031
0.999966082016
0.940774641206
0.943863314724
0.999978973188
0.999971320207
0.941699099001
0.999974058345
0.999984408683
0.934939414914
0.937397827906
0.999979911024
0.999980333051
0.937031696774
0.999972139567
0.999978292276
0.934622815701
0.936734969076
0.999978524076
0.999972668942
0.936821477651
0.999957362435
0.999948413422
0.939699493848
0.941353811166
0.999969839639
0.999940753599
0.939224839266
0.999957246304
0.999939524597
0.938510467033
0.940715937509
0.999962448376
0.99994076329
0.93878772831
0.999967772065
0.999980629497
0.935069512268
0.936723429069
0.999979301859
0.999971491547
0.936809947592
0.999960345705
0.99995368366
0.93542466284
0.937158722948
0.999973387487
0.999957264345
0.936966282438
0.999964174839
0.999936988858
0.938435148519
0.939957176954
0.999964558683
0.999938452333
0.938481893905
0.9999587734
0.999943415237
0.938669634615
0.94000941768
0.999956988042
0.999942808919
0.938542999445
0.999952044869
0.999933060576
0.937110669457
0.937552626302
0.999926591651
0.999954907039
0.93822437693
0.999950035028
0.999923686572
0.937927391506
0.939723990431
0.99992768708
0.999947026564
0.938995519072
0.999939681167
0.999940978518
0.938941532189
0.940407558677
0.999951347526
0.999943078206
0.93954489163
0.99993279034
0.999952545822
0.940533768315
0.940177849931
0.999918878699
0.99993941165
0.939990308043
0.999943096829
0.999924487252
0.941102799615
0.940242417952
0.99993266522
0.999940765516
0.940703374509
0.999942011048
0.999957668224
0.941591946818
0.941499942321
0.999949465909
0.999945241894
0.941263044357
0.999931613202
0.999968702951
0.940575647954
0.939344411608
0.999915826532
0.999964978881
0.940527166487
0.999938843064
0.999968199235
0.940646076127
0.939478863725
0.999940036233
0.999968407583
0.940672494071
0.999943162196
0.999949438886
0.941093578075
0.941475598082
0.999935742166
0.999955055382
0.940876819804
0.999924061169
0.999869419774
0.939301513314
0.93579900135
0.999906987515
0.999893276788
0.939064232685
0.999923111304
0.999953963527
0.940456139873
0.938219784065
0.999935315063
0.999936523323
0.939707605664
0.999909098985
0.999875387526
0.934542116205
0.936226989798
0.999875023481
0.99990899824
0.937794872735
0.999765485803
0.99982685818
0.923802297958
0.930221667912
0.999750965121
0.999829516892
0.922943249617
0.999686686455
0.9995794956
0.915501210816
0.90676892088
0.999668161591
0.999576697307
0.914391633775
0.999739612749
0.999834499648
0.929133274753
0.920960785365
0.999811187075