/*--------------------------------*- C++ -*----------------------------------*\
| =========                 |                                                 |
| \\      /  F ield         | OpenFOAM: The Open Source CFD Toolbox           |
|  \\    /   O peration     | Version:  v1906                                 |
|   \\  /    A nd           | Web:      www.OpenFOAM.com                      |
|    \\/     M anipulation  |                                                 |
\*---------------------------------------------------------------------------*/
FoamFile
{
    version     2.0;
    format      ascii;
    class       volVectorField;
    location    "8.9";
    object      force.turbine;
}
// * * * * * * * * * * * * * * * * * * * * * * * * * * * * * * * * * * * * * //

dimensions      [1 -2 -2 0 0 0 0];


internalField   nonuniform List<vector> 
28582
(
(0 0 0)
(0 0 0)
(0 0 0)
(0 0 0)
(0 0 0)
(0 0 0)
(0 0 0)
(0 0 0)
(0 0 0)
(0 0 0)
(0 0 0)
(0 0 0)
(0 0 0)
(0 0 0)
(0 0 0)
(0 0 0)
(0 0 0)
(0 0 0)
(0 0 0)
(0 0 0)
(0 0 0)
(0 0 0)
(0 0 0)
(0 0 0)
(0 0 0)
(0 0 0)
(0 0 0)
(0 0 0)
(0 0 0)
(0 0 0)
(0 0 0)
(0 0 0)
(0 0 0)
(0 0 0)
(0 0 0)
(0 0 0)
(0 0 0)
(0 0 0)
(0 0 0)
(0 0 0)
(0 0 0)
(0 0 0)
(0 0 0)
(0 0 0)
(0 0 0)
(0 0 0)
(0 0 0)
(0 0 0)
(0 0 0)
(0 0 0)
(0 0 0)
(0 0 0)
(0 0 0)
(0 0 0)
(0 0 0)
(0 0 0)
(0 0 0)
(0 0 0)
(0 0 0)
(0 0 0)
(0 0 0)
(0 0 0)
(0 0 0)
(0 0 0)
(0 0 0)
(0 0 0)
(0 0 0)
(0 0 0)
(0 0 0)
(0 0 0)
(0 0 0)
(0 0 0)
(0 0 0)
(0 0 0)
(0 0 0)
(0 0 0)
(0 0 0)
(0 0 0)
(0 0 0)
(0 0 0)
(0 0 0)
(0 0 0)
(0 0 0)
(0 0 0)
(0 0 0)
(0 0 0)
(0 0 0)
(0 0 0)
(0 0 0)
(0 0 0)
(0 0 0)
(0 0 0)
(0 0 0)
(0 0 0)
(0 0 0)
(0 0 0)
(0 0 0)
(0 0 0)
(0 0 0)
(0 0 0)
(0 0 0)
(0 0 0)
(0 0 0)
(0 0 0)
(0 0 0)
(0 0 0)
(0 0 0)
(0 0 0)
(0 0 0)
(0 0 0)
(0 0 0)
(0 0 0)
(0 0 0)
(0 0 0)
(0 0 0)
(0 0 0)
(0 0 0)
(0 0 0)
(0 0 0)
(0 0 0)
(0 0 0)
(0 0 0)
(0 0 0)
(0 0 0)
(0 0 0)
(0 0 0)
(0 0 0)
(0 0 0)
(0 0 0)
(0 0 0)
(0 0 0)
(0 0 0)
(0 0 0)
(0 0 0)
(0 0 0)
(0 0 0)
(0 0 0)
(0 0 0)
(0 0 0)
(0 0 0)
(0 0 0)
(0 0 0)
(0 0 0)
(0 0 0)
(0 0 0)
(0 0 0)
(0 0 0)
(0 0 0)
(0 0 0)
(0 0 0)
(0 0 0)
(0 0 0)
(0 0 0)
(0 0 0)
(0 0 0)
(0 0 0)
(0 0 0)
(0 0 0)
(0 0 0)
(0 0 0)
(0 0 0)
(0 0 0)
(0 0 0)
(0 0 0)
(0 0 0)
(0 0 0)
(0 0 0)
(0 0 0)
(0 0 0)
(0 0 0)
(0 0 0)
(0 0 0)
(0 0 0)
(0 0 0)
(0 0 0)
(0 0 0)
(0 0 0)
(0 0 0)
(0 0 0)
(0 0 0)
(0 0 0)
(0 0 0)
(0 0 0)
(0 0 0)
(0 0 0)
(0 0 0)
(0 0 0)
(0 0 0)
(0 0 0)
(0 0 0)
(0 0 0)
(0 0 0)
(0 0 0)
(0 0 0)
(0 0 0)
(0 0 0)
(0 0 0)
(0 0 0)
(0 0 0)
(0 0 0)
(0 0 0)
(0 0 0)
(0 0 0)
(0 0 0)
(0 0 0)
(0 0 0)
(0 0 0)
(0 0 0)
(0 0 0)
(0 0 0)
(0 0 0)
(0 0 0)
(0 0 0)
(0 0 0)
(0 0 0)
(0 0 0)
(0 0 0)
(-0.00196452826455 3.22583743697e-05 0)
(0 0 0)
(0 0 0)
(0 0 0)
(0 0 0)
(-2.2479916458e-05 1.21163221801e-07 0)
(0 0 0)
(-2.16346533874e-06 4.80067765874e-09 0)
(0 0 0)
(0 0 0)
(0 0 0)
(0 0 0)
(0 0 0)
(0 0 0)
(0 0 0)
(0 0 0)
(0 0 0)
(0 0 0)
(0 0 0)
(0 0 0)
(-0.0158339330108 0.000469775529275 0)
(0 0 0)
(0 0 0)
(0 0 0)
(-0.0287340663221 0.000596725065424 0)
(0 0 0)
(0 0 0)
(-0.0281575887422 0.000815308705907 0)
(-0.126193357827 0.00365395432847 0)
(-0.0780822455203 0.00162154679203 0)
(-0.750502729276 0.0155747893708 0)
(-0.0056701781044 4.67605145346e-05 0)
(-0.0772424152048 0.0016041058982 0)
(0 0 0)
(0 0 0)
(0 0 0)
(0 0 0)
(0 0 0)
(-0.0158338463253 0.000469772957411 0)
(0 0 0)
(0 0 0)
(0 0 0)
(-0.0283732451735 0.000589231833485 0)
(0 0 0)
(0 0 0)
(0 0 0)
(0 0 0)
(0 0 0)
(0 0 0)
(0 0 0)
(0 0 0)
(-1.33369324022e-05 8.84854584682e-08 0)
(0 0 0)
(-8.09702008171e-06 5.37206392406e-08 0)
(-0.000114798217342 1.37283856775e-06 0)
(-0.000602964832245 7.21068145369e-06 0)
(-6.9725252127e-05 8.33824056527e-07 0)
(-0.000349868148339 4.1839716573e-06 0)
(0 0 0)
(0 0 0)
(-0.000191468393529 1.445376251e-06 0)
(0 0 0)
(0 0 0)
(0 0 0)
(0 0 0)
(0 0 0)
(0 0 0)
(-0.00968861386887 0.000159091085094 0)
(-0.000411392059363 5.45036767215e-06 0)
(-0.00219028364955 3.59653720529e-05 0)
(-2.49106170198e-05 2.58568661611e-07 0)
(-0.000125765449992 1.50399252042e-06 0)
(-3.05218684215e-06 6.77272934353e-09 0)
(-2.85284358186e-05 2.96121106177e-07 0)
(0 0 0)
(0 0 0)
(0 0 0)
(0 0 0)
(0 0 0)
(-0.00023491070281 1.77331801187e-06 0)
(0 0 0)
(0 0 0)
(0 0 0)
(0 0 0)
(0 0 0)
(0 0 0)
(0 0 0)
(0 0 0)
(0 0 0)
(0 0 0)
(0 0 0)
(0 0 0)
(0 0 0)
(0 0 0)
(0 0 0)
(0 0 0)
(0 0 0)
(0 0 0)
(0 0 0)
(0 0 0)
(-0.00490044590431 4.2662340124e-05 0)
(0 0 0)
(0 0 0)
(0 0 0)
(0 0 0)
(0 0 0)
(-0.00443373218723 3.65638599998e-05 0)
(0 0 0)
(0 0 0)
(0 0 0)
(0 0 0)
(0 0 0)
(0 0 0)
(0 0 0)
(0 0 0)
(0 0 0)
(0 0 0)
(0 0 0)
(0 0 0)
(0 0 0)
(0 0 0)
(0 0 0)
(0 0 0)
(0 0 0)
(0 0 0)
(0 0 0)
(0 0 0)
(0 0 0)
(0 0 0)
(-0.0351850579078 0.000848618987344 0)
(-0.0084295273496 0.000132776669391 0)
(-0.0138853542467 0.00021871345969 0)
(-0.00992657917022 0.000174148887739 0)
(-0.0188332042059 0.000454233007761 0)
(0 0 0)
(0 0 0)
(0 0 0)
(0 0 0)
(0 0 0)
(0 0 0)
(0 0 0)
(0 0 0)
(0 0 0)
(0 0 0)
(-0.00500836652952 4.13027230514e-05 0)
(0 0 0)
(-0.00773070812201 0.000135625193513 0)
(0 0 0)
(0 0 0)
(-0.1266987834 0.00303928922926 0)
(-0.0986747525328 0.0023670401919 0)
(-0.190326320622 0.00394974227244 0)
(-0.0417554347707 0.000867141958469 0)
(-0.236703991367 0.00567812785711 0)
(-0.0511936408575 0.0012347257116 0)
(-0.100115839504 0.00207912205005 0)
(-0.268213070357 0.00643397729645 0)
(-0.936112395756 0.0224557509192 0)
(-0.402589335013 0.00835472524104 0)
(-0.400879268794 0.00831923713403 0)
(-0.501090747859 0.0120203183644 0)
(-0.215297297278 0.00446795184934 0)
(-0.501067765746 0.0120197670624 0)
(-0.059846420785 0.00143561427522 0)
(-0.00875961644405 0.000153676048374 0)
(-0.0197056561145 0.000409230590698 0)
(-0.0196890485844 0.000408885699398 0)
(-0.0241817630155 0.000583233465075 0)
(-0.0241807234282 0.000583208391548 0)
(-0.047247738661 0.000981201533661 0)
(-0.126692823229 0.00303914625485 0)
(-0.0986613296074 0.00236671819865 0)
(-0.188777498697 0.00391760038366 0)
(-0.0415584147564 0.000863050411536 0)
(-0.0511890432017 0.00123461482197 0)
(-0.0997985715721 0.0020725332949 0)
(-0.236683948427 0.00567764706091 0)
(0 0 0)
(0 0 0)
(0 0 0)
(0 0 0)
(0 0 0)
(0 0 0)
(0 0 0)
(0 0 0)
(0 0 0)
(0 0 0)
(0 0 0)
(0 0 0)
(0 0 0)
(0 0 0)
(0 0 0)
(0 0 0)
(0 0 0)
(0 0 0)
(0 0 0)
(0 0 0)
(0 0 0)
(0 0 0)
(0 0 0)
(-0.00499839104293 4.12204577544e-05 0)
(0 0 0)
(-0.00773016213166 0.000135615614824 0)
(0 0 0)
(0 0 0)
(0 0 0)
(-0.035179134254 0.000848476116327 0)
(-0.0137959077795 0.000217304554599 0)
(-0.00831657938179 0.000130997583286 0)
(-0.0188308655638 0.000454176602679 0)
(0 0 0)
(-0.00992475333428 0.000174116855829 0)
(0 0 0)
(0 0 0)
(0 0 0)
(0 0 0)
(0 0 0)
(0 0 0)
(0 0 0)
(0 0 0)
(0 0 0)
(0 0 0)
(0 0 0)
(0 0 0)
(0 0 0)
(0 0 0)
(0 0 0)
(0 0 0)
(0 0 0)
(0 0 0)
(0 0 0)
(0 0 0)
(0 0 0)
(0 0 0)
(0 0 0)
(0 0 0)
(0 0 0)
(0 0 0)
(0 0 0)
(0 0 0)
(0 0 0)
(0 0 0)
(0 0 0)
(0 0 0)
(0 0 0)
(0 0 0)
(0 0 0)
(0 0 0)
(-0.0151609121025 0.000301317883239 0)
(0 0 0)
(0 0 0)
(0 0 0)
(0 0 0)
(0 0 0)
(0 0 0)
(0 0 0)
(-0.0033828868973 6.72337068006e-05 0)
(0 0 0)
(0 0 0)
(0 0 0)
(0 0 0)
(0 0 0)
(0 0 0)
(0 0 0)
(0 0 0)
(0 0 0)
(0 0 0)
(0 0 0)
(0 0 0)
(0 0 0)
(0 0 0)
(0 0 0)
(0 0 0)
(0 0 0)
(0 0 0)
(0 0 0)
(0 0 0)
(0 0 0)
(0 0 0)
(0 0 0)
(0 0 0)
(0 0 0)
(0 0 0)
(0 0 0)
(-0.325044317435 0.00892195237878 0)
(-0.00778338430705 0.000154692070502 0)
(0 0 0)
(0 0 0)
(0 0 0)
(0 0 0)
(0 0 0)
(0 0 0)
(-0.0713720550377 0.00197543644781 0)
(0 0 0)
(0 0 0)
(0 0 0)
(0 0 0)
(0 0 0)
(0 0 0)
(0 0 0)
(0 0 0)
(0 0 0)
(0 0 0)
(0 0 0)
(0 0 0)
(0 0 0)
(0 0 0)
(0 0 0)
(0 0 0)
(0 0 0)
(0 0 0)
(0 0 0)
(0 0 0)
(0 0 0)
(0 0 0)
(0 0 0)
(0 0 0)
(0 0 0)
(0 0 0)
(0 0 0)
(-1.52658379199 0.0539706772566 0)
(-0.0438083668343 0.00158165370618 0)
(0 0 0)
(0 0 0)
(0 0 0)
(0 0 0)
(0 0 0)
(0 0 0)
(-0.33489413799 0.0117120903457 0)
(-0.00663550132031 0.000258212006466 0)
(0 0 0)
(0 0 0)
(0 0 0)
(0 0 0)
(0 0 0)
(0 0 0)
(0 0 0)
(0 0 0)
(0 0 0)
(0 0 0)
(0 0 0)
(0 0 0)
(0 0 0)
(0 0 0)
(0 0 0)
(0 0 0)
(0 0 0)
(0 0 0)
(0 0 0)
(0 0 0)
(0 0 0)
(0 0 0)
(0 0 0)
(0 0 0)
(0 0 0)
(0 0 0)
(0 0 0)
(0 0 0)
(0 0 0)
(0 0 0)
(0 0 0)
(0 0 0)
(0 0 0)
(-2.53463307564 0.0733908159457 0)
(-0.0765382212229 0.00221617975421 0)
(0 0 0)
(0 0 0)
(0 0 0)
(0 0 0)
(0 0 0)
(0 0 0)
(-2.53464605885 0.0733911918772 0)
(-0.56555645319 0.0163758020685 0)
(-0.0158338574562 0.000469773287651 0)
(0 0 0)
(0 0 0)
(0 0 0)
(0 0 0)
(0 0 0)
(0 0 0)
(-0.0464237011467 0.00134420770372 0)
(-0.0765392351779 0.00221620911348 0)
(-0.0158336911432 0.000469768353328 0)
(0 0 0)
(0 0 0)
(0 0 0)
(0 0 0)
(0 0 0)
(0 0 0)
(0 0 0)
(0 0 0)
(0 0 0)
(0 0 0)
(0 0 0)
(0 0 0)
(0 0 0)
(0 0 0)
(0 0 0)
(0 0 0)
(0 0 0)
(0 0 0)
(0 0 0)
(0 0 0)
(0 0 0)
(0 0 0)
(0 0 0)
(0 0 0)
(0 0 0)
(0 0 0)
(-0.0626892103192 0.00103070086755 0)
(-0.00210700657532 3.45979277227e-05 0)
(0 0 0)
(0 0 0)
(0 0 0)
(0 0 0)
(0 0 0)
(0 0 0)
(-0.0299613779048 0.000492608186356 0)
(-0.056925918548 0.000935944053765 0)
(-0.0136427930264 0.000224020357882 0)
(-0.000364550930413 2.75195946124e-06 0)
(0 0 0)
(0 0 0)
(0 0 0)
(0 0 0)
(0 0 0)
(0 0 0)
(-0.000862695659335 1.14295072681e-05 0)
(-0.00172159295894 2.82692752167e-05 0)
(-0.000339183665065 2.56046444625e-06 0)
(0 0 0)
(0 0 0)
(0 0 0)
(0 0 0)
(0 0 0)
(0 0 0)
(0 0 0)
(0 0 0)
(0 0 0)
(0 0 0)
(0 0 0)
(0 0 0)
(0 0 0)
(0 0 0)
(0 0 0)
(0 0 0)
(0 0 0)
(0 0 0)
(0 0 0)
(0 0 0)
(0 0 0)
(0 0 0)
(0 0 0)
(0 0 0)
(0 0 0)
(0 0 0)
(-0.000182866430303 1.31590077515e-06 0)
(-0.000176501803987 1.270101135e-06 0)
(-2.24882537451e-05 1.2120815847e-07 0)
(0 0 0)
(0 0 0)
(0 0 0)
(0 0 0)
(0 0 0)
(0 0 0)
(0 0 0)
(-2.3662154278e-05 1.27535298116e-07 0)
(-2.39452545354e-05 1.29061164074e-07 0)
(-2.32256034929e-06 5.15370566852e-09 0)
(0 0 0)
(0 0 0)
(0 0 0)
(0 0 0)
(0 0 0)
(0 0 0)
(0 0 0)
(0 0 0)
(0 0 0)
(0 0 0)
(0 0 0)
(0 0 0)
(0 0 0)
(0 0 0)
(0 0 0)
(0 0 0)
(0 0 0)
(0 0 0)
(0 0 0)
(0 0 0)
(0 0 0)
(0 0 0)
(0 0 0)
(0 0 0)
(0 0 0)
(0 0 0)
(0 0 0)
(0 0 0)
(0 0 0)
(0 0 0)
(0 0 0)
(0 0 0)
(0 0 0)
(0 0 0)
(0 0 0)
(0 0 0)
(-0.00338276396459 6.72312635556e-05 0)
(-0.00919562630363 0.00018275989163 0)
(-0.00205181817764 4.07791764701e-05 0)
(-0.0874361651333 0.00208117800088 0)
(-0.0179077405299 0.00035591014799 0)
(-0.0530363348276 0.0012623844278 0)
(-0.0108625644621 0.000215889710866 0)
(0 0 0)
(0 0 0)
(0 0 0)
(-0.00242374516229 4.81710966249e-05 0)
(0 0 0)
(0 0 0)
(0 0 0)
(0 0 0)
(0 0 0)
(0 0 0)
(-0.0179105313977 0.000355965615521 0)
(-0.00399635265116 7.94261264349e-05 0)
(-0.00399639169452 7.94269024083e-05 0)
(0 0 0)
(0 0 0)
(0 0 0)
(0 0 0)
(0 0 0)
(0 0 0)
(0 0 0)
(0 0 0)
(-0.0713596629018 0.00197509345815 0)
(-0.197162498319 0.00541179871952 0)
(-0.0432808410132 0.00119792754719 0)
(-0.810020847341 0.0256971658224 0)
(-0.178944272361 0.00572958143619 0)
(-0.491294665214 0.0155858710564 0)
(-0.108535157021 0.00347516583034 0)
(0 0 0)
(-0.00472061389256 9.38205680553e-05 0)
(0 0 0)
(-0.0230539267948 0.000759875614082 0)
(0 0 0)
(-0.0123125891895 0.000393951497177 0)
(0 0 0)
(-0.0150671286068 0.000406398893191 0)
(-0.0150681133411 0.000406425453985 0)
(-0.00286352842894 5.69116369101e-05 0)
(-0.178975323186 0.00573057564646 0)
(-0.0380057248946 0.00125269867472 0)
(-0.0380125171094 0.00125292255148 0)
(-0.00746877075492 0.000238969511261 0)
(0 0 0)
(0 0 0)
(0 0 0)
(-0.00338228858327 6.72218155164e-05 0)
(0 0 0)
(0 0 0)
(0 0 0)
(-0.334843932259 0.011710334525 0)
(-0.910253162119 0.0318338425874 0)
(-0.20309356628 0.0071026928425 0)
(-2.22843156033 0.0765463543072 0)
(-0.491458640051 0.0167480323316 0)
(-1.33594443506 0.0455265993274 0)
(-0.298088829599 0.0101583346979 0)
(0 0 0)
(-0.0265706845658 0.00095930583028 0)
(0 0 0)
(-0.0665170225906 0.00226678127956 0)
(0 0 0)
(-0.04034437609 0.0013748642512 0)
(0 0 0)
(-0.0747178140075 0.00261306988931 0)
(-0.0747270331173 0.00261339230477 0)
(-0.0141935560433 0.000556106830849 0)
(-0.49149994282 0.0167494398561 0)
(-0.109666897577 0.00373725192037 0)
(-0.109671110853 0.00373739550132 0)
(-0.0244709340827 0.000833925709716 0)
(0 0 0)
(0 0 0)
(0 0 0)
(-0.0135609000356 0.000502943054555 0)
(0 0 0)
(0 0 0)
(0 0 0)
(-7.08141603321 0.210498018009 0)
(-4.2048609898 0.122490734595 0)
(-3.90230183541 0.0809824225506 0)
(-1.84600129147 0.0383090962515 0)
(-0.565541622562 0.0163753726447 0)
(-1.53734236752 0.0445140607626 0)
(-0.343025723032 0.0099323795407 0)
(-2.35376150914 0.0488463776398 0)
(-0.247644810611 0.0051392428216 0)
(-1.11668001729 0.0231738745048 0)
(-0.117816101377 0.00244497573673 0)
(0 0 0)
(-0.0464237566177 0.00134420930989 0)
(0 0 0)
(-0.0896901279008 0.0018626095882 0)
(0 0 0)
(-0.0426599987485 0.000885927186874 0)
(0 0 0)
(0 0 0)
(0 0 0)
(0 0 0)
(0 0 0)
(0 0 0)
(0 0 0)
(0 0 0)
(0 0 0)
(0 0 0)
(0 0 0)
(0 0 0)
(0 0 0)
(0 0 0)
(0 0 0)
(0 0 0)
(0 0 0)
(0 0 0)
(0 0 0)
(0 0 0)
(0 0 0)
(0 0 0)
(0 0 0)
(0 0 0)
(0 0 0)
(0 0 0)
(0 0 0)
(0 0 0)
(0 0 0)
(0 0 0)
(0 0 0)
(0 0 0)
(0 0 0)
(0 0 0)
(0 0 0)
(0 0 0)
(0 0 0)
(0 0 0)
(0 0 0)
(0 0 0)
(0 0 0)
(0 0 0)
(0 0 0)
(-0.343028367441 0.00993245611009 0)
(-0.565556413366 0.0163758009154 0)
(-1.22680149462 0.0254591677459 0)
(-2.47795603381 0.0514237214484 0)
(-0.128396388656 0.00266454288742 0)
(-0.261595950509 0.0054287635081 0)
(-1.53734270536 0.044514070545 0)
(-0.565552777589 0.0163756956407 0)
(-0.343023367154 0.00993231132577 0)
(-2.44463131575 0.0507321510593 0)
(-1.12085872599 0.0232605930541 0)
(-0.257927326308 0.0053526304749 0)
(-0.118312907221 0.00245528568776 0)
(-0.126192926933 0.00365394185186 0)
(-0.126191855068 0.0036539108158 0)
(-0.0281572016218 0.000815297496759 0)
(-0.678503848999 0.0140806343844 0)
(-0.070412534369 0.00146226864332 0)
(-0.0704196162532 0.00146241571397 0)
(-0.00512777525453 4.22874563911e-05 0)
(0 0 0)
(0 0 0)
(0 0 0)
(-0.0259115432148 0.000538109265384 0)
(0 0 0)
(0 0 0)
(0 0 0)
(0 0 0)
(0 0 0)
(0 0 0)
(0 0 0)
(0 0 0)
(0 0 0)
(0 0 0)
(0 0 0)
(0 0 0)
(0 0 0)
(0 0 0)
(0 0 0)
(0 0 0)
(0 0 0)
(0 0 0)
(0 0 0)
(0 0 0)
(0 0 0)
(0 0 0)
(0 0 0)
(0 0 0)
(0 0 0)
(0 0 0)
(0 0 0)
(0 0 0)
(0 0 0)
(0 0 0)
(0 0 0)
(0 0 0)
(0 0 0)
(0 0 0)
(0 0 0)
(0 0 0)
(0 0 0)
(0 0 0)
(0 0 0)
(0 0 0)
(0 0 0)
(0 0 0)
(0 0 0)
(0 0 0)
(0 0 0)
(-0.07653946028 0.00221621563136 0)
(0 0 0)
(0 0 0)
(-0.046375788667 0.000963093605206 0)
(-0.0944102255482 0.00196063262976 0)
(0 0 0)
(0 0 0)
(-0.0464232784645 0.00134419546487 0)
(0 0 0)
(0 0 0)
(-0.0931131390305 0.00193369582143 0)
(-0.0427906749699 0.000888640961383 0)
(0 0 0)
(0 0 0)
(0 0 0)
(0 0 0)
(0 0 0)
(-0.0259171786996 0.000538226298421 0)
(0 0 0)
(0 0 0)
(0 0 0)
(0 0 0)
(0 0 0)
(0 0 0)
(0 0 0)
(0 0 0)
(0 0 0)
(0 0 0)
(0 0 0)
(0 0 0)
(0 0 0)
(0 0 0)
(0 0 0)
(0 0 0)
(0 0 0)
(0 0 0)
(0 0 0)
(0 0 0)
(0 0 0)
(0 0 0)
(0 0 0)
(0 0 0)
(0 0 0)
(0 0 0)
(0 0 0)
(0 0 0)
(0 0 0)
(0 0 0)
(0 0 0)
(0 0 0)
(0 0 0)
(0 0 0)
(0 0 0)
(0 0 0)
(0 0 0)
(0 0 0)
(0 0 0)
(0 0 0)
(0 0 0)
(0 0 0)
(0 0 0)
(0 0 0)
(0 0 0)
(0 0 0)
(0 0 0)
(0 0 0)
(0 0 0)
(0 0 0)
(0 0 0)
(0 0 0)
(0 0 0)
(0 0 0)
(0 0 0)
(0 0 0)
(0 0 0)
(0 0 0)
(0 0 0)
(0 0 0)
(0 0 0)
(0 0 0)
(0 0 0)
(0 0 0)
(0 0 0)
(0 0 0)
(0 0 0)
(0 0 0)
(0 0 0)
(0 0 0)
(0 0 0)
(0 0 0)
(0 0 0)
(0 0 0)
(0 0 0)
(0 0 0)
(0 0 0)
(0 0 0)
(0 0 0)
(0 0 0)
(0 0 0)
(0 0 0)
(0 0 0)
(0 0 0)
(0 0 0)
(0 0 0)
(0 0 0)
(0 0 0)
(0 0 0)
(0 0 0)
(0 0 0)
(0 0 0)
(0 0 0)
(0 0 0)
(0 0 0)
(0 0 0)
(0 0 0)
(0 0 0)
(0 0 0)
(0 0 0)
(0 0 0)
(0 0 0)
(0 0 0)
(0 0 0)
(0 0 0)
(0 0 0)
(0 0 0)
(0 0 0)
(0 0 0)
(0 0 0)
(0 0 0)
(0 0 0)
(0 0 0)
(0 0 0)
(0 0 0)
(0 0 0)
(0 0 0)
(0 0 0)
(0 0 0)
(0 0 0)
(0 0 0)
(0 0 0)
(0 0 0)
(0 0 0)
(0 0 0)
(0 0 0)
(0 0 0)
(0 0 0)
(0 0 0)
(0 0 0)
(0 0 0)
(0 0 0)
(0 0 0)
(0 0 0)
(0 0 0)
(0 0 0)
(0 0 0)
(0 0 0)
(0 0 0)
(0 0 0)
(0 0 0)
(0 0 0)
(0 0 0)
(0 0 0)
(0 0 0)
(0 0 0)
(0 0 0)
(0 0 0)
(0 0 0)
(0 0 0)
(0 0 0)
(0 0 0)
(0 0 0)
(0 0 0)
(0 0 0)
(0 0 0)
(0 0 0)
(0 0 0)
(0 0 0)
(0 0 0)
(0 0 0)
(0 0 0)
(0 0 0)
(0 0 0)
(0 0 0)
(0 0 0)
(0 0 0)
(0 0 0)
(0 0 0)
(0 0 0)
(0 0 0)
(0 0 0)
(0 0 0)
(-0.00234743426403 2.80998684135e-05 0)
(-0.00434118525791 5.19659853207e-05 0)
(-0.00137111870785 1.63968107404e-05 0)
(-0.0026921581924 3.22263724756e-05 0)
(-0.166383073132 0.00273557725403 0)
(-0.0998736413981 0.00164206644669 0)
(-0.00381153263323 4.56257996608e-05 0)
(-0.00221962212203 2.65698982554e-05 0)
(-0.0023094798481 2.76455365884e-05 0)
(-0.00137852657505 1.64853992747e-05 0)
(-0.0145027589346 0.000238141357163 0)
(-0.0377245286706 0.00062024556109 0)
(-0.00872236746717 0.000143224915733 0)
(-0.00081061252323 9.69387993263e-06 0)
(-0.000175773944946 2.10202959954e-06 0)
(-0.000515064159297 6.15950281391e-06 0)
(-0.000108439986382 1.2968023288e-06 0)
(0 0 0)
(-0.00119170041829 1.57883587856e-05 0)
(0 0 0)
(-1.76697864523e-05 1.17232292113e-07 0)
(0 0 0)
(-1.03083969314e-05 6.83922810012e-08 0)
(0 0 0)
(0 0 0)
(0 0 0)
(0 0 0)
(0 0 0)
(0 0 0)
(0 0 0)
(0 0 0)
(0 0 0)
(0 0 0)
(0 0 0)
(0 0 0)
(0 0 0)
(0 0 0)
(0 0 0)
(0 0 0)
(0 0 0)
(0 0 0)
(0 0 0)
(0 0 0)
(0 0 0)
(0 0 0)
(0 0 0)
(0 0 0)
(0 0 0)
(0 0 0)
(0 0 0)
(0 0 0)
(0 0 0)
(0 0 0)
(0 0 0)
(0 0 0)
(0 0 0)
(0 0 0)
(0 0 0)
(0 0 0)
(0 0 0)
(0 0 0)
(0 0 0)
(0 0 0)
(0 0 0)
(0 0 0)
(0 0 0)
(-0.0537190821136 0.000883219046094 0)
(-0.00667901899494 0.000109672280643 0)
(-0.0118747558591 0.000194988449371 0)
(-0.000471374205416 5.63702733389e-06 0)
(-0.00105082007398 1.25664523259e-05 0)
(-0.000101215119367 1.21040224077e-06 0)
(-0.000229339900647 2.74260931941e-06 0)
(-0.0360945193629 0.000593445861444 0)
(-0.0125767060535 0.000206514764655 0)
(-0.00804648640106 0.000132126666421 0)
(-0.000990995366725 1.18510260125e-05 0)
(-0.000642172716082 7.67955715872e-06 0)
(-0.000219393544158 2.62366372849e-06 0)
(-0.000137972653841 1.64997492883e-06 0)
(-0.00322969911834 5.30330080461e-05 0)
(-0.00311344967647 5.1124143672e-05 0)
(-0.000697077487991 9.23529883248e-06 0)
(-0.000262776400227 3.14246671489e-06 0)
(-4.75196619885e-05 4.93247332686e-07 0)
(-4.94794436141e-05 5.13589587219e-07 0)
(-4.94397556595e-06 1.09705631146e-08 0)
(0 0 0)
(0 0 0)
(0 0 0)
(0 0 0)
(0 0 0)
(0 0 0)
(0 0 0)
(0 0 0)
(0 0 0)
(0 0 0)
(0 0 0)
(0 0 0)
(0 0 0)
(0 0 0)
(0 0 0)
(0 0 0)
(0 0 0)
(0 0 0)
(0 0 0)
(0 0 0)
(0 0 0)
(0 0 0)
(0 0 0)
(0 0 0)
(0 0 0)
(0 0 0)
(0 0 0)
(0 0 0)
(0 0 0)
(0 0 0)
(0 0 0)
(0 0 0)
(0 0 0)
(0 0 0)
(0 0 0)
(0 0 0)
(0 0 0)
(0 0 0)
(0 0 0)
(0 0 0)
(0 0 0)
(0 0 0)
(0 0 0)
(0 0 0)
(0 0 0)
(0 0 0)
(0 0 0)
(0 0 0)
(0 0 0)
(-0.00161923677722 2.65885439752e-05 0)
(0 0 0)
(0 0 0)
(-1.15856101481e-05 7.6866103439e-08 0)
(-2.48628484603e-05 1.64955514393e-07 0)
(0 0 0)
(0 0 0)
(-0.00104284493541 1.38162324568e-05 0)
(0 0 0)
(0 0 0)
(-2.21145744986e-05 1.4672176512e-07 0)
(-1.3365766897e-05 8.86767643406e-08 0)
(0 0 0)
(0 0 0)
(0 0 0)
(0 0 0)
(0 0 0)
(0 0 0)
(0 0 0)
(0 0 0)
(0 0 0)
(0 0 0)
(0 0 0)
(0 0 0)
(0 0 0)
(0 0 0)
(0 0 0)
(0 0 0)
(0 0 0)
(0 0 0)
(0 0 0)
(0 0 0)
(0 0 0)
(0 0 0)
(0 0 0)
(0 0 0)
(0 0 0)
(0 0 0)
(0 0 0)
(0 0 0)
(0 0 0)
(0 0 0)
(0 0 0)
(0 0 0)
(0 0 0)
(0 0 0)
(0 0 0)
(0 0 0)
(0 0 0)
(0 0 0)
(0 0 0)
(0 0 0)
(0 0 0)
(0 0 0)
(0 0 0)
(0 0 0)
(0 0 0)
(0 0 0)
(0 0 0)
(0 0 0)
(0 0 0)
(0 0 0)
(0 0 0)
(0 0 0)
(0 0 0)
(0 0 0)
(0 0 0)
(0 0 0)
(0 0 0)
(0 0 0)
(0 0 0)
(0 0 0)
(0 0 0)
(0 0 0)
(0 0 0)
(0 0 0)
(0 0 0)
(0 0 0)
(0 0 0)
(0 0 0)
(0 0 0)
(0 0 0)
(0 0 0)
(0 0 0)
(0 0 0)
(0 0 0)
(0 0 0)
(0 0 0)
(0 0 0)
(0 0 0)
(0 0 0)
(0 0 0)
(0 0 0)
(0 0 0)
(0 0 0)
(0 0 0)
(0 0 0)
(0 0 0)
(0 0 0)
(0 0 0)
(0 0 0)
(0 0 0)
(0 0 0)
(0 0 0)
(0 0 0)
(0 0 0)
(0 0 0)
(0 0 0)
(0 0 0)
(0 0 0)
(0 0 0)
(0 0 0)
(0 0 0)
(0 0 0)
(0 0 0)
(0 0 0)
(0 0 0)
(0 0 0)
(0 0 0)
(0 0 0)
(0 0 0)
(0 0 0)
(0 0 0)
(0 0 0)
(0 0 0)
(0 0 0)
(0 0 0)
(0 0 0)
(0 0 0)
(0 0 0)
(0 0 0)
(0 0 0)
(0 0 0)
(0 0 0)
(0 0 0)
(0 0 0)
(0 0 0)
(0 0 0)
(0 0 0)
(0 0 0)
(0 0 0)
(0 0 0)
(0 0 0)
(0 0 0)
(0 0 0)
(0 0 0)
(0 0 0)
(0 0 0)
(0 0 0)
(0 0 0)
(0 0 0)
(0 0 0)
(0 0 0)
(0 0 0)
(0 0 0)
(0 0 0)
(0 0 0)
(0 0 0)
(0 0 0)
(0 0 0)
(0 0 0)
(0 0 0)
(0 0 0)
(0 0 0)
(0 0 0)
(0 0 0)
(0 0 0)
(0 0 0)
(0 0 0)
(0 0 0)
(0 0 0)
(0 0 0)
(0 0 0)
(0 0 0)
(0 0 0)
(0 0 0)
(0 0 0)
(0 0 0)
(0 0 0)
(0 0 0)
(0 0 0)
(0 0 0)
(0 0 0)
(0 0 0)
(0 0 0)
(0 0 0)
(0 0 0)
(0 0 0)
(0 0 0)
(0 0 0)
(0 0 0)
(0 0 0)
(0 0 0)
(0 0 0)
(0 0 0)
(0 0 0)
(-6.92562615433 0.166692948113 0)
(-5.37962485192 0.129048088949 0)
(-5.71489087951 0.118598131963 0)
(-3.44249715304 0.0714403372254 0)
(-4.74765067939 0.113888098898 0)
(-5.0418098189 0.104630033861 0)
(-7.85633172803 0.18938156825 0)
(-5.38036267446 0.129065788062 0)
(-2.54091992697 0.0609523655966 0)
(-2.68530894348 0.0557268075901 0)
(-2.70366409259 0.0561077223689 0)
(-3.69717053586 0.0886888594098 0)
(-3.6977395244 0.0887025084814 0)
(-3.93386382064 0.0816374118704 0)
(-1.54113487861 0.0369692155811 0)
(-3.26245311389 0.0782607247197 0)
(-1.25397042436 0.0260229902901 0)
(-2.07871674428 0.0431385179436 0)
(-2.87915399978 0.0690660281502 0)
(-1.10898102335 0.0230141013232 0)
(-1.7461958747 0.0418882815742 0)
(-0.727994523435 0.0174633556429 0)
(-0.343898855834 0.00824955110414 0)
(-0.593274719915 0.0123119189861 0)
(-0.218990536547 0.00454459570614 0)
(-0.303497087974 0.00728038112 0)
(-0.524731120038 0.0108894696209 0)
(-0.824882863108 0.0197875428159 0)
(-1.20024261538 0.0287917875416 0)
(-1.54101184327 0.0369662641719 0)
(-1.62131485127 0.0336462964453 0)
(-0.596988774423 0.0123889948106 0)
(-2.2422164711 0.0537869755921 0)
(-0.824908325088 0.0197881536056 0)
(-0.86570999165 0.0179656252405 0)
(-0.566995247012 0.0136012556793 0)
(-0.162464010175 0.00389723644549 0)
(-0.17108710937 0.00355048101566 0)
(-0.282322945154 0.00585889995304 0)
(-0.236383903329 0.00567044948719 0)
(-0.38969186999 0.00934804795599 0)
(-0.409947091926 0.00850741690982 0)
(-0.0351431422532 0.000847608034899 0)
(-0.126530283243 0.00303524719587 0)
(-0.0291765914956 0.000605915058241 0)
(-0.0792956104769 0.00164674494098 0)
(-0.111665484069 0.00267866583958 0)
(-0.0257849581988 0.000535480453608 0)
(-0.0398202112411 0.000960413009062 0)
(-0.00875034506951 0.000153513394197 0)
(0 0 0)
(-0.00757482527732 0.000119313934202 0)
(0 0 0)
(0 0 0)
(-0.00511438834415 4.2177057951e-05 0)
(-0.00991472492944 0.000173940920542 0)
(-0.0273705419029 0.000660142768945 0)
(-0.0597742182202 0.00143388225797 0)
(-0.0619084027958 0.00128566194894 0)
(-0.0125260728107 0.000197302904348 0)
(-0.0869713087942 0.00208629439825 0)
(-0.0188117509328 0.000453715582012 0)
(-0.0201169540106 0.000417772081526 0)
(-0.00489498322732 4.26147831081e-05 0)
(0 0 0)
(0 0 0)
(0 0 0)
(0 0 0)
(0 0 0)
(-0.00398846955383 3.28918924783e-05 0)
(0 0 0)
(0 0 0)
(0 0 0)
(0 0 0)
(0 0 0)
(0 0 0)
(0 0 0)
(0 0 0)
(0 0 0)
(0 0 0)
(0 0 0)
(0 0 0)
(0 0 0)
(0 0 0)
(0 0 0)
(0 0 0)
(0 0 0)
(0 0 0)
(0 0 0)
(0 0 0)
(0 0 0)
(0 0 0)
(0 0 0)
(0 0 0)
(0 0 0)
(0 0 0)
(0 0 0)
(0 0 0)
(0 0 0)
(0 0 0)
(0 0 0)
(0 0 0)
(0 0 0)
(0 0 0)
(0 0 0)
(0 0 0)
(0 0 0)
(0 0 0)
(0 0 0)
(0 0 0)
(0 0 0)
(0 0 0)
(0 0 0)
(0 0 0)
(0 0 0)
(0 0 0)
(0 0 0)
(0 0 0)
(0 0 0)
(0 0 0)
(0 0 0)
(0 0 0)
(0 0 0)
(0 0 0)
(0 0 0)
(0 0 0)
(0 0 0)
(0 0 0)
(0 0 0)
(0 0 0)
(0 0 0)
(0 0 0)
(0 0 0)
(0 0 0)
(0 0 0)
(0 0 0)
(0 0 0)
(0 0 0)
(0 0 0)
(0 0 0)
(0 0 0)
(0 0 0)
(0 0 0)
(0 0 0)
(0 0 0)
(0 0 0)
(0 0 0)
(0 0 0)
(0 0 0)
(0 0 0)
(0 0 0)
(0 0 0)
(0 0 0)
(0 0 0)
(0 0 0)
(0 0 0)
(0 0 0)
(0 0 0)
(0 0 0)
(0 0 0)
(0 0 0)
(0 0 0)
(0 0 0)
(0 0 0)
(0 0 0)
(0 0 0)
(0 0 0)
(0 0 0)
(0 0 0)
(0 0 0)
(0 0 0)
(0 0 0)
(0 0 0)
(0 0 0)
(0 0 0)
(0 0 0)
(0 0 0)
(0 0 0)
(0 0 0)
(0 0 0)
(0 0 0)
(0 0 0)
(0 0 0)
(0 0 0)
(0 0 0)
(0 0 0)
(0 0 0)
(0 0 0)
(0 0 0)
(0 0 0)
(0 0 0)
(0 0 0)
(0 0 0)
(0 0 0)
(0 0 0)
(0 0 0)
(0 0 0)
(0 0 0)
(0 0 0)
(0 0 0)
(0 0 0)
(0 0 0)
(0 0 0)
(0 0 0)
(0 0 0)
(0 0 0)
(0 0 0)
(0 0 0)
(0 0 0)
(0 0 0)
(0 0 0)
(0 0 0)
(0 0 0)
(0 0 0)
(0 0 0)
(0 0 0)
(0 0 0)
(0 0 0)
(0 0 0)
(0 0 0)
(0 0 0)
(0 0 0)
(0 0 0)
(0 0 0)
(0 0 0)
(0 0 0)
(0 0 0)
(0 0 0)
(0 0 0)
(0 0 0)
(0 0 0)
(0 0 0)
(0 0 0)
(0 0 0)
(0 0 0)
(0 0 0)
(0 0 0)
(0 0 0)
(-1.20167930316 0.0288262512481 0)
(-1.54325280955 0.0370200211575 0)
(-1.76188513469 0.0365634777834 0)
(-0.655021319548 0.0135933137714 0)
(-2.24512310772 0.0538567008818 0)
(-0.941077454167 0.0195296866467 0)
(-0.826035674894 0.0198151968181 0)
(-1.54273211355 0.0370075305422 0)
(-3.26526671846 0.0783282183281 0)
(-2.2252070138 0.0461785536472 0)
(-1.32874581046 0.0275747646451 0)
(-2.88224290883 0.0691401258468 0)
(-1.74767607692 0.0419237891184 0)
(-1.19097297128 0.0247156371995 0)
(-0.567611929148 0.0136160488393 0)
(-0.162653709278 0.0039017870057 0)
(-0.308627331713 0.00640478108604 0)
(-0.184849985557 0.00383609476414 0)
(-0.23662954656 0.00567634205226 0)
(-0.44399727652 0.00921404252542 0)
(-0.390182166649 0.00935980934246 0)
(-0.728681116767 0.0174798258541 0)
(-0.344144957086 0.00825545465637 0)
(-0.628038040812 0.0130333439452 0)
(-0.234296896222 0.00486224055761 0)
(-0.825483599219 0.0198019534577 0)
(-0.30378693907 0.00728733415688 0)
(-0.562515412852 0.0116735872252 0)
(-1.54147932562 0.0369774782816 0)
(-3.26450808022 0.0783100198817 0)
(-2.13029922546 0.0442089821115 0)
(-1.31027663878 0.0271914836154 0)
(-2.88003542727 0.069087172103 0)
(-1.74724008676 0.0419133304529 0)
(-1.14105134623 0.0236796399073 0)
(-1.20021408836 0.0287911032267 0)
(-1.54080761222 0.0369613650147 0)
(-1.64302559308 0.034096848079 0)
(-0.601287658801 0.0124782073026 0)
(-2.24228125867 0.0537885297362 0)
(-0.824749001633 0.0197843317058 0)
(-0.88049616905 0.0182724750221 0)
(-0.72809341605 0.0174657279092 0)
(-0.344051173149 0.00825320493854 0)
(-0.61941246807 0.0128543419597 0)
(-0.224556163207 0.00466009623607 0)
(-0.82526951932 0.0197968180435 0)
(-0.303526761346 0.00728109293393 0)
(-0.539201018502 0.0111897558318 0)
(-0.566900512141 0.0135989831502 0)
(-0.162401741463 0.00389574272457 0)
(-0.284072156872 0.00589520042605 0)
(-0.173271107855 0.00359580439032 0)
(-0.389560589799 0.00934489876656 0)
(-0.236324531026 0.00566902524621 0)
(-0.415904783618 0.00863105375964 0)
(-0.267725358394 0.00642227791246 0)
(-0.934436165399 0.0224155409919 0)
(-0.36329008611 0.00753916854787 0)
(-0.363611043024 0.00754582919831 0)
(-0.500204115163 0.0119990495477 0)
(-0.500166761324 0.0119981534923 0)
(-0.194411848787 0.00403452709487 0)
(-0.126465586052 0.00303369521984 0)
(-0.0985103725981 0.00236309699567 0)
(-0.171687193206 0.00356293424065 0)
(-0.0377181803929 0.000783299635014 0)
(-0.236294194739 0.00566829753004 0)
(-0.0511019460229 0.00123251414845 0)
(-0.0904073717172 0.0018775047081 0)
(-0.12645978296 0.00303355601348 0)
(-0.0984860853285 0.00236251438521 0)
(-0.171780045597 0.0035648611576 0)
(-0.0376873269683 0.000782658896888 0)
(-0.236250555299 0.0056672506938 0)
(-0.0510978963296 0.00123241647498 0)
(-0.0904089682857 0.0018775378643 0)
(-0.0597361294162 0.00143296857207 0)
(-0.0087443016434 0.000153407370167 0)
(-0.017826288505 0.000370201455484 0)
(-0.0177946929529 0.000369545305474 0)
(-0.0241373273092 0.000582161732177 0)
(-0.0241376424385 0.000582169332697 0)
(-0.0427256281559 0.000887290123534 0)
(0 0 0)
(-0.0351299846833 0.000847290690994 0)
(-0.00760562955122 0.000119799143956 0)
(-0.0125421725754 0.000197556497823 0)
(-0.00991225821768 0.000173897645301 0)
(-0.0188012878468 0.000453463225644 0)
(0 0 0)
(0 0 0)
(0 0 0)
(0 0 0)
(0 0 0)
(0 0 0)
(0 0 0)
(0 0 0)
(0 0 0)
(0 0 0)
(-0.00453204697743 3.73746370321e-05 0)
(0 0 0)
(-0.00771694993022 0.000135383823978 0)
(0 0 0)
(0 0 0)
(0 0 0)
(0 0 0)
(0 0 0)
(0 0 0)
(0 0 0)
(0 0 0)
(0 0 0)
(0 0 0)
(0 0 0)
(0 0 0)
(0 0 0)
(0 0 0)
(0 0 0)
(0 0 0)
(0 0 0)
(0 0 0)
(0 0 0)
(0 0 0)
(0 0 0)
(0 0 0)
(0 0 0)
(0 0 0)
(0 0 0)
(0 0 0)
(0 0 0)
(0 0 0)
(0 0 0)
(0 0 0)
(0 0 0)
(0 0 0)
(0 0 0)
(0 0 0)
(0 0 0)
(0 0 0)
(0 0 0)
(0 0 0)
(0 0 0)
(0 0 0)
(0 0 0)
(0 0 0)
(0 0 0)
(0 0 0)
(0 0 0)
(0 0 0)
(0 0 0)
(0 0 0)
(0 0 0)
(0 0 0)
(0 0 0)
(0 0 0)
(0 0 0)
(0 0 0)
(0 0 0)
(0 0 0)
(0 0 0)
(0 0 0)
(0 0 0)
(0 0 0)
(0 0 0)
(0 0 0)
(0 0 0)
(0 0 0)
(0 0 0)
(0 0 0)
(0 0 0)
(0 0 0)
(0 0 0)
(0 0 0)
(0 0 0)
(0 0 0)
(0 0 0)
(0 0 0)
(0 0 0)
(0 0 0)
(0 0 0)
(0 0 0)
(0 0 0)
(0 0 0)
(0 0 0)
(0 0 0)
(0 0 0)
(0 0 0)
(0 0 0)
(0 0 0)
(0 0 0)
(0 0 0)
(0 0 0)
(0 0 0)
(0 0 0)
(0 0 0)
(0 0 0)
(0 0 0)
(0 0 0)
(0 0 0)
(0 0 0)
(0 0 0)
(0 0 0)
(0 0 0)
(0 0 0)
(0 0 0)
(0 0 0)
(0 0 0)
(0 0 0)
(0 0 0)
(0 0 0)
(0 0 0)
(0 0 0)
(0 0 0)
(0 0 0)
(0 0 0)
(0 0 0)
(0 0 0)
(0 0 0)
(0 0 0)
(0 0 0)
(0 0 0)
(0 0 0)
(0 0 0)
(0 0 0)
(0 0 0)
(0 0 0)
(0 0 0)
(0 0 0)
(0 0 0)
(0 0 0)
(0 0 0)
(0 0 0)
(0 0 0)
(0 0 0)
(0 0 0)
(0 0 0)
(0 0 0)
(0 0 0)
(0 0 0)
(0 0 0)
(0 0 0)
(0 0 0)
(0 0 0)
(0 0 0)
(0 0 0)
(0 0 0)
(0 0 0)
(0 0 0)
(0 0 0)
(0 0 0)
(0 0 0)
(0 0 0)
(0 0 0)
(0 0 0)
(0 0 0)
(0 0 0)
(0 0 0)
(0 0 0)
(0 0 0)
(0 0 0)
(0 0 0)
(0 0 0)
(0 0 0)
(0 0 0)
(0 0 0)
(0 0 0)
(0 0 0)
(0 0 0)
(0 0 0)
(0 0 0)
(0 0 0)
(0 0 0)
(0 0 0)
(0 0 0)
(0 0 0)
(0 0 0)
(0 0 0)
(0 0 0)
(0 0 0)
(0 0 0)
(-0.0273923657263 0.000660669131896 0)
(-0.0598357654262 0.00143535867121 0)
(-0.0667406758722 0.00138601455603 0)
(-0.0135884143731 0.000214036247578 0)
(-0.0870495935056 0.00208817231589 0)
(-0.0216282573885 0.000449157566508 0)
(-0.0188283866047 0.000454116813327 0)
(-0.0351671964388 0.000848188191359 0)
(-0.126605519103 0.00303705197674 0)
(-0.0845570155748 0.0017560094031 0)
(-0.0305256287683 0.000633930736417 0)
(-0.111755236142 0.00268081883981 0)
(-0.0398393028519 0.00096087347451 0)
(-0.0273717851821 0.000568434349682 0)
(-0.00489856553022 4.26459699485e-05 0)
(0 0 0)
(0 0 0)
(0 0 0)
(0 0 0)
(-0.00426464939059 3.51694772442e-05 0)
(0 0 0)
(-0.00875535829483 0.000153601344699 0)
(0 0 0)
(-0.00786728378812 0.000123920558676 0)
(0 0 0)
(-0.00991852941915 0.000174007665353 0)
(0 0 0)
(-0.00539196423439 4.44661556145e-05 0)
(-0.0351405439948 0.000847545368199 0)
(-0.126574016798 0.00303629628978 0)
(-0.0810941774389 0.0016840960759 0)
(-0.0301036459658 0.000625167350386 0)
(-0.111669774377 0.0026787687568 0)
(-0.0398290867841 0.000960627075907 0)
(-0.0262339124136 0.000544803959379 0)
(-0.0273619625644 0.000659935846176 0)
(-0.0597535768189 0.00143338710572 0)
(-0.0626296426781 0.0013006400558 0)
(-0.0125343156394 0.000197432740256 0)
(-0.0869484817897 0.00208574681708 0)
(-0.0188041586433 0.000453532465616 0)
(-0.0202841696194 0.000421244675484 0)
(-0.00874892245827 0.000153488436338 0)
(0 0 0)
(-0.00776242370324 0.000122268867871 0)
(0 0 0)
(-0.00991609941668 0.000173965034129 0)
(0 0 0)
(-0.00517571974534 4.26828423945e-05 0)
(-0.00489306616233 4.25980935087e-05 0)
(0 0 0)
(0 0 0)
(0 0 0)
(0 0 0)
(0 0 0)