/*--------------------------------*- C++ -*----------------------------------*\
| =========                 |                                                 |
| \\      /  F ield         | OpenFOAM: The Open Source CFD Toolbox           |
|  \\    /   O peration     | Version:  v1906                                 |
|   \\  /    A nd           | Web:      www.OpenFOAM.com                      |
|    \\/     M anipulation  |                                                 |
\*---------------------------------------------------------------------------*/
FoamFile
{
    version     2.0;
    format      ascii;
    class       volVectorField;
    location    "5.15";
    object      force.turbine;
}
// * * * * * * * * * * * * * * * * * * * * * * * * * * * * * * * * * * * * * //

dimensions      [1 -2 -2 0 0 0 0];


internalField   nonuniform List<vector> 
28582
(
(0 0 0)
(0 0 0)
(0 0 0)
(0 0 0)
(0 0 0)
(0 0 0)
(0 0 0)
(0 0 0)
(0 0 0)
(0 0 0)
(0 0 0)
(0 0 0)
(0 0 0)
(0 0 0)
(0 0 0)
(0 0 0)
(0 0 0)
(0 0 0)
(0 0 0)
(0 0 0)
(0 0 0)
(0 0 0)
(0 0 0)
(0 0 0)
(0 0 0)
(0 0 0)
(0 0 0)
(0 0 0)
(0 0 0)
(0 0 0)
(0 0 0)
(0 0 0)
(0 0 0)
(0 0 0)
(0 0 0)
(0 0 0)
(0 0 0)
(0 0 0)
(0 0 0)
(0 0 0)
(0 0 0)
(0 0 0)
(0 0 0)
(0 0 0)
(0 0 0)
(0 0 0)
(0 0 0)
(0 0 0)
(0 0 0)
(0 0 0)
(0 0 0)
(0 0 0)
(0 0 0)
(0 0 0)
(0 0 0)
(0 0 0)
(0 0 0)
(0 0 0)
(0 0 0)
(0 0 0)
(0 0 0)
(0 0 0)
(0 0 0)
(0 0 0)
(0 0 0)
(0 0 0)
(0 0 0)
(0 0 0)
(0 0 0)
(0 0 0)
(0 0 0)
(0 0 0)
(0 0 0)
(0 0 0)
(0 0 0)
(0 0 0)
(0 0 0)
(0 0 0)
(0 0 0)
(0 0 0)
(0 0 0)
(0 0 0)
(0 0 0)
(0 0 0)
(0 0 0)
(0 0 0)
(0 0 0)
(0 0 0)
(0 0 0)
(0 0 0)
(0 0 0)
(0 0 0)
(0 0 0)
(0 0 0)
(0 0 0)
(0 0 0)
(0 0 0)
(0 0 0)
(0 0 0)
(0 0 0)
(0 0 0)
(0 0 0)
(0 0 0)
(0 0 0)
(0 0 0)
(0 0 0)
(0 0 0)
(0 0 0)
(0 0 0)
(0 0 0)
(0 0 0)
(0 0 0)
(0 0 0)
(0 0 0)
(0 0 0)
(0 0 0)
(0 0 0)
(0 0 0)
(0 0 0)
(0 0 0)
(0 0 0)
(0 0 0)
(0 0 0)
(0 0 0)
(0 0 0)
(0 0 0)
(0 0 0)
(0 0 0)
(0 0 0)
(0 0 0)
(0 0 0)
(0 0 0)
(0 0 0)
(0 0 0)
(0 0 0)
(0 0 0)
(0 0 0)
(0 0 0)
(0 0 0)
(0 0 0)
(0 0 0)
(0 0 0)
(0 0 0)
(0 0 0)
(0 0 0)
(0 0 0)
(0 0 0)
(0 0 0)
(0 0 0)
(0 0 0)
(0 0 0)
(0 0 0)
(0 0 0)
(0 0 0)
(0 0 0)
(0 0 0)
(0 0 0)
(0 0 0)
(0 0 0)
(0 0 0)
(0 0 0)
(0 0 0)
(0 0 0)
(0 0 0)
(0 0 0)
(0 0 0)
(0 0 0)
(0 0 0)
(0 0 0)
(0 0 0)
(0 0 0)
(0 0 0)
(0 0 0)
(0 0 0)
(0 0 0)
(0 0 0)
(0 0 0)
(0 0 0)
(0 0 0)
(0 0 0)
(0 0 0)
(0 0 0)
(0 0 0)
(0 0 0)
(0 0 0)
(0 0 0)
(0 0 0)
(0 0 0)
(0 0 0)
(0 0 0)
(0 0 0)
(0 0 0)
(0 0 0)
(0 0 0)
(0 0 0)
(0 0 0)
(0 0 0)
(0 0 0)
(0 0 0)
(0 0 0)
(0 0 0)
(0 0 0)
(0 0 0)
(0 0 0)
(0 0 0)
(0 0 0)
(0 0 0)
(0 0 0)
(0 0 0)
(0 0 0)
(0 0 0)
(0 0 0)
(0 0 0)
(0 0 0)
(0 0 0)
(0 0 0)
(0 0 0)
(-0.00200737402682 2.72993062225e-05 0)
(0 0 0)
(0 0 0)
(0 0 0)
(0 0 0)
(-2.68660857443e-05 8.04432837284e-08 0)
(0 0 0)
(-2.75205437941e-06 7.84823699077e-11 0)
(0 0 0)
(0 0 0)
(0 0 0)
(0 0 0)
(0 0 0)
(0 0 0)
(0 0 0)
(0 0 0)
(0 0 0)
(0 0 0)
(0 0 0)
(0 0 0)
(-0.0163194032484 0.000447015266133 0)
(0 0 0)
(0 0 0)
(0 0 0)
(-0.0304479106452 0.000549438578729 0)
(0 0 0)
(0 0 0)
(-0.0289453663017 0.000776192497033 0)
(-0.495779586264 -0.0689949314708 0.0412046694827)
(-0.132743213881 -0.00765676885223 0.00520044113851)
(-2.48313615656 -0.319313580035 0.189653788059)
(-0.00614317591576 3.69098261862e-05 0)
(-0.0813922950219 0.00146874008589 0)
(0 0 0)
(0 0 0)
(0 0 0)
(0 0 0)
(0 0 0)
(-0.0163193605179 0.000447014095675 0)
(0 0 0)
(0 0 0)
(0 0 0)
(-0.0299257067668 0.000540015306305 0)
(0 0 0)
(0 0 0)
(0 0 0)
(0 0 0)
(0 0 0)
(0 0 0)
(0 0 0)
(0 0 0)
(-1.57236515084e-05 6.70457753893e-08 0)
(0 0 0)
(-1.00019605084e-05 4.2648439349e-08 0)
(-0.000152294401436 1.39363883414e-06 0)
(-0.000790655435108 7.23525033357e-06 0)
(-9.85103833748e-05 9.01463839396e-07 0)
(-0.000479713071707 4.38983153466e-06 0)
(0 0 0)
(0 0 0)
(-0.00020987056475 1.09946656539e-06 0)
(0 0 0)
(0 0 0)
(0 0 0)
(0 0 0)
(0 0 0)
(0 0 0)
(-0.00902860390293 0.000122784602876 0)
(-0.000438066514295 4.64483904443e-06 0)
(-0.00205876639453 2.79982173197e-05 0)
(-3.54058409553e-05 2.72713175452e-07 0)
(-0.000169634570026 1.55231789332e-06 0)
(-4.75896784689e-06 1.35715005392e-10 0)
(-3.72186529241e-05 2.86676343539e-07 0)
(0 0 0)
(0 0 0)
(0 0 0)
(0 0 0)
(0 0 0)
(-0.000229115555119 1.20028691382e-06 0)
(0 0 0)
(0 0 0)
(0 0 0)
(0 0 0)
(0 0 0)
(0 0 0)
(0 0 0)
(0 0 0)
(0 0 0)
(0 0 0)
(0 0 0)
(0 0 0)
(0 0 0)
(0 0 0)
(0 0 0)
(0 0 0)
(0 0 0)
(0 0 0)
(0 0 0)
(0 0 0)
(-0.00535422708128 3.4947086117e-05 0)
(0 0 0)
(0 0 0)
(0 0 0)
(0 0 0)
(0 0 0)
(-0.00493509701751 2.96513685472e-05 0)
(0 0 0)
(0 0 0)
(0 0 0)
(0 0 0)
(0 0 0)
(0 0 0)
(0 0 0)
(0 0 0)
(0 0 0)
(0 0 0)
(0 0 0)
(0 0 0)
(0 0 0)
(0 0 0)
(0 0 0)
(0 0 0)
(0 0 0)
(0 0 0)
(0 0 0)
(0 0 0)
(0 0 0)
(0 0 0)
(-0.0420311538032 1.81355054119e-05 0.000442205627467)
(-0.00904948901093 0.000119469290376 0)
(-0.0147758920099 0.000195067956983 0)
(-0.0105287328962 0.000158945289104 0)
(-0.0197837400381 0.000425990129042 0)
(0 0 0)
(0 0 0)
(0 0 0)
(0 0 0)
(0 0 0)
(0 0 0)
(0 0 0)
(0 0 0)
(0 0 0)
(0 0 0)
(-0.00545306302357 3.27634453485e-05 0)
(0 0 0)
(-0.00819891388923 0.000123773558633 0)
(0 0 0)
(0 0 0)
(-0.608107871932 -0.0904014016438 0.0530190751752)
(-0.554010694 -0.0868775653393 0.050656979039)
(-0.553504072809 -0.0645942039714 0.0387856587523)
(-0.0438883810262 0.000791974529047 0)
(-2.38778498588 -0.42449042869 0.244372649403)
(-0.115889635915 -0.0101859696597 0.00644955728415)
(-0.160947328859 -0.00824070555124 0.00576468763203)
(-1.62481794408 -0.260564704651 0.151576392076)
(-10.6464849341 -1.92543794726 1.10668549501)
(-1.44158675788 -0.192071117912 0.113552442997)
(-0.798119597982 -0.0646574824472 0.0410942233889)
(-6.37932460362 -1.166824713 0.669809023718)
(-0.440316683913 -0.0365729192099 0.0231161583714)
(-2.75405874785 -0.43163347811 0.251817787294)
(-0.08900944427 -0.00324102957447 0.00260864153153)
(-0.00929021186284 0.000140248159482 0)
(-0.0206471475342 0.000372581867051 0)
(-0.0205817303853 0.000371401401641 0)
(-0.0254017228725 0.000546958420575 0)
(-0.0254017698955 0.000546959433092 0)
(-0.0495225542779 0.000893644301394 0)
(-0.27899910346 -0.0245176719084 0.0155610289269)
(-0.103482840363 0.00222125280816 0)
(-0.223365084502 -0.000666488944534 0.00242205171613)
(-0.0435526516236 0.000785916225475 0)
(-0.0537768136294 0.00115794039617 0)
(-0.109047291262 0.00125655402074 0.000361826790589)
(-0.521794155776 -0.0467968118413 0.0296357591797)
(0 0 0)
(0 0 0)
(0 0 0)
(0 0 0)
(0 0 0)
(0 0 0)
(0 0 0)
(0 0 0)
(0 0 0)
(0 0 0)
(0 0 0)
(0 0 0)
(0 0 0)
(0 0 0)
(0 0 0)
(0 0 0)
(0 0 0)
(0 0 0)
(0 0 0)
(0 0 0)
(0 0 0)
(0 0 0)
(0 0 0)
(-0.00540301183729 3.24627245794e-05 0)
(0 0 0)
(-0.00819846294578 0.000123766751039 0)
(0 0 0)
(0 0 0)
(0 0 0)
(-0.0369598014854 0.000795830847645 0)
(-0.0145721914183 0.000192378748222 0)
(-0.00882944504053 0.000116564320056 0)
(-0.0197831265865 0.000425976919996 0)
(0 0 0)
(-0.010527069868 0.000158920183471 0)
(0 0 0)
(0 0 0)
(0 0 0)
(0 0 0)
(0 0 0)
(0 0 0)
(0 0 0)
(0 0 0)
(0 0 0)
(0 0 0)
(0 0 0)
(0 0 0)
(0 0 0)
(0 0 0)
(0 0 0)
(0 0 0)
(0 0 0)
(0 0 0)
(0 0 0)
(0 0 0)
(0 0 0)
(0 0 0)
(0 0 0)
(0 0 0)
(0 0 0)
(0 0 0)
(0 0 0)
(0 0 0)
(0 0 0)
(0 0 0)
(0 0 0)
(0 0 0)
(0 0 0)
(0 0 0)
(0 0 0)
(0 0 0)
(-0.0150685798376 0.000289585894213 0)
(0 0 0)
(0 0 0)
(0 0 0)
(0 0 0)
(0 0 0)
(0 0 0)
(0 0 0)
(-0.00336218640603 6.46140357883e-05 0)
(0 0 0)
(0 0 0)
(0 0 0)
(0 0 0)
(0 0 0)
(0 0 0)
(0 0 0)
(0 0 0)
(0 0 0)
(0 0 0)
(0 0 0)
(0 0 0)
(0 0 0)
(0 0 0)
(0 0 0)
(0 0 0)
(0 0 0)
(0 0 0)
(0 0 0)
(0 0 0)
(0 0 0)
(0 0 0)
(0 0 0)
(0 0 0)
(0 0 0)
(0 0 0)
(0 0 0)
(-0.322375138206 0.00863742198503 0)
(-0.00773664134673 0.00014868170901 0)
(0 0 0)
(0 0 0)
(0 0 0)
(0 0 0)
(0 0 0)
(0 0 0)
(-0.0707815504688 0.0019128571858 0)
(0 0 0)
(0 0 0)
(0 0 0)
(0 0 0)
(0 0 0)
(0 0 0)
(0 0 0)
(0 0 0)
(0 0 0)
(0 0 0)
(0 0 0)
(0 0 0)
(0 0 0)
(0 0 0)
(0 0 0)
(0 0 0)
(0 0 0)
(0 0 0)
(0 0 0)
(0 0 0)
(0 0 0)
(0 0 0)
(0 0 0)
(0 0 0)
(0 0 0)
(0 0 0)
(0 0 0)
(-1.51995822732 0.0522788127698 0)
(-0.0432374977188 0.00153449388475 0)
(0 0 0)
(0 0 0)
(0 0 0)
(0 0 0)
(0 0 0)
(0 0 0)
(-0.333412215004 0.0113391824272 0)
(-0.006569190054 0.000251816040024 0)
(0 0 0)
(0 0 0)
(0 0 0)
(0 0 0)
(0 0 0)
(0 0 0)
(0 0 0)
(0 0 0)
(0 0 0)
(0 0 0)
(0 0 0)
(0 0 0)
(0 0 0)
(0 0 0)
(0 0 0)
(0 0 0)
(0 0 0)
(0 0 0)
(0 0 0)
(0 0 0)
(0 0 0)
(0 0 0)
(0 0 0)
(0 0 0)
(0 0 0)
(0 0 0)
(0 0 0)
(0 0 0)
(0 0 0)
(0 0 0)
(0 0 0)
(0 0 0)
(0 0 0)
(-2.6058830379 0.0698787792521 0)
(-0.0786871559588 0.0021100572517 0)
(0 0 0)
(0 0 0)
(0 0 0)
(0 0 0)
(0 0 0)
(0 0 0)
(-2.60560210118 0.0698712457154 0)
(-0.58138784093 0.0155903668758 0)
(-0.0163194145752 0.000447015576393 0)
(0 0 0)
(0 0 0)
(0 0 0)
(0 0 0)
(0 0 0)
(0 0 0)
(-0.0477228459201 0.00127972520901 0)
(-0.0786815910834 0.00210990802524 0)
(-0.0163193070714 0.000447012631687 0)
(0 0 0)
(0 0 0)
(0 0 0)
(0 0 0)
(0 0 0)
(0 0 0)
(0 0 0)
(0 0 0)
(0 0 0)
(0 0 0)
(0 0 0)
(0 0 0)
(0 0 0)
(0 0 0)
(0 0 0)
(0 0 0)
(0 0 0)
(0 0 0)
(0 0 0)
(0 0 0)
(0 0 0)
(0 0 0)
(0 0 0)
(0 0 0)
(0 0 0)
(0 0 0)
(-0.0366196296527 0.000499152806819 0)
(-0.00103436349026 1.40668382118e-05 0)
(0 0 0)
(0 0 0)
(0 0 0)
(0 0 0)
(0 0 0)
(0 0 0)
(-0.0245137901475 0.000334141204429 0)
(-0.0391195492638 0.000533228571716 0)
(-0.0086300440322 0.000117364383319 0)
(-0.00020714371449 1.08518118577e-06 0)
(0 0 0)
(0 0 0)
(0 0 0)
(0 0 0)
(0 0 0)
(0 0 0)
(-0.000711529462431 7.54437903952e-06 0)
(-0.00120074964661 1.63296086635e-05 0)
(-0.00022075159756 1.15646994644e-06 0)
(0 0 0)
(0 0 0)
(0 0 0)
(0 0 0)
(0 0 0)
(0 0 0)
(0 0 0)
(0 0 0)
(0 0 0)
(0 0 0)
(0 0 0)
(0 0 0)
(0 0 0)
(0 0 0)
(0 0 0)
(0 0 0)
(0 0 0)
(0 0 0)
(0 0 0)
(0 0 0)
(0 0 0)
(0 0 0)
(0 0 0)
(0 0 0)
(0 0 0)
(0 0 0)
(-0.000203742375071 9.36659017899e-07 0)
(-0.000201602024726 9.26819246221e-07 0)
(-2.60702406834e-05 7.8060339274e-08 0)
(0 0 0)
(0 0 0)
(0 0 0)
(0 0 0)
(0 0 0)
(0 0 0)
(0 0 0)
(-2.62905789468e-05 7.87200830716e-08 0)
(-2.61334929925e-05 7.82497313386e-08 0)
(-2.68965941383e-06 7.67030065328e-11 0)
(0 0 0)
(0 0 0)
(0 0 0)
(0 0 0)
(0 0 0)
(0 0 0)
(0 0 0)
(0 0 0)
(0 0 0)
(0 0 0)
(0 0 0)
(0 0 0)
(0 0 0)
(0 0 0)
(0 0 0)
(0 0 0)
(0 0 0)
(0 0 0)
(0 0 0)
(0 0 0)
(0 0 0)
(0 0 0)
(0 0 0)
(0 0 0)
(0 0 0)
(0 0 0)
(0 0 0)
(0 0 0)
(0 0 0)
(0 0 0)
(0 0 0)
(0 0 0)
(0 0 0)
(0 0 0)
(0 0 0)
(0 0 0)
(-0.00336224914805 6.46152415558e-05 0)
(-0.00913938247119 0.000175639394953 0)
(-0.00203926937769 3.91903983419e-05 0)
(-0.0868447670752 0.00201031551924 0)
(-0.0178022314248 0.000342120834326 0)
(-0.0526721446454 0.00121927472867 0)
(-0.0107972692943 0.000207500435832 0)
(0 0 0)
(0 0 0)
(0 0 0)
(-0.00240921326654 4.62999291017e-05 0)
(0 0 0)
(0 0 0)
(0 0 0)
(0 0 0)
(0 0 0)
(0 0 0)
(-0.0178010922836 0.000342098942468 0)
(-0.00397195440973 7.63324733926e-05 0)
(-0.00397194637963 7.63323190713e-05 0)
(0 0 0)
(0 0 0)
(0 0 0)
(0 0 0)
(0 0 0)
(0 0 0)
(0 0 0)
(0 0 0)
(-0.0707836723047 0.00191291452799 0)
(-0.195530270286 0.00523885763866 0)
(-0.0429326040844 0.00116024500289 0)
(-0.803797985004 0.0249087364363 0)
(-0.177122815148 0.00555772119571 0)
(-0.487526464059 0.015107860962 0)
(-0.10742931332 0.00337089364338 0)
(0 0 0)
(-0.00469252104327 9.01802238219e-05 0)
(0 0 0)
(-0.0228237384904 0.00073781595488 0)
(0 0 0)
(-0.0122076790424 0.000382946903178 0)
(0 0 0)
(-0.0149537418324 0.00039366995564 0)
(-0.0149532419665 0.000393656796244 0)
(-0.00284601544746 5.46943333201e-05 0)
(-0.177119190863 0.00555760747366 0)
(-0.0376302319253 0.00121646090153 0)
(-0.0376287554709 0.00121641317264 0)
(-0.00740420333621 0.000232265013542 0)
(0 0 0)
(0 0 0)
(0 0 0)
(-0.00336231423261 6.46164923419e-05 0)
(0 0 0)
(0 0 0)
(0 0 0)
(-0.333416932755 0.0113393428755 0)
(-0.906321231873 0.0308235311227 0)
(-0.202223530598 0.00687752098253 0)
(-2.24373914053 0.0737538187537 0)
(-0.494909367317 0.0161309148245 0)
(-1.34534676389 0.0438497945096 0)
(-0.300181361538 0.00978401358842 0)
(0 0 0)
(-0.0262245520919 0.000930706376143 0)
(0 0 0)
(-0.0669756996161 0.00218298415258 0)
(0 0 0)
(-0.0406235459824 0.00132407063472 0)
(0 0 0)
(-0.0743937923041 0.00253009561266 0)
(-0.0743907154904 0.00252999097176 0)
(-0.01401580817 0.00054089803181 0)
(-0.494895065648 0.0161304486806 0)
(-0.110425288337 0.00359916590445 0)
(-0.110420093939 0.00359899659993 0)
(-0.0246380224131 0.000803043682817 0)
(0 0 0)
(0 0 0)
(0 0 0)
(-0.0133497427975 0.000487041008969 0)
(0 0 0)
(0 0 0)
(0 0 0)
(-7.27296464849 0.200722175411 0)
(-4.3217967057 0.116662633588 0)
(-4.4513252085 0.0804052732997 0)
(-2.10183957004 0.0379659937535 0)
(-0.581443238756 0.0155918524115 0)
(-1.58047381395 0.0423816338463 0)
(-0.35264902474 0.0094565577176 0)
(-2.71055245913 0.0489613095114 0)
(-0.288750603855 0.00521576612153 0)
(-1.27921152876 0.0231066812152 0)
(-0.136047948527 0.00245746423162 0)
(0 0 0)
(-0.0477251365822 0.00127978663489 0)
(0 0 0)
(-0.10467146165 0.00188881725885 0)
(0 0 0)
(-0.0493753564918 0.000890988088186 0)
(0 0 0)
(0 0 0)
(0 0 0)
(0 0 0)
(0 0 0)
(0 0 0)
(0 0 0)
(0 0 0)
(0 0 0)
(0 0 0)
(0 0 0)
(0 0 0)
(0 0 0)
(0 0 0)
(0 0 0)
(0 0 0)
(0 0 0)
(0 0 0)
(0 0 0)
(0 0 0)
(0 0 0)
(0 0 0)
(0 0 0)
(0 0 0)
(0 0 0)
(0 0 0)
(0 0 0)
(0 0 0)
(0 0 0)
(0 0 0)
(0 0 0)
(0 0 0)
(0 0 0)
(0 0 0)
(0 0 0)
(0 0 0)
(0 0 0)
(0 0 0)
(0 0 0)
(0 0 0)
(0 0 0)
(0 0 0)
(0 0 0)
(-0.718685608393 -0.0630178507143 0.0412048284611)
(-0.581388670049 0.0155903891092 0)
(-2.9856292987 -0.309054113787 0.189037788996)
(-2.74748503759 0.0398596460775 0.00505339048285)
(-0.136203553442 0.00246027495767 0)
(-0.286130800855 0.0051684440396 0)
(-1.58037803998 0.0423790655928 0)
(-0.581389322316 0.0155904066003 0)
(-0.35263019935 0.00945605290014 0)
(-2.69431044531 0.0486679264179 0)
(-1.27554743185 0.023040495821 0)
(-0.285755697345 0.00516166846181 0)
(-0.134778169502 0.0024345279318 0)
(-0.1297248544 0.00347867280775 0)
(-0.129725255301 0.00347868355821 0)
(-0.0289455247317 0.000776196745458 0)
(-0.775497637861 0.0140079856211 0)
(-0.0810456455929 0.00146248472828 0)
(-0.0805174804401 0.00145295388348 0)
(-0.00607689401687 3.65115870016e-05 0)
(0 0 0)
(0 0 0)
(0 0 0)
(-0.0298732421936 0.000539068572688 0)
(0 0 0)
(0 0 0)
(0 0 0)
(0 0 0)
(0 0 0)
(0 0 0)
(0 0 0)
(0 0 0)
(0 0 0)
(0 0 0)
(0 0 0)
(0 0 0)
(0 0 0)
(0 0 0)
(0 0 0)
(0 0 0)
(0 0 0)
(0 0 0)
(0 0 0)
(0 0 0)
(0 0 0)
(0 0 0)
(0 0 0)
(0 0 0)
(0 0 0)
(0 0 0)
(0 0 0)
(0 0 0)
(0 0 0)
(0 0 0)
(0 0 0)
(0 0 0)
(0 0 0)
(0 0 0)
(0 0 0)
(0 0 0)
(0 0 0)
(0 0 0)
(0 0 0)
(0 0 0)
(0 0 0)
(0 0 0)
(0 0 0)
(0 0 0)
(0 0 0)
(-0.0786817160505 0.00210991137633 0)
(0 0 0)
(0 0 0)
(-0.0493323969831 0.000890212875343 0)
(-0.103776888355 0.00187267450654 0)
(0 0 0)
(0 0 0)
(-0.0477227788317 0.00127972340998 0)
(0 0 0)
(0 0 0)
(-0.103675416958 0.00187084343508 0)
(-0.0488397226542 0.000881322469487 0)
(0 0 0)
(0 0 0)
(0 0 0)
(0 0 0)
(0 0 0)
(-0.0296288008185 0.000534657579656 0)
(0 0 0)
(0 0 0)
(0 0 0)
(0 0 0)
(0 0 0)
(0 0 0)
(0 0 0)
(0 0 0)
(0 0 0)
(0 0 0)
(0 0 0)
(0 0 0)
(0 0 0)
(0 0 0)
(0 0 0)
(0 0 0)
(0 0 0)
(0 0 0)
(0 0 0)
(0 0 0)
(0 0 0)
(0 0 0)
(0 0 0)
(0 0 0)
(0 0 0)
(0 0 0)
(0 0 0)
(0 0 0)
(0 0 0)
(0 0 0)
(0 0 0)
(0 0 0)
(0 0 0)
(0 0 0)
(0 0 0)
(0 0 0)
(0 0 0)
(0 0 0)
(0 0 0)
(0 0 0)
(0 0 0)
(0 0 0)
(0 0 0)
(0 0 0)
(0 0 0)
(0 0 0)
(0 0 0)
(0 0 0)
(0 0 0)
(0 0 0)
(0 0 0)
(0 0 0)
(0 0 0)
(0 0 0)
(0 0 0)
(0 0 0)
(0 0 0)
(0 0 0)
(0 0 0)
(0 0 0)
(0 0 0)
(0 0 0)
(0 0 0)
(0 0 0)
(0 0 0)
(0 0 0)
(0 0 0)
(0 0 0)
(0 0 0)
(0 0 0)
(0 0 0)
(0 0 0)
(0 0 0)
(0 0 0)
(0 0 0)
(0 0 0)
(0 0 0)
(0 0 0)
(0 0 0)
(0 0 0)
(0 0 0)
(0 0 0)
(0 0 0)
(0 0 0)
(0 0 0)
(0 0 0)
(0 0 0)
(0 0 0)
(0 0 0)
(0 0 0)
(0 0 0)
(0 0 0)
(0 0 0)
(0 0 0)
(0 0 0)
(0 0 0)
(0 0 0)
(0 0 0)
(0 0 0)
(0 0 0)
(0 0 0)
(0 0 0)
(0 0 0)
(0 0 0)
(0 0 0)
(0 0 0)
(0 0 0)
(0 0 0)
(0 0 0)
(0 0 0)
(0 0 0)
(0 0 0)
(0 0 0)
(0 0 0)
(0 0 0)
(0 0 0)
(0 0 0)
(0 0 0)
(0 0 0)
(0 0 0)
(0 0 0)
(0 0 0)
(0 0 0)
(0 0 0)
(0 0 0)
(0 0 0)
(0 0 0)
(0 0 0)
(0 0 0)
(0 0 0)
(0 0 0)
(0 0 0)
(0 0 0)
(0 0 0)
(0 0 0)
(0 0 0)
(0 0 0)
(0 0 0)
(0 0 0)
(0 0 0)
(0 0 0)
(0 0 0)
(0 0 0)
(0 0 0)
(0 0 0)
(0 0 0)
(0 0 0)
(0 0 0)
(0 0 0)
(0 0 0)
(0 0 0)
(0 0 0)
(0 0 0)
(0 0 0)
(0 0 0)
(0 0 0)
(0 0 0)
(0 0 0)
(0 0 0)
(0 0 0)
(0 0 0)
(0 0 0)
(0 0 0)
(0 0 0)
(0 0 0)
(0 0 0)
(0 0 0)
(0 0 0)
(0 0 0)
(0 0 0)
(0 0 0)
(0 0 0)
(0 0 0)
(-0.00203583051891 1.86568084506e-05 0)
(-0.0029893641367 2.73952048411e-05 0)
(-0.00121645255472 1.11316995514e-05 0)
(-0.00177780473016 1.62922021284e-05 0)
(-0.10282280008 0.00140155129234 0)
(-0.0634309101319 0.000864610514406 0)
(-0.00269103249314 2.46612266063e-05 0)
(-0.00158183161813 1.44962604826e-05 0)
(-0.00162938916204 1.4932088504e-05 0)
(-0.000968986568069 8.86715006124e-06 0)
(-0.00752967909026 0.000102399957604 0)
(-0.0227609646736 0.000310248888655 0)
(-0.00482394971865 6.56033598181e-05 0)
(-0.000584602349437 5.34966833332e-06 0)
(-0.000127245212684 1.16441489761e-06 0)
(-0.000355082993054 3.24934760436e-06 0)
(-7.88074496354e-05 7.21163228562e-07 0)
(0 0 0)
(-0.000608011346943 6.44677178369e-06 0)
(0 0 0)
(-1.51331017935e-05 6.45276666971e-08 0)
(0 0 0)
(-9.23150570734e-06 3.93632139348e-08 0)
(0 0 0)
(0 0 0)
(0 0 0)
(0 0 0)
(0 0 0)
(0 0 0)
(0 0 0)
(0 0 0)
(0 0 0)
(0 0 0)
(0 0 0)
(0 0 0)
(0 0 0)
(0 0 0)
(0 0 0)
(0 0 0)
(0 0 0)
(0 0 0)
(0 0 0)
(0 0 0)
(0 0 0)
(0 0 0)
(0 0 0)
(0 0 0)
(0 0 0)
(0 0 0)
(0 0 0)
(0 0 0)
(0 0 0)
(0 0 0)
(0 0 0)
(0 0 0)
(0 0 0)
(0 0 0)
(0 0 0)
(0 0 0)
(0 0 0)
(0 0 0)
(0 0 0)
(0 0 0)
(0 0 0)
(0 0 0)
(0 0 0)
(-0.0399080858269 0.00054397691195 0)
(-0.00548869824491 7.46436150654e-05 0)
(-0.00884348229212 0.000120267039396 0)
(-0.00043616550969 3.99132986298e-06 0)
(-0.000655124321889 5.99501155371e-06 0)
(-9.85108630806e-05 9.01468229162e-07 0)
(-0.000150038858727 1.37299846994e-06 0)
(-0.0236078008434 0.000321791895919 0)
(-0.0086910939984 0.000118194633038 0)
(-0.00536858937552 7.30101931114e-05 0)
(-0.000622064663479 5.6924841898e-06 0)
(-0.000361951729652 3.31220308672e-06 0)
(-0.000143799338384 1.31590091563e-06 0)
(-8.39496250142e-05 7.68219031219e-07 0)
(-0.00191063683271 2.59837276358e-05 0)
(-0.00198747980356 2.70287545039e-05 0)
(-0.000427520214141 4.53301614738e-06 0)
(-0.000129521033535 1.18524082612e-06 0)
(-2.83960229098e-05 2.18720114224e-07 0)
(-2.89988271404e-05 2.23363208455e-07 0)
(-3.80219229157e-06 1.08429929336e-10 0)
(0 0 0)
(0 0 0)
(0 0 0)
(0 0 0)
(0 0 0)
(0 0 0)
(0 0 0)
(0 0 0)
(0 0 0)
(0 0 0)
(0 0 0)
(0 0 0)
(0 0 0)
(0 0 0)
(0 0 0)
(0 0 0)
(0 0 0)
(0 0 0)
(0 0 0)
(0 0 0)
(0 0 0)
(0 0 0)
(0 0 0)
(0 0 0)
(0 0 0)
(0 0 0)
(0 0 0)
(0 0 0)
(0 0 0)
(0 0 0)
(0 0 0)
(0 0 0)
(0 0 0)
(0 0 0)
(0 0 0)
(0 0 0)
(0 0 0)
(0 0 0)
(0 0 0)
(0 0 0)
(0 0 0)
(0 0 0)
(0 0 0)
(0 0 0)
(0 0 0)
(0 0 0)
(0 0 0)
(0 0 0)
(0 0 0)
(-0.00119613112915 1.62667990821e-05 0)
(0 0 0)
(0 0 0)
(-1.22163689729e-05 5.2090694696e-08 0)
(-1.91849737483e-05 8.18048810161e-08 0)
(0 0 0)
(0 0 0)
(-0.000700396537653 7.42633613507e-06 0)
(0 0 0)
(0 0 0)
(-1.79614502072e-05 7.65877668823e-08 0)
(-1.03073025346e-05 4.39504201833e-08 0)
(0 0 0)
(0 0 0)
(0 0 0)
(0 0 0)
(0 0 0)
(0 0 0)
(0 0 0)
(0 0 0)
(0 0 0)
(0 0 0)
(0 0 0)
(0 0 0)
(0 0 0)
(0 0 0)
(0 0 0)
(0 0 0)
(0 0 0)
(0 0 0)
(0 0 0)
(0 0 0)
(0 0 0)
(0 0 0)
(0 0 0)
(0 0 0)
(0 0 0)
(0 0 0)
(0 0 0)
(0 0 0)
(0 0 0)
(0 0 0)
(0 0 0)
(0 0 0)
(0 0 0)
(0 0 0)
(0 0 0)
(0 0 0)
(0 0 0)
(0 0 0)
(0 0 0)
(0 0 0)
(0 0 0)
(0 0 0)
(0 0 0)
(0 0 0)
(0 0 0)
(0 0 0)
(0 0 0)
(0 0 0)
(0 0 0)
(0 0 0)
(0 0 0)
(0 0 0)
(0 0 0)
(0 0 0)
(0 0 0)
(0 0 0)
(0 0 0)
(0 0 0)
(0 0 0)
(0 0 0)
(0 0 0)
(0 0 0)
(0 0 0)
(0 0 0)
(0 0 0)
(0 0 0)
(0 0 0)
(0 0 0)
(0 0 0)
(0 0 0)
(0 0 0)
(0 0 0)
(0 0 0)
(0 0 0)
(0 0 0)
(0 0 0)
(0 0 0)
(0 0 0)
(0 0 0)
(0 0 0)
(0 0 0)
(0 0 0)
(0 0 0)
(0 0 0)
(0 0 0)
(0 0 0)
(0 0 0)
(0 0 0)
(0 0 0)
(0 0 0)
(0 0 0)
(0 0 0)
(0 0 0)
(0 0 0)
(0 0 0)
(0 0 0)
(0 0 0)
(0 0 0)
(0 0 0)
(0 0 0)
(0 0 0)
(0 0 0)
(0 0 0)
(0 0 0)
(0 0 0)
(0 0 0)
(0 0 0)
(0 0 0)
(0 0 0)
(0 0 0)
(0 0 0)
(0 0 0)
(0 0 0)
(0 0 0)
(0 0 0)
(0 0 0)
(0 0 0)
(0 0 0)
(0 0 0)
(0 0 0)
(0 0 0)
(0 0 0)
(0 0 0)
(0 0 0)
(0 0 0)
(0 0 0)
(0 0 0)
(0 0 0)
(0 0 0)
(0 0 0)
(0 0 0)
(0 0 0)
(0 0 0)
(0 0 0)
(0 0 0)
(0 0 0)
(0 0 0)
(0 0 0)
(0 0 0)
(0 0 0)
(0 0 0)
(0 0 0)
(0 0 0)
(0 0 0)
(0 0 0)
(0 0 0)
(0 0 0)
(0 0 0)
(0 0 0)
(0 0 0)
(0 0 0)
(0 0 0)
(0 0 0)
(0 0 0)
(0 0 0)
(0 0 0)
(0 0 0)
(0 0 0)
(0 0 0)
(0 0 0)
(0 0 0)
(0 0 0)
(0 0 0)
(0 0 0)
(0 0 0)
(0 0 0)
(0 0 0)
(0 0 0)
(0 0 0)
(0 0 0)
(0 0 0)
(0 0 0)
(0 0 0)
(0 0 0)
(0 0 0)
(0 0 0)
(0 0 0)
(0 0 0)
(0 0 0)
(0 0 0)
(0 0 0)
(0 0 0)
(0 0 0)
(0 0 0)
(-7.27150732412 0.156668310063 0)
(-5.65019050618 0.121280991945 0)
(-6.45070820897 0.116520571341 0)
(-3.92756390463 0.0709444568442 0)
(-4.98638098511 0.107032361374 0)
(-5.69981700133 0.10295705712 0)
(-8.24812564277 0.178011404326 0)
(-5.6500357752 0.121277670654 0)
(-2.66893635997 0.0572885549293 0)
(-3.05930737433 0.055260946801 0)
(-3.05065715052 0.055104695892 0)
(-3.88332226102 0.0833552736572 0)
(-3.8832246177 0.0833531777492 0)
(-4.43853882588 0.080174310038 0)
(-1.61887727486 0.0347491012059 0)
(-3.42706451331 0.073561729145 0)
(-1.45646231532 0.0263084014374 0)
(-2.3905972769 0.0431818881783 0)
(-3.02439482756 0.064918449089 0)
(-1.28515539638 0.0232140466126 0)
(-1.83443208387 0.0393759719329 0)
(-0.764712296675 0.0164145024476 0)
(-0.361252910013 0.00775427151022 0)
(-0.690920400767 0.0124802482519 0)
(-0.254740231057 0.0046014292237 0)
(-0.318791003303 0.00684282929247 0)
(-0.609466600977 0.0110089302226 0)
(-0.866572485599 0.0186009251423 0)
(-1.26075972804 0.027062130074 0)
(-1.61879550329 0.0347473459841 0)
(-1.86118315289 0.0336189635803 0)
(-0.686823837842 0.0124062511283 0)
(-2.35538085233 0.0505581052296 0)
(-0.866481513412 0.01859897243 0)
(-0.999841820771 0.0180603642937 0)
(-0.595568788998 0.0127838474512 0)
(-0.170619499549 0.00366233707126 0)
(-0.198240340397 0.00358085918284 0)
(-0.325412375387 0.00587799582203 0)
(-0.248268414901 0.00532906626685 0)
(-0.409294733643 0.00878548630169 0)
(-0.474081009563 0.00856343029427 0)
(-0.0369667172318 0.000795979759817 0)
(-0.132901099387 0.00285271393001 0)
(-0.0339955985893 0.000613457310407 0)
(-0.0923886053398 0.00166717068373 0)
(-0.117278783566 0.00251738188109 0)
(-0.0300110983696 0.00054155621469 0)
(-0.0418903509209 0.000901997092564 0)
(-0.00929217015456 0.000140277722512 0)
(0 0 0)
(-0.00887535902341 0.000117170465988 0)
(0 0 0)
(0 0 0)
(-0.00615091417102 3.69563196711e-05 0)
(-0.0105294994121 0.000158956860685 0)
(-0.0287890913755 0.000619896375832 0)
(-0.0627656599439 0.00134726103301 0)
(-0.0719647027139 0.00129861731527 0)
(-0.0146200313191 0.000193010319683 0)
(-0.0913341389858 0.00196048167978 0)
(-0.0197835196608 0.000425985383803 0)
(-0.0233890224439 0.000422059542908 0)
(-0.00535432697418 3.49477381188e-05 0)
(0 0 0)
(0 0 0)
(0 0 0)
(0 0 0)
(0 0 0)
(-0.00479478677836 2.88083475088e-05 0)
(0 0 0)
(0 0 0)
(0 0 0)
(0 0 0)
(0 0 0)
(0 0 0)
(0 0 0)
(0 0 0)
(0 0 0)
(0 0 0)
(0 0 0)
(0 0 0)
(0 0 0)
(0 0 0)
(0 0 0)
(0 0 0)
(0 0 0)
(0 0 0)
(0 0 0)
(0 0 0)
(0 0 0)
(0 0 0)
(0 0 0)
(0 0 0)
(0 0 0)
(0 0 0)
(0 0 0)
(0 0 0)
(0 0 0)
(0 0 0)
(0 0 0)
(0 0 0)
(0 0 0)
(0 0 0)
(0 0 0)
(0 0 0)
(0 0 0)
(0 0 0)
(0 0 0)
(0 0 0)
(0 0 0)
(0 0 0)
(0 0 0)
(0 0 0)
(0 0 0)
(0 0 0)
(0 0 0)
(0 0 0)
(0 0 0)
(0 0 0)
(0 0 0)
(0 0 0)
(0 0 0)
(0 0 0)
(0 0 0)
(0 0 0)
(0 0 0)
(0 0 0)
(0 0 0)
(0 0 0)
(0 0 0)
(0 0 0)
(0 0 0)
(0 0 0)
(0 0 0)
(0 0 0)
(0 0 0)
(0 0 0)
(0 0 0)
(0 0 0)
(0 0 0)
(0 0 0)
(0 0 0)
(0 0 0)
(0 0 0)
(0 0 0)
(0 0 0)
(0 0 0)
(0 0 0)
(0 0 0)
(0 0 0)
(0 0 0)
(0 0 0)
(0 0 0)
(0 0 0)
(0 0 0)
(0 0 0)
(0 0 0)
(0 0 0)
(0 0 0)
(0 0 0)
(0 0 0)
(0 0 0)
(0 0 0)
(0 0 0)
(0 0 0)
(0 0 0)
(0 0 0)
(0 0 0)
(0 0 0)
(0 0 0)
(0 0 0)
(0 0 0)
(0 0 0)
(0 0 0)
(0 0 0)
(0 0 0)
(0 0 0)
(0 0 0)
(0 0 0)
(0 0 0)
(0 0 0)
(0 0 0)
(0 0 0)
(0 0 0)
(0 0 0)
(0 0 0)
(0 0 0)
(0 0 0)
(0 0 0)
(0 0 0)
(0 0 0)
(0 0 0)
(0 0 0)
(0 0 0)
(0 0 0)
(0 0 0)
(0 0 0)
(0 0 0)
(0 0 0)
(0 0 0)
(0 0 0)
(0 0 0)
(0 0 0)
(0 0 0)
(0 0 0)
(0 0 0)
(0 0 0)
(0 0 0)
(0 0 0)
(0 0 0)
(0 0 0)
(0 0 0)
(0 0 0)
(0 0 0)
(0 0 0)
(0 0 0)
(0 0 0)
(0 0 0)
(0 0 0)
(0 0 0)
(0 0 0)
(0 0 0)
(0 0 0)
(0 0 0)
(0 0 0)
(0 0 0)
(0 0 0)
(0 0 0)
(0 0 0)
(0 0 0)
(0 0 0)
(0 0 0)
(0 0 0)
(0 0 0)
(0 0 0)
(0 0 0)
(0 0 0)
(-2.60409477815 -0.239527992949 0.15156787818)
(-11.2834011463 -1.91175524247 1.10667966995)
(-2.88580370134 -0.163677535557 0.112351704071)
(-1.0677967817 -0.0594872045543 0.0409388149297)
(-8.20882782224 -1.12749750384 0.669779721803)
(-1.21534352479 -0.0221227355368 0.0228821738314)
(-3.09486484764 -0.424297610485 0.251807275512)
(-2.09389593037 -0.058504161282 0.053016568596)
(-3.87721292563 -0.0155346773214 0.0506515648748)
(-2.7422368174 -0.0235864907365 0.038020187192)
(-1.4504145655 0.0261991595927 0)
(-5.16347526122 -0.364864749257 0.244349196389)
(-1.89632571539 0.0280277835383 0.00644934024028)
(-1.33805524101 0.0131833621994 0.00568203427692)
(-0.741596649574 -0.014586880279 0.0155604353164)
(-0.17061693547 0.00366228203346 0)
(-0.351561877964 0.00166066802354 0.00241612181421)
(-0.198003241694 0.00357657641644 0)
(-0.248241827611 0.00532849557229 0)
(-0.478294426655 0.00793314699381 0.000359329413158)
(-0.68282017069 -0.0433389861296 0.0296350375647)
(-0.790836178332 0.0118238503146 0.00260853409019)
(-0.361187242716 0.00775286196572 0)
(-0.686465975505 0.0123997869816 0)
(-0.253575455617 0.0045803896269 0)
(-0.866391790377 0.0185970465305 0)
(-0.318744085834 0.00684182221187 0)
(-0.606766946425 0.0109601657644 0)
(-1.618640904 0.03474402752 0)
(-3.431698737 0.0727747908383 0.000442135674511)
(-2.37762931 0.0429476449194 0)
(-1.445841687 0.0261165586754 0)
(-3.02396024455 0.0649091207914 0)
(-1.83415234201 0.0393699672911 0)
(-1.27433500948 0.0230185955671 0)
(-1.26060650979 0.0270588412537 0)
(-1.61871319853 0.0347455793175 0)
(-1.85306319375 0.0334722909596 0)
(-0.683793771303 0.0123515183652 0)
(-2.35511178347 0.050552329683 0)
(-0.866409782409 0.0185974327284 0)
(-0.993559924261 0.0179468930055 0)
(-0.764573144878 0.0164115155628 0)
(-0.361186198469 0.00775283955101 0)
(-0.684783997401 0.0123694050385 0)
(-0.252226064412 0.00455601527465 0)
(-0.866387258533 0.0185969492548 0)
(-0.318741889405 0.00684177506566 0)
(-0.603345202469 0.0108983580454 0)
(-0.595454227204 0.0127813883893 0)
(-0.170606050291 0.00366204838376 0)
(-0.323293057804 0.00583971411907 0)
(-0.196209319066 0.00354417239462 0)
(-0.409247438383 0.00878447111184 0)
(-0.248233767656 0.00532832256586 0)
(-0.470095641164 0.00849144170203 0)
(-0.281281943149 0.00603769962162 0)
(-0.981806581998 0.0210744179391 0)
(-0.416137060089 0.00751677589916 0)
(-0.415157497903 0.0074990818504 0)
(-0.525521974189 0.0112802968765 0)
(-0.525506481352 0.0112799643237 0)
(-0.222497765137 0.00401902641942 0)
(-0.132865829574 0.00285195686563 0)
(-0.10347648824 0.00222111646023 0)
(-0.197037108719 0.00355912494249 0)
(-0.0432770896616 0.000780943655289 0)
(-0.248236832772 0.00532838835839 0)
(-0.0537723286788 0.00115784382471 0)
(-0.103666141918 0.00187067606515 0)
(-0.132860422102 0.00285184079459 0)
(-0.103475778106 0.00222110121725 0)
(-0.196151381534 0.00354312585614 0)
(-0.0431149324601 0.000778017496467 0)
(-0.248218690012 0.00532799892516 0)
(-0.0537728442004 0.00115785492509 0)
(-0.103441370182 0.00186662001464 0)
(-0.0627583015605 0.00134710308576 0)
(-0.00928938420586 0.000140235664894 0)
(-0.0204123183349 0.000368344327634 0)
(-0.020373047317 0.000367635674336 0)
(-0.0253991439201 0.000546902889709 0)
(-0.0254000659816 0.000546922743845 0)
(-0.0489151893845 0.000882684281585 0)
(0 0 0)
(-0.036955740927 0.000795743414339 0)
(-0.00884804293561 0.000116809845226 0)
(-0.0145242708297 0.000191746111539 0)
(-0.0105253725006 0.000158894559443 0)
(-0.019780154527 0.000425912924613 0)
(0 0 0)
(0 0 0)
(0 0 0)
(0 0 0)
(0 0 0)
(0 0 0)
(0 0 0)
(0 0 0)
(0 0 0)
(0 0 0)
(-0.00537627733624 3.2302096624e-05 0)
(0 0 0)
(-0.00819745578247 0.000123751546563 0)
(0 0 0)
(0 0 0)
(0 0 0)
(0 0 0)
(0 0 0)
(0 0 0)
(0 0 0)
(0 0 0)
(0 0 0)
(0 0 0)
(0 0 0)
(0 0 0)
(0 0 0)
(0 0 0)
(0 0 0)
(0 0 0)
(0 0 0)
(0 0 0)
(0 0 0)
(0 0 0)
(0 0 0)
(0 0 0)
(0 0 0)
(0 0 0)
(0 0 0)
(0 0 0)
(0 0 0)
(0 0 0)
(0 0 0)
(0 0 0)
(0 0 0)
(0 0 0)
(0 0 0)
(0 0 0)
(0 0 0)
(0 0 0)
(0 0 0)
(0 0 0)
(0 0 0)
(0 0 0)
(0 0 0)
(0 0 0)
(0 0 0)
(0 0 0)
(0 0 0)
(0 0 0)
(0 0 0)
(0 0 0)
(0 0 0)
(0 0 0)
(0 0 0)
(0 0 0)
(0 0 0)
(0 0 0)
(0 0 0)
(0 0 0)
(0 0 0)
(0 0 0)
(0 0 0)
(0 0 0)
(0 0 0)
(0 0 0)
(0 0 0)
(0 0 0)
(0 0 0)
(0 0 0)
(0 0 0)
(0 0 0)
(0 0 0)
(0 0 0)
(0 0 0)
(0 0 0)
(0 0 0)
(0 0 0)
(0 0 0)
(0 0 0)
(0 0 0)
(0 0 0)
(0 0 0)
(0 0 0)
(0 0 0)
(0 0 0)
(0 0 0)
(0 0 0)
(0 0 0)
(0 0 0)
(0 0 0)
(0 0 0)
(0 0 0)
(0 0 0)
(0 0 0)
(0 0 0)
(0 0 0)
(0 0 0)
(0 0 0)
(0 0 0)
(0 0 0)
(0 0 0)
(0 0 0)
(0 0 0)
(0 0 0)
(0 0 0)
(0 0 0)
(0 0 0)
(0 0 0)
(0 0 0)
(0 0 0)
(0 0 0)
(0 0 0)
(0 0 0)
(0 0 0)
(0 0 0)
(0 0 0)
(0 0 0)
(0 0 0)
(0 0 0)
(0 0 0)
(0 0 0)
(0 0 0)
(0 0 0)
(0 0 0)
(0 0 0)
(0 0 0)
(0 0 0)
(0 0 0)
(0 0 0)
(0 0 0)
(0 0 0)
(0 0 0)
(0 0 0)
(0 0 0)
(0 0 0)
(0 0 0)
(0 0 0)
(0 0 0)
(0 0 0)
(0 0 0)
(0 0 0)
(0 0 0)
(0 0 0)
(0 0 0)
(0 0 0)
(0 0 0)
(0 0 0)
(0 0 0)
(0 0 0)
(0 0 0)
(0 0 0)
(0 0 0)
(0 0 0)
(0 0 0)
(0 0 0)
(0 0 0)
(0 0 0)
(0 0 0)
(0 0 0)
(0 0 0)
(0 0 0)
(0 0 0)
(0 0 0)
(0 0 0)
(0 0 0)
(0 0 0)
(0 0 0)
(0 0 0)
(0 0 0)
(0 0 0)
(0 0 0)
(0 0 0)
(0 0 0)
(0 0 0)
(0 0 0)
(0 0 0)
(0 0 0)
(0 0 0)
(0 0 0)
(0 0 0)
(-0.0287842564941 0.000619792269544 0)
(-0.0627644042732 0.00134723408012 0)
(-0.0717280731168 0.00129434728732 0)
(-0.0145609110575 0.000192229827471 0)
(-0.0913214157798 0.00196020857694 0)
(-0.0232552399572 0.000419645411436 0)
(-0.0197828629864 0.000425971244071 0)
(-0.0369597475684 0.000795829686687 0)
(-0.132873694412 0.00285212568391 0)
(-0.0919321161105 0.00165893324517 0)
(-0.0337717939293 0.000609418710986 0)
(-0.117259145793 0.0025169603575 0)
(-0.0418809587441 0.000901794857061 0)
(-0.0298262571127 0.000538220717597 0)
(-0.0053533126044 3.49411173185e-05 0)
(0 0 0)
(0 0 0)
(0 0 0)
(0 0 0)
(-0.00476306235959 2.86177388076e-05 0)
(0 0 0)
(-0.00929016766097 0.000140247492196 0)
(0 0 0)
(-0.00881948008731 0.000116432765015 0)
(0 0 0)
(-0.0105271876514 0.000158921961569 0)
(0 0 0)
(-0.00611376285298 3.67331047232e-05 0)
(-0.0369593703721 0.000795821564769 0)
(-0.132873559248 0.00285212278263 0)
(-0.0914785744681 0.00165074899639 0)
(-0.0336991152046 0.000608107209003 0)
(-0.117256464896 0.0025169028122 0)