/*--------------------------------*- C++ -*----------------------------------*\
| =========                 |                                                 |
| \\      /  F ield         | OpenFOAM: The Open Source CFD Toolbox           |
|  \\    /   O peration     | Version:  v1906                                 |
|   \\  /    A nd           | Web:      www.OpenFOAM.com                      |
|    \\/     M anipulation  |                                                 |
\*---------------------------------------------------------------------------*/
FoamFile
{
    version     2.0;
    format      ascii;
    class       volVectorField;
    location    "5.15";
    object      U;
}
// * * * * * * * * * * * * * * * * * * * * * * * * * * * * * * * * * * * * * //

dimensions      [0 1 -1 0 0 0 0];


internalField   nonuniform List<vector> 
28582
(
(0.810096308729 1.57161787719e-05 -0.000333158514071)
(0.810857096432 -0.00217923606453 -0.000530909259547)
(0.809919519824 -8.24527681289e-05 -0.000960217776128)
(0.810700589715 -0.00233889153531 -0.00143233883837)
(0.809134911481 -0.000121484592411 -0.00138839501828)
(0.810230910497 -0.0025314406228 -0.00323226129504)
(0.808699199949 0.000598921672207 -0.00123042811395)
(0.808514981012 -0.00206750763659 -0.00365687712607)
(0.411543374859 -0.0200314199014 0.00175641651227)
(0.130802860789 0.0712160566481 -0.0122572186487)
(-0.0760905929165 -0.0362281291947 0.0733574103417)
(0.808432649817 -0.000834904854637 -0.00174797871465)
(0.794327373846 0.00116326056937 -0.00141297633121)
(0.790870298361 0.000460949584223 -0.000909376460175)
(0.808990657372 -0.00317165105547 -0.0064531541434)
(0.807777813243 -0.00272958678183 -0.00602961539945)
(0.79005516048 0.000155857729646 -0.0013666913593)
(0.806732069462 -0.0043100234106 -0.00884877785563)
(0.806054998978 -0.00382150991672 -0.00985187856912)
(0.810523707093 0.00323429904653 -0.000404915652873)
(0.81048810718 -0.00390803727112 -0.000563113688856)
(0.809754858763 -0.0048075700524 -0.000371126709144)
(0.811014410322 0.00322035195727 -0.000667028889984)
(0.810667495084 -0.00385186762583 -0.00172026652139)
(0.810192074379 -0.00472345662739 -0.000938523931336)
(0.810844887627 0.00285091996195 -0.000843278618342)
(0.81121358229 -0.00464951643181 -0.00419497138171)
(0.810713569106 0.00308206534384 -0.00160802955825)
(0.81017612929 -0.00395152497294 -0.00687852621654)
(0.0245198712159 0.106237860659 -0.0143601515545)
(0.0171548000148 0.0178593147794 0.0932485090308)
(0.0519236092482 0.0461964303199 -0.273065948761)
(0.8113248406 0.00185229073857 -0.000456912379258)
(0.80978010474 0.00198690065357 -9.60497824658e-05)
(0.800239639209 0.0029031732505 -0.00312696380561)
(0.796905972832 0.000399050744799 -0.00190920188106)
(0.809916725608 0.00242174331247 -0.00252500602363)
(0.812938267745 -0.00470850785165 -0.00755416485106)
(0.809100399964 -0.00365802437947 -0.00658971729683)
(0.812352887405 -0.00459887817781 -0.00692677784648)
(0.808004429032 -0.0050302987015 -0.00928721428717)
(0.787354077742 -0.00107700597333 -0.0078804895043)
(0.807555439454 -0.00468222425375 -0.0100742234962)
(0.810706012017 -0.0047362677513 -0.0119907207444)
(0.333704705094 -0.00433774102314 -0.000829925821808)
(0.149155370822 0.0750139620261 -0.011753202115)
(0.00174684428636 0.094580905581 0.189627847981)
(-0.0100088198731 0.0157571272226 0.176948741553)
(0.237815877378 0.0323224147885 -0.0059710667197)
(0.0969773006591 0.0117436856874 0.187221248956)
(0.808973732614 0.000731686476179 -0.00204221455472)
(0.80768060965 0.000124954868629 -0.00139533200938)
(0.793075784451 0.00123200867144 -0.00100163986869)
(0.793853083345 0.000810629899415 -0.00116666361627)
(0.808136308779 0.000878008935142 -0.00206994413569)
(0.792760126902 0.000945596414826 -0.000735032035087)
(0.808394827938 -0.000142549474998 -0.00123782611357)
(0.807464768968 -0.000523363209554 -0.00186595591471)
(0.807111472796 -0.00159674199617 -0.00194271291564)
(0.792153940736 0.00106052286642 -0.000549019914918)
(0.790518109302 0.00109240005479 -0.000567548140402)
(0.806477034362 -0.00147507774414 -0.00204279687346)
(0.79150736239 0.000947499040395 -0.000204052090187)
(0.808130553303 -0.000720361308631 -0.0017636342158)
(0.805842068377 -0.00289937273137 -0.00507619643832)
(0.807053364564 -0.00207573451947 -0.00308942989259)
(0.789386722045 -0.000566391732301 -0.00232195203627)
(0.789392990594 0.000734634024542 -0.000967485025252)
(0.806347880539 -0.00213380856123 -0.00332511455291)
(0.788731728853 0.000698273399946 -0.00238367519266)
(0.806572048035 -0.0026357316977 -0.00452938710819)
(0.80742554668 -0.00355434870201 -0.00811723473434)
(0.78858497763 -0.00142076661912 -0.00473308748543)
(0.787997611292 -0.00047434973321 -0.0050294585995)
(0.806317901309 -0.00371121302125 -0.00614600168939)
(0.788670749633 -0.00113105698536 -0.0031802335329)
(0.788061104853 -0.000283106459408 -0.0032495760496)
(0.806985358395 -0.00319968430371 -0.00559869485813)
(0.80512520858 -0.00301511295513 -0.00976833581761)
(0.787241171978 -0.000168811355481 -0.00674410217833)
(0.786774248802 -0.000481185545661 -0.00594659083968)
(0.805518345996 -0.00310756177575 -0.00675789947039)
(0.786648127744 -0.00028723578885 -0.00355217519421)
(0.804569192891 -0.00217123148885 -0.00594330701509)
(0.787311230182 0.000228509467923 -0.00475504896053)
(0.466379629157 0.0421471493314 0.000576906697818)
(0.144527001162 0.0618548509323 0.171235923535)
(0.470471906186 0.112014991701 0.00125154507305)
(0.421966749845 0.0757181920311 0.00121834947927)
(0.113819287694 0.101178313614 0.110854253094)
(0.0835397030195 0.0842526566117 0.141976746155)
(0.0262326288126 0.0979015322091 -0.0168146258583)
(-0.0387364862006 0.156225394858 0.161177985035)
(-0.0600826238521 0.00649394758822 0.152993464678)
(-0.0671502730456 0.0993074709483 -0.0145975242468)
(-0.0390276134044 0.169836350251 0.116944803186)
(-0.0666094795674 0.109557942368 -0.0123531267362)
(-0.0649328816164 0.0165750395853 0.116232685863)
(0.810625096991 0.00205558566739 -0.00405528860835)
(0.810398368565 0.00212524335074 -0.0031159508527)
(0.799281055778 0.00215830227606 -0.00335805462549)
(0.799406666679 0.00172609960668 -0.00343742357461)
(0.811035533491 0.00169901794285 -0.00353051999893)
(0.81007394826 0.00251906651873 -0.00397860622373)
(0.798524980256 0.00103004541971 -0.00345743180935)
(0.811369370951 0.0015616920611 -0.00343602423431)
(0.812060137573 0.00101480648393 -0.00210194477552)
(0.797832526534 0.0012210652701 -0.00271502823322)
(0.796358908799 5.69479382414e-05 -0.00170309746392)
(0.811680692571 0.00139988298937 -0.00299466270056)
(0.811537437993 0.000999659330793 -0.00223295754455)
(0.797212791114 0.000482359310972 -0.00273296804562)
(0.796999261726 0.00113496255551 -0.0019375221566)
(0.795516702704 0.00101563997973 -0.00122955817445)
(0.809821162347 0.00132846301 -0.00153152979218)
(0.810758089858 0.00206515418351 -0.00281482556836)
(0.796128957855 0.000316753958382 -0.0014103476637)
(0.810767485431 0.00128448161695 -0.00154581732006)
(0.797222402629 0.000508026624103 -0.00263015845111)
(0.808567053365 -0.00398224218962 -0.00860268669784)
(0.788384616403 -0.00170596698832 -0.00553518201984)
(0.787951575779 -0.00116500802459 -0.00592575748346)
(0.809839621042 -0.00532257393387 -0.0113925771678)
(0.787992015849 -0.00141083684024 -0.0068111893731)
(0.810017145569 -0.00426253637791 -0.0106675795268)
(0.787647079581 -0.00146001444713 -0.00726789894349)
(0.811223409725 -0.00543237888969 -0.0106434766857)
(0.813930408163 -0.00465349661575 -0.0110018742666)
(0.788018492791 -0.00124049244414 -0.00724603245689)
(0.787108720611 -0.00182878893132 -0.00787874523258)
(0.811459487143 -0.00444368124307 -0.0100994482978)
(0.813716232338 -0.0055447988335 -0.0113054054235)
(0.787684772987 -0.00166072262659 -0.00760001540762)
(0.809040413691 -0.00443979650073 -0.0129078513776)
(0.80680985833 -0.00399835933602 -0.0102346234696)
(0.787245247613 -0.00117690049282 -0.00755453915871)
(0.786579708369 -0.00156204540771 -0.00730962629737)
(0.786564617315 -0.00193009347915 -0.00886161748228)
(0.809715047301 -0.00507032835047 -0.012129548555)
(0.787094604813 -0.0013176974199 -0.00859468040743)
(0.787263593279 -0.00206550011732 -0.00948016224932)
(0.787061493224 -0.00180375242087 -0.00968608843159)
(0.813989528534 -0.00481992533674 -0.0124924825901)
(0.811112251074 -0.00523642131953 -0.0111402917908)
(0.786980121641 -0.00123192006199 -0.00888488151948)
(0.813890555585 -0.00531833993113 -0.0115215056075)
(0.787283045889 -0.00140004609115 -0.00873699967273)
(0.811676783514 -0.00514432143524 -0.00276276063884)
(0.813993351869 -0.00498422676276 -0.00555224106698)
(-0.122381422791 0.0988416160161 -0.00765985512257)
(0.0871602623806 0.0267116023177 -0.494754982598)
(0.810133045936 0.00041410554194 -0.000389874118456)
(0.794409161189 0.000495280369566 -0.000646059953742)
(0.813293314176 -0.004964149328 -0.00441249221915)
(0.814436037201 -0.00551439665975 -0.000946088966368)
(0.786506498357 -0.000769921753979 -0.00748263397901)
(0.786850965417 -0.00119076556764 -0.00914293003154)
(0.784052327469 0.00127969342951 -0.00116059903235)
(0.813445237127 -0.00572819371587 0.00152057429717)
(0.811619937145 -0.00613500202982 0.00260619499016)
(0.782286219731 0.00180196759314 0.000872896846104)
(0.777967836793 0.00332027832345 0.00369779838614)
(0.396727861968 0.0191502330784 0.00145368909008)
(-0.128726029459 0.0937706274362 -0.00818888572402)
(-0.16098017064 0.109815447125 0.00577498426302)
(-0.0485436386392 -0.0496538619821 0.0585821411659)
(-0.0323792917819 0.168673946746 0.0528929521668)
(-0.0257683184738 0.141186907839 -0.019507938378)
(-0.15989127395 0.131595224424 0.00999944730089)
(-0.0884289139196 0.147599972344 0.0111056323765)
(0.810010964401 -0.000389952592015 0.000398449359851)
(0.809963876052 0.000383274669216 -0.00123717516505)
(0.794962788787 -0.000424043058881 -0.0004040157745)
(0.793220137387 0.000352308056159 0.000576248838316)
(0.810789148234 0.000351815457347 -0.0010497210959)
(0.793692692192 -0.000735477326592 0.000482473422146)
(0.809247776609 -0.000633420267512 0.000195338689237)
(0.816581082472 -0.00549726397891 -0.00784734786471)
(0.814967365913 -0.00482629750396 -0.00955100328372)
(0.785664515439 -0.000698540472645 -0.00608073574163)
(0.786413912022 -0.00140595991453 -0.0075846264702)
(0.816699326644 -0.0047959887526 -0.00781764535754)
(0.814794639209 -0.00557055441597 -0.00967684175326)
(0.785768880488 -0.00114339395864 -0.00623302264136)
(0.816640215763 -0.00502126683216 -0.0073233729804)
(0.81491044056 -0.00460619300054 -0.0104950184389)
(0.786620060424 -0.000547537222114 -0.00844991414183)
(0.78628863162 -0.000530392940471 -0.00729525335048)
(0.814819619809 -0.00516111705616 -0.00969785450126)
(0.785988453444 1.04371668568e-05 -0.0068175798305)
(0.816708101178 -0.00446860473016 -0.0078437525786)
(0.81648571933 -0.00488004781821 -0.00509148364946)
(0.815876994344 -0.00443518022867 6.87900429951e-05)
(0.78355820513 0.00142838703054 -0.00124544980446)
(0.785560941879 0.000498305732824 -0.00542343052984)
(0.815913822957 -0.00509447585049 3.16079736109e-05)
(0.785189640997 0.000902696638337 -0.00517427761873)
(0.816458583254 -0.00426949699475 -0.00544317816266)
(0.813631888951 -0.00547155917632 0.00342420026182)
(0.814661129245 -0.00451842360209 0.00140786198701)
(0.781997515458 0.0017252432091 -0.000266333939155)
(0.780697547383 0.00243399024054 0.00239836787901)
(0.814669258934 -0.00519316975238 0.00105178046039)
(0.780440135601 0.0021870947141 0.00161814814444)
(0.813198911247 -0.00482190092133 0.00409747021109)
(0.811840535616 -0.00580312190271 0.00429316622053)
(0.809937390325 -0.00564294221738 0.00520375953532)
(0.777357280311 0.0025463298919 0.00358080444926)
(0.779111777682 0.00280440725344 0.00309730089551)
(0.810257163389 -0.00622432325347 0.00537140393659)
(0.778924658782 0.00227193821351 0.00302512218046)
(0.811447938618 -0.0051845570902 0.00433061678191)
(0.789908433173 0.00846279001187 -0.0013280218675)
(0.796795875688 0.0106235668566 -0.00381470077167)
(0.800777317239 0.016351238379 -0.000170151894238)
(0.802631931118 0.010417388264 -0.00106184246294)
(0.52566043715 0.101860125865 -0.0104723464791)
(0.446668749584 0.0403396115549 -0.00493142413371)
(0.351995755444 0.0919505299815 -0.0186576052817)
(0.367751863151 0.0645357360362 0.00423121043089)
(0.377326382451 0.0925680454098 -0.000627468350175)
(0.324052149305 -0.0534844620057 -0.220139517544)
(0.270809596015 -0.054464791245 0.540209890482)
(0.279381984842 -0.0582063862399 -0.353608018361)
(0.275188469685 -0.0697251217395 0.292225494572)
(0.323366435268 0.00753675000887 -0.329226046314)
(0.399557723716 -0.0151930712524 0.287206699047)
(0.785751112071 0.00225529017474 -8.10253337982e-05)
(0.787428726665 0.00345909161656 0.000241406285893)
(0.78148281661 -0.0012155624298 0.0039227164817)
(0.781475552619 0.00523490836585 0.00347921854545)
(0.784991630548 0.00659584038289 0.00119567627866)
(0.781471114809 0.00537753907557 0.00264028056332)
(0.789464231528 0.00489643138397 -0.000585857342332)
(0.792972423822 0.00643189666732 -0.00224352322115)
(0.781564499457 0.00622278780506 0.00170952452114)
(0.782423415186 0.00566561288082 -0.00489588605723)
(0.788634614187 0.0138137766057 0.00142326137231)
(0.793363081213 0.00991551668492 -0.00240782823394)
(0.794916803039 0.014141077319 -0.000322915730329)
(0.781745196503 0.00643816180326 0.000644871067795)
(0.786374079402 0.00972315771321 -0.00247392325726)
(0.783697771236 0.00681201673476 -0.00529310049184)
(0.788499476203 0.0101939501741 -0.0040571914041)
(0.797591118042 0.0191948889665 0.00183769580607)
(0.800954537067 0.0229788447022 0.00307180036732)
(0.787913008506 0.0106549795469 -0.00206644030264)
(0.792238558292 0.0137724669863 -0.00293478361447)
(0.789907059383 0.0108493929229 -0.00202826929044)
(0.792987741866 0.0122884518143 -0.000615985533453)
(0.798775555903 0.0135447440396 -0.00127221543858)
(0.80069963005 0.0118250519485 -0.00151292745277)
(0.78474776511 0.00632636325214 -0.00563171285955)
(0.789347888471 0.0096784747466 -0.00271928991214)
(0.790593424414 0.00734994904102 -0.00138365656717)
(0.803091602679 0.0181358266004 0.000626173053174)
(0.80223506666 0.0128787923758 4.29031579674e-05)
(0.803996170599 0.0137611655028 0.000774245907359)
(0.790669012134 0.0101611617583 -0.000525494815668)
(0.793120163842 0.0111230374546 0.000559968072688)
(0.791546555538 0.00759110658689 0.00052636046982)
(0.793593802114 0.00908901109208 0.0017747328764)
(0.791773728739 0.00714292020516 -0.00100494228655)
(0.794428137156 0.00854569812865 0.0010540895013)
(0.584328376933 -0.0340772061136 -0.00411002177034)
(0.592185182522 0.0455817898345 -0.00372287411206)
(0.586996083068 0.0374107905891 -0.00701655649529)
(0.234708751628 -0.00435711432718 -0.130742072374)
(0.350096390424 0.00629600280785 0.00781092196051)
(0.273223230661 -0.0225969039411 -0.0696163617452)
(0.381535222122 -0.025894629936 0.020434320632)
(0.337914142451 0.0111842596731 0.00774260357716)
(0.201825803875 0.014782549273 0.0004323421177)
(0.362579260098 -0.0225358239492 -0.0176081218763)
(0.218555754158 -0.0211313961153 -0.0133502262326)
(0.547944589131 0.117073140666 -0.00277493047785)
(0.4511146393 0.149782830066 -0.00757915689632)
(0.496719559115 0.066598618475 -0.0124444352535)
(0.422857265769 0.117424681942 -0.0149764285204)
(0.404074661763 0.0746637533039 -0.0105464298561)
(0.276051935744 -0.0480111657514 0.0145611324874)
(0.387099855469 -0.0276189306116 0.0164914576615)
(0.267877328719 0.000480797181438 0.0596115596771)
(0.375034766076 0.0275250727969 -0.00028897747794)
(0.435557334141 0.0177705827992 -0.00659392986132)
(0.392990795166 0.0543578796628 0.000109709426566)
(0.401099182066 0.0210048283306 -0.000897017166967)
(0.378095147589 -0.0178848753373 -0.03086047422)
(0.255611419891 -0.0130410197875 -0.0258812646184)
(0.374475483417 0.0415292823956 -0.0448243155819)
(0.269225061562 0.0566891898602 -0.0587912717199)
(0.353981556977 0.0728511787659 -0.00546075820984)
(0.344968767086 0.0642442274789 -0.00313005390535)
(0.248571834668 -0.00215962108502 0.0757201350375)
(0.359992632038 0.0207334613412 -0.020398031345)
(0.370584787092 0.0049420293851 -0.0158236894732)
(0.394694557939 0.0396565728278 0.00081982019738)
(0.366873108001 0.0807278237897 0.00483798378765)
(0.403928142397 0.0749768642848 0.0014517943222)
(0.380061180772 0.0334308018829 -0.0683304797441)
(0.29733341138 0.0571315753691 -0.102995925896)
(0.417718463896 0.0195599073809 -0.0882839562334)
(0.361601181443 0.0316159687617 -0.130398696822)
(0.787270825561 0.00221258392732 0.0036342431679)
(0.785392562671 0.00228709945722 0.00297119668354)
(0.781783534065 -0.00114165011779 0.00402571000998)
(0.781495549371 0.00125538380652 0.00449435757584)
(0.785516638346 0.00294557971488 0.00365068563363)
(0.781810000127 0.00125013208803 0.00462697943678)
(0.786827951417 0.00196902411495 0.00304985225373)
(0.787711605916 0.00232042801437 0.00371682870549)
(0.787742451285 0.0038267848551 0.00226059275442)
(0.781420976494 0.00326491860108 0.0042289648971)
(0.781676861034 0.00527186832669 0.00379903829981)
(0.786437537291 0.00346922243324 0.00323394743429)
(0.788417820456 0.00262864153452 0.00290616225946)
(0.781718088081 0.00333926075971 0.00444837445642)
(0.784727302094 0.00577574293461 0.00205373005423)
(0.786816384182 0.00513128661629 0.00163855574671)
(0.781363941955 0.00314783090024 0.00365078121309)
(0.782089983206 0.0056108844682 0.000900036633955)
(0.785589994061 0.00416722764868 0.00299215925122)
(0.786436613683 0.00707123779709 0.000847045138764)
(0.781567159197 0.00334325830985 0.00239695271425)
(0.790718041643 0.00310069739599 -0.000932908696602)
(0.789189208981 0.00401558294725 -6.37682885517e-05)
(0.781687459225 0.00626404079576 0.00235737933175)
(0.781532168655 0.00627869373622 -0.000484988092852)
(0.789527268897 0.00289403527096 0.00110248301251)
(0.790554122149 0.00436952395954 -0.00240534541853)
(0.781435180017 0.00619233686903 0.000549513826943)
(0.7920560111 0.00376072775787 -0.0031144523535)
(0.794273513531 0.00652365436136 -0.00734660750914)
(0.782010309565 0.0062927694957 -0.00268526113793)
(0.781920627995 0.00500121959492 -0.00366325548171)
(0.792349645794 0.00510589193234 -0.00509729993254)
(0.79353650003 0.00508334650393 -0.00530202251571)
(0.781587092633 0.00605043747504 -0.00145335496944)
(0.791185469458 0.00861564967579 -0.00431153068192)
(0.788640639116 0.0057688099283 -0.000823643823989)
(0.782839551032 0.00707742407865 -0.00103994424016)
(0.782072800892 0.0069844039935 -0.00148926704877)
(0.788599588673 0.00797007760702 -0.0021620730623)
(0.790675269541 0.00626518156487 -0.00352159395254)
(0.783773513079 0.00810586482343 -0.00339962108477)
(0.792288808766 0.011490219366 -0.00519487485888)
(0.789893948191 0.0136303778536 -0.00208566173991)
(0.784740872664 0.00814387360921 -0.0021867493306)
(0.787279489025 0.0105376317244 -0.00317456458457)
(0.789326911306 0.0108178785949 -0.00368264592266)
(0.793103707214 0.0145507719811 -0.00280476423356)
(0.785822958516 0.00922262048789 -0.00374636908825)
(0.79394691432 0.00988876117594 -0.00609627881665)
(0.795287672692 0.0086028172433 -0.00717072395864)
(0.782997671009 0.00717915853943 -0.00331266810852)
(0.785439642891 0.00796613249748 -0.00578414231052)
(0.792922379019 0.00725846568741 -0.00540605190577)
(0.796597053551 0.010913491372 -0.00704755220856)
(0.784846646026 0.00837406204114 -0.00482212359905)
(0.795123524019 0.0125723606158 -0.00597924512367)
(0.798191332286 0.0154923852644 -0.00367910339151)
(0.788123348709 0.0103874977339 -0.00348529530296)
(0.787432526826 0.00917880561757 -0.00520936120104)
(0.795958612751 0.0151348664772 -0.00332573784393)
(0.79763676449 0.0134956148967 -0.00651198404558)
(0.786962640928 0.00945306155146 -0.00478651146758)
(0.795358785471 0.0201133152015 -0.000863099488405)
(0.791160699751 0.0168646902581 -0.00206109969282)
(0.78859025177 0.0118111963645 -0.0016315443754)
(0.788442848082 0.0113451871789 -0.00236514253703)
(0.792714161563 0.0199164848291 -0.000164911860654)
(0.794115981535 0.0173899962342 -0.00247018292276)
(0.78906183427 0.0122673802806 -0.00233474908938)
(0.79738282539 0.0224243242688 -0.000513188450114)
(0.798278577682 0.024279161698 -0.000505058380565)
(0.78977412224 0.0125402262413 -0.00167764595827)
(0.793349998857 0.0139888062025 -0.0021699643388)
(0.794993764771 0.0224349853863 0.000236541728832)
(0.790602023095 0.0130774475807 -0.00209871421834)
(0.800438033781 0.0243029045453 -0.000555719258844)
(0.797845581583 0.0197451493476 -0.00143348946622)
(0.79875989298 0.017473149941 -0.0024463106522)
(0.789280774856 0.011163129305 -0.00240897523594)
(0.790510883268 0.0118091830709 -0.000674472207689)
(0.796729313605 0.0176292456376 -0.00225763548591)
(0.799631961366 0.0191457258175 -0.000261497053018)
(0.790009521013 0.012129229041 -0.00217810702808)
(0.799473346374 0.0218810745964 -0.000476350788143)
(0.803062470062 0.0218343198261 -0.000126257082127)
(0.793618773628 0.0131223993889 -0.00137498148363)
(0.791417327702 0.0121528096477 0.000117253483374)
(0.80096311615 0.0208411050282 0.000647666009801)
(0.791372373697 0.0129004213479 -0.00147603989315)
(0.802110375135 0.0233186720333 -0.000667461906556)
(0.800341800808 0.0114889669847 -0.00743803519258)
(0.797132494025 0.00940921266164 -0.00782868724561)
(0.786577480144 0.00760886072076 -0.0055342758981)
(0.785874074052 0.00630034411593 -0.00662789107819)
(0.798799296467 0.011568022079 -0.00729475174259)
(0.798787200224 0.00987966197556 -0.00856325768789)
(0.787530222866 0.00753060788126 -0.00596179392324)
(0.800997916735 0.0128341233435 -0.0058361178689)
(0.799984477713 0.0151014469933 -0.0026629958489)
(0.788662975827 0.00874274780551 -0.00485672161943)
(0.789816401137 0.00908794444862 -0.000860129957705)
(0.799484161852 0.0135044431017 -0.00600196867864)
(0.801251134103 0.0137865146886 -0.00119916635196)
(0.789541833765 0.00844782809637 -0.00474995775976)
(0.801892207595 0.0118199608637 -0.00491860386092)
(0.802484487349 0.0109766048366 -0.00140061901026)
(0.790395218928 0.00808948928781 -0.000348183103354)
(0.790306673565 0.00728387869007 -0.00376310578289)
(0.802005987297 0.0123838883712 -0.000640850456814)
(0.802263821425 0.010684656787 -0.00462044076814)
(0.790173864007 0.00771029546283 -0.00404322279553)
(0.80205561205 0.0158093873749 0.00110879672536)
(0.800377771396 0.016575828276 -0.00109788735406)
(0.790958745048 0.0106221400702 0.000648364735838)
(0.790578464526 0.00950795233186 0.000174355601164)
(0.800999946875 0.017786212463 0.000772823111843)
(0.801484807655 0.0149457239986 -0.000216161429393)
(0.791038196712 0.00985733125448 0.00106517046953)
(0.803057802902 0.0167128220361 0.0021329356752)
(0.803770859661 0.0199401241203 0.000802520577191)
(0.791671719345 0.010817424983 0.00124647957984)
(0.79319547951 0.0106335844512 0.00250313519001)
(0.802158253609 0.0190970723268 0.00159778307442)
(0.791920118337 0.0101483913988 0.00244724917017)
(0.804426764685 0.0174161093882 0.00226626538735)
(0.80283288906 0.0137501705974 0.00168480175107)
(0.802803747344 0.0114729242529 -0.000211036422063)
(0.790935810413 0.00852264239862 0.000634955139393)
(0.791843671805 0.00808838687687 0.00173322416213)
(0.802285599254 0.0131339561152 0.000447784744487)
(0.803240682473 0.0117336233023 0.0018953046874)
(0.791332247633 0.00890693224186 0.00133240444369)
(0.803685180112 0.0142573439074 0.00299648431675)
(0.804820710536 0.0121849473423 0.00224093006408)
(0.793559987174 0.00944300634033 0.00332676531806)
(0.792372179452 0.00869604357718 0.00218100074303)
(0.803780635019 0.0121248104063 0.00234687498399)
(0.792231889598 0.00928288663436 0.00283311225064)
(0.804748593135 0.0145117425891 0.00337828775156)
(0.80354215397 0.00880371120901 -0.000639287702743)
(0.803155463332 0.00992556735861 -0.00148943868428)
(0.792545836396 0.00730630496342 0.000295904107983)
(0.792304878109 0.00722191525798 -0.00153414732314)
(0.803500275006 0.00997398619652 0.000234297087538)
(0.803206492455 0.00873095714096 -0.00207408317198)
(0.792732388365 0.00743643848858 -0.000732061028361)
(0.804893918372 0.010302801545 0.00110889032327)
(0.793295484416 0.00795079277767 0.00135229104084)
(0.804156489522 0.0103041418932 0.0012693059927)
(0.812557305156 0.000202738232936 -0.000233339251183)
(0.812904322467 -0.00321398336019 -0.000358512717758)
(0.811668485538 -0.00531462409466 -0.000710662744914)
(0.808971583863 -0.00532068803837 -0.000101662212019)
(0.806278359669 -0.00522977650653 3.13333721915e-05)
(0.808976861008 -0.0245578773174 6.55668093712e-05)
(0.812658583111 0.000347690052115 -0.000842804351361)
(0.812492062867 -0.00303521185738 -0.00110511062127)
(0.811634093432 -0.00534497437213 -0.00145567999878)
(0.809542688538 -0.00536754976428 0.000386917165676)
(0.80641017269 -0.00550567813175 0.00172389754654)
(0.809341156123 -0.025121410207 0.00218872705155)
(0.816115860969 0.00560814703758 -0.00111356617249)
(0.814458772838 0.00514094563984 0.000229767417846)
(0.794422191495 0.00484045070438 0.00606453246616)
(0.791104859582 0.00339424251844 0.00824422180128)
(0.788060679025 -0.00218159076263 0.0127687312919)
(0.787594435488 -0.00494225846283 0.0133250261082)
(0.79137862191 -0.00435836776008 0.0109061028183)
(0.776174142946 -0.0140228689497 0.00884443680864)
(0.826113335946 0.00409107937796 0.00010345701766)
(0.823016230885 0.00109468299575 0.000359802015541)
(0.820301245074 -0.00680447620909 -0.000404478750726)
(0.81624091309 -0.0159489002632 0.000580566033754)
(0.812585096644 -0.017820566057 0.00275014936686)
(0.806431979321 -0.0169676979424 0.00378732497898)
(0.803754633965 -0.00997540065062 0.00270193320709)
(0.795267125636 -0.0308946866668 0.00277287575503)
(0.818698230738 0.00345824664361 -0.000864802004825)
(0.820138584576 0.000651533023393 -0.000809466907864)
(0.819452447886 -0.00497416574344 -0.000911144490901)
(0.816131539351 -0.00871625751393 -0.000449235007861)
(0.812841761638 -0.0095669769739 0.000709055111444)
(0.808602864264 -0.00984083725246 0.00148357614735)
(0.804887110633 -0.00707649626652 0.00160507869068)
(0.801060914311 -0.0289051553385 0.0016453993463)
(0.813794800544 0.00350208457632 -0.000291725151963)
(0.816400726014 -0.00021028990183 -0.000633968967682)
(0.816381378745 -0.00392577830551 -0.000629705841467)
(0.813495240482 -0.00699584957268 -0.000588551097392)
(0.811327579533 -0.00866888697422 -9.39881541878e-05)
(0.809084577447 -0.00966958857117 0.000404461157017)
(0.805702335784 -0.007928926521 0.000653501740744)
(0.805226609479 -0.0318399476505 0.000696643325105)
(0.810543273898 -0.00623571619235 -0.000527628801898)
(0.809392382031 -0.00681279781806 -0.000269496695407)
(0.806283657018 -0.00616502385698 4.13619441572e-05)
(0.807970922174 -0.0275396806634 0.00011335966198)
(0.638880517759 0.0410356154601 0.00887339893933)
(0.639221442016 0.0397724903072 0.0136252035109)
(0.653219440793 0.0216964323518 0.0248936693605)
(0.661900097814 0.0121205550897 0.0281624782282)
(0.694930212062 0.00025551990113 0.0261719570027)
(0.720055719802 -0.00805080597879 0.0210314140761)
(0.766032170451 -0.00588868095938 0.0129402537371)
(0.745650813756 -0.0201090114826 0.0112303310642)
(0.773443561638 0.012073759549 0.00621079165849)
(0.772310180605 0.00490547670441 0.00805347110917)
(0.780764139077 -0.00435017872935 0.0122019957973)
(0.784705200858 -0.0169185366083 0.0138750901693)
(0.792708513056 -0.0233109682661 0.0125852409804)
(0.794185071612 -0.0235590882956 0.0110077678235)
(0.79746723986 -0.0167302891009 0.00886998558033)
(0.789350668711 -0.0426391670176 0.00804754027747)
(0.819664123963 0.00427296834677 0.000476616447221)
(0.819350811954 0.00233212128271 -0.000396876131017)
(0.819023067961 -0.00316178017383 -0.000885358609914)
(0.817119381411 -0.0080976008661 -0.0010750788098)
(0.814694054837 -0.0109595358238 0.000550704071858)
(0.810112279036 -0.0121145129019 0.0020031604344)
(0.80564748321 -0.00864040069814 0.00390741897583)
(0.801756747046 -0.0332292971419 0.0043266455572)
(0.814074336211 0.00343966292875 -0.000144643377509)
(0.816116800957 -0.00110780273192 -0.00084668589617)
(0.816089881964 -0.00416522797652 -0.00128108835961)
(0.814061632545 -0.00640769322319 -0.00127697261233)
(0.812082124387 -0.00809527796249 4.78237028937e-05)
(0.81007286374 -0.00891678532761 0.00120325187414)
(0.806009951671 -0.00784831163613 0.00302862739554)
(0.805789598149 -0.0331615545273 0.00339579901968)
(0.810862010324 -0.00656323931812 -0.000627936452564)
(0.809960501339 -0.00721048600598 0.000673413911688)
(0.806602960819 -0.00672761518682 0.00218062302148)
(0.808900520373 -0.0292466932215 0.00263464150137)
(0.634744909394 -0.0156427269397 0.0161487676918)
(0.628895294816 -0.0170193249512 0.0192959277703)
(0.642061403765 -0.0263063333287 0.0266272877206)
(0.651789981662 -0.0317922830797 0.0194481600201)
(0.687570854943 -0.0318611291389 0.008635641407)
(0.716763750726 -0.0271215251778 0.00228423842946)
(0.76516555413 -0.0131025160692 0.00225321756696)
(0.749414389831 -0.0273865353213 -0.00202121756948)
(0.735124923326 0.00392299705951 0.0204696141074)
(0.734138085616 -0.00345225409851 0.0206755230738)
(0.786097269931 -0.00655412820394 0.00628465507922)
(0.788926297688 -0.0173768384538 0.00204976549026)
(0.794696361928 -0.02244495882 0.00202316489449)
(0.79477206941 -0.0228609043425 0.00330883259936)
(0.797264674387 -0.0170273850195 0.00304981162691)
(0.792932256038 -0.0451896041686 0.00010041865651)
(0.819232607254 0.00329959321872 0.000122860555127)
(0.818450775549 0.00143886277488 -0.00131992313059)
(0.819110740746 -0.00465899323349 -0.00213689141353)
(0.818778177672 -0.0121749364193 -0.00516144540696)
(0.816226882126 -0.0140473740052 -0.00409287053927)
(0.812532224808 -0.0141651351142 -0.00185242625885)
(0.806594540065 -0.00994293152348 0.000900373480002)
(0.807558989438 -0.0374234494099 -0.00059424618465)
(0.810345551535 0.00757478939431 -0.000334256064802)
(0.813839396976 0.00281449238684 -0.000246038762203)
(0.815310947798 -0.00105473228815 -0.000641462583301)
(0.815811914195 -0.00413766798431 -0.00276172472842)