/*--------------------------------*- C++ -*----------------------------------*\
| =========                 |                                                 |
| \\      /  F ield         | OpenFOAM: The Open Source CFD Toolbox           |
|  \\    /   O peration     | Version:  v1906                                 |
|   \\  /    A nd           | Web:      www.OpenFOAM.com                      |
|    \\/     M anipulation  |                                                 |
\*---------------------------------------------------------------------------*/
FoamFile
{
    version     2.0;
    format      ascii;
    class       volVectorField;
    location    "4.3";
    object      force.turbine;
}
// * * * * * * * * * * * * * * * * * * * * * * * * * * * * * * * * * * * * * //

dimensions      [1 -2 -2 0 0 0 0];


internalField   nonuniform List<vector> 
28582
(
(0 0 0)
(0 0 0)
(0 0 0)
(0 0 0)
(0 0 0)
(0 0 0)
(0 0 0)
(0 0 0)
(0 0 0)
(0 0 0)
(0 0 0)
(0 0 0)
(0 0 0)
(0 0 0)
(0 0 0)
(0 0 0)
(0 0 0)
(0 0 0)
(0 0 0)
(0 0 0)
(0 0 0)
(0 0 0)
(0 0 0)
(0 0 0)
(0 0 0)
(0 0 0)
(0 0 0)
(0 0 0)
(0 0 0)
(0 0 0)
(0 0 0)
(0 0 0)
(0 0 0)
(0 0 0)
(0 0 0)
(0 0 0)
(0 0 0)
(0 0 0)
(0 0 0)
(0 0 0)
(0 0 0)
(0 0 0)
(0 0 0)
(0 0 0)
(0 0 0)
(0 0 0)
(0 0 0)
(0 0 0)
(0 0 0)
(0 0 0)
(0 0 0)
(0 0 0)
(0 0 0)
(0 0 0)
(0 0 0)
(0 0 0)
(0 0 0)
(0 0 0)
(0 0 0)
(0 0 0)
(0 0 0)
(0 0 0)
(0 0 0)
(0 0 0)
(0 0 0)
(0 0 0)
(0 0 0)
(0 0 0)
(0 0 0)
(0 0 0)
(0 0 0)
(0 0 0)
(0 0 0)
(0 0 0)
(0 0 0)
(0 0 0)
(0 0 0)
(0 0 0)
(0 0 0)
(0 0 0)
(0 0 0)
(0 0 0)
(0 0 0)
(0 0 0)
(0 0 0)
(0 0 0)
(0 0 0)
(0 0 0)
(0 0 0)
(0 0 0)
(0 0 0)
(0 0 0)
(0 0 0)
(0 0 0)
(0 0 0)
(0 0 0)
(0 0 0)
(0 0 0)
(0 0 0)
(0 0 0)
(0 0 0)
(0 0 0)
(0 0 0)
(0 0 0)
(0 0 0)
(0 0 0)
(0 0 0)
(0 0 0)
(0 0 0)
(0 0 0)
(0 0 0)
(0 0 0)
(0 0 0)
(0 0 0)
(0 0 0)
(0 0 0)
(0 0 0)
(0 0 0)
(0 0 0)
(0 0 0)
(0 0 0)
(0 0 0)
(0 0 0)
(0 0 0)
(0 0 0)
(0 0 0)
(0 0 0)
(0 0 0)
(0 0 0)
(0 0 0)
(0 0 0)
(0 0 0)
(0 0 0)
(0 0 0)
(0 0 0)
(0 0 0)
(0 0 0)
(0 0 0)
(0 0 0)
(0 0 0)
(0 0 0)
(0 0 0)
(0 0 0)
(0 0 0)
(0 0 0)
(0 0 0)
(0 0 0)
(0 0 0)
(0 0 0)
(0 0 0)
(0 0 0)
(0 0 0)
(0 0 0)
(0 0 0)
(0 0 0)
(0 0 0)
(0 0 0)
(0 0 0)
(0 0 0)
(0 0 0)
(0 0 0)
(0 0 0)
(0 0 0)
(0 0 0)
(0 0 0)
(0 0 0)
(0 0 0)
(0 0 0)
(0 0 0)
(0 0 0)
(0 0 0)
(0 0 0)
(0 0 0)
(0 0 0)
(0 0 0)
(0 0 0)
(0 0 0)
(0 0 0)
(0 0 0)
(0 0 0)
(0 0 0)
(0 0 0)
(0 0 0)
(0 0 0)
(0 0 0)
(0 0 0)
(0 0 0)
(0 0 0)
(0 0 0)
(0 0 0)
(0 0 0)
(0 0 0)
(0 0 0)
(0 0 0)
(0 0 0)
(0 0 0)
(0 0 0)
(0 0 0)
(0 0 0)
(0 0 0)
(0 0 0)
(0 0 0)
(0 0 0)
(0 0 0)
(0 0 0)
(0 0 0)
(0 0 0)
(0 0 0)
(0 0 0)
(0 0 0)
(0 0 0)
(0 0 0)
(0 0 0)
(0 0 0)
(0 0 0)
(0 0 0)
(0 0 0)
(-0.0019217216396 2.52581886878e-05 0)
(0 0 0)
(0 0 0)
(0 0 0)
(0 0 0)
(-2.5692797919e-05 3.19899655401e-08 0)
(0 0 0)
(-2.60260349208e-06 -6.45668672785e-09 0)
(0 0 0)
(0 0 0)
(0 0 0)
(0 0 0)
(0 0 0)
(0 0 0)
(0 0 0)
(0 0 0)
(0 0 0)
(0 0 0)
(0 0 0)
(0 0 0)
(-0.01609155111 0.000450043289698 0)
(0 0 0)
(0 0 0)
(0 0 0)
(-0.0300149958851 0.000539766606757 0)
(0 0 0)
(0 0 0)
(-0.0285654898954 0.000780888401925 0)
(-0.128021942012 0.00349970716676 0)
(-0.0814447752766 0.00146464021376 0)
(-1.10807435877 -0.0584933824361 0.0092378131953)
(-0.00605373535792 2.99280041347e-05 0)
(-0.0803431030264 0.00144482858711 0)
(0 0 0)
(0 0 0)
(0 0 0)
(0 0 0)
(0 0 0)
(-0.0160913658702 0.000450038108972 0)
(0 0 0)
(0 0 0)
(0 0 0)
(-0.0295033586142 0.000530565715486 0)
(0 0 0)
(0 0 0)
(0 0 0)
(0 0 0)
(0 0 0)
(0 0 0)
(0 0 0)
(0 0 0)
(-1.65751335573e-05 4.66411302243e-08 0)
(0 0 0)
(-1.05343964786e-05 2.9642968263e-08 0)
(-0.000159380151902 1.30899642254e-06 0)
(-0.000716170666634 5.88194219519e-06 0)
(-9.81987125127e-05 8.06510483537e-07 0)
(-0.000428323807114 3.51784287133e-06 0)
(0 0 0)
(0 0 0)
(-0.000194938613147 7.81261615732e-07 0)
(0 0 0)
(0 0 0)
(0 0 0)
(0 0 0)
(0 0 0)
(0 0 0)
(-0.0086759016726 0.000114031895654 0)
(-0.000411973435731 4.09110172447e-06 0)
(-0.0019794838254 2.60173871887e-05 0)
(-3.45939082593e-05 2.29861189443e-07 0)
(-0.00015672832421 1.28721684132e-06 0)
(-4.52419399441e-06 -1.12238777081e-08 0)
(-3.46711154695e-05 2.30374197139e-07 0)
(0 0 0)
(0 0 0)
(0 0 0)
(0 0 0)
(0 0 0)
(-0.000213914064297 8.57310128571e-07 0)
(0 0 0)
(0 0 0)
(0 0 0)
(0 0 0)
(0 0 0)
(0 0 0)
(0 0 0)
(0 0 0)
(0 0 0)
(0 0 0)
(0 0 0)
(0 0 0)
(0 0 0)
(0 0 0)
(0 0 0)
(0 0 0)
(0 0 0)
(0 0 0)
(0 0 0)
(0 0 0)
(-0.00521019631566 2.9028974275e-05 0)
(0 0 0)
(0 0 0)
(0 0 0)
(0 0 0)
(0 0 0)
(-0.0047946394215 2.37033798055e-05 0)
(0 0 0)
(0 0 0)
(0 0 0)
(0 0 0)
(0 0 0)
(0 0 0)
(0 0 0)
(0 0 0)
(0 0 0)
(0 0 0)
(0 0 0)
(0 0 0)
(0 0 0)
(0 0 0)
(0 0 0)
(0 0 0)
(0 0 0)
(0 0 0)
(0 0 0)
(0 0 0)
(0 0 0)
(0 0 0)
(-0.0362897250976 0.000788724044826 0)
(-0.00887764969033 0.000113904907827 0)
(-0.0145768456269 0.000187028584757 0)
(-0.0103113659259 0.000153876199549 0)
(-0.0194233014178 0.0004221477241 0)
(0 0 0)
(0 0 0)
(0 0 0)
(0 0 0)
(0 0 0)
(0 0 0)
(0 0 0)
(0 0 0)
(0 0 0)
(0 0 0)
(-0.00536181835614 2.65073566062e-05 0)
(0 0 0)
(-0.00803003256672 0.000119831931337 0)
(0 0 0)
(0 0 0)
(-0.130517072156 0.00282654301301 0)
(-0.122390801615 -0.0019412536566 0.000527432030378)
(-0.22386862067 -0.00160681336072 0.000658191284907)
(-0.0433896250335 0.000780285653291 0)
(-0.573792424714 -0.0699731517937 0.00958120927638)
(-0.0527979563392 0.00114751537992 0)
(-0.103984408118 0.00186997563951 0)
(-0.324595985244 -0.00410311283072 0.00128425116339)
(-2.58973203946 -0.358438904355 0.0482949618948)
(-0.599204171534 -0.0319832157307 0.00503103131196)
(-0.41698959013 0.00750619106884 0)
(-1.4949244066 -0.216919411079 0.0290411731655)
(-0.223523779233 0.00402363088926 0)
(-0.647074483325 -0.0176670092239 0.00367264928028)
(-0.0616496745827 0.00133511619643 0)
(-0.0090989359056 0.000135783143296 0)
(-0.0204217723916 0.000367249451907 0)
(-0.0203750986668 0.000366410107527 0)
(-0.0249390914116 0.000542028384055 0)
(-0.0249395134977 0.000542037557713 0)
(-0.04893980921 0.000880095897853 0)
(-0.130513533883 0.00282646638639 0)
(-0.10164336614 0.00220123958985 0)
(-0.196385583489 0.00353511873611 0)
(-0.0429862839625 0.000773032277609 0)
(-0.052796740211 0.00114748894848 0)
(-0.103607559224 0.00186319867877 0)
(-0.243828565097 0.00528047339451 0)
(0 0 0)
(0 0 0)
(0 0 0)
(0 0 0)
(0 0 0)
(0 0 0)
(0 0 0)
(0 0 0)
(0 0 0)
(0 0 0)
(0 0 0)
(0 0 0)
(0 0 0)
(0 0 0)
(0 0 0)
(0 0 0)
(0 0 0)
(0 0 0)
(0 0 0)
(0 0 0)
(0 0 0)
(0 0 0)
(0 0 0)
(-0.00531275903636 2.62648208099e-05 0)
(0 0 0)
(-0.00802960141893 0.000119825497332 0)
(0 0 0)
(0 0 0)
(0 0 0)
(-0.0362858193694 0.000788639157391 0)
(-0.0143459897802 0.000184066583005 0)
(-0.00871846686522 0.000111862508583 0)
(-0.0194225276105 0.000422130906103 0)
(0 0 0)
(-0.0103103654505 0.000153861269485 0)
(0 0 0)
(0 0 0)
(0 0 0)
(0 0 0)
(0 0 0)
(0 0 0)
(0 0 0)
(0 0 0)
(0 0 0)
(0 0 0)
(0 0 0)
(0 0 0)
(0 0 0)
(0 0 0)
(0 0 0)
(0 0 0)
(0 0 0)
(0 0 0)
(0 0 0)
(0 0 0)
(0 0 0)
(0 0 0)
(0 0 0)
(0 0 0)
(0 0 0)
(0 0 0)
(0 0 0)
(0 0 0)
(0 0 0)
(0 0 0)
(0 0 0)
(0 0 0)
(0 0 0)
(0 0 0)
(0 0 0)
(0 0 0)
(-0.0150364479199 0.000287369818044 0)
(0 0 0)
(0 0 0)
(0 0 0)
(0 0 0)
(0 0 0)
(0 0 0)
(0 0 0)
(-0.00335501089106 6.41194565657e-05 0)
(0 0 0)
(0 0 0)
(0 0 0)
(0 0 0)
(0 0 0)
(0 0 0)
(0 0 0)
(0 0 0)
(0 0 0)
(0 0 0)
(0 0 0)
(0 0 0)
(0 0 0)
(0 0 0)
(0 0 0)
(0 0 0)
(0 0 0)
(0 0 0)
(0 0 0)
(0 0 0)
(0 0 0)
(0 0 0)
(0 0 0)
(0 0 0)
(0 0 0)
(0 0 0)
(0 0 0)
(-0.321687186464 0.00870319721784 0)
(-0.00771964606685 0.00014753439758 0)
(0 0 0)
(0 0 0)
(0 0 0)
(0 0 0)
(0 0 0)
(0 0 0)
(-0.0706355330578 0.00192752384061 0)
(0 0 0)
(0 0 0)
(0 0 0)
(0 0 0)
(0 0 0)
(0 0 0)
(0 0 0)
(0 0 0)
(0 0 0)
(0 0 0)
(0 0 0)
(0 0 0)
(0 0 0)
(0 0 0)
(0 0 0)
(0 0 0)
(0 0 0)
(0 0 0)
(0 0 0)
(0 0 0)
(0 0 0)
(0 0 0)
(0 0 0)
(0 0 0)
(0 0 0)
(0 0 0)
(0 0 0)
(-1.51325273032 0.0531571467545 0)
(-0.0431231927577 0.0015644365814 0)
(0 0 0)
(0 0 0)
(0 0 0)
(0 0 0)
(0 0 0)
(0 0 0)
(-0.331947369719 0.0115307656757 0)
(-0.00655722490945 0.000256025064921 0)
(0 0 0)
(0 0 0)
(0 0 0)
(0 0 0)
(0 0 0)
(0 0 0)
(0 0 0)
(0 0 0)
(0 0 0)
(0 0 0)
(0 0 0)
(0 0 0)
(0 0 0)
(0 0 0)
(0 0 0)
(0 0 0)
(0 0 0)
(0 0 0)
(0 0 0)
(0 0 0)
(0 0 0)
(0 0 0)
(0 0 0)
(0 0 0)
(0 0 0)
(0 0 0)
(0 0 0)
(0 0 0)
(0 0 0)
(0 0 0)
(0 0 0)
(0 0 0)
(0 0 0)
(-2.57149462882 0.0702963729526 0)
(-0.0776424762763 0.00212249499109 0)
(0 0 0)
(0 0 0)
(0 0 0)
(0 0 0)
(0 0 0)
(0 0 0)
(-2.571367967 0.0702929104266 0)
(-0.5737480428 0.0156844217932 0)
(-0.0160913891019 0.000450038758708 0)
(0 0 0)
(0 0 0)
(0 0 0)
(0 0 0)
(0 0 0)
(0 0 0)
(-0.0470958889256 0.00128744977156 0)
(-0.0776478781756 0.0021226426616 0)
(-0.0160913027032 0.000450036342337 0)
(0 0 0)
(0 0 0)
(0 0 0)
(0 0 0)
(0 0 0)
(0 0 0)
(0 0 0)
(0 0 0)
(0 0 0)
(0 0 0)
(0 0 0)
(0 0 0)
(0 0 0)
(0 0 0)
(0 0 0)
(0 0 0)
(0 0 0)
(0 0 0)
(0 0 0)
(0 0 0)
(0 0 0)
(0 0 0)
(0 0 0)
(0 0 0)
(0 0 0)
(0 0 0)
(-0.0340268197383 0.000448388469768 0)
(-0.00102138033763 1.34245338962e-05 0)
(0 0 0)
(0 0 0)
(0 0 0)
(0 0 0)
(0 0 0)
(0 0 0)
(-0.0230073764578 0.000303179738883 0)
(-0.0360178986011 0.000474625914564 0)
(-0.00731432196396 9.61359441877e-05 0)
(-0.000171850503675 6.88730672685e-07 0)
(0 0 0)
(0 0 0)
(0 0 0)
(0 0 0)
(0 0 0)
(0 0 0)
(-0.000687366637181 6.82589359124e-06 0)
(-0.00115038430179 1.51201002056e-05 0)
(-0.000193330879113 7.74818249437e-07 0)
(0 0 0)
(0 0 0)
(0 0 0)
(0 0 0)
(0 0 0)
(0 0 0)
(0 0 0)
(0 0 0)
(0 0 0)
(0 0 0)
(0 0 0)
(0 0 0)
(0 0 0)
(0 0 0)
(0 0 0)
(0 0 0)
(0 0 0)
(0 0 0)
(0 0 0)
(0 0 0)
(0 0 0)
(0 0 0)
(0 0 0)
(0 0 0)
(0 0 0)
(0 0 0)
(-0.000195120313126 5.9543508609e-07 0)
(-0.00019371921824 5.91159462294e-07 0)
(-2.50184060083e-05 3.1150283772e-08 0)
(0 0 0)
(0 0 0)
(0 0 0)
(0 0 0)
(0 0 0)
(0 0 0)
(0 0 0)
(-2.51648430525e-05 3.1332611754e-08 0)
(-2.50432345621e-05 3.11811976718e-08 0)
(-2.54981239082e-06 -6.32571956212e-09 0)
(0 0 0)
(0 0 0)
(0 0 0)
(0 0 0)
(0 0 0)
(0 0 0)
(0 0 0)
(0 0 0)
(0 0 0)
(0 0 0)
(0 0 0)
(0 0 0)
(0 0 0)
(0 0 0)
(0 0 0)
(0 0 0)
(0 0 0)
(0 0 0)
(0 0 0)
(0 0 0)
(0 0 0)
(0 0 0)
(0 0 0)
(0 0 0)
(0 0 0)
(0 0 0)
(0 0 0)
(0 0 0)
(0 0 0)
(0 0 0)
(0 0 0)
(0 0 0)
(0 0 0)
(0 0 0)
(0 0 0)
(0 0 0)
(-0.00335505035675 6.41202108162e-05 0)
(-0.0091199111329 0.000174295632639 0)
(-0.00203490815714 3.88902478809e-05 0)
(-0.0866625930181 0.00201157166496 0)
(-0.0177632683369 0.000339483581298 0)
(-0.0525628287107 0.00122006384972 0)
(-0.0107739117037 0.000205906146347 0)
(0 0 0)
(0 0 0)
(0 0 0)
(-0.00240385803509 4.59414517198e-05 0)
(0 0 0)
(0 0 0)
(0 0 0)
(0 0 0)
(0 0 0)
(0 0 0)
(-0.017763100984 0.000339480382924 0)
(-0.00396343120468 7.57473114787e-05 0)
(-0.00396349137546 7.57484614355e-05 0)
(0 0 0)
(0 0 0)
(0 0 0)
(0 0 0)
(0 0 0)
(0 0 0)
(0 0 0)
(0 0 0)
(-0.070634712266 0.0019275014426 0)
(-0.195114070227 0.00527878107868 0)
(-0.0428421989937 0.00116909091458 0)
(-0.801550136843 0.0252384133526 0)
(-0.176731863758 0.00563645513425 0)
(-0.486158517628 0.0153076757882 0)
(-0.107189532992 0.00341856290497 0)
(0 0 0)
(-0.00468198774138 8.94800402658e-05 0)
(0 0 0)
(-0.0227735954092 0.000748319959488 0)
(0 0 0)
(-0.012179608752 0.000387127479213 0)
(0 0 0)
(-0.0149235712749 0.000395855731638 0)
(-0.0149233641708 0.000395850238091 0)
(-0.0028399399563 5.42756529233e-05 0)
(-0.176736375098 0.00563659901302 0)
(-0.0375524847261 0.0012339410332 0)
(-0.0375526100023 0.00123394514966 0)
(-0.00739013023495 0.00023489444917 0)
(0 0 0)
(0 0 0)
(0 0 0)
(-0.00335492845275 6.41178810418e-05 0)
(0 0 0)
(0 0 0)
(0 0 0)
(-0.331932446862 0.0115302473044 0)
(-0.902319934443 0.0313436426304 0)
(-0.201327586989 0.00699346173939 0)
(-2.22609093767 0.0748922166831 0)
(-0.490974949893 0.0163795809088 0)
(-1.3347061564 0.0445275822789 0)
(-0.297798122757 0.0099349436203 0)
(0 0 0)
(-0.0261586565068 0.000948991865921 0)
(0 0 0)
(-0.0664240550913 0.00221599530667 0)
(0 0 0)
(-0.0402971398988 0.00134436647635 0)
(0 0 0)
(-0.0740650717418 0.00257277829232 0)
(-0.0740654675136 0.00257279204014 0)
(-0.013987065226 0.000551970589964 0)
(-0.49100071549 0.0163804404835 0)
(-0.109554476064 0.0036548838286 0)
(-0.109554190101 0.00365487428847 0)
(-0.0244447801154 0.000815510554631 0)
(0 0 0)
(0 0 0)
(0 0 0)
(-0.0133137792892 0.000498372787226 0)
(0 0 0)
(0 0 0)
(0 0 0)
(-7.17926375526 0.202027870606 0)
(-4.26525941047 0.117379283562 0)
(-4.4107532392 0.0793975613651 0)
(-2.09140549887 0.0376471970728 0)
(-0.573752188019 0.0156845351102 0)
(-1.55965847174 0.04263603446 0)
(-0.347998033955 0.00951314434318 0)
(-2.67499162274 0.0481522769467 0)
(-0.282412880042 0.00508368814971 0)
(-1.26915235535 0.0228458942386 0)
(-0.133931401197 0.00241088677344 0)
(0 0 0)
(-0.0470952423023 0.00128743209496 0)
(0 0 0)
(-0.102362178839 0.00184080271554 0)
(0 0 0)
(-0.0485101913576 0.000872369980739 0)
(0 0 0)
(0 0 0)
(0 0 0)
(0 0 0)
(0 0 0)
(0 0 0)
(0 0 0)
(0 0 0)
(0 0 0)
(0 0 0)
(0 0 0)
(0 0 0)
(0 0 0)
(0 0 0)
(0 0 0)
(0 0 0)
(0 0 0)
(0 0 0)
(0 0 0)
(0 0 0)
(0 0 0)
(0 0 0)
(0 0 0)
(0 0 0)
(0 0 0)
(0 0 0)
(0 0 0)
(0 0 0)
(0 0 0)
(0 0 0)
(0 0 0)
(0 0 0)
(0 0 0)
(0 0 0)
(0 0 0)
(0 0 0)
(0 0 0)
(0 0 0)
(0 0 0)
(0 0 0)
(0 0 0)
(0 0 0)
(0 0 0)
(-0.347999911574 0.00951319567123 0)
(-0.573754246786 0.0156845913902 0)
(-1.61265749148 -0.0493017293307 0.00922501178709)
(-2.69427491789 0.0484993937603 0)
(-0.134685996197 0.00242447016827 0)
(-0.283671822874 0.00510635026327 0)
(-1.55961134279 0.0426347461063 0)
(-0.573751242785 0.0156845092705 0)
(-0.347996871187 0.00951311255684 0)
(-2.6857611293 0.0483461378389 0)
(-1.26754669851 0.0228169909582 0)
(-0.28334626363 0.0051004899014 0)
(-0.133264287237 0.00239887811669 0)
(-0.128020343219 0.00349966346091 0)
(-0.128020193777 0.00349965937567 0)
(-0.028565135462 0.000780878712858 0)
(-0.770061536473 0.0138618065399 0)
(-0.0801107789805 0.00144065065011 0)
(-0.0796203158061 0.00143183053751 0)
(-0.00598580079272 2.95921543117e-05 0)
(0 0 0)
(0 0 0)
(0 0 0)
(-0.0294713038775 0.000529989267749 0)
(0 0 0)
(0 0 0)
(0 0 0)
(0 0 0)
(0 0 0)
(0 0 0)
(0 0 0)
(0 0 0)
(0 0 0)
(0 0 0)
(0 0 0)
(0 0 0)
(0 0 0)
(0 0 0)
(0 0 0)
(0 0 0)
(0 0 0)
(0 0 0)
(0 0 0)
(0 0 0)
(0 0 0)
(0 0 0)
(0 0 0)
(0 0 0)
(0 0 0)
(0 0 0)
(0 0 0)
(0 0 0)
(0 0 0)
(0 0 0)
(0 0 0)
(0 0 0)
(0 0 0)
(0 0 0)
(0 0 0)
(0 0 0)
(0 0 0)
(0 0 0)
(0 0 0)
(0 0 0)
(0 0 0)
(0 0 0)
(0 0 0)
(0 0 0)
(0 0 0)
(-0.0776478012035 0.00212264055743 0)
(0 0 0)
(0 0 0)
(-0.0487128959802 0.000876015264808 0)
(-0.10275435422 0.00184785529603 0)
(0 0 0)
(0 0 0)
(-0.0470956562711 0.00128744341154 0)
(0 0 0)
(0 0 0)
(-0.102635049327 0.00184570980858 0)
(-0.0482468836376 0.000867634857168 0)
(0 0 0)
(0 0 0)
(0 0 0)
(0 0 0)
(0 0 0)
(-0.0292619471044 0.00052622435652 0)
(0 0 0)
(0 0 0)
(0 0 0)
(0 0 0)
(0 0 0)
(0 0 0)
(0 0 0)
(0 0 0)
(0 0 0)
(0 0 0)
(0 0 0)
(0 0 0)
(0 0 0)
(0 0 0)
(0 0 0)
(0 0 0)
(0 0 0)
(0 0 0)
(0 0 0)
(0 0 0)
(0 0 0)
(0 0 0)
(0 0 0)
(0 0 0)
(0 0 0)
(0 0 0)
(0 0 0)
(0 0 0)
(0 0 0)
(0 0 0)
(0 0 0)
(0 0 0)
(0 0 0)
(0 0 0)
(0 0 0)
(0 0 0)
(0 0 0)
(0 0 0)
(0 0 0)
(0 0 0)
(0 0 0)
(0 0 0)
(0 0 0)
(0 0 0)
(0 0 0)
(0 0 0)
(0 0 0)
(0 0 0)
(0 0 0)
(0 0 0)
(0 0 0)
(0 0 0)
(0 0 0)
(0 0 0)
(0 0 0)
(0 0 0)
(0 0 0)
(0 0 0)
(0 0 0)
(0 0 0)
(0 0 0)
(0 0 0)
(0 0 0)
(0 0 0)
(0 0 0)
(0 0 0)
(0 0 0)
(0 0 0)
(0 0 0)
(0 0 0)
(0 0 0)
(0 0 0)
(0 0 0)
(0 0 0)
(0 0 0)
(0 0 0)
(0 0 0)
(0 0 0)
(0 0 0)
(0 0 0)
(0 0 0)
(0 0 0)
(0 0 0)
(0 0 0)
(0 0 0)
(0 0 0)
(0 0 0)
(0 0 0)
(0 0 0)
(0 0 0)
(0 0 0)
(0 0 0)
(0 0 0)
(0 0 0)
(0 0 0)
(0 0 0)
(0 0 0)
(0 0 0)
(0 0 0)
(0 0 0)
(0 0 0)
(0 0 0)
(0 0 0)
(0 0 0)
(0 0 0)
(0 0 0)
(0 0 0)
(0 0 0)
(0 0 0)
(0 0 0)
(0 0 0)
(0 0 0)
(0 0 0)
(0 0 0)
(0 0 0)
(0 0 0)
(0 0 0)
(0 0 0)
(0 0 0)
(0 0 0)
(0 0 0)
(0 0 0)
(0 0 0)
(0 0 0)
(0 0 0)
(0 0 0)
(0 0 0)
(0 0 0)
(0 0 0)
(0 0 0)
(0 0 0)
(0 0 0)
(0 0 0)
(0 0 0)
(0 0 0)
(0 0 0)
(0 0 0)
(0 0 0)
(0 0 0)
(0 0 0)
(0 0 0)
(0 0 0)
(0 0 0)
(0 0 0)
(0 0 0)
(0 0 0)
(0 0 0)
(0 0 0)
(0 0 0)
(0 0 0)
(0 0 0)
(0 0 0)
(0 0 0)
(0 0 0)
(0 0 0)
(0 0 0)
(0 0 0)
(0 0 0)
(0 0 0)
(0 0 0)
(0 0 0)
(0 0 0)
(0 0 0)
(0 0 0)
(0 0 0)
(0 0 0)
(0 0 0)
(0 0 0)
(0 0 0)
(0 0 0)
(0 0 0)
(0 0 0)
(0 0 0)
(-0.00182403257055 1.50078651169e-05 0)
(-0.00265373134762 2.18345016227e-05 0)
(-0.00106913715446 8.78087198242e-06 0)
(-0.00157455384802 1.29551917832e-05 0)
(-0.0906519110054 0.00119456569758 0)
(-0.0548580753284 0.000722892372549 0)
(-0.00248248023807 2.04254733001e-05 0)
(-0.00150048546655 1.23457683023e-05 0)
(-0.00150429808775 1.23771379749e-05 0)
(-0.000908878315722 7.464658865e-06 0)
(-0.00759453726797 9.98189599149e-05 0)
(-0.0200952205794 0.000264804800289 0)
(-0.0044570455514 5.85812717137e-05 0)
(-0.000551231350886 4.52728810764e-06 0)
(-0.000123012667871 1.01030862531e-06 0)
(-0.000334352302699 2.74605063978e-06 0)
(-7.46407375542e-05 6.13027765804e-07 0)
(0 0 0)
(-0.000570690848497 5.66724480738e-06 0)
(0 0 0)
(-1.45988773801e-05 4.10800998171e-08 0)
(0 0 0)
(-8.86429442433e-06 2.49434316269e-08 0)
(0 0 0)
(0 0 0)
(0 0 0)
(0 0 0)
(0 0 0)
(0 0 0)
(0 0 0)
(0 0 0)
(0 0 0)
(0 0 0)
(0 0 0)
(0 0 0)
(0 0 0)
(0 0 0)
(0 0 0)
(0 0 0)
(0 0 0)
(0 0 0)
(0 0 0)
(0 0 0)
(0 0 0)
(0 0 0)
(0 0 0)
(0 0 0)
(0 0 0)
(0 0 0)
(0 0 0)
(0 0 0)
(0 0 0)
(0 0 0)
(0 0 0)
(0 0 0)
(0 0 0)
(0 0 0)
(0 0 0)
(0 0 0)
(0 0 0)
(0 0 0)
(0 0 0)
(0 0 0)
(0 0 0)
(0 0 0)
(0 0 0)
(-0.0369493479524 0.000486900089832 0)
(-0.00530397349656 6.97128869294e-05 0)
(-0.00855740412355 0.000112474420632 0)
(-0.000392754775544 3.2257128004e-06 0)
(-0.000597928352843 4.91081270449e-06 0)
(-9.10057870512e-05 7.47434660204e-07 0)
(-0.000139671867542 1.14713138844e-06 0)
(-0.0211053535586 0.000278115829185 0)
(-0.00835295982187 0.000109787302664 0)
(-0.00490901818242 6.45217834718e-05 0)
(-0.00057816780562 4.74851843313e-06 0)
(-0.000338735649725 2.78205126789e-06 0)
(-0.000134847108664 1.10750542476e-06 0)
(-7.90050111221e-05 6.4887174273e-07 0)
(-0.00158932247047 2.08892932346e-05 0)
(-0.00172624732271 2.26889679027e-05 0)
(-0.000348306636199 3.45885864575e-06 0)
(-0.000123057069542 1.01067329825e-06 0)
(-2.67711687691e-05 1.77882552324e-07 0)
(-2.74444608147e-05 1.82356279585e-07 0)
(-3.50908250261e-06 -8.7055313998e-09 0)
(0 0 0)
(0 0 0)
(0 0 0)
(0 0 0)
(0 0 0)
(0 0 0)
(0 0 0)
(0 0 0)
(0 0 0)
(0 0 0)
(0 0 0)
(0 0 0)
(0 0 0)
(0 0 0)
(0 0 0)
(0 0 0)
(0 0 0)
(0 0 0)
(0 0 0)
(0 0 0)
(0 0 0)
(0 0 0)
(0 0 0)
(0 0 0)
(0 0 0)
(0 0 0)
(0 0 0)
(0 0 0)
(0 0 0)
(0 0 0)
(0 0 0)
(0 0 0)
(0 0 0)
(0 0 0)
(0 0 0)
(0 0 0)
(0 0 0)
(0 0 0)
(0 0 0)
(0 0 0)
(0 0 0)
(0 0 0)
(0 0 0)
(0 0 0)
(0 0 0)
(0 0 0)
(0 0 0)
(0 0 0)
(0 0 0)
(-0.00117378265849 1.54276369978e-05 0)
(0 0 0)
(0 0 0)
(-1.12159999812e-05 3.15609472413e-08 0)
(-1.73773458728e-05 4.88984929749e-08 0)
(0 0 0)
(0 0 0)
(-0.000643946959853 6.39471453602e-06 0)
(0 0 0)
(0 0 0)
(-1.64897040204e-05 4.64007381851e-08 0)
(-9.66362808319e-06 2.71926940625e-08 0)
(0 0 0)
(0 0 0)
(0 0 0)
(0 0 0)
(0 0 0)
(0 0 0)
(0 0 0)
(0 0 0)
(0 0 0)
(0 0 0)
(0 0 0)
(0 0 0)
(0 0 0)
(0 0 0)
(0 0 0)
(0 0 0)
(0 0 0)
(0 0 0)
(0 0 0)
(0 0 0)
(0 0 0)
(0 0 0)
(0 0 0)
(0 0 0)
(0 0 0)
(0 0 0)
(0 0 0)
(0 0 0)
(0 0 0)
(0 0 0)
(0 0 0)
(0 0 0)
(0 0 0)
(0 0 0)
(0 0 0)
(0 0 0)
(0 0 0)
(0 0 0)
(0 0 0)
(0 0 0)
(0 0 0)
(0 0 0)
(0 0 0)
(0 0 0)
(0 0 0)
(0 0 0)
(0 0 0)
(0 0 0)
(0 0 0)
(0 0 0)
(0 0 0)
(0 0 0)
(0 0 0)
(0 0 0)
(0 0 0)
(0 0 0)
(0 0 0)
(0 0 0)
(0 0 0)
(0 0 0)
(0 0 0)
(0 0 0)
(0 0 0)
(0 0 0)
(0 0 0)
(0 0 0)
(0 0 0)
(0 0 0)
(0 0 0)
(0 0 0)
(0 0 0)
(0 0 0)
(0 0 0)
(0 0 0)
(0 0 0)
(0 0 0)
(0 0 0)
(0 0 0)
(0 0 0)
(0 0 0)
(0 0 0)
(0 0 0)
(0 0 0)
(0 0 0)
(0 0 0)
(0 0 0)
(0 0 0)
(0 0 0)
(0 0 0)
(0 0 0)
(0 0 0)
(0 0 0)
(0 0 0)
(0 0 0)
(0 0 0)
(0 0 0)
(0 0 0)
(0 0 0)
(0 0 0)
(0 0 0)
(0 0 0)
(0 0 0)
(0 0 0)
(0 0 0)
(0 0 0)
(0 0 0)
(0 0 0)
(0 0 0)
(0 0 0)
(0 0 0)
(0 0 0)
(0 0 0)
(0 0 0)
(0 0 0)
(0 0 0)
(0 0 0)
(0 0 0)
(0 0 0)
(0 0 0)
(0 0 0)
(0 0 0)
(0 0 0)
(0 0 0)
(0 0 0)
(0 0 0)
(0 0 0)
(0 0 0)
(0 0 0)
(0 0 0)
(0 0 0)
(0 0 0)
(0 0 0)
(0 0 0)
(0 0 0)
(0 0 0)
(0 0 0)
(0 0 0)
(0 0 0)
(0 0 0)
(0 0 0)
(0 0 0)
(0 0 0)
(0 0 0)
(0 0 0)
(0 0 0)
(0 0 0)
(0 0 0)
(0 0 0)
(0 0 0)
(0 0 0)
(0 0 0)
(0 0 0)
(0 0 0)
(0 0 0)
(0 0 0)
(0 0 0)
(0 0 0)
(0 0 0)
(0 0 0)
(0 0 0)
(0 0 0)
(0 0 0)
(0 0 0)
(0 0 0)
(0 0 0)
(0 0 0)
(0 0 0)
(0 0 0)
(0 0 0)
(0 0 0)
(0 0 0)
(0 0 0)
(0 0 0)
(0 0 0)
(0 0 0)
(0 0 0)
(0 0 0)
(0 0 0)
(0 0 0)
(0 0 0)
(0 0 0)
(0 0 0)
(0 0 0)
(0 0 0)
(-7.14304340116 0.155291162809 0)
(-5.55025168254 0.120199027258 0)
(-6.41789379949 0.115527913067 0)
(-3.89965239001 0.0701972822207 0)
(-4.89802267755 0.106074029613 0)
(-5.67432860443 0.10214306472 0)
(-8.10285897946 0.17646526861 0)
(-5.55016048374 0.120197052211 0)
(-2.62154395382 0.0567734674366 0)
(-3.04081087367 0.0547373554693 0)
(-3.0385455184 0.0546965770185 0)
(-3.81461737468 0.08261126234 0)
(-3.81435967057 0.0826056813708 0)
(-4.42182359084 0.0795968377416 0)
(-1.59012227844 0.0344364836088 0)
(-3.36634004385 0.0729031441879 0)
(-1.43213152202 0.0257796671533 0)
(-2.36491745773 0.042570660563 0)
(-2.97077103512 0.0643365038294 0)
(-1.26589281174 0.0227872194954 0)
(-1.80184014314 0.0390215516104 0)
(-0.751124252397 0.0162667226015 0)
(-0.3547978975 0.00768368077559 0)
(-0.67685846863 0.0121840667306 0)
(-0.249475223305 0.00449078043527 0)
(-0.313114856036 0.00678097197539 0)
(-0.598099278827 0.0107663298348 0)
(-0.851119547121 0.0184322707322 0)
(-1.23841006137 0.0268196278723 0)
(-1.59004110962 0.0344347257761 0)
(-1.84464333542 0.0332052541772 0)
(-0.679590901616 0.0122332530042 0)
(-2.31366545002 0.0501058965252 0)
(-0.851098265995 0.0184318098575 0)
(-0.987529733804 0.0177764314591 0)
(-0.58498528483 0.0126687339996 0)
(-0.167600158983 0.00362963289422 0)
(-0.194638563616 0.00350367079286 0)
(-0.32115582301 0.00578109628499 0)
(-0.24385782281 0.00528110701418 0)
(-0.402046479353 0.00870691970291 0)
(-0.466618747615 0.00839956094541 0)
(-0.0362895792062 0.00078872087401 0)
(-0.130521466939 0.00282663818863 0)
(-0.0332608803391 0.00059813809694 0)
(-0.0903931506497 0.00162556091585 0)
(-0.115188527 0.00249458037016 0)
(-0.0293613890254 0.000528012643565 0)
(-0.041119688994 0.000893698900671 0)
(-0.00909949646764 0.000135791508546 0)
(0 0 0)
(-0.00866848091408 0.000111221162578 0)
(0 0 0)
(0 0 0)
(-0.00597214434871 2.95246406051e-05 0)
(-0.0103106858415 0.00015386605067 0)
(-0.0282630792539 0.000614272225222 0)
(-0.0616563945196 0.00133526172675 0)
(-0.0705151768234 0.0012680907192 0)
(-0.0143204971222 0.000183739498814 0)
(-0.0897105289499 0.00194281609761 0)
(-0.0194245901423 0.00042217573335 0)
(-0.0228997325383 0.000411811181822 0)
(-0.00521034549955 2.90298054635e-05 0)
(0 0 0)
(0 0 0)
(0 0 0)
(0 0 0)
(0 0 0)
(-0.00465661112416 2.30210058316e-05 0)
(0 0 0)
(0 0 0)
(0 0 0)
(0 0 0)
(0 0 0)
(0 0 0)
(0 0 0)
(0 0 0)
(0 0 0)
(0 0 0)
(0 0 0)
(0 0 0)
(0 0 0)
(0 0 0)
(0 0 0)
(0 0 0)
(0 0 0)
(0 0 0)
(0 0 0)
(0 0 0)
(0 0 0)
(0 0 0)
(0 0 0)
(0 0 0)
(0 0 0)
(0 0 0)
(0 0 0)
(0 0 0)
(0 0 0)
(0 0 0)
(0 0 0)
(0 0 0)
(0 0 0)
(0 0 0)
(0 0 0)
(0 0 0)
(0 0 0)
(0 0 0)
(0 0 0)
(0 0 0)
(0 0 0)
(0 0 0)
(0 0 0)
(0 0 0)
(0 0 0)
(0 0 0)
(0 0 0)
(0 0 0)
(0 0 0)
(0 0 0)
(0 0 0)
(0 0 0)
(0 0 0)
(0 0 0)
(0 0 0)
(0 0 0)
(0 0 0)
(0 0 0)
(0 0 0)
(0 0 0)
(0 0 0)
(0 0 0)
(0 0 0)
(0 0 0)
(0 0 0)
(0 0 0)
(0 0 0)
(0 0 0)
(0 0 0)
(0 0 0)
(0 0 0)
(0 0 0)
(0 0 0)
(0 0 0)
(0 0 0)
(0 0 0)
(0 0 0)
(0 0 0)
(0 0 0)
(0 0 0)
(0 0 0)
(0 0 0)
(0 0 0)
(0 0 0)
(0 0 0)
(0 0 0)
(0 0 0)
(0 0 0)
(0 0 0)
(0 0 0)
(0 0 0)
(0 0 0)
(0 0 0)
(0 0 0)
(0 0 0)
(0 0 0)
(0 0 0)
(0 0 0)
(0 0 0)
(0 0 0)
(0 0 0)
(0 0 0)
(0 0 0)
(0 0 0)
(0 0 0)
(0 0 0)
(0 0 0)
(0 0 0)
(0 0 0)
(0 0 0)
(0 0 0)
(0 0 0)
(0 0 0)
(0 0 0)
(0 0 0)
(0 0 0)
(0 0 0)
(0 0 0)
(0 0 0)
(0 0 0)
(0 0 0)
(0 0 0)
(0 0 0)
(0 0 0)
(0 0 0)
(0 0 0)
(0 0 0)
(0 0 0)
(0 0 0)
(0 0 0)
(0 0 0)
(0 0 0)
(0 0 0)
(0 0 0)
(0 0 0)
(0 0 0)
(0 0 0)
(0 0 0)
(0 0 0)
(0 0 0)
(0 0 0)
(0 0 0)
(0 0 0)
(0 0 0)
(0 0 0)
(0 0 0)
(0 0 0)
(0 0 0)
(0 0 0)
(0 0 0)
(0 0 0)
(0 0 0)
(0 0 0)
(0 0 0)
(0 0 0)
(0 0 0)
(0 0 0)
(0 0 0)
(0 0 0)
(0 0 0)
(0 0 0)
(0 0 0)
(0 0 0)
(0 0 0)
(0 0 0)
(0 0 0)
(0 0 0)
(0 0 0)
(-1.28658837381 0.0167304332686 0.00128423297805)
(-3.21536323374 -0.344890649796 0.0482950466644)
(-2.0474386952 -0.00573449963325 0.00500995407053)
(-0.686314678412 0.0123542870888 0)
(-3.29222252562 -0.177995704046 0.0290411126156)
(-0.997186871058 0.0179502686941 0)
(-0.981931553383 -0.0104146741436 0.00367259098691)
(-1.59002423578 0.0344343603477 0)
(-3.38687578965 0.0687561078445 0.000527427279553)
(-2.41266903013 0.037850240411 0.000651575111924)
(-1.44281127783 0.0259719124506 0)
(-3.30057379534 -0.010920736177 0.00958122392376)
(-1.80169927313 0.039018500859 0)
(-1.27776776174 0.0230009793728 0)
(-0.584901844233 0.0126669269683 0)
(-0.16758176654 0.00362923457827 0)
(-0.323072720676 0.0058156021827 0)
(-0.195792475305 0.00352444225052 0)
(-0.243829582585 0.00528049542974 0)
(-0.469826021726 0.00845729479023 0)
(-0.401995381275 0.00870581309738 0)
(-0.751023909364 0.0162645495225 0)
(-0.354762655523 0.0076829175577 0)
(-0.68140014754 0.0122658210728 0)
(-0.250723955031 0.00451325873965 0)
(-0.851003591473 0.0184297595387 0)
(-0.31308110805 0.00678024111212 0)
(-0.602736129915 0.0108497973626 0)
(-1.58994966382 0.0344327453802 0)
(-3.3660497819 0.0728968581298 0)
(-2.36421470281 0.0425580103367 0)
(-1.43662532946 0.0258605597657 0)
(-2.970463124 0.0643298355523 0)
(-1.80165046443 0.0390174438332 0)
(-1.26642457052 0.022796791636 0)
(-1.23822226837 0.0268155609332 0)
(-1.58993684523 0.0344324677744 0)
(-1.84231984177 0.0331634291827 0)
(-0.678121879648 0.0122068092755 0)
(-2.31337484653 0.0500996030705 0)
(-0.851004790624 0.0184297855081 0)
(-0.986632243535 0.0177602758197 0)
(-0.750991370751 0.0162638448501 0)
(-0.35475721271 0.00768279968541 0)
(-0.678911106913 0.0122210160826 0)
(-0.249606927098 0.00449315122308 0)
(-0.850991120385 0.0184294894586 0)
(-0.313071974874 0.00678004331948 0)
(-0.598194606924 0.010768045827 0)
(-0.584876389522 0.0126663757083 0)
(-0.167570691992 0.00362899474231 0)
(-0.319972641175 0.00575979793814 0)
(-0.194057313584 0.00349320776477 0)
(-0.40197347152 0.00870533860875 0)
(-0.243816151251 0.00528020455404 0)
(-0.465743855027 0.0083838120848 0)
(-0.276285608702 0.00598337936925 0)
(-0.964329873321 0.0208840101961 0)
(-0.412870815581 0.00743204938889 0)
(-0.41183101522 0.0074133320387 0)
(-0.516172548073 0.011178490945 0)
(-0.51615810906 0.0111781782465 0)
(-0.220838151004 0.00397528714375 0)
(-0.130512457214 0.00282644306953 0)
(-0.101652578014 0.0022014390868 0)
(-0.195186133422 0.00351352754632 0)
(-0.0429356081959 0.000772120963588 0)
(-0.243834730729 0.00528060692051 0)
(-0.0527984575969 0.0011475262743 0)
(-0.102800137884 0.00184867863424 0)
(-0.130506190768 0.00282630736023 0)
(-0.101636948379 0.00220110060361 0)
(-0.194243013783 0.00349655053689 0)
(-0.0426682677826 0.00076731331916 0)
(-0.243807474326 0.00528001664222 0)
(-0.0527927304306 0.00114740179957 0)
(-0.102500274705 0.00184328612541 0)
(-0.0616491269972 0.00133510433765 0)
(-0.00909869751158 0.000135779585749 0)
(-0.0202647357373 0.000364425425463 0)
(-0.0201977345564 0.000363220527746 0)
(-0.0249393427176 0.000542033845961 0)
(-0.0249380084531 0.000542004846941 0)
(-0.0485151084902 0.000872458406671 0)
(0 0 0)
(-0.0362903572217 0.000788737783467 0)
(-0.00869843386744 0.000111605474701 0)
(-0.0143658611017 0.000184321542495 0)
(-0.0103116024271 0.000153879728849 0)
(-0.0194245290453 0.000422174405463 0)
(0 0 0)
(0 0 0)
(0 0 0)
(0 0 0)
(0 0 0)
(0 0 0)
(0 0 0)
(0 0 0)
(0 0 0)
(0 0 0)
(-0.00529773801355 2.61905610007e-05 0)
(0 0 0)
(-0.00803000863813 0.000119831574251 0)
(0 0 0)
(0 0 0)
(0 0 0)
(0 0 0)
(0 0 0)
(0 0 0)
(0 0 0)
(0 0 0)
(0 0 0)
(0 0 0)
(0 0 0)
(0 0 0)
(0 0 0)
(0 0 0)
(0 0 0)
(0 0 0)
(0 0 0)
(0 0 0)
(0 0 0)
(0 0 0)
(0 0 0)
(0 0 0)
(0 0 0)
(0 0 0)
(0 0 0)
(0 0 0)
(0 0 0)
(0 0 0)
(0 0 0)
(0 0 0)
(0 0 0)
(0 0 0)
(0 0 0)
(0 0 0)
(0 0 0)
(0 0 0)
(0 0 0)
(0 0 0)
(0 0 0)
(0 0 0)
(0 0 0)
(0 0 0)
(0 0 0)
(0 0 0)
(0 0 0)
(0 0 0)
(0 0 0)
(0 0 0)
(0 0 0)
(0 0 0)
(0 0 0)
(0 0 0)
(0 0 0)
(0 0 0)
(0 0 0)
(0 0 0)
(0 0 0)
(0 0 0)
(0 0 0)
(0 0 0)
(0 0 0)
(0 0 0)
(0 0 0)
(0 0 0)
(0 0 0)
(0 0 0)
(0 0 0)
(0 0 0)
(0 0 0)
(0 0 0)
(0 0 0)
(0 0 0)
(0 0 0)
(0 0 0)
(0 0 0)
(0 0 0)
(0 0 0)
(0 0 0)
(0 0 0)
(0 0 0)
(0 0 0)
(0 0 0)
(0 0 0)
(0 0 0)
(0 0 0)
(0 0 0)
(0 0 0)
(0 0 0)
(0 0 0)
(0 0 0)
(0 0 0)
(0 0 0)
(0 0 0)
(0 0 0)
(0 0 0)
(0 0 0)
(0 0 0)
(0 0 0)
(0 0 0)
(0 0 0)
(0 0 0)
(0 0 0)
(0 0 0)
(0 0 0)
(0 0 0)
(0 0 0)
(0 0 0)
(0 0 0)
(0 0 0)
(0 0 0)
(0 0 0)
(0 0 0)
(0 0 0)
(0 0 0)
(0 0 0)
(0 0 0)
(0 0 0)
(0 0 0)
(0 0 0)
(0 0 0)
(0 0 0)
(0 0 0)
(0 0 0)
(0 0 0)
(0 0 0)
(0 0 0)
(0 0 0)
(0 0 0)
(0 0 0)
(0 0 0)
(0 0 0)
(0 0 0)
(0 0 0)
(0 0 0)
(0 0 0)
(0 0 0)
(0 0 0)
(0 0 0)
(0 0 0)
(0 0 0)
(0 0 0)
(0 0 0)
(0 0 0)
(0 0 0)
(0 0 0)
(0 0 0)
(0 0 0)
(0 0 0)
(0 0 0)
(0 0 0)
(0 0 0)
(0 0 0)
(0 0 0)
(0 0 0)
(0 0 0)
(0 0 0)
(0 0 0)
(0 0 0)
(0 0 0)
(0 0 0)
(0 0 0)
(0 0 0)
(0 0 0)
(0 0 0)
(0 0 0)
(0 0 0)
(0 0 0)
(0 0 0)
(0 0 0)
(0 0 0)
(0 0 0)
(0 0 0)
(0 0 0)
(0 0 0)
(0 0 0)
(0 0 0)
(0 0 0)
(-0.0282592333688 0.000614188638421 0)
(-0.0616478376292 0.00133507641445 0)
(-0.0708487190188 0.00127408888558 0)
(-0.0143489584017 0.000184104671977 0)
(-0.0896966978986 0.00194251656544 0)
(-0.0229666960696 0.00041301540248 0)
(-0.0194222292434 0.000422124421368 0)
(-0.036285412621 0.000788630317086 0)
(-0.130507522691 0.00282633620503 0)
(-0.0907979982979 0.00163284138466 0)
(-0.0334245161736 0.000601080797963 0)
(-0.11517275605 0.00249423882659 0)
(-0.0411164349445 0.000893628176877 0)
(-0.0295123770554 0.000530727896198 0)
(-0.00520972715156 2.90263602943e-05 0)
(0 0 0)
(0 0 0)
(0 0 0)
(0 0 0)
(-0.0046755877618 2.31148211136e-05 0)
(0 0 0)
(-0.00909866865484 0.000135779155121 0)
(0 0 0)
(-0.00871868921197 0.000111865361408 0)
(0 0 0)
(-0.0103102116062 0.000153858973671 0)
(0 0 0)
(-0.0060069632186 2.96967755302e-05 0)
(-0.0362840275114 0.000788600212992 0)
(-0.13050555519 0.00282629359583 0)
(-0.0904333050094 0.00162628302098 0)
(-0.0333608276443 0.000599935472425 0)
(-0.115167215324 0.00249411883384 0)
(-0.0411151152852 0.000893599495285 0)
(-0.0293637157915 0.000528054486338 0)
(-0.0282577675716 0.000614156780658 0)
(-0.0616445990269 0.00133500627765 0)
(-0.0702872047045 0.00126399104391 0)
(-0.0142462750372 0.000182787190484 0)
(-0.0896913805972 0.0019424014113 0)
(-0.0194209472002 0.000422096557329 0)
(-0.0228283742263 0.000410527928808 0)