/*--------------------------------*- C++ -*----------------------------------*\
| =========                 |                                                 |
| \\      /  F ield         | OpenFOAM: The Open Source CFD Toolbox           |
|  \\    /   O peration     | Version:  v1906                                 |
|   \\  /    A nd           | Web:      www.OpenFOAM.com                      |
|    \\/     M anipulation  |                                                 |
\*---------------------------------------------------------------------------*/
FoamFile
{
    version     2.0;
    format      ascii;
    class       volScalarField;
    location    "11.95";
    object      alpha.water;
}
// * * * * * * * * * * * * * * * * * * * * * * * * * * * * * * * * * * * * * //

dimensions      [0 0 0 0 0 0 0];


internalField   nonuniform List<scalar> 
28582
(
0.999997311319
0.999999175112
0.999997788517
0.999998729071
1.0000010286
1.0000006226
0.999990933438
0.999986798079
0.0593953213016
0.0602995699261
-1.33700221015e-27
0.99999001252
0.851592771586
0.853110695784
0.999984994939
0.999994322241
0.854266918487
0.997607639348
0.997863376227
0.99999794221
0.99999878051
0.9999961609
0.999998464004
0.999998472893
0.999996516976
1.00000120307
1.00000001524
0.999988031759
0.999984429573
0.0611855791083
1.91228748794e-07
-2.65846210172e-27
0.999986688705
0.999989815586
0.861092459831
0.855635914051
0.998368130152
0.999983320793
0.999991892953
0.999986139229
0.997618363429
0.85369108915
0.99785752364
0.998003920045
0.0593050209265
0.05935751666
0.000173030558193
0.000347223669969
0.0596486929991
0.000313096335671
0.998229969983
0.998218127199
0.850856049117
0.852916700122
0.99823656655
0.852074356975
0.9981776014
0.998176344915
0.998007936945
0.851808128497
0.854325377992
0.998105119615
0.853099021533
0.998102483857
0.997807183548
0.997868619373
0.855097891819
0.855421206779
0.998000368239
0.856141527262
0.997655595919
0.997492699163
0.856512587908
0.857082224771
0.997641083924
0.855618067548
0.856452743846
0.997505576427
0.998033636342
0.859099508642
0.859579288869
0.99795855379
0.858902299825
0.998143205208
0.858145865297
0.0597670752424
0.00059145467109
0.0584700477191
0.0594170869186
0.000460702279962
0.000536728610379
0.060498754679
0.000184932638703
0.000307956175279
0.0617570893201
0.000231145978873
0.062018219493
0.000286968887831
0.998357576634
0.998266281941
0.859228034519
0.86090203664
0.99831872038
0.998312105112
0.858288489715
0.998354575673
0.998260775844
0.857347702619
0.853789130047
0.998313778176
0.998297337262
0.855991940732
0.853924451343
0.851971445631
0.998334379035
0.998371131932
0.852520277735
0.998318926045
0.854714464227
0.997504196543
0.856202444645
0.856997185133
0.997665081129
0.855411302892
0.99753912675
0.856776412167
0.997759399477
0.997680589907
0.854568155836
0.85582332093
0.99760072429
0.997884433059
0.856460380208
0.99800548977
0.998010219512
0.859047894469
0.860079453452
0.860171498693
0.997868717671
0.858845951872
0.8598067162
0.859198657951
0.998012324197
0.997912954777
0.857332725608
0.998013631418
0.858352446402
0.999999666805
0.999982941438
0.063012987595
-1.9551650346e-27
0.999987160451
0.850778087237
0.999980854881
0.999977095566
0.852757160998
0.858311120664
0.850579074023
0.999978444604
0.999982055426
0.848721145178
0.845453216444
0.0602875355171
0.0630021133475
0.0643197968287
0.000264350844245
0.000256917442548
0.000257702144167
0.0651867626075
0.0657562636494
0.998041424672
0.998234711704
0.851218723547
0.849699499001
0.998196908365
0.849637120984
0.998110021856
0.998094171862
0.99776222255
0.85189729165
0.854612705197
0.997792120585
0.998006870472
0.853129758266
0.998023629321
0.998043234871
0.855519211151
0.856104144373
0.998037664176
0.853444641205
0.998027426434
0.997986502377
0.997903332262
0.85034147996
0.853397123199
0.99794042577
0.851672995668
0.997970171316
0.997882800572
0.997860248851
0.848797896429
0.847267947055
0.997892162337
0.84734140921
0.99781088735
0.99790931645
0.997780759447
0.845381856159
0.846082830549
0.997964172103
0.846313891377
0.997784387605
1.00000355836
1.00000087102
1.00000125663
0.999998501577
0.0524722071247
0.055850902552
0.0508184060089
0.0528936511298
0.0517080227697
2.5696862216e-07
1.99183974703e-06
-2.62087645852e-24
-1.06509437162e-26
-8.21225566054e-27
-3.72607907715e-27
1.00000072034
1.00000113496
0.879907081619
0.886867858596
1.00000641013
0.887822952884
0.999999450733
1.0000024253
0.888777602705
0.893372299245
1.00000111399
1.00000758813
1.00001435647
0.889528391732
0.892440214129
0.893540587058
0.893935423061
1.0000164607
1.00001544184
0.893288538294
0.89465789213
0.893662225493
0.891467339979
1.00000174295
1.00000184231
0.893539068423
0.893527109452
0.894564716196
1.00000068893
1.00000218649
1.00000190975
0.893283785485
0.89101244982
0.893985389994
0.890587439759
0.893833694604
0.889386819384
0.0520410191787
0.0501033718775
0.0540876967296
0.000120982448879
8.75330256154e-05
9.6538277859e-05
7.45425081426e-05
7.59328623067e-05
7.1392518838e-05
5.15186401022e-05
5.25589970864e-05
0.0487891046441
0.048140721386
0.0553361063972
0.0513909310965
0.0534397000478
8.42081091559e-05
6.32404117808e-05
0.000103958302254
7.8804044563e-05
0.0543184870378
0.0541992641963
0.0535005350629
3.12215679053e-05
3.4661569939e-05
4.70921829876e-05
4.61728407574e-05
0.052387044046
0.0515971655962
0.000118410728614
9.25667893249e-05
0.000102495230951
0.0528515375252
0.0521477595447
0.0524535324899
7.25673232323e-05
5.75341313914e-05
8.91940891449e-05
8.14037874847e-05
0.999070075163
0.999058005328
0.878390554224
0.88172065217
0.99906759287
0.880555411066
0.999061715583
0.99914449113
0.99917882668
0.884175412448
0.886392367649
0.999127135749
0.999206509842
0.88345359063
0.999104655589
0.999164124088
0.885614473859
0.889512526228
0.999119301858
0.999148542664
0.887651255847
0.999310885925
0.999269700568
0.888447267085
0.890767193613
0.999287279074
0.999293693029
0.890642586007
0.999363293681
0.999376070217
0.892021592969
0.89327576888
0.999353140051
0.99938634113
0.891991032548
0.999182365945
0.999220908477
0.890806773708
0.891133584474
0.999167224925
0.999243368024
0.892397919089
0.999073390545
0.999048765504
0.891404578213
0.89347570828
0.9990959942
0.999008620232
0.892910052326
0.999273690612
0.999349127719
0.892208136503
0.894030784098
0.999328030019
0.999304080241
0.892966770074
0.999194930611
0.999150261336
0.89346320273
0.893957681123
0.999075842919
0.999243479916
0.893246468387
0.998973473401
0.999030977308
0.894269528037
0.89367952463
0.999031945057
0.998980315952
0.894145300787
0.998989683165
0.999044285413
0.894774594144
0.893436928796
0.999047845327
0.894037762852
0.999036236301
0.998945725569
0.999044070376
0.893434409959
0.893182147506
0.998986291226
0.998966951162
0.893447007578
0.998949831755
0.998915650848
0.892478266811
0.892503621176
0.99893768267
0.893190068476
0.998950439726
0.999358657208
0.999371963428
0.893815391548
0.894209029488
0.999345053397
0.999370162693
0.894493273542
0.999322334199
0.999215185119
0.89369354199
0.894121692281
0.999294213633
0.999264013831
0.894379334836
0.999363583698
0.999372246589
0.893916331531
0.894971621319
0.999310543314
0.99942153415
0.894337654233
0.999065101218
0.999113836453
0.892826514679
0.893708960643
0.999007850169
0.999175928542
0.892976128384
0.998968490135
0.998838386247
0.892086916146
0.890649170517
0.998922795517
0.892019684769
0.998867772017
0.999130613641
0.999284336166
0.893398446389
0.893145967996
0.999228071534
0.99917747114
0.892648892873
0.99904385458
0.999017243096
0.890394531563
0.892123725732
0.999099174083
0.891725293703
0.998951639714
0.999210440043
0.999306063307
0.892721309887
0.893920444518
0.999198861862
0.999320339086
0.892667911392
0.999039113481
0.89111004484
0.999115086412
0.999998810212
0.999999339821
0.999998998628
0.999987396243
0.999989102777
0.999994118957
0.999999062491
0.999999468721
0.999999049197
0.99998909141
0.999989599953
0.999994779179
0.999998632428
0.999949233725
0.999995069598
0.999994706657
0.999960887177
0.999938691197
0.999962832584
0.999991764353
0.999999989427
1.00000067876
0.999995464249
0.999992534611
0.99999290534
0.999989488169
0.999980294357
0.99997995406
0.999995383548
0.999995974844
0.999997141933
0.99999791669
0.999996354016
0.999985798293
0.999986981045
0.999994764893
0.999994977024
0.999998829526
0.999999342415
0.999998335375
0.999992966103
0.999985743424
0.999992548926
0.999997363104
0.999994662665
0.999985875211
0.999990792711
0.999997175452
0.999911753505
0.999889106277
0.999988735086
0.999916594769
0.999898889419
0.999935249627
0.999985318326
0.999992913304
0.999975190486
0.999898671205
0.999980335207
0.999986914236
0.999937719741
0.999928524063
0.999958425206
0.99999328412
0.999983831963
0.999968993209
0.999978725362
0.999993577211
0.999990507226
0.999976049575
0.999975930672
0.999991334657
0.999998363157
0.999998768719
0.999998778593
0.999998134985
0.999996447313
0.999996010609
0.999996436528
0.999997345128
0.999996067352
0.999991092061
0.999992750719
0.999997358809
0.999967831096
0.999763917058
0.999979313847
0.999947118791
0.999929811913
0.999964535221
0.999994497127
0.99999741939
0.999968102686
0.999652716869
0.999967884901
0.999990875525
0.999974863237
0.999966420918
0.999981003403
0.999997146784
1.00000007082
0.999999954843
1.0000002169
1.00000013125
0.999999499641
0.999998283155
0.999998180022
0.999999095045
1.00000086302
1.00000094435
1.00000069514
1.00000043898
1.0000002408
0.999999998804
0.999999975417
0.999999940439
0.999999927215
1.00000166067
1.00000123051
1.00000062433
1.00000031639
1.00000037297
1.0000003909
1.00000045991
0.999999211425
0.999999388436
0.999999983065
1.00000144819
0.999719946421
0.999897031225
0.999995251505
0.999995442976
0.999993558652
1.00000249942
0.999997232704
1.00000539964
0.999988320594
0.999982987568
0.999982697187
0.999991579358
0.999992992429
0.999990673516
0.999985847885
0.999963835283
0.999999504552
0.999993610659
0.999991513246
0.999991844411
0.999991622271
0.999987812699
0.999987137369
0.999987068383
0.999988018014
0.999983308624
0.999996693665
0.99999229919
0.999986738239
0.999977794438
0.999977076418
0.999981893179
0.999986611495
0.99999014617
0.999989315059
0.999985039389
0.999972062867
0.999968742648
0.999969288038
0.999976360158
0.999985247454
0.999985377481
0.99998589501
0.999989059786
0.999990454074
0.050212371103
0.0535041974573
0.0561960210519
0.0602366176963
0.0667808325438
0.0701768777204
0.0703728208654
0.0699751366055
0.052335201169
0.0505456781127
0.0514181926179
0.0532244390165
0.0559311999475
0.0571328016444
0.0614873399731
0.0646058371077
0.0660690946304
0.0661914271672
0.052577332666
0.0540026307612
0.0549321739136
0.0553633084383
0.0563853678235
0.0571503394648
0.0589454526132
0.061933077061
0.0630451481465
0.0634172820122
0.0560961379941
0.0576031611805
0.0584174519007
0.0587205918733
0.0593225487023
0.0597891137907
0.0620580556612
0.0630275738366
0.0646310248279
0.0601712511903
0.0608596790258
0.0599903043129
0.0622508069852
0.06337319299
0.0647624361857
0.065858133162
0.0647261476188
0.0656607603974
0.0656464263532
1.32343230088e-06
6.85041682234e-07
1.41098053209e-08
3.42013922625e-06
4.36485562035e-05
1.4532031939e-05
-9.06930738459e-27
-6.75456303534e-29
-1.57783143201e-27
5.00607281645e-05
1.80617613066e-05
1.15918599594e-05
3.85769435599e-07
9.04940813996e-07
-3.09454642103e-25
5.84636878429e-05
-8.01333466764e-27
-6.11427405218e-26
-2.41360183366e-26
3.47772247289e-05
2.7907688207e-05
1.42060290455e-06
-6.61953677556e-25
2.26891755669e-06
9.29579558359e-07
-5.92435010876e-26
4.4377449232e-05
-1.46415346044e-24
-1.66593531585e-24
4.41077831616e-05
1.37285339491e-06
5.94535606538e-26
1.77571937111e-06
-9.52769617461e-28
-7.90594076832e-29
7.49041753183e-06
-6.70790599094e-25
-9.38430155488e-25
5.63961959389e-05
-1.64131708225e-25
-2.10678915496e-27
4.90787828309e-05
-1.68185323287e-26
-9.65042328016e-26
-1.74185823561e-25
5.77835621905e-05
-2.01392594274e-27
-4.45833362e-26
6.52164033286e-05
0.999973662378
0.999996566292
0.999996733697
0.999958521161
0.999799679742
0.999980459154
0.999913722096
0.999966677075
0.999996177115
0.99999463286
0.999854510074
0.999962759122
0.999908642812
0.999953820824
1.00000040242
0.999991985679
0.999996604966
0.999993962681
0.99999533628
0.999995768871
0.999998096007
0.999999696867
0.99999843324
0.999997897558
0.999993657076
0.999993851845
0.99999840615
0.999996566251
0.999742045429
0.999963306412
0.999772760974
0.999967961451
0.999704125164
0.999948956294
0.999680485746
0.999981340588
0.999833926384
0.999956776216
0.999818592164
0.999961448727
0.999816316335
0.999960775502
0.999905249099
0.999982442394
0.999990588073
0.999981590588
0.999816489544
1.00000010843
0.999973239093
0.999939004582
0.999989050765
0.999978656306
0.999760544474
0.999884087733
0.999837487514
0.999858024938
0.999659225085
0.999963191933
0.999633744006
0.999820323281
0.999602156426
0.999939547225
0.9996178273
0.999938432809
0.999748473182
0.999933329244
0.999598758512
0.999834405403
0.999602156426
0.999827770057
0.999694667977
0.999994606488
0.999959509144
0.999965273179
0.999880369919
1.00000173278
1.00000030865
0.999771087472
0.999905309115
0.99990881986
0.999844816965
0.999874056704
0.999999734866
0.999999971073
1.00007067128
1.00002232316
0.879032219893
0.880473573108
0.999848203382
0.999982088686
0.999900721205
0.879131854986
0.880961682447
0.879281837749
0.879645933943
0.999787127768
0.999865723285
0.999884724444
0.880217347927
0.870711899095
0.87927850955
0.871969203603
0.999971963711
0.999932657977
0.999983159304
0.865336437509
0.846848092072
0.867727642592
0.855296389748
0.999997923605
0.999995177455
0.999994835406
0.843839269126
0.839265063785
0.854555719315
0.852501621205
0.999993910881
0.999993413566
0.999991914807
0.838088952441
0.840609786902
0.852124095756
0.850317910417
0.999996138365
0.999988741089
0.999988545377
0.841621995094
0.845220881511
0.849985883536
0.846608238784
1.00000747719
0.999987922051
0.99999403941
0.843562984899
0.832013216689
0.8434913744
0.829281071722
0.999835751618
0.999990247657
0.999941447061
0.839582823321
0.788044908295
0.834498907586
0.830175781916
1.0000106259
1.00000325888
0.893935137627
0.889083468893
0.890280835741
0.885582451805
0.999996974047
0.999996917589
0.999992628254
0.886745860189
0.880707162917
0.882871175977
0.875596581047
0.999984104141
0.999992075777
0.999994717179
0.87928063196
0.879112039449
0.874131793716
0.87327971022
0.999980655259
0.999998417077
0.999999242825
0.87911927178
0.873746650625
0.873552901828
0.871806917004
0.999986622228
0.999998122146
0.999994072556
0.868611627537
0.856922085958
0.869360697688
0.864164074783
0.999992482187
0.99999231473
0.999990697894
0.857358615179
0.857268888872
0.864621967785
0.864079938061
0.999991264946
0.999988949946
0.999988177476
0.855863196544
0.852036855582
0.863191771995
0.860286844173
0.999988177484
0.999985781384
0.999984780433
0.851381369857
0.847184472785
0.857725502911
0.846291285476
0.999978657872
0.99998318181
0.999981230826
0.84391980261
0.830175461692
0.843184547742
0.838568146521
0.999943590778
0.999969843147
0.999973069071
0.834776400896
0.834512451984
0.843240755631
0.838550738964
0.999997600837
1
0.999999614466
0.889766321154
0.885183803927
0.888505511244
0.881103085776
0.999991184987
0.999997196211
0.999992229736
0.882145056569
0.872979982688
0.877429828771
0.867082143551
0.999991574713
0.999991806162
0.999991498515
0.871470481892
0.871280842987
0.865863619247
0.865651849328
0.999992270076
0.999992579645
0.99999238486
0.871806550794
0.870353577538
0.865705924689
0.86396288993
0.999990116478
0.999992084454
0.999991114011
0.869072457877
0.865543855241
0.863569543709
0.864536523645
0.999987268969
0.99999001259
0.999988638143
0.864766086723
0.862934716823
0.863719758274
0.863231356701
0.999986662423
0.999987458799
0.999988030093
0.86313000945
0.860225416782
0.863982592767
0.855676978575
0.999986662597
0.999987236135
0.999987760189
0.856370442508
0.846614513386
0.850925857187
0.846235496518
0.9999875593
0.999990200961
0.999990564691
0.84473830579
0.841950337472
0.846540644892
0.846335770715
0.99998487367
0.999987473849
0.9999887293
0.846399964582
0.838561932044
0.849874477136
0.837756143389
0.887162061288
0.879501975169
0.999994124862
0.999994059243
0.876024222812
0.865827371653
0.863682076621
0.99998990539
0.999992317327
0.999988935415
0.864672476415
0.863331332706
0.86161845433
0.857275168702
0.999981836135
0.999985257512
0.999979079678
0.862893563282
0.861767775976
0.855935283785
0.854582666955
0.999976792805
0.999977627197
0.999977586828
0.862048017218
0.86248565078
0.855296779731
0.857232692346
0.999977803077
0.999978113107
0.999980990026
0.861606167676
0.860593913596
0.856391516844
0.853814541775
0.99998404793
0.99998443223
0.999985827284
0.860148368855
0.853039131093
0.853538706753
0.851035838294
0.999989113194
0.999988142146
0.999989553977
0.85038476672
0.847443612022
0.849705352892
0.846600879275
0.999989443537
0.999991198423
0.999990879632
0.846945805165
0.8454294563
0.845702811019
0.842184127563
0.999991292529
0.999988905678
0.999991061133
0.84880309464
0.837375990804
0.845811346561
0.83515465524
0.999978891267
0.999984010392
0.854331808888
0.853847033813
0.851754008299
0.999968274117
0.999982288811
0.999980218038
0.854658107799
0.855723436594
0.853039582204
0.856047649004
0.999968833325
0.99997832412
0.999977099083
0.856101282784
0.853626520943
0.856665813436
0.853362813854
0.999972322797
0.999977366811
0.999979114059
0.853028755752
0.850694256313
0.852801528675
0.849991792671
0.999982256825
0.999982796206
0.999987506907
0.849027243813
0.84604308645
0.84822510739
0.844938589915
0.999984545868
0.999989342284
0.999988915297
0.84519426469
0.841312534145
0.844287181666
0.838938922315
0.999989347524
0.999988191618
0.999992788932
0.844990947627
0.834321274615
0.842927806516
0.833918859322
0.999984348456
0.849728728981
0.999988207702
0.848265750984
0.844474089058
0.99998926333
0.84365085581
0.837775921973
0.999995236031
0.84200282809
0.834337099834
8.54019587098e-05
9.66429558203e-05
7.9967881849e-05
4.1565389791e-05
0.0491207486812
0.0495262582278
6.42351395634e-05
8.74660584089e-06
1.56625365875e-05
1.40297388323e-05
0.0516108578606
0.0506132786336
0.051700598413
1.18184195113e-05
2.07497459715e-05
2.73597136554e-05
2.81679615942e-05
0.0554562962281
0.0532099465426
0.0548784181438
8.16400579199e-05
0.000306114390658
5.95717952948e-05
0.000277822044714
0.0580303734693
0.0555359387626
0.0570731011876
0.000951362641274
0.00126238359799
0.000904174467966
0.00119220546192
0.063435275916
0.0588608768213
0.0612770881049
0.00105122410912
0.000790679570784
0.000997508504067
0.000669372870559
0.0687210424955
0.0637489787718
0.0659392225469
0.000384216876185
0.000272442134792
0.000300450883154
0.000229771689334
0.0703389339963
0.067421101163
0.0681651589373
0.000313315615116
0.000354244940345
0.000273796308816
0.000332334402637
0.0704500221335
0.0682923881456
0.0687497057879
0.000478774417763
0.000541540732559
0.000403858704981
0.000409003810611
0.0721081013926
0.0673366179112
0.0718431975492
0.000526349622002
0.00113122048127
0.00045011217876
0.000693828445493
0.0510092395609
0.0524921769424
0.0521401541471
0.000172398389148
0.000210696131371
0.000230727351493
0.00029232652875
0.0505974713375
0.0524103469579
0.0528141446896
0.000173236363026
0.000127424667231
8.06501369105e-05
0.000102085319347
0.0521682793221
0.0531669040059
0.0532854239788
4.17607070719e-05
2.39943196603e-05
5.36283545301e-05
3.95669688267e-05
0.0547980975127
0.053960784127
0.0549607378804
2.09221698808e-05
9.58646586619e-05
4.53509246896e-05
0.00011085268498
0.0566647144626
0.0559609358658
0.0563554601038
0.000411180266729
0.00092264325577
0.000264714582525
0.000489861732393
0.0591859534823
0.0564142970529
0.0579084351238
0.0013392867414
0.000769962563232
0.00077940288088
0.00064954923308
0.0631861479211
0.0602686042546
0.0614454341324
0.000275295649109
0.000217177752346
0.000255926758841
0.000203140334459
0.0656703151505
0.0627999256229
0.0637045314959
0.000235043175447
0.000245502329849
0.000226670453374
0.000215021631212
0.0668832332449
0.0643110062271
0.0648105549414
0.000268574672171
0.000232403631089
0.000177119665618
0.000150613398198
0.0714076357292
0.0645000537362
0.0694748624714
0.000298894921416
0.000534409226365
0.000230632532799
0.000562745009648
0.0529131138876
0.0530290020449
0.0537005446963
0.000217831898284
0.000271420085419
0.000231718078999
0.000419658011527
0.054507317896
0.0551346172413
0.055821293332
6.7931281857e-05
0.000140972572053
0.000177523739176
0.0002692995127
0.0551716825321
0.056407353072
0.0567820317828
0.000120729923652
8.02483546705e-05
0.000233584213972
0.000218125902104
0.0558830082727
0.0569831835564
0.0571812794635
0.000101127991266
0.000153163976302
0.000229658561162
0.000262759303491
0.0567309088358
0.0573720309669
0.0574215654423
0.000210753154197
0.00023357680188
0.000263925459487
0.000231193443179
0.0579587757559
0.0580586543686
0.0583114040425
0.00025375887062
0.000380521114003
0.000269934015996
0.000415491061356
0.0606952260509
0.058374735389
0.060126895579
0.000583692965263
0.000477542328991
0.000888766065965
0.000921189346609
0.0625689821588
0.06185945616
0.062409238475
0.000273676894493
0.000197498874794
0.000313742345676
0.00019090828251
0.0635814803937
0.0626692359814
0.0634787619737
0.000149979919262
0.000140092066231
0.000143451470793
0.000134953480804
0.0681816009509
0.0637139897353
0.0680164995669
0.000235611312487
0.000693858771824
0.000234984043856
0.000877189468653
0.0569522804988
0.0575235598912
0.000246650775706
0.000338689869533
0.000398827819094
0.0581223453698
0.058272262515
0.0589907340558
0.000317777696694
0.000345848743139
0.000398236198915
0.000457584972349
0.0586112943572
0.059494531295
0.0599210758774
0.000393346048507
0.000404139973365
0.000523198005379
0.000524517567863
0.058891015616
0.0601539021847
0.0601243654274
0.000410505048213
0.000417657873082
0.000513822841985
0.000600800532888
0.0595802679577
0.0603682007195
0.0606751504293
0.000410133395919
0.000534876833558
0.000611410440476
0.000581427354113
0.0607581726872
0.0607663121177
0.0614933272465
0.000753380477834
0.000769812185138
0.000700005064294
0.000573112860575
0.0625963148367
0.0626059630053
0.0633152827746
0.000306237878071
0.000202710776957
0.00027913129061
0.0002122935687
0.0641808943927
0.0639863809754
0.0652506383242
0.00016042789565
0.000144965969115
0.000170259023655
0.000159731853823
0.0683686572447
0.0654246876894
0.0685837165879
0.000249983471826
0.00103401932919
0.000264431683097
0.00111878672192
0.0606958697569
0.0606550581791
0.000557165673433
0.000507012252252
0.000605179243582
0.000511042580083
0.0606935523541
0.060709866817
0.060566751888
0.00044379013069
0.000665201669418
0.00040940296004
0.000590201598618
0.0611811647785
0.0602871708162
0.0617285934129
0.00124922867055
0.000631359363377
0.00106996432878
0.000488485117164
0.0628084524773
0.0628931723425
0.0635743117672
0.000337997380212
0.000313605017049
0.00027629780505
0.000274603179887
0.0640882654707
0.0642247408219
0.0648134340156
0.000280570261969
0.000267498708637
0.000287134160452
0.000308234662655
0.0659618423326
0.0653048036778
0.0664614160603
0.000240569617075
0.000218492320435
0.000274578376122
0.000274561194391
0.068632241676
0.0659065736459
0.0685305160725
0.000315496586227
0.00111883209627
0.000388501440664
0.00111731935818
0.0639894138155
0.000262271360498
0.0653002077321
0.000271860877315
0.000300300400845
0.000255925631286
0.000251498620573
0.0666873155587
0.000281675467303
0.000287562677903
0.000223421181629
0.000233282165456
0.0681848718687
0.000427646491884
0.00116617815427
0.000379382566374
0.00122639508078
0.998858894769
0.998848321779
0.878948781252
0.880352834403
0.998915328255
0.881153641558
0.998817580441
0.998906957331
0.998857618614
0.879463823884
0.88207355626
0.998910271413
0.998855530932
0.880736013515
0.999037500249
0.99894519558
0.879730680131
0.879922442748
0.998967201954
0.880179796355
0.999105955044
0.999140640055
0.999307686617
0.880217700786
0.880832406685
0.999234690718
0.880338326564
0.99925678356
0.998966874926
0.998871865921
0.879251504903
0.879242505496
0.998915843316
0.998916186881
0.879489523496
0.999073409716
0.999112242597
0.880374364347
0.879262767456
0.999193373204
0.999003501132
0.879743645403
0.999262970479
0.999309565072
0.879203754121
0.880121167545
0.999277296093
0.879227622636
0.999299726181
0.999236519623
0.999206551216
0.8751090324
0.870860293216
0.99917507871
0.875345835928
0.999266208165
0.999263009725
0.9991944466
0.880018430266
0.878650889428
0.999254714177
0.999209012703
0.87936354679
0.999251087569
0.999183516244
0.871710270727
0.875614646144
0.999217300677
0.999207169214
0.876045253913
0.998935094591
0.999114376165
0.858623323224
0.865611884768
0.999075953366
0.859412323503
0.998942033356
0.99877709199
0.998533156711
0.852831058494
0.849773080724
0.998646592393
0.854226184608
0.998733164252
0.999031852479
0.999135791425
0.867038265549
0.862853470854
0.999149542018
0.999058238788
0.86157037883
0.998910521152
0.998910508339
0.853106323282
0.858857486145
0.998830262342
0.99898076544
0.85724750855
0.998388475476
0.998318901336
0.83998230268
0.847364351918
0.998528253397
0.8447966599
0.998167626633
0.998253306417
0.997850610553
0.839469658167
0.844143126426
0.998101977506
0.844206203573
0.997996406321
0.998642824528
0.998836478778
0.851361883976
0.853540955546
0.998748766488
0.998749840528
0.848787449363
0.998515414084
0.99848803609
0.847825271003
0.852844678781
0.998351758702
0.998631090854
0.848090221068
0.997703419933
0.997667687277
0.838049151589
0.843221731428
0.997930037609
0.842511858816
0.997429916943
0.997462515924
0.997269114718
0.83887665706
0.843823043168
0.997411259605
0.842800155647
0.997268156193
0.997892997805
0.998312593007
0.847298014425
0.851432171295
0.998156649711
0.998078533968
0.846229889982
0.997599437937
0.997564981331
0.846100225067
0.850372950404
0.997496816631
0.997769440758
0.845812961161
0.997464439004
0.997297448889
0.842825429652
0.84437793746
0.997415594571
0.845155646147
0.997376826091
0.997573244693
0.997730002174
0.843660694923
0.845671367111
0.997754599361
0.845365189659
0.997514557887
0.997526041932
0.997537296405
0.846166035265
0.849678096401
0.997495468422
0.997557297138
0.846466917657
0.997620380263
0.997807375674
0.845338308524
0.848383831157
0.997842100544
0.997619695761
0.846028401308
0.998082925099
0.99796546095
0.84095048631
0.843278100014
0.997955404451
0.839613714096
0.99815383461
0.997995793842
0.997891219258
0.836622777356
0.829525681615
0.997834036877
0.834771843413
0.998065318146
0.998021189714
0.997872980578
0.84294609429
0.839498546125
0.997965961763
0.997885461845
0.839815842984
0.997914615743
0.99762731157
0.830247479755
0.834756794867
0.997776776807
0.997767713026
0.835270956304
0.996325601721
0.997380345537
0.835531280823
0.834729798726
0.99736543995
0.833904804349
0.99606203971
0.99343441215
0.990275348211
0.813389509995
0.825758759881
0.818844372964
0.991840716634
0.989961631443
0.996509874965
0.997332547468
0.836062703778
0.832727562129
0.997438347084
0.996562818962
0.832905010811
0.993582281743
0.995189026217
0.826042028873
0.801060748423
0.994384600424
0.797279025414
0.994241896491
0.999028833216
0.999029740062
0.892780159361
0.892387200811
0.999000746338
0.891097666192
0.999049880529
0.998974326713
0.998859999048
0.891248212969
0.887678053443
0.998941453067
0.99887456703
0.889761312644
0.998922746956
0.998894839182
0.891367694351
0.888842044505
0.998841441523
0.890088620909
0.998945313721
0.998863568363
0.998617244093
0.886971591036
0.887318172596
0.998739700746
0.998761578711
0.888681687589
0.998654958281
0.998774350209
0.884457265885
0.885404093595
0.998705336468
0.998746069091
0.883432574057
0.998625191173
0.998700317775
0.882565569189
0.879985578398
0.998705965309
0.998625956412
0.881657697193
0.998541222243
0.998500201309
0.884535666807
0.880850952173
0.998617304088
0.998460978877
0.882640476057
0.998536017496
0.998474883362
0.878018216152
0.878086684763
0.998539695686
0.998461191784
0.880155975447
0.998683970436
0.998710130776
0.878665188757
0.878728711913
0.99875093253
0.99864158432
0.877705146001
0.998760305958
0.998930131828
0.878767060544
0.877336715312
0.998827929116
0.998836923819
0.877316582443
0.998585748767
0.998506449078
0.876701200376
0.872595559944
0.99854777293
0.998560763505
0.875455923827
0.998647452442
0.998711916157
0.876223021128
0.872969262111
0.998728685057
0.998643771816
0.875981960963
0.998927597408
0.999004409789
0.878927401068
0.87725435583
0.999029909649
0.99891133273
0.877074956112
0.998926187985
0.998968904307
0.877012434589
0.873709208927
0.999020921578
0.998903793646
0.87558459227
0.998837419842
0.998768265683
0.876199117214
0.873539746828
0.998807732429
0.998795871845
0.876010961584
0.998832208018
0.998796067666
0.874070463948
0.872755802616
0.99881257868
0.998810145175
0.875224595886
0.998785034064
0.998887266054
0.863119278491
0.869631056868
0.998798911721
0.998848496094
0.865132708706
0.998703149425
0.99864178317
0.859799688443
0.859245358777
0.998710138015
0.998625821492
0.862091528193
0.998688883562
0.998749952032
0.870795484194
0.867093928109
0.998759526808
0.998676116292
0.866896877672
0.998594421355
0.998504194239
0.861628642119
0.865424834847
0.998502156105
0.998580428314
0.864451733463
0.998445805973
0.998569922499
0.857930963046
0.859661574098
0.998473455914
0.998546387339
0.860493327721
0.9983070858
0.998135753237
0.85791685395
0.860165541793
0.998339233912
0.998124719741
0.860553085357
0.998302424326
0.998407474059
0.862204573246
0.864789707971
0.998409021522
0.998304439293
0.863182518369
0.998182569657
0.998078159975
0.862709919025
0.864577836359
0.998054853171
0.998201362036
0.863228120079
0.997567481569
0.997881111291
0.853952582417
0.85919193573
0.997573985162
0.997873759805
0.858025803388
0.997249513438
0.997084951318
0.852546582687
0.856580303243
0.997214542168
0.997128530617
0.857083433765
0.997662735094
0.997916487551
0.86100636736
0.862180218294
0.997879226533
0.997751008365
0.859245023492
0.997503208945