/*--------------------------------*- C++ -*----------------------------------*\
| =========                 |                                                 |
| \\      /  F ield         | OpenFOAM: The Open Source CFD Toolbox           |
|  \\    /   O peration     | Version:  v1906                                 |
|   \\  /    A nd           | Web:      www.OpenFOAM.com                      |
|    \\/     M anipulation  |                                                 |
\*---------------------------------------------------------------------------*/
FoamFile
{
    version     2.0;
    format      ascii;
    class       volVectorField;
    location    "14.7";
    object      U;
}
// * * * * * * * * * * * * * * * * * * * * * * * * * * * * * * * * * * * * * //

dimensions      [0 1 -1 0 0 0 0];


internalField   nonuniform List<vector> 
28582
(
(0.810465274466 0.00423091195129 -0.000495869419454)
(0.812156847772 0.00334011464272 -0.000678204662879)
(0.810934490016 0.0045934194255 -0.0012508953301)
(0.812298676308 0.00323866208974 -0.000520870010974)
(0.811294414322 0.00423502425087 -0.00165852823906)
(0.813756174831 0.00314492902916 -0.00103657992333)
(0.814952335513 0.0055339097713 -0.00342027587132)
(0.816431182032 0.00423470354009 -0.0019805854032)
(-0.304674910175 0.0260626621693 -0.00569303046481)
(-0.398106516619 -0.131199588753 -0.0108581365277)
(-0.02866905444 0.0752939160018 -0.211441180014)
(0.815667598036 0.00487738301177 -0.00280957705932)
(0.744886777551 -0.00095400789162 -0.00288999573074)
(0.7424807113 -0.00246515019656 -0.00123274318158)
(0.81727881873 0.00359274267166 -0.000666812564875)
(0.816403728653 0.00319617258625 -0.000363077245406)
(0.741040462328 -0.00267650940591 -0.000415191494766)
(0.81591353028 0.00232771091174 -0.00167959772821)
(0.815192508138 0.00187170835548 -0.00057803031558)
(0.809322154433 0.00708860171261 -0.00101190082046)
(0.81333398319 0.00181908186175 -0.000439263328593)
(0.813370154799 0.00115526931303 -0.000640194673702)
(0.809885660718 0.00718650124964 -0.00166081760853)
(0.813812658257 0.00216744081324 0.000553705365412)
(0.813554785398 0.00131444213035 0.000850601865124)
(0.809765498797 0.0073058455732 -0.00288943756479)
(0.814722819476 0.00188901575707 -0.000588064766991)
(0.814499831831 0.00765751076929 -0.0049194693412)
(0.817845839167 0.00326006075372 0.000466011244975)
(-0.393445409748 -0.139962601172 -0.00693072867923)
(0.0727349899112 0.182223627771 -0.177830162496)
(-0.103526137325 -0.196768359756 -0.181983069918)
(0.815598144782 0.0067636490569 -0.00508855090067)
(0.814906558985 0.00702587112561 -0.00472186927485)
(0.738236160025 0.00285160728537 -0.005418249199)
(0.740985328052 -0.00111447659603 -0.00732619523946)
(0.814637176336 0.00817143093984 -0.00573187180734)
(0.818141374334 0.00306459539005 0.000491527045146)
(0.817131019665 0.0030620531411 0.00159450536913)
(0.817308418275 0.0024579444738 0.00184077096708)
(0.816293824303 0.0023220036206 -0.00129090120935)
(0.740771047285 -0.00340760332948 0.000527609191466)
(0.815555904322 0.00181486854518 -0.00019932704433)
(0.815738997205 0.00253629603355 0.00134463862138)
(-0.356071327062 -0.0516134287228 -0.00165858877602)
(-0.180709466878 -0.0770481998734 -0.00309724179934)
(-0.110807035214 0.118166338239 -0.0275081918664)
(-0.0968293184432 0.0959457041002 -0.00573874371607)
(-0.397773430484 -0.103944378939 -0.0075573010286)
(-0.121478608991 0.0987776552055 -0.0158863838604)
(0.815805355822 0.00647563525903 -0.0032856430376)
(0.814854624104 0.00521406795253 -0.00173706620663)
(0.744305487969 -0.00154289983165 -0.00188629340584)
(0.746342724117 0.000387722807987 -0.00206900677752)
(0.815168018916 0.00592590970021 -0.00270147343345)
(0.74575625003 -0.000397789740055 -0.00142069468188)
(0.815616769913 0.00565131150491 -0.00190007416833)
(0.814884778615 0.0042226073812 -0.000936068398492)
(0.815191257793 0.0042117069757 -0.00153426357793)
(0.743465105812 -0.00205962086721 -0.00108726935619)
(0.744235355179 -0.0013065313724 -0.00052831412915)
(0.814694475445 0.00374136546507 -0.00121556814158)
(0.74495878994 -0.000948720317816 -0.000631494349847)
(0.81547242279 0.00488907296898 -0.00128082654812)
(0.815262430633 0.00271903756764 -0.001743353921)
(0.81545899087 0.00368216277362 -0.00126024532319)
(0.740623112984 -0.00267281453838 -0.000258251125749)
(0.742734691663 -0.00112216536456 -0.000302089767892)
(0.814998366361 0.00313253519493 -0.00114745713775)
(0.74221025919 -0.000946032778193 -0.000470380257486)
(0.815589702843 0.00321529585463 -0.0013992505245)
(0.816243006714 0.00277199823357 -0.00130115410477)
(0.739937569458 -0.00285440121539 -0.000368197354572)
(0.741090496158 -0.000207707719279 -0.000318976907306)
(0.815538425893 0.00257776189555 -0.00169567935373)
(0.739997200154 -0.00270646677859 -0.000470125768429)
(0.741421915385 -0.000580304436988 -0.000620439123624)
(0.815736630369 0.00290594538244 -0.00133648668356)
(0.81500265898 0.00242574039832 -0.000787033889379)
(0.743296647738 0.00155795749343 -0.000909866740401)
(0.74436374858 0.00145661211758 -0.000866807473597)
(0.81492877496 0.00206221218347 -0.00110597253148)
(0.744684430776 0.0014092673289 -0.00156230390784)
(0.814835805563 0.00244325133273 -0.00168710525103)
(0.743623789855 0.00115783463944 -0.00130320690782)
(-0.273214821194 -0.039312643764 -0.0154218632096)
(-0.130861627694 0.145585075843 0.0511169819911)
(-0.217405040568 -0.0766730682373 -0.0139411063812)
(-0.277800092327 -0.104749914907 -0.0125292732484)
(-0.219010491873 0.141140852598 0.0806038019402)
(-0.210694960248 0.133292181178 0.0932290000918)
(-0.242541799956 -0.127896268659 -0.000192204857214)
(-0.0698657771006 -0.0306889654476 -0.0494140174481)
(-0.0669205871642 -0.016357689793 -0.00579605074173)
(-0.271752514921 -0.132140061031 -0.000627291852246)
(-0.0433055718638 -0.0397872940678 -0.0567600622262)
(-0.367334140332 -0.130969895696 -0.00479156905254)
(-0.0211821754615 -0.0221207008971 -0.016136298606)
(0.813627843112 0.00783651091845 -0.00776259923011)
(0.812818189595 0.00688797024076 -0.0055738882827)
(0.740021732428 0.00171793130157 -0.0070797377422)
(0.738588563291 0.00175824212284 -0.00537480997288)
(0.813768356285 0.00659484938879 -0.00782786953779)
(0.812512570134 0.00793834803708 -0.00573711146318)
(0.740087913122 0.000492876504388 -0.00677259676382)
(0.814872794444 0.00776313076492 -0.00771141369702)
(0.816010793885 0.00646901318185 -0.00782842391864)
(0.740547963326 0.000444037923417 -0.00770327816001)
(0.740746455787 -0.0024217657549 -0.0066838013282)
(0.814748085769 0.00644602741305 -0.00783977781273)
(0.816136217076 0.00764717335484 -0.00748709898677)
(0.740593866565 -0.000927993888686 -0.00731423435116)
(0.741964006815 -0.000141523026549 -0.00436546434565)
(0.74244453311 -0.00122744135398 -0.00360689413805)
(0.81598566914 0.0076538486561 -0.00501512754103)
(0.815064023622 0.00846172236957 -0.00644158063646)
(0.741857963361 -0.00211910729627 -0.00478930352189)
(0.816340797734 0.00807850265965 -0.00613085880157)
(0.741349541178 -0.000895502055671 -0.00542415175812)
(0.816487536429 0.00280841766738 -0.000863459097601)
(0.740129888662 -0.00294707812117 -0.000188274754511)
(0.741189429553 -0.000239893602346 7.02692521755e-05)
(0.816448009668 0.0021462356034 -0.00026456439478)
(0.740597509998 -0.00292718353404 0.000541622477344)
(0.816786786014 0.00265081900032 0.000168465828805)
(0.740843801214 -0.000390152538224 0.000902972722955)
(0.816900912156 0.00237701197412 0.000645911869292)
(0.817339980312 0.00295389643138 0.000821733772815)
(0.740782462647 -0.00305783361522 0.000500860728787)
(0.741525890665 -0.00107206883445 0.00223457155143)
(0.816897394306 0.0029830020148 0.000473897534038)
(0.816836415169 0.00207810881767 0.00142932773857)
(0.741252038897 -0.00061404878498 0.00163311012665)
(0.815542219378 0.00256005501208 0.000974432446473)
(0.815422656549 0.00254076786284 -0.000174529164442)
(0.743487499852 0.00163554381716 -0.000611899819105)
(0.744586742401 0.00153220946556 -0.000281309220654)
(0.744753658786 0.00157636594273 0.00069354626615)
(0.815767928821 0.00170977951741 0.000756200088629)
(0.74333902208 0.00150585053702 -8.06094615817e-05)
(0.744751684268 0.00147669163575 0.000942050589574)
(0.74487401972 0.00149168364577 0.00135692696209)
(0.815595617443 0.00217977549809 0.00184884350399)
(0.816135970711 0.0015949917394 0.00118115356775)
(0.743649407066 0.000927739245025 0.000593894012342)
(0.815974358371 0.00119439268659 0.00159884689321)
(0.74358731929 0.00122754682935 9.37248174818e-05)
(0.814859509209 0.00126665522182 -0.000510638362948)
(0.818552669789 0.00258105168559 -0.000510763290419)
(-0.317116759731 -0.0827146958181 -0.00445748224307)
(0.0686179363498 -0.034135428949 -0.207562564163)
(0.815933826385 0.00639327951408 -0.00374768106329)
(0.742934469445 -0.0021758718357 -0.00292318188868)
(0.817513934396 0.00201669507233 0.00098505309398)
(0.817323131891 0.0011051029469 -0.00126317059113)
(0.740846298058 -0.00415139876414 0.000364480874863)
(0.744717305828 0.00144737309438 0.00136353645105)
(0.743568457399 0.000909176699657 -0.000605157591426)
(0.817387090026 6.41458820106e-05 -0.00248333577553)
(0.81770782386 -0.000872083781648 -0.00197999534501)
(0.741859361546 0.000528217967804 -0.00159236359972)
(0.737241617521 -0.000976301059922 -0.00169474196362)
(-0.391449905114 -0.0577267131975 -0.00709722336174)
(-0.282297122697 -0.115871316951 -0.00147046123834)
(-0.252306234097 -0.0593149156636 -0.000901507401165)
(0.0609991663909 0.0340144655963 -0.0176037124162)
(0.0508325041401 -0.000404025490627 -0.0421739970653)
(0.0858108809446 0.0103483134207 -0.0291407408805)
(-0.183884627372 0.0180965916836 -0.000338289661824)
(-0.118786358574 0.0744957604244 0.000999567672446)
(0.816709776022 0.00731068813077 -0.00370913645033)
(0.816302153652 0.00718535109776 -0.00423284685738)
(0.742263640766 -0.00337639263121 -0.00408043984721)
(0.742353814516 -0.00296778052266 -0.00155496817304)
(0.816686867685 0.00782948580862 -0.0053390657356)
(0.741651183239 -0.00424527371722 -0.00280549680129)
(0.816411878487 0.00642939336543 -0.00251473632282)
(0.816659190144 0.0015498059066 0.000948345726647)
(0.817486353856 0.0027248182908 0.000710175034683)
(0.740575669812 -0.00443320210262 0.000475217222165)
(0.741604703017 -0.00131399105167 0.00201042596201)
(0.817514213294 0.00229244273942 0.000769048248835)
(0.816838360053 0.00187537006323 0.00126275012611)
(0.741543771538 -0.00153094639831 0.00147280110299)
(0.815701278648 0.000606577259888 0.00113838077254)
(0.815551960643 0.00177529411848 0.0016737233483)
(0.74354451658 0.000475493973366 0.000630227512022)
(0.744667056206 0.00137108014038 0.00108335960288)
(0.815929110451 0.000902235807015 0.00138443345008)
(0.743560860702 0.000285765148292 0.000303118367004)
(0.815393365461 0.00128464874434 0.00129360699521)
(0.81564662404 0.000249607867265 0.000479951436144)
(0.815025611975 0.000376613370314 -0.000746106988337)
(0.742628861396 -0.0002088253437 -0.00130066193534)
(0.743957694032 0.00137053649386 0.000728360634291)
(0.815411473202 -0.000145321550507 -0.000744139994785)
(0.743139803355 0.000164889473381 -6.94144680487e-05)
(0.815126454992 0.000856444929511 0.000726617692985)
(0.815041862582 -0.000782399594302 -0.00203727813432)
(0.814800247418 -4.52469554826e-05 -0.00149187957615)
(0.741250376308 -0.000617210403104 -0.00209614393263)
(0.740612382177 0.00015869442618 -0.00199501284103)
(0.81516711647 -0.000500560079679 -0.00170453361606)
(0.739829856895 -0.000741835253739 -0.00254631984829)
(0.814809875982 -0.00048027976808 -0.00212362135311)
(0.814965389613 -0.000901146811129 -0.00194070084486)
(0.814889962408 -0.000693145179766 -0.00208146921935)
(0.736664449248 -0.00186939864325 -0.00203410255489)
(0.738555125686 -0.000369677013168 -0.00200726911085)
(0.81502696317 -0.000948236093807 -0.001779828439)
(0.737967727011 -0.0014364859488 -0.00224710356848)
(0.81478233469 -0.000611756903114 -0.0020700522327)
(0.78726476545 0.0105212596492 -0.00782753308227)
(0.793224516862 0.012025741154 -0.00812372923617)
(0.801205098762 0.0171044410879 -0.00790426411118)
(0.803783143602 0.0136686806833 -0.00725054021601)
(-0.0788553128958 0.0480464131744 -0.00694886193521)
(-0.119835889317 0.0751529698257 -0.00525866922088)
(-0.321057982755 0.0421914048577 -0.00720156774046)
(-0.318125222041 0.0974993615588 -0.0120748627636)
(-0.445771803471 0.0276779498425 -0.0109760450246)
(0.0765522528196 0.111327552581 0.137663384886)
(0.121930946718 -0.304345907037 0.00502635949523)
(0.131534113255 -0.0716005810172 -0.061437265142)
(0.318856575284 -0.101583963124 -0.347974253045)
(0.120381709912 -0.00560568481984 -0.0789454477871)
(0.470531599303 -0.0650261994101 -0.0388855405302)
(0.784177458249 0.000223078224383 -0.00653941705915)
(0.784964317458 0.0036947911792 -0.00634481663533)
(0.766665690268 0.00257643466235 -0.004053977713)
(0.768461857757 0.00331285491344 -0.005661222156)
(0.783012637063 0.00690510382075 -0.00706036490535)
(0.765437815866 0.00437536561705 -0.00681768564071)
(0.786342517083 0.00746745791377 -0.00606202062211)
(0.78947032891 0.00905708059085 -0.00531345412699)
(0.768428803205 0.00331719467601 -0.004723899983)
(0.770058653472 0.0048006809496 -0.00379579218685)
(0.787962989349 0.0152463581502 -0.00524383514225)
(0.790373417432 0.0121383790502 -0.00759533598998)
(0.793455890163 0.0159402857927 -0.00649287876821)
(0.766012530001 0.00408372993711 -0.00611269970048)
(0.754734393422 0.00944523187314 -0.0123392171079)
(0.767561305614 0.0053278661236 -0.00493829973372)
(0.756843825999 0.00731943602696 -0.00961998749903)
(0.798783217526 0.0203194214708 -0.00488885431279)
(0.804824593752 0.0237226002593 -0.00149988408279)
(0.752640885154 0.0103953671139 -0.0116793488343)
(0.743914710425 0.0148284914247 -0.00468325753201)
(0.752632916382 0.00755599032458 -0.0100381289787)
(0.742223879643 0.00775308163781 -0.0075814456254)
(0.796832183874 0.0147581834982 -0.00848823164517)
(0.798949716039 0.0127474310431 -0.00869055127046)
(0.767743872895 0.00555473369253 -0.00512496325508)
(0.756152362013 0.0072800554678 -0.00929008980956)
(0.755371281413 0.00904481212097 -0.00986229802253)
(0.806799736634 0.018783932718 -0.00588123337158)
(0.802973922189 0.0149603977156 -0.00818106505502)
(0.807866609109 0.0156835609349 -0.00672402941337)
(0.751645597598 0.00726425069694 -0.00951438006127)
(0.739981183954 0.00688340182531 -0.00720434709775)
(0.750395906168 0.00954639186991 -0.00963966965505)
(0.737653814429 0.00920063924453 -0.0073631022208)
(0.75031286501 0.0103402595964 -0.00978991001035)
(0.736714315058 0.0100559721326 -0.00714195089235)
(0.0374725287328 0.0784286819018 -0.00323768787404)
(0.0129833010135 0.0488327392208 -0.00438663391059)
(-0.014270400507 0.0664714281875 -0.00914776655016)
(-0.221472111324 0.150715704208 0.0950508486446)
(-0.163126218809 0.146489505413 0.0566532258835)
(-0.238022181901 0.0172670830325 0.109333699857)
(-0.204002424987 -0.0052640209264 0.0657847887689)
(-0.130826113806 -0.079721358773 0.0268693950764)
(-0.175492523746 -0.100814215017 -0.0113407078393)
(-0.181105690762 -0.0755207094478 0.0110663816374)
(-0.219806369742 -0.0488574436678 -0.0470407177018)
(-0.0612113795693 0.0108215343911 -0.0062515983315)
(-0.174562350481 0.000782939706818 -0.00472019006136)
(-0.0922093231006 0.0656879523311 -0.00896370761592)
(-0.187372646229 0.0326858998699 -0.00538184902004)
(-0.207365119082 0.0646985411717 -0.00689328120053)
(-0.187602082219 -0.0526756716209 0.0592751532159)
(-0.208042761105 -0.0478004646538 0.0418111893895)
(-0.186796900499 -0.00180713535981 0.0404202343901)
(-0.225678050175 0.0102344364314 0.0294120542359)
(-0.153134133054 0.0613277782418 0.00953920686472)
(-0.225960469462 0.0905975163895 -0.00592603802206)
(-0.245765085364 0.0981064697262 0.0030735815335)
(-0.197986975178 -0.0498754374568 0.00549894761798)
(-0.129545452559 -0.00478897609485 -0.0619891973985)
(-0.206178069445 0.0692304034391 0.000354197063434)
(-0.140322753777 0.125511180998 -0.036676881314)
(-0.321016650027 0.0695772217711 -0.00991978671245)
(-0.403621996136 0.035277011217 -0.0107318554347)
(-0.136781780191 0.00153217341784 0.0626929431319)
(-0.142300750994 0.0207332123325 0.0538893237013)
(-0.133089632134 -0.00504566426157 0.0577209410643)
(-0.317052723766 0.105979412401 -0.00894573326256)
(-0.38881351986 0.0650496251687 -0.0142973510064)
(-0.370146716384 0.0834478197231 -0.0134282972013)
(-0.171420949153 0.105125503541 0.0375975437239)
(-0.101337516291 0.180855826786 0.0174401106875)
(-0.13179573225 0.0201180557683 0.0439678224145)
(-0.0696207037236 0.0552422075997 0.0474963712738)
(0.785886920895 0.00081736641603 -0.00415742152738)
(0.784637413618 -0.00163031116165 -0.00595195988378)
(0.767969946086 0.00155435788013 -0.00158052430162)
(0.767277149572 0.00283183057392 -0.00477139566446)
(0.78435170267 0.000684470978805 -0.00659407654795)
(0.768849202472 0.00185165065718 -0.00197905691715)
(0.786156416174 -0.00118345705078 -0.00360213693887)
(0.786261078054 0.00275251126134 -0.00457751887702)
(0.785342125842 0.00622793387338 -0.00685490062986)
(0.76759387588 0.00303316767869 -0.00533490429973)
(0.769515363424 0.00240963195092 -0.00267507342402)
(0.784541375944 0.00349677133767 -0.00718849205083)
(0.786946493775 0.00464103980428 -0.00500332841737)
(0.76895292357 0.0020240975794 -0.00232978411798)
(0.7838780548 0.00520922253455 -0.0119061729904)
(0.784839107691 0.00651217341516 -0.00975641627127)
(0.76422158679 0.00371878712802 -0.00621799468858)
(0.762554287742 0.0064392118601 -0.010799594071)
(0.783844046496 0.00361332206494 -0.00896597547426)
(0.784907648395 0.00864052740634 -0.0117403664505)
(0.761514629596 0.00547883145373 -0.0101362780832)
(0.78930662128 0.00762321253445 -0.00307841140198)
(0.786459934273 0.00781386582441 -0.00676573508225)
(0.769365321716 0.00209867928754 -0.00202935538474)
(0.768823768644 0.00411625200808 -0.00413212394131)
(0.788087200805 0.00692762872843 -0.00360893134787)
(0.78774901149 0.00870084316149 -0.0065680892677)
(0.770173478424 0.00327966734785 -0.00117322913691)
(0.790493745725 0.00823198069184 -0.00289100643281)
(0.790497269761 0.00968516788212 -0.00596435471154)
(0.769273910152 0.00453675020207 -0.00416586470274)
(0.770950994648 0.0040200804241 -0.0011039652178)
(0.789031832982 0.00923316061574 -0.00609227584771)
(0.791687595734 0.00865751888628 -0.00278277845378)
(0.770466088932 0.00389206304514 -0.0015434774794)
(0.788330995233 0.0120541137698 -0.0115218560178)
(0.786229057687 0.00942983543495 -0.00805434472293)
(0.762662877243 0.00637237177744 -0.00965993799535)
(0.76707897477 0.00486372166929 -0.0054987313438)
(0.786716803955 0.0110550229425 -0.0121084206131)
(0.787733574311 0.0104074969719 -0.00771240490981)
(0.763540361951 0.0064942501085 -0.00898760189252)
(0.790118804326 0.013521265336 -0.0111271107152)
(0.791621416781 0.0145699459909 -0.0141531063247)
(0.759341796153 0.00695434712412 -0.0104608762253)
(0.7556229521 0.0088877386902 -0.0114316880726)
(0.788462743068 0.012367956533 -0.0117800120348)
(0.793223338547 0.0154469150863 -0.0135279487577)
(0.76028129964 0.00680888695866 -0.00930282993641)
(0.789897620053 0.0126619130109 -0.0104271153851)
(0.790880091173 0.0113582059946 -0.0069711584784)
(0.767416475045 0.00515371020698 -0.00540018155121)
(0.764570111832 0.00627011771473 -0.00733107710131)
(0.789377076646 0.0111186033829 -0.0069942800843)
(0.79149605447 0.0127281555904 -0.010280640513)
(0.763846810924 0.00627488759886 -0.00787626463262)
(0.792018885373 0.0142488879324 -0.0101821223925)
(0.796047371054 0.0154844352907 -0.0126280513623)
(0.756404853656 0.00782310343305 -0.0102420728257)
(0.760587777044 0.00651354306561 -0.00801561477148)
(0.794616964156 0.0156502658043 -0.0130884205813)
(0.793542846643 0.0141747124264 -0.0100501884209)
(0.760536811925 0.00655061831522 -0.00866534583071)
(0.80063668218 0.0182794937448 -0.00941307335641)
(0.794808409097 0.0160090645848 -0.0122559108093)
(0.74827970164 0.0116587202514 -0.0105516742199)
(0.752899011781 0.00937514730844 -0.0110119379384)
(0.798950061817 0.0178398219691 -0.00948609109536)
(0.796420935197 0.016890727354 -0.0117077558617)
(0.748692421845 0.0104305511754 -0.00981935919184)
(0.804311546218 0.0198334831974 -0.00878777740466)
(0.805951269826 0.021640596821 -0.00241957989018)
(0.746802228491 0.0136276514409 -0.00917086751532)
(0.743509367638 0.0123111685252 -0.00529384765284)
(0.802847244742 0.0200454829837 -0.00862667794134)
(0.746674973492 0.0115832174911 -0.00897147392346)
(0.80734108429 0.0210433548223 -0.00333730467842)
(0.80225883921 0.0183309826153 -0.0117420475351)
(0.79898271194 0.0169265260925 -0.0121682235483)
(0.752749034844 0.00815759371536 -0.0107128371809)
(0.748891274457 0.00775068690138 -0.00986772388665)
(0.797797612892 0.0171880409364 -0.0121420475499)
(0.803157047301 0.0179596641347 -0.0120704761918)
(0.749015269535 0.0089058972897 -0.0102425517072)
(0.805332897376 0.0192240269219 -0.011468309364)
(0.809277588577 0.0194521956843 -0.0083889502282)
(0.742461911496 0.00980625973407 -0.00728536881575)
(0.745750150671 0.0074396654976 -0.00978412223478)
(0.806088922264 0.0185004959894 -0.0118051859176)
(0.746444411267 0.00913628945872 -0.00986131563795)
(0.808531094157 0.0203315886698 -0.00752154924042)
(0.794287130651 0.0115191362907 -0.0106100010867)
(0.792094543975 0.0109185425553 -0.00738480716975)
(0.764323821428 0.00655727681958 -0.0072925291982)
(0.768032452978 0.00599143331742 -0.00551573054615)
(0.792856531553 0.0121000376044 -0.0105252306295)
(0.793154689533 0.0103148232449 -0.00794329210496)
(0.764584731214 0.00681656049946 -0.00760843410721)
(0.796223379847 0.0127919340351 -0.0107732652163)
(0.79755958061 0.0147916005477 -0.012912781455)
(0.760296529118 0.00663003137296 -0.00784724305855)
(0.7559635102 0.00757210841694 -0.00951060716553)
(0.794961292281 0.01357948113 -0.0102907970666)
(0.798969088326 0.0139697093622 -0.0130401200352)
(0.760244978793 0.00720942180042 -0.00808879929372)
(0.79736521895 0.0122183104304 -0.0112369739765)
(0.800962187211 0.0128656112041 -0.0133525202443)
(0.755413528468 0.00807772153437 -0.0095977616552)
(0.760150324137 0.00846248342552 -0.0088455637099)
(0.800002236628 0.0132620397397 -0.0130455350524)
(0.79846181403 0.0118077815755 -0.011852959702)
(0.759972632998 0.00770540201388 -0.00848215391358)
(0.80487384312 0.0160437924616 -0.0131167703213)
(0.800370390564 0.0162243003671 -0.0123721795206)
(0.747442388083 0.00730259536074 -0.00957876574205)
(0.751293706159 0.0076917509146 -0.00962944604229)
(0.804087674265 0.0171438254425 -0.0128754564574)
(0.801531133497 0.0151928631982 -0.0125234608172)
(0.747038297011 0.00768756149315 -0.00967888110415)
(0.807626048288 0.0165656127501 -0.012275176819)
(0.810075690149 0.0183920141939 -0.00978579260563)
(0.744173513693 0.00689726399498 -0.00925594639436)
(0.739611212147 0.00710728749577 -0.00765230046311)
(0.806994017043 0.0177233388102 -0.0123607304172)
(0.743472263948 0.00719670051061 -0.00933674931105)
(0.810429601545 0.0170288730403 -0.010405544098)
(0.80562471833 0.015264536622 -0.0132779603731)
(0.803493495625 0.0138648169168 -0.0127990554655)
(0.750654177421 0.00830294267325 -0.00948015419829)
(0.745665184167 0.00969841667555 -0.00945131914171)
(0.802613129732 0.01439667294 -0.0124514062116)
(0.806266937368 0.014649524937 -0.0134805704917)
(0.746090425754 0.00829997732619 -0.00940741309829)
(0.808304203041 0.0157379698361 -0.0120874789631)
(0.811028136192 0.0153439268535 -0.0109322287207)
(0.738151983042 0.00769441796945 -0.00747975983867)
(0.741553362309 0.00956999691228 -0.00886586458305)
(0.808645760351 0.0151157902078 -0.0122127714959)
(0.742235652884 0.00804371860605 -0.00901768049498)
(0.810873725771 0.0161894025706 -0.0109044846753)
(0.807121202443 0.014116030117 -0.0127983556607)
(0.804146856009 0.0135884133359 -0.0124394059218)
(0.74518895596 0.0105656064479 -0.0093624208287)
(0.750350386738 0.0111112794608 -0.00957434245953)
(0.806723808971 0.014337946128 -0.0131642167414)
(0.804854358246 0.0133519062193 -0.012657967896)
(0.745035511773 0.0115139225623 -0.00888326022312)
(0.811000543589 0.0149220072927 -0.0105467084942)
(0.740818844325 0.0104997467103 -0.00865465536982)
(0.808782949173 0.0147144309545 -0.0117854344433)
(0.812259668064 0.00511016080769 -0.000672666743509)
(0.813873017697 0.00374292004799 -0.000799781002877)
(0.814995828842 0.00224144104669 -0.000666312116052)
(0.812837976552 9.94777382059e-05 -0.000593669680098)
(0.805074099757 -0.000617930591969 -0.00021467069764)
(0.832896400834 -0.0480052358998 -0.00020897022348)
(0.812786953257 0.00534809185915 -0.00146116453582)
(0.814250403525 0.00404025252404 -0.000557467949408)
(0.815253890673 0.00309748385658 -1.14313720789e-05)
(0.813727679902 0.000265337465195 0.00244612790168)
(0.805814807067 -0.00096331038519 0.0060490460347)
(0.838071850585 -0.0546414797107 0.00730411561114)
(0.811175168778 0.00552774795493 0.00115808610346)
(0.805418067472 0.00650998339496 0.000445031128153)
(0.783577051353 0.010792911585 0.0015281063205)
(0.780359251027 0.0109867808147 0.00109847017407)
(0.77772366392 0.0115914151552 0.000972147347094)
(0.769645664646 0.0129035550964 -0.00218984399221)
(0.778501097695 0.0143063368749 -0.0429071464708)
(0.709662903227 -0.0108355670405 0.0279726756659)
(0.821053130488 0.00479483233662 -0.000165236764118)
(0.817281015927 0.00330584428138 -0.000276234057726)
(0.814733803466 0.00090470355865 -0.00142211209105)
(0.813744947825 -0.00161552895931 -0.00346165978959)
(0.812198206672 -0.000863121380145 -0.004361214869)
(0.812703043791 0.00195177932256 -0.00444311736698)
(0.803459962766 0.0092559046393 -0.00534783466637)
(0.832884148907 -0.0901707992392 -0.000694134565496)
(0.814728651619 0.0064431140212 -0.000816923515719)
(0.81692434561 0.00485465850419 -0.000894235629022)
(0.817447019584 0.00331946898475 -0.00145125788348)
(0.817135578998 0.00271527339316 -0.00247611215421)
(0.81644254592 0.00275332618173 -0.00245085157831)
(0.816661843217 0.00266785619369 -0.0019177753401)
(0.808482437429 0.00240192503077 -0.000834688777044)
(0.844073162491 -0.0565965461406 0.00288704011927)
(0.811525118352 0.00706454778308 -0.000956305016081)
(0.814431218887 0.00448400062353 -0.000678757915755)
(0.815649606539 0.00273488505926 -0.00100563171361)
(0.816046120255 0.00139081640955 -0.00129046852895)
(0.815345178676 0.000994282506364 -0.00175921789794)
(0.815176855952 0.00013031137189 -0.00134634596858)
(0.806444432674 -0.00138561460568 -0.000330037073302)
(0.836740517856 -0.0674515209218 0.00035191210868)
(0.814696340462 0.00191983855616 -0.000969179429445)
(0.81433390597 0.000980608492543 -0.000791893122193)
(0.805936688656 -8.38628673802e-05 -0.000118424262197)
(0.835136843587 -0.0498632819426 7.02702966454e-05)
(0.634380354605 0.0418534112487 0.015114306093)
(0.6290592838 0.0398643733841 0.0137272124644)
(0.639761573066 0.0246577314415 0.0168656422775)
(0.636600564448 0.0229793235216 0.0154114595806)
(0.633037124338 0.0202383048913 0.0188794015815)
(0.579220301019 0.015755922574 0.0269296146942)
(0.684489923974 0.00213583840476 0.0451189534407)
(0.0786631700756 0.121095907456 0.0764696802809)
(0.769408115904 0.01236324269 0.00907733099161)
(0.76265957174 0.00984643047211 0.00808188503327)
(0.769596287635 0.00299594565453 0.0106261567513)
(0.767122431382 0.00220725378494 0.0130451121641)
(0.766674815789 0.00457512884541 0.0141456280695)
(0.762955570819 0.00808085342808 0.0193136167826)
(0.75633902197 0.0586395300729 0.0328716995831)
(0.757203479688 -0.221351794523 0.051290418386)
(0.816914813792 0.00732542700438 -0.000860683492919)
(0.816724759609 0.00543429151949 -0.000607753454755)
(0.816329313632 0.00569738316278 -0.000652081440209)
(0.816575729536 0.00669137949644 -0.00071447669681)
(0.816364635352 0.00753976361625 0.000557809722862)
(0.818905343622 0.00776894442791 0.00415066860064)
(0.812114341504 0.00996821615501 0.0147055140316)
(0.889585209163 -0.080911346002 0.0200260107258)
(0.812369398299 0.00736167078638 -0.00159618604505)
(0.814889181374 0.00475226556935 -0.00135274020064)
(0.815602331445 0.00332633456321 -0.000772681931015)
(0.81582137099 0.0028671868817 -0.000277769508697)
(0.815471512028 0.00254458302132 0.000819210134314)
(0.817063158741 0.00155223694668 0.00393923296043)
(0.808507737654 -0.000476818072291 0.0105421651306)
(0.851955780709 -0.0875684136722 0.0135331615552)
(0.814881829162 0.00265102983392 0.000569331030341)
(0.815549808566 0.00169668509051 0.00258295449582)
(0.80711630652 3.5564915089e-05 0.00706938390468)
(0.843575334679 -0.0613983363115 0.00902726334561)
(0.630145799663 -0.0143623956937 0.0250573327651)
(0.623445073338 -0.0165465516598 0.02001933457)
(0.627651895127 -0.0198035916671 0.0197755590497)
(0.627889646989 -0.0172234904747 0.021285332417)
(0.633117016611 -0.014363576168 0.0253812634444)
(0.63745013618 -0.00412505489901 0.028895100707)
(0.693555600552 0.0666120846455 0.0843018876347)
(0.711530187731 -0.396127225499 0.0205598507877)
(0.73104104941 0.0062993505487 0.0258888596087)
(0.726914008376 0.00149677815945 0.023732695249)
(0.776963069994 0.00116909396946 0.00837294398)
(0.776135107313 0.0012490507956 0.00929569327639)
(0.778253621068 0.00211531944799 0.0112376561725)
(0.786850640452 -0.000286825542597 0.0112040296687)
(0.797345974085 0.00503719613222 0.0216279612228)
(0.91607983944 -0.242634475152 0.0227105258956)
(0.817736095512 0.00643482811655 -0.00154227693636)
(0.818683417305 0.00504294658235 -0.00145137826192)
(0.817977622311 0.00246988168731 -0.00226618548134)
(0.818482535048 0.0017165469063 -0.00243966377823)
(0.820243917591 0.00195441227642 -0.00214826971336)
(0.829253771184 -0.00013659245267 -0.000754651170062)
(0.822839538679 -0.00471747546257 0.000105508918827)
(0.927647985241 -0.186321827734 -0.00156853042168)
(0.809005811857 0.0110988686395 -0.00285418889618)
(0.812415610528 0.00693029787085 -0.00236360754504)
(0.815643636553 0.0039052791165 -0.00229493990783)
(0.817120604131 0.00228836326846 -0.00200375116301)
(0.817655641082 0.00146081182077 -0.00231636215683)
(0.81851574178 0.00107570801262 -0.00144649147567)