/*--------------------------------*- C++ -*----------------------------------*\
| =========                 |                                                 |
| \\      /  F ield         | OpenFOAM: The Open Source CFD Toolbox           |
|  \\    /   O peration     | Version:  v1906                                 |
|   \\  /    A nd           | Web:      www.OpenFOAM.com                      |
|    \\/     M anipulation  |                                                 |
\*---------------------------------------------------------------------------*/
FoamFile
{
    version     2.0;
    format      ascii;
    class       volScalarField;
    location    "14.55";
    object      p;
}
// * * * * * * * * * * * * * * * * * * * * * * * * * * * * * * * * * * * * * //

dimensions      [1 -1 -2 0 0 0 0];


internalField   nonuniform List<scalar> 
28582
(
17070.5175263
17070.7765905
12172.6061688
12172.7488562
7274.6683012
7274.33830564
3601.32801568
3600.40896113
47.1008749721
51.3753568815
-27.0600221093
3600.61485394
634.540351543
636.51769501
3600.38435558
3600.10914818
637.600246108
1764.40343212
1764.13172793
17069.9075941
17071.5583666
17073.1795173
12172.0020294
12173.6148496
12175.2412276
7274.20941221
7274.43620245
3601.09070106
3600.75580574
53.2068480069
-27.0733640493
-27.0211522437
3599.97466222
3601.40929787
637.034317577
636.620831267
1766.79231721
3601.38055231
3600.30666651
3601.12548182
1764.4592228
643.052447875
1764.2762171
1765.15899149
48.2244423472
50.8643645403
-22.9959272351
-22.9767462088
49.5931770096
-22.9935191541
1764.89120584
1765.16328311
634.818333132
634.34464984
1765.64184235
634.719960292
1764.37951264
1764.97845036
1764.60767674
635.508754392
636.287421575
1764.98978837
635.393167914
1764.35820696
1764.80134751
1764.7853746
638.428439712
637.216696511
1764.91762232
637.97005967
1764.89025251
1764.75431572
639.641076089
639.156880168
1764.60091743
639.18839287
638.628923245
1764.86479412
1763.80669088
638.531643769
638.058549813
1764.23101207
637.44320518
1763.8867571
637.87981875
47.1047469397
-23.0113188239
47.1348893341
48.6123524549
-23.0185560425
-22.9949383605
52.5831200594
-22.9904454309
-22.9713854349
54.2677323516
-23.0141583664
54.9777511224
-22.9926098316
1766.88437697
1766.83830063
637.119160212
637.005490607
1765.75385369
1768.12477101
636.934286361
1765.34619106
1763.10424742
636.878435344
636.029949126
1764.4253736
1763.82782803
636.48635397
635.611082043
635.113472291
1765.20161569
1766.11547168
635.587333457
1764.51961274
636.104533343
1764.80093032
640.044552391
639.617120071
1764.66728573
640.790129527
1764.99336562
640.381730829
1765.06865935
1765.79248883
641.843956705
642.945769247
1765.36678731
1765.79912242
641.589356387
1764.40797452
1763.98479577
639.232893824
638.848677782
640.009857218
1764.56981389
640.252710143
641.402895925
642.847963848
1766.17674913
1765.20761144
643.000654881
1766.10059112
641.579742529
7275.7274636
3602.13030079
56.5957794438
-27.0284381108
3600.27319298
634.755922189
3602.33169424
3603.41451933
644.235112973
644.345721027
648.076247431
3604.67558951
3605.6645124
648.805289222
649.972935553
48.3015141636
55.9564631643
57.3473621788
-23.0104250559
-23.0236552169
-23.0391448451
58.2546144739
58.5660888604
1762.99109472
1764.12244368
635.192035315
635.061180382
1763.45416055
635.460859185
1763.65618134
1767.63008715
1766.42558133
645.51587333
644.355780649
1767.1369611
1766.6797173
645.742822845
1768.01961208
1767.23671587
644.437661501
645.701803971
1767.07648321
645.774942219
1768.21265276
1768.85009982
1769.78195283
648.1281471
647.025272965
1769.58224191
647.052119352
1769.05545262
1770.42302485
1770.29085682
648.860458688
649.339262955
1770.04279176
649.420679836
1770.65573904
1770.81722022
1771.40504269
650.240768113
649.629548516
1771.18685366
649.813318194
1771.04434266
3619.97917839
3613.70590842
3607.096741
3603.98753653
34.6949388437
40.5134933894
35.27410664
40.2332826939
39.8578369529
-27.1091834446
-27.1797654627
-27.0802904516
-27.1627852881
-27.1365379156
-27.1522291486
3623.26371338
3622.28829806
630.726719859
632.352812467
3623.64023039
634.213032924
3619.90748649
3617.26002586
632.305101664
631.639888158
3618.55927386
3616.43905813
3613.77191564
633.806741578
634.578125416
632.363817109
633.288180707
3609.53978879
3604.26014227
633.080966782
628.773893763
632.756993369
630.016060737
3610.8718948
3608.85072789
632.016276877
633.045938452
631.804694625
3602.63249282
3605.56260968
3601.88487375
632.752576859
630.306765498
631.818157712
630.235698793
631.03751988
629.818341641
29.2187387534
30.7654386191
33.366178844
-23.1013276249
-23.0319863007
-23.0778856821
-23.0152795899
-23.0046363661
-23.0644972827
-22.9682652991
-22.9959186805
32.5160914555
33.4212953556
37.4284899774
35.1309683007
37.584758085
-23.0361201737
-22.9862045385
-23.0482859062
-23.0043696976
43.5171011269
40.4458910626
43.4294343934
-22.9054922295
-22.7949416546
-22.9217864301
-22.8073060334
37.5404136166
37.6588766983
-23.0726313717
-23.0296310635
-23.04452564
43.0725762678
40.1777582604
42.6628126998
-22.9719540142
-22.9162422104
-22.990181989
-22.9515787464
1788.79277272
1789.86357515
628.835682165
631.55540361
1790.17257699
629.5613885
1788.51026702
1788.4698484
1788.64650845
632.149491858
630.642322695
1789.71102826
1787.63002751
630.227818124
1789.9199292
1788.95381325
634.265581129
635.559038897
1790.33239828
1788.30404496
635.83559335
1785.37476066
1787.23564812
630.947573847
632.260366972
1786.51680048
1785.86031354
631.179117667
1784.18383358
1783.24466815
631.923240581
630.887539797
1784.49166993
1783.02673732
631.03661215
1784.47066145
1787.18169662
634.841242506
633.341760546
1786.26750259
1785.55555918
634.11542319
1782.47649801
1781.21193475
635.093185801
634.039444039
1784.29904388
1779.57765715
634.334875841
1782.94285439
1782.7986962
632.798682004
632.947758188
1784.09500217
1781.67877456
633.480734054
1781.01941439
1777.3169191
633.671306436
633.247780396
1778.28766951
1779.84393084
633.750163506
1771.72970066
1777.42050644
631.743730886
632.87905298
1773.01430148
1776.00638207
631.667971746
1767.90332378
1765.79873042
630.102653591
629.105388138
1769.09619441
630.182481499
1764.59086151
1770.89983802
1774.23820925
632.862857542
631.991980475
1774.89289383
1770.59173635
631.841687686
1767.10224844
1763.60777444
629.673646838
630.899607412
1766.98297713
630.568118602
1763.68888383
1779.36519925
1781.65506991
632.574063765
631.565119784
1780.51265104
1780.50051574
632.116745509
1777.71680661
1776.3682059
632.909668074
632.736184312
1778.72839884
1775.51424853
632.537741306
1776.63930792
1773.45077782
632.400575557
631.498053502
1774.58245396
1775.37734756
632.127657454
1769.90961524
1773.54242007
632.151113029
632.599539347
1770.22018911
1772.95942571
632.141067156
1766.7391955
1763.5345676
631.180552789
630.409070285
1766.80149415
631.301693535
1763.63985352
1769.42346072
1771.25873165
632.353644344
631.533814364
1772.21398831
1768.73196393
631.99743564
1766.50290026
1763.55228994
630.438778863
630.929143099
1766.11399683
631.276896548
1763.62287277
1766.73687527
1770.11197182
630.808909954
629.982502869
1767.8598855
1768.66564875
629.842485632
1763.40417131
630.312102102
1765.58107117
17069.7116925
17070.1183646
17071.200893
17075.5533879
17078.3762768
17091.0313779
12171.7287679
12172.2046796
12173.4516342
12177.5020022
12179.9610516
12193.3321957
18282.7878032
18289.0851344
17064.0140657
17070.5595416
17075.3842006
17079.3129054
17085.6205333
17068.7998163
18284.7912651
18289.4496546
17068.6236382
17071.6666057
17074.2432909
17076.1390012
17078.2215821
17092.2835793
17065.8578567
17066.3212563
17068.3851876
17070.9424789
17073.4178059
17075.0910017
17076.0517161
17091.2926418
17068.5374191
17068.4487519
17069.4573662
17071.2964002
17073.5598762
17075.7063777
17077.9420436
17092.9465208
17073.0655933
17075.3450182
17077.8139082
17091.7176646
13383.421964
13389.2902548
12170.1895399
12175.0720335
12180.6659931
12187.8201407
12250.9268141
12062.7496888
13386.8197691
13391.278503
12173.7250408
12176.6712282
12177.9283404
12179.2948806
12182.9655647
12192.0359295
12166.7740219
12168.8109835
12171.8542025
12174.2034118
12175.8864463
12176.8886162
12176.873954
12186.99401
12170.2403964
12170.4605877
12171.9708456
12174.0020414
12175.9832781
12177.5379873
12178.9472142
12194.7640095
12175.2768941
12177.1512653
12178.856658
12193.5328914
8484.05709163
8490.50324037
7274.27883808
7276.83652074
7276.41510915
7271.50007407
7260.74651203
7202.59437201
8487.89196869
8493.27932949
7271.64003935
7275.4260773
7276.48061901
7273.03905609
7263.21350632
7257.4932815
7267.44671976
7269.96040737
7272.92825461
7275.25419127
7276.12860875
7273.71936357
7266.16418787
7285.55045508
7272.44128572
7271.52333288
7271.86210226
7273.40919889
7274.97185845
7276.13239515
7275.76515665
7272.22177259
7291.31697024
7273.49796804
7273.80947299
7274.46755394
7275.64683373
7276.58299851
7275.39664521
7292.45837122
7277.42400999
7276.99767994
7292.87003632
3588.15690122
3595.17839036
3602.72789029
3606.8667225
3606.18937162
3605.73424741
3603.80509658
3583.63232657
3586.18968688
3588.74899127
3595.44835178
3601.08215141
3604.29190562
3605.36312063
3603.95345193
3600.2889561
3589.7107046
3598.55409096
3592.54290486
3590.63871905
3594.63212875
3599.97312116
3603.61895476
3605.44668968
3604.65314784
3601.81325794
3603.17294198
3597.12044035
3595.82086625
3596.40997869
3600.03416483
3603.24109458
3604.30848382
3604.4008411
3603.89447193
3608.02451086
3599.10387321
3600.03196245
3601.53814945
3602.58156056
3603.61750686
3604.61251731
3608.94288567
3604.25018855
3606.22788471
3610.80212299
49.5017202926
53.2251562533
56.1852967104
58.4546511838
62.2377485747
62.7838532374
61.5374989219
60.6457420121
45.9806721569
49.2356175711
52.4262190719
55.4466237927
59.6660462873
62.9385544604
61.2500810928
59.8159215356
59.3084366533
57.4568408374
45.7843920658
50.0987860875
53.9506343618
58.5658771006
60.5477369355
59.7593364438
55.9548876688
56.433082449
57.3683026397
56.5804366752
48.2179368854
51.9738372676
55.456119028
56.5447430819
55.4513746504
54.8860687133
56.1906491043
57.4022812795
57.4131748328
49.9309674128
52.0508534657
54.3813553393
56.6063911499
58.308082679
59.513750545
58.6072880262
58.818406595
59.3496913615
57.9408725813
-27.0806168924
-27.2130112177
-27.2933604699
-27.2135692946
-27.0390909122
-27.0499695505
-27.0156148584
-27.0174377157
-27.1008704357
-27.2950654104
-27.2634518612
-27.4353719468
-27.3109775369
-27.1845150709
-26.9996100698
-27.2753113462
-27.0087564378
-27.0741316011
-27.1005511526
-27.2921439274
-27.490025332
-27.0899822445
-27.1454877997
-27.0450299384
-26.9948938371
-27.014543315
-27.0517188757
-27.0389169471
-27.1369350515
-27.3360190121
-27.0860575958
-27.0906093698
-27.0232964183
-26.999865106
-27.0254144499
-27.014303532
-27.0394114489
-27.1245610818
-27.3475648322
-27.0634156772
-27.0258870833
-27.166970191
-27.036429997
-27.0780134818
-27.1371828812
-27.3905232259
-27.0598799065
-27.1414171112
-27.362846866
18286.2536977
18283.0692129
18286.3386039
15833.4555844
15837.1164707
15833.8698369
15837.0393312
18291.0577254
18289.3145671
18291.4953156
15840.0135821
15837.7158148
15839.6234937
15839.7241537
18286.8887348
18287.2405447
18288.0330762
15835.6162196
15838.1318463
15837.7589964
15839.2057251
18291.3010783
18289.6017851
18291.3922575
15840.4910607
15841.6214862
15841.1636202
15843.2631162
13386.6859173
13384.5288851
13387.3629095
10933.3371254
10936.6861966
10934.8727074
10937.8524329
13391.2167605
13389.5647278
13391.9435644
10939.5360779
10941.5976817
10940.2523024
10941.6864024
13389.1846366
13388.4107067
13390.1922885
10937.4368858
10940.1159221
10938.9341546
10940.45265
13392.7457767
13392.1189167
13396.8635065
10942.0646594
10940.2427877
10941.9696565
10946.2441918
8487.43798039
8485.57366262
8488.72990956
6035.71254105
6039.0040643
6036.96321484
6039.89945605
8492.97829786
8491.65384328
8494.16941072
6042.5148081
6045.70078373
6043.07698756
6047.45953635
8490.83133038
8489.14790642
8491.01804136
6038.24765911
6041.19711907
6039.0467075
6041.39967797
8491.88656859
8492.82367027
8496.32736813
6044.19945138
6045.84604869
6044.0643508
6047.7850826
3585.80462515
3586.51854374
627.902231242
630.033655259
3591.19874404
3588.87578369
3591.71681528
629.460563999
633.975407466
631.367829548
636.470768416
3599.33103837
3595.52911261
3599.5023538
636.286261577
644.773602817
638.520837639
646.566372896
3605.61884532
3602.31979465
3604.4306334
647.069328546
650.88730196
648.792765436
652.219238204
3606.48617985
3605.29248874
3605.17379048
651.904889904
654.353878323
653.28780511
654.461085469
3605.82864203
3605.19402689
3604.88286311
653.916232707
652.016223495
653.940223412
651.438191728
3605.63843298
3604.39048984
3604.11664806
651.472080137
651.425113848
650.592935036
648.954769517
3597.10826385
3603.08540069
3596.55996251
651.557775089
650.612987748
648.334074542
645.978623362
3575.01449614
3584.72184871
3592.73980117
654.709602134
584.872782354
647.550608825
610.426396865
3598.24767018
3593.16366935
628.327831435
629.378040823
629.529265488
630.936462406
3586.56288994
3589.83161939
3588.15687492
629.494291908
630.477606679
631.359620544
632.085463092
3591.87709854
3589.08526677
3591.73137521
631.95278791
637.235283471
633.543468377
639.655687555
3598.64306374
3594.92820821
3598.10732456
639.37202542
647.286531434
641.73190015
648.294993497
3603.02175461
3600.95132571
3603.06573895
649.571202515
652.817948436
650.196936727
652.481940317
3604.971188
3604.58231492
3605.43838372
653.268203447
654.128320946
652.237065792
650.610099876
3605.04160946
3605.83151687
3605.5156528
653.514068226
650.974726054
650.151310586
649.569554487
3602.51568867
3604.48035163
3603.17532686
650.362703491
648.457945206
649.728632407
647.73883738
3595.70028188
3601.82581324
3599.71939062
647.661490723
645.238860564
646.572966214
645.057266466
3610.38671499
3598.40613014
3620.83679385
646.752292779
614.338529157
646.764736559
618.937752479
3595.21278518
3598.78987415
3596.52023454
629.704362144
630.998156823
629.676321583
630.698601265
3590.51234662
3594.80895278
3593.46147651
631.452204616
632.46021258
631.273549897
634.084018727
3592.23614209
3593.01703199
3593.66309383
633.835623154
639.95085202
635.246800416
639.457851004
3597.37349039
3595.25291776
3597.50163057
642.102682932
647.893522926
641.067195674
645.360871968
3602.12613346
3600.01710979
3602.2810775
649.475644969
651.862025278
646.600105107
648.652276149
3604.63833426
3603.69609722
3604.58025966
651.59603927
648.867057595
648.46218471
645.992923919
3605.44073784
3605.17860024
3605.24834066
648.365647043
649.01515682
645.179254917
647.047178662
3603.29558407
3604.71657829
3603.77784375
649.31736211
647.391759129
647.553132094
647.456360925
3601.29670378
3602.97800558
3603.4871587
646.452662007
645.573301304
647.27122717
647.962037461
3624.78814742
3606.49730515
3624.4490074
647.417778808
620.109969294
649.665186398
619.771230852
629.486981021
630.786277307
3596.33035353
3599.27521835
631.523133586
634.63055252
636.134149318
3595.74870735
3598.71570073
3598.07179539
635.806218527
639.086284827
636.911023116
637.220165073
3598.05861435
3597.88499437
3598.71701985
640.263168054
643.886456149
637.394390045
639.803391908
3601.92692808
3599.99404024
3601.31708287
645.062925874
647.245865191
640.841642182
643.248215211
3603.92116745
3602.30256957
3602.87989266
647.291787817
645.612073059
643.778607042
644.563667672
3604.47797608
3603.24668355
3603.58135989
645.08617303
646.487535697
644.60410511
646.249583424
3604.07407342
3603.88319205
3603.96927431
647.23169355
647.923046383
647.292971783
649.205257601
3604.80099791
3604.07349502
3605.37619589
647.815909541
648.463296756
649.691263616
650.428327335
3623.60956323
3608.47859861
3623.29589048
650.190567797
618.199203794
651.392634586
618.057435717
3599.26997625
3599.91902369
636.483624272
638.650911496
636.817123342
3600.85084248
3600.19528808
3600.56270282
639.786757327
642.216054274
637.992412888
640.025503124
3602.11241312
3601.02666324
3601.68871097
642.807690656
644.248895981
640.594039665
643.107541706
3603.08094512
3602.26670233
3602.97523938
644.487557238
646.320108985
644.007429364
647.323044077
3604.13464808
3603.70396481
3604.63078539
647.391746194
649.650730952
648.318354292
650.441967562
3606.01310324
3605.40363605
3606.93132571
650.28703988
651.168200008
651.021686753
651.82367528
3623.10485831
3609.74471152
3623.56785457
652.016170427
617.881125903
652.257150432
619.982408783
3603.16888792
647.795877687
3605.27840147
648.70203985
650.498379033
3608.00315056
650.99300526
651.652988455
3624.31878934
651.947827165
620.999111217
-23.0652645765
-23.0093155759
-22.9899385331
-22.9334408505
47.4080790289
49.1454690121
-22.976431837
-22.9504214285
-22.8928486702
-22.8578083254
50.883808193
51.0707722619
52.4835309356
-22.9608291473
-22.877047463
-22.8646147058
-22.8241108988
54.9627184347
53.9892554752
56.2237507335
-22.7746708365
-22.8676648339
-22.7854528496
-22.8395392237
56.8490046383
57.906988682
59.1560818369
-22.88064023
-22.8861656999
-22.8473563628
-22.8487950142
61.0644513647
61.3576677236
62.781253246
-22.8981850144
-22.893574874
-22.8685092826
-22.8640397035
62.6213285791
62.577792414
61.9896550741
-22.8291284588
-22.8094356709
-22.8243248781
-22.827746525
62.4078063529
61.7252015381
61.157957911
-22.8239893654
-22.8801870786
-22.8514279277
-22.9050417525
59.6115046272
60.4047591335
59.6484708611
-22.9770481496
-23.0613401196
-22.9879312314
-23.0611310633
69.3106552554
57.5823999577
65.0712214709
-23.1250612434
-23.0456437864
-23.1251908328
-23.0663943851
47.9209335963
45.9970361888
48.0659518498
-22.8544789965
-22.8123797355
-22.8107550369
-22.7931210575
50.5750237337
49.9370010755
51.5329889254
-22.8548220117
-22.8436597925
-22.8883146216
-22.9033390213
53.97393991
53.5580154781
55.8029518741
-22.7825218876
-22.771694123
-22.8579415606
-22.8469270741
57.8861869233
57.5166640042
59.3428854189
-22.7909942338
-22.8633348637
-22.863286139
-22.9055393189
61.240557824
60.938507164
61.8153223265
-22.8896199611
-22.8770931854
-22.9170649784
-22.9131083356
62.687839811
61.9906063193
60.4326285
-22.8540268869
-22.8786273613
-22.9281935016
-22.907503491
60.1919437069
58.6365657421
57.6972207912
-22.8743798989
-22.8855726276
-22.8863571738
-22.9142854016
59.5488446661
57.6749800483
57.8843485556
-22.9128771431
-22.9524808016
-22.9441505703
-22.9810109582
59.5517205832
58.184994874
58.8749846021
-23.0142494552
-23.0726041305
-23.0344937573
-23.0841922948
65.2210604199
56.9508173701
64.3527293331
-23.1276351714
-23.0623857352
-23.1320861382
-23.0613922731
48.0568096432
45.2216410681
47.5340591245
-22.935546578
-23.0182410849
-22.9813045755
-23.0662444325
51.9649181372
49.59967933
51.6376315733
-22.9502654557
-22.9101811048
-23.0059216336
-22.9556345631
56.5026952356
53.7074737723
55.9976251644
-22.8637043247
-22.8303227214
-22.8937032965
-22.8483681228
59.6924717243
57.8676495451
58.8301303151
-22.8283569779
-22.8396523056
-22.8217343765
-22.8231564811
60.803779552
59.0144105315
58.4967447801
-22.8429068131
-22.8590530613
-22.8267651292
-22.8486767526
57.3401238263
57.1507420132
55.3999336971
-22.9083862009
-22.9220469414
-22.9133394147
-22.9321640429
55.9466794506
54.6047269223
55.2369630782
-22.9344574358
-22.943641203
-22.9547447097
-22.9634242836
56.8768783108
55.9452300232
56.5636869937
-22.9633424615
-23.010018734
-22.9791600027
-23.0344852506
58.1335013563
56.9837119128
57.9680507986
-23.0596108067
-23.097213003
-23.074358154
-23.102262899
63.7120287461
56.7538947837
63.2824909194
-23.1474346258
-23.0655890836
-23.1482228474
-23.0651306698
50.0373333424
47.7159728788
-23.0364126355
-22.9834843162
-23.0044460214
53.9307970605
49.29732488
50.9372775212
-22.9169072317
-22.8690956858
-22.9540602959
-22.911945407
56.3017660877
52.2236200602
53.1255993319
-22.8408356514
-22.839736135
-22.8883050305
-22.8852160981
56.184592273
53.8496891726
54.4241829245
-22.850660824
-22.8672838571
-22.8916073938
-22.9004342916
54.8512801489
54.7566190961
55.0542676339
-22.9236981556
-22.9514594959
-22.9426494142
-22.9736358753
55.493619817
55.6430241591
56.3365435805
-22.9729549273
-22.9922834552
-23.003306702
-23.0227783625
56.7264981686
57.1453693782
57.8598286668
-23.0143655927
-23.0464038102
-23.0318220189
-23.0545802998
58.6891551768
58.5558081642
59.9817928987
-23.0793962647
-23.1018735084
-23.0841521602
-23.1029769195
63.1021566818
58.1375878822
63.115419019
-23.1423278687
-23.0574965576
-23.1398157426
-23.0590124401
50.887537761
49.4672116495
-22.9778502864
-22.9696363347
-23.0000749499
-22.9909576997
53.2816724211
50.9156869304
52.4348682772
-22.9592765495
-22.9377243975
-22.9767098335
-22.9593274117
55.619835037
54.0210336372
55.6260307093
-22.9813354525
-22.997625436
-22.9745253447
-22.9951279264
57.3929931467
56.9230036422
58.0220818862
-22.9919981213
-23.0124919733
-22.9974618545
-23.0167342035
59.1947924061
58.9609382721
59.8108534794
-23.0242245309
-23.0432186791
-23.0251731073
-23.046155098
60.8547363592
59.7934238339
60.8442900065
-23.0730739909
-23.0948572936
-23.0766103189
-23.099227864
63.1970255601
58.3964155283
63.2998148221
-23.1357751746
-23.0620160818
-23.140627402
-23.0672001985
57.8472853602
-23.025610392
59.4958005003
-23.0395435627
-23.0610998748
-23.0560560942
-23.0739517202
60.3280767386
-23.0907275628
-23.1147041386
-23.1014614523
-23.12810559
63.1320520428
-23.1516359638
-23.0756765004
-23.1636703016
-23.0898358439
1750.04510442
1750.64501892
626.163944742
628.527629898
1750.89657288
626.732516488
1749.7840494
1750.29708928
1751.39041423
629.300480483
628.824460168
1751.18712151
1750.75564004
627.748019118
1753.30623818
1751.70764437
630.848572325
630.084477394
1752.08890098
631.435321853
1752.93670279
1754.96947716
1756.81422914
632.138284438
634.719284558
1757.25015812
632.806765103
1754.59847215
1753.84615819
1752.59321895
630.730847734
632.96140061
1752.44708546
1754.12922416
632.199336811
1755.66576552
1758.165477
635.627960442
634.62839986
1757.84838457
1756.05106219
633.759160023
1762.56529255
1759.33974358
639.132965703
637.045955285
1759.77652065
639.752944618
1762.17419339
1765.39748434
1767.94841182
642.258990135
645.33440453
1768.06523456
642.790146568
1765.14519023
1762.8882941
1760.36672956
637.815505046
641.053128488
1760.19006405
1762.89218019
640.441945678
1765.60584968
1767.72081339
646.003775513
644.050569526
1768.12849352
1765.42394138
643.458425837
1771.45217615
1769.97051973
648.626449879
647.620054446
1770.04113177
649.128083256
1771.3925818
1772.4807565
1773.70386765
649.800736089
651.497060297
1773.29345205
650.290304567
1772.3445261
1771.36696793
1769.63088826
648.284002712
650.306699594
1770.03322137
1770.93100426
649.725106908
1772.30462455
1772.37288372
651.90194273
651.245206406
1772.95401061
1771.78209454
650.734212843
1773.97278866
1774.48649247
653.069769834
652.618498938
1773.8263117
653.46912276
1774.72556496
1773.65023945
1773.55643401
654.154500795
654.40462921
1772.81911468
654.311445096
1774.43289711
1773.23893318
1772.68985899
653.172405992
653.920296494
1773.3210638
1772.59794053
653.857150134
1772.93566187
1772.00579277
654.446175669
654.360156231
1772.2962452
1772.44879136
654.374627196
1770.83032747
1772.55315496
653.471971257
654.021552123
1771.9315726
653.56797776
1771.21805755
1769.72888051
1768.80436484
652.666503133
651.98859532
1768.6362981
652.766410249
1769.92681077
1770.72167557
1771.58217589
653.964728989
653.347924952
1771.61487219
1770.89035393
653.532018494
1769.77953111
1769.18523615
651.742239871
652.410433942
1768.75374444
1770.10387637
652.676257627
1767.63757695
1768.16226139
651.187760734
651.244851472
1767.87442714
650.831386199
1768.19452042
1767.75189208
1769.52407394
651.272946865
650.642709581
1767.98048857
650.758250684
1768.73914872
1767.45612056
1768.36558094
650.889666814
649.899385705
1767.91707536
1767.69850951
650.248642936
1767.20082706
1766.59181177
649.678991737
649.404938388
1767.0581381
1767.17087511
649.943339218
1767.29416527
1769.86846209
651.057008567
650.446320397
1767.72176063
649.74013697
1769.8319786
1766.14126879
1765.84194831
650.309382142
648.637478534
1763.98508711
648.687192438
1768.72417189
1765.55552569
1765.5972518
649.283126046
647.43373424
1766.41127352
1764.29809221
648.472751879
1764.02293285
1760.26295281
647.269935281
646.32671083
1761.67685374
1762.47141218
647.430325929
1752.93530665
1760.25266047
671.921809083
651.491119173
1759.49026412
663.539542513
1751.65150912
1738.88777086
1739.4441704
720.687232577
625.975438941
691.387569075
1748.93501102
1734.67955473
1750.81897113
1756.50333788
649.607493334
653.764752249
1757.44584813
1750.74445685
657.038032597
1735.12037866
1763.96426336
593.564123787
662.878434699
1737.02115
667.331319587
1755.22923759
1759.49770854
1762.539376
628.701671307
628.72517583
1759.56239105
629.178760041
1761.85332722
1757.09536777
1754.29549777
629.34835942
630.221962424
1756.42434525
1755.23214162
630.026037512
1759.27691011
1761.02222403
629.156812632
629.704412085
1759.23842493
629.417085518
1761.1679134
1757.48524631
1756.35712716
630.692191876
630.42659468
1755.98348409
1757.73539718
630.205568696
1752.52331121
1752.72701651
629.415808265
630.356375779
1751.58309819
1753.80296467
630.337748098
1751.87288056
1751.44398897
629.548246703
631.162903725
1751.12867087
1751.805138
630.257360325
1753.23645235
1754.97658732
631.072697024
631.31755873
1754.53384414
1753.84291107
630.995811441
1752.44883477
1752.41669325
631.8213046
631.254335008
1752.11898146
1753.04360009
630.990507583
1754.14654611
1752.54047972
633.748426988
632.577338881
1754.10076509
1752.68251512
634.355565492
1755.87798164
1758.01616731
635.403052787
638.001654069
1755.97182168
1757.79534387
636.13215809
1754.01697172
1752.80867487
633.169250119
635.446560041
1752.71229394
1753.97745757
635.0812485
1755.62883246
1757.34530116
639.030706718
637.53486424
1757.5642419
1755.51598937
636.979586977
1762.11382999
1760.16711644
641.818148582
640.123747017
1762.5626743
1759.86429865
642.476502803
1764.34969498
1767.17061613
644.725650106
647.791593246
1764.95812329
1766.51530136
645.259452545
1761.60531455
1759.15081105
641.142810702
643.849901465
1759.50301911
1761.20153563
643.338671917
1763.7828664
1765.39653442
648.306221956
646.109161987
1766.05250598
1763.37713267
645.841782499
1769.77315003
1769.1265512
651.115658248
650.008542173
1770.5053979
1768.42674311
651.626042816
1770.55432455
1771.72514047
652.172746677
653.081304585
1771.29761048
1770.9603753
652.676435969
1769.20277349
1767.05566288
650.44139921
651.534934385
1767.89962194
1768.30959169
651.88095632
1770.00781172
1769.92760967
652.944424359
652.298292077
1770.49840039
1769.25281653
652.71672928
1771.7877918
1772.05791627
653.773539632
653.171884008
1772.28057329
1771.34152223
653.394880044
1772.14734348
1772.11533502
654.149827649
653.296403374
1772.37408373
1772.2090235
653.51455737
1771.51599361
1770.52826556
652.779934005
651.772292582
1771.0100666
1771.05633344
652.690723293
1772.08834698
1771.96087233
652.082529564
651.206303149
1772.25669833
1771.57617925
652.505897223
1771.39849907
1771.6560766
652.754085075
652.85119666
1770.99408594
1771.93755112
652.058645508
1770.88681954
1769.59566843
651.705159581
650.606892414
1770.30995591
1770.38884519
651.104808215
1771.84069572
1772.14445026
651.592032655
649.732633931
1772.06003947
1772.31208828
650.987263339
1771.57727251
1772.10806149
650.103322335
649.488095061
1771.22991108
1772.32206011
650.306470516
1769.06440761
1768.90589561
649.73769735
650.245875886
1768.21085054
1769.83948597
649.673331641
1768.0294812
1766.44195313
649.147809255
648.038076236
1767.44088657
1766.6474335
648.89113762
1769.89689761
1771.57663423
650.064317118
649.474418658
1770.69094361
1770.71675898
649.628336622
1768.69111111
1767.69397481
647.795288552
648.806289132
1767.10376449
1769.4193664
648.844185703
1763.36137992
1765.11205376
646.682421822
647.072715852
1763.51867685
1765.06951826
646.06461047
1761.54710243
1759.8429309
645.621696584
644.75057812
1761.63793339
1760.09647936
645.038375539
1763.79720986
1765.94265753
646.699469067
645.726845007
1765.44407679
1764.34405255
645.771021559
1762.19258585
1762.05487884
644.964245954
644.941798138
1761.00511406
1762.96441365
645.000400818
1753.93262768
1757.32921583
652.791358935
646.224152487
1752.66189975
1758.18053588
652.214671762
1742.61777757
1769.76951698
660.770723846
615.839320813
1740.92486636
659.923949758
1772.69298079
1755.71341535
1760.78001105
646.61133802
652.687356442
1759.54262411
1756.92694391
652.580264507
1744.60324032
1774.78524872
617.347984603
659.944956794
1745.50341765
659.787597294
1774.49999583
1759.17302889
1760.96370744
629.864333561
629.750170261
1759.12320005
629.872046431
1761.1093593
1757.65288614
1756.44649779
630.512994142
630.951041897
1757.70292698
1756.47761226
630.451373628
1759.33226554
1761.41468714
629.772534534
629.726115853
1759.71566833
629.787999734
1761.22685096
1757.88460935
1757.56892174
630.718389302
630.13074498
1756.84154753
1758.44985555
630.217997209
1754.9897424
1755.28894039
631.585937646
631.391741326
1754.36678948
1755.63057106
631.632234773
1754.66217733
1753.09657272
631.674002207
632.792812976
1753.7962321
1754.32162699
632.030052066
1755.89880754
1757.22143337
631.231059794
632.001322258
1756.25307591
1757.08581558
631.748729791
1755.67190804
1756.99040903
633.490491856
632.997144473
1755.50669615
1756.99568298
632.505386033
1754.95487167
1753.24883744
635.637362972
633.901451946
1754.20366195
1754.30822898
635.870526269
1756.03177286
1757.15387866
637.786341958
640.07770567
1755.52625137
1757.47785819
637.967102381
1756.16895239
1757.09915073
634.598610376
636.450376615
1755.71404448
1757.33206383
636.086343549
1756.87420804
1758.36965314
639.641920664
637.891514803
1757.96672453
1757.72240844
637.783888025
1760.87806192
1758.84234283
644.142900998
642.095501316
1760.78711374
1759.06700649
643.950978501
1762.80279437
1764.56635097
646.051613998
647.263927858
1762.66906472
1764.5388888
645.582313952
1760.61729385
1759.35025979
641.495137656