/*--------------------------------*- C++ -*----------------------------------*\
| =========                 |                                                 |
| \\      /  F ield         | OpenFOAM: The Open Source CFD Toolbox           |
|  \\    /   O peration     | Version:  v1906                                 |
|   \\  /    A nd           | Web:      www.OpenFOAM.com                      |
|    \\/     M anipulation  |                                                 |
\*---------------------------------------------------------------------------*/
FoamFile
{
    version     2.0;
    format      ascii;
    class       volScalarField;
    location    "9.8";
    object      alpha.water;
}
// * * * * * * * * * * * * * * * * * * * * * * * * * * * * * * * * * * * * * //

dimensions      [0 0 0 0 0 0 0];


internalField   nonuniform List<scalar> 
28582
(
0.999998107583
0.999992240917
0.999997559175
0.999994673702
1.0000003709
1.0000004597
0.999997793725
0.999998076629
0.0522226559068
0.055379857198
2.49593778366e-06
0.999998010872
0.882673335148
0.879445856118
0.99999780988
0.999998173707
0.876272679118
0.998818325806
0.998831885068
0.999998986573
0.999994600701
0.999998073516
0.999998639113
0.999995806122
0.999998262917
1.00000106494
1.00000095469
0.999991614154
0.999997379187
0.0571605568104
-2.90168614245e-29
-1.93688075424e-26
0.999989578164
0.999997897588
0.879360309117
0.877014698614
0.998725919672
0.999995692897
0.999998145511
1.00000239753
0.998834725265
0.862578203702
0.998823193836
0.998743168108
0.0530746789757
0.0554114889487
0.000356099198539
0.000472959171258
0.0540917098442
0.000440238425464
0.998982423451
0.999097704339
0.882008422585
0.884028053441
0.999110284385
0.883551576731
0.998969165756
0.999064594705
0.998880554753
0.881024604143
0.881027015988
0.999004100486
0.882653241839
0.998941365169
0.998875906514
0.998831653038
0.872723206355
0.877819752222
0.998934322854
0.874034112662
0.998789640781
0.998769356113
0.866731992815
0.868086739169
0.99884100558
0.86974901009
0.870854356234
0.998761355264
0.998814708385
0.868449008348
0.8709113683
0.998855745669
0.874187904941
0.998853211263
0.871741398906
0.0526504291631
7.34215642205e-05
0.0530159784138
0.0534670864742
6.02500130366e-05
6.29306098836e-05
0.0566242033158
0.000346878577368
0.000360686382546
0.0580266520572
0.000402832325837
0.058746192622
0.000364987069224
0.998440622176
0.998582251749
0.878568575844
0.88060407894
0.998467315591
0.998556904745
0.879838893634
0.998355203781
0.998360969102
0.877833461106
0.878549884715
0.998384594001
0.998317983644
0.879243455622
0.882307451999
0.881935508679
0.998710293703
0.998536334527
0.88021634966
0.998515311347
0.88062314115
0.998787186554
0.8643318584
0.865778490041
0.998852729226
0.86351506469
0.998802564001
0.864049911825
0.99885317975
0.998781037566
0.863029389797
0.862108802542
0.998799588754
0.99883846589
0.862658472049
0.998769984028
0.998791377214
0.866262143522
0.868132937
0.865524704258
0.99885508762
0.864205945326
0.863600996558
0.861635115944
0.998724829224
0.998862042184
0.862612624929
0.998850586894
0.863070137626
1.00000086096
0.999994939381
0.0601101215951
-5.9153742205e-27
0.999997297586
0.881379718014
1.00000262846
1.00000266615
0.861390393857
0.860219985322
0.857641303565
1.000000145
0.999997932192
0.857316220878
0.856726520896
0.0531398867151
0.0593147915449
0.0607942996798
0.000351127520084
0.000359068249729
0.000348693216282
0.0620780086249
0.0628326967599
0.998504417644
0.998701632289
0.879472651488
0.880591938308
0.998513967152
0.878505815972
0.998693409541
0.998722623343
0.998728768448
0.859497994239
0.861148404965
0.998643543613
0.998800034718
0.859790371278
0.998751073252
0.998686351517
0.862014256038
0.859085649447
0.998814392022
0.861069496262
0.998633766734
0.998667210345
0.998520042437
0.858515473888
0.858112250166
0.998585307403
0.859733884412
0.998568298995
0.99852831263
0.998499676253
0.857568090308
0.857327745677
0.998531896464
0.856527325257
0.998491838477
0.998527752855
0.998528256872
0.854536855759
0.857134616672
0.998545807079
0.8556174367
0.99849512972
1.00000431582
1.00000021325
0.999999548578
0.999997271159
0.0325038105916
0.0410804712651
0.0360723466007
0.0415513367206
0.0418981702052
2.12598566872e-07
2.30390042881e-05
1.82606757674e-06
1.16234555217e-05
7.44019778471e-06
1.15034929369e-05
1.00000098323
1.00000078974
0.949675397878
0.951167922534
1.00000147216
0.951556653641
1.00000172771
1.00000214494
0.951424708705
0.950829934149
1.00000668245
1.00000219567
1.0000036134
0.951609626573
0.948723504569
0.949686053742
0.933447710588
1.00000020834
0.999995547648
0.940778629616
0.891647232046
0.921825678674
0.880399411216
0.999999452256
0.999998425534
0.945870720541
0.925873360524
0.911337781982
0.999994633796
0.999997217056
0.999992844482
0.91578060009
0.879475348019
0.902871944666
0.877034297861
0.901066169071
0.877053927266
0.0306306031799
0.0303249362017
0.0321155047688
2.55025543847e-05
6.09752568888e-05
2.66087239141e-05
7.7217282274e-05
0.000189088095559
0.00091239538435
0.000221293959603
0.000639918825213
0.0303099468209
0.0308050431075
0.0363642414062
0.0338955166769
0.0380756912098
4.20041741086e-05
0.000133835637627
0.000102229981777
0.00022552927185
0.0443332434039
0.0412701634099
0.0443151123689
0.000283836535288
0.000553960501766
0.000359886312888
0.000592986083163
0.0388300087743
0.0394072971944
0.000225230298675
0.000328053980127
0.000388236558046
0.0443937647882
0.04190279575
0.0442543372646
0.000412295421394
0.000561427651308
0.000442789639305
0.000551894797717
0.99971569422
0.999686860841
0.949430538228
0.950336372687
0.999708387317
0.950116199083
0.999695557515
0.999708833106
0.999729809273
0.950746185625
0.951073346571
0.999699941016
0.999731273005
0.950597084413
0.999750633024
0.999737525937
0.951214584844
0.952295277373
0.999707566829
0.999779774175
0.952021706254
0.999739059314
0.999747491158
0.951392013729
0.951543853054
0.999749492208
0.999738031947
0.951572304428
0.999745425149
0.999772743135
0.951497687472
0.950950798358
0.99975780575
0.999750992231
0.951488236918
0.999792579899
0.99975325734
0.952091828709
0.951612304895
0.999786788312
0.999747274792
0.951740932199
0.999846762644
0.999936811812
0.950778069709
0.945985698935
0.999865723683
0.999913805105
0.949861859172
0.999789457158
0.99976178407
0.950935564572
0.94749479238
0.999791740378
0.999784787728
0.950175206243
0.999836940383
0.999791727799
0.939654908404
0.941674290079
0.999841581366
0.999806314981
0.946018811484
0.999745279372
0.999917064048
0.929207045482
0.936114400109
0.999830474968
0.999865800224
0.922288535052
0.999556634642
0.999376672749
0.911855690704
0.88628782546
0.999647053231
0.904762424367
0.999241962663
0.999641066565
0.999753779237
0.928887870139
0.907816812759
0.999775550317
0.999598315614
0.915105778272
0.999439654731
0.999146540063
0.883988226247
0.893454998102
0.999395394651
0.899770117042
0.999149757461
0.999692585502
0.999759867531
0.941532846539
0.941250713865
0.999762638938
0.999685089837
0.935756690081
0.999691795487
0.999704972819
0.934577722131
0.918822926095
0.999739212649
0.999642543044
0.928266958083
0.999653383808
0.999566443066
0.915100921868
0.919302107254
0.99962222824
0.999616183305
0.923669742936
0.99943597948
0.999649197691
0.903822681809
0.908843214674
0.999521357393
0.999562683726
0.898817284177
0.999281132761
0.999104650562
0.891318883418
0.877892198462
0.999354154584
0.888335208212
0.999056024578
0.999416688477
0.999493265908
0.906138572939
0.894433464926
0.999564289549
0.999362045124
0.896674488299
0.999236868449
0.999015804192
0.877316134337
0.885725230639
0.999206948592
0.886918930325
0.999016117165
0.999308053193
0.999455123313
0.892801602133
0.899911762286
0.9993189821
0.999420871045
0.892021115335
0.999005790917
0.885092537244
0.99916991757
0.999996610882
0.999991006048
0.999994486125
0.999997957541
0.999997704632
0.999992196744
0.99999662133
0.999995777504
0.999996555274
0.999999118686
0.999998232147
0.999990933295
0.999999579043
0.999998380386
0.999939753212
0.999974021168
0.999988687462
0.999992999808
0.999995683756
0.999990373586
0.999996250447
0.999997793364
0.999989909903
0.99997807904
0.999977023303
0.999979154541
0.999992376144
0.999993564089
0.999997593781
0.999993964858
0.999988898257
0.999992042757
0.99999617342
0.99999878232
0.9999992057
0.999995298568
0.999998023624
0.999992776815
0.999990710449
0.999995752214
0.999998954149
0.999999228559
0.999997135183
0.999991606018
0.999998473824
0.999999242663
0.999998713195
0.999991716909
0.99999779181
0.999838551305
0.999921788658
0.999993450655
0.999999308513
0.999998944903
0.9999687592
0.999931326097
0.999982413047
0.999987161095
0.999906248086
0.999959518708
0.999994420633
0.999999087025
0.999997746744
0.99999103438
0.999994441145
0.999988355784
0.999979141294
0.999982001994
0.999992808908
0.999998774889
0.999999343495
0.999998277184
0.999998562243
0.99999748097
0.999997734193
0.99999835245
0.999998939016
0.999999109464
0.999998388695
0.999996950423
0.999998591657
0.999999256326
0.999998208358
0.999993926949
0.999991716315
0.999822196536
0.999957650322
0.99999872608
1.00000453245
1.00000551627
1.00000043251
0.999975379355
0.999954888817
0.999965102057
0.999954450956
0.999990017584
0.999999958869
1.00000539633
1.00000773592
1.0000056744
1.00000109143
0.99999822233
0.999997015666
0.99999857269
1.00000031482
1.0000022294
1.00000352958
1.00000375272
1.00000023218
1.00000046573
1.00000037378
1.00000047089
1.00000083277
1.00000134469
1.00000167253
1.00000172103
1.00000190178
1.00000058485
1.00000083061
1.00000122571
1.00000168251
1.00000188077
1.00000190813
1.00000224949
1.00000070682
1.0000006693
1.00000111625
1.00000472184
1.00000245115
0.999985823198
0.999992508696
0.999997193062
0.999996252395
1.00001293595
1.00001772938
0.999987836349
0.999994020701
0.999996451602
0.999995264207
0.999995317474
0.99999020322
0.999979969203
0.999985115688
0.999983123231
0.999989480634
0.999990031548
0.999990521879
0.999991503168
0.999992640659
0.999990424018
0.999985013458
0.99998428698
0.999989878163
0.999990340893
0.999988635698
0.999991001134
0.999992523073
0.999993203207
0.999992337053
0.999991794169
0.999991596812
0.999988613828
0.999986661135
0.999986363969
0.999988751511
0.999991611507
0.999991028263
0.999987128209
0.999985335406
0.999985287954
0.999993778323
0.999996816709
0.999997493997
0.0574144198231
0.0573871047284
0.0544897263005
0.0532895208371
0.0557245430905
0.0602720572043
0.0645872325837
0.0654396346102
0.0457339258968
0.0504393838248
0.0574081219935
0.0584606538477
0.0558473319652
0.0557354475603
0.0587730610345
0.0627546022254
0.0651421727756
0.0645959570268
0.0457775574706
0.050677161508
0.0565197922803
0.0570667685913
0.0572205562188
0.0591467787124
0.0622106482398
0.0652253272805
0.0656178046448
0.0640564719867
0.0490680979665
0.0543781397315
0.0552809996252
0.0568481061614
0.0593679047404
0.0621976985456
0.0649228748314
0.0656438965713
0.0653435069944
0.0541598354557
0.0555909554092
0.0570854596507
0.0613938560044
0.0634059189452
0.0650613346778
0.0662345087891
0.0624730544026
0.0641696802851
0.0654486487174
7.20142741099e-05
-2.35098870164e-39
4.13858068952e-25
-2.31264941168e-25
3.23773487385e-07
2.72585235324e-06
2.99255142486e-06
-1.94809239044e-29
-3.38243592011e-28
9.78703879062e-05
0.000109433970176
9.59757762843e-05
2.66265111188e-05
-8.27012618094e-25
1.6199903275e-26
2.43550244446e-05
3.47048463763e-05
-2.89938652236e-26
-3.49127325465e-27
5.48261783673e-05
7.93075509127e-05
-1.21951375873e-25
-2.57075107992e-29
-3.81690126018e-29
-1.38767956563e-25
5.94083907366e-06
9.6889821374e-05
-5.96313473933e-24
-5.32673197759e-25
5.36850989641e-05
1.48341968113e-07
-2.82544826812e-28
-2.98385536258e-27
-8.90543695058e-28
-1.65436122511e-24
5.50042023806e-05
-2.35643468514e-24
-1.25511666167e-25
5.92452127468e-05
-4.37909502232e-28
1.0410331976e-05
5.59565810545e-05
-1.94014121593e-26
-1.40150224447e-25
-4.5659554167e-26
6.93167111501e-05
-2.65766197305e-27
-4.2030549718e-26
9.83580295853e-05
0.999999727828
0.99999834263
0.999997568363
1.0000005459
0.999998712332
0.999999336781
0.999998406188
0.999990538713
0.999997222858
0.999997800174
0.999949312909
0.999849098842
0.999986135457
0.999943851068
0.999996759296
0.999990223465
0.999991130325
0.999996366972
0.999996552349
0.999990059597
0.999994409963
0.99999780563
0.999995708991
0.999995892154
0.999993155912
0.999986497784
0.999995814101
0.999995249331
0.999978964484
0.999998005254
0.999992983599
0.999994408539
0.999974876546
0.999993247888
0.999967101378
0.999793121188
0.999926601697
0.999811114431
0.999836839032
0.999789807577
0.99981457771
0.999790324218
0.999991588228
0.999975435849
0.999987149004
0.999970446685
0.999982452453
0.999971090075
0.99998824965
0.999953559062
0.999995813596
0.999995814101
0.999955722875
0.999851518187
0.999989505262
0.999984876407
0.999973016583
0.999987837747
0.999970724037
0.999983174191
0.999980264973
0.999987107772
0.999985012069
0.999809968948
0.999837355383
0.999796487026
0.999909148454
0.99990787861
0.999934617774
0.999918253163
0.999983936989
0.999986405275
0.999992777095
0.999984963965
0.999990686582
0.999996899357
0.999997046567
0.999871148286
0.999990704852
0.999979533167
0.999981667933
0.999960203413
0.999997275036
0.999998158264
0.999981748929
1
0.844647940394
0.842656679858
1.00000756331
1.00000838884
1.00000903352
0.848236323564
0.86128245532
0.847317278352
0.859874300831
0.999990972903
1.00000182613
0.999996749022
0.864156680506
0.87007309704
0.863225041995
0.868716702591
0.999987838029
0.999996244071
0.999994609286
0.872147715045
0.875548743735
0.870572658498
0.873342761406
0.999995509036
0.999994850351
0.999998829817
0.876841989664
0.877696881859
0.874283980404
0.873821983801
0.999994659876
0.999999728837
0.999998828188
0.876575147343
0.864236786175
0.870944190155
0.852933953056
1.00000373421
0.999996029252
1.00000157804
0.857953483102
0.846216453839
0.84692673862
0.839808078977
1.00001860404
1.00001840765
1.00002788034
0.846028540929
0.84184013708
0.839999333465
0.834160573116
0.999967419301
1.00000783863
0.999966146718
0.842685474555
0.807857682619
0.836608723491
0.83200880475
0.999995583219
0.999992930239
0.87511892355
0.842116003575
0.870239932332
0.853249573845
0.999987565512
0.999989915568
0.999988822645
0.841720129635
0.844581463569
0.852613785113
0.854753133931
0.999995889085
0.999988165813
0.999989136872
0.848508960677
0.858597095383
0.856632913013
0.862604002842
0.999995732372
0.999987779365
0.99999009122
0.861740845974
0.867702744883
0.863815314124
0.867863145979
0.999995681302
0.999989836425
0.999991837048
0.869618657521
0.872534914113
0.868890833173
0.868655756928
0.999993989676
0.999989887423
0.999990468122
0.873184219848
0.871850934283
0.866701529805
0.855078241801
0.999981325936
0.999986595538
0.999980348784
0.867795104774
0.848642468333
0.850055540903
0.83772130973
0.999981736477
0.999981380719
0.999983758689
0.843635288423
0.839166469065
0.837035931868
0.839955911302
0.999989539082
0.99999035895
0.999990753444
0.839657445686
0.834306436186
0.841019669516
0.839006861598
0.99996679169
0.999987424184
0.99998678789
0.837025559246
0.834603579337
0.843175550845
0.839114228499
0.999991412754
0.999990864038
0.999986825843
0.870652569044
0.856801249432
0.871813569739
0.868597479149
0.999990468098
0.999993930409
0.999994062221
0.855996097392
0.859290083221
0.868597135432
0.871859041235
0.999990093167
0.999992900787
0.99999357987
0.860494065391
0.864496131621
0.872519677425
0.871947506805
0.999991716135
0.999990637566
0.999993155182
0.865164559714
0.868270090799
0.871468424794
0.868848170809
0.99999076513
0.999991604229
0.999990947478
0.868260197437
0.864942826074
0.866849843187
0.857092231727
0.999985561512
0.99998804046
0.999984483459
0.862123519231
0.850656920499
0.853933660348
0.844066955899
0.999983937655
0.999983159625
0.999985177047
0.84655972644
0.840463442429
0.844264432598
0.845558215008
0.999988425313
0.999986693968
0.999988788251
0.839681852586
0.841124921659
0.845935800368
0.845510337902
0.999990970401
0.999991301523
0.999991085366
0.841606065398
0.8391699915
0.844968713728
0.840253784094
0.999993971018
0.999991948739
0.999995537072
0.843891927291
0.839777931351
0.844972428726
0.837595890777
0.873489594041
0.871602737426
0.999990788509
0.999998233974
0.871685415678
0.874343091597
0.87861366909
0.999991175408
0.999997018097
0.999995716287
0.874331510658
0.87241572261
0.878081156702
0.87491554484
0.999992295581
0.999992640508
0.999992648559
0.87154306286
0.867975977768
0.87368300366
0.870257232581
0.999992224821
0.999991546119
0.99999048462
0.866162241265
0.858369502137
0.86847880524
0.861238563465
0.999992906745
0.999990929628
0.99999118272
0.855807071472
0.848347125705
0.859589884654
0.857010038478
0.999993640324
0.999991955818
0.999993417942
0.847768226393
0.849198421558
0.856937773345
0.855494902733
0.999990889945
0.999992104028
0.99998964915
0.848055134073
0.845548494341
0.853728922243
0.848906448805
0.999988604725
0.999986983061
0.999986392867
0.845175835931
0.840752019601
0.848234434928
0.842711458686
0.999991521954
0.999986479019
0.99999124707
0.844915756459
0.836700698185
0.845759456844
0.836233395173
0.999987243887
0.999996788769
0.875834179706
0.872064976122
0.878407869457
0.99999181578
0.999996030433
0.999993780504
0.87020425721
0.862491851873
0.875378686989
0.865935214054
0.999992856
0.999993713307
0.999992263152
0.861194932744
0.859685705757
0.864678806859
0.863895112374
0.999990307186
0.99998994093
0.99998791551
0.858182043704
0.854261513874
0.861355839481
0.854437310498
0.999987082799
0.999985606037
0.999985547379
0.853265011189
0.850421375977
0.85343192197
0.85107079932
0.999986812887
0.999985484127
0.999987381616
0.84935897108
0.843415730185
0.850098675214
0.843610722539
0.999990611748
0.999988678749
0.999993334228
0.845984345257
0.835714495898
0.846032124649
0.836566126918
0.99999430421
0.856160624083
0.999995037211
0.85502408781
0.851341014352
0.999998804357
0.850934903796
0.844140302713
0.999997541409
0.846668714658
0.837999174223
0.00129619481311
0.0010233249392
0.00135921950183
0.00117731169746
0.0547493597043
0.0555812379058
0.000429281832341
0.000310212849412
0.000489753094952
0.000356108868479
0.0588355206397
0.0578623525587
0.0593316026484
0.000212029534218
0.000131649375642
0.00027674287821
0.000168122636608
0.0560375163307
0.0577920580724
0.0564381959606
8.39842074625e-05
4.26337312225e-05
9.17340956539e-05
4.17039749071e-05
0.0540106308675
0.05495413839
0.0544743333396
4.74196314857e-05
7.08137828513e-05
4.36950800518e-05
4.61511519058e-05
0.0541165052808
0.0542150539635
0.055330153745
1.95536355869e-05
3.04632513734e-05
7.10315592609e-05
6.39334685779e-05
0.0576413962337
0.0572301627325
0.0590633121434
0.000227225837513
0.00054239105953
0.000333599547959
0.000636995649398
0.0628190936427
0.0613277077812
0.0635570288666
0.000621583366621
0.00065452345336
0.000672868808794
0.000685160198549
0.0656838590863
0.0648939867148
0.0660931103042
0.000569816698055
0.000529376584835
0.00057915672871
0.00053864719447
0.0665397409182
0.0647233263915
0.068708194741
0.000850767681306
0.00251625906362
0.000826805067629
0.00137245636704
0.0472656334871
0.0456498488032
0.046997586143
0.00151252956557
0.00175612387852
0.00144241436328
0.00164713362876
0.0547863387223
0.0504909952844
0.0545891361591
0.00140380056761
0.00120372342391
0.000948922516222
0.000588178005819
0.0592824279594
0.0573751080938
0.0586185690447
0.000815568875093
0.00034914653542
0.000361963977894
0.000201685738684
0.0570566525063
0.0582652394406
0.0573103385955
5.7915418157e-05
3.31612627824e-05
7.86390748831e-05
5.13476252086e-05
0.0555022224618
0.0567076811677
0.0569156339458
3.16655002849e-05
2.55591272362e-05
4.80010678573e-05
7.82739055719e-05
0.0569157268848
0.0576976240901
0.0592131637023
9.51572889892e-05
0.000311823813961
0.000248348330673
0.000633498221167
0.0607316398752
0.0607859717383
0.0625472941248
0.00064385858095
0.000885833452441
0.00101978791555
0.00114685266679
0.0642524209533
0.0641904705809
0.0650625153301
0.000705177945485
0.000641161968184
0.000717113042222
0.000590626924601
0.0659935967563
0.0653250909559
0.0658261774281
0.000557070927112
0.000506006419827
0.000517323171754
0.000482426910505
0.0687047100073
0.0640895796131
0.0672539260228
0.000693353601368
0.000903312076707
0.000598844349914
0.000802006887866
0.047114018467
0.0449364593114
0.0464470810454
0.00116394438615
0.00100133313778
0.00107208442435
0.000811626223361
0.0538440221554
0.0498030251669
0.052813315526
0.000195545507315
0.000104931735503
0.000115333795259
6.74697130272e-05
0.0571485752734
0.0551641061019
0.0558779077771
9.83177151868e-05
7.35236445262e-05
6.48732349942e-05
5.97953667175e-05
0.0567905824147
0.0560529229374
0.0563893435714
9.15698496479e-05
8.09056737495e-05
9.21885681136e-05
9.57533860659e-05
0.057952640974
0.0572342417501
0.0584400439525
8.99403119546e-05
0.00018704433362
0.000115708878611
0.000221790450142
0.0610699597872
0.0599394609361
0.0617868719106
0.000365000575467
0.000589737615482
0.000403819471093
0.000623284540342
0.0634154663951
0.0623888414372
0.063994255247
0.00125532839788
0.00152660050139
0.00147920681388
0.00155035542529
0.0655629554025
0.0655121738867
0.0656531801133
0.000703551684422
0.000566045784252
0.000658528299109
0.000531063137226
0.0660518247627
0.0657869671501
0.0662934531711
0.000532617083216
0.000524146544394
0.000536383195356
0.000553667606204
0.066336465664
0.0646582597777
0.0662471486307
0.000617250677478
0.000769162518557
0.000693062505206
0.000822633960417
0.0521573487557
0.0513935349918
9.88917656122e-05
5.9570361176e-05
5.45657841019e-05
0.0550399943296
0.0537552129214
0.0543642152412
6.12485073827e-05
6.5215148457e-05
5.43274604635e-05
6.0385325409e-05
0.0559779532417
0.0548178034622
0.0555026730504
9.9625551143e-05
0.000101209036206
9.28472616913e-05
0.000102249828443
0.0580690525587
0.0563038269399
0.0573799586712
0.000125005792357
0.000187481235383
0.000148220175066
0.000239052222247
0.0611430696067
0.0587270843632
0.0599893446939
0.000333333450954
0.000523464807108
0.000380766322223
0.000511743551708
0.0633674984028
0.0608676686115
0.0625907512635
0.00133168990254
0.00126664643301
0.000978432749754
0.000842771463662
0.0652668491098
0.0641446621048
0.0646025823171
0.000568583387791
0.000461653574092
0.000488366573188
0.000402087770473
0.0664774116198
0.0652941983117
0.0665511183384
0.000477359908621
0.000517806609681
0.000417552378939
0.000473792976504
0.0664420469916
0.0660158734903
0.0666312278323
0.000756459856329
0.000935880574577
0.000774106305112
0.00115222458823
0.0549817274231
0.0539586424637
9.32148774607e-05
0.000117812280255
0.00010106587623
0.000138908427798
0.0561086684404
0.054672340018
0.0551217201791
0.000277452717877
0.000580874748635
0.000387928971077
0.000916657720291
0.0589836910091
0.0562659103297
0.0585046564271
0.0011179327256
0.000966690776779
0.00154468945204
0.000903548845344
0.0622651602845
0.0607420910364
0.0620031506477
0.000439449608969
0.000375200702642
0.000365100864089
0.000333162035056
0.0641169695417
0.0632647885273
0.0639698892436
0.00037109540011
0.000370330371965
0.00036791263223
0.000366525517951
0.0665172133393
0.0648102460494
0.0662984821327
0.000377939774018
0.00043343164769
0.000352526402777
0.000403120043664
0.0665202501495
0.0660397932082
0.0665497433181
0.000748302162295
0.00131822302039
0.000726089828966
0.00161323050505
0.0612633325157
0.000362105480993
0.0634953904454
0.000390962335885
0.00040685825456
0.000351786251546
0.000341330570054
0.0655258575994
0.000354953139291
0.000375546014654
0.000295759238766
0.000302730414653
0.0660034268436
0.000727093702062
0.00203302788066
0.000649722420138
0.00214880332135
0.998327216934
0.998481965639
0.840986228556
0.842544225421
0.998425960494
0.838617778825
0.998430748929
0.998247875311
0.998372622585
0.841525418596
0.839162346655
0.998355062806
0.998312345131
0.83793510909
0.998517042283
0.998480462254
0.853154984768
0.847298389535
0.998475102474
0.852600965168
0.998507398746
0.998543379596
0.998542638538
0.857472592115
0.860299496931
0.998568513696
0.856396751025
0.998535938895
0.998440365576
0.998398568953
0.846067741005
0.852143952788
0.99840550133
0.998448368537
0.851844452918
0.998447672422
0.998434316131
0.859500971389
0.855857059295
0.998454389483
0.998454737
0.856005224395
0.998594278004
0.998549524417
0.866336920608
0.863930517147
0.998573286244
0.866293034499
0.998583424677
0.99863569628
0.99865792429
0.868129986534
0.869386612779
0.998680421152
0.867786822165
0.99862142496
0.99849087244
0.998427165006
0.862959464922
0.865194374874
0.998456711025
0.998448421218
0.865690530609
0.998555699815
0.99857793892
0.869075829025
0.866801479743
0.998635208528
0.998505996354
0.867448906967
0.99884123387
0.998727786942
0.873940942322
0.871387958468
0.998748553751
0.873228163452
0.998854309856
0.998972222651
0.999017845607
0.874717522105
0.87490266666
0.999054802806
0.874079948732
0.99896043126
0.998880482479
0.998697072997
0.870957114463
0.872067251642
0.998741235697
0.998874107094
0.872949709923
0.999007001188
0.99907091002
0.874284990821
0.872715366079
0.999068830251
0.999021414328
0.873728054411
0.999132479064
0.999059443186
0.877999790553
0.876131977462
0.999112354097
0.877032924164
0.999115715896
0.999126215812
0.999082459319
0.878146477348
0.876711886091
0.999089572796
0.877168654788
0.999124545436
0.999129304396
0.999082125615
0.875283979061
0.874738954319
0.99911278557
0.999101463474
0.876316040496
0.999125416472
0.999063032511
0.875787728576
0.874687934493
0.99909553743
0.999103490108
0.876392555119
0.998711227594
0.99895487303
0.874413032126
0.875289730373
0.998967410432
0.872547521565
0.998720258184
0.998433512406
0.99817527433
0.87013801364
0.861507970353
0.998119034269
0.867854614631
0.998474114906
0.9987108643
0.998923077623
0.873209470519
0.866126553418
0.99897235757
0.998626430351
0.869246196953
0.998414089186
0.997881953769
0.857299065794
0.860032213679
0.998054484916
0.998279904312
0.863863277479
0.99747611418
0.997844021639
0.851498811566
0.854770984449
0.997783421711
0.848314237458
0.997558906789
0.99746400022
0.997610778073
0.847853770579
0.843533945877
0.997531036525
0.845290279135
0.997540368749
0.997410520271
0.997506293114
0.851183243165
0.841560129743
0.99767940716
0.997268566078
0.845321181164
0.997404400169
0.997408808231
0.84195317083
0.840069509546
0.997493806295
0.997281810474
0.842835195996
0.997810044619
0.997747631095
0.845974964615
0.842938654089
0.997661947354
0.842861889525
0.997891092555
0.997937171757
0.998250967145
0.844038118657
0.838026759208
0.998168115569
0.840744306429
0.998014255009
0.997826133706
0.997597290427
0.84179650851
0.840387129206
0.997640422688
0.997810394194
0.841805046036
0.99790693871
0.997911161973
0.835342767394
0.837976142045
0.998023653105
0.997852706875
0.838894883509
0.997751590484
0.998217892959
0.837257298227
0.839241136809
0.99814408028
0.834217477097
0.997788681928
0.996004729128
0.995707032565
0.812996563987
0.822402367948
0.807773605331
0.996206938717
0.995478799049
0.997357001802
0.997821966916
0.83792728909
0.833774037689
0.997919844705
0.997338958505
0.833741155456
0.995460437798
0.996096017083
0.828118469589
0.808009639122
0.995726783743
0.80473095351
0.995864191364
0.998743386487
0.999100339686
0.860102277641
0.871441615036
0.998793568168
0.859685622602
0.998964097818
0.998502201759
0.998344526443
0.851128314634
0.846113585831
0.99849671126
0.998395755388
0.85256712751
0.998686043936
0.998924211262
0.871640583636
0.861772233413
0.998718953417
0.860548178319
0.998896261628
0.998444112779
0.998407120222
0.850374480816
0.857425985341
0.998331618556
0.998512342687
0.855085654958
0.998186727988
0.998179039973
0.841271324531
0.845807856192
0.998147421904
0.99828057745
0.845389198421
0.998132279865
0.99804964158
0.842070321559
0.847989938543
0.998116190675
0.998061970793
0.845985029546
0.99810721442
0.998237234631
0.849893031405
0.852638341477
0.998191027888
0.998167854667
0.849132294501
0.998027658716
0.998049281354
0.851126652478
0.85317275762
0.99793784474
0.998119474199
0.849444037965
0.997957709165
0.998022585921
0.852838247599
0.850924546875
0.998027369107
0.997986148794
0.854637160533
0.997926431696
0.997982603302
0.855591918974
0.859475944104
0.998015610277
0.997911100404
0.857316088097
0.997854668423
0.99797770615
0.853624064757
0.859304409624
0.997862658425
0.997974907544
0.856511547824
0.997850557817
0.997987384348
0.860234626844
0.86112510059
0.997853654459
0.997976442169
0.858415530458
0.99790973463
0.997972535663
0.863907499691
0.861518019809
0.997989109583
0.997890749439
0.86351648177
0.997983385634
0.998173949928
0.865635419822
0.867613395618
0.998061693003
0.998095316486
0.865633140799
0.997908243951
0.99800030516
0.86218108032
0.86500363278
0.997865170342
0.998026187992
0.864074512564
0.997990917104
0.998184456399
0.86704187957
0.866510045898
0.998093259387
0.998090841196
0.865607419245
0.998368815973
0.998323050143
0.871466648827
0.869337646144
0.998519601566
0.998228716613
0.871150875182
0.99849963544
0.998732498259
0.872169196805
0.872112665261
0.998694167029
0.998602125979
0.871867973616
0.998292796819
0.998266592538
0.868470133223
0.870487713381
0.998195690389
0.99834984298
0.870405874726
0.998389906045
0.998458094472
0.870583740513
0.869924156644
0.998471538481
0.998410810493
0.870782594828
0.99861449403
0.998736831254
0.873875519689
0.872429673055
0.99874313331
0.998636613553
0.872133603223
0.99855767663
0.998641164
0.873346323455
0.868076654297
0.998725652075
0.998419735687
0.870829531366
0.998480231476
0.998440629095
0.869548334571
0.863623671694
0.998502649431
0.99837142386
0.867771880346
0.998427881187
0.998070308744
0.861396899988
0.859871646637
0.998286557612
0.998258484554
0.864932317786
0.997841433181
0.998464905129
0.861931483725
0.863064906866
0.998134198071
0.998186552109
0.856321682752
0.997493162251
0.997446372883
0.855344348016
0.843095282878
0.997779154781
0.997180074691
0.849347039165
0.997783127973
0.997850918571
0.856829088498
0.845057052528
0.998071601455
0.997579657926
0.850836543285
0.997497536818
0.99723588612
0.840184900837