/*--------------------------------*- C++ -*----------------------------------*\
| =========                 |                                                 |
| \\      /  F ield         | OpenFOAM: The Open Source CFD Toolbox           |
|  \\    /   O peration     | Version:  v1906                                 |
|   \\  /    A nd           | Web:      www.OpenFOAM.com                      |
|    \\/     M anipulation  |                                                 |
\*---------------------------------------------------------------------------*/
FoamFile
{
    version     2.0;
    format      ascii;
    class       volVectorField;
    location    "9.8";
    object      force.turbine;
}
// * * * * * * * * * * * * * * * * * * * * * * * * * * * * * * * * * * * * * //

dimensions      [1 -2 -2 0 0 0 0];


internalField   nonuniform List<vector> 
28582
(
(0 0 0)
(0 0 0)
(0 0 0)
(0 0 0)
(0 0 0)
(0 0 0)
(0 0 0)
(0 0 0)
(0 0 0)
(0 0 0)
(0 0 0)
(0 0 0)
(0 0 0)
(0 0 0)
(0 0 0)
(0 0 0)
(0 0 0)
(0 0 0)
(0 0 0)
(0 0 0)
(0 0 0)
(0 0 0)
(0 0 0)
(0 0 0)
(0 0 0)
(0 0 0)
(0 0 0)
(0 0 0)
(0 0 0)
(0 0 0)
(0 0 0)
(0 0 0)
(0 0 0)
(0 0 0)
(0 0 0)
(0 0 0)
(0 0 0)
(0 0 0)
(0 0 0)
(0 0 0)
(0 0 0)
(0 0 0)
(0 0 0)
(0 0 0)
(0 0 0)
(0 0 0)
(0 0 0)
(0 0 0)
(0 0 0)
(0 0 0)
(0 0 0)
(0 0 0)
(0 0 0)
(0 0 0)
(0 0 0)
(0 0 0)
(0 0 0)
(0 0 0)
(0 0 0)
(0 0 0)
(0 0 0)
(0 0 0)
(0 0 0)
(0 0 0)
(0 0 0)
(0 0 0)
(0 0 0)
(0 0 0)
(0 0 0)
(0 0 0)
(0 0 0)
(0 0 0)
(0 0 0)
(0 0 0)
(0 0 0)
(0 0 0)
(0 0 0)
(0 0 0)
(0 0 0)
(0 0 0)
(0 0 0)
(0 0 0)
(0 0 0)
(0 0 0)
(0 0 0)
(0 0 0)
(0 0 0)
(0 0 0)
(0 0 0)
(0 0 0)
(0 0 0)
(0 0 0)
(0 0 0)
(0 0 0)
(0 0 0)
(0 0 0)
(0 0 0)
(0 0 0)
(0 0 0)
(0 0 0)
(0 0 0)
(0 0 0)
(0 0 0)
(0 0 0)
(0 0 0)
(0 0 0)
(0 0 0)
(0 0 0)
(0 0 0)
(0 0 0)
(0 0 0)
(0 0 0)
(0 0 0)
(0 0 0)
(0 0 0)
(0 0 0)
(0 0 0)
(0 0 0)
(0 0 0)
(0 0 0)
(0 0 0)
(0 0 0)
(0 0 0)
(0 0 0)
(0 0 0)
(0 0 0)
(0 0 0)
(0 0 0)
(0 0 0)
(0 0 0)
(0 0 0)
(0 0 0)
(0 0 0)
(0 0 0)
(0 0 0)
(0 0 0)
(0 0 0)
(0 0 0)
(0 0 0)
(0 0 0)
(0 0 0)
(0 0 0)
(0 0 0)
(0 0 0)
(0 0 0)
(0 0 0)
(0 0 0)
(0 0 0)
(0 0 0)
(0 0 0)
(0 0 0)
(0 0 0)
(0 0 0)
(0 0 0)
(0 0 0)
(0 0 0)
(0 0 0)
(0 0 0)
(0 0 0)
(0 0 0)
(0 0 0)
(0 0 0)
(0 0 0)
(0 0 0)
(0 0 0)
(0 0 0)
(0 0 0)
(0 0 0)
(0 0 0)
(0 0 0)
(0 0 0)
(0 0 0)
(0 0 0)
(0 0 0)
(0 0 0)
(0 0 0)
(0 0 0)
(0 0 0)
(0 0 0)
(0 0 0)
(0 0 0)
(0 0 0)
(0 0 0)
(0 0 0)
(0 0 0)
(0 0 0)
(0 0 0)
(0 0 0)
(0 0 0)
(0 0 0)
(0 0 0)
(0 0 0)
(0 0 0)
(0 0 0)
(0 0 0)
(0 0 0)
(0 0 0)
(0 0 0)
(0 0 0)
(0 0 0)
(0 0 0)
(0 0 0)
(0 0 0)
(0 0 0)
(0 0 0)
(0 0 0)
(0 0 0)
(0 0 0)
(0 0 0)
(0 0 0)
(0 0 0)
(0 0 0)
(0 0 0)
(0 0 0)
(0 0 0)
(0 0 0)
(0 0 0)
(-0.00262924124929 5.23169879697e-05 0)
(0 0 0)
(0 0 0)
(0 0 0)
(0 0 0)
(-2.17872459235e-05 2.44237619907e-07 0)
(0 0 0)
(-2.02144771635e-06 2.07372605551e-08 0)
(0 0 0)
(0 0 0)
(0 0 0)
(0 0 0)
(0 0 0)
(0 0 0)
(0 0 0)
(0 0 0)
(0 0 0)
(0 0 0)
(0 0 0)
(0 0 0)
(-0.0159845730655 0.000499112609372 0)
(0 0 0)
(0 0 0)
(0 0 0)
(-0.0285714253164 0.000671651900738 0)
(0 0 0)
(0 0 0)
(-0.0284315676942 0.00086410696076 0)
(-0.283055948662 -0.0280049339734 0.0148028220537)
(-0.104927496583 -0.00337696507267 0.00240886016515)
(-2.16799954269 -0.289368583993 0.142041375305)
(-0.00542125623727 6.51429028158e-05 0)
(-0.0720778865787 0.0016943939263 0)
(0 0 0)
(0 0 0)
(0 0 0)
(0 0 0)
(0 0 0)
(-0.0159843806671 0.000499106601801 0)
(0 0 0)
(0 0 0)
(0 0 0)
(-0.0264881732446 0.000622679187677 0)
(0 0 0)
(0 0 0)
(0 0 0)
(0 0 0)
(0 0 0)
(0 0 0)
(0 0 0)
(0 0 0)
(-1.36210525631e-05 1.57555219145e-07 0)
(0 0 0)
(-8.38776944566e-06 9.70216396295e-08 0)
(-0.000131657485829 2.15403372974e-06 0)
(-0.000948232855342 1.5513934063e-05 0)
(-8.20126944778e-05 1.34180072678e-06 0)
(-0.000493292155134 8.07069901178e-06 0)
(0 0 0)
(0 0 0)
(-0.000242716642074 2.8697710348e-06 0)
(0 0 0)
(0 0 0)
(0 0 0)
(0 0 0)
(0 0 0)
(0 0 0)
(-0.0126942355736 0.000252591567992 0)
(-0.00055386553307 9.32577338327e-06 0)
(-0.00283133403199 5.63382567232e-05 0)
(-3.07998875193e-05 4.57023823654e-07 0)
(-0.000171974074544 2.81364902934e-06 0)
(-3.71189769793e-06 3.80789416877e-08 0)
(-3.82024959382e-05 5.6686735482e-07 0)
(0 0 0)
(0 0 0)
(0 0 0)
(0 0 0)
(0 0 0)
(-0.000294872709785 3.48644062584e-06 0)
(0 0 0)
(0 0 0)
(0 0 0)
(0 0 0)
(0 0 0)
(0 0 0)
(0 0 0)
(0 0 0)
(0 0 0)
(0 0 0)
(0 0 0)
(0 0 0)
(0 0 0)
(0 0 0)
(0 0 0)
(0 0 0)
(0 0 0)
(0 0 0)
(0 0 0)
(0 0 0)
(-0.00484299824279 5.88012123289e-05 0)
(0 0 0)
(0 0 0)
(0 0 0)
(0 0 0)
(0 0 0)
(-0.00436023000926 5.23933987468e-05 0)
(0 0 0)
(0 0 0)
(0 0 0)
(0 0 0)
(0 0 0)
(0 0 0)
(0 0 0)
(0 0 0)
(0 0 0)
(0 0 0)
(0 0 0)
(0 0 0)
(0 0 0)
(0 0 0)
(0 0 0)
(0 0 0)
(0 0 0)
(0 0 0)
(0 0 0)
(0 0 0)
(0 0 0)
(0 0 0)
(-0.0352668212708 0.000929958400302 0)
(-0.0083773743887 0.000156320358567 0)
(-0.0137424098893 0.000256430993985 0)
(-0.00992122393487 0.000198445379818 0)
(-0.0188765352434 0.000497759420486 0)
(0 0 0)
(0 0 0)
(0 0 0)
(0 0 0)
(0 0 0)
(0 0 0)
(0 0 0)
(0 0 0)
(0 0 0)
(0 0 0)
(-0.00487667437772 5.85990979116e-05 0)
(0 0 0)
(-0.00772647059191 0.000154545689255 0)
(0 0 0)
(0 0 0)
(-0.450814480643 -0.063510581358 0.0310353658437)
(-0.476603527013 -0.0766920952976 0.036815227966)
(-0.501252226713 -0.0604102786247 0.0300729674026)
(-0.0410192558099 0.000964273249461 0)
(-2.03528882137 -0.377338529098 0.17810620415)
(-0.0777406623856 -0.00356491824682 0.00228370115109)
(-0.123428171345 -0.00263723672486 0.00228294730614)
(-1.21929660797 -0.192530422978 0.0926708722263)
(-9.06300821166 -1.71393221617 0.807288968224)
(-1.28277424141 -0.177743575602 0.0867355945124)
(-0.632538936185 -0.043200431597 0.0241409279624)
(-5.42402255307 -1.0390522088 0.488602454421)
(-0.346343765659 -0.0232920019502 0.0130454154626)
(-2.09284983938 -0.322497510413 0.155857238841)
(-0.0599896879329 0.0015697205417 0)
(-0.00875447011861 0.000175107845483 0)
(-0.0192267064408 0.000451977938899 0)
(-0.0187910345857 0.000441736243698 0)
(-0.0242346030862 0.000639047464611 0)
(-0.0242303112125 0.000638934291271 0)
(-0.0454388806146 0.00106816899032 0)
(-0.195305461838 -0.00991163047012 0.00614543099104)
(-0.0988573941983 0.00258675261898 0)
(-0.180684592738 0.00346601734603 0.000312844577201)
(-0.0391519785864 0.000920377634089 0)
(-0.0512851665426 0.00135234959428 0)
(-0.0945838205764 0.00222345935373 0)
(-0.402818001172 -0.02735955983 0.0155863456644)
(0 0 0)
(0 0 0)
(0 0 0)
(0 0 0)
(0 0 0)
(0 0 0)
(0 0 0)
(0 0 0)
(0 0 0)
(0 0 0)
(0 0 0)
(0 0 0)
(0 0 0)
(0 0 0)
(0 0 0)
(0 0 0)
(0 0 0)
(0 0 0)
(0 0 0)
(0 0 0)
(0 0 0)
(0 0 0)
(0 0 0)
(-0.00469090843182 5.63668970285e-05 0)
(0 0 0)
(-0.00772399847731 0.000154496241755 0)
(0 0 0)
(0 0 0)
(0 0 0)
(-0.0352375011276 0.000929185251135 0)
(-0.0129491013372 0.000241627993477 0)
(-0.00773584808356 0.000144349588563 0)
(-0.0188659806511 0.000497481104172 0)
(0 0 0)
(-0.00991319769679 0.000198284838148 0)
(0 0 0)
(0 0 0)
(0 0 0)
(0 0 0)
(0 0 0)
(0 0 0)
(0 0 0)
(0 0 0)
(0 0 0)
(0 0 0)
(0 0 0)
(0 0 0)
(0 0 0)
(0 0 0)
(0 0 0)
(0 0 0)
(0 0 0)
(0 0 0)
(0 0 0)
(0 0 0)
(0 0 0)
(0 0 0)
(0 0 0)
(0 0 0)
(0 0 0)
(0 0 0)
(0 0 0)
(0 0 0)
(0 0 0)
(0 0 0)
(0 0 0)
(0 0 0)
(0 0 0)
(0 0 0)
(0 0 0)
(0 0 0)
(-0.0153517336335 0.000304537593445 0)
(0 0 0)
(0 0 0)
(0 0 0)
(0 0 0)
(0 0 0)
(0 0 0)
(0 0 0)
(-0.00342542339373 6.79512960398e-05 0)
(0 0 0)
(0 0 0)
(0 0 0)
(0 0 0)
(0 0 0)
(0 0 0)
(0 0 0)
(0 0 0)
(0 0 0)
(0 0 0)
(0 0 0)
(0 0 0)
(0 0 0)
(0 0 0)
(0 0 0)
(0 0 0)
(0 0 0)
(0 0 0)
(0 0 0)
(0 0 0)
(0 0 0)
(0 0 0)
(0 0 0)
(0 0 0)
(0 0 0)
(0 0 0)
(0 0 0)
(-0.32993870333 0.00904850179723 0)
(-0.00788057492933 0.000156329661602 0)
(0 0 0)
(0 0 0)
(0 0 0)
(0 0 0)
(0 0 0)
(0 0 0)
(-0.0724115257327 0.00200284120252 0)
(0 0 0)
(0 0 0)
(0 0 0)
(0 0 0)
(0 0 0)
(0 0 0)
(0 0 0)
(0 0 0)
(0 0 0)
(0 0 0)
(0 0 0)
(0 0 0)
(0 0 0)
(0 0 0)
(0 0 0)
(0 0 0)
(0 0 0)
(0 0 0)
(0 0 0)
(0 0 0)
(0 0 0)
(0 0 0)
(0 0 0)
(0 0 0)
(0 0 0)
(0 0 0)
(0 0 0)
(-1.55323092679 0.0552023047609 0)
(-0.0447012413589 0.00160668116155 0)
(0 0 0)
(0 0 0)
(0 0 0)
(0 0 0)
(0 0 0)
(0 0 0)
(-0.340690214187 0.0119795714405 0)
(-0.00674151133778 0.000262792859598 0)
(0 0 0)
(0 0 0)
(0 0 0)
(0 0 0)
(0 0 0)
(0 0 0)
(0 0 0)
(0 0 0)
(0 0 0)
(0 0 0)
(0 0 0)
(0 0 0)
(0 0 0)
(0 0 0)
(0 0 0)
(0 0 0)
(0 0 0)
(0 0 0)
(0 0 0)
(0 0 0)
(0 0 0)
(0 0 0)
(0 0 0)
(0 0 0)
(0 0 0)
(0 0 0)
(0 0 0)
(0 0 0)
(0 0 0)
(0 0 0)
(0 0 0)
(0 0 0)
(0 0 0)
(-2.55933970217 0.077784780473 0)
(-0.0772851869803 0.00234889151212 0)
(0 0 0)
(0 0 0)
(0 0 0)
(0 0 0)
(0 0 0)
(0 0 0)
(-2.55929652995 0.0777834683604 0)
(-0.571059772715 0.0173559449806 0)
(-0.0159844096947 0.000499107508176 0)
(0 0 0)
(0 0 0)
(0 0 0)
(0 0 0)
(0 0 0)
(0 0 0)
(-0.0468752280516 0.00142465625822 0)
(-0.0772842280924 0.00234886236911 0)
(-0.0159843150061 0.00049910455156 0)
(0 0 0)
(0 0 0)
(0 0 0)
(0 0 0)
(0 0 0)
(0 0 0)
(0 0 0)
(0 0 0)
(0 0 0)
(0 0 0)
(0 0 0)
(0 0 0)
(0 0 0)
(0 0 0)
(0 0 0)
(0 0 0)
(0 0 0)
(0 0 0)
(0 0 0)
(0 0 0)
(0 0 0)
(0 0 0)
(0 0 0)
(0 0 0)
(0 0 0)
(0 0 0)
(-0.0737671200037 0.00146779988857 0)
(-0.00221264897368 4.40275801121e-05 0)
(0 0 0)
(0 0 0)
(0 0 0)
(0 0 0)
(0 0 0)
(0 0 0)
(-0.0357958196603 0.0007122563563 0)
(-0.064959245787 0.0012925429883 0)
(-0.0163552723418 0.000325439358817 0)
(-0.000386244710758 4.56678155156e-06 0)
(0 0 0)
(0 0 0)
(0 0 0)
(0 0 0)
(0 0 0)
(0 0 0)
(-0.00101053831287 1.7015052821e-05 0)
(-0.00195837828041 3.89680684357e-05 0)
(-0.000373637772274 4.41772285254e-06 0)
(0 0 0)
(0 0 0)
(0 0 0)
(0 0 0)
(0 0 0)
(0 0 0)
(0 0 0)
(0 0 0)
(0 0 0)
(0 0 0)
(0 0 0)
(0 0 0)
(0 0 0)
(0 0 0)
(0 0 0)
(0 0 0)
(0 0 0)
(0 0 0)
(0 0 0)
(0 0 0)
(0 0 0)
(0 0 0)
(0 0 0)
(0 0 0)
(0 0 0)
(0 0 0)
(-0.000178634779003 2.28204549227e-06 0)
(-0.00016666190765 2.1290929863e-06 0)
(-2.12977591104e-05 2.38750414474e-07 0)
(0 0 0)
(0 0 0)
(0 0 0)
(0 0 0)
(0 0 0)
(0 0 0)
(0 0 0)
(-2.36227938487e-05 2.64814330615e-07 0)
(-2.33368609865e-05 2.61608989198e-07 0)
(-2.0513551293e-06 2.10440692892e-08 0)
(0 0 0)
(0 0 0)
(0 0 0)
(0 0 0)
(0 0 0)
(0 0 0)
(0 0 0)
(0 0 0)
(0 0 0)
(0 0 0)
(0 0 0)
(0 0 0)
(0 0 0)
(0 0 0)
(0 0 0)
(0 0 0)
(0 0 0)
(0 0 0)
(0 0 0)
(0 0 0)
(0 0 0)
(0 0 0)
(0 0 0)
(0 0 0)
(0 0 0)
(0 0 0)
(0 0 0)
(0 0 0)
(0 0 0)
(0 0 0)
(0 0 0)
(0 0 0)
(0 0 0)
(0 0 0)
(0 0 0)
(0 0 0)
(-0.00342543529335 6.79515320966e-05 0)
(-0.00931128562739 0.000184711159308 0)
(-0.0020776270462 4.12145986785e-05 0)
(-0.0886056477004 0.00210853223369 0)
(-0.0181359146805 0.000359768345619 0)
(-0.0537419770384 0.00127888790194 0)
(-0.0109999849314 0.000218210465275 0)
(0 0 0)
(0 0 0)
(0 0 0)
(-0.00245430802392 4.86869481337e-05 0)
(0 0 0)
(0 0 0)
(0 0 0)
(0 0 0)
(0 0 0)
(0 0 0)
(-0.0181358721878 0.000359767502677 0)
(-0.0040466608151 8.02749953548e-05 0)
(-0.00404663456736 8.02744746693e-05 0)
(0 0 0)
(0 0 0)
(0 0 0)
(0 0 0)
(0 0 0)
(0 0 0)
(0 0 0)
(0 0 0)
(-0.0724112762627 0.00200283430239 0)
(-0.200117982067 0.00548819493474 0)
(-0.0439202742733 0.00121479742417 0)
(-0.823287247749 0.0261483064138 0)
(-0.182042411437 0.00581739194538 0)
(-0.499348378518 0.0158597311503 0)
(-0.110413446253 0.00352839916711 0)
(0 0 0)
(-0.00478023082133 9.48270745957e-05 0)
(0 0 0)
(-0.0234269203773 0.00077107072657 0)
(0 0 0)
(-0.0124928374094 0.000400267183796 0)
(0 0 0)
(-0.0152761679346 0.000412287709201 0)
(-0.0152759214332 0.000412281056387 0)
(-0.00289953193893 5.75190072911e-05 0)
(-0.182041605802 0.0058173662003 0)
(-0.0386300814567 0.00127146566841 0)
(-0.038629642959 0.00127145123575 0)
(-0.00757860380378 0.000242816447716 0)
(0 0 0)
(0 0 0)
(0 0 0)
(-0.00342528470807 6.7948544885e-05 0)
(0 0 0)
(0 0 0)
(0 0 0)
(-0.340696384233 0.0119797883956 0)
(-0.926122502916 0.0325649232772 0)
(-0.206642329414 0.00726609231717 0)
(-2.26364965581 0.0791830813655 0)
(-0.499217192921 0.0173307992291 0)
(-1.35702230062 0.047110318665 0)
(-0.302791969327 0.0105117109407 0)
(0 0 0)
(-0.0271130840696 0.00097451614501 0)
(0 0 0)
(-0.0675569001647 0.00234530198458 0)
(0 0 0)
(-0.0409763738883 0.00142253375698 0)
(0 0 0)
(-0.0760204681322 0.00267308126563 0)
(-0.0760206555876 0.00267308785706 0)
(-0.0144580716132 0.000564585682611 0)
(-0.499219536436 0.0173308805865 0)
(-0.111391571933 0.00386706426854 0)
(-0.111392263297 0.00386708826991 0)
(-0.0248549772041 0.000862864151868 0)
(0 0 0)
(0 0 0)
(0 0 0)
(-0.0138897659752 0.000511185899066 0)
(0 0 0)
(0 0 0)
(0 0 0)
(-7.15122994521 0.222605399867 0)
(-4.24592525979 0.129756444706 0)
(-3.83986463552 0.0900313090761 0)
(-1.8095525941 0.0424276385636 0)
(-0.571067498653 0.0173561797913 0)
(-1.55232368461 0.0471790270467 0)
(-0.346370455422 0.0105270706403 0)
(-2.33887835394 0.0548384643634 0)
(-0.250302979658 0.00586872378672 0)
(-1.10361228348 0.0258758232453 0)
(-0.118041672354 0.00276766170069 0)
(0 0 0)
(-0.046875806176 0.00142467382888 0)
(0 0 0)
(-0.090844302892 0.0021355514481 0)
(0 0 0)
(-0.0428656010114 0.00100767679865 0)
(0 0 0)
(0 0 0)
(0 0 0)
(0 0 0)
(0 0 0)
(0 0 0)
(0 0 0)
(0 0 0)
(0 0 0)
(0 0 0)
(0 0 0)
(0 0 0)
(0 0 0)
(0 0 0)
(0 0 0)
(0 0 0)
(0 0 0)
(0 0 0)
(0 0 0)
(0 0 0)
(0 0 0)
(0 0 0)
(0 0 0)
(0 0 0)
(0 0 0)
(0 0 0)
(0 0 0)
(0 0 0)
(0 0 0)
(0 0 0)
(0 0 0)
(0 0 0)
(0 0 0)
(0 0 0)
(0 0 0)
(0 0 0)
(0 0 0)
(0 0 0)
(0 0 0)
(0 0 0)
(0 0 0)
(0 0 0)
(0 0 0)
(-0.502000902625 -0.0213506466055 0.0148028225797)
(-0.571059150615 0.0173559260734 0)
(-2.57632553905 -0.273495620726 0.139411336047)
(-2.34701035609 0.0497992660405 0.00215650377537)
(-0.119462986724 0.00280098651954 0)
(-0.247971204871 0.005814051876 0)
(-1.55229139271 0.0471780456145 0)
(-0.571057430772 0.017355873803 0)
(-0.346363462046 0.010526858094 0)
(-2.32093218184 0.0544176897996 0)
(-1.10005315507 0.0257923742124 0)
(-0.247786648913 0.00580972468844 0)
(-0.117339468334 0.00275119748823 0)
(-0.127420896374 0.00387264201141 0)
(-0.127419913249 0.00387261213177 0)
(-0.0284312532305 0.000864097403414 0)
(-0.670314994567 0.0157165270609 0)
(-0.0702949712685 0.00165248147553 0)
(-0.0701343474684 0.00164870556028 0)
(-0.00507335192616 6.09624148004e-05 0)
(0 0 0)
(0 0 0)
(0 0 0)
(-0.0259546509103 0.000610137241102 0)
(0 0 0)
(0 0 0)
(0 0 0)
(0 0 0)
(0 0 0)
(0 0 0)
(0 0 0)
(0 0 0)
(0 0 0)
(0 0 0)
(0 0 0)
(0 0 0)
(0 0 0)
(0 0 0)
(0 0 0)
(0 0 0)
(0 0 0)
(0 0 0)
(0 0 0)
(0 0 0)
(0 0 0)
(0 0 0)
(0 0 0)
(0 0 0)
(0 0 0)
(0 0 0)
(0 0 0)
(0 0 0)
(0 0 0)
(0 0 0)
(0 0 0)
(0 0 0)
(0 0 0)
(0 0 0)
(0 0 0)
(0 0 0)
(0 0 0)
(0 0 0)
(0 0 0)
(0 0 0)
(0 0 0)
(0 0 0)
(0 0 0)
(0 0 0)
(0 0 0)
(-0.0772843347321 0.00234886561015 0)
(0 0 0)
(0 0 0)
(-0.0432340056492 0.00101633718827 0)
(-0.0900719605613 0.00211739536422 0)
(0 0 0)
(0 0 0)
(-0.0468752742934 0.00142465766363 0)
(0 0 0)
(0 0 0)
(-0.0899874171814 0.00211540793374 0)
(-0.0426704274291 0.00100308869336 0)
(0 0 0)
(0 0 0)
(0 0 0)
(0 0 0)
(0 0 0)
(-0.0259171429337 0.00060925551037 0)
(0 0 0)
(0 0 0)
(0 0 0)
(0 0 0)
(0 0 0)
(0 0 0)
(0 0 0)
(0 0 0)
(0 0 0)
(0 0 0)
(0 0 0)
(0 0 0)
(0 0 0)
(0 0 0)
(0 0 0)
(0 0 0)
(0 0 0)
(0 0 0)
(0 0 0)
(0 0 0)
(0 0 0)
(0 0 0)
(0 0 0)
(0 0 0)
(0 0 0)
(0 0 0)
(0 0 0)
(0 0 0)
(0 0 0)
(0 0 0)
(0 0 0)
(0 0 0)
(0 0 0)
(0 0 0)
(0 0 0)
(0 0 0)
(0 0 0)
(0 0 0)
(0 0 0)
(0 0 0)
(0 0 0)
(0 0 0)
(0 0 0)
(0 0 0)
(0 0 0)
(0 0 0)
(0 0 0)
(0 0 0)
(0 0 0)
(0 0 0)
(0 0 0)
(0 0 0)
(0 0 0)
(0 0 0)
(0 0 0)
(0 0 0)
(0 0 0)
(0 0 0)
(0 0 0)
(0 0 0)
(0 0 0)
(0 0 0)
(0 0 0)
(0 0 0)
(0 0 0)
(0 0 0)
(0 0 0)
(0 0 0)
(0 0 0)
(0 0 0)
(0 0 0)
(0 0 0)
(0 0 0)
(0 0 0)
(0 0 0)
(0 0 0)
(0 0 0)
(0 0 0)
(0 0 0)
(0 0 0)
(0 0 0)
(0 0 0)
(0 0 0)
(0 0 0)
(0 0 0)
(0 0 0)
(0 0 0)
(0 0 0)
(0 0 0)
(0 0 0)
(0 0 0)
(0 0 0)
(0 0 0)
(0 0 0)
(0 0 0)
(0 0 0)
(0 0 0)
(0 0 0)
(0 0 0)
(0 0 0)
(0 0 0)
(0 0 0)
(0 0 0)
(0 0 0)
(0 0 0)
(0 0 0)
(0 0 0)
(0 0 0)
(0 0 0)
(0 0 0)
(0 0 0)
(0 0 0)
(0 0 0)
(0 0 0)
(0 0 0)
(0 0 0)
(0 0 0)
(0 0 0)
(0 0 0)
(0 0 0)
(0 0 0)
(0 0 0)
(0 0 0)
(0 0 0)
(0 0 0)
(0 0 0)
(0 0 0)
(0 0 0)
(0 0 0)
(0 0 0)
(0 0 0)
(0 0 0)
(0 0 0)
(0 0 0)
(0 0 0)
(0 0 0)
(0 0 0)
(0 0 0)
(0 0 0)
(0 0 0)
(0 0 0)
(0 0 0)
(0 0 0)
(0 0 0)
(0 0 0)
(0 0 0)
(0 0 0)
(0 0 0)
(0 0 0)
(0 0 0)
(0 0 0)
(0 0 0)
(0 0 0)
(0 0 0)
(0 0 0)
(0 0 0)
(0 0 0)
(0 0 0)
(0 0 0)
(0 0 0)
(0 0 0)
(0 0 0)
(0 0 0)
(0 0 0)
(0 0 0)
(0 0 0)
(0 0 0)
(0 0 0)
(0 0 0)
(0 0 0)
(0 0 0)
(0 0 0)
(0 0 0)
(-0.00309896942594 5.07184858198e-05 0)
(-0.00450280872704 7.36940605673e-05 0)
(-0.00192818301643 3.15467914972e-05 0)
(-0.00293869351234 4.80953713148e-05 0)
(-0.191371822119 0.0038078691315 0)
(-0.117804812708 0.00234405099395 0)
(-0.00318238510715 5.20836871054e-05 0)
(-0.00176968764224 2.89631374988e-05 0)
(-0.00201174032335 3.29246304299e-05 0)
(-0.00110918932686 1.81473252939e-05 0)
(-0.016754951688 0.000333392230982 0)
(-0.0450850958616 0.000897092074061 0)
(-0.0102466424347 0.000203889037998 0)
(-0.000601408616259 9.83958061039e-06 0)
(-0.000125310792553 2.05019617502e-06 0)
(-0.000384209847435 6.28601530298e-06 0)
(-7.84492254941e-05 1.28349920038e-06 0)
(0 0 0)
(-0.00127007475758 2.13850269818e-05 0)
(0 0 0)
(-1.39157702905e-05 1.60964230007e-07 0)
(0 0 0)
(-8.50054981212e-06 9.83261743026e-08 0)
(0 0 0)
(0 0 0)
(0 0 0)
(0 0 0)
(0 0 0)
(0 0 0)
(0 0 0)
(0 0 0)
(0 0 0)
(0 0 0)
(0 0 0)
(0 0 0)
(0 0 0)
(0 0 0)
(0 0 0)
(0 0 0)
(0 0 0)
(0 0 0)
(0 0 0)
(0 0 0)
(0 0 0)
(0 0 0)
(0 0 0)
(0 0 0)
(0 0 0)
(0 0 0)
(0 0 0)
(0 0 0)
(0 0 0)
(0 0 0)
(0 0 0)
(0 0 0)
(0 0 0)
(0 0 0)
(0 0 0)
(0 0 0)
(0 0 0)
(0 0 0)
(0 0 0)
(0 0 0)
(0 0 0)
(0 0 0)
(0 0 0)
(-0.0609515254287 0.00121279836095 0)
(-0.00792304463052 0.000157653783474 0)
(-0.0134402659603 0.000267436178686 0)
(-0.000755386586404 1.23587973434e-05 0)
(-0.00136605090419 2.23498094745e-05 0)
(-0.000163850505514 2.6807402047e-06 0)
(-0.000292764275734 4.78988430338e-06 0)
(-0.0427291478955 0.000850214004783 0)
(-0.0144184394267 0.000286900002894 0)
(-0.00944122049494 0.000187862646376 0)
(-0.0011915788562 1.94952913747e-05 0)
(-0.000662634610836 1.0841292413e-05 0)
(-0.000215615415527 3.52766023726e-06 0)
(-0.000106600758977 1.7440833615e-06 0)
(-0.00376645677361 7.49454519498e-05 0)
(-0.00364729190593 7.25742937496e-05 0)
(-0.000781168421639 1.31530114069e-05 0)
(-0.000200880500495 3.28658390359e-06 0)
(-3.23637402247e-05 4.8022903642e-07 0)
(-3.26706548174e-05 4.84783185542e-07 0)
(-3.28085111193e-06 3.36569992883e-08 0)
(0 0 0)
(0 0 0)
(0 0 0)
(0 0 0)
(0 0 0)
(0 0 0)
(0 0 0)
(0 0 0)
(0 0 0)
(0 0 0)
(0 0 0)
(0 0 0)
(0 0 0)
(0 0 0)
(0 0 0)
(0 0 0)
(0 0 0)
(0 0 0)
(0 0 0)
(0 0 0)
(0 0 0)
(0 0 0)
(0 0 0)
(0 0 0)
(0 0 0)
(0 0 0)
(0 0 0)
(0 0 0)
(0 0 0)
(0 0 0)
(0 0 0)
(0 0 0)
(0 0 0)
(0 0 0)
(0 0 0)
(0 0 0)
(0 0 0)
(0 0 0)
(0 0 0)
(0 0 0)
(0 0 0)
(0 0 0)
(0 0 0)
(0 0 0)
(0 0 0)
(0 0 0)
(0 0 0)
(0 0 0)
(0 0 0)
(-0.00182335435823 3.62813446844e-05 0)
(0 0 0)
(0 0 0)
(-1.68304956697e-05 1.94678966348e-07 0)
(-2.56659364337e-05 2.96878836686e-07 0)
(0 0 0)
(0 0 0)
(-0.0011847895477 1.99490276411e-05 0)
(0 0 0)
(0 0 0)
(-1.53447399716e-05 1.77493175198e-07 0)
(-8.60308158817e-06 9.95121631512e-08 0)
(0 0 0)
(0 0 0)
(0 0 0)
(0 0 0)
(0 0 0)
(0 0 0)
(0 0 0)
(0 0 0)
(0 0 0)
(0 0 0)
(0 0 0)
(0 0 0)
(0 0 0)
(0 0 0)
(0 0 0)
(0 0 0)
(0 0 0)
(0 0 0)
(0 0 0)
(0 0 0)
(0 0 0)
(0 0 0)
(0 0 0)
(0 0 0)
(0 0 0)
(0 0 0)
(0 0 0)
(0 0 0)
(0 0 0)
(0 0 0)
(0 0 0)
(0 0 0)
(0 0 0)
(0 0 0)
(0 0 0)
(0 0 0)
(0 0 0)
(0 0 0)
(0 0 0)
(0 0 0)
(0 0 0)
(0 0 0)
(0 0 0)
(0 0 0)
(0 0 0)
(0 0 0)
(0 0 0)
(0 0 0)
(0 0 0)
(0 0 0)
(0 0 0)
(0 0 0)
(0 0 0)
(0 0 0)
(0 0 0)
(0 0 0)
(0 0 0)
(0 0 0)
(0 0 0)
(0 0 0)
(0 0 0)
(0 0 0)
(0 0 0)
(0 0 0)
(0 0 0)
(0 0 0)
(0 0 0)
(0 0 0)
(0 0 0)
(0 0 0)
(0 0 0)
(0 0 0)
(0 0 0)
(0 0 0)
(0 0 0)
(0 0 0)
(0 0 0)
(0 0 0)
(0 0 0)
(0 0 0)
(0 0 0)
(0 0 0)
(0 0 0)
(0 0 0)
(0 0 0)
(0 0 0)
(0 0 0)
(0 0 0)
(0 0 0)
(0 0 0)
(0 0 0)
(0 0 0)
(0 0 0)
(0 0 0)
(0 0 0)
(0 0 0)
(0 0 0)
(0 0 0)
(0 0 0)
(0 0 0)
(0 0 0)
(0 0 0)
(0 0 0)
(0 0 0)
(0 0 0)
(0 0 0)
(0 0 0)
(0 0 0)
(0 0 0)
(0 0 0)
(0 0 0)
(0 0 0)
(0 0 0)
(0 0 0)
(0 0 0)
(0 0 0)
(0 0 0)
(0 0 0)
(0 0 0)
(0 0 0)
(0 0 0)
(0 0 0)
(0 0 0)
(0 0 0)
(0 0 0)
(0 0 0)
(0 0 0)
(0 0 0)
(0 0 0)
(0 0 0)
(0 0 0)
(0 0 0)
(0 0 0)
(0 0 0)
(0 0 0)
(0 0 0)
(0 0 0)
(0 0 0)
(0 0 0)
(0 0 0)
(0 0 0)
(0 0 0)
(0 0 0)
(0 0 0)
(0 0 0)
(0 0 0)
(0 0 0)
(0 0 0)
(0 0 0)
(0 0 0)
(0 0 0)
(0 0 0)
(0 0 0)
(0 0 0)
(0 0 0)
(0 0 0)
(0 0 0)
(0 0 0)
(0 0 0)
(0 0 0)
(0 0 0)
(0 0 0)
(0 0 0)
(0 0 0)
(0 0 0)
(0 0 0)
(0 0 0)
(0 0 0)
(0 0 0)
(0 0 0)
(0 0 0)
(0 0 0)
(0 0 0)
(0 0 0)
(0 0 0)
(0 0 0)
(0 0 0)
(0 0 0)
(0 0 0)
(0 0 0)
(0 0 0)
(0 0 0)
(0 0 0)
(0 0 0)
(-6.94171788394 0.182171149808 0)
(-5.39384438013 0.141138062457 0)
(-5.56277819555 0.130427567267 0)
(-3.38023869414 0.0792546986703 0)
(-4.75978423362 0.124546923697 0)
(-4.89532550729 0.114778151214 0)
(-7.87555524466 0.2069507427 0)
(-5.39258108197 0.141105006358 0)
(-2.54759294007 0.0666616064815 0)
(-2.62935305914 0.0616490737064 0)
(-2.6219784063 0.0614761640566 0)
(-3.70666072576 0.0969903608911 0)
(-3.70650228403 0.0969862150246 0)
(-3.80938352388 0.0893166343041 0)
(-1.54541652251 0.0404381510299 0)
(-3.27152706936 0.0856044333695 0)
(-1.25916224833 0.0295229223727 0)
(-2.06177327841 0.0483413257739 0)
(-2.88709702313 0.0755452421785 0)
(-1.11048603824 0.0260369885982 0)
(-1.75116944608 0.0458219861817 0)
(-0.730022310849 0.0191021333287 0)
(-0.344837866739 0.00902320218072 0)
(-0.597792664163 0.0140161336972 0)
(-0.22063979971 0.00517322663368 0)
(-0.30432622716 0.0079631541122 0)
(-0.526889048519 0.0123536934967 0)
(-0.827217494322 0.0216453917004 0)
(-1.20347926763 0.0314908477274 0)
(-1.54523334385 0.0404333578843 0)
(-1.60338120425 0.0375936452111 0)
(-0.594082106027 0.0139291341704 0)
(-2.24831684429 0.0588305966634 0)
(-0.827145021135 0.0216434953303 0)
(-0.86408091885 0.020259655914 0)
(-0.568487509081 0.0148753319354 0)
(-0.162872221712 0.00426179700051 0)
(-0.171675138575 0.00402517768955 0)
(-0.281845864566 0.00660829340437 0)
(-0.236982443888 0.00620100258915 0)
(-0.390718131876 0.0102237284232 0)
(-0.410154223339 0.00961667276204 0)
(-0.0352195187997 0.00092871107126 0)
(-0.126859635642 0.00331947344356 0)
(-0.0295671503374 0.00069505922451 0)
(-0.0801488585321 0.00188412487578 0)
(-0.111955896923 0.00292949467184 0)
(-0.0260915983273 0.000613356576223 0)
(-0.039908509926 0.00105235608745 0)
(-0.00874468929118 0.00017491220833 0)
(0 0 0)
(-0.00764992312113 0.000142746243611 0)
(0 0 0)
(0 0 0)
(-0.00510379897382 6.13282726348e-05 0)
(-0.0099088896767 0.00019819866867 0)
(-0.0274261513662 0.000723206088099 0)
(-0.0599169131879 0.00156781628089 0)
(-0.0623499154375 0.00146571053949 0)
(-0.0125699902466 0.000234553846033 0)
(-0.0871811715293 0.00228122666603 0)
(-0.018848899194 0.000497030679554 0)
(-0.0203060409427 0.00047735073923 0)
(-0.00483721553813 5.87310016811e-05 0)
(0 0 0)
(0 0 0)
(0 0 0)
(0 0 0)
(0 0 0)
(-0.00397329662416 4.77439295465e-05 0)
(0 0 0)
(0 0 0)
(0 0 0)
(0 0 0)
(0 0 0)
(0 0 0)
(0 0 0)
(0 0 0)
(0 0 0)
(0 0 0)
(0 0 0)
(0 0 0)
(0 0 0)
(0 0 0)
(0 0 0)
(0 0 0)
(0 0 0)
(0 0 0)
(0 0 0)
(0 0 0)
(0 0 0)
(0 0 0)
(0 0 0)
(0 0 0)
(0 0 0)
(0 0 0)
(0 0 0)
(0 0 0)
(0 0 0)
(0 0 0)
(0 0 0)
(0 0 0)
(0 0 0)
(0 0 0)
(0 0 0)
(0 0 0)
(0 0 0)
(0 0 0)
(0 0 0)
(0 0 0)
(0 0 0)
(0 0 0)
(0 0 0)
(0 0 0)
(0 0 0)
(0 0 0)
(0 0 0)
(0 0 0)
(0 0 0)
(0 0 0)
(0 0 0)
(0 0 0)
(0 0 0)
(0 0 0)
(0 0 0)
(0 0 0)
(0 0 0)
(0 0 0)
(0 0 0)
(0 0 0)
(0 0 0)
(0 0 0)
(0 0 0)
(0 0 0)
(0 0 0)
(0 0 0)
(0 0 0)
(0 0 0)
(0 0 0)
(0 0 0)
(0 0 0)
(0 0 0)
(0 0 0)
(0 0 0)
(0 0 0)
(0 0 0)
(0 0 0)
(0 0 0)
(0 0 0)
(0 0 0)
(0 0 0)
(0 0 0)
(0 0 0)
(0 0 0)
(0 0 0)
(0 0 0)
(0 0 0)
(0 0 0)
(0 0 0)
(0 0 0)
(0 0 0)
(0 0 0)
(0 0 0)
(0 0 0)
(0 0 0)
(0 0 0)
(0 0 0)
(0 0 0)
(0 0 0)
(0 0 0)
(0 0 0)
(0 0 0)
(0 0 0)
(0 0 0)
(0 0 0)
(0 0 0)
(0 0 0)
(0 0 0)
(0 0 0)
(0 0 0)
(0 0 0)
(0 0 0)
(0 0 0)
(0 0 0)
(0 0 0)
(0 0 0)
(0 0 0)
(0 0 0)
(0 0 0)
(0 0 0)
(0 0 0)
(0 0 0)
(0 0 0)
(0 0 0)
(0 0 0)
(0 0 0)
(0 0 0)
(0 0 0)
(0 0 0)
(0 0 0)
(0 0 0)
(0 0 0)
(0 0 0)
(0 0 0)
(0 0 0)
(0 0 0)
(0 0 0)
(0 0 0)
(0 0 0)
(0 0 0)
(0 0 0)
(0 0 0)
(0 0 0)
(0 0 0)
(0 0 0)
(0 0 0)
(0 0 0)
(0 0 0)
(0 0 0)
(0 0 0)
(0 0 0)
(0 0 0)
(0 0 0)
(0 0 0)
(0 0 0)
(0 0 0)
(0 0 0)
(0 0 0)
(0 0 0)
(0 0 0)
(0 0 0)
(0 0 0)
(0 0 0)
(0 0 0)
(0 0 0)
(0 0 0)
(0 0 0)
(0 0 0)
(-2.15353578358 -0.167902228299 0.0925955499209)
(-9.66893363002 -1.6975383215 0.807065972131)
(-2.47630518661 -0.137977360292 0.0818182224486)
(-0.860995694817 -0.0368729414708 0.0237370000575)
(-7.16672400066 -0.992444506049 0.488185710195)
(-1.00655764145 -0.0062490162898 0.0123961900041)
(-2.41789259739 -0.313887475368 0.155813942176)
(-1.86879444903 -0.0263134574319 0.0309968153)
(-3.64815873911 0.00643650743907 0.0367573878196)
(-2.3602558248 -0.0107660728789 0.0275487412207)
(-1.24878211991 0.0292795449002 0)
(-4.68274344969 -0.307490057198 0.177868850253)
(-1.77736640276 0.0409061874791 0.00228034692027)
(-1.13492226711 0.0214909241803 0.00211055279073)
(-0.636904475218 0.00165478866301 0.00614080177443)
(-0.162952056987 0.00426388601074 0)
(-0.291104094132 0.00606571481388 0.000308479680262)
(-0.172128267778 0.0040358019743 0)
(-0.23704517497 0.00620264404239 0)
(-0.412328429971 0.00966765025418 0)
(-0.556519424535 -0.0233281245768 0.015582395192)
(-0.72994981093 0.0191002362591 0)
(-0.344791113623 0.00902197881502 0)
(-0.592849947456 0.0139002443892 0)
(-0.219903691967 0.00515596749826 0)
(-0.827048398905 0.0216409670641 0)
(-0.304309125511 0.00796270662179 0)
(-0.526083353611 0.0123348027872 0)
(-1.54490580393 0.0404247873091 0)
(-3.27054044802 0.0855786169362 0)
(-2.04712465236 0.0479978670573 0)
(-1.24833142638 0.0292689777235 0)
(-2.886150483 0.0755204745303 0)
(-1.75077204876 0.0458115876825 0)
(-1.10110396892 0.0258170120982 0)
(-1.20310828615 0.0314811404383 0)
(-1.54469384648 0.0404192411231 0)
(-1.59581466799 0.0374162365708 0)
(-0.591189489281 0.0138613124899 0)
(-2.24766599693 0.0588135662618 0)
(-0.826825238541 0.0216351277371 0)
(-0.858144312881 0.0201204634013 0)
(-0.729703755857 0.0190937978575 0)
(-0.344732503975 0.0090204452053 0)
(-0.592514693759 0.0138923838701 0)
(-0.218677240774 0.00512721153499 0)
(-0.826932046133 0.0216379225186 0)
(-0.304204243772 0.00795996223312 0)
(-0.522424893848 0.0122490247838 0)
(-0.568248605164 0.0148690806546 0)
(-0.1628094749 0.00426015513568 0)
(-0.280289896981 0.00657181144164 0)
(-0.170412625299 0.00399557619737 0)
(-0.390516063009 0.010218440987 0)
(-0.236903031711 0.00619892464992 0)
(-0.407014113339 0.00954304823597 0)
(-0.26840284052 0.00702316459267 0)
(-0.936878805147 0.0245148450709 0)
(-0.36062224925 0.00845532232611 0)
(-0.359813991839 0.00843637153497 0)
(-0.501477488582 0.0131219138181 0)
(-0.501456797449 0.0131213724034 0)
(-0.193433859308 0.0045353430983 0)
(-0.126780554895 0.0033174041767 0)
(-0.0987423475822 0.00258374225099 0)
(-0.170895261228 0.00400689231097 0)
(-0.0376646554966 0.000885413911795 0)
(-0.236878404408 0.00619828023944 0)
(-0.0512090745367 0.0013503431078 0)
(-0.0901260201658 0.00211866618763 0)
(-0.126771446952 0.00331716585365 0)
(-0.0987418635346 0.00258372958515 0)
(-0.170502663543 0.00399768727724 0)
(-0.03765714713 0.000885237406471 0)
(-0.236842137805 0.00619733126916 0)
(-0.0512123455952 0.00135042936305 0)
(-0.0900415410232 0.00211668026722 0)
(-0.0598823449473 0.0015669117508 0)
(-0.00873901795249 0.000174798769608 0)
(-0.0178072102417 0.000418608678889 0)
(-0.0178256219589 0.000419041498208 0)
(-0.0241880629105 0.000637820236702 0)
(-0.0241910363087 0.000637898642878 0)
(-0.0426270496949 0.00100206897743 0)
(0 0 0)
(-0.0351976124991 0.000928133419305 0)
(-0.00761275766867 0.00014205274269 0)
(-0.0125166400763 0.000233558341076 0)
(-0.00990262177579 0.000198073297447 0)
(-0.0188383819194 0.000496753347276 0)
(0 0 0)
(0 0 0)
(0 0 0)
(0 0 0)
(0 0 0)
(0 0 0)
(0 0 0)
(0 0 0)
(0 0 0)
(0 0 0)
(-0.00447502479231 5.37727958954e-05 0)
(0 0 0)
(-0.00771121278811 0.000154240501035 0)
(0 0 0)
(0 0 0)
(0 0 0)
(0 0 0)
(0 0 0)
(0 0 0)
(0 0 0)
(0 0 0)
(0 0 0)
(0 0 0)
(0 0 0)
(0 0 0)
(0 0 0)
(0 0 0)
(0 0 0)
(0 0 0)
(0 0 0)
(0 0 0)
(0 0 0)
(0 0 0)
(0 0 0)
(0 0 0)
(0 0 0)
(0 0 0)
(0 0 0)
(0 0 0)
(0 0 0)
(0 0 0)
(0 0 0)
(0 0 0)
(0 0 0)
(0 0 0)
(0 0 0)
(0 0 0)
(0 0 0)
(0 0 0)
(0 0 0)
(0 0 0)
(0 0 0)
(0 0 0)
(0 0 0)
(0 0 0)
(0 0 0)
(0 0 0)
(0 0 0)
(0 0 0)
(0 0 0)
(0 0 0)
(0 0 0)
(0 0 0)
(0 0 0)
(0 0 0)
(0 0 0)
(0 0 0)
(0 0 0)
(0 0 0)
(0 0 0)
(0 0 0)
(0 0 0)
(0 0 0)
(0 0 0)
(0 0 0)
(0 0 0)
(0 0 0)
(0 0 0)
(0 0 0)
(0 0 0)
(0 0 0)
(0 0 0)
(0 0 0)
(0 0 0)
(0 0 0)
(0 0 0)
(0 0 0)
(0 0 0)
(0 0 0)
(0 0 0)
(0 0 0)
(0 0 0)
(0 0 0)
(0 0 0)
(0 0 0)
(0 0 0)
(0 0 0)
(0 0 0)
(0 0 0)
(0 0 0)
(0 0 0)
(0 0 0)
(0 0 0)
(0 0 0)
(0 0 0)
(0 0 0)
(0 0 0)
(0 0 0)
(0 0 0)
(0 0 0)
(0 0 0)
(0 0 0)
(0 0 0)
(0 0 0)
(0 0 0)
(0 0 0)
(0 0 0)
(0 0 0)
(0 0 0)
(0 0 0)
(0 0 0)
(0 0 0)
(0 0 0)
(0 0 0)
(0 0 0)
(0 0 0)
(0 0 0)
(0 0 0)
(0 0 0)
(0 0 0)
(0 0 0)
(0 0 0)
(0 0 0)
(0 0 0)
(0 0 0)
(0 0 0)
(0 0 0)
(0 0 0)
(0 0 0)
(0 0 0)
(0 0 0)
(0 0 0)
(0 0 0)
(0 0 0)
(0 0 0)
(0 0 0)
(0 0 0)
(0 0 0)
(0 0 0)
(0 0 0)
(0 0 0)
(0 0 0)
(0 0 0)
(0 0 0)
(0 0 0)
(0 0 0)
(0 0 0)
(0 0 0)
(0 0 0)
(0 0 0)
(0 0 0)
(0 0 0)
(0 0 0)
(0 0 0)
(0 0 0)
(0 0 0)
(0 0 0)
(0 0 0)
(0 0 0)
(0 0 0)
(0 0 0)
(0 0 0)
(0 0 0)
(0 0 0)
(0 0 0)
(0 0 0)
(0 0 0)
(0 0 0)
(0 0 0)
(0 0 0)
(0 0 0)
(0 0 0)
(0 0 0)
(0 0 0)
(0 0 0)
(0 0 0)
(0 0 0)
(0 0 0)
(0 0 0)
(0 0 0)
(-0.0274319829419 0.000723359862174 0)
(-0.0599439085487 0.00156852265516 0)
(-0.0623300522693 0.00146524359972 0)
(-0.0126441655297 0.000235937944001 0)
(-0.0872033844439 0.0022818079004 0)
(-0.0202703350936 0.000476511372586 0)
(-0.0188565870193 0.000497233401472 0)
(-0.0352176490859 0.000928661768374 0)
(-0.126848375368 0.00331917880153 0)
(-0.0797378002037 0.00187446179091 0)
(-0.0293596126439 0.000690180465931 0)
(-0.111952771114 0.00292941288033 0)
(-0.0399052052986 0.00105226894701 0)
(-0.0259582228103 0.000610221208682 0)
(-0.00483804874441 5.87411180463e-05 0)
(0 0 0)
(0 0 0)
(0 0 0)
(0 0 0)
(-0.00396648489203 4.76620784063e-05 0)
(0 0 0)
(-0.00874435599769 0.000174905541758 0)
(0 0 0)
(-0.00762516903888 0.000142284336713 0)
(0 0 0)
(-0.00990850371176 0.000198190948558 0)
(0 0 0)
(-0.00509173381624 6.11832952803e-05 0)
(-0.0352114189005 0.000928497483277 0)
(-0.126829394463 0.00331868213756 0)
(-0.0794810968664 0.00186842725527 0)
(-0.0293426779803 0.000689782368921 0)
(-0.11191959518 0.00292854478205 0)
(-0.0399019588712 0.00105218334127 0)
(-0.0259222772454 0.000609376206842 0)
(-0.027422798585 0.000723117677889 0)