/*--------------------------------*- C++ -*----------------------------------*\
| =========                 |                                                 |
| \\      /  F ield         | OpenFOAM: The Open Source CFD Toolbox           |
|  \\    /   O peration     | Version:  v1906                                 |
|   \\  /    A nd           | Web:      www.OpenFOAM.com                      |
|    \\/     M anipulation  |                                                 |
\*---------------------------------------------------------------------------*/
FoamFile
{
    version     2.0;
    format      ascii;
    class       volScalarField;
    location    "9.8";
    object      p_rgh;
}
// * * * * * * * * * * * * * * * * * * * * * * * * * * * * * * * * * * * * * //

dimensions      [1 -1 -2 0 0 0 0];


internalField   nonuniform List<scalar> 
28582
(
19548.201694
19547.3201461
19548.5551237
19547.5996729
19549.7853994
19548.342986
19551.6594173
19549.9100886
1150.60226315
1220.46096222
-0.0592003794945
19551.1969503
17404.3683339
17344.2125443
19548.2834933
19549.6199435
17283.566832
19527.4291073
19528.30741
19547.7721917
19546.7581313
19546.7813995
19547.6757303
19546.90817
19546.7567244
19548.0205695
19546.8336666
19547.6178392
19547.1590445
1259.28819223
-0.185157763192
-0.12647574694
19548.1273485
19549.7573955
17339.9982498
17297.0754833
19530.839032
19546.5215512
19548.0685212
19547.0508082
19527.0641573
17027.9228055
19527.2230772
19524.5460496
1169.60147035
1220.98748206
8.70412406463
11.4286924725
1192.13336428
10.6490407793
19535.9851111
19538.3228939
17392.3151776
17430.0471951
19538.9081645
17421.5811769
19535.3810653
19537.6659414
19532.8435841
17374.1970856
17374.4186504
19536.0996075
17405.1515314
19534.5053573
19531.0595925
19530.7234133
17215.7575221
17313.3111776
19533.6658779
17241.1752726
19528.3931813
19525.8386067
17101.8958914
17128.0640661
19528.9895272
17158.9292468
17180.4855845
19526.5638895
19529.0515315
17135.3822622
17182.9554104
19530.1602374
17245.4164499
19531.4845819
17197.9222348
1159.55349063
1.95781608896
1167.61996267
1177.60776277
1.49810067956
1.66217597908
1247.63436739
8.50861077165
8.82722199693
1278.55879207
9.79974672766
1294.29384286
8.9175095018
19524.3392722
19525.5852574
17326.1098112
17363.4325516
19524.1350422
19525.7766163
17350.0257105
19522.8472758
19521.9192125
17312.4064839
17326.0961442
19522.6054077
19521.9957766
17338.9929063
17396.8548892
17390.1094233
19530.5213357
19526.8031469
17357.599174
19526.303965
17365.0892044
19525.7188068
17057.1883074
17084.7797866
19527.198622
17042.8576146
19526.1320276
17052.8910284
19527.2180006
19526.3767542
17035.2250848
17018.3899785
19526.4134843
19527.1550606
17027.648277
19525.7327106
19527.208859
17094.0005901
17129.9692938
17080.6845589
19527.2311804
17055.5839172
17044.7240266
17008.1499865
19523.91723
19527.0873763
17027.1872742
19526.9470664
17034.9435579
19546.1346656
19546.2531489
1324.4291618
-0.103934647534
19549.8946032
17379.898393
19546.6973848
19546.7823808
17006.3593516
16982.0802228
16936.6858731
19546.8896009
19547.1803573
16931.8121822
16922.7437462
1170.42158832
1306.96352145
1339.52754062
8.58626502436
8.79183071255
8.53217458092
1367.7519323
1384.36311946
19525.5390992
19530.3126624
17343.8701977
17365.5054011
19526.1470859
17326.0252958
19529.7868334
19525.0145824
19525.4163534
16971.0589336
17001.1782572
19523.600186
19526.5047403
16976.1066876
19525.2582469
19523.1909792
17016.8111261
16961.674717
19526.3069314
16999.8402277
19522.5363297
19523.9433817
19521.3522966
16953.3512577
16944.4328723
19522.7257295
16975.4240616
19521.7672865
19522.2009663
19521.5491482
16936.4818501
16932.967167
19522.0203509
16917.5131997
19521.9822864
19522.2606552
19523.1528449
16880.6989648
16929.9593414
19522.5198494
16900.7131005
19522.4258029
19582.2808312
19574.5702209
19559.2094575
19552.7353724
716.123294566
905.153239328
794.77373682
915.821980914
923.419017126
-0.0760278989438
0.319073388308
-0.034397747756
0.0707336339285
0.101039514859
0.161851288382
19582.8805327
19582.5390535
18663.7067312
18691.8138543
19584.8373295
18701.7411049
19581.3706355
19579.6214761
18696.9516101
18687.765427
19580.1302567
19578.6280447
19573.959038
18703.2059941
18658.8812742
18669.250303
18364.8835042
19564.5362379
19551.9606454
18509.8818231
17562.3213138
18141.8613388
17343.3157898
19568.2768123
19563.7157428
18597.533334
18218.0076595
17936.4038108
19548.7603163
19555.3748835
19546.7254663
18024.0562775
17324.7976416
17773.7466878
17275.6321179
17738.4229209
17274.5068466
674.548482554
667.841628112
707.462508768
0.736601878228
1.6053237623
0.773458288018
1.991422212
4.6201806527
21.4447104276
5.37064505924
15.1339993349
667.632567403
678.652636698
801.19210129
746.753461465
838.840613367
1.152728011
3.3213191055
2.5673161935
5.47398807538
977.047929845
909.484737453
976.696806855
6.86960135533
13.1916345023
8.66763947786
14.1065015128
855.695184788
868.546165309
5.48615470079
7.9279491323
9.36563918492
978.404507951
923.569530286
975.262729604
9.92849210222
13.3839347276
10.6593580531
13.1707555286
19578.8794738
19580.2769849
18656.775588
18676.0480002
19580.7850575
18669.5976655
19578.3844069
19578.8446387
19581.098809
18683.7535143
18687.7276233
19580.6261878
19579.2761055
18678.6483605
19585.9420983
19583.2133926
18695.0998304
18718.9807007
19582.8653585
19586.018285
18713.4980868
19579.2786686
19581.2669212
18693.9163229
18699.6245055
19579.5250545
19580.9450187
18697.620929
19579.2207099
19580.6888355
18699.4683567
18687.0459725
19580.9603838
19579.0747234
18696.4757579
19584.5213907
19583.1283952
18715.6816304
18703.9133811
19585.3843871
19582.6116545
18709.8066058
19585.0092662
19586.9450732
18694.6851507
18606.6099872
19587.2682222
19583.1313596
18677.8983932
19582.8550341
19580.8790171
18692.0708338
18630.4208326
19582.6128746
19580.3533041
18681.0239833
19581.9620075
19572.0490428
18484.9273144
18521.6135386
19577.6138207
19577.7088492
18605.0744966
19564.7670372
19581.6147868
18288.2016443
18419.4129563
19571.5765742
19575.9981442
18153.9713387
19550.0494176
19537.3677491
17953.1842619
17458.3183975
19556.4229043
17815.4724693
19531.7099282
19557.8130464
19564.0491996
18279.0410647
17872.2771766
19569.3866609
19552.4399165
18013.9637361
19543.8766514
19525.6290694
17412.8391493
17595.2661535
19539.5361512
17717.7740466
19527.673732
19571.8806906
19578.7851141
18516.5706657
18509.5354038
19576.6717117
19574.8156122
18405.7186753
19567.2697023
19565.845239
18384.5869132
18081.5137951
19572.2521194
19560.5224923
18262.6984542
19563.2512343
19553.4327911
18009.190385
18089.3948014
19556.9872739
19559.8370004
18173.6473765
19543.0288879
19557.8943369
17794.1907392
17889.8413242
19547.5366234
19552.5668088
17697.2298234
19532.844822
19523.5186007
17553.2695972
17294.0008591
19536.2031827
17495.3742249
19521.6444666
19540.4388665
19546.2703113
17837.020192
17611.4664567
19549.8047026
19537.5768082
17655.2164282
19530.4688771
19519.4770923
17282.0668777
17443.5085098
19528.5758898
17467.3278858
19520.1194663
19533.6470724
19543.7954966
17579.2109879
17715.639705
19535.2209096
19541.6985776
17563.28275
19518.6932189
17429.9982825
19526.7204396
19546.5425932
19545.539241
19545.2463894
19547.1742386
19547.8636562
19556.9023906
19546.6388922
19545.783771
19545.3893243
19546.8916981
19547.1320083
19556.1032756
19535.966704
19540.0339785
19537.730156
19542.8139614
19546.8061789
19549.5627233
19554.3910658
19537.5335555
19537.4281556
19540.5288316
19542.5680958
19543.7812838
19544.3563879
19543.9429743
19542.5236017
19552.549146
19542.9371745
19542.0741457
19542.4487178
19543.2997955
19543.9584533
19543.9543446
19543.8097813
19555.2998209
19545.894188
19544.4426302
19544.004291
19544.3399993
19544.7656006
19544.7150607
19544.6104003
19555.9328441
19545.4998896
19545.7722283
19546.1891983
19556.3369108
19533.2974778
19536.6046546
19540.8953511
19544.0519348
19546.8057792
19550.8285472
19584.8522057
19476.0453535
19536.7508211
19539.8892347
19544.8130142
19545.857159
19544.7857776
19542.2574601
19536.8179797
19530.3127789
19541.9672694
19542.4557437
19543.2724334
19543.6872635
19543.2526409
19542.1536925
19540.2965114
19549.2847435
19545.4782147
19544.5558144
19544.4234487
19544.5962655
19544.527281
19543.7654692
19542.0641168
19552.0893593
19545.38217
19545.1763045
19544.6897082
19554.6268094
19529.6175756
19534.972221
19542.6020862
19544.9627793
19545.5114554
19544.9442155
19553.9452526
19470.319586
19533.556839
19539.8497351
19541.0259882
19542.9967941
19541.2829228
19535.4589684
19524.1818669
19511.6668616
19541.0690025
19542.9673943
19543.1807527
19542.5070348
19540.8076468
19538.0947062
19532.3761891
19543.940534
19545.160064
19545.3492119
19545.0124693
19544.1544009
19543.494299
19542.9070588
19541.3011943
19537.0200551
19547.6728404
19547.4273968
19545.9159749
19545.0832491
19544.6711281
19543.6110238
19541.0274299
19551.7823342
19545.5041331
19544.1984664
19554.1754138
19529.0190454
19540.3280174
19545.2210351
19547.77634
19547.6524265
19545.4221729
19544.9362959
19521.8216637
19520.9394751
19530.8991739
19541.044182
19545.1341228
19546.3779898
19543.7801204
19539.2008721
19534.1024944
19522.0055185
19540.5479155
19533.0152509
19537.7297002
19542.92501
19545.548176
19543.5285202
19540.0618968
19538.3064915
19536.6840311
19536.5305182
19540.1305509
19544.1190701
19545.5694275
19544.8189239
19543.030413
19541.8021502
19541.8218439
19540.31416
19540.7271735
19548.042149
19546.7132797
19544.8857742
19544.7603355
19544.0004756
19542.9754105
19543.303376
19545.8605187
19545.7274336
19546.1911416
1264.67215032
1263.95742147
1199.98618639
1173.57837079
1227.61427396
1328.64690703
1423.46745506
1442.58353422
1009.65188703
1112.58229076
1265.47126751
1287.29683648
1229.72898658
1227.60476694
1295.44706713
1383.3281511
1435.6502607
1423.42119802
1009.6188464
1115.9396684
1244.77522788
1256.87524067
1260.1112131
1303.14085748
1372.20911953
1437.53707303
1446.03331551
1411.51801046
1080.58284081
1197.71903594
1217.54206058
1251.95432494
1307.97012119
1371.85177069
1430.64908668
1446.51328788
1440.06907491
1192.8074685
1224.73858742
1259.27580216
1352.61382932
1397.03753261
1433.50556055
1459.75653528
1376.51078172
1413.69222256
1442.45538333
1.42803835518
-0.138723775073
-0.0757926924747
-0.0924271236278
-0.125652554232
-0.083770311988
-0.0969355198311
-0.0909500939921
-0.266055126548
1.77201592762
2.06324800491
1.78788026204
0.252110503176
-0.286967248537
-0.29165911384
0.343168634489
0.576486106415
-0.132647278351
-0.264858289446
0.769658677941
1.30341339912
-0.113623548941
-0.164862205515
-0.0632169868049
-0.201011148087
-0.00197589563387
1.97674598278
-0.140699819217
-0.309141341705
0.708827725332
-0.157826413799
-0.234124263869
-0.138280149017
-0.263039993976
-0.101818466459
1.07060715012
-0.15861446398
-0.314317527217
0.831479865616
-0.139621475494
0.114974786354
1.21640380525
-0.146914481592
-0.145987001255
-0.288607521406
1.08794960331
-0.13372518826
-0.314310121491
1.75921064972
19538.2048006
19535.8836751
19538.211552
19535.0523282
19537.4720444
19535.3850584
19537.4740858
19541.0450874
19540.3542217
19541.6421487
19539.0354321
19536.2755984
19538.9416923
19538.7057156
19538.8185912
19539.8592349
19540.0366531
19536.9753031
19538.7899263
19539.2363517
19540.0349249
19541.7672174
19540.977714
19542.194374
19540.3662938
19540.8580926
19541.3600759
19542.6848731
19535.7111838
19534.4083713
19536.3649942
19531.2164808
19534.2404624
19532.6824659
19535.2631367
19537.6423818
19537.3043944
19538.7338496
19535.4218439
19536.5271042
19535.9680579
19536.8347597
19538.50267
19538.5428537
19539.7507054
19535.4082305
19537.9187446
19537.5582516
19538.8833437
19540.6748431
19541.1180258
19545.1817841
19539.3837223
19536.2731048
19540.049954
19543.6792607
19533.5131889
19531.2327141
19534.7864777
19528.7589705
19533.9533847
19530.1463341
19534.876632
19536.8828124
19536.3147322
19537.8547976
19537.0515669
19539.6221688
19537.9912234
19541.4444713
19537.3329672
19536.3967637
19538.4408368
19532.2184474
19536.7506448
19534.7166987
19538.1817184
19536.8676704
19540.2403843
19543.0192902
19540.0761535
19541.1018506
19541.1202147
19544.2780937
19521.1047949
19522.3815624
16667.7732519
16631.2935731
19535.755866
19529.7477691
19536.2587547
16741.3797926
16999.6957138
16725.1117549
16973.7571374
19543.2042836
19540.6208444
19543.397004
17054.450222
17165.2175384
17037.5961572
17140.438978
19546.5867503
19545.181971
19546.2919192
17203.9595828
17268.3945005
17175.1307073
17227.6417874
19548.104467
19547.0099948
19546.9593617
17292.6619298
17311.4739835
17245.8309656
17239.7820253
19546.2665393
19545.9146535
19543.9883116
17291.4320583
17058.3402162
17185.920023
16842.8763182
19545.3157112
19542.3888651
19541.4503871
16938.9576181
16718.9667281
16728.2757075
16596.0666065
19537.4070862
19540.0700251
19531.6685049
16716.937858
16638.7967565
16601.030835
16489.4621131
19494.1208861
19514.5175698
19513.6920898
16654.8048076
15953.7023257
16534.695799
16430.0789454
19540.5813
19532.254404
17240.5648714
16603.0376545
17146.1447018
16819.120027
19524.4087935
19527.5074823
19529.3736458
16597.8990673
16668.6778324
16810.6664045
16865.4748543
19536.906735
19533.7189444
19538.3392951
16748.357676
16949.6671417
16905.5408367
17025.5467469
19543.6710509
19541.7301134
19544.4410454
17009.6509851
17121.7416879
17048.9294775
17125.8169817
19546.0415276
19546.4546763
19546.7887742
17157.7742735
17213.2160434
17145.7137543
17141.7394026
19545.5103907
19545.9243637
19543.9183732
17226.1151456
17203.176097
17104.8205797
16884.5200473
19541.5688579
19541.6543985
19539.5968531
17126.4623409
16761.1974595
16788.7469093
16555.1077998
19536.8501126
19537.9788022
19536.5861659
16665.7400135
16583.8722914
16543.0321469
16601.0210831
19529.4988093
19534.6858258
19532.3384054
16594.4627502
16492.0130849
16622.0047937
16582.5179183
19537.9096242
19529.5293893
19546.9338339
16542.4430635
16481.4637323
16660.7712303
16567.0218578
19535.1368349
19540.7666977
19537.3323544
17153.762287
16888.7207626
17173.5924497
17116.7308572
19534.8897225
19537.3919747
19539.4309003
16876.9696079
16952.8799466
17120.594668
17194.3902509
19540.7705801
19541.4538978
19543.1860295
16979.8327254
17060.9684603
17209.9979983
17201.9289554
19544.7244324
19544.314298
19545.0635405
17074.0397512
17133.6968999
17192.876075
17143.5793628
19544.9087348
19544.8309498
19543.8236729
17133.939372
17070.9727522
17105.6923278
16920.4118993
19541.5704587
19542.6263858
19541.3085074
17017.4293123
16800.3041444
16860.5921705
16674.7485576
19539.0324116
19540.3379941
19540.0116268
16722.1476424
16608.2076399
16679.2623333
16709.0890049
19537.7718686
19539.8932702
19539.5192603
16594.8861428
16624.5175503
16717.5092217
16709.8834163
19535.9315614
19538.7485841
19538.2102282
16634.0932976
16586.4058869
16699.5867055
16608.9548874
19550.4966328
19538.9166693
19550.8989219
16675.2018719
16579.5752679
16698.1161255
16537.5457764
17204.264666
17174.3404851
19542.4629213
19544.6895243
17179.9752565
17242.1807064
17323.4356005
19545.1224496
19546.1920703
19546.7883666
17244.7587706
17210.5683038
17315.9398304
17257.3304324
19545.3708258
19546.7431583
19546.1779864
17193.876645
17126.481115
17234.0084576
17169.6097985
19543.9630997
19545.3985725
19544.476558
17092.0789444
16944.2298752
17135.9024121
16998.1054761
19542.3200297
19543.7536977
19543.5025117
16895.7570218
16756.650325
16967.3088631
16921.8997868
19541.8451737
19543.5603476
19543.5694449
16746.7570558
16778.7107265
16921.772365
16897.9340998
19541.1327338
19543.3113385
19542.6286119
16758.0385377
16710.6612993
16865.2448716
16774.1692193
19539.9125311
19541.7895023
19541.369203
16703.663328
16619.080866
16761.9495533
16657.9833643
19551.0679974
19542.0311168
19551.1210149
16697.9774247
16520.0102702
16716.2061777
16509.7837833
19547.5371545
19549.542061
17274.919061
17204.2002412
17324.5748242
19545.6091797
19548.466078
19547.0321459
17168.8259335
17021.2360847
17266.626445
17086.1739529
19544.7914998
19546.1461462
19545.9017891
16997.20181
16973.5133508
17063.3540258
17053.4494053
19544.495401
19545.7561229
19545.191875
16946.4136299
16873.7521153
17006.0961151
16876.327342
19543.5258472
19544.6540468
19544.3627775
16855.6345147
16803.0134589
16858.2230507
16815.0901327
19542.7708656
19544.0953266
19544.095585
16783.5092347
16671.7490937
16797.1044958
16675.0750519
19551.7193768
19544.556569
19552.843672
16720.9843795
16499.3616681
16721.4687676
16516.3566241
19546.0544635
16908.9636922
19545.8006902
16888.2583915
16819.980136
19545.8245585
16812.7118238
16684.5491327
19554.4524893
16733.086706
16544.1139153
30.3505355133
23.9594685747
31.8292143589
27.5520374083
1206.12961777
1224.35490049
10.2050151096
7.47264276187
11.6105008853
8.54221505466
1295.9184839
1274.68626729
1306.86447132
5.1704189313
3.32445952946
6.69324813408
4.19261289061
1234.04263864
1272.93740308
1242.88866431
2.20690934634
1.24119602736
2.402704275
1.21973401003
1189.43280291
1210.20013895
1199.62268079
1.37869098556
1.9934306282
1.28181379705
1.40633394691
1191.7360649
1194.04793649
1218.53032875
0.785653960712
1.05247947629
1.99436014511
1.8482416158
1270.41941065
1260.8728186
1301.83587846
5.72268942748
13.0969137733
8.22281620679
15.3287319184
1384.7846755
1351.97396395
1401.09479228
15.0440516428
15.8043476541
16.2592998806
16.5425996981
1447.38431917
1430.25809161
1456.42775383
13.7658911553
12.7732747296
14.0009544222
12.9889976557
1469.4255296
1426.52253203
1515.36231764
20.1385125044
58.9289775865
19.5741540132
32.3960452493
1043.63342375
1007.60691745
1037.43596437
35.3895627981
41.0255449065
33.7510812682
38.4778550047
1207.94680896
1112.95728151
1202.79903604
32.8309629849
28.215632739
22.1843438923
13.7876296536
1305.98669327
1263.88763714
1291.04297388
19.2548146463
8.40228455762
8.58779408222
4.91567420732
1256.35575257
1283.00390936
1261.97244106
1.61716756204
1.01793661836
2.06680604191
1.42586232337
1222.15858886
1248.69933777
1253.31538189
0.993260686572
0.917523019412
1.3723269544
2.12705659554
1253.96242757
1270.97845146
1304.87758703
2.5433002926
7.63918863483
6.08965490364
15.1537588469
1339.00359757
1340.31946333
1379.27676254
15.468061624
21.1035163538
24.2373277099
27.1846088782
1416.3274061
1414.87706222
1434.07906772
17.0020774999
15.5211432819
17.2675891614
14.3270568752
1454.1750747
1439.62305068
1450.45342448
13.4906006382
12.2371492206
12.5611041225
11.6970849946
1514.38196648
1412.16325418
1482.37617399
16.4845437929
21.4951822363
14.2912988508
19.1449420808
1038.74137882
990.957630596
1023.82067415
27.2670235343
23.3979952808
25.1385423185
18.9556195178
1185.97466648
1096.92453907
1163.41887533
4.67736653644
2.57087833398
2.76098613937
1.64340399945
1258.61735462
1215.06145339
1230.78342427
2.41797819103
1.9158954989
1.59281755574
1.54634923886
1250.79553066
1234.58104749
1241.91636662
2.33325836125
2.10529599508
2.31090456646
2.43747156972
1276.39272713
1260.44239961
1287.1395331
2.35795670812
4.67792686062
2.95803896568
5.48590790194
1345.73304442
1320.57641008
1361.50362361
8.88418555658
14.1931818923
9.77977778608
14.9781408945
1399.18000578
1376.49753447
1411.83640635
29.6584339818
35.9223904728
34.842167541
36.4573171871
1445.03127734
1443.7399111
1446.94621055
16.89499448
13.7152704539
15.8283456185
12.8727719724
1455.48751236
1449.75761296
1460.81663755
12.9000246802
12.6769499246
12.9674429999
13.3638223035
1462.12021968
1424.84200176
1460.16387232
14.7304048709
18.3821823648
16.5042512807
19.6270932154
1148.93488752
1132.08690883
2.36671449831
1.47883329149
1.39228331758
1212.27219456
1183.9241934
1197.33006482
1.51861109369
1.68115328458
1.37005861174
1.58938786702
1232.85094234
1207.31452532
1222.39137881
2.49906236296
2.58942315922
2.36711612691
2.63853951597
1278.91845124
1240.0361636
1263.85546207
3.19627037472
4.69809976037
3.76153783243
5.91871348486
1347.21919948
1293.85320031
1321.88660589
8.13492594454
12.6365322436
9.25369179647
12.3703755425
1397.7328252
1342.3750632
1380.03973825
31.4365156906
29.8954486681
23.2051158823
20.0258519842
1438.25195597
1413.4132348
1423.55098395
13.7236378717
11.2163959578
11.8269513889
9.79419586472
1464.76680691
1438.75249847
1466.29016574
11.565551932
12.5121060167
10.1377335294
11.458489408
1464.67504922
1454.90061996
1469.2078293
17.9810294651
22.2605820467
18.3720746728
27.2534348176
1210.95805728
1188.45401231
2.38432586914
3.00966735246
2.616162149
3.5473180736
1236.66677479
1204.81294184
1215.59565145
6.78225320789
13.8991678301
9.38685904749
21.7300548762
1300.88119291
1241.97838126
1290.32311073
26.4132568198
22.8756097589
36.3444251933
21.3915777245
1371.90938862
1338.31572063
1366.11280951
10.6338199869
9.13908468888
8.8771823981
8.13762590092
1412.75134889
1393.87554025
1409.44327516
9.05943814294
9.03084349992
8.97423826914
8.92611112837
1465.46061966
1427.88308708
1460.54511136
9.18708924769
10.4847504723
8.57177564406
9.75069199367
1467.2765294
1455.4558551
1468.30928295
17.7456346522
31.083810998
17.1975798246
37.8977144554
1349.85253764
8.83368302606
1399.03083061
9.51932725596
9.85932487624
8.60173457724
8.32517229002
1443.49890014
8.60793746315
9.07717976644
7.21488468737
7.35216018833
1457.12245041
17.1752203419
47.6244324295
15.3486960109
50.3023655152
19485.6397528
19495.2650086
16592.3423054
16627.9528596
19493.5093278
16547.4485504
19488.0614175
19484.5662339
19493.7794733
16609.0875995
16559.2976069
19492.3394458
19487.3025634
16535.1107426
19507.2564781
19501.0664124
16839.4399942
16723.8678755
19500.5293673
16829.179917
19507.2547948
19512.2725583
19515.8464014
16925.442815
16981.1763301
19516.152655
16905.1262261
19512.3067312
19506.0450571
19500.0122228
16700.7467145
16821.2673682
19499.2967
19506.7121097
16815.1224902
19510.828275
19514.2691147
16966.4063571
16895.6269287
19514.2372141
19511.3354563
16898.1353721
19520.2089841
19518.1584626
17095.4240192
17050.3367733
19518.4797473
17094.6621039
19520.1268628
19521.822342
19523.065715
17128.890774
17152.3851525
19523.3184427
17122.4810031
19521.7099924
19518.2872216
19516.0774785
17032.194996
17074.518558
19516.3960652
19517.5647276
17083.4742534
19520.3213746
19521.3881748
17146.8088794
17104.4711094
19522.4509379
19519.4115141
17116.3485328
19527.5861469
19525.0773096
17237.7928626
17189.7533399
19525.275916
17224.4842269
19528.0341148
19530.5488829
19532.1880515
17252.7477791
17256.375605
19532.6248108
17240.8466429
19530.5867359
19528.1819132
19524.1937819
17181.9019641
17203.326318
19525.0743642
19527.9367472
17219.5175951
19531.026844
19532.6768365
17244.9165305
17215.7222768
19532.7339929
19531.1435296
17234.3402047
19535.1629845
19533.3837774
17314.8856569
17279.5819607
19534.1220448
17297.040079
19535.0713527
19535.483332
19534.9330862
17318.7514955
17293.3572795
19534.6395361
17300.8399313
19535.7052416
19534.8982995
19533.3348877
17263.9157912
17255.152062
19533.9720267
19534.1371146
17284.0580098
19535.138883
19533.2753822
17276.457752
17255.433392
19534.3100052
19534.3269829
17286.9218382
19526.3848493
19532.2323954
17251.1104423
17267.4051415
19531.8655844
17215.9468099
19527.4699966
19519.6410301
19514.2547885
17170.2949721
17006.3203641
19511.6849052
17126.9324551
19521.60525
19525.1241668
19529.4972752
17228.4177646
17094.5388227
19531.3592043
19522.0793962
17153.5025885
19517.6162078
19503.2762388
16926.0516871
16978.1678768
19508.5173401
19513.2835578
17050.9984793
19496.2610533
19506.2810424
16816.9903894
16878.1221928
19503.4438147
16756.1411906
19499.5277812
19495.7455422
19500.7305726
16748.6363766
16667.7279294
19497.4523636
16699.6282256
19498.7820261
19493.1783308
19494.3046344
16809.4627153
16627.113463
19499.5050968
19488.827089
16698.8338012
19492.9935531
19491.9306792
16637.2337321
16599.7742076
19495.060686
19489.1615768
16652.5777667
19501.9335458
19503.8159597
16717.029206
16657.8114269
19499.9947897
16657.095989
19506.2186591
19502.3464122
19506.9105207
16680.780714
16564.7460859
19502.1381692
16617.0775956
19507.0396943
19500.15451
19495.2242576
16635.5827711
16609.0443396
19497.6793368
19498.2147677
16636.3548448
19499.3758064
19494.3162951
16512.4627262
16563.1286601
19497.2271906
19496.9622311
16581.0532888
19481.2415283
19498.7881191
16554.6435723
16587.110786
19495.1508306
16493.8701283
19482.0433191
19441.3527886
19440.8030754
16100.8604133
16238.0367371
15996.6924291
19456.4284293
19429.369015
19474.4979492
19488.2034157
16560.3061306
16483.9664011
19489.8698552
19475.4228023
16483.4961604
19433.0879202
19469.0979091
16352.5726046
16001.8385955
19440.3424619
15939.9745871
19458.9143145
19502.7721454
19519.314782
16950.1674065
17169.8615285
19502.8896053
16942.3301955
19515.643527
19493.6781116
19486.2282561
16775.6064925
16680.3825668
19491.308749
19490.4456854
16803.7855133
19502.812852
19513.9019413
17172.9999553
16982.5007905
19504.7127
16958.9050116
19513.8220273
19494.977884
19496.4543659
16762.9242062
16897.9485627
19492.1712053
19498.6445166
16852.532267
19487.2458705
19482.6937707
16594.7445609
16677.5948405
19483.2086443
19487.7719516
16674.6097422
19489.2381427
19489.6377516
16615.6693746
16734.6309337
19486.0379654
19492.2570079
16691.4857894
19489.1795796
19493.4978914
16757.0602097
16815.7201597
19489.8364173
19493.493594
16747.4671271
19490.5150989
19497.6917718
16795.3974757
16830.94603
19492.7334105
19495.4929355
16758.6453921
19499.700859
19494.4851244
16834.8798108
16795.1744164
19499.8523819
19495.5739021
16869.6520621
19502.9275423
19506.2265009
16890.8012699
16966.5441397
19503.8157033
19505.38522
16923.8983171
19499.2962163
19499.9302639
16847.4845702
16959.5235525
19495.4407557
19503.2767839
16905.9446663
19502.4568343
19508.2474638
16980.8185339
16996.356551
19504.9438929
19505.9938835
16944.8192324
19508.199791
19507.9474307
17050.4379575
17005.5621015
19509.3913186
19506.7575036
17043.3104267
19510.272605
19514.0141095
17082.7464078
17120.3759251
19511.4378846
19512.8626051
17083.085245
19508.5692715
19509.8193787
17018.1964103
17071.6274945
19506.7968956
19511.0740836
17054.1311037
19510.637306
19514.8513338
17110.11293
17100.0645203
19512.9921837
19512.7371206
17082.9687089
19519.0467527
19517.2523807
17192.8065455
17153.0009271
19521.322727
19515.8411558
17187.5581951
19522.0799222
19526.4759187
17206.2628087
17205.964386
19525.0294004
19524.3534938
17201.3427334
19517.9116222
19516.9883138
17137.3328648
17176.3229712
19515.4350395
19519.1299645
17174.4180072
19520.1336638
19520.5307929
17177.9088712
17165.8031229
19521.6701545
19520.1219828
17181.748555
19524.5955878
19526.9505924
17240.0408948
17212.4009936
19527.3859857
19525.1702216
17207.5103352
19522.8087367
19524.7072886
17230.8588783
17131.8102336
19526.9987017
19519.0152298
17183.5946637
19520.7098114
19519.4067859
17158.6074121
17046.6305879
19521.9008865
19516.9306274
17125.2740655
19518.4454882
19507.8965197
17004.799259
16975.5519247
19514.1874345
19513.2372385
17071.7745136
19503.7603457
19519.7581622
17014.855261
17036.6207033
19511.2603544
19512.6616306
16908.1468241
19494.744108
19493.3848106
16888.9350316
16655.847095
19502.0824162
19486.7808417
16774.7220703
19500.5150439
19501.9185161
16917.8267348
16693.8087816
19508.1343134
19495.1562659
16803.7120116
19493.21962
19487.19406
16600.8821511
16624.0336418
19487.8751471
19489.6620399
16694.7136785
19479.9068124
19486.0114288
16588.2391078
16590.998927
19482.5982894
19480.7085473
16537.121974
19480.7849062
19486.2172808
16572.3803758
16572.5978389
19483.3251274
19483.4322855
16550.5532864
19483.9267158
19484.8106444
16569.7979272
16555.0639644
19484.4367083
19485.4123536
16553.2969275
19484.7752326
19488.8469782
16578.885821
16575.5845353
19486.962302
19486.5395197
16562.4873099
19489.7438162
19489.1857241
16603.5447115
16590.8000967
19490.8287
19487.0761302
16610.7238459
19488.0121261
19484.611205
16563.9062148
16522.4549686
19488.3293879
19485.148001
16579.8883911
19492.7944413
19491.6004926
16596.8237434
16656.2988629
19489.7452693
19494.546404
16621.0289738
19492.6919285
19493.4541636
16544.292921
16625.6262646
19490.7801848
19495.007528
16591.7763883
19468.9313433
19478.605994
16508.1124782
16580.4464042
19466.6175649
19480.0482426
16554.5177678
19442.9889534
19471.1848394
16044.3149552
16522.2774003
19438.3835331
16110.0608425
19477.5136675
19477.9856086
19490.3032837
16615.3971026
16637.8379311
19487.1201455
19481.831019
16593.4011702
19456.9054946
19496.15814
16538.2120065
16203.3106274
19462.7398302
16162.7848825
19489.8388749
19507.3568117
19513.0174379
17000.0735993
17146.8687953
19505.9793267
17028.3962035
19512.9186995
19503.4453008
19499.9638424
16938.0135947
16956.0272641
19501.3882711
19502.4790648
16984.000364
19509.1482776
19513.294785
17165.964288
17086.5340175
19510.5559506
17062.3167244
19512.9117979
19506.5972401
19509.8402765
17053.6407762
17102.0395939
19506.3677582
19509.3795912
17058.699386
19503.2285314
19497.1624475
16894.9690002
16950.0337522
19498.0620975
19501.7938177
16971.3187188
19506.4558518
19505.0271987
16920.178052
17046.4467423
19501.3031827
19510.6009974
17005.6408705
19508.8441107
19511.4374869
17050.1931789
17131.5974021
19506.9142196
19513.8021749
17064.0793238
19512.0873598
19520.2509321
17127.0018107
17152.4803107
19516.1182603
19516.7652484
17089.6547293
19516.1947781
19507.9726045
17016.993572
17068.1774989
19510.6343123
19513.746954
17091.72528
19517.739649
19514.8786911
17044.2756377
17119.8687406
19512.8166154
19519.1290089
17106.417154
19521.1564084
19523.0189377
17136.5386589
17215.1896773
19519.4117049
19524.276004
17143.4602392
19521.9635047
19524.4756602
17153.2284716
17208.6932694
19522.390512
19524.4628569
17150.1022954
19520.8333016
19516.2959827
17093.0001304
17127.9243474
19517.2664794
19520.1502937
17131.6403821
19521.4703372
19520.181686
17116.7256216
17147.0495183
19518.5959531
19522.2951612
17138.1517657
19522.5398411
19524.4583041
17147.2177157
17176.8689957
19522.6214382
19524.1540473
17133.8412797
19522.6095071
19523.144708
17130.6234332
17164.612085
19522.6108605
19523.6417622
17132.3473853
19522.8279859
19521.8296277
17139.9184343
17139.730141
19522.0030252