/*--------------------------------*- C++ -*----------------------------------*\
| =========                 |                                                 |
| \\      /  F ield         | OpenFOAM: The Open Source CFD Toolbox           |
|  \\    /   O peration     | Version:  v1906                                 |
|   \\  /    A nd           | Web:      www.OpenFOAM.com                      |
|    \\/     M anipulation  |                                                 |
\*---------------------------------------------------------------------------*/
FoamFile
{
    version     2.0;
    format      ascii;
    class       volVectorField;
    location    "9.8";
    object      U;
}
// * * * * * * * * * * * * * * * * * * * * * * * * * * * * * * * * * * * * * //

dimensions      [0 1 -1 0 0 0 0];


internalField   nonuniform List<vector> 
28582
(
(0.815662353601 0.00442111262454 -0.000409944832232)
(0.816517953377 0.00333657607639 -0.000494176726003)
(0.815863874995 0.00462382923404 0.000204570477236)
(0.816786865988 0.00303690766119 -4.42963909864e-05)
(0.815472978746 0.00412420137013 -0.000136201722783)
(0.816781892313 0.00209140814896 -0.0012993414727)
(0.816911759306 0.00505223939553 -0.000663634999873)
(0.817875705405 0.00239132639129 -0.00121453340422)
(0.102391302522 0.0775372751439 -0.00262959445688)
(-0.132897602676 0.10409474262 -0.00798216264004)
(-0.328596272051 -0.0570385886561 -0.248300840271)
(0.816955615861 0.003585648582 -0.00127911891253)
(0.756933513295 -0.000561504878317 0.00304052789592)
(0.757239770195 0.0023930019472 -0.000336104648867)
(0.819402948474 0.000797966575505 -0.00150767794101)
(0.818098706551 0.000394430461764 -0.00312938289553)
(0.7576273678 0.00326007596407 -0.00133256849312)
(0.819065808991 -0.00103215952931 -0.00230405514361)
(0.81862929038 -0.00191284844035 -0.00411452504712)
(0.815444874497 0.00776459569886 -0.000623628456387)
(0.817650375615 0.0011487059353 -0.000300453132651)
(0.816992857798 0.000471640742597 -0.000463113804106)
(0.815878260228 0.00776396170407 0.000351708623749)
(0.817840407149 0.00137922359956 0.000138049764511)
(0.817144056687 0.000424515132887 0.000260374920984)
(0.81648393139 0.00747469424446 0.000621028920256)
(0.818280781812 0.000376589197564 -0.000827996438252)
(0.819847146969 0.0080334870251 0.00241055121194)
(0.819595291186 3.37273447413e-05 -0.000626309345162)
(-0.195253826795 0.0998382816916 -0.00624477885102)
(0.150238820972 0.415422647285 -0.439300618329)
(-0.122525688117 -0.23234149146 -0.265720136451)
(0.819352652904 0.00672376055524 0.0020821095165)
(0.818239032603 0.0064102715903 0.00171212621619)
(0.75351930754 0.00283638906282 0.00320066837078)
(0.752418613925 0.00356295651026 0.00203096760148)
(0.817633382722 0.00617420976701 0.00353141913605)
(0.819373128133 -0.000412839714061 -0.000764762687917)
(0.818536102202 -0.000461347076782 -0.00211132524777)
(0.819187370715 -0.00111561647439 -0.00171507006891)
(0.819282916841 -0.00166123360182 -0.00111849935524)
(0.761394993063 0.00164256857405 0.003986776929)
(0.818826064574 -0.00253383205135 -0.00326089393768)
(0.818721106959 -0.00306716203763 -0.00347160862128)
(0.0748733257366 0.0849391549233 -0.00651925235644)
(-0.00328465555272 0.162567167512 -0.0132091473131)
(-0.298035432558 0.150813297964 0.09107453117)
(-0.198914166155 0.0476621129593 0.0289390118769)
(-0.0104682691969 0.0939069586716 -0.0113780537524)
(-0.198158737617 0.0456957352878 0.0222143289259)
(0.816597724811 0.00482708961562 0.00123143939283)
(0.815890482291 0.00409963615294 -3.40470976874e-05)
(0.756928429199 0.00021469417262 0.00221163241206)
(0.758736522286 -0.00088181286369 0.00251309324611)
(0.815977838703 0.00446396238801 0.00113638635367)
(0.758736847566 0.000392739035176 0.00163921554339)
(0.816471902116 0.00458561276432 0.000153610163068)
(0.815700787846 0.00315893071147 -0.000616089773572)
(0.816447248701 0.00282749552747 -0.00268742283931)
(0.756856027091 0.0013260059211 0.00152362352539)
(0.758849441939 0.00270456127193 -0.000460420448771)
(0.815786435472 0.00246586978122 -0.00243659939361)
(0.758780900247 0.00147375646098 0.00116321871916)
(0.816394313262 0.00367288481397 -0.000546176413521)
(0.817641361875 0.000288721357891 -0.00366505181511)
(0.817360923239 0.00216204876915 -0.00273369658222)
(0.758216566146 0.00409609442168 -0.00107031811933)
(0.759233399773 0.00329085532461 -0.00143156106742)
(0.816507923458 0.00171777869387 -0.00266019976981)
(0.759334484887 0.00415514842797 -0.00156519459965)
(0.818382745887 0.00114435473664 -0.00320302039172)
(0.819516407062 0.000140485639086 -0.00115954391235)
(0.759337219336 0.00364825012873 0.000772192636994)
(0.760131323039 0.00482041236517 -0.000504625927476)
(0.818338097272 -0.000415495673118 -0.00277967026777)
(0.759463871895 0.00380920880066 -0.000508206778869)
(0.760227869238 0.00470548472189 -0.00125045388154)
(0.819039741675 0.000524065247821 -0.00238116804802)
(0.817834686821 -0.00265156425489 -0.00551865822257)
(0.761802931605 0.0060915043392 -0.00179561590666)
(0.762753752464 0.00706902724599 -0.00269740539968)
(0.817269378894 -0.000687084743232 -0.00443243947867)
(0.762586944401 0.00672483721642 -0.0028773106679)
(0.816178666554 -0.00120900963841 -0.00474640944115)
(0.761909957088 0.00587683724396 -0.00231174979957)
(0.0462595171505 0.0525831654128 0.00370074964585)
(0.0211677553523 0.398349781591 -0.0952205938505)
(-0.0796605654961 0.0278565489748 0.0154117938527)
(-0.0215550537732 0.010423715441 0.00869028991163)
(0.0362272453364 0.273561492289 -0.213784776643)
(0.0296410256918 0.258687912891 -0.137292118518)
(-0.0730658712889 0.119502734525 -0.00818537091214)
(-0.294487029794 0.0302623074813 0.0781393333916)
(-0.229803685954 0.0166384627653 0.0404247637139)
(-0.0989776737056 0.0482951021132 -0.00463690811178)
(-0.256236799533 -0.0101423415126 0.0488224294758)
(-0.210009333978 0.057629625047 -0.00746913169398)
(-0.205726944735 -0.0218155379822 0.0128549694924)
(0.818152086479 0.00690932171517 0.00428653476507)
(0.819611829315 0.00724528890209 0.00468905427987)
(0.753048494117 0.00349432838812 0.00278886176372)
(0.753695508191 0.00110210008108 0.00348834592758)
(0.818942608392 0.0066417873529 0.00423197329298)
(0.818994894415 0.00745773686786 0.00473218837225)
(0.753296556356 0.000733121539285 0.00280366061937)
(0.818457340871 0.00645221268163 0.00359631676379)
(0.818963243571 0.00566165960242 0.00223223739067)
(0.752913559145 0.0035313092525 0.00273086914626)
(0.75238944181 0.000834475038739 0.00199586182136)
(0.819208299245 0.00610209007904 0.00333767465192)
(0.818187461238 0.00609502396815 0.00244250762857)
(0.75299262613 0.000753141510221 0.00272749875415)
(0.755007124108 -0.00178675365803 0.00348618238957)
(0.755020079168 -0.00149350543292 0.00288221225033)
(0.817402224447 0.00591530000703 0.0024322591081)
(0.818086836416 0.00644607837827 0.00341298791644)
(0.753541154962 -0.000148457479694 0.00317336872687)
(0.817851382328 0.00624782922971 0.00224971053861)
(0.753851638074 -0.000421208288592 0.0036095542923)
(0.819447946153 -0.000388003139349 0.000107818672)
(0.759797905649 0.00345097171138 0.00167603811403)
(0.760496080635 0.00537370501337 0.000324663373143)
(0.819002428413 -0.00180736747617 0.000520868631774)
(0.759984353734 0.00253450065772 0.00339223361221)
(0.818856754094 -0.000349598351962 0.00169791830923)
(0.760422802277 0.00543906493546 0.00199669800216)
(0.818188670501 -0.00167980270617 0.00119148022025)
(0.817088894457 0.000688548160887 0.00236090172216)
(0.760432287171 0.00215489375898 0.00386139945228)
(0.761305638532 0.00568755793397 0.0027389955269)
(0.817876704925 0.000102962490212 0.00210804626968)
(0.817368428522 -0.00137009571503 0.00157194166481)
(0.760660088775 0.00570945490575 0.00259968600304)
(0.818724604702 -0.00338886714412 -0.00394876456371)
(0.818205534298 -0.00319785446948 -0.00479748959189)
(0.762410856676 0.00641284922353 -0.0010711141092)
(0.763486143581 0.00745085135078 -0.00233682411591)
(0.763333493644 0.0077884580734 -0.00168316126994)
(0.818910965714 -0.00266513604331 -0.00142226236238)
(0.762305090152 0.00668626081842 0.000923474935925)
(0.763514669273 0.0077837935766 -0.00129127085638)
(0.763452858183 0.00795596638923 -0.000937408318707)
(0.818324852278 -0.00265569615894 -0.00247388810986)
(0.818395684844 -0.00250960011096 -0.000971983574562)
(0.762786813894 0.00667430386333 0.00143162978395)
(0.817709603061 -0.00217050678911 -0.000179955722956)
(0.762515214331 0.00687318463469 0.00123398042972)
(0.818378044195 -3.57105018167e-05 -0.000321748210064)
(0.819146338904 -0.000508540268769 -0.000615540329432)
(-0.20653862931 0.0114570499765 -0.00927818983052)
(-0.0439828719871 -0.0653605872567 -0.385926349253)
(0.818335642612 0.00544487243736 0.000388426619303)
(0.754980515741 -0.000731270398844 0.00282049551893)
(0.819165545513 -0.00137794307224 -0.00104309668128)
(0.81847603263 -0.00115310381554 -0.000187694028592)
(0.762064198595 0.000928475750426 0.00323623672563)
(0.763271194149 0.00799673812949 -0.000819793389796)
(0.762301448788 0.00602470747016 0.000714969767169)
(0.818229309232 -0.00121793721111 -0.000352479921974)
(0.817632315932 -0.00126173957852 -0.000755333133987)
(0.761774060325 0.00486010443258 0.00060643261925)
(0.762217045537 0.000257092584608 -0.000613688183445)
(0.0720102980617 0.0405804057241 -0.000138042490108)
(-0.118736500934 -0.0163740856622 -0.00325737156751)
(-0.117212405396 -0.0483149999983 -0.00374754186379)
(-0.146845607211 0.0115574303344 0.00986385725107)
(-0.149062539183 -0.0300050669719 0.0276594478354)
(-0.0841526450805 -0.0253674634847 0.0321480120659)
(-0.114919413493 -0.0470939538766 -0.00443947918184)
(-0.122500456234 -0.0256676516521 -0.004871560439)
(0.817359273643 0.00488965468631 0.000763278605971)
(0.816844417086 0.00498849731679 0.00216253934179)
(0.75348318481 0.000633281876498 0.00312664165469)
(0.754927586264 -0.000199907743849 0.00207421781592)
(0.81737011547 0.0052771740796 0.00200036634505)
(0.753356221546 0.000824933606001 0.00258360610409)
(0.816830908083 0.00455523330224 0.000890788339807)
(0.816930981122 -0.000736955368925 0.00122082325669)
(0.81669194972 0.000946151958496 0.00186335713456)
(0.762562072129 0.00021236894518 0.00237068444685)
(0.761664817065 0.00553618360703 0.00224044627833)
(0.816586133443 0.00102148281003 0.00146905090633)
(0.817013792043 -0.000993160643104 0.00125870628556)
(0.762276139238 0.00500074133516 0.00196470321105)
(0.81709214634 -0.000964025990579 2.01397394709e-05)
(0.817959243406 -0.00156922411 -0.00232475583117)
(0.762812171047 0.00668666860837 0.00111522278771)
(0.762817602724 0.00780265868955 -0.00076940403267)
(0.817485368774 -0.00150578751532 -0.000344530342719)
(0.762997582714 0.00632608240689 0.000784219338067)
(0.817435045467 -0.000914969577843 -0.00129508971608)
(0.816856425074 -0.000864167995384 0.000193110050746)
(0.816754208231 -0.000413697160396 1.27800725058e-05)
(0.762705775364 0.00398501867487 0.000816056514221)
(0.7623754049 0.00719971305085 -0.000206090940747)
(0.816496463661 -0.000679670074544 0.000637219256167)
(0.762890136321 0.00532991120752 0.000680533749503)
(0.817043827646 -0.00060697646149 -0.000996262087885)
(0.815724465251 -0.000775076329432 -3.05628054059e-05)
(0.816081015918 -0.000466029147737 0.000161015895301)
(0.762309982656 0.0027066393328 0.000633347498451)
(0.76212043694 0.00330760448941 0.000259546837267)
(0.816016514156 -0.000673954429737 0.000549366011084)
(0.762263066682 0.00136899871592 -9.97219382454e-05)
(0.815759646605 -0.000449703769055 -0.000288463465535)
(0.815557486562 -0.000927835313766 -0.00044131960626)
(0.815311253927 -0.000900632408322 -0.00123739291002)
(0.761904572366 -0.00105439552026 -0.000999792187739)
(0.761926932608 0.0018270905382 -0.000108867966628)
(0.815517914246 -0.00119741173734 -0.00095832463938)
(0.762007366252 0.000158886823243 -0.000534125303786)
(0.815381447691 -0.00060788340397 -0.000636324954953)
(0.789218839423 0.00840507344054 -0.00500904652272)
(0.79684978611 0.0106504694799 -0.00954957429397)
(0.808058461012 0.0184262779548 -0.012437862384)
(0.811718676052 0.0140045434984 -0.0094248046548)
(0.130959540589 0.0215637720889 0.00594228944705)
(-0.123729303666 0.0305435241658 -0.0454203604007)
(-0.13901145501 -0.00437457861206 -0.0147079562877)
(-0.317216460581 0.10149258781 -0.0375939266757)
(-0.356325525138 -0.0323475666877 -0.0269607294786)
(0.253229737836 -0.00124875312349 -0.0957000641474)
(0.538319911848 -0.157249730622 0.376828662305)
(0.204213932491 -0.078117780944 -0.0695171796796)
(0.679734432935 -0.14205941155 -0.175867714622)
(0.144013080113 -0.0620800540491 -0.139969386472)
(0.637608528913 -0.0781118338261 -0.236654351024)
(0.78580802035 0.00135589798781 -0.002470853438)
(0.786886744454 0.00350987393225 -0.00231972568857)
(0.779280757782 0.00197271751709 -0.00226334660039)
(0.779086482364 0.00342075645334 -0.0019223931334)
(0.785229981853 0.00649951948275 -0.00327481959796)
(0.774093995483 0.00303110699398 -0.002772114289)
(0.788660171823 0.0059271016198 -0.00297560567284)
(0.791452904359 0.00756044256291 -0.00414983636941)
(0.778694915628 0.00355551124476 -0.00230728825638)
(0.777552113673 0.00200909032181 -0.00468828003348)
(0.791869355009 0.013365720909 -0.00755406865155)
(0.793374425325 0.00983909447341 -0.00718054871435)
(0.797647208216 0.0147535313255 -0.0102075078144)
(0.773982028168 0.00312946242292 -0.00325551817696)
(0.758393221355 0.0034280867735 -0.00890384638804)
(0.773200479322 0.00142297476428 -0.00629057386344)
(0.76151219199 0.00489001579769 -0.0153418698352)
(0.804452973938 0.0196024323779 -0.013021897798)
(0.812404155419 0.0256581349453 -0.00999513486067)
(0.754072673321 0.0049048217262 -0.0119955461943)
(0.75822383919 0.0163662774531 -0.0215605214711)
(0.760238499514 0.00831987218958 -0.0168476521673)
(0.762980067376 0.0189272571873 -0.0169356847583)
(0.802390579731 0.0145265284711 -0.012714363164)
(0.805819830315 0.0134483137622 -0.012402366085)
(0.772853728479 0.000906969724764 -0.0074924462797)
(0.762370285831 0.00581320808438 -0.0143211987663)
(0.766124463672 0.00601070196523 -0.013359687077)
(0.81596792902 0.0212759465231 -0.0123646967365)
(0.810375456819 0.0164616243688 -0.011242071561)
(0.818042088715 0.0178415914459 -0.0098755994766)
(0.762728878303 0.0089587026533 -0.0152584419943)
(0.765050530311 0.0174247826899 -0.0151464412959)
(0.766235210509 0.00717790832615 -0.0126850540319)
(0.769187221643 0.0126139460509 -0.0104353788876)
(0.767427820398 0.00624773405098 -0.012224889887)
(0.770472386077 0.010616487752 -0.0096282999358)
(0.178199366739 0.0403828123537 0.00734571291593)
(0.174990886857 0.0358491604632 0.00617784811072)
(0.159220714462 0.0295784281348 0.00727368415249)
(0.0670089594047 -0.048723427733 0.0970515856546)
(0.114242210639 0.00650771882955 0.207488778091)
(0.0726695565402 -0.063942085046 0.104540706654)
(0.134158216317 -0.0167736456831 0.23202943347)
(0.0740099823745 0.0545429724504 0.234315005735)
(-0.141995551361 0.0905548245083 0.193096919614)
(0.0934592155534 -0.000492315144626 0.246477817075)
(-0.0191388298665 0.0467779813207 0.207173974209)
(0.166789567443 0.0345282694665 0.00667106903728)
(0.108824765839 0.0211235520479 0.00658959988371)
(0.0299380551811 0.00747702027125 -0.00873081930109)
(0.0412587740964 4.76002750197e-05 -0.000276097913106)
(-0.0811489099642 0.0114422060725 -0.0252410927401)
(0.0638961240382 -0.0931211145315 0.147198310662)
(0.059786272031 -0.0499439406941 0.255026945888)
(0.0575629130857 -0.101123742852 0.213924940742)
(0.0381618790924 -0.0623348639254 0.238837016031)
(-0.322391610633 0.0989834546756 -0.0640333671978)
(-0.242607689464 0.0986783291213 -0.0490741817691)
(-0.363666439542 0.14437327673 -0.047255526174)
(0.0721611230508 -0.0453428896953 0.227420466184)
(0.0367032376493 0.0277186928528 0.248264182722)
(-0.000346213748896 -0.0175518720019 0.193050779113)
(0.00350905709785 0.0517670510972 0.223982902441)
(-0.249216203428 0.0469763217633 -0.0318613974805)
(-0.299889976446 -0.00337354093127 -0.0283363702425)
(-0.0192776394682 -0.0802452013701 0.196234450541)
(-0.0600148833487 -0.0532860893032 0.174105502651)
(-0.0723668748217 -0.0556214886836 0.156050100273)
(-0.346883002955 0.10835724831 -0.0328317391136)
(-0.319917379652 0.0184598812004 -0.0295372518135)
(-0.332030711414 0.0206410563048 -0.0226140723461)
(-0.0488771399037 -0.0283227190531 0.15601001019)
(0.0385847339186 0.0105629664493 0.168571019021)
(-0.0320814946627 -0.0288078373705 0.134567638774)
(0.0575712484363 -0.0274270234747 0.132079822514)
(0.787268722462 0.00163630787051 -0.00143491951315)
(0.7856711122 0.000847159482104 -0.00236517096553)
(0.783250250804 0.0020755855371 -0.00132380103886)
(0.779177765434 0.00214503600028 -0.00177297400132)
(0.78591901336 0.00189674874985 -0.00194794674222)
(0.783180015884 0.00253062630942 -0.000789280797788)
(0.786994983389 0.000391304317973 -0.00184580723004)
(0.787559287632 0.0024394302837 -0.0016112391434)
(0.787526429987 0.00422586283529 -0.00242740531576)
(0.779096609161 0.00276322513708 -0.00193334572657)
(0.782955812851 0.00348963672192 -0.000902645705728)
(0.786670989187 0.00313965459105 -0.00220289110578)
(0.788321611586 0.0031313116157 -0.00189660428442)
(0.783030585215 0.00287859958379 -0.000735826237648)
(0.784949408038 0.00472220826002 -0.00561023413979)
(0.786568510764 0.00483143541534 -0.00445782961605)
(0.77427645191 0.00254258177161 -0.00273703325051)
(0.768575504194 0.00291381372464 -0.00398849390094)
(0.785579173185 0.00388029945883 -0.00412025013138)
(0.786215796495 0.00644247275925 -0.0056099670782)
(0.768570822928 0.00237421569065 -0.00378754571619)
(0.789810883068 0.00422219548518 -0.00318114280244)
(0.788323006679 0.00504672231015 -0.00348910109191)
(0.782947300061 0.00368299619315 -0.00155306858527)
(0.778346053044 0.00338899512739 -0.00272269470905)
(0.789128997321 0.00370942730216 -0.0028406779674)
(0.789172898535 0.00567663293777 -0.00396326166128)
(0.782701299095 0.00342342166534 -0.00176214179433)
(0.790667755471 0.00456069818275 -0.00405646511634)
(0.791133230699 0.00648527990696 -0.00675177879269)
(0.778004044825 0.00287060963209 -0.00313297889204)
(0.782151504167 0.00231869202828 -0.0032430024701)
(0.790200016054 0.0060471391546 -0.00529620685308)
(0.791435017054 0.00497966163264 -0.00517009914167)
(0.782518346394 0.0030767186023 -0.00213015773149)
(0.789088959087 0.00833756788893 -0.00838674234558)
(0.787836724234 0.00555142245018 -0.00568694102454)
(0.768282932349 0.00298123881799 -0.00438452970567)
(0.773700046381 0.0028727787312 -0.00375921075517)
(0.787590199163 0.00750446388036 -0.00722249102901)
(0.788930841218 0.00622535685138 -0.00628547175737)
(0.767992021776 0.00268401525758 -0.00538207153237)
(0.790628239587 0.00982633610971 -0.0116718776365)
(0.789924855124 0.0113811814742 -0.0154594535916)
(0.762813134859 0.00278685877019 -0.00577602685526)
(0.759077079391 0.00355902272071 -0.0111259128606)
(0.788376981126 0.0086539646452 -0.0103465068307)
(0.792893138628 0.012869629187 -0.0179198379973)
(0.76304488723 0.00280906032745 -0.00713155664695)
(0.790864608985 0.00881162771732 -0.0110889499558)
(0.791792192598 0.00740629288119 -0.00988517852094)
(0.773337737331 0.0022440995708 -0.00454859631792)
(0.767855369744 0.00166128059006 -0.00909197444662)
(0.790323560309 0.00668290967833 -0.00829539226806)
(0.793016641806 0.00972751778812 -0.0135147907234)
(0.767978771271 0.00233608059257 -0.00668647767887)
(0.793271444927 0.0110078822897 -0.0143080582621)
(0.799470980921 0.0153968644934 -0.0231900372786)
(0.760259489634 0.00411917244434 -0.0126221290764)
(0.763961369471 0.00307670375673 -0.011071436228)
(0.795969381121 0.0139546256465 -0.0210439211298)
(0.795960380257 0.0123325978502 -0.0162470260977)
(0.763262567691 0.00259039250431 -0.0084269339602)
(0.804506954208 0.0204760139483 -0.0276415988511)
(0.794633505416 0.0145035210594 -0.017546115971)
(0.754412697168 0.00799032507772 -0.0169210696238)
(0.755828212687 0.00630047722873 -0.01435357958)
(0.80045435017 0.018630743311 -0.0262170237246)
(0.797912741845 0.0161953340767 -0.019441715617)
(0.75638292934 0.00941483397912 -0.018908300321)
(0.80996804935 0.0230127939763 -0.0239686576097)
(0.818244398454 0.0249154642634 -0.0268042461894)
(0.757044407214 0.0109848815809 -0.0207209315676)
(0.759873675731 0.0181064224275 -0.0206397252989)
(0.806999635579 0.0211807621736 -0.0231750398536)
(0.759037562615 0.0130593907687 -0.0213430543966)
(0.820713460706 0.0261316639937 -0.0258831467157)
(0.808183100172 0.0216371010094 -0.0274673598125)
(0.804486040115 0.0186316379927 -0.0220847718119)
(0.758581588888 0.00748441728939 -0.0152511088005)
(0.759155036676 0.011961134819 -0.0184489888112)
(0.801301317882 0.0175016146329 -0.0208990363117)
(0.811453011348 0.0221557455901 -0.0269616758761)
(0.757474604304 0.0112572697833 -0.0177932675978)
(0.812803713914 0.0238503124132 -0.0235513752675)
(0.823109091547 0.0256324531606 -0.023167731386)
(0.76228275129 0.0192002350956 -0.0183271723922)
(0.762354808573 0.0144280595758 -0.0181474998606)
(0.815121648515 0.0237544803861 -0.0228929901609)
(0.761461807324 0.0143786974932 -0.0192814605326)
(0.822313760311 0.0262768658653 -0.0246464153618)
(0.797567392789 0.0112269903122 -0.0180801322249)
(0.793666100812 0.00818579362608 -0.0123036324197)
(0.768502056303 0.00181740056602 -0.0105919665266)
(0.772960906034 0.00106408779487 -0.00988010343482)
(0.795329810906 0.0104741573841 -0.0160931288141)
(0.795359760478 0.00908703419357 -0.0139802315945)
(0.768977027742 0.00248205989838 -0.0129048945918)
(0.80151220523 0.0138401990377 -0.0183663339904)
(0.80267662809 0.0162580490848 -0.0227257723809)
(0.765465083532 0.0036142627595 -0.011703196301)
(0.763428127805 0.00623399398051 -0.0152667785328)
(0.798978414196 0.0134627335505 -0.0173183883193)
(0.80563945905 0.0164075476201 -0.0227768783051)
(0.766580055231 0.00404995609448 -0.0135448691549)
(0.803573515707 0.0139407324598 -0.0174092894315)
(0.809411701659 0.0150391576457 -0.0200365619048)
(0.764939142686 0.00608590801412 -0.0136736181154)
(0.768558916634 0.00410477421443 -0.0123574015588)
(0.807808003925 0.0159861230621 -0.0208951461403)
(0.805190391972 0.0132624703387 -0.0171164969658)
(0.767864916259 0.00411521109723 -0.0123061021088)
(0.815017692884 0.0207598813586 -0.0227586547648)
(0.807087829361 0.0189830016241 -0.020673134474)
(0.761423232491 0.0125648192933 -0.0164052500023)
(0.763723852227 0.00855203475123 -0.0147962563795)
(0.813518570131 0.0218370675264 -0.024325707766)
(0.809249240575 0.0183343722031 -0.0202697580671)
(0.762704698688 0.0118672498708 -0.0152722473526)
(0.818206037613 0.0216812661852 -0.0190333017444)
(0.824090610379 0.0244985147205 -0.0203225144453)
(0.76406482003 0.0138508666227 -0.0162110380029)
(0.76575018734 0.0161779519711 -0.0131638411936)
(0.816869889685 0.0229957489642 -0.0205101834463)
(0.764914411044 0.0130112329904 -0.0147418243036)
(0.824717722864 0.0226875107413 -0.018296975891)
(0.816392871351 0.0192484882436 -0.0200369677579)
(0.812469236601 0.0161360173766 -0.0174280402628)
(0.765408921819 0.00762640403318 -0.0134287383982)
(0.766021659975 0.00927920526563 -0.0126381533591)
(0.811059958836 0.0173885690034 -0.0183562100479)
(0.817512027238 0.0175079778484 -0.0187382037749)
(0.764893649769 0.0101713240647 -0.0137001200662)
(0.819105614458 0.0199619305953 -0.0162745978438)
(0.825394581036 0.0186340915241 -0.0132610524902)
(0.768042050797 0.0136862045875 -0.0118058221373)
(0.768141557908 0.0105567128309 -0.0121247953304)
(0.820023877187 0.0180802144804 -0.0151560329126)
(0.766923165865 0.0113846228863 -0.0131134350312)
(0.825260223848 0.0207756900722 -0.0149462395221)
(0.81915488444 0.0140738174302 -0.0171301680634)
(0.813449283584 0.0146647380235 -0.0162697415671)
(0.767477563071 0.00776273168667 -0.0119578401771)
(0.76807789514 0.00609027178836 -0.0124161303623)
(0.818375638894 0.0156899489132 -0.017273343794)
(0.814255376861 0.0131264875868 -0.01635242549)
(0.768424713235 0.00719074558135 -0.0120204471699)
(0.82562191216 0.0167097987619 -0.0116287978445)
(0.769398427752 0.008992533748 -0.0113673679287)
(0.820457293584 0.0162428137708 -0.0138174571292)
(0.817695663973 0.0051965911613 -0.000462397494756)
(0.818731713874 0.00366953955621 -0.00047263770415)
(0.819181646186 0.00175430053016 -0.000472367801758)
(0.816542756912 -0.00111149767742 -0.000167159775186)
(0.810059933554 -0.00230068832337 0.000280218433094)
(0.832844159738 -0.048735681675 0.000614729217349)
(0.818232687882 0.00540206855503 0.000414409377876)
(0.818799277485 0.00351176053206 0.000583130669676)
(0.819264582346 0.00238911411947 0.000598650912892)
(0.817202992257 -0.00116787636699 0.00162570539498)
(0.810876590203 -0.00290935679877 0.00373222633597)
(0.835891007578 -0.0530788068127 0.00478295269632)
(0.818452968672 0.00609970732138 -0.000230878568942)
(0.813575421577 0.00613491950921 0.000909852238302)
(0.788105368556 0.0106397657559 0.00289132486523)
(0.78374325954 0.0110261864067 0.00245591223957)
(0.781068991107 0.0127750450173 0.00153980589179)
(0.774069236843 0.0159664837692 0.00117451522876)
(0.782035448688 0.018820186216 -0.0137282482089)
(0.720341466415 -0.0210948139537 0.0268708889653)
(0.828637533672 0.00574386872773 0.000221393793021)
(0.825264133651 0.00345725228429 8.25935052302e-05)
(0.819677580395 0.000535860308844 -0.000858217620036)
(0.817219343991 -0.00124637567919 -0.00288829051175)
(0.816236024958 0.000110078943682 -0.00324773056729)
(0.817711246644 0.00297189269031 -0.00243700791043)
(0.81205719572 0.00836471245071 0.00109062872366)
(0.837717340381 -0.0851160523217 0.0137829063701)
(0.821712258797 0.00710374338076 -0.000852691749867)
(0.823165560016 0.00537874157621 -0.000900528533078)
(0.82258702031 0.00385680369654 -0.00123488913481)
(0.821244750908 0.0033595258918 -0.0019077657196)
(0.819619679209 0.00295206995601 -0.00136027982031)
(0.819815947648 0.00233675450602 -0.000317193831526)
(0.813362631346 0.00078376907586 0.0015464070255)
(0.841309192967 -0.0677521178742 0.00496419313945)
(0.817788033793 0.00797030500689 -0.000560679340779)
(0.820372219099 0.00490855559645 -0.000429098612382)
(0.820613166324 0.00293612018425 -0.00067553889595)
(0.820089893678 0.00154474942787 -0.000756222694891)
(0.818698845105 0.000799537427014 -0.000904337870124)
(0.818749122404 -0.000557062643089 -0.000280050865736)
(0.811966362064 -0.00197669194939 0.000931717231081)
(0.8378578177 -0.0691780713089 0.00269525181912)
(0.818182695956 0.00121982912877 -0.00065735873889)
(0.817899018364 -0.000224585638032 -0.000199967565519)
(0.810962474025 -0.00183592103028 0.000613320937176)
(0.835895052949 -0.0532484589388 0.00135480488261)
(0.641333377962 0.0413784218144 0.0112509868494)
(0.635991193172 0.0399341286876 0.0163153018322)
(0.645030401976 0.0249446042234 0.020693002122)
(0.642437308679 0.0213798633686 0.0156363893172)
(0.640579738986 0.0225322470934 0.014375107647)
(0.619168844465 0.0260229184767 0.016017142814)
(0.680866685886 0.0409793591905 0.0133869558998)
(0.331145475527 -0.0863554736479 0.0588029457115)
(0.775732603137 0.0135683740666 0.00790540766068)
(0.770341068458 0.00940264035856 0.00844597059046)
(0.775113754639 0.00339015298539 0.0124444346897)
(0.772423151487 0.00224195181986 0.0126716474799)
(0.772519842728 0.00328225150502 0.0131713385731)
(0.774709816172 0.00529879115903 0.0164169026108)
(0.780522176889 0.0313410720448 0.0263147804109)
(0.810283402687 -0.167537504027 0.0425817292544)
(0.823241188153 0.00738714979845 0.000961928742829)
(0.822851825144 0.00599879433305 0.000858905039846)
(0.821936066146 0.00584334402536 0.000588363108036)
(0.820729881476 0.00663786537872 4.84227752077e-05)
(0.820792954991 0.00661694514007 0.000790661293818)
(0.823138678771 0.00548887451264 0.00341831906966)
(0.818273002968 0.00263188801383 0.00931167429558)
(0.874050203613 -0.113800148894 0.0140729805525)
(0.818788835502 0.00846718751826 0.000544009656422)
(0.820658121469 0.00517130537124 0.000659112212567)
(0.820512135045 0.00320829319901 0.000524704620114)
(0.819725949216 0.00286754926427 0.000535996813448)
(0.819098947654 0.00196698754666 0.00132456788748)
(0.820767032477 -0.000235138523088 0.00324570875181)
(0.815025421745 -0.00283681254222 0.00697029270239)
(0.849719388174 -0.0875243583729 0.00990685472169)
(0.818512728808 0.00153967549325 0.000734431926963)
(0.818983122047 -4.02701636046e-05 0.00199448355798)
(0.812549967694 -0.0024953471004 0.00457453000607)
(0.841580180632 -0.0628460697346 0.00595717951731)
(0.636844368468 -0.0157013794909 0.0209277966011)
(0.629760033596 -0.016452466267 0.0238650953823)
(0.634786229936 -0.0205448085841 0.0248396681385)
(0.633578527911 -0.0196294625804 0.022113680484)
(0.633935403892 -0.0159736494789 0.0194285729364)
(0.624932709723 -0.00603700201276 0.0225876892646)
(0.683944751989 0.032373174165 0.0526268406888)
(0.47220116246 -0.327427417517 0.0138408926205)
(0.738625030512 0.00490552324676 0.0241257860404)
(0.732097154257 0.000764433840331 0.0247911229186)
(0.782062401776 0.000374650634303 0.00932778101948)
(0.781532806064 -6.74803326184e-06 0.00907490334264)
(0.783545568325 0.00104244858946 0.00943304127274)
(0.791997966308 0.000978749871461 0.00956592765105)
(0.804943533507 0.0192335952487 0.0103734527125)
(0.881594142888 -0.188099456334 0.00187706516499)
(0.824537049577 0.0066424352836 0.000168139147064)
(0.823035813264 0.00617407604985 -0.000215547164493)
(0.822309394303 0.0040378889218 -0.00129170306449)
(0.82218987871 0.00230834896587 -0.0018586195311)
(0.823172240525 0.00177276943434 -0.00130477355303)
(0.828334134823 -0.00181137141111 -0.000813705256053)
(0.823389414253 -0.00665684023702 -0.00125759833052)
(0.900670060787 -0.159150634107 -0.000803330083255)
(0.817810856314 0.0114137664668 2.62612630574e-05)
(0.819281399191 0.00779995614244 0.000719376225619)
(0.821206211943 0.00513060109419 0.000616131556009)
(0.82093502706 0.00290882314095 8.04272724512e-05)
(0.820825823553 0.00209280755565 9.66382138967e-06)
(0.82096073502 0.00116647530018 0.00059286231909)
(0.82400314243 -0.00197321678844 0.000888174189861)
(0.818771834463 -0.00570553418822 7.59204867852e-05)