/*--------------------------------*- C++ -*----------------------------------*\
| =========                 |                                                 |
| \\      /  F ield         | OpenFOAM: The Open Source CFD Toolbox           |
|  \\    /   O peration     | Version:  v1906                                 |
|   \\  /    A nd           | Web:      www.OpenFOAM.com                      |
|    \\/     M anipulation  |                                                 |
\*---------------------------------------------------------------------------*/
FoamFile
{
    version     2.0;
    format      ascii;
    class       volScalarField;
    location    "1.65";
    object      p_rgh;
}
// * * * * * * * * * * * * * * * * * * * * * * * * * * * * * * * * * * * * * //

dimensions      [1 -1 -2 0 0 0 0];


internalField   nonuniform List<scalar> 
28582
(
19555.4514563
19554.9704872
19555.0026528
19554.4736054
19553.9207602
19553.2046428
19552.9695754
19551.6144544
352.68331223
360.132072049
0.0265621628857
19552.0292048
18589.6550735
18565.7940656
19551.4234905
19551.9695733
18566.1649764
19550.8299231
19550.8793067
19555.6331079
19555.2254759
19556.0653549
19555.2888971
19554.7629099
19555.8185949
19554.4406408
19553.5173152
19554.5012531
19551.597731
361.117182434
-0.00369759843902
0.0116343203678
19552.8770851
19553.707596
18689.6436083
18651.3145704
19554.1456293
19552.077994
19551.9822068
19552.3201129
19550.8299548
18578.7905864
19551.0408138
19551.2113075
358.453595186
344.51052692
-0.0162023521828
-8.42073166455e-05
360.031792596
0.00372775511496
19551.077292
19550.9732296
18692.3080174
18717.914537
19552.7788534
18588.2171726
19551.4975713
19549.9290117
19549.8440331
18651.2219033
18679.135214
19550.8252682
18569.3021352
19551.1221885
19549.9339185
19549.5254307
18655.7019702
18642.5452179
19550.7136344
18578.9474298
19550.4399536
19549.739336
18570.7138331
18678.1481512
19549.7923646
18616.3633355
18584.9939209
19550.2174521
19550.5265561
18699.7316229
18622.2941994
19549.8812215
18695.1422395
19551.4200228
18598.0698951
335.134284921
0.620750051481
307.709258573
326.348788504
0.127036397301
0.425742872801
348.268015352
-0.0219697129723
-0.0102606939076
360.538651799
0.443575563202
364.079054358
0.061796811283
19552.8437147
19552.7155633
18836.0662875
18895.9241128
19553.4016067
19555.6539796
18708.066454
19551.0421377
19550.4210051
18824.5295242
18748.8848876
19552.9158684
19551.7359659
18615.0148185
18798.3585315
18637.7649157
19551.7310295
19551.3471488
18749.1024113
19551.9410936
18622.8064438
19549.7901054
18577.8016402
18644.8507245
19550.2189019
18663.0300213
19550.5796353
18587.4472315
19550.0698423
19550.5347652
18629.3742305
18665.4282163
19550.7513999
19551.2635038
18575.6943735
19551.2408275
19550.1998492
18669.6995736
18608.9539705
18712.4093673
19550.2902543
18597.7293697
18681.1248772
18568.9991315
19550.2877141
19550.0167409
18668.6160729
19551.0503328
18572.3003287
19554.9970212
19553.0042601
375.123930474
0.0285300413152
19552.4606135
18580.9759154
19553.0672455
19554.3791836
18582.6693111
18537.0979694
18527.1602341
19556.292306
19558.7557796
18562.4932325
18563.6470872
349.833785322
378.341079281
402.554587825
0.299480604298
0.998023244573
0.869262997978
434.558857566
472.369821618
19549.9965581
19550.5385787
18729.2531555
18686.6820774
19551.902339
18578.4736976
19551.2575218
19551.2743411
19551.0066332
18642.0185648
18635.8388354
19552.1096756
19551.6100075
18561.9573495
19551.0611622
19550.2785605
18642.3305219
18619.2512536
19551.2989501
18554.9663621
19551.5793497
19551.6449231
19552.8667095
18604.6347999
18583.4822493
19553.2838121
18553.5112214
19552.3332682
19555.9215907
19554.3192827
18565.8272996
18574.1489407
19554.4414972
18555.373403
19556.1475376
19557.8898457
19560.0417198
18594.6979164
18547.1551322
19560.0827439
18594.4134842
19557.778709
19578.8747007
19574.1227963
19568.4974154
19567.1788748
178.559569966
174.058011199
199.436648314
206.029055877
252.883141791
0.0164445006009
0.0555553206911
0.00928859722201
0.0287283689865
0.0190262312407
0.0233122979318
19581.4298401
19580.5061865
19365.0413638
19348.1162606
19581.571547
19370.0271592
19578.9568726
19577.2350578
19350.400405
19311.2627989
19578.3456236
19576.1079068
19574.1976875
19377.0284874
19405.3270191
19328.5340707
19269.5769964
19570.7858785
19565.5028324
19430.289
19164.4448536
19296.7057687
19027.939918
19571.7864457
19570.5307414
19303.8013904
19230.1122153
19145.1793095
19564.1610441
19567.4118027
19563.6242663
19255.8750597
18971.7903729
19121.7280383
18856.7783939
19077.8989193
18826.8952639
195.259384732
197.185106418
181.885707677
0.117952988761
0.116628030823
0.0813631171135
0.0935971655633
0.10127890721
0.030036174348
0.0767370681293
-0.00462833203477
198.427989888
202.595689171
168.84151162
186.152377821
179.768216812
0.0821022414439
0.0836015298709
0.105626297362
0.0586728752568
196.268935446
187.804726775
216.07731712
0.040150700439
-0.0118544942182
0.0297565064105
0.0842071176175
195.666659346
219.12934632
0.062985284407
0.151418121861
0.449532023852
235.07548054
232.93305695
262.737782956
0.262261176704
0.467009384943
0.728873079195
0.848893817055
19580.3638477
19580.5236935
19362.1370673
19379.8954506
19580.4434413
19374.7015449
19580.254885
19580.1328289
19579.5329815
19371.3812433
19349.5946685
19580.1054256
19579.5784322
19369.8038057
19581.0159163
19579.702567
19375.6757587
19384.7984004
19580.3840591
19579.7823444
19395.7524322
19578.3709807
19578.8865824
19348.8727239
19350.651521
19579.020441
19577.8766148
19336.5563596
19577.7430966
19576.7649944
19334.104236
19326.4854983
19576.9975076
19577.3215016
19324.8909121
19577.1045773
19578.7257223
19381.032214
19338.1449892
19578.3396891
19577.422997
19360.5850685
19576.7216617
19577.9889965
19366.8167944
19356.7067694
19578.0979794
19575.4789412
19393.7111298
19576.0669157
19575.9634209
19311.7125477
19309.6111396
19576.3960845
19574.3932631
19325.3353341
19575.2060858
19573.2347188
19321.627513
19249.3239743
19573.9076684
19573.1988801
19356.8820209
19573.1847161
19577.2507848
19335.4496095
19271.5447454
19574.4754794
19573.9673967
19310.2045167
19570.3425539
19567.7889037
19156.6453145
19185.143854
19571.0940309
19321.8939816
19564.4802401
19571.2468648
19571.9099546
19232.6079382
19209.6602586
19572.465618
19568.3580923
19260.3523759
19568.1101866
19563.923197
19157.2754764
19029.8808514
19566.2405251
19272.5231658
19563.2692601
19573.4583832
19574.9848062
19293.6152853
19273.168786
19573.4194132
19574.2604704
19252.041654
19571.9304121
19571.6113948
19228.7127114
19228.2856134
19572.0936547
19569.5847924
19263.5097986
19571.2236911
19569.6977818
19204.88305
19201.751764
19569.0518901
19570.9860458
19217.738075
19566.935774
19570.2216835
19184.850597
19112.6292991
19566.7163833
19567.5634361
19103.3274146
19564.846047
19562.6584472
18997.0795789
19060.4594018
19564.4874991
19111.8148535
19560.8623218
19566.0573864
19567.4873805
19102.904191
19094.6306733
19567.0446377
19564.6297617
19055.9780405
19563.8060608
19560.8031366
19029.7886681
18944.8078457
19562.9878784
19051.9493134
19560.3858656
19565.5613509
19567.1565166
19078.5490595
19104.9535658
19564.4593443
19567.5335404
18992.8137784
19560.8788694
18952.3958865
19562.8662771
19554.3834072
19554.1122259
19554.5145507
19557.3487836
19558.5543379
19559.046299
19553.9384511
19553.621787
19554.0414812
19557.4236335
19558.976741
19559.3744605
19544.4763029
19548.2952437
19550.1175846
19551.7085546
19553.2329277
19554.9000031
19556.4888169
19557.0001856
19547.1896156
19549.3481963
19551.1401427
19552.2351943
19553.5573656
19555.1814751
19556.7310793
19557.2089759
19551.0360116
19551.2226058
19552.0338259
19552.9168002
19554.1251164
19555.6799632
19557.1604495
19557.6018936
19553.7656199
19552.9838634
19553.1547316
19553.7445725
19554.7837448
19556.2326767
19557.61445
19558.1005559
19555.4478164
19556.8007178
19558.0855349
19558.5615472
19541.5618747
19547.0843875
19548.7594311
19550.8745291
19552.8325854
19554.8532638
19556.7360724
19557.2193068
19545.3507805
19548.2618146
19550.5978607
19551.7026219
19553.2251422
19555.1773457
19557.044978
19557.4604359
19550.1992816
19550.628401
19551.3397643
19552.3417941
19553.8065683
19555.6909717
19557.5407822
19557.9647045
19553.2925789
19552.4752997
19552.5905104
19553.2405173
19554.5037844
19556.2748956
19558.0317483
19558.5277078
19555.1849332
19556.8630032
19558.5202372
19558.9374719
19538.7817071
19545.3980421
19547.5815682
19549.4380254
19551.7973936
19554.6861942
19557.6355071
19557.629123
19543.1015567
19546.8464418
19548.8336678
19550.0503307
19552.19498
19555.0984201
19557.9897381
19557.9651541
19548.2955984
19549.1387661
19549.950814
19551.0143321
19552.9653623
19555.6974014
19558.5721186
19558.8938254
19555.2592358
19552.1708449
19551.2853529
19551.33498
19551.9907812
19553.7354151
19556.3471876
19559.1648259
19559.683156
19552.770128
19552.3213843
19552.804772
19554.4495794
19556.9685307
19559.597645
19559.8830355
19557.4395174
19559.9937996
19560.1217615
19538.4774939
19543.8352622
19545.8832632
19547.3133419
19549.3228376
19552.950001
19558.1392119
19559.7448123
19539.585408
19541.5574745
19544.7348201
19546.6886898
19547.6303593
19549.5981395
19553.5710063
19558.5660221
19559.5937505
19558.8633671
19548.7355384
19546.3562201
19547.5249916
19548.0319702
19548.721956
19550.5152949
19554.2418886
19559.2396035
19560.9294937
19554.1836317
19550.9385299
19550.0327362
19549.7212936
19549.8917789
19551.4884282
19555.0148593
19559.9612991
19562.1408226
19551.7767373
19550.6267442
19550.7568438
19552.3451641
19555.8449648
19560.6189747
19562.1959339
19556.2651523
19560.9080317
19561.7223069
402.360043377
401.445515373
397.262506036
433.707966834
458.850277646
484.218530632
545.296887976
652.626819065
242.49187807
352.010136403
402.666062037
406.704766104
410.063803385
435.314254858
451.711795399
461.119467918
521.711290921
647.775327046
279.658756076
349.832199908
377.03024872
369.632564489
380.622371326
407.174537622
426.346458629
453.774473833
511.977810119
616.987587809
308.372092551
326.701552559
342.117120641
362.61511326
391.291457208
410.816059909
448.743505277
512.799529792
603.610437825
341.721472322
362.04430793
381.474163844
395.349879138
427.662026932
498.300013106
607.763467623
422.258901133
511.044178853
634.845845647
0.037201489415
-0.0812346221764
-0.104405475622
-0.0506358978495
-0.0621906642375
-0.0695568750347
-0.0318365297663
-0.0417186223544
0.0276273384859
0.276132831861
-0.00157654088239
-0.0758733013905
-0.0865123001603
-0.0467477850956
-0.0306651133353
-0.0187709832345
0.00724187164194
-0.0041147840498
0.0678337187713
0.254205844832
0.00435642496316
-0.0598275667909
-0.0401276934608
-0.0132312314812
-0.00410709221106
0.00734661237636
0.0205873979275
-0.00130073827191
0.0341588761438
0.172431765449
0.00883967251788
-0.00070784551413
0.0124681920118
0.00925942517773
0.0159494224841
0.028954297446
7.44147398575e-05
0.0152504938044
0.149411962064
0.00396229032872
0.0148660539049
0.00475504981614
0.0285691463545
0.0156964402156
0.0542800188306
0.172674540589
-0.0057471698535
0.0430038547725
0.244426811081
19547.0775581
19545.4069264
19547.8000472
19543.5464446
19546.4914463
19544.5088922
19546.9903514
19548.892332
19548.6083534
19549.2841439
19547.9827346
19548.6460903
19548.2434001
19549.041486
19548.6597492
19548.8700208
19549.5968505
19546.6000434
19548.2047966
19548.6184282
19549.4233438
19549.7533328
19550.1558682
19550.6974229
19548.960852
19549.45467
19549.8846754
19550.4184476
19545.0230192
19542.3005798
19545.6218652
19540.5693052
19543.8841249
19540.9727028
19544.80229
19548.0537202
19547.5358658
19548.600342
19546.2998683
19547.4020731
19546.8168712
19547.8844073
19546.9937987
19547.914857
19548.7056098
19544.1236981
19546.3696825
19547.1488578
19547.8067331
19549.0278208
19549.2887617
19550.0255629
19547.784175
19548.4798805
19548.6169722
19549.3357518
19542.727481
19540.1339954
19543.7068181
19539.0097624
19542.4023174
19540.2306841
19543.3368938
19546.5222324
19545.8704741
19546.9983263
19545.0167857
19546.3565601
19545.559314
19546.7955548
19545.418715
19545.7813079
19546.8294597
19542.6832548
19544.7316656
19545.005472
19546.4759996
19547.4406767
19547.7931934
19548.4684028
19546.017154
19546.9617952
19547.026182
19547.8397535
19534.6396827
19536.5515255
18252.3432639
18268.1196783
19541.4395706
19539.6000605
19542.0862921
18357.9198698
18351.1182562
18340.073273
18344.8420943
19545.2167648
19543.8919489
19545.1752104
18425.7061054
18470.9352709
18387.7174247
18425.5298861
19546.4467306
19545.8694298
19546.6021132
18503.087255
18384.2011333
18460.8527583
18394.2064188
19548.2106613
19547.2565908
19548.0781532
18416.5030066
18370.798168
18430.9290691
18365.9698712
19550.9235312
19549.3176366
19551.0166705
18406.3040274
18381.1057548
18424.1376147
18407.7131453
19555.6349918
19553.1932541
19555.8006963
18438.1771561
18442.142733
18481.6010314
18491.3255808
19559.7167631
19558.2380854
19559.6507044
18495.6057433
18496.0110066
18543.695869
18458.4136678
19557.061976
19559.3484097
19556.6471722
18454.105964
17758.3513341
18380.5680512
17781.3853561
19557.8871946
19550.0384342
19160.9136922
18416.6495322
19039.0536305
18479.5165529
19539.4782902
19544.4998705
19543.0279907
18482.9210452
18288.4522719
18519.846869
18356.7945035
19543.6706483
19543.9684884
19545.3841056
18351.5884369
18356.3737354
18383.432018
18449.3076506
19545.7624453
19546.079374
19546.7892377
18389.8618524
18421.3999877
18450.891116
18472.2131051
19547.1087341
19547.2064124
19547.6065041
18452.0544331
18393.0714468
18469.4964268
18428.5072825
19548.3896704
19548.0862877
19548.8552192
18431.0448212
18371.5453815
18434.9105741
18416.6941
19551.3468036
19550.0099342
19551.7143796
18428.5900755
18410.8137552
18446.682531
18456.223655
19556.2189258
19553.8868997
19556.4860389
18485.9750446
18504.1787914
18513.5380865
18530.6671674
19559.946086
19558.8552135
19560.3032177
18555.8896036
18463.277414
18578.8036923
18532.0365375
19556.9385551
19560.0810574
19557.5188275
18379.598329
17798.136367
18457.9468714
17850.5758696
19553.1662428
19559.1906794
19554.9459329
18983.0334516
18481.7410774
18850.7097511
18563.5437633
19546.5009313
19551.6429397
19549.4497691
18517.0557883
18383.317889
18558.2568957
18526.374636
19546.9668749
19548.5717917
19548.6327794
18400.9331258
18483.3611211
18501.7095619
18580.2197416
19547.7807157
19548.7570376
19548.8145721
18485.8567065
18489.1977423
18563.9359153
18567.0199815
19548.2537303
19548.8842045
19548.9542442
18482.8818495
18439.2673933
18549.3268419
18502.8200123
19549.3756672
19549.3062688
19549.9240124
18442.8436595
18422.2374958
18490.6487396
18475.0632619
19552.1395682
19551.0169578
19552.5635893
18451.392254
18456.6233898
18490.8567907
18483.2835383
19556.8211837
19554.62986
19557.1639759
18510.236289
18529.6031879
18529.2580431
18534.4506517
19560.8402133
19559.6072358
19561.2750729
18576.7466789
18547.0396284
18578.6730042
18575.283086
19558.7147009
19561.6154267
19559.8664008
18484.8084932
17879.9042771
18536.5031942
17991.9298484
18825.5289081
18618.254088
19552.1300655
19554.5840176
18607.4905285
18586.4277178
18740.7555904
19550.2984812
19553.0620525
19551.8921912
18548.1369782
18598.2674665
18664.6747326
18647.2276657
19549.7305202
19551.0836802
19550.4855901
18573.1203975
18572.4727992
18576.4881549
18565.9966737
19549.6354714
19550.215192
19550.1496435
18555.2084049
18507.3045342
18531.7339555
18524.3441012
19550.4277101
19550.3465473
19550.8775248
18496.8884194
18478.7937931
18514.2818473
18509.5291039
19553.011623
19551.9439079
19553.4570948
18497.1347811
18485.9878785
18525.3656448
18525.4147916
19557.5310085
19555.4644422
19557.9461781
18530.5318191
18537.317347
18568.768326
18572.2375246
19561.6888111
19560.3110147
19561.9616978
18580.384854
18575.2437662
18611.3721787
18594.8127562
19560.5900065
19562.3018876
19560.6847053
18541.0688359
18011.9995809
18553.5082775
18004.9426109
19550.9786562
19551.4566443
18576.3573924
18559.0841751
18552.7007812
19550.5868556
19551.0520388
19550.9299577
18532.3921958
18528.4156717
18552.7352697
18554.9098755
19551.301001
19551.2015672
19551.7507327
18525.4208918
18514.2647432
18562.8024536
18568.2984506
19553.8825198
19552.7339593
19554.171068
18535.8813279
18537.8588199
18581.1139717
18573.577635
19558.3080913
19556.1489092
19558.5598859
18579.6788904
18584.9630256
18606.6567991
18592.7449714
19562.1107516
19560.8348084
19562.1122747
18622.7731854
18589.623116
18634.2269013
18546.4755351
19560.2605864
19561.8289007
19559.7190051
18538.8848814
17975.6147513
18471.2876983
17913.7340321
19554.3577252
18568.5813949
19558.7047519
18598.8240342
18589.8633516
19562.1556615
18627.0268549
18519.7064227
19559.5027401
18442.6492869
17902.6260497
0.0806200213148
0.135503959915
0.0426630101003
-0.00928248039649
381.246751707
384.388613368
0.0823704502654
0.180388481798
0.0609460289609
0.15098269997
412.831087737
399.027835554
415.89581758
0.228497213242
0.0853820072938
0.42568607387
0.487998959428
389.72999989
410.428976599
402.700560529
0.0135423290531
0.0379724057557
0.233015048255
0.14959038588
416.867455519
406.842551402
421.902602079
0.0589978775297
0.180277243119
0.20903595121
0.142280202832
447.526707854
441.411447131
451.830157609
0.365753319403
0.431271079818
0.140052450409
0.0106036643685
467.240411866
458.433881006
462.710582155
0.397660160093
0.385107552935
0.0403802783077
0.109979241255
507.190419613
472.771813621
496.022551633
0.309815350895
0.579943143788
0.392203981262
0.805830572316
586.614010924
534.18157834
588.595479723
1.22248847119
3.2580620508
1.92798909433
4.0252013176
715.058749764
654.680441029
706.507747778
6.00120788507
9.36360517737
6.3064130324
9.14056195034
300.217583006
260.849649112
310.912771469
0.062386635451
0.0299623263513
0.279847002234
0.199503412036
380.91329202
348.095575979
379.252971771
0.0691542426802
0.134793182444
0.112984595515
0.0470165635163
406.6341325
391.486741423
392.080285857
0.249818680703
0.492403374147
0.0722889092199
0.0186379372198
401.855897972
390.546351042
390.261948819
0.382926433057
0.265758289444
0.21937252247
0.167837307399
418.811417515
395.539366398
408.179805171
0.227246299766
0.223439959669
0.307098344117
0.15251427658
443.624175599
420.088619443
430.474359615
0.0411367493084
0.0291417128963
0.176567354186
-0.0224204184751
454.419572061
438.123329363
442.525456884
-0.0469359007061
0.0824668576372
0.0215066209609
-0.0218360686152
482.505415314
454.996878457
477.894931323
0.160953170863
0.823105103953
0.122306405861
0.461273607624
582.480283135
515.087620794
564.966316509
2.00782127013
4.11088673836
1.63411145812
3.55179584076
693.516907121
631.299985488
681.312277768
6.15589824754
8.6236091661
5.64604937768
8.17592071381
317.36031938
294.191641617
317.076053507
0.579574887344
0.463193879652
0.770773042836
0.349836622831
367.397737912
335.888335095
347.577691848
0.0925826900706
0.0325877206666
0.106607697075
0.0294129828746
373.980431974
354.94112484
352.466723834
0.0116981712272
0.00681972578142
0.0246959544197
0.012675188681
371.639443438
352.732612242
356.374099075
0.00533695467865
0.0483659976128
0.0208253697923
0.018856329257
392.97190074
367.808764406
382.543600038
0.04726440141
0.219217218299
0.0264131945989
0.00239482170924
417.280471042
396.793418805
407.262106498
0.0984749169381
0.138830155203
0.0832226308398
-0.0062467173209
436.511143319
418.970266609
431.866490389
-0.00923932049055
0.0543572047376
0.0176105050569
-0.0313080634713
477.936708734
452.538929718
480.12480654
0.0665351940614
0.443778430861
0.110892227915
0.33469484431
554.781228553
514.498694991
549.658897492
1.11056015514
3.01703401329
1.13321811159
2.55720667718
671.653066255
607.427155711
661.671859736
4.93842279397
7.52044164118
4.52114348517
7.08196845081
318.583047261
296.866374144
0.00993207654001
0.0257089159908
0.00210773736649
335.284885958
309.873585866
324.717526661
0.0183438733505
0.0191253085716
-0.0028982490267
0.127275127924
350.211791765
338.015535738
349.1753267
0.0110690706691
0.0128323146796
0.222723590374
0.108455519815
377.463295883
361.472438517
374.398491422
0.00783259938043
0.0229264678535
0.0183492460977
-0.00283369828786
399.824835423
387.386690965
395.396438192
0.0263598435552
0.0952383117264
0.0155245133763
0.0184742367966
426.226072497
405.085991933
417.601344834
-0.0295423567383
0.00757641146638
0.0339382298801
-0.042704357294
477.823518346
440.462804124
470.472933396
-0.0210004568167
0.335202757942
0.0425937952685
0.210268168939
549.160877935
507.632120994
545.828917637
0.869438767615
2.53298809489
1.05645237014
2.49406413714
657.572257657
602.669804411
656.267393081
4.335695755
6.91263561377
4.38298190813
6.88085614268
354.730620263
359.672919738
0.345718268
0.173018077857
0.492668490978
0.0358187371095
370.377908156
367.245685338
368.010128341
-0.00106820848957
0.014095990534
-0.000182520124933
0.00389805820539
388.997526568
373.789929826
376.881691396
-0.00987772688743
-0.0189150228217
-0.00502720468687
-0.0261033435978
407.081694797
383.703807536
396.58339095
-0.0378915305561
0.0270890690274
-0.0369593685725
0.0640346438898
457.864774306
420.192475272
455.871180682
0.054136083774
0.507838773563
0.359647073273
0.820968851566
544.717870437
499.228717818
557.428353929
1.17142902097
2.89432621332
1.90232666062
3.49550138274
659.595386686
619.202030237
663.125458264
4.60105129808
7.09450425579
5.08619600976
7.31584694484
395.461205414
0.587294162801
460.796630629
0.554063711017
1.12031728433
0.565295089374
0.703201623214
575.497193816
2.17419784024
4.09498912489
1.87488272773
4.00555361671
670.60141121
5.72195227796
7.96208189815
6.03167813952
8.50486984843
19534.2474368
19534.8987055
18268.4165599
18419.5911569
19534.9111146
18321.4845291
19533.9354368
19534.3578508
19537.4129825
18443.8713479
18336.3745516
19535.5425248
19537.3690102
18325.7113927
19535.6947143
19536.7155447
18391.0907409
18322.5431087
19535.1498275
18302.5285669
19538.3062578
19536.8945391
19540.3786996
18343.5913082
18416.7838062
19538.8021166
18368.8231766
19538.931461
19537.1923002
19537.6216987
18346.8183172
18436.2710371
19536.275425
19539.4529571
18304.7504125
19538.2043936
19540.9413393
18413.6358515
18371.8850113
19539.8657715
19540.3761283
18359.5422847
19541.1200797
19541.6730202
18474.9834391
18404.0026228
19539.9576839
18424.6711132
19543.0032961
19542.6291954
19544.0719538
18463.3451854
18480.1727472
19543.4599552
18476.205449
19543.7423384
19541.4261577
19541.3038471
18389.0246198
18451.3236661
19540.599508
19542.5905211
18397.786259
19542.5390004
19543.4680633
18470.4179641
18426.8540399
19543.5085312
19543.3046375
18447.4146766
19544.1056417
19544.5099563
18495.0223286
18430.0472963
19543.8355397
18424.5926007
19544.7074123
19544.5282286
19544.3700321
18415.3167561
18464.1568908
19544.3804181
18453.305834
19544.6991976
19544.0835952
19544.0045407
18427.5926751
18465.8172982
19544.0969379
19544.1038008
18418.6824889
19544.5790437
19544.6764632
18454.1733741
18399.9310727
19545.3668599
19544.2299094
18452.6666048
19544.8704263
19545.2985376
18466.4610486
18386.0092573
19544.6217649
18360.8160185
19546.0307975
19545.4244745
19546.3190596
18407.2657073
18431.9951748
19546.1732667
18399.4909216
19546.2448461
19545.736146
19545.3320524
18376.0821244
18435.8015888
19545.6824943
19545.7318135
18361.5588201
19545.8362424
19546.2458649
18428.5657984
18369.8661809
19546.2043261
19545.7475146
18408.3527192
19547.1571266
19546.8511524
18437.4072771
18376.5895665
19546.3867707
18368.2648263
19547.9090186
19548.3865801
19549.5191523
18385.7756824
18440.951161
19549.5632087
18426.2325771
19548.5845446
19547.2701554
19547.3211026
18372.6150715
18446.2029285
19546.5270301
19548.2568977
18368.5109768
19548.4872743
19549.8444969
18452.1087334
18403.6471807
19549.6985241
19548.7907139
18434.4358874
19552.2364928
19550.85919
18442.7505036
18400.201099
19550.5877734
18411.8828425
19552.276541
19554.6937065
19556.0566639
18419.0821681
18483.2402755
19557.0130545
18479.1390622
19553.8772073
19552.3589505
19551.5842072
18411.9569126
18495.1583539
19550.6954206
19553.2897902
18420.3710349
19554.618818
19556.9488329
18499.2793979
18473.7174448
19556.4910915
19554.9759202
18489.9247372
19561.1376974
19558.4678753
18497.2261604
18471.7795583
19559.0509837
18498.4252982
19560.4305283
19562.3942197
19562.441306
18491.6669319
18527.8394909
19562.4888994
18532.1272489
19561.9293415
19560.5090715
19559.4403248
18484.854637
18548.3836495
19558.5685984
19561.2806224
18506.4851553
19561.7458331
19561.9442259
18515.6010722
18517.9344335
19561.8819765
19562.3262833
18520.7734912
19556.703793
19561.1518237
18393.0865221
18459.7476405
19560.9805775
18301.0313698
19558.2921004
19550.7814749
19550.8485552
18222.6717025
17833.9107594
18127.9687668
19550.6523491
19552.5719416
19556.0425043
19559.7324753
18443.6847004
18335.4080699
19560.316045
19556.7644762
18278.8900055
19550.4252722
19550.6709679
17839.1129599
18199.1329285
19551.6746934
18112.0876608
19550.6885629
19554.6417051
19561.6026223
19066.9515663
18881.8603154
19553.8752321
18792.5102806
19560.7519291
19548.9910452
19541.4876472
18616.3462196
18825.8274149
19546.616111
19545.3956234
18807.895944
19555.2284623
19560.5340996
18859.4167117
18998.3890813
19556.1012636
18773.5698902
19560.6167759
19550.0319199
19547.0049142
18832.4781159
18652.8792841
19546.2448229
19551.984504
18795.4846051
19539.657627
19538.9529704
18594.1775365
18472.5354267
19539.23751
19541.7517545
18300.1264693
19538.2818009
19537.6296405
18380.6343607
18514.2306959
19538.1814231
19539.7740125
18363.057354
19540.6430861
19544.4313202
18508.8225037
18663.7564219
19543.2695719
19544.5259554
18327.4475078
19539.2644463
19542.3327746
18541.7742588
18485.300675
19540.9425819
19543.1965892
18385.9310191
19540.3555706
19538.152369
18455.027852
18406.5116821
19540.1582372
19540.5865875
18340.621637
19540.6463344
19540.9130014
18393.1978525
18481.26688
19540.8332447
19542.3053098
18365.7326686
19541.575798
19542.3379828
18443.9973327
18549.8556387
19541.7684183
19544.1238365
18370.2369102
19541.7126726
19544.3227531
18516.5451626
18516.9273832
19543.3579286
19544.8592256
18392.451467
19542.6918148
19541.2909392
18461.1384519
18451.9624713
19542.53273
19543.0959378
18408.0759661
19542.9466219
19543.0026508
18434.3280866
18495.7256619
19542.9870667
19544.2924262
18426.3807553
19543.4194146
19544.3179233
18488.5385464
18556.7562762
19543.8963945
19545.411427
18431.1376858
19543.5601175
19545.2200599
18517.5482731
18539.0799514
19544.4719801
19545.9026864
18439.353243
19544.5118013
19543.5310418
18468.4061742
18455.1794213
19544.6729636
19544.6659232
18419.114474
19544.7237414
19544.8840487
18406.6797149
18473.0257947
19544.7853089
19545.370621
18440.3407095
19544.458165
19545.2096926
18479.7143123
18542.067837
19544.8165521
19546.0448058
18424.1792912
19544.6178939
19545.6285937
18492.526102
18499.3870931
19545.4486681
19546.2699773
18435.3578924
19545.5250666
19545.4438201
18440.2579728
18408.5392244
19545.8565913
19545.4636808
18385.8152398
19546.1325369
19546.1394559
18377.9209086
18454.4282771
19545.7419922
19546.8943479
18424.7538863
19545.4172367
19545.8023027
18436.4597496
18505.8053806
19545.4562878
19546.7493659
18390.6104744
19545.9635229
19547.0588631
18470.7981766
18455.9096265
19546.8748155
19546.9898149
18422.0544598
19547.7111082
19547.0521698
18447.4224956
18398.7681689
19547.9109026
19547.0984946
18390.3620815
19548.9768437
19549.3991567
18406.0381431
18488.2167312
19548.3303147
19550.3933766
18453.2630364
19547.8292823
19547.772558
18420.0669875
18497.6191235
19547.1848056
19548.9539643
18404.6114635
19549.0445494
19550.7266612
18496.8654298
18459.487821
19550.4532224
19549.687071
18462.6013332
19553.1715741
19551.1719398
18503.4117121
18461.83823
19552.9595058
19551.4903107
18472.9117777
19555.3668986
19556.7821977
18486.6362543
18550.4055658
19554.5965849
19557.4416056
18538.54374
19553.3011379
19552.3139125
18469.8733252
18526.9912242
19551.6045546
19553.9635595
18478.2111274
19555.4707743
19557.7775017
18551.6334438
18513.4572102
19557.5179667
19555.6306983
18539.2595216
19561.0636209
19558.7948137
18561.1456168
18539.2755828
19560.4615344
19559.2976116
18557.2595109
19562.0008434
19560.6858863
18531.2475006
18534.2318847
19561.3467626
19561.8890744
18544.7419394
19561.2325341
19560.0595426
18544.8084848
18586.5316602
19559.4529328
19561.725304
18565.9930369
19562.2188076
19562.4378543
18554.9207659
18573.6671436
19562.1979947
19562.6791579
18564.6007134
19555.8330688
19558.546359
18337.109242
18461.4231286
19555.8540927
19560.1807466
18287.7728656
19550.5254239
19550.5430022
18209.6136413
17875.8705013
19551.1493194
18128.0532471
19551.1683378
19556.3298704
19560.6292029
18482.8031962
18405.232821
19560.6112124
19557.9299298
18311.4637656
19550.9874646
19552.4074965
17891.9443102
18266.7995788
19553.2941944
18146.5847659
19551.5804025
19554.7194025
19559.8376231
18972.107444
18802.4841134
19555.5530873
18687.204585
19557.9820059
19552.0449672
19547.7762646
18659.5986193
18818.7414644
19551.7713897
19550.3661998
18702.0845734
19554.9299187
19558.3850228
18804.3553911
18917.9154744
19556.200502
18666.1121155
19557.8618691
19552.1649284
19551.2367348
18827.0708115
18738.5743434
19551.0855187
19554.684675
18682.0581691
19545.9141313
19545.8608389
18686.2673851
18606.1473372
19546.0707669
19548.3692483
18414.9012347
19543.9857475
19543.3416587
18525.8556364
18625.6908757
19544.5481462
19545.769455
18418.6313501
19547.3368476
19549.3171154
18650.965729
18773.8284285
19549.3663713
19550.3627567
18441.4455895
19545.1443494
19547.620417
18657.8078954
18693.1961965
19546.7154524
19549.6776193
18435.9338724
19544.9745883
19543.1828906
18574.0218356
18564.0496367
19544.8757726
19545.8885884
18463.2240342
19545.0183038
19544.8854557
18547.0225683
18608.8870976
19545.5485266
19546.5885505
18462.2956761
19546.2044404
19546.9773091
18614.0970893
18676.5521856
19547.0295467
19548.6538384
18498.9456374
19545.9580502
19548.0963585
18632.4578028
18664.7562817
19547.3115435
19549.0205329
18491.2124419
19546.3602476
19544.887778
18587.7599351