/*--------------------------------*- C++ -*----------------------------------*\
| =========                 |                                                 |
| \\      /  F ield         | OpenFOAM: The Open Source CFD Toolbox           |
|  \\    /   O peration     | Version:  v1906                                 |
|   \\  /    A nd           | Web:      www.OpenFOAM.com                      |
|    \\/     M anipulation  |                                                 |
\*---------------------------------------------------------------------------*/
FoamFile
{
    version     2.0;
    format      ascii;
    class       volScalarField;
    location    "8.55";
    object      p_rgh;
}
// * * * * * * * * * * * * * * * * * * * * * * * * * * * * * * * * * * * * * //

dimensions      [1 -1 -2 0 0 0 0];


internalField   nonuniform List<scalar> 
28582
(
19545.4724029
19544.5169522
19544.9540919
19544.5772051
19543.8985384
19545.2755638
19540.7009704
19545.8426792
1176.36672965
1278.89900784
0.157607516624
19543.703638
17006.6141556
17083.8302557
19546.7512641
19547.3422243
17106.1186095
19524.3946327
19527.0394096
19546.7100873
19544.0610778
19543.8893122
19545.6556099
19544.3405619
19543.9024498
19541.9937789
19544.9351359
19536.0393332
19546.5920035
1280.24541329
0.149718517155
-0.236427552928
19535.816112
19536.8763364
16923.9143766
16864.8655238
19503.7562773
19545.4425195
19547.1148698
19546.0251532
19523.4177839
17013.0552265
19525.7174292
19524.4594897
1243.87151119
1238.48649413
5.74764587701
13.3666162738
1271.73595252
16.8602890011
19515.0847615
19521.0827046
17030.0024968
17056.9511902
19518.1915706
17093.6683529
19518.4323101
19523.8524307
19523.3147036
17051.499284
17132.3496914
19525.7257541
17113.1571355
19521.3555302
19525.9797246
19524.1616242
17111.3651235
17150.3459362
19526.1835013
17165.7626173
19524.4576797
19522.98887
17112.2175917
17153.5135054
19525.414702
17110.938456
17161.135507
19524.0190581
19528.0954455
17184.5862279
17236.573739
19528.4922815
17242.2387713
19529.2337674
17190.8835881
1155.72225176
20.6745374667
1087.27968947
1177.95189892
20.2304072665
17.8688501759
1247.9379154
3.68050138416
8.77278589357
1258.39465925
7.82750735767
1285.80178814
10.9759486308
19495.136543
19494.9588147
16870.3724458
16953.790078
19495.1675407
19494.9635473
16903.6144933
19495.2450209
19498.3310541
16844.66511
16883.424362
19495.8624271
19497.7042938
16869.5975221
16923.4957667
16940.8273283
19506.1000935
19499.8266503
16900.5283788
19502.3323591
16886.4089065
19522.2833796
17097.6732792
17137.7697108
19522.5021874
17075.3576158
19521.4808906
17115.9088695
19521.782137
19520.7160672
17043.0877822
17035.8346771
19520.9876679
19521.4980159
17080.1009151
19525.719198
19526.915454
17177.7006792
17226.0603283
17219.411994
19524.6093424
17164.1405127
17188.0680383
17134.962476
19523.2963157
19523.4186651
17064.1992871
19522.17282
17121.8997511
19543.3138928
19544.0145712
1292.70720752
-0.133587593144
19539.2014576
16962.1089325
19544.3536251
19542.450594
16979.3376183
17069.0247939
16861.4757678
19540.6488458
19539.5889239
16821.7383788
16749.4413453
1217.73683689
1274.76130759
1298.26865414
11.5740587032
10.2780328212
11.2778503731
1323.66393206
1358.09891103
19508.9273502
19509.0190719
16924.7561401
16981.8977704
19505.4842307
16946.8697654
19512.3222754
19521.8277948
19520.8670072
16943.5451224
16992.5263
19520.7747963
19522.0261731
16952.2938251
19520.1192279
19521.9642644
17011.8288717
16993.8284668
19521.3637983
16967.2635029
19519.874162
19518.5281941
19515.3324505
16872.3683546
16929.9855756
19516.5502684
16920.5875349
19517.6124551
19510.0376149
19512.4879692
16838.3523031
16782.3180587
19513.7950893
16806.2587674
19509.0517497
19505.7051923
19499.5259775
16781.6407127
16753.9573211
19500.4610884
16784.1498415
19504.769511
19573.3717255
19569.2769379
19569.910059
19568.1532802
563.909133228
623.285227892
538.888321044
585.462381257
585.204791993
-0.1302403052
0.0990193415888
-0.128182648433
-0.117804545306
-0.0499296182396
-0.0380702740772
19574.7513553
19574.0243405
18673.226956
18661.4033883
19576.1777605
18657.2762333
19572.0722833
19570.2809776
18648.9828423
18630.7454906
19574.139718
19571.0105129
19571.4791267
18646.8323558
18627.8318663
18625.2078289
18611.9805697
19571.2382546
19570.0073486
18618.1590372
18583.4148188
18608.0602018
18558.6023513
19569.7884074
19568.8362929
18624.9089426
18617.4461787
18644.4156204
19569.0741371
19569.1199821
19568.3129865
18613.6869172
18566.633429
18631.4537188
18582.9498032
18623.753778
18563.8206359
540.506052254
541.127045868
570.042826971
0.57085357702
0.350956140585
0.563375666353
0.375534499126
0.590286340541
3.70480445688
0.61507561515
2.905053097
540.8196281
534.165690769
590.272348956
555.586077854
577.766259166
0.5697310179
0.378197435503
0.480346694912
0.287498975065
665.568350629
604.513347599
647.0069415
0.493610510852
1.52961194097
0.339666082034
1.71015552095
558.423947515
540.677216991
0.406856599929
0.272133870175
0.326545728405
637.513033768
577.746156703
638.356539953
0.584548702314
1.63074092912
0.501004871884
1.3783654096
19573.1006679
19574.4016457
18680.2465259
18673.0456663
19574.4065857
18682.4912957
19573.1594081
19572.8618056
19573.2603944
18671.0793291
18667.9681643
19573.9364501
19572.3551078
18679.8755909
19576.0355288
19574.1747171
18663.1410551
18652.4425475
19575.0210234
19575.1613811
18656.7463795
19570.7091638
19572.3524742
18654.3924418
18642.8357143
19571.5298338
19571.5147786
18647.6185096
19569.9865339
19569.8235829
18632.2449735
18637.305408
19570.6015279
19569.2896711
18637.6078772
19572.8332727
19573.1734799
18643.1299524
18636.6221792
19574.0089455
19572.2376372
18629.9253564
19573.1952641
19575.0805346
18636.2667836
18620.8394131
19574.6887626
19573.5913027
18624.5365171
19571.4055336
19570.2791692
18625.5097347
18619.9345118
19571.1545831
19570.5091138
18617.9199337
19571.6796103
19570.768046
18612.720564
18616.1733371
19572.0840399
19570.4655868
18614.8827372
19573.2965276
19574.9083105
18608.5194716
18613.6069142
19574.0806031
19573.776701
18602.3627638
19572.081573
19571.4279851
18595.6588433
18572.3618492
19572.9501314
18587.8872284
19570.6759563
19572.4616546
19571.2853283
18609.1093259
18604.4196795
19572.3956546
19571.825815
18602.2757581
19571.7426242
19571.4368362
18565.328938
18590.3885857
19572.0068996
18589.7054667
19570.6781473
19569.2785748
19569.4210471
18622.8105172
18637.0831726
19569.6495545
19568.9115267
18634.9265025
19569.4273646
19569.9619143
18620.6769319
18629.4464213
19569.5916749
19569.3066003
18632.169292
19568.5598671
19569.3798903
18640.1220132
18651.1362263
19569.2005604
19568.6171072
18645.0692441
19570.7351983
19570.4886535
18610.414145
18626.2413792
19571.2510636
19569.9040826
18619.8442258
19571.4073337
19571.6294699
18596.0419137
18579.7585623
19571.7466727
18606.1803996
19571.9324929
19570.9542194
19570.0567552
18631.8838116
18614.6647354
19570.1186422
19570.7408563
18620.2692991
19571.6775623
19572.2130455
18589.0629446
18599.097302
19571.6800937
18606.0006284
19572.3890958
19570.0679601
19569.7910778
18605.0899522
18609.7590853
19570.4419678
19569.3778891
18593.4748693
19571.2354904
18585.8039132
19570.854978
19544.6080655
19543.7600636
19543.7511652
19543.7082045
19543.7779544
19551.3585996
19543.962237
19543.8701588
19544.1879775
19543.1658682
19542.8367014
19550.5748556
19538.0020019
19540.542512
19537.806964
19543.8089189
19548.8275008
19552.4008363
19557.1604297
19544.1350234
19539.215038
19541.0821341
19542.8994491
19545.1235727
19546.9209796
19546.9754064
19545.4702658
19553.6958205
19543.3855185
19541.5525095
19542.5000108
19544.24576
19545.7103907
19545.8734705
19545.4519052
19554.6465018
19545.6407183
19543.4822693
19543.4910147
19544.478995
19545.2587478
19544.9485892
19544.4387646
19553.7169963
19544.0096679
19544.0072341
19543.8972411
19552.3587773
19534.0477788
19537.183888
19540.7041772
19544.9886884
19548.7899319
19553.4436003
19575.7371991
19494.069967
19538.1858928
19539.0376482
19545.0970695
19547.6434254
19547.8890155
19546.3169451
19541.4029068
19532.7718693
19541.6479084
19541.2146847
19543.3784041
19545.260228
19545.8072495
19544.5945873
19541.872734
19548.3228532
19544.3912055
19542.91187
19543.9858796
19545.2939196
19545.4425735
19544.2153861
19542.4412251
19550.7839625
19544.0660947
19543.3926329
19542.6292351
19550.9629415
19528.9615964
19533.5135357
19540.683415
19546.084304
19550.201312
19553.7003591
19565.164602
19483.1870796
19534.4149018
19536.5019091
19540.9163555
19545.8629073
19547.629673
19544.1037315
19533.4959648
19520.8820168
19537.5214812
19538.8458047
19543.502276
19546.3455921
19546.1902426
19543.1628325
19536.9976877
19544.5717308
19546.5486339
19540.2451018
19540.9628946
19544.0448082
19545.5097283
19544.8123472
19542.1066867
19538.2033318
19547.2512328
19542.2972718
19544.0810676
19544.6608781
19543.6268938
19541.5306931
19539.2539113
19549.0770862
19541.3753289
19539.7438723
19548.98391
19527.3523032
19528.7246942
19538.5593029
19547.1276929
19552.5451211
19556.5878567
19557.2874115
19548.9296532
19543.2331673
19529.957634
19530.9068812
19540.0218774
19547.3769186
19551.1107764
19550.9622085
19544.1756446
19531.5270095
19565.7983962
19547.6880702
19532.630932
19534.0155969
19543.5995537
19548.9396559
19550.2134487
19546.6866677
19541.5578909
19541.0257177
19546.3557359
19534.1669617
19536.6652766
19544.9379295
19549.0947718
19547.5855427
19543.4385403
19540.9709213
19543.9781275
19538.1420905
19544.613567
19546.6761577
19544.32712
19541.6154919
19540.3344233
19544.0440961
19540.9855867
19540.0166246
19543.6583294
1001.21982554
1152.27607737
1308.26319564
1290.50439115
1225.63506161
1255.98135887
1354.33152144
1399.11881577
722.222412193
866.406789322
978.750498547
1144.98610853
1264.54594883
1243.25012905
1221.01142405
1249.76399384
1366.00086109
1377.20906882
729.242725145
903.023881549
1018.03273521
1146.54790015
1214.4380061
1200.94922543
1211.72817755
1277.65667528
1358.78476495
1325.08592159
947.311950516
1078.50076873
1203.38228672
1243.61457096
1242.70431273
1267.54770988
1309.63014411
1320.14435137
1294.44200209
1239.57085084
1308.05474379
1301.03041778
1298.39247921
1314.80420274
1314.50386696
1302.18306919
1320.22696607
1342.58094199
1328.77126852
0.747172210343
0.31177117124
0.455774073625
-0.0388428175775
0.0773458979561
-0.0695967541851
-0.220091411388
-0.0821545449164
-0.213726101793
1.30139683231
0.704103539384
0.75292007118
1.18196826946
-0.270205094316
-0.307520779466
0.139379027254
0.0599327428422
-0.0995667861322
-0.210146159453
0.655370448911
0.439181704496
0.436482179133
-0.0246734703051
-0.0699771361596
-0.153888258194
-0.12459579997
0.644560261125
-0.071516883472
-0.222896104924
0.354057651924
0.292269316239
-0.397199219312
-0.179931494188
-0.252215324627
-0.0411079078936
1.18486431463
-0.126133877674
-0.226010073735
0.338031792253
0.0114202150338
0.267192353496
1.61293047142
0.257261010682
-0.107785699062
-0.183301088994
0.728005937596
-0.10395151774
-0.250897024515
1.44845543757
19539.278485
19537.8313707
19539.3644926
19536.5380751
19538.2037483
19537.1033194
19538.3495954
19541.3918892
19540.9099977
19542.0564137
19539.6886951
19536.7252145
19539.3701247
19538.8446598
19539.8382144
19541.2825466
19540.7835615
19538.7229001
19539.6409644
19540.6438961
19540.6072345
19542.0116881
19541.3063207
19542.2262272
19540.5212773
19540.8657899
19541.3389157
19542.5091408
19535.8662876
19535.0207172
19536.271458
19531.2644822
19533.2316997
19532.7768254
19534.1300902
19538.1898604
19537.3874242
19539.2795798
19535.1816963
19536.5449423
19535.9668496
19537.0904737
19538.2226188
19539.901861
19539.9233842
19535.9544587
19536.4923087
19538.6611424
19538.0468964
19540.1671947
19540.3497376
19544.3441499
19537.7552755
19535.9630377
19538.3786653
19542.2759347
19531.1977854
19531.1849748
19532.7524185
19528.1514394
19529.4402338
19530.1413995
19530.7738557
19535.3593527
19534.7746012
19536.8320435
19531.5109508
19534.1170314
19532.5952793
19536.3266998
19534.9291248
19536.8966246
19536.4989068
19532.7407536
19532.5982693
19534.4449356
19533.7082176
19535.3748368
19537.1991164
19540.5857369
19534.3608417
19536.1055949
19535.2977219
19539.2571404
19531.0497361
19533.3784951
17295.9718653
17284.3134271
19526.4647918
19529.1217236
19527.8555916
17131.3118755
16693.7093015
17128.3063719
16783.3813298
19533.2600689
19529.7720201
19534.1332932
16677.4298237
16761.7654661
16752.3910243
16868.377971
19543.7658591
19539.0345208
19543.9025806
16826.3389227
17041.7441558
16928.8494878
17119.8445195
19550.1388607
19547.1546616
19549.9626294
17085.2388441
17260.9757895
17155.0290277
17272.3247287
19555.028531
19552.1080358
19554.1014379
17284.84074
17360.4541879
17283.7299627
17344.7135189
19556.9388477
19555.0025243
19554.0553507
17342.1818196
17116.8287863
17328.6963739
17079.899346
19553.6844035
19551.1313452
19542.4742444
17066.3323403
17000.8886023
16987.5292904
16744.7526467
19501.873989
19525.8375154
19519.1871385
17060.3564215
16308.1793358
16822.4258079
16657.7537328
19566.364595
19557.8772119
18535.5243415
18067.2051459
18493.8298071
18105.0678702
19534.6515044
19546.5774202
19536.6706877
17863.6230744
17285.952409
17892.4100055
17209.225933
19528.8474286
19530.9662564
19529.9030999
17121.1642942
16820.6832397
17054.0931436
16864.9456297
19535.3007945
19532.2745094
19537.3434409
16800.1948973
16915.668663
16881.7388532
17063.4684924
19544.5544826
19542.7317318
19547.0528692
16968.0212316
17144.322763
17117.3788798
17279.3405081
19549.4708252
19549.2783056
19550.2585619
17171.7149033
17281.9292996
17299.8905273
17343.3626372
19551.9757605
19550.9585206
19550.8460728
17291.3718239
17339.22682
17344.7053111
17276.5607843
19548.0752923
19548.9727685
19545.9268029
17313.8293639
17025.9808196
17188.3712921
16868.9385012
19538.535876
19542.2847943
19538.5265607
16926.0042767
16707.0019505
16812.4650159
16716.7199967
19542.6427162
19535.3276972
19550.5205125
16808.6292782
16739.6340799
16846.6625843
16828.9186329
19558.2040784
19564.9033594
19557.4717662
18496.5951906
18076.4434279
18524.7807095
17967.7131918
19537.9758479
19547.1933399
19538.1292456
17856.032322
17162.5395735
17674.5232705
16966.688972
19531.5500556
19533.5539076
19532.86389
17022.5329511
16902.9654832
16876.9684989
16906.7508832
19539.0057985
19535.5842261
19540.2505386
16924.1082532
17093.6843363
16960.3219856
17130.9492705
19547.0774205
19544.5917923
19547.8931149
17149.4089632
17300.1374379
17184.9738063
17304.8237015
19549.7372047
19549.7880505
19550.1636625
17321.6229921
17355.5451135
17322.8857116
17337.3154226
19548.9684615
19549.344722
19547.3411978
17353.8405061
17235.4413928
17297.1612547
17036.5021898
19544.0660821
19545.0149749
19542.9067648
17132.8520148
16845.772153
16953.0464283
16834.3932657
19540.2824469
19541.2749864
19541.2269466
16809.5576914
16757.2994774
16836.2731733
16876.8710462
19554.646831
19543.0751447
19555.2555936
16896.4749688
16845.8887059
16994.7738546
16900.0759163
18494.2222409
17907.2395646
19538.1570717
19538.4597416
17614.737348
16933.9737874
16973.8873286
19534.0750668
19535.1161223
19535.0366064
16859.1502058
16899.2011792
16887.4588699
16864.4882635
19541.0550394
19537.4853441
19541.4550673
16953.2294492
17113.4869648
16896.5632399
17014.9427529
19547.7050612
19544.8201052
19547.0920729
17164.1715393
17276.9108705
17048.2260764
17149.8301285
19548.9388351
19547.7315838
19547.0245935
17295.9666511
17280.7027822
17134.6318432
17016.2704678
19545.3932378
19545.6092497
19543.7491394
17222.4469443
16986.5891917
16975.5759279
16909.9020978
19541.9894605
19542.3601676
19541.2763159
16926.4717501
16840.4288091
16891.6848781
16841.7851325
19541.6209101
19540.7019837
19541.6414513
16845.3732704
16892.9740156
16848.1735278
16890.9201211
19555.1503698
19544.0859813
19554.5782992
17001.5739532
16906.9066582
16999.3513121
16886.9835319
19541.6740444
19542.459619
16890.6118444
16997.5285774
17044.6941528
19546.3520913
19544.9648412
19546.308811
17025.8150163
17109.7520037
17074.3426795
17119.4233298
19545.546456
19546.3906603
19545.2675223
17091.569827
16989.3213167
17122.1351599
17032.451223
19542.8523295
19544.0346329
19542.5348294
16968.9532409
16893.8332135
16985.3623859
16880.0417834
19540.634684
19541.2235647
19540.2841711
16880.3484176
16833.0705832
16853.0093528
16791.1481937
19541.5431575
19540.205505
19541.5743921
16842.4302893
16881.6859752
16808.1646019
16862.6752683
19553.7860951
19544.0607606
19552.9050819
16982.517624
16897.8060048
16948.0522813
16846.184893
19542.4395885
16877.1503587
19540.0369469
16849.1632373
16794.9657385
19541.4678273
16808.3973676
16846.7459383
19551.9520937
16929.9220209
16838.2329843
12.1281194533
16.5812926111
11.4797681044
17.6250140059
939.085611383
925.591756113
13.1064853185
10.7412428738
12.815182137
11.7518808501
1066.80527884
987.811067264
1056.14326705
13.3542873027
17.1928980166
15.5889184
18.1914941886
1238.57776137
1144.19793198
1221.22139955
16.4285122286
12.6570792584
14.4407285569
9.9171567887
1307.64189087
1290.43594136
1282.83303197
10.8395638831
6.89986392793
6.26824576983
4.26774103231
1235.53671812
1271.8142257
1229.23938407
1.37245415977
0.620140724529
3.43316542098
1.4713303988
1223.23901506
1224.24797559
1219.27420891
0.489599784155
0.83808220361
0.566196137163
0.702044414745
1308.16436753
1249.51980757
1305.50432111
5.12950226589
13.2636327191
2.97170035793
12.1351260197
1390.13416185
1357.63385841
1408.78735022
12.5948678116
12.1957007503
13.0787461032
14.2170247518
1428.18306346
1384.95626556
1455.59838233
17.465708368
42.1103947196
19.2695477859
24.5887721531
796.528553422
722.993170983
803.709293224
8.53260626435
18.7110825372
6.28279909226
17.3002385018
919.615834459
878.580116636
934.836060209
16.3141203942
18.0520960463
16.8359503666
19.3717990137
1052.26678165
994.781453299
1064.92925219
25.7043404166
24.4197840247
23.2948072483
20.6713425886
1203.53582899
1141.45402167
1183.97145145
9.75543177856
5.07935566444
8.35050955623
4.24287374957
1252.73439533
1235.84028135
1223.83332336
2.89016360954
1.52465391481
2.45811472391
1.18269081369
1219.40265354
1216.6091683
1206.72852774
3.55264483941
4.52171409315
1.96856932086
3.01923338593
1220.6425782
1210.22970259
1230.04443447
2.60736185606
1.40166385125
5.63882639902
6.29246520409
1311.41152785
1261.07445858
1321.14162745
5.30479665723
12.8101866141
10.5006569055
14.4353346174
1414.73025795
1370.03722406
1405.04131838
14.4496718561
15.3338332881
14.6587206635
15.1401719694
1444.89030036
1353.7490841
1415.81549558
17.2853361762
15.5539090049
13.6731533889
14.4113322074
827.709958237
744.52128659
854.431070389
5.40445660386
15.3307797377
4.90809644522
13.6377053083
957.732846172
929.454731528
985.7063524
14.5241357664
16.2909122778
15.6826781872
17.5531226793
1086.03206124
1044.75261502
1119.69150138
15.360778452
13.6937460511
15.3577780314
12.8740569281
1181.09280753
1166.59753435
1198.399367
8.37712559662
4.74720919167
8.28338390802
5.33999033573
1206.76298048
1214.60476392
1209.67337236
2.50519651674
1.12339433377
3.32630230562
1.64300970224
1204.0963499
1208.11262707
1216.65131584
0.932224696226
0.900979025161
1.29026320211
1.27518201464
1237.20800446
1235.34414271
1261.05526463
3.8375586328
14.1500837391
7.23275176821
20.5060388386
1324.70998573
1295.40137101
1321.99210046
13.5227547251
15.2954746239
15.517859077
15.244415062
1376.6244708
1337.43790871
1340.25683743
14.3554572427
13.8112589442
13.5407629318
11.3368637166
1389.87593431
1305.26937254
1361.52263173
9.74823585663
11.1698036627
8.08651257256
10.1726262913
1010.84309691
1022.41049939
16.2407023998
17.9031018493
17.0626146396
1162.1984039
1096.67106175
1184.61164373
15.6179544254
12.8392243263
15.3917651164
12.9203640598
1229.17275243
1238.28315683
1267.2301622
8.61515506852
5.83942650962
9.63978589665
7.23256837077
1240.96222871
1287.5512339
1285.83318888
3.94190526093
2.14038748012
5.80063598754
5.49707438824
1252.82132048
1292.66367809
1294.9012502
2.9123640188
5.05347286771
8.0441754272
9.8950953056
1284.23207656
1297.5979858
1299.05634333
13.4226332741
25.2217187166
21.5901173472
27.2470711753
1319.05761699
1312.10664987
1315.14864775
16.0008715393
14.496526326
15.6897907074
13.979005641
1318.4074414
1312.33901414
1311.61000666
12.6641849399
10.60014837
12.4435047521
11.0801950013
1346.01641443
1294.9939311
1338.97261782
8.13536866591
9.51395936531
10.3617707414
11.553912627
1282.03455247
1276.39132035
13.6877025535
11.9151792946
15.568060723
14.1194840083
1307.36804981
1298.34101858
1297.47842582
11.0129103439
11.8162322887
14.8764154254
19.2171824905
1296.43723826
1270.56085975
1269.15987017
17.5519590727
22.7988447395
32.9174843008
34.3225547402
1311.29258952
1291.87351825
1310.44049549
27.203265254
20.2618778285
22.3501458634
16.6259176419
1319.10771076
1320.3792434
1327.82200453
13.5597619287
12.6425383698
12.7636980633
12.3184444544
1315.94482144
1325.64846316
1329.333628
11.7540447752
10.9028330744
11.9762916754
11.6737724146
1332.93045311
1317.02033509
1331.79563881
11.7900436114
16.5061464522
13.6333121937
27.1130701215
1309.53594356
11.7880593921
1338.35942644
12.2030519568
12.6194212888
12.0727044567
12.3574802632
1352.41156864
12.398351088
13.1713142694
12.5005858201
13.9636846548
1335.21170608
16.9449788435
36.5573118409
19.4899822251
41.1169354619
19521.7431242
19514.6194609
17427.3500753
17296.1372156
19514.9180492
17442.628087
19521.1955628
19521.3770124
19513.4732692
17306.7852028
17459.6606522
19514.6968335
19521.6960883
17451.9292913
19501.3867532
19507.6185856
16965.1464624
17136.9067153
19507.81175
16976.353704
19500.5520718
19497.0315267
19496.1005174
16829.2635542
16721.3477863
19497.346065
16847.5471313
19495.9825636
19502.4456422
19506.6658099
17149.9166725
16997.5368314
19508.3148945
19501.7428105
16994.6268407
19498.5928549
19499.9985494
16756.7880984
16898.2490466
19499.2101883
19498.88818
16873.1079087
19502.6591294
19496.9183791
16692.2924393
16695.949645
19499.469575
16710.6190347
19500.8054113
19506.7539986
19510.4847324
16717.1530647
16782.728741
19511.3935867
16735.5514272
19505.7457561
19503.5317879
19500.6555498
16736.0432586
16780.0627292
19500.1556475
19504.2563573
16747.1284211
19508.0322703
19513.9214485
16819.3297755
16820.4665306
19512.883176
19509.0605523
16772.4676586
19515.1234952
19513.0121474
16919.8447447
16848.1315949
19513.9594317
16938.1609233
19513.7902732
19517.1496507
19518.4369243
16995.3682671
17064.7508118
19519.4184975
17012.9015876
19516.0062467
19517.9010948
19517.6162134
16880.5836713
17011.851264
19516.2968132
19519.3292071
16965.502468
19519.1809508
19523.0125135
17085.5385364
17077.4937644
19521.2308357
19520.996056
17037.2657204
19524.5327549
19520.625411
17147.203552
17107.8684311
19521.3712308
17160.44217
19523.8704993
19529.4415131
19535.4689004
17216.5643831
17269.33514
19535.0518816
17226.0184836
19530.0061791
19525.0762682
19524.6445229
17119.8084356
17194.5612758
19522.863342
19526.2031744
17164.6688404
19529.4059243
19534.461296
17265.8579493
17239.7241015
19534.7670652
19529.4609368
17222.6090052
19538.4386402
19537.040404
17312.2083075
17287.7142891
19537.2843933
17306.2334581
19537.8262941
19538.8063707
19538.5906045
17343.1535329
17355.0481876
19538.9956978
17336.056316
19538.2238146
19539.3545743
19537.9640826
17280.9887149
17297.7059784
19537.6491336
19539.1458834
17296.2125497
19540.2312386
19540.4160086
17350.3440758
17328.9185755
19540.598557
19539.8776089
17325.7933168
19537.8709966
19539.057516
17293.3471233
17335.0760626
19539.4172838
17291.6873062
19536.7281407
19533.4165061
19528.0018564
17202.0186951
17111.9510701
19527.3576566
17204.6351188
19531.5272967
19539.7862382
19540.6999497
17339.4498034
17283.8764961
19541.0652047
19538.8465713
17297.6957588
19534.637659
19525.0756401
17101.663892
17192.5907472
19527.2828281
19533.2741972
17205.1585845
19525.627855
19528.3810162
17042.1105011
17050.4141021
19526.1569671
17015.2553195
19528.9711515
19524.4441647
19526.5272207
17019.7786747
16934.4907809
19521.7901473
16974.0717834
19529.0340791
19516.1214472
19515.8771919
17023.2821007
16907.1484894
19519.2761115
19508.9148794
16967.4494082
19513.5656736
19500.6515426
16828.2184833
16809.1068135
19510.3601163
19504.1800913
16889.667454
19501.9562533
19520.9653098
16957.8106595
16988.9736777
19515.3067479
16895.0258277
19507.3946478
19464.8707114
19475.1392448
16355.5650722
16433.3393292
16333.0340728
19481.924416
19464.8987716
19487.6852714
19494.3621093
16893.6872296
16767.6796369
19503.0271728
19481.1754979
16809.367392
19449.1562143
19481.5247012
16601.0270207
16273.3412883
19447.0943475
16254.5759259
19477.5698593
19564.5337797
19569.1419368
18437.922981
18520.067046
19564.853697
18419.677004
19568.6336953
19558.89848
19549.4992014
18267.9166433
18095.9214716
19558.149837
19550.7496661
18270.5823503
19564.5725229
19569.3089335
18504.4324463
18407.4067825
19565.4838087
18414.1156767
19568.4917929
19558.508895
19551.848729
18106.643996
18275.4922735
19550.4616474
19559.7631
18272.4571029
19530.1878828
19539.8576126
17662.6263938
17897.0880068
19529.3217666
19541.1136205
17673.7246308
19519.1278174
19509.9552325
17481.5438578
17272.7963942
19519.4174789
19509.0800546
17459.5723493
19529.4663511
19541.9712359
17909.9083436
17655.2554624
19540.9357462
19529.8580612
17674.0232773
19518.1765189
19506.3887853
17244.5052864
17426.7251691
19507.0482173
19517.6571487
17448.627769
19495.9582604
19502.0323506
17006.8347141
17128.9204746
19497.0803872
19501.2872503
16993.6330384
19492.703026
19495.7852208
16919.2316159
16839.392313
19494.1789
19494.7467768
16897.1155048
19493.958341
19498.0990767
17097.7858799
16943.0407585
19498.761413
19494.1993145
16973.4305501
19491.3501087
19495.5153822
16858.7491402
16883.1564582
19494.1538376
19492.6832969
16897.8737858
19500.2135041
19496.7174391
16824.2063475
16827.1381043
19500.1120308
19496.6277916
16851.8655008
19504.8191086
19510.7101044
16867.2162528
16968.9742615
19504.7444772
19511.0757127
16902.710176
19501.9859641
19499.7216339
16869.248977
16925.5299337
19497.3059765
19504.598203
16897.6961328
19507.3107305
19516.0085065
17018.8071816
16990.5485036
19513.65359
19509.9402676
16951.4755762
19519.6299612
19515.036871
17046.2456357
17026.4349492
19518.2436145
19516.0241859
17092.4393006
19521.6959281
19522.5054672
17109.4301276
17191.3851775
19520.6249555
19523.4426489
17149.9201687
19522.9581009
19521.1481693
17072.0624534
17176.0872033
19518.9881523
19524.889987
17130.6078479
19525.7252059
19530.4404163
17235.8932096
17231.5824483
19528.0393283
19527.7893945
17188.338815
19525.6508208
19523.8451747
17206.0646144
17215.2743968
19524.9055649
19524.6510063
17236.3864565
19527.0815526
19530.8548657
17247.8384817
17301.2130692
19526.9894774
19529.7496699
17266.3698282
19529.5531975
19531.5693859
17255.7398613
17311.1296238
19529.2036312
19531.5096806
17270.8932276
19529.9783094
19531.6343428
17326.3337604
17325.7980964
19531.0159423
19531.1441929
17294.5177045
19534.1058916
19534.3653018
17302.7134203
17312.7794315
19535.5692533
19532.4599373
17318.8289792
19534.3410273
19536.4605314
17329.4866823
17335.1494466
19536.1407698
19534.3452125
17330.7115385
19532.3279655
19532.0324063
17329.5942714
17343.8926995
19532.2512304
19531.8080004
17329.6036457
19531.9816679
19529.8494012
17302.8534453
17323.4914978
19531.5727297
19531.1487796
17318.7621923
19529.6020044
19536.0681013
17254.6105105
17297.7686839
19533.2812131
19533.212888
17208.1888197
19523.3665675
19518.1040079
17149.4675765
16961.0971575
19527.1776744
19514.5833965
17087.8775077
19526.4769223
19527.4935678
17242.2087751
17074.5828293
19529.8048363
19524.0779465
17144.7498734
19521.7218718
19514.7730524
16916.9159101
16961.3019653
19515.5948639
19519.697415
17028.3306513
19496.5264744
19508.2920024
16841.3270947
16868.8089006
19499.3820264
19504.8473818
16791.4583031
19488.3020005
19484.7268558
16749.6150931
16684.7509922
19490.0380793
19483.4972639
16693.8760541
19501.7878723
19509.1697718
16838.3731388
16767.2009097
19508.4194208
19504.2491418
16770.2405288
19495.3017645
19494.184968
16690.9452484
16713.3811755
19490.5725857
19498.3170417
16692.3059347
19470.8206929
19480.1310409
16784.871783
16795.482209
19470.9331309
19479.246531
16789.1009512
19450.5749405
19487.0334257
16329.7966738
16772.1380571
19448.5404507
16373.1284911
19490.1353694
19478.8148405
19490.8999057
16814.9196937
16861.3333498
19486.5814903
19483.414606
16821.8584463
19460.5307387
19502.1211727
16795.9440189
16447.3603591
19465.5443478
16411.4701632
19498.2829998
19567.4187799
19570.0688713
18407.2979714
18513.1109554
19566.6148532
18417.8439707
19570.902511
19561.1532277
19552.3179865
18259.8871847
18049.0395347
19560.6559993
19552.3890833
18254.9306681
19567.8197918
19571.0412357
18527.5578837
18427.6251529
19567.4097148
18428.1376673
19571.3730016
19561.3177326
19549.5493691
18005.9614578
18229.4349415
19551.4644566
19560.0152049
18240.4617612
19528.7429885
19542.271694
17610.5883919
17808.6633165
19529.8322026
19541.2878512
17547.1803109
19516.9885094
19507.1491943
17377.1035704
17105.675658
19517.8300884
19506.2228179
17312.9605157
19525.8487684
19537.1923879
17740.7423231
17387.9253336
19539.3850644
19522.7780455
17470.5220449
19513.5693391
19502.4163696
17041.8070276
17157.6462355
19503.7906927
19510.8920268
17240.0863013
19499.3112469
19499.6728168
16922.7749553
16972.7897757
19497.4706825
19500.1803567
16879.3165017
19499.6681697
19499.5632155
16892.0386007
16906.9017677
19497.0483466
19502.1700938
16878.1499114
19499.8791596
19498.078835
16935.4146235
16838.2607696
19498.9841916
19500.0878435
16862.1351384
19501.6337347
19505.3577026
16925.0437269
16855.5686319
19504.1531505
19501.9044349
16880.319249
19511.3473145
19503.6956065
16962.808898
16943.5831566
19508.8841593
19506.3528849
16985.1063573
19516.5188028
19520.1577451
17022.2354799
17123.6080561
19514.237968
19522.108772
17042.7912456
19512.6939447
19509.5305329
16966.2840652
17014.286182
19508.0682091
19514.3713794
17006.3029118
19517.5267001
19523.8644247
17128.8223608
17068.1556437
19522.6834786
19519.0889266
17057.1935214
19530.9142762