/*--------------------------------*- C++ -*----------------------------------*\
| =========                 |                                                 |
| \\      /  F ield         | OpenFOAM: The Open Source CFD Toolbox           |
|  \\    /   O peration     | Version:  v1906                                 |
|   \\  /    A nd           | Web:      www.OpenFOAM.com                      |
|    \\/     M anipulation  |                                                 |
\*---------------------------------------------------------------------------*/
FoamFile
{
    version     2.0;
    format      ascii;
    class       volScalarField;
    location    "14.35";
    object      alpha.water;
}
// * * * * * * * * * * * * * * * * * * * * * * * * * * * * * * * * * * * * * //

dimensions      [0 0 0 0 0 0 0];


internalField   nonuniform List<scalar> 
28582
(
0.999989414363
0.999966685835
0.999983887716
0.999984707502
0.999995278277
0.999995973088
0.999980200007
0.999982755418
0.0564030098145
0.0592283657082
-2.75981673429e-28
0.999980547341
0.849695254752
0.84515281657
0.999983133988
0.999972961066
0.844695165068
0.997643063616
0.997153848309
0.999989239424
0.999969700398
0.999985764526
0.999986533086
0.99998185562
0.99998492563
0.999995317748
0.999996423193
0.999983575985
0.999982900894
0.0605090876706
-1.54611265746e-28
-5.13116279215e-30
0.999982438149
0.999980350298
0.856017861816
0.849613286479
0.998448937619
0.999980502028
0.999973134263
0.99997302456
0.99747959774
0.835283000291
0.997003381129
0.996955583887
0.0573229477892
0.0593423868932
0.000280456329823
0.000297370718235
0.0581531972848
0.000178620994348
0.99815420439
0.998030418919
0.847375389995
0.850477460658
0.998190157262
0.848063928751
0.997979442456
0.997933656859
0.997932570774
0.846034326539
0.846274019573
0.997938426584
0.846694296688
0.99791134293
0.997898101376
0.997966753433
0.844736548423
0.845645195081
0.997938024593
0.8450742732
0.997960727455
0.997816519058
0.842036662295
0.841259174064
0.997796828424
0.843744778833
0.843642570521
0.997909193183
0.997054121769
0.84034208966
0.839733615241
0.997334612914
0.842121283277
0.997238896779
0.842326581981
0.0557079158053
0.000131474030088
0.0551147487873
0.0562620308824
0.0001360103109
0.000159847934125
0.0604870685903
0.000311177083617
0.000347795559062
0.0617123635194
0.000305428180704
0.0618116808725
0.000282618840911
0.998397387966
0.99855167313
0.854717574345
0.857807338479
0.998293484992
0.998625697366
0.856631235575
0.998144219316
0.997709183361
0.852407299642
0.851317481567
0.998012942869
0.997871691958
0.854349036021
0.854986540813
0.851612361734
0.99825607569
0.998396049206
0.851747272153
0.99818089777
0.854616802037
0.997725962238
0.839996302806
0.838866277141
0.997386986539
0.838231073902
0.997658961196
0.8364164505
0.997393197412
0.997570152163
0.836941187581
0.834567805661
0.99758529742
0.997419999011
0.835213013398
0.996931177224
0.996929856747
0.838756612517
0.838133744428
0.836844897957
0.996994885339
0.837201696415
0.836260140663
0.835723724268
0.997027808423
0.997013230018
0.835459495114
0.997068690844
0.836257761751
0.999997342843
0.99997843708
0.0629731430408
-8.67121539544e-28
0.999979559678
0.848712083525
0.99997308579
0.99997341455
0.834277693522
0.835714099265
0.835969405186
0.999973836741
0.999974541703
0.835931211449
0.836550661033
0.0567758290992
0.0629052858079
0.0638696524241
0.000251933993329
0.000270312983498
0.000215723747912
0.0645273362934
0.0647794777217
0.997809967072
0.998079578891
0.848749812212
0.846187069122
0.99796528411
0.846141766713
0.997916441319
0.997452404876
0.997566394067
0.833404656651
0.834389229649
0.997576441997
0.997438299396
0.83421732705
0.99713059568
0.997071896813
0.835488008063
0.835637734482
0.997133635966
0.835155880963
0.997063164692
0.997101020507
0.996879924919
0.835532767912
0.83574762023
0.99701432631
0.835464157015
0.997011030931
0.996567497694
0.996659792885
0.835289051949
0.836058074702
0.996851269673
0.834888366727
0.996360399143
0.996302067129
0.996238527344
0.835050430579
0.83616262516
0.996277312828
0.834793141913
0.99623046929
0.999976877454
0.999979673762
0.999973425312
0.999980016472
0.0445113429317
0.0496101546265
0.0453811996743
0.0494299020479
0.0487322338282
2.55108861329e-06
1.99627357257e-05
2.61134954571e-06
5.95108475569e-06
2.90477825527e-08
1.98842139985e-06
0.999987569137
0.999990942058
0.899185653866
0.897012511194
1
0.896751013225
0.999987062778
0.99998897957
0.893934076153
0.887070369968
0.999970762774
0.999978177773
0.999966951938
0.893263409642
0.883767366956
0.886142814688
0.878207000796
0.999955864715
0.999949473617
0.87670582054
0.849372225056
0.873241313705
0.854965740048
0.999973610631
0.9999800177
0.885043972808
0.877875686465
0.876348102659
0.999971642571
0.999977101837
0.999977279471
0.873478014604
0.856201681042
0.872679957954
0.859579388303
0.87197888206
0.860070144807
0.0401481933604
0.0407828317271
0.0430887049503
5.45333589375e-05
0.00029355581199
3.92784534878e-05
0.000220315551548
0.000502691676622
0.000683863786676
0.000560720252627
0.000774807926353
0.0424356803177
0.0435256317824
0.0470957633507
0.0452867460307
0.0473179703238
0.000134329462285
0.000256510817049
0.000118751359412
0.000193687883203
0.0518712381138
0.0495908402816
0.0517748064034
0.000466498294129
0.000858651254011
0.000327853991555
0.000690256479544
0.0472207768112
0.0469616998904
5.28629436052e-05
6.56068861338e-05
6.89698676586e-05
0.051842752888
0.0491217716801
0.0514807222884
0.00013636832936
0.000346279904126
9.79885660347e-05
0.000161360235688
0.999428505713
0.999330254802
0.899303226289
0.899218569376
0.999331609646
0.899223192456
0.999429461744
0.99939891992
0.999190530353
0.899000090108
0.896690958866
0.999294531413
0.999339177329
0.898695697166
0.998769682538
0.998941857804
0.898835033473
0.895607498547
0.999086602786
0.998646739508
0.898096966808
0.999231563702
0.999031531406
0.894324691427
0.891489953759
0.999261236195
0.998974319875
0.891764603838
0.999102317541
0.998826819891
0.888816631196
0.887355290729
0.998856253822
0.999064403448
0.889386008131
0.998247668492
0.998722678478
0.891742099596
0.890663752242
0.998387131477
0.998632277466
0.888823706306
0.997994476537
0.99797477169
0.888410386401
0.880700123037
0.998145602594
0.997776561995
0.885391305373
0.99812558689
0.998488559892
0.887768306583
0.884487525583
0.998511997748
0.998115740862
0.885944835169
0.997898883809
0.997734064435
0.879243612979
0.881728877911
0.997719136172
0.997894621613
0.883117430265
0.997495199839
0.997879698282
0.867683525205
0.873959671484
0.997742259789
0.997637412035
0.866167476345
0.997377534018
0.997611384714
0.858139690342
0.849859750094
0.997634812361
0.857788879564
0.997363445523
0.997466974703
0.997638234864
0.873680722698
0.867661726398
0.997602093139
0.997528470205
0.86702586381
0.997346878909
0.997361951252
0.852336668739
0.861200213314
0.997411219748
0.859637377679
0.997272611406
0.998115575227
0.998444042216
0.883448464328
0.884442203679
0.998098748039
0.998447863254
0.882924331656
0.997937958773
0.99780891184
0.88093170508
0.877612787605
0.997922814164
0.997854567563
0.880439610265
0.997944019938
0.997877864558
0.87685472886
0.878983200784
0.997891654409
0.997928727802
0.879496197584
0.997784225705
0.997754595059
0.86847666553
0.873565152112
0.99769302231
0.997807375674
0.869121610835
0.997785607442
0.997602872797
0.862361700526
0.857966772839
0.997639374629
0.863554290274
0.997786588816
0.997880267434
0.997869945099
0.873108276837
0.868890182134
0.99787240936
0.997894458712
0.869106582079
0.997946331037
0.998136832954
0.858938245889
0.864144643371
0.997990158397
0.864035060697
0.998027299093
0.997730513987
0.997737771213
0.868519730181
0.870681432239
0.997803923256
0.997642230191
0.867374777772
0.998176399782
0.864216418659
0.997966821831
0.99997423654
0.99997248592
0.999986214972
0.999995175213
0.999994652504
0.999985086292
0.999989955076
0.999988723619
0.999989101916
0.999993210749
0.99999427151
0.99998794087
0.999771895988
0.9999722964
0.999981899582
0.999944624778
0.999931610994
0.999964434006
0.999981059549
0.99995816259
0.999977102153
0.999981913604
0.999929223752
0.999948613746
0.999983619107
0.999992337314
0.999991683907
0.999987613603
0.999983873354
0.999972761888
0.999973293686
0.999983860538
0.999992397061
0.999994925095
0.999996109327
0.999992333674
0.999992429989
0.999975964314
0.999972833877
0.999979750721
0.999994258661
0.999998063772
0.999997759443
0.999991096459
0.999995001133
0.999998045005
0.999997149275
0.999989859193
0.999620652511
0.999991336073
0.999985745347
0.999895949276
0.999859227576
0.999891539912
0.999907604773
0.999949811171
0.99965806688
0.999928499945
0.999981870688
0.999953988103
0.999909251466
0.999938838639
0.999957721742
0.999955776016
0.999945577324
0.99998208772
0.999993457217
0.999987787785
0.999967740948
0.999966084663
0.999979647208
0.999987878571
0.999988422118
0.999988618542
0.999990316245
0.999993418093
0.999995869065
0.99999583539
0.999995499119
0.999993810156
0.999992910867
0.999997527465
0.999997676735
0.999994383722
0.999516760283
0.999997330513
1.00000319659
0.999897386779
0.999791747156
0.999882841003
0.999942225948
0.999974365741
0.999558177558
0.999990843551
1.00000170097
0.99998538688
0.999917037288
0.999912132158
0.99995544694
0.999988424736
0.999979594803
0.999992534667
0.99999667942
0.999998172117
0.999998192089
0.999998011925
0.999997131596
0.999997594332
0.999997234395
0.999996541196
0.999997219939
0.999998862109
0.9999996009
0.999999581887
0.999999265626
0.999998408129
0.999998730866
0.999995959322
0.999997394993
0.999998916171
0.999999507976
0.999999500151
0.99999924715
0.999999677027
0.999997212829
0.999997243672
0.999997472822
0.999633465929
0.999995189361
1.000014841
0.999991556693
0.999836509365
0.999829775449
0.999959326947
0.999957444731
0.999956480336
0.999953614594
0.999968310334
0.999969756166
0.999964147361
0.999957389279
0.999960176478
0.999965555974
0.999949559755
0.999971000705
0.999970320184
0.999962843636
0.99994014776
0.999941518297
0.999965025206
0.999979376414
0.999977771885
0.999966252772
0.999944464484
0.999976342759
0.999968686778
0.999962078399
0.999972041549
0.999990124023
0.999987865814
0.999973583304
0.999946423613
0.999938122376
0.999979612122
0.999985259879
0.999986731459
0.999979623937
0.999964559761
0.999938303126
0.999943982539
0.999971854449
0.999965808114
0.999969599578
0.0578474287614
0.0602582697025
0.0640082676194
0.0664135068627
0.0666342634247
0.0666550848503
0.0661665773943
0.06691706328
0.0532442719618
0.0568279801741
0.0590561194237
0.0633741418484
0.066936565206
0.0666974736619
0.0658285733793
0.0656218679755
0.0654405868508
0.0637048141848
0.0533944643084
0.058438171681
0.0610885529202
0.0639068643007
0.0650292491992
0.0637046543989
0.0617884253918
0.0634885760525
0.0645054900679
0.0638126109027
0.0561171561628
0.0587463632116
0.0598451801825
0.0602237137956
0.0605504069455
0.0617228306634
0.0629956194724
0.0647601261238
0.0644440181284
0.0571857575151
0.0586900982035
0.0595954097858
0.0625768249398
0.0648450980397
0.0659369835542
0.0653451337395
0.0648925212503
0.065424964166
0.0646774222633
1.12854421408e-24
2.27064779589e-05
6.16399132269e-05
4.70977482502e-05
2.05398224924e-06
3.01535388137e-28
-1.7231132721e-25
-8.08995786727e-29
-1.61242694894e-27
2.10584595982e-05
4.95311524556e-05
6.95699461622e-05
5.33068892323e-05
-1.14794370197e-42
8.51533505217e-25
6.03024957169e-05
-6.83276851591e-28
-4.36956711375e-26
-7.40858667083e-26
2.43164491177e-05
6.294022038e-05
-3.44522125516e-25
-2.98745194919e-24
-6.05673257417e-27
-3.82631343738e-28
-2.76488177849e-26
3.18438769261e-05
-4.84457308882e-25
-2.10334838337e-24
3.23606070798e-05
-5.23003925952e-30
-4.59513138193e-29
-5.39235265251e-28
-5.68845383989e-27
-3.35698380623e-25
-3.30390593623e-24
-5.97640945742e-25
-1.4093942125e-24
3.43895057979e-05
-1.11694421506e-29
-2.88478379761e-27
3.62217554578e-05
-1.1890047947e-26
-3.83351125513e-26
-2.26417912854e-25
3.71706521905e-05
-7.83326932399e-28
-4.93549413985e-26
3.558313405e-05
0.999870897418
0.999963845506
0.999973379827
0.99964492226
0.999848664981
0.999755764478
0.999821135571
0.999994754929
0.999977798818
0.999953826575
0.999971670469
0.999994551574
0.999942556533
0.999983045371
0.999982161094
0.99995223908
0.99997124272
0.999948018785
0.99996335395
0.9999837766
0.999983371235
0.999944787055
0.999982253776
0.999955523893
0.999951504422
0.999929223752
0.999953397358
0.999929223752
0.999924897062
0.999508307246
0.999867483262
0.999503394577
0.999899330393
0.999458895971
0.999873067984
0.999995838345
0.999971931971
0.99999258914
0.999982504811
0.999996733027
0.999974257604
0.999994145004
0.999803650561
0.999936817231
0.99995849137
0.999496320103
0.999820495812
0.999762755887
0.999877763649
0.999973966119
0.999938506611
0.999929223752
0.999952813858
0.999986584921
0.999965725792
0.999993170243
0.999915279283
0.999564213131
0.999906240663
0.999559235341
0.999950007056
0.999614296511
0.999921090668
0.99999931897
0.999990449914
0.99999820149
1.00000725035
1.00002469901
1.0000033949
1.00003167654
0.999880426107
0.999842345701
0.999926270194
0.999781285646
0.999939194508
0.999948383216
0.999970407028
0.999997194423
0.999983843954
0.99999691955
0.999996526165
1.00000766705
0.99999197306
0.999997618323
0.999546535591
0.999787815266
0.835699237514
0.829740497805
0.999888029588
0.999825121831
0.999925677586
0.835183639325
0.831556605093
0.829934251811
0.830578476311
1.0000101992
0.999994395651
1.00000636224
0.831787819875
0.837443296067
0.830474499413
0.832581271755
1.00000658322
1.00000527078
1.00000138251
0.839480931833
0.842289448851
0.833640568628
0.832203536053
0.999933171262
0.999991007426
0.999962799456
0.841336749286
0.839257949089
0.830972388285
0.833358028918
0.999801504404
0.99990320316
0.999874739311
0.838561519479
0.831745614589
0.833902147651
0.833185563234
0.999909504141
0.999881316983
0.999920922309
0.829398465807
0.829480510898
0.832233507872
0.831966290493
0.9999705533
0.999973124418
0.999976942923
0.830560783658
0.834955179521
0.831584641303
0.82938556519
0.999763435052
0.999967358531
0.999922448503
0.844349195264
0.825719683069
0.836245792611
0.818418802826
0.999948527583
0.999950814258
0.843456095626
0.835480632046
0.850067249658
0.83855623962
0.999950240089
0.999950468134
0.999953519826
0.833253119341
0.828987414487
0.835446046443
0.827112426328
0.999961563296
0.999952781284
0.999950335379
0.828855337052
0.828743134158
0.825652918963
0.823089297386
0.999971185723
0.999942011254
0.999938780427
0.827886793507
0.829990977752
0.8232812658
0.826534710158
0.999965123406
0.999940324899
0.999945490166
0.831074656331
0.830922568348
0.82763275827
0.832721647401
0.999959396761
0.999953086813
0.999964347594
0.831516743503
0.836090424999
0.835508689491
0.841755767242
0.999958842984
0.999973349832
0.999976996413
0.836309375558
0.835151072285
0.841800035774
0.841251137504
0.999962290421
0.999978611836
0.999978502729
0.834177160581
0.832304996279
0.841084789063
0.837968432903
0.999964525965
0.999977123865
0.999974609483
0.831547602219
0.827159591019
0.835779522313
0.829574035252
0.999949256494
0.999964641474
0.999970313807
0.834100263036
0.821990906818
0.836483626892
0.826207138715
0.999970379885
0.999977758137
0.999977367232
0.85112333009
0.838292776177
0.85540705502
0.843476987064
0.999967704718
0.999973849157
0.999970392377
0.835102061789
0.827395320752
0.840230154524
0.835180127621
0.999951937678
0.999963785471
0.999954485823
0.825391586906
0.822881936442
0.833821237431
0.831405930752
0.999937572495
0.999944477961
0.99994359418
0.823366636479
0.827277228362
0.831646194555
0.834039100438
0.999951250877
0.999949480564
0.999960816101
0.829120028987
0.836222383497
0.835898951525
0.842806660998
0.999977239619
0.999977266187
0.999980694807
0.837682418684
0.841992531405
0.843968351329
0.844886159027
0.999980794652
0.999981943213
0.999980532133
0.842638890712
0.843193108209
0.845141149782
0.844942020346
0.999973407492
0.999976007964
0.999968358673
0.842767704687
0.839065669957
0.843337602386
0.839269738742
0.999957811421
0.999958724186
0.999946664964
0.836823876362
0.831269910213
0.837386531141
0.833834941515
0.999958987543
0.999945173954
0.999962612442
0.83772061267
0.827792491553
0.839826125051
0.828458848727
0.856507944333
0.845794509653
0.999970763607
0.999977879402
0.843237616311
0.839139532245
0.853062541202
0.999962048368
0.999970795481
0.999967252561
0.837968043705
0.835468424665
0.852555331284
0.847504096
0.999962938889
0.99996509649
0.999968217411
0.835629173916
0.83653968605
0.845817794916
0.842741120937
0.999984868977
0.999977536089
0.999988065101
0.837681098974
0.842995725671
0.842810062247
0.842978703559
0.999990280706
0.999991755709
0.999990799218
0.844055162426
0.844544152979
0.843014711289
0.840910200166
0.999982865281
0.999986854689
0.999978668757
0.843490682234
0.842182932479
0.839359590109
0.836492502317
0.999962688837
0.999966021139
0.999952271921
0.84215125117
0.840112619585
0.836637030859
0.835755756103
0.99993773552
0.999939395615
0.999937933529
0.838426113066
0.833898393451
0.835857000877
0.832649796102
0.999960635309
0.99994150943
0.999968575411
0.840296022324
0.828562448411
0.839483608833
0.828096524377
0.999979987313
0.999981012405
0.847086741677
0.843094952394
0.844028493035
0.999986145901
0.999984458941
0.999987985509
0.84266487701
0.842274658499
0.843538716732
0.841760407956
0.999983079649
0.999987681174
0.999985737621
0.842863089882
0.83940216508
0.841967541788
0.835509225144
0.999973776608
0.999983467366
0.999980873845
0.837663643118
0.83461396469
0.833958508255
0.832962361307
0.999949122188
0.999974481513
0.999964798023
0.834667685864
0.835231597784
0.8331642302
0.833871078607
0.999939119625
0.999951714263
0.99995025292
0.836097230133
0.832925807715
0.835269419039
0.833931389361
0.999973556039
0.999953612232
0.999977509416
0.83963164708
0.828412948082
0.840025825807
0.830357891878
0.999974999079
0.833894631305
0.999967664612
0.833833807753
0.834192421248
0.999966843019
0.8352969569
0.834067318307
0.999984969079
0.840066239209
0.831459305702
0.000368936490435
0.000287772039976
0.000476927601067
0.000415073475122
0.0563120494936
0.0576552780252
0.000432409845049
0.000393121346319
0.00076528843401
0.000794512193337
0.0589104784459
0.0584676192402
0.0589135561337
0.000546508190346
0.000693895736176
0.00122208263013
0.00134782413926
0.0628507067277
0.0610789718993
0.0639760826855
0.00104413612443
0.000579420592546
0.00109159669163
0.000695856169103
0.0646078756302
0.0654514814253
0.0665450545157
0.000340827990145
0.00032110999585
0.000491772222489
0.000625230878696
0.0670017306742
0.0680900046108
0.0679248876865
0.000235970056292
0.000425086081534
0.000578001712899
0.000569630534424
0.0665587224505
0.0669214690004
0.0665181586979
0.000552531877364
0.000613621926524
0.000580010839056
0.00054335121356
0.0665223691506
0.0663602966628
0.0660070432556
0.000575524795498
0.000483436462215
0.000483273153909
0.000388904072963
0.0653395863556
0.0657830273868
0.0654537188089
0.000344462941012
0.000152817902038
0.000272217743339
0.000142586277975
0.0731950423075
0.0640284551505
0.0693551657363
0.000147446575107
0.000178313803284
0.000143473891702
0.000406212235841
0.0551652286516
0.0533981181406
0.0557133246163
0.00112313509577
0.00117464636627
0.00114674845162
0.00101611180313
0.0581516915988
0.0578886111312
0.0591908951164
0.00127414956232
0.001252201585
0.000875616784776
0.000923963838699
0.0605451937815
0.0601770939665
0.0620005245025
0.00133908089303
0.00127114091683
0.000936255606879
0.000907078704409
0.0652345937001
0.0644111686959
0.0657982622169
0.000617753395726
0.000417039068191
0.000582788743196
0.00046940415498
0.0679299212675
0.0669558554923
0.0669314941407
0.000316301889296
0.000557964250357
0.000373022194988
0.000545373772904
0.066078490799
0.0649632290083
0.0638504735853
0.0015724639254
0.00103569536825
0.00137123275062
0.00108069131129
0.0655770967104
0.0639383242682
0.0640599312211
0.000448818331482
0.000414898233778
0.00037737171661
0.000219343711562
0.0654611595556
0.0645168926673
0.0647575094477
0.000367496623131
0.000311715260397
0.000196746366072
0.00020379838014
0.0656066008976
0.0649384651697
0.0653608144244
0.00023941083444
0.000162784225505
0.000184026155507
0.000145915347092
0.0694639694959
0.0636500766739
0.0691972609985
0.000160493227989
0.000378599394015
0.000168872043282
0.000347685671507
0.0560191609666
0.0530534429578
0.055342595561
0.00100316356127
0.000792345020904
0.00071657072558
0.000708880985423
0.0598174783846
0.0576314248892
0.0591079770363
0.000440219372667
0.000483800412117
0.00039823703763
0.000434056791818
0.0624180911556
0.060481819538
0.0614400855301
0.000528776829373
0.000550431540178
0.000494771180514
0.000516237930292
0.0648492084708
0.0621110356806
0.0624316878549
0.000567030253461
0.000545380739109
0.000539171860486
0.000525574574601
0.0645847085375
0.0623306631903
0.061935029402
0.000533426248368
0.000539858085122
0.00048732905178
0.00040329376627
0.0626030169724
0.0615976730329
0.0612504971658
0.000458053654226
0.000372927611595
0.000284750816454
0.000317756221814
0.0625050672937
0.0606680884055
0.0613863586636
0.000748092738364
0.000616922713222
0.000875826572731
0.00103811182453
0.0641130662845
0.063017953411
0.0636674389583
0.000236220186181
0.000161443240948
0.000423207041935
0.000139018913652
0.0650475979256
0.0644519649108
0.0652574108372
0.000152993923952
0.000145608451724
0.000125238780177
0.00012976392565
0.0690703780992
0.0641219100174
0.0687499206731
0.000192529913161
0.000387824803398
0.000192246796961
0.000455677734804
0.0575360516463
0.0554318738309
0.000298723319147
0.000355732812273
0.000197969312581
0.0595025459433
0.0564989147973
0.0574338011664
0.000414363770748
0.000430719442633
0.000249407139466
0.000272374433769
0.0600297594991
0.0579299804021
0.0584062918
0.00043865170351
0.000413522674051
0.000276417497216
0.000274709510422
0.0603087593166
0.0589815525653
0.0595899892313
0.000373380308814
0.000322108297531
0.000282306117563
0.000308231973818
0.0609263018526
0.0602387025949
0.0610001321048
0.000270682270777
0.000293567661095
0.000302597385886
0.000274365041017
0.0624790806774
0.0620665123012
0.0630922679001
0.000283034400579
0.000287669683262
0.00024136834409
0.000237537903865
0.0638484780329
0.0638998816971
0.0648160106061
0.000247826052893
0.000198003835982
0.000228906368671
0.000239797784995
0.0657861319823
0.0654210535962
0.0665309605724
0.000160491080533
0.000154788160193
0.000217079524219
0.000231023355262
0.0684834946074
0.0648924749286
0.0684783827736
0.000209123595903
0.000498541003041
0.000270302057699
0.000512283511625
0.0579201355988
0.0577026809119
0.000172548819089
0.000162924201734
0.000138223848667
0.000129077437474
0.0593613904511
0.0587016736064
0.059392752034
0.000182562765384
0.000389361293506
0.000133186733035
0.000393939114547
0.0610087618487
0.0592269979261
0.0612470380059
0.000721834136792
0.000490711894738
0.00105806941876
0.000527610060403
0.0637750712238
0.0630006681526
0.0641491424648
0.000301658844616
0.00030800542556
0.000239812949001
0.000264221747648
0.0656420048609
0.0651936209432
0.0658898883713
0.000293328804387
0.000302536719719
0.000273736538491
0.000292407193667
0.0670315530568
0.065934314185
0.0668120259099
0.000253504529558
0.000277400993797
0.000238830045794
0.000252316934315
0.0687573877368
0.0652677601673
0.0689991214542
0.000308705687152
0.000538812254941
0.000305791226581
0.000555850659731
0.063970201489
0.000245433440275
0.0654661454133
0.000241613164551
0.000255637193231
0.000186768646544
0.00017877367223
0.0661929486148
0.000202413194918
0.000208791027211
0.000141339923734
0.000131942284366
0.068525927554
0.000268094326372
0.000539346331596
0.000180490150123
0.000528536674783
0.998730084789
0.998689303086
0.836088797811
0.832438841045
0.998483877326
0.832868927814
0.998900304207
0.998336076654
0.997878907867
0.831061398604
0.830275922261
0.998108355283
0.998076532916
0.831003515173
0.997973171069
0.998463346279
0.834005564688
0.832163590276
0.998216264725
0.831880682614
0.998237314091
0.99776439801
0.997711897431
0.833139813132
0.831484433361
0.997517812694
0.831764386307
0.998002347982
0.997816685818
0.997735648066
0.831224521268
0.830281586472
0.997914709825
0.997695209196
0.831381551227
0.997756356531
0.99767845237
0.831578983794
0.830630469406
0.997702780283
0.997684345292
0.831644898624
0.997376822281
0.997492287409
0.833122292667
0.831831302612
0.997372362969
0.83279888698
0.997494610285
0.997423126844
0.99759120798
0.835132524291
0.836375841443
0.997496464822
0.834304504522
0.997546716084
0.997592865865
0.997642692707
0.831460472922
0.830731513041
0.997627618516
0.997561619387
0.831954988574
0.997604289103
0.997439608999
0.835137154094
0.831323541536
0.997604482777
0.997475110657
0.833080218582
0.997440305272
0.997575221458
0.841961600842
0.838369748166
0.997498744486
0.840600912538
0.997486615774
0.997211418757
0.996593217999
0.842732583992
0.839700980533
0.996736833308
0.84052319747
0.997195190939
0.997500708959
0.997411611486
0.836850594857
0.834028856861
0.997585871849
0.997345962863
0.837644126171
0.997258959921
0.996755370938
0.835882393915
0.833472467086
0.996837298348
0.997143097409
0.837103187046
0.99570552623
0.99595580296
0.840220563768
0.838487418154
0.996129951213
0.836894786773
0.995573669569
0.995563734083
0.995487047712
0.839841712346
0.835871902679
0.995530203425
0.836228737464
0.995471381474
0.996130283482
0.996299538966
0.83483237939
0.830296181578
0.996412616497
0.99594101995
0.833069174165
0.995992597075
0.995859654065
0.833760285103
0.831322119351
0.995967771226
0.995846154613
0.833245211803
0.996253719438
0.995813489268
0.837056399705
0.835370627665
0.995727144357
0.834618484964
0.996407587154
0.996936389495
0.997333285565
0.834787446151
0.830910911869
0.997366805735
0.832939230657
0.997041486112
0.996577584524
0.996110209798
0.833990014149
0.834501988003
0.996126672392
0.996615891787
0.834171146584
0.997172864608
0.997602519069
0.831716220066
0.833898009783
0.997712180264
0.9971355305
0.833298167774
0.99757725408
0.997397036095
0.828012113921
0.829404270485
0.997466823234
0.828460208519
0.997496911485
0.997642600582
0.997604044032
0.828541750478
0.830218253802
0.997727078362
0.829043989822
0.997534959595
0.998032533547
0.99798605664
0.830537071978
0.831537940561
0.997907663966
0.998246259542
0.829561844598
0.998044239407
0.99827970596
0.830622399499
0.831840429004
0.998053148735
0.998286878827
0.829836958027
0.997847330884
0.997676985774
0.8323161884
0.831148156357
0.997781750485
0.831992398085
0.997795799254
0.997839979095
0.997857162076
0.833729446175
0.833627331567
0.997772504813
0.833200055621
0.997888732804
0.997922333725
0.998198819647
0.830999515459
0.830885082113
0.998001395963
0.998058018528
0.831042383343
0.997792343718
0.997556474038
0.831239837215
0.829818906681
0.997636394466
0.997812950988
0.830900794564
0.996218629757
0.997438621078
0.834655659775
0.838669166731
0.99736188826
0.835565717572
0.996033160436
0.992595228863
0.989262499575
0.789738116027
0.817623002164
0.813776136556
0.991113098349
0.987946497763
0.996150884231
0.997123752274
0.838008040954
0.831180320845
0.997261205306
0.996082799476
0.831727256675
0.992440365192
0.994363674765
0.808650558121
0.783579936236
0.99310577696
0.781409692006
0.993527915879
0.997428861842
0.997538557469
0.838880512345
0.845149108743
0.997588866822
0.841239022686
0.997346556031
0.9974783497
0.997735857003
0.837253797904
0.836970343845
0.997667121325
0.997542766386
0.838695071598
0.99722647449
0.997291576708
0.84694574735
0.845942927268
0.997308966747
0.84302661937
0.997186548867
0.997245048556
0.997302118642
0.836894634022
0.842075157385
0.99728746897
0.997300139117
0.839615868352
0.997479996003
0.997731860007
0.831446026717
0.834955597591
0.997663476848
0.997555617777
0.832840882672
0.997387942052
0.99744047931
0.830270931604
0.82978219953
0.99756320594
0.997282718591
0.831068258915
0.997226135736
0.997299164864
0.83419667246
0.832218940415
0.997288326801
0.997244182106
0.83179839693
0.997159927475
0.99703759258
0.828128817223
0.829579487166
0.99705505787
0.997174061791
0.829842833766
0.997119849027
0.99732498303
0.828920564861
0.829044645496
0.997249587915
0.997211260917
0.827683537401
0.997013324935
0.9971213373
0.828914840291
0.826217085725
0.997187217669
0.99689912514
0.826636702559
0.99674511227
0.996878141265
0.82685506433
0.824184473559
0.996924824978
0.996681911954
0.825135620761
0.996529008443
0.996160705771
0.824198353786
0.823476325365
0.996294261043
0.996439319067
0.824469209281
0.996547374284
0.997004831911
0.827838259119
0.825486654376
0.996840872209
0.996746246921
0.825616482539
0.996337921714
0.996608708306
0.828471911273
0.827863103171
0.99668724523
0.996262235481
0.826484924845
0.995666972814
0.99582408526
0.823888817568
0.824074298754
0.996009301018
0.99543157261
0.824164836012
0.995431279633
0.995137667069
0.826489224508
0.825189378413
0.995417181813
0.995173097631
0.82512262259
0.996161364237
0.996543437037
0.8317739692
0.828283006369
0.996431555989
0.99621906894
0.828816727415
0.996088917644
0.996077408545
0.831405700748
0.829444631669
0.996236966977
0.99602344147
0.828940759555
0.995465306401
0.995147830839
0.827278806974
0.829500790828
0.995418939039
0.995221922264
0.828485481553
0.99556378654
0.995541574279
0.831395047437
0.831324606303
0.9957275477
0.995355718944
0.829751599146
0.995998871929
0.996013636463
0.833434386713
0.831292791671
0.995985781671
0.995993869926
0.834281306612
0.996014690845
0.996019199265
0.834762317413
0.838237959614
0.995964321006
0.996092985748
0.837034964678
0.996347313669
0.995834828326
0.834081910864
0.838703275968
0.995999470341
0.996253943523
0.837527642921
0.996577408239
0.996934733632
0.8405861112
0.840396987421
0.996708167004
0.996659189959
0.839546137189
0.996417091139
0.996199297916
0.836481840776
0.838275216637
0.996440471239
0.996237613169
0.838238994287
0.996630618884
0.996974634099
0.835762546918
0.837323907703
0.99669958011
0.996873546333
0.83747768461
0.996755816479
0.996978874196
0.840398194342
0.841614194338
0.996724517956