/*--------------------------------*- C++ -*----------------------------------*\
| =========                 |                                                 |
| \\      /  F ield         | OpenFOAM: The Open Source CFD Toolbox           |
|  \\    /   O peration     | Version:  v1906                                 |
|   \\  /    A nd           | Web:      www.OpenFOAM.com                      |
|    \\/     M anipulation  |                                                 |
\*---------------------------------------------------------------------------*/
FoamFile
{
    version     2.0;
    format      ascii;
    class       volVectorField;
    location    "0.05";
    object      force.turbine;
}
// * * * * * * * * * * * * * * * * * * * * * * * * * * * * * * * * * * * * * //

dimensions      [1 -2 -2 0 0 0 0];


internalField   nonuniform List<vector> 
28582
(
(0 0 0)
(0 0 0)
(0 0 0)
(0 0 0)
(0 0 0)
(0 0 0)
(0 0 0)
(0 0 0)
(0 0 0)
(0 0 0)
(0 0 0)
(0 0 0)
(0 0 0)
(0 0 0)
(0 0 0)
(0 0 0)
(0 0 0)
(0 0 0)
(0 0 0)
(0 0 0)
(0 0 0)
(0 0 0)
(0 0 0)
(0 0 0)
(0 0 0)
(0 0 0)
(0 0 0)
(0 0 0)
(0 0 0)
(0 0 0)
(0 0 0)
(0 0 0)
(0 0 0)
(0 0 0)
(0 0 0)
(0 0 0)
(0 0 0)
(0 0 0)
(0 0 0)
(0 0 0)
(0 0 0)
(0 0 0)
(0 0 0)
(0 0 0)
(0 0 0)
(0 0 0)
(0 0 0)
(0 0 0)
(0 0 0)
(0 0 0)
(0 0 0)
(0 0 0)
(0 0 0)
(0 0 0)
(0 0 0)
(0 0 0)
(0 0 0)
(0 0 0)
(0 0 0)
(0 0 0)
(0 0 0)
(0 0 0)
(0 0 0)
(0 0 0)
(0 0 0)
(0 0 0)
(0 0 0)
(0 0 0)
(0 0 0)
(0 0 0)
(0 0 0)
(0 0 0)
(0 0 0)
(0 0 0)
(0 0 0)
(0 0 0)
(0 0 0)
(0 0 0)
(0 0 0)
(0 0 0)
(0 0 0)
(0 0 0)
(0 0 0)
(0 0 0)
(0 0 0)
(0 0 0)
(0 0 0)
(0 0 0)
(0 0 0)
(0 0 0)
(0 0 0)
(0 0 0)
(0 0 0)
(0 0 0)
(0 0 0)
(0 0 0)
(0 0 0)
(0 0 0)
(0 0 0)
(0 0 0)
(0 0 0)
(0 0 0)
(0 0 0)
(0 0 0)
(0 0 0)
(0 0 0)
(0 0 0)
(0 0 0)
(0 0 0)
(0 0 0)
(0 0 0)
(0 0 0)
(0 0 0)
(0 0 0)
(0 0 0)
(0 0 0)
(0 0 0)
(0 0 0)
(0 0 0)
(0 0 0)
(0 0 0)
(0 0 0)
(0 0 0)
(0 0 0)
(0 0 0)
(0 0 0)
(0 0 0)
(0 0 0)
(0 0 0)
(0 0 0)
(0 0 0)
(0 0 0)
(0 0 0)
(0 0 0)
(0 0 0)
(0 0 0)
(0 0 0)
(0 0 0)
(0 0 0)
(0 0 0)
(0 0 0)
(0 0 0)
(0 0 0)
(0 0 0)
(0 0 0)
(0 0 0)
(0 0 0)
(0 0 0)
(0 0 0)
(0 0 0)
(0 0 0)
(0 0 0)
(0 0 0)
(0 0 0)
(0 0 0)
(0 0 0)
(0 0 0)
(0 0 0)
(0 0 0)
(0 0 0)
(0 0 0)
(0 0 0)
(0 0 0)
(0 0 0)
(0 0 0)
(0 0 0)
(0 0 0)
(0 0 0)
(0 0 0)
(0 0 0)
(0 0 0)
(0 0 0)
(0 0 0)
(0 0 0)
(0 0 0)
(0 0 0)
(0 0 0)
(0 0 0)
(0 0 0)
(0 0 0)
(0 0 0)
(0 0 0)
(0 0 0)
(0 0 0)
(0 0 0)
(0 0 0)
(0 0 0)
(0 0 0)
(0 0 0)
(0 0 0)
(0 0 0)
(0 0 0)
(0 0 0)
(0 0 0)
(0 0 0)
(0 0 0)
(0 0 0)
(0 0 0)
(0 0 0)
(0 0 0)
(0 0 0)
(0 0 0)
(0 0 0)
(0 0 0)
(0 0 0)
(0 0 0)
(0 0 0)
(0 0 0)
(0 0 0)
(0 0 0)
(0 0 0)
(0 0 0)
(0 0 0)
(0 0 0)
(0 0 0)
(0 0 0)
(0 0 0)
(-0.000104122788259 5.30627688808e-08 0)
(0 0 0)
(0 0 0)
(0 0 0)
(0 0 0)
(-2.45045675701e-05 2.84923165935e-08 0)
(0 0 0)
(-2.48124456176e-06 4.11329203026e-09 0)
(0 0 0)
(0 0 0)
(0 0 0)
(0 0 0)
(0 0 0)
(0 0 0)
(0 0 0)
(0 0 0)
(0 0 0)
(0 0 0)
(0 0 0)
(0 0 0)
(-0.018669428749 7.18626290525e-07 0)
(0 0 0)
(0 0 0)
(0 0 0)
(-0.0341553155636 1.09375774677e-05 0)
(0 0 0)
(0 0 0)
(-0.0336155284934 1.39514366995e-06 0)
(-0.150654347891 6.25260018898e-06 0)
(-0.0929326905843 2.97598920045e-05 0)
(-1.80478351252 -0.215577624702 0.059592538301)
(-0.00630000570957 4.2689448491e-06 0)
(-0.0929848662532 2.97766002506e-05 0)
(0 0 0)
(0 0 0)
(0 0 0)
(0 0 0)
(0 0 0)
(-0.0186694255842 7.18626168707e-07 0)
(0 0 0)
(0 0 0)
(0 0 0)
(-0.0341123020462 1.09238032229e-05 0)
(0 0 0)
(0 0 0)
(0 0 0)
(0 0 0)
(0 0 0)
(0 0 0)
(0 0 0)
(0 0 0)
(-1.43344763142e-05 1.37067255376e-08 0)
(0 0 0)
(-8.69429937543e-06 8.31354928275e-09 0)
(-0.000125646259889 9.48660115581e-08 0)
(-0.000563107454297 4.25159955537e-07 0)
(-7.62082678299e-05 5.75391135651e-08 0)
(-0.00034154175247 2.57872409939e-07 0)
(0 0 0)
(0 0 0)
(-1.00249431993e-05 8.0178959312e-09 0)
(0 0 0)
(0 0 0)
(0 0 0)
(0 0 0)
(0 0 0)
(0 0 0)
(-0.00045295361483 2.30832974984e-07 0)
(-1.47537715416e-05 8.55789705061e-09 0)
(-0.000108758838807 5.54253802057e-08 0)
(-2.70006174074e-05 2.15088068751e-08 0)
(-0.000125646208867 9.48659730352e-08 0)
(-3.39145921483e-06 5.62220362084e-09 0)
(-2.70006219504e-05 2.15088104941e-08 0)
(0 0 0)
(0 0 0)
(0 0 0)
(0 0 0)
(0 0 0)
(-8.92723523733e-06 7.13995497659e-09 0)
(0 0 0)
(0 0 0)
(0 0 0)
(0 0 0)
(0 0 0)
(0 0 0)
(0 0 0)
(0 0 0)
(0 0 0)
(0 0 0)
(0 0 0)
(0 0 0)
(0 0 0)
(0 0 0)
(0 0 0)
(0 0 0)
(0 0 0)
(0 0 0)
(0 0 0)
(0 0 0)
(-0.00514152481156 3.06368233949e-06 0)
(0 0 0)
(0 0 0)
(0 0 0)
(0 0 0)
(0 0 0)
(-0.00491576164412 3.33096767169e-06 0)
(0 0 0)
(0 0 0)
(0 0 0)
(0 0 0)
(0 0 0)
(0 0 0)
(0 0 0)
(0 0 0)
(0 0 0)
(0 0 0)
(0 0 0)
(0 0 0)
(0 0 0)
(0 0 0)
(0 0 0)
(0 0 0)
(0 0 0)
(0 0 0)
(0 0 0)
(0 0 0)
(0 0 0)
(0 0 0)
(-0.0404067036388 8.06807889924e-06 0)
(-0.00970297057311 4.02056388773e-06 0)
(-0.0159974110295 6.62875483314e-06 0)
(-0.01089607257 3.3522908731e-06 0)
(-0.0216281628054 4.31853401157e-06 0)
(0 0 0)
(0 0 0)
(0 0 0)
(0 0 0)
(0 0 0)
(0 0 0)
(0 0 0)
(0 0 0)
(0 0 0)
(0 0 0)
(-0.005569958289 3.7742576505e-06 0)
(0 0 0)
(-0.00848586438039 2.61076507429e-06 0)
(0 0 0)
(0 0 0)
(-0.234826482614 -0.0200039789692 0.00553037341824)
(-0.272757513842 -0.0368948457798 0.0101916829997)
(-0.402217090963 -0.0401023832339 0.0110908642606)
(-0.0497848427959 1.59426304754e-05 0)
(-1.17017639197 -0.21914778577 0.0605147555419)
(-0.0587914140676 1.17389869645e-05 0)
(-0.119429457064 3.82449676431e-05 0)
(-0.622058142209 -0.0736047815064 0.02033672851)
(-5.19797879258 -1.01654973439 0.28069666252)
(-1.02074108619 -0.12710864408 0.0351327795021)
(-0.582501658991 -0.0224621190443 0.00624305879186)
(-3.06534318599 -0.612713228164 0.169182634435)
(-0.287243846131 -0.00603568823631 0.00168871378178)
(-1.14347433709 -0.136089198054 0.0376012639762)
(-0.0691605412766 1.34905522925e-05 0)
(-0.00961574718891 2.95838535695e-06 0)
(-0.0235005749594 7.52560340649e-06 0)
(-0.0234994243524 7.52523494691e-06 0)
(-0.0277711095082 5.54510718406e-06 0)
(-0.0277711013126 5.54510554763e-06 0)
(-0.0563150685584 1.80338086413e-05 0)
(-0.146412809343 2.85594881746e-05 0)
(-0.114026466764 2.22421627161e-05 0)
(-0.227643836798 7.17783083858e-05 0)
(-0.049782950258 1.59420244268e-05 0)
(-0.0587914296952 1.17389900849e-05 0)
(-0.119223955882 3.81791598746e-05 0)
(-0.273535245911 5.33561691491e-05 0)
(0 0 0)
(0 0 0)
(0 0 0)
(0 0 0)
(0 0 0)
(0 0 0)
(0 0 0)
(0 0 0)
(0 0 0)
(0 0 0)
(0 0 0)
(0 0 0)
(0 0 0)
(0 0 0)
(0 0 0)
(0 0 0)
(0 0 0)
(0 0 0)
(0 0 0)
(0 0 0)
(0 0 0)
(0 0 0)
(0 0 0)
(-0.00557027675179 3.77447344397e-06 0)
(0 0 0)
(-0.00848586939935 2.61076661842e-06 0)
(0 0 0)
(0 0 0)
(0 0 0)
(-0.040406706116 8.06807939387e-06 0)
(-0.0159953751677 6.62791124485e-06 0)
(-0.00970098253887 4.01974011746e-06 0)
(-0.0216281556896 4.31853259076e-06 0)
(0 0 0)
(-0.010896071017 3.35229039529e-06 0)
(0 0 0)
(0 0 0)
(0 0 0)
(0 0 0)
(0 0 0)
(0 0 0)
(0 0 0)
(0 0 0)
(0 0 0)
(0 0 0)
(0 0 0)
(0 0 0)
(0 0 0)
(0 0 0)
(0 0 0)
(0 0 0)
(0 0 0)
(0 0 0)
(0 0 0)
(0 0 0)
(0 0 0)
(0 0 0)
(0 0 0)
(0 0 0)
(0 0 0)
(0 0 0)
(0 0 0)
(0 0 0)
(0 0 0)
(0 0 0)
(0 0 0)
(0 0 0)
(0 0 0)
(0 0 0)
(0 0 0)
(0 0 0)
(-0.0209468847045 1.55413677849e-06 0)
(0 0 0)
(0 0 0)
(0 0 0)
(0 0 0)
(0 0 0)
(0 0 0)
(0 0 0)
(-0.0046738853869 3.46775058951e-07 0)
(0 0 0)
(0 0 0)
(0 0 0)
(0 0 0)
(0 0 0)
(0 0 0)
(0 0 0)
(0 0 0)
(0 0 0)
(0 0 0)
(0 0 0)
(0 0 0)
(0 0 0)
(0 0 0)
(0 0 0)
(0 0 0)
(0 0 0)
(0 0 0)
(0 0 0)
(0 0 0)
(0 0 0)
(0 0 0)
(0 0 0)
(0 0 0)
(0 0 0)
(0 0 0)
(0 0 0)
(-0.448929532514 -3.94226221498e-06 0)
(-0.0107544892188 7.97920428958e-07 0)
(0 0 0)
(0 0 0)
(0 0 0)
(0 0 0)
(0 0 0)
(0 0 0)
(-0.0990299508072 -5.28485614769e-07 0)
(0 0 0)
(0 0 0)
(0 0 0)
(0 0 0)
(0 0 0)
(0 0 0)
(0 0 0)
(0 0 0)
(0 0 0)
(0 0 0)
(0 0 0)
(0 0 0)
(0 0 0)
(0 0 0)
(0 0 0)
(0 0 0)
(0 0 0)
(0 0 0)
(0 0 0)
(0 0 0)
(0 0 0)
(0 0 0)
(0 0 0)
(0 0 0)
(0 0 0)
(0 0 0)
(0 0 0)
(-2.02471890103 -0.000206927575548 0)
(-0.0582203140749 -9.0276233118e-06 0)
(0 0 0)
(0 0 0)
(0 0 0)
(0 0 0)
(0 0 0)
(0 0 0)
(-0.443040782487 -4.54073360551e-05 0)
(-0.00944175637933 -8.83449642102e-07 0)
(0 0 0)
(0 0 0)
(0 0 0)
(0 0 0)
(0 0 0)
(0 0 0)
(0 0 0)
(0 0 0)
(0 0 0)
(0 0 0)
(0 0 0)
(0 0 0)
(0 0 0)
(0 0 0)
(0 0 0)
(0 0 0)
(0 0 0)
(0 0 0)
(0 0 0)
(0 0 0)
(0 0 0)
(0 0 0)
(0 0 0)
(0 0 0)
(0 0 0)
(0 0 0)
(0 0 0)
(0 0 0)
(0 0 0)
(0 0 0)
(0 0 0)
(0 0 0)
(0 0 0)
(-3.02597347519 0.000125586832293 0)
(-0.0913764811365 3.79239372259e-06 0)
(0 0 0)
(0 0 0)
(0 0 0)
(0 0 0)
(0 0 0)
(0 0 0)
(-3.02597367321 0.000125586840512 0)
(-0.675185927429 2.80222092262e-05 0)
(-0.0186694256125 7.18626169797e-07 0)
(0 0 0)
(0 0 0)
(0 0 0)
(0 0 0)
(0 0 0)
(0 0 0)
(-0.0554226396955 2.30020316231e-06 0)
(-0.0913764808584 3.79239371105e-06 0)
(-0.0186694235953 7.18626092149e-07 0)
(0 0 0)
(0 0 0)
(0 0 0)
(0 0 0)
(0 0 0)
(0 0 0)
(0 0 0)
(0 0 0)
(0 0 0)
(0 0 0)
(0 0 0)
(0 0 0)
(0 0 0)
(0 0 0)
(0 0 0)
(0 0 0)
(0 0 0)
(0 0 0)
(0 0 0)
(0 0 0)
(0 0 0)
(0 0 0)
(0 0 0)
(0 0 0)
(0 0 0)
(0 0 0)
(-0.00205937845789 1.04275310969e-06 0)
(-6.45344633251e-05 3.28878756468e-08 0)
(0 0 0)
(0 0 0)
(0 0 0)
(0 0 0)
(0 0 0)
(0 0 0)
(-0.00133529666962 6.76118927663e-07 0)
(-0.00239885878908 1.21464680396e-06 0)
(-0.000440492588329 2.24482620942e-07 0)
(-9.02413971164e-06 7.21745865665e-09 0)
(0 0 0)
(0 0 0)
(0 0 0)
(0 0 0)
(0 0 0)
(0 0 0)
(-4.06745049515e-05 2.35931690401e-08 0)
(-8.07063781465e-05 4.11293623845e-08 0)
(-1.54124659237e-05 1.23268077796e-08 0)
(0 0 0)
(0 0 0)
(0 0 0)
(0 0 0)
(0 0 0)
(0 0 0)
(0 0 0)
(0 0 0)
(0 0 0)
(0 0 0)
(0 0 0)
(0 0 0)
(0 0 0)
(0 0 0)
(0 0 0)
(0 0 0)
(0 0 0)
(0 0 0)
(0 0 0)
(0 0 0)
(0 0 0)
(0 0 0)
(0 0 0)
(0 0 0)
(0 0 0)
(0 0 0)
(-0.000192105790654 2.06958127672e-07 0)
(-0.000192105790641 2.06958127659e-07 0)
(-2.45045675685e-05 2.84923165916e-08 0)
(0 0 0)
(0 0 0)
(0 0 0)
(0 0 0)
(0 0 0)
(0 0 0)
(0 0 0)
(-2.45045675686e-05 2.84923165918e-08 0)
(-2.45045675696e-05 2.84923165929e-08 0)
(-2.48124456171e-06 4.11329203019e-09 0)
(0 0 0)
(0 0 0)
(0 0 0)
(0 0 0)
(0 0 0)
(0 0 0)
(0 0 0)
(0 0 0)
(0 0 0)
(0 0 0)
(0 0 0)
(0 0 0)
(0 0 0)
(0 0 0)
(0 0 0)
(0 0 0)
(0 0 0)
(0 0 0)
(0 0 0)
(0 0 0)
(0 0 0)
(0 0 0)
(0 0 0)
(0 0 0)
(0 0 0)
(0 0 0)
(0 0 0)
(0 0 0)
(0 0 0)
(0 0 0)
(0 0 0)
(0 0 0)
(0 0 0)
(0 0 0)
(0 0 0)
(0 0 0)
(-0.00467388239227 3.46774836766e-07 0)
(-0.0127049234294 9.42631281364e-07 0)
(-0.00283485234313 2.10329523946e-07 0)
(-0.121559349058 4.71330988376e-06 0)
(-0.0247458230089 1.83599586261e-06 0)
(-0.0737294429665 2.85876582058e-06 0)
(-0.0150090966658 1.11358750808e-06 0)
(0 0 0)
(0 0 0)
(0 0 0)
(-0.00334898295323 2.48475019153e-07 0)
(0 0 0)
(0 0 0)
(0 0 0)
(0 0 0)
(0 0 0)
(0 0 0)
(-0.0247458337127 1.83599665677e-06 0)
(-0.00552153984973 4.09666080442e-07 0)
(-0.0055215384616 4.09665977451e-07 0)
(0 0 0)
(0 0 0)
(0 0 0)
(0 0 0)
(0 0 0)
(0 0 0)
(0 0 0)
(0 0 0)
(-0.0990299291167 -5.28485499015e-07 0)
(-0.27228950372 -2.39110271058e-06 0)
(-0.0600646764158 -3.20542595273e-07 0)
(-1.10481301306 -6.43442408819e-05 0)
(-0.244462994672 -1.77623017198e-05 0)
(-0.670103063793 -3.90267605854e-05 0)
(-0.14827431148 -1.07733813101e-05 0)
(0 0 0)
(-0.00652292727544 4.83963191911e-07 0)
(0 0 0)
(-0.0319446734867 -2.05271416624e-06 0)
(0 0 0)
(-0.0173361170869 -5.85003984397e-07 0)
(0 0 0)
(-0.0210495483537 2.20949661796e-07 0)
(-0.0210495458024 2.20949635015e-07 0)
(-0.00395635521391 2.93538501474e-07 0)
(-0.244462925985 -1.77622967291e-05 0)
(-0.0526678550968 -3.38435302235e-06 0)
(-0.0526678527279 -3.38435287013e-06 0)
(-0.0105148865719 -3.54822853884e-07 0)
(0 0 0)
(0 0 0)
(0 0 0)
(-0.00467388197165 3.46774805559e-07 0)
(0 0 0)
(0 0 0)
(0 0 0)
(-0.443040885772 -4.54073466409e-05 0)
(-1.20430996077 -0.000123429962353 0)
(-0.268717882985 -2.75409481453e-05 0)
(-2.81298320724 -0.000232648282911 0)
(-0.618926391813 -5.11464093093e-05 0)
(-1.68241607268 -0.000139030330941 0)
(-0.375397838841 -3.10218658845e-05 0)
(0 0 0)
(-0.035312410083 -5.47553103288e-06 0)
(0 0 0)
(-0.0837625879491 -6.92191456807e-06 0)
(0 0 0)
(-0.0508045773916 -4.19835338165e-06 0)
(0 0 0)
(-0.0988557712964 -1.01317472469e-05 0)
(-0.0988557711429 -1.01317472312e-05 0)
(-0.0195388477699 -2.74212502154e-06 0)
(-0.618926415067 -5.1146411231e-05 0)
(-0.138101149404 -1.14123068703e-05 0)
(-0.138101136468 -1.14123058013e-05 0)
(-0.0308145292688 -2.54642966838e-06 0)
(0 0 0)
(0 0 0)
(0 0 0)
(-0.0172181444002 -3.98439369112e-06 0)
(0 0 0)
(0 0 0)
(0 0 0)
(-8.51471223471 0.00031606579107 0)
(-5.02813376812 0.00020363169658 0)
(-5.16919585574 0.00162989756041 0)
(-2.44775701665 0.000771801514444 0)
(-0.675186024615 2.80222132597e-05 0)
(-1.83534571603 7.61722653979e-05 0)
(-0.409520983861 1.69963297902e-05 0)
(-3.14036543494 0.000990187662462 0)
(-0.330353347519 0.000104163612721 0)
(-1.48228126989 0.000467377652746 0)
(-0.156461143601 4.93337152182e-05 0)
(0 0 0)
(-0.0554226457175 2.30020341224e-06 0)
(0 0 0)
(-0.119314043414 3.82080086599e-05 0)
(0 0 0)
(-0.0563622640532 1.80489220833e-05 0)
(0 0 0)
(0 0 0)
(0 0 0)
(0 0 0)
(0 0 0)
(0 0 0)
(0 0 0)
(0 0 0)
(0 0 0)
(0 0 0)
(0 0 0)
(0 0 0)
(0 0 0)
(0 0 0)
(0 0 0)
(0 0 0)
(0 0 0)
(0 0 0)
(0 0 0)
(0 0 0)
(0 0 0)
(0 0 0)
(0 0 0)
(0 0 0)
(0 0 0)
(0 0 0)
(0 0 0)
(0 0 0)
(0 0 0)
(0 0 0)
(0 0 0)
(0 0 0)
(0 0 0)
(0 0 0)
(0 0 0)
(0 0 0)
(0 0 0)
(0 0 0)
(0 0 0)
(0 0 0)
(0 0 0)
(0 0 0)
(0 0 0)
(-0.409521018375 1.69963312226e-05 0)
(-0.6751859259 2.80222091628e-05 0)
(-2.39066351349 -0.215723366418 0.0596836517272)
(-3.13730777993 0.000989223554201 0)
(-0.156231936514 4.92614440018e-05 0)
(-0.331268885205 0.000104452290628 0)
(-1.83534523384 7.61722453855e-05 0)
(-0.675185810643 2.80222043792e-05 0)
(-0.409520962911 1.69963289207e-05 0)
(-3.13852733106 0.000989608090492 0)
(-1.48137602379 0.000467092219875 0)
(-0.33011162911 0.000104087396563 0)
(-0.156403218126 4.93154507546e-05 0)
(-0.150654366235 6.25260095029e-06 0)
(-0.150654336637 6.25259972192e-06 0)
(-0.0336155282063 1.39514365804e-06 0)
(-0.900331400423 0.000283883217828 0)
(-0.092921242892 2.9756226103e-05 0)
(-0.0926671242667 2.96748495411e-05 0)
(-0.00630687989667 4.27360286482e-06 0)
(0 0 0)
(0 0 0)
(0 0 0)
(-0.0342106595823 1.09553003165e-05 0)
(0 0 0)
(0 0 0)
(0 0 0)
(0 0 0)
(0 0 0)
(0 0 0)
(0 0 0)
(0 0 0)
(0 0 0)
(0 0 0)
(0 0 0)
(0 0 0)
(0 0 0)
(0 0 0)
(0 0 0)
(0 0 0)
(0 0 0)
(0 0 0)
(0 0 0)
(0 0 0)
(0 0 0)
(0 0 0)
(0 0 0)
(0 0 0)
(0 0 0)
(0 0 0)
(0 0 0)
(0 0 0)
(0 0 0)
(0 0 0)
(0 0 0)
(0 0 0)
(0 0 0)
(0 0 0)
(0 0 0)
(0 0 0)
(0 0 0)
(0 0 0)
(0 0 0)
(0 0 0)
(0 0 0)
(0 0 0)
(0 0 0)
(0 0 0)
(0 0 0)
(-0.0913764919363 3.79239417081e-06 0)
(0 0 0)
(0 0 0)
(-0.0563157567492 1.80340290211e-05 0)
(-0.118874035681 3.80671047158e-05 0)
(0 0 0)
(0 0 0)
(-0.0554226371125 2.3002030551e-06 0)
(0 0 0)
(0 0 0)
(-0.119283045526 3.81980821871e-05 0)
(-0.0561499424468 1.79809302062e-05 0)
(0 0 0)
(0 0 0)
(0 0 0)
(0 0 0)
(0 0 0)
(-0.0341612201779 1.0939468306e-05 0)
(0 0 0)
(0 0 0)
(0 0 0)
(0 0 0)
(0 0 0)
(0 0 0)
(0 0 0)
(0 0 0)
(0 0 0)
(0 0 0)
(0 0 0)
(0 0 0)
(0 0 0)
(0 0 0)
(0 0 0)
(0 0 0)
(0 0 0)
(0 0 0)
(0 0 0)
(0 0 0)
(0 0 0)
(0 0 0)
(0 0 0)
(0 0 0)
(0 0 0)
(0 0 0)
(0 0 0)
(0 0 0)
(0 0 0)
(0 0 0)
(0 0 0)
(0 0 0)
(0 0 0)
(0 0 0)
(0 0 0)
(0 0 0)
(0 0 0)
(0 0 0)
(0 0 0)
(0 0 0)
(0 0 0)
(0 0 0)
(0 0 0)
(0 0 0)
(0 0 0)
(0 0 0)
(0 0 0)
(0 0 0)
(0 0 0)
(0 0 0)
(0 0 0)
(0 0 0)
(0 0 0)
(0 0 0)
(0 0 0)
(0 0 0)
(0 0 0)
(0 0 0)
(0 0 0)
(0 0 0)
(0 0 0)
(0 0 0)
(0 0 0)
(0 0 0)
(0 0 0)
(0 0 0)
(0 0 0)
(0 0 0)
(0 0 0)
(0 0 0)
(0 0 0)
(0 0 0)
(0 0 0)
(0 0 0)
(0 0 0)
(0 0 0)
(0 0 0)
(0 0 0)
(0 0 0)
(0 0 0)
(0 0 0)
(0 0 0)
(0 0 0)
(0 0 0)
(0 0 0)
(0 0 0)
(0 0 0)
(0 0 0)
(0 0 0)
(0 0 0)
(0 0 0)
(0 0 0)
(0 0 0)
(0 0 0)
(0 0 0)
(0 0 0)
(0 0 0)
(0 0 0)
(0 0 0)
(0 0 0)
(0 0 0)
(0 0 0)
(0 0 0)
(0 0 0)
(0 0 0)
(0 0 0)
(0 0 0)
(0 0 0)
(0 0 0)
(0 0 0)
(0 0 0)
(0 0 0)
(0 0 0)
(0 0 0)
(0 0 0)
(0 0 0)
(0 0 0)
(0 0 0)
(0 0 0)
(0 0 0)
(0 0 0)
(0 0 0)
(0 0 0)
(0 0 0)
(0 0 0)
(0 0 0)
(0 0 0)
(0 0 0)
(0 0 0)
(0 0 0)
(0 0 0)
(0 0 0)
(0 0 0)
(0 0 0)
(0 0 0)
(0 0 0)
(0 0 0)
(0 0 0)
(0 0 0)
(0 0 0)
(0 0 0)
(0 0 0)
(0 0 0)
(0 0 0)
(0 0 0)
(0 0 0)
(0 0 0)
(0 0 0)
(0 0 0)
(0 0 0)
(0 0 0)
(0 0 0)
(0 0 0)
(0 0 0)
(0 0 0)
(0 0 0)
(0 0 0)
(0 0 0)
(0 0 0)
(0 0 0)
(0 0 0)
(0 0 0)
(0 0 0)
(0 0 0)
(0 0 0)
(0 0 0)
(0 0 0)
(0 0 0)
(0 0 0)
(0 0 0)
(0 0 0)
(0 0 0)
(0 0 0)
(-0.00153352384758 1.15591534285e-06 0)
(-0.00252835264499 1.90578165386e-06 0)
(-0.000928406861696 7.00969978336e-07 0)
(-0.00153352330365 1.15591493285e-06 0)
(-0.00394391843062 1.99697787074e-06 0)
(-0.00465201620214 2.35551864813e-06 0)
(-0.00252835184742 1.90578105268e-06 0)
(-0.00153352286094 1.15591459916e-06 0)
(-0.00153352285131 1.15591459189e-06 0)
(-0.000928406739386 7.00969885989e-07 0)
(-0.00040161677897 2.04670837935e-07 0)
(-0.000883856477687 4.47535074039e-07 0)
(-0.000209863688159 1.06950155364e-07 0)
(-0.00056310719301 4.25159758259e-07 0)
(-0.00012564619544 9.48659628973e-08 0)
(-0.000341541760503 2.57872416004e-07 0)
(-7.6208268328e-05 5.75391139412e-08 0)
(0 0 0)
(-2.40324732505e-05 1.39399902845e-08 0)
(0 0 0)
(-1.43344772901e-05 1.37067264707e-08 0)
(0 0 0)
(-8.69429937625e-06 8.31354928354e-09 0)
(0 0 0)
(0 0 0)
(0 0 0)
(0 0 0)
(0 0 0)
(0 0 0)
(0 0 0)
(0 0 0)
(0 0 0)
(0 0 0)
(0 0 0)
(0 0 0)
(0 0 0)
(0 0 0)
(0 0 0)
(0 0 0)
(0 0 0)
(0 0 0)
(0 0 0)
(0 0 0)
(0 0 0)
(0 0 0)
(0 0 0)
(0 0 0)
(0 0 0)
(0 0 0)
(0 0 0)
(0 0 0)
(0 0 0)
(0 0 0)
(0 0 0)
(0 0 0)
(0 0 0)
(0 0 0)
(0 0 0)
(0 0 0)
(0 0 0)
(0 0 0)
(0 0 0)
(0 0 0)
(0 0 0)
(0 0 0)
(0 0 0)
(-0.00192339144248 9.73896954256e-07 0)
(-0.000193410383687 9.85652676066e-08 0)
(-0.000545831085787 2.781649362e-07 0)
(-0.000341541752467 2.57872409937e-07 0)
(-0.000563107152136 4.25159727398e-07 0)
(-7.62082659837e-05 5.75391121711e-08 0)
(-0.000125646205435 9.48659704442e-08 0)
(-0.000876023189526 4.43568738683e-07 0)
(-0.000331095602589 1.68732030052e-07 0)
(-0.000347724057846 1.7720617767e-07 0)
(-0.000563107504271 4.25159993269e-07 0)
(-0.000341541754104 2.57872411173e-07 0)
(-0.000125646191983 9.48659602875e-08 0)
(-7.62082674429e-05 5.75391132729e-08 0)
(-7.43076208617e-05 3.78684453019e-08 0)
(-7.21626658484e-05 3.67753392294e-08 0)
(-2.58209752728e-05 1.49774074723e-08 0)
(-0.000125646189034 9.48659580608e-08 0)
(-2.70006174053e-05 2.15088068734e-08 0)
(-2.70006167139e-05 2.15088063227e-08 0)
(-3.3914593412e-06 5.62220383033e-09 0)
(0 0 0)
(0 0 0)
(0 0 0)
(0 0 0)
(0 0 0)
(0 0 0)
(0 0 0)
(0 0 0)
(0 0 0)
(0 0 0)
(0 0 0)
(0 0 0)
(0 0 0)
(0 0 0)
(0 0 0)
(0 0 0)
(0 0 0)
(0 0 0)
(0 0 0)
(0 0 0)
(0 0 0)
(0 0 0)
(0 0 0)
(0 0 0)
(0 0 0)
(0 0 0)
(0 0 0)
(0 0 0)
(0 0 0)
(0 0 0)
(0 0 0)
(0 0 0)
(0 0 0)
(0 0 0)
(0 0 0)
(0 0 0)
(0 0 0)
(0 0 0)
(0 0 0)
(0 0 0)
(0 0 0)
(0 0 0)
(0 0 0)
(0 0 0)
(0 0 0)
(0 0 0)
(0 0 0)
(0 0 0)
(0 0 0)
(-4.35095370111e-05 2.21732105443e-08 0)
(0 0 0)
(0 0 0)
(-8.69429937543e-06 8.31354928275e-09 0)
(-1.43344763487e-05 1.37067255706e-08 0)
(0 0 0)
(0 0 0)
(-2.50228126433e-05 1.4514434761e-08 0)
(0 0 0)
(0 0 0)
(-1.43344763142e-05 1.37067255376e-08 0)
(-8.69429939624e-06 8.31354930265e-09 0)
(0 0 0)
(0 0 0)
(0 0 0)
(0 0 0)
(0 0 0)
(0 0 0)
(0 0 0)
(0 0 0)
(0 0 0)
(0 0 0)
(0 0 0)
(0 0 0)
(0 0 0)
(0 0 0)
(0 0 0)
(0 0 0)
(0 0 0)
(0 0 0)
(0 0 0)
(0 0 0)
(0 0 0)
(0 0 0)
(0 0 0)
(0 0 0)
(0 0 0)
(0 0 0)
(0 0 0)
(0 0 0)
(0 0 0)
(0 0 0)
(0 0 0)
(0 0 0)
(0 0 0)
(0 0 0)
(0 0 0)
(0 0 0)
(0 0 0)
(0 0 0)
(0 0 0)
(0 0 0)
(0 0 0)
(0 0 0)
(0 0 0)
(0 0 0)
(0 0 0)
(0 0 0)
(0 0 0)
(0 0 0)
(0 0 0)
(0 0 0)
(0 0 0)
(0 0 0)
(0 0 0)
(0 0 0)
(0 0 0)
(0 0 0)
(0 0 0)
(0 0 0)
(0 0 0)
(0 0 0)
(0 0 0)
(0 0 0)
(0 0 0)
(0 0 0)
(0 0 0)
(0 0 0)
(0 0 0)
(0 0 0)
(0 0 0)
(0 0 0)
(0 0 0)
(0 0 0)
(0 0 0)
(0 0 0)
(0 0 0)
(0 0 0)
(0 0 0)
(0 0 0)
(0 0 0)
(0 0 0)
(0 0 0)
(0 0 0)
(0 0 0)
(0 0 0)
(0 0 0)
(0 0 0)
(0 0 0)
(0 0 0)
(0 0 0)
(0 0 0)
(0 0 0)
(0 0 0)
(0 0 0)
(0 0 0)
(0 0 0)
(0 0 0)
(0 0 0)
(0 0 0)
(0 0 0)
(0 0 0)
(0 0 0)
(0 0 0)
(0 0 0)
(0 0 0)
(0 0 0)
(0 0 0)
(0 0 0)
(0 0 0)
(0 0 0)
(0 0 0)
(0 0 0)
(0 0 0)
(0 0 0)
(0 0 0)
(0 0 0)
(0 0 0)
(0 0 0)
(0 0 0)
(0 0 0)
(0 0 0)
(0 0 0)
(0 0 0)
(0 0 0)
(0 0 0)
(0 0 0)
(0 0 0)
(0 0 0)
(0 0 0)
(0 0 0)
(0 0 0)
(0 0 0)
(0 0 0)
(0 0 0)
(0 0 0)
(0 0 0)
(0 0 0)
(0 0 0)
(0 0 0)
(0 0 0)
(0 0 0)
(0 0 0)
(0 0 0)
(0 0 0)
(0 0 0)
(0 0 0)
(0 0 0)
(0 0 0)
(0 0 0)
(0 0 0)
(0 0 0)
(0 0 0)
(0 0 0)
(0 0 0)
(0 0 0)
(0 0 0)
(0 0 0)
(0 0 0)
(0 0 0)
(0 0 0)
(0 0 0)
(0 0 0)
(0 0 0)
(0 0 0)
(0 0 0)
(0 0 0)
(0 0 0)
(0 0 0)
(0 0 0)
(0 0 0)
(0 0 0)
(0 0 0)
(0 0 0)
(0 0 0)
(0 0 0)
(0 0 0)
(0 0 0)
(0 0 0)
(0 0 0)
(0 0 0)
(0 0 0)
(0 0 0)
(0 0 0)
(0 0 0)
(0 0 0)
(-8.01914625116 0.00155708369131 0)
(-6.2256326565 0.00121438064764 0)
(-7.51961373645 0.00237100710175 0)
(-4.56521461537 0.00143945642069 0)
(-5.49410207238 0.00107168726473 0)
(-6.62760621008 0.00208974848209 0)
(-9.0999139288 0.00176326643211 0)
(-6.22562887967 0.00121437991092 0)
(-2.94078041524 0.000573632757064 0)
(-3.56144183518 0.00112295713312 0)
(-3.56009976899 0.00112253396664 0)
(-4.27880996244 0.000834630679321 0)
(-4.27881790596 0.000834632228797 0)
(-5.17929998453 0.00163308349016 0)
(-1.78367409261 0.000347925973032 0)
(-3.77603757009 0.000736559190507 0)
(-1.68230694528 0.000530447687126 0)
(-2.77346982799 0.000874501921127 0)
(-3.33234276855 0.000650011459509 0)
(-1.48452884253 0.000468086334185 0)
(-2.02116774783 0.000394251818895 0)
(-0.842547876421 0.00016434857183 0)
(-0.397991435904 7.76327683232e-05 0)
(-0.794674741388 0.000250568649062 0)
(-0.292281150553 9.21590799683e-05 0)
(-0.35122634643 6.85107043056e-05 0)
(-0.700329288297 0.000220820613174 0)
(-0.954732224382 0.000186231408266 0)
(-1.38912682608 0.000270965029223 0)
(-1.78367220708 0.000347925605238 0)
(-2.15462211187 0.000679373237493 0)
(-0.793874055939 0.000250316185178 0)
(-2.59522998238 0.000506229204428 0)
(-0.954731901964 0.000186231345374 0)
(-1.15555209417 0.000364356776524 0)
(-0.656176945932 0.000127994796438 0)
(-0.18799777167 3.66711093171e-05 0)
(-0.227653880084 7.17814751311e-05 0)
(-0.375069807058 0.000118263145868 0)
(-0.273535365264 5.33561924304e-05 0)
(-0.45098328595 8.79694330011e-05 0)
(-0.545608785758 0.000172035738955 0)
(-0.0404067161453 8.06808139644e-06 0)
(-0.146412896847 2.85595052431e-05 0)
(-0.0387727463496 1.24162201355e-05 0)
(-0.105396481979 3.37511795002e-05 0)
(-0.129208960003 2.52036811657e-05 0)
(-0.034214699906 1.09565941518e-05 0)
(-0.0457868151874 9.14233540997e-06 0)
(-0.00961574725037 2.95838537586e-06 0)
(0 0 0)
(-0.00970362303964 4.02083424652e-06 0)
(0 0 0)
(0 0 0)
(-0.00630586394497 4.27291444611e-06 0)
(-0.0108960725722 3.35229087377e-06 0)
(-0.0314687779366 6.28342726309e-06 0)
(-0.0691605412766 1.34905522925e-05 0)
(-0.0819502496693 2.62429782735e-05 0)
(-0.0159824367314 6.62255001969e-06 0)
(-0.100627988562 1.96286367447e-05 0)
(-0.0216281589509 4.31853324195e-06 0)
(-0.0266239978845 8.52581902867e-06 0)
(-0.00514152636934 3.06368326773e-06 0)
(0 0 0)
(0 0 0)
(0 0 0)
(0 0 0)
(0 0 0)
(-0.0049140036653 3.32977644823e-06 0)
(0 0 0)
(0 0 0)
(0 0 0)
(0 0 0)
(0 0 0)
(0 0 0)
(0 0 0)
(0 0 0)
(0 0 0)
(0 0 0)
(0 0 0)
(0 0 0)
(0 0 0)
(0 0 0)
(0 0 0)
(0 0 0)
(0 0 0)
(0 0 0)
(0 0 0)
(0 0 0)
(0 0 0)
(0 0 0)
(0 0 0)
(0 0 0)
(0 0 0)
(0 0 0)
(0 0 0)
(0 0 0)
(0 0 0)
(0 0 0)
(0 0 0)
(0 0 0)
(0 0 0)
(0 0 0)
(0 0 0)
(0 0 0)
(0 0 0)
(0 0 0)
(0 0 0)
(0 0 0)
(0 0 0)
(0 0 0)
(0 0 0)
(0 0 0)
(0 0 0)
(0 0 0)
(0 0 0)
(0 0 0)
(0 0 0)
(0 0 0)
(0 0 0)
(0 0 0)
(0 0 0)
(0 0 0)
(0 0 0)
(0 0 0)
(0 0 0)
(0 0 0)
(0 0 0)
(0 0 0)
(0 0 0)
(0 0 0)
(0 0 0)
(0 0 0)
(0 0 0)
(0 0 0)
(0 0 0)
(0 0 0)
(0 0 0)
(0 0 0)
(0 0 0)
(0 0 0)
(0 0 0)
(0 0 0)
(0 0 0)
(0 0 0)
(0 0 0)
(0 0 0)
(0 0 0)
(0 0 0)
(0 0 0)
(0 0 0)
(0 0 0)
(0 0 0)
(0 0 0)
(0 0 0)
(0 0 0)
(0 0 0)
(0 0 0)
(0 0 0)
(0 0 0)
(0 0 0)
(0 0 0)
(0 0 0)
(0 0 0)
(0 0 0)
(0 0 0)
(0 0 0)
(0 0 0)
(0 0 0)
(0 0 0)
(0 0 0)
(0 0 0)
(0 0 0)
(0 0 0)
(0 0 0)
(0 0 0)
(0 0 0)
(0 0 0)
(0 0 0)
(0 0 0)
(0 0 0)
(0 0 0)
(0 0 0)
(0 0 0)
(0 0 0)
(0 0 0)
(0 0 0)
(0 0 0)
(0 0 0)
(0 0 0)
(0 0 0)
(0 0 0)
(0 0 0)
(0 0 0)
(0 0 0)
(0 0 0)
(0 0 0)
(0 0 0)
(0 0 0)
(0 0 0)
(0 0 0)
(0 0 0)
(0 0 0)
(0 0 0)
(0 0 0)
(0 0 0)
(0 0 0)
(0 0 0)
(0 0 0)
(0 0 0)
(0 0 0)
(0 0 0)
(0 0 0)
(0 0 0)
(0 0 0)
(0 0 0)
(0 0 0)
(0 0 0)
(0 0 0)
(0 0 0)
(0 0 0)
(0 0 0)
(0 0 0)
(0 0 0)
(0 0 0)
(0 0 0)
(0 0 0)
(0 0 0)
(0 0 0)
(0 0 0)
(0 0 0)
(0 0 0)
(0 0 0)
(0 0 0)
(0 0 0)
(0 0 0)
(0 0 0)
(-1.70122831293 -0.073394218455 0.020336712345)
(-5.89979954009 -1.0164127961 0.280696651446)
(-2.69875744617 -0.126573182783 0.0351310242558)
(-0.895239948292 -0.0223657648678 0.00624368052253)
(-5.08149932673 -0.612319926879 0.169182626977)
(-1.18566848835 -0.00575607968284 0.00168972637319)
(-1.51913110461 -0.136015812845 0.0376012338888)
(-1.87208913389 -0.0196846262938 0.00553037730095)
(-3.93476865014 -0.0361805321955 0.0101916839513)
(-2.94822929072 -0.0393005046491 0.0110911134147)
(-1.68196458302 0.000530339736986 0)
(-4.22898215809 -0.218551084634 0.0605147428012)
(-2.02116809606 0.000394251886821 0)
(-1.48256601459 0.000467467435509 0)
(-0.656176945932 0.000127994796438 0)
(-0.187997866417 3.66711277986e-05 0)
(-0.375128959601 0.000118281797238 0)
(-0.227503961485 7.17342043436e-05 0)
(-0.273535282988 5.33561763814e-05 0)
(-0.544743075242 0.000171762772038 0)
(-0.450983521362 8.79694789209e-05 0)
(-0.842547344359 0.000164348468045 0)
(-0.397991471774 7.763277532e-05 0)
(-0.794637183159 0.000250556806588 0)
(-0.292318459577 9.21708438651e-05 0)
(-0.954731592472 0.000186231285004 0)
(-0.35122627957 6.85106912637e-05 0)
(-0.700282227659 0.000220805774498 0)
(-1.78367360251 0.000347925877433 0)
(-3.7760371263 0.00073655910394 0)
(-2.77348879361 0.000874507901167 0)
(-1.68232745932 0.000530454155402 0)
(-3.33234524927 0.000650011943403 0)
(-2.02116599389 0.000394251476767 0)
(-1.48465407662 0.000468125821707 0)
(-1.38912580434 0.000270964829922 0)
(-1.78367334305 0.000347925826822 0)
(-2.15371912591 0.000679088517265 0)
(-0.793989683533 0.00025035264368 0)
(-2.59522279496 0.000506227802441 0)
(-0.954731863497 0.000186231337871 0)
(-1.15493113665 0.0003641609826 0)
(-0.84254739628 0.000164348478173 0)
(-0.397991435904 7.76327683232e-05 0)
(-0.794458734081 0.000250500539864 0)
(-0.292103700514 9.21031282507e-05 0)
(-0.954731820643 0.000186231329512 0)
(-0.351226150363 6.85106660605e-05 0)
(-0.69967399412 0.000220613992568 0)
(-0.656176936631 0.000127994794624 0)
(-0.187997802972 3.6671115423e-05 0)
(-0.375303526085 0.000118336839743 0)
(-0.227672171974 7.17872427415e-05 0)
(-0.45098335997 8.79694474394e-05 0)
(-0.273535216952 5.33561635004e-05 0)
(-0.544961423713 0.000171831619427 0)
(-0.309956011528 6.04604548303e-05 0)
(-1.08185350118 0.000211027863014 0)
(-0.481947682667 0.000151962776058 0)
(-0.481940936399 0.000151960648894 0)
(-0.579074053487 0.000112954997974 0)
(-0.579074129209 0.000112955012745 0)
(-0.257993247789 8.13477718602e-05 0)
(-0.14641286535 2.85594990993e-05 0)
(-0.114026519818 2.22421730649e-05 0)
(-0.227612380573 7.1768389933e-05 0)
(-0.0497768830466 1.594008152e-05 0)
(-0.273535359937 5.33561913912e-05 0)
(-0.0587913990364 1.17389839632e-05 0)
(-0.119333276339 3.82141676311e-05 0)
(-0.146412857861 2.85594976386e-05 0)
(-0.114026451426 2.22421597242e-05 0)
(-0.227601189983 7.17648614316e-05 0)
(-0.0497365099631 1.59271528229e-05 0)
(-0.273535228214 5.33561656972e-05 0)
(-0.058791404211 1.17389849964e-05 0)
(-0.119185880812 3.81669670717e-05 0)
(-0.0691605412766 1.34905522925e-05 0)
(-0.00961574554876 2.95838485234e-06 0)
(-0.0235115340075 7.5291128291e-06 0)
(-0.0235161653374 7.5305959227e-06 0)
(-0.0277710984007 5.54510496621e-06 0)
(-0.0277710966883 5.54510462429e-06 0)
(-0.0562943359878 1.80271694377e-05 0)
(0 0 0)
(-0.0404067211432 8.06808239438e-06 0)
(-0.00970363091742 4.02083751078e-06 0)
(-0.0159985653522 6.62923314319e-06 0)
(-0.0108960717703 3.35229062707e-06 0)
(-0.0216281582343 4.31853309886e-06 0)
(0 0 0)
(0 0 0)
(0 0 0)
(0 0 0)
(0 0 0)
(0 0 0)
(0 0 0)
(0 0 0)
(0 0 0)
(0 0 0)
(-0.00557019642893 3.77441901642e-06 0)
(0 0 0)
(-0.00848586674361 2.61076580136e-06 0)
(0 0 0)
(0 0 0)
(0 0 0)
(0 0 0)
(0 0 0)
(0 0 0)
(0 0 0)
(0 0 0)
(0 0 0)
(0 0 0)
(0 0 0)
(0 0 0)
(0 0 0)
(0 0 0)
(0 0 0)
(0 0 0)
(0 0 0)
(0 0 0)
(0 0 0)
(0 0 0)
(0 0 0)
(0 0 0)
(0 0 0)
(0 0 0)
(0 0 0)
(0 0 0)
(0 0 0)
(0 0 0)
(0 0 0)
(0 0 0)
(0 0 0)
(0 0 0)
(0 0 0)
(0 0 0)
(0 0 0)
(0 0 0)
(0 0 0)
(0 0 0)
(0 0 0)
(0 0 0)
(0 0 0)
(0 0 0)
(0 0 0)
(0 0 0)
(0 0 0)
(0 0 0)
(0 0 0)
(0 0 0)
(0 0 0)
(0 0 0)
(0 0 0)
(0 0 0)
(0 0 0)
(0 0 0)
(0 0 0)
(0 0 0)
(0 0 0)
(0 0 0)
(0 0 0)
(0 0 0)
(0 0 0)
(0 0 0)
(0 0 0)
(0 0 0)
(0 0 0)
(0 0 0)
(0 0 0)
(0 0 0)
(0 0 0)
(0 0 0)
(0 0 0)
(0 0 0)
(0 0 0)
(0 0 0)
(0 0 0)
(0 0 0)
(0 0 0)
(0 0 0)
(0 0 0)
(0 0 0)
(0 0 0)
(0 0 0)
(0 0 0)
(0 0 0)
(0 0 0)
(0 0 0)
(0 0 0)
(0 0 0)
(0 0 0)
(0 0 0)
(0 0 0)
(0 0 0)
(0 0 0)
(0 0 0)
(0 0 0)
(0 0 0)
(0 0 0)
(0 0 0)
(0 0 0)
(0 0 0)
(0 0 0)
(0 0 0)
(0 0 0)
(0 0 0)
(0 0 0)
(0 0 0)
(0 0 0)
(0 0 0)
(0 0 0)
(0 0 0)
(0 0 0)
(0 0 0)
(0 0 0)
(0 0 0)
(0 0 0)
(0 0 0)
(0 0 0)
(0 0 0)
(0 0 0)
(0 0 0)
(0 0 0)
(0 0 0)
(0 0 0)
(0 0 0)
(0 0 0)
(0 0 0)
(0 0 0)
(0 0 0)
(0 0 0)
(0 0 0)
(0 0 0)
(0 0 0)
(0 0 0)
(0 0 0)
(0 0 0)
(0 0 0)
(0 0 0)
(0 0 0)
(0 0 0)
(0 0 0)
(0 0 0)
(0 0 0)
(0 0 0)
(0 0 0)
(0 0 0)
(0 0 0)
(0 0 0)
(0 0 0)
(0 0 0)
(0 0 0)
(0 0 0)
(0 0 0)
(0 0 0)
(0 0 0)
(0 0 0)
(0 0 0)
(0 0 0)
(0 0 0)
(0 0 0)
(0 0 0)
(0 0 0)
(0 0 0)
(0 0 0)
(0 0 0)
(0 0 0)
(0 0 0)
(0 0 0)
(0 0 0)
(0 0 0)
(0 0 0)
(0 0 0)
(0 0 0)
(0 0 0)
(0 0 0)
(0 0 0)
(0 0 0)
(0 0 0)
(-0.0314687805207 6.28342777905e-06 0)
(-0.0691605373098 1.34905515187e-05 0)
(-0.0820780860532 2.62839153964e-05 0)
(-0.0159985189619 6.6292139207e-06 0)
(-0.100628030111 1.96286448493e-05 0)
(-0.0266483731865 8.53362474647e-06 0)
(-0.0216281584459 4.31853314111e-06 0)
(-0.0404067115639 8.06808048166e-06 0)
(-0.146412867032 2.85594994273e-05 0)
(-0.105340706042 3.37333183381e-05 0)
(-0.0387510684066 1.24092781947e-05 0)
(-0.129208901654 2.5203669784e-05 0)
(-0.0457868032847 9.14233303334e-06 0)
(-0.0341544114763 1.09372879513e-05 0)
(-0.00514152498939 3.06368244546e-06 0)
(0 0 0)
(0 0 0)
(0 0 0)
(0 0 0)
(-0.00490673122494 3.32484857225e-06 0)
(0 0 0)
(-0.00961574763917 2.95838549548e-06 0)
(0 0 0)
(-0.00970239522261 4.02032548306e-06 0)
(0 0 0)
(-0.0108960723139 3.35229079429e-06 0)
(0 0 0)
(-0.00630087406071 4.26953325224e-06 0)
(-0.0404067108238 8.06808033389e-06 0)
(-0.146412866411 2.85594993063e-05 0)
(-0.105394919687 3.37506792066e-05 0)