/*--------------------------------*- C++ -*----------------------------------*\
| =========                 |                                                 |
| \\      /  F ield         | OpenFOAM: The Open Source CFD Toolbox           |
|  \\    /   O peration     | Version:  v1906                                 |
|   \\  /    A nd           | Web:      www.OpenFOAM.com                      |
|    \\/     M anipulation  |                                                 |
\*---------------------------------------------------------------------------*/
FoamFile
{
    version     2.0;
    format      ascii;
    class       volScalarField;
    location    "0.05";
    object      p;
}
// * * * * * * * * * * * * * * * * * * * * * * * * * * * * * * * * * * * * * //

dimensions      [1 -1 -2 0 0 0 0];


internalField   nonuniform List<scalar> 
28582
(
17126.5838946
17128.62847
12227.8550714
12229.570803
7328.62388199
7329.70290829
3653.93310876
3654.28019254
-20.8176096049
-20.1573624925
-26.911472639
3653.8155035
594.174247921
594.206711417
3654.39213895
3655.03114494
593.271994166
1816.92647436
1817.20003128
17125.3231291
17131.8241678
17136.6992128
12226.8272187
12232.226246
12236.2986342
7327.87217939
7331.35578723
3653.53933644
3655.0105777
-20.2763102973
-26.9831780363
-26.9189729468
3653.2119928
3654.57405265
594.421779652
593.431149657
1817.15936491
3655.04223229
3655.463234
3655.73931977
1817.15858037
593.255194873
1816.89209952
1816.60041417
-20.4141544143
-19.8738937535
-23.1252492621
-23.1703746268
-20.0407727439
-23.2900889525
1816.78545686
1817.10098773
592.109339038
592.118192431
1816.76050493
594.665182322
1816.90924768
1816.87368307
1816.34972647
592.894300686
592.491852214
1817.02575435
593.865621332
1817.26557869
1817.08434933
1816.11754627
591.735719071
592.456834283
1817.20015733
594.411579944
1816.61791331
1817.05397005
594.591709876
591.827121552
1817.36522172
592.117573082
594.492962438
1817.16134546
1817.27859826
592.548710239
593.248744135
1817.46807999
592.472254179
1817.32490548
594.553220846
-20.5696780409
-23.3357933131
-20.4023473563
-20.2856708681
-23.3571246088
-23.3276572482
-20.1850603008
-23.0907801302
-23.2080484682
-20.342468421
-23.1135162598
-20.3620551132
-23.1677674688
1817.08158698
1816.43645424
593.194046523
593.576108692
1817.0280027
1816.8261066
594.892450227
1816.63475534
1816.15020453
592.732542242
592.195177745
1817.22018466
1816.80373729
593.022393803
593.041097805
594.747711642
1817.12641506
1817.1960116
592.94025781
1817.25966529
594.293382001
1816.85469913
593.59987839
592.653557669
1817.23743351
591.965010689
1816.96739708
594.073566949
1816.9413191
1816.39429209
592.160249517
591.63582194
1817.14785026
1816.69303818
593.472543325
1816.96526947
1817.19020894
591.616398081
593.648281926
592.602915754
1817.19209879
593.782193685
591.206573559
593.495737828
1817.00149809
1816.90214938
591.958647614
1816.74360924
593.11927655
7333.81837453
3655.8401836
-19.9675228454
-26.9273063725
3654.62242423
592.063999275
3656.38631013
3656.58960029
595.151315117
592.65561218
594.348575015
3657.49517092
3658.23953512
592.456480246
593.703048787
-20.4306464527
-20.4996250006
-20.2853442232
-23.2345421723
-23.1325160464
-23.1716698874
-20.305131946
-20.3759047699
1817.07612116
1816.60107031
592.432540596
591.895052443
1817.45733702
594.556239873
1817.02731093
1817.70936287
1817.14178171
593.996733063
593.638789852
1817.142566
1817.4646429
596.796619328
1816.25810412
1816.70563148
591.189317348
590.160598774
1816.63929337
591.652043502
1816.30798565
1817.29980149
1817.31316486
592.998766181
592.375258915
1817.04899998
594.98061784
1817.31148246
1816.27669501
1816.7078164
590.361947099
590.007349954
1816.44767903
591.418068451
1816.40570685
1817.15151175
1817.28321749
592.459838095
591.435836481
1816.92185449
594.167315856
1817.03213872
3654.58844922
3654.93787399
3653.42270481
3652.91187529
-20.4080937567
-20.38123772
-20.3526990744
-20.4734034394
-20.3599145955
-26.9953667966
-26.9858793353
-26.962150314
-26.9631250878
-27.0019058016
-26.9941239002
3659.8808469
3659.74099363
593.886127696
593.196630128
3659.09588314
594.059826117
3657.26530217
3657.79811397
593.810969704
593.902885877
3653.95991633
3655.56189273
3657.71796945
592.875344164
593.006241233
593.401288111
594.868012295
3658.5951512
3658.4222003
593.637271972
592.808439884
592.873704042
594.631773335
3655.7453017
3656.15513401
593.927287434
591.302598128
595.290300422
3651.61924612
3656.19198037
3656.4309996
594.657547349
592.793046153
592.156398035
594.002222125
594.613276543
593.695076418
-20.2461081782
-20.1165489342
-20.3051350204
-23.3048311205
-23.4532811273
-23.2868618735
-23.3145634161
-23.4135562272
-23.3072698873
-23.2705332372
-23.2247715547
-20.0234642135
-20.1409103812
-20.5793142047
-20.5036037723
-20.285707291
-23.2294428134
-23.3426830559
-23.2191501463
-23.3051028128
-20.2025731595
-20.4395725117
-20.3099879343
-23.3163230233
-23.2412101668
-23.2597772807
-23.2797972394
-20.6195959918
-20.3558007268
-23.2404003406
-23.2753913099
-23.3559878782
-20.2706921837
-20.5780770463
-20.6174369562
-23.4126701264
-23.2871866459
-23.315441222
-23.3785934258
1818.81780215
1820.06737695
592.477907368
592.378255735
1820.1579948
593.983342115
1818.70794496
1818.5308601
1819.36180018
592.486192417
592.681915318
1820.03273329
1818.47203876
593.692068513
1821.07082517
1819.5973207
592.983177363
593.141380095
1819.96357744
1820.12511677
594.792267346
1818.07764936
1818.7282762
592.988199861
592.876777049
1818.01032329
1818.93997854
594.548119596
1817.73385071
1819.06023625
592.19470734
592.70163879
1818.79923508
1817.97077767
593.579607075
1820.21055371
1818.3426944
591.522433656
591.980311123
1819.49451882
1818.5768398
593.020907252
1819.73394215
1821.25198599
593.109484645
592.979544704
1820.00344432
1820.85795218
594.126877679
1819.76495836
1818.73364334
592.539267563
592.443685411
1818.99435293
1819.25617881
593.466858235
1819.37050364
1819.60887428
593.154453319
593.28008042
1819.75682036
1819.10097465
593.793874317
1820.34521097
1820.70606307
592.801621368
592.903198735
1821.20407624
1820.02574838
594.395857824
1819.38313667
1818.10701262
593.068079378
592.743954011
1819.93590337
594.444804562
1818.26190766
1819.21618588
1818.93348179
591.851160572
591.830807138
1819.06183778
1819.02420728
592.981339948
1818.65832013
1819.04729596
592.389213028
592.810587579
1818.94387587
593.326783409
1817.99015451
1818.01701874
1817.83903044
592.983077785
592.643635853
1817.93929231
1817.66925933
594.325177352
1817.00736376
1817.134993
591.689623032
591.118491412
1817.24141573
1817.29426979
592.180204069
1817.89609932
1818.37906621
593.910476917
593.987335049
1818.27350587
1818.21102199
594.244601195
1818.55521599
1817.95063135
593.459410847
593.820001727
1818.10831008
1818.08715251
595.458085369
1817.50652428
1817.08505509
592.415035841
592.356426885
1817.60201947
593.479282136
1817.29373142
1818.1436382
1817.74964151
591.734258422
591.344065262
1818.26579266
1817.83906769
593.190347308
1818.03564895
1818.03669213
592.565501506
592.853130006
1818.14754183
593.485153797
1818.09235803
1817.50056951
1816.92632626
592.784755846
592.742101381
1816.98146976
1817.05500145
595.762571909
1816.31669035
591.781830368
1816.51798985
17126.2614966
17128.3821571
17131.6163434
17144.030385
17155.3003347
17170.4942787
12227.5442841
12229.3161765
12232.0177464
12242.5061669
12252.4108214
12266.3654349
18345.4358945
18347.4357151
17128.1074228
17131.0445237
17136.0320501
17143.5154296
17154.9046963
17170.1507226
18345.3709465
18346.4299301
17127.2892097
17130.9048389
17136.0834006
17143.6075263
17154.9878652
17170.2171435
17124.1336763
17123.941519
17126.8391162
17130.7930487
17136.0860153
17143.6344867
17155.0213553
17170.2600591
17124.837971
17126.5935412
17128.2417433
17131.348945
17136.3370756
17143.7744564
17155.1127966
17170.3368394
17136.5431684
17143.9180558
17155.2173201
17170.4233004
13445.7489036
13446.500915
12228.969154
12231.2605637
12235.5343819
12241.9536721
12252.0128429
12266.0281095
13444.3220518
13444.8643029
12228.3092303
12231.2216074
12235.6485611
12242.110062
12252.1474215
12266.1206246
12225.2344891
12225.1339519
12227.7639482
12231.1689074
12235.6689364
12242.116067
12252.1513534
12266.157542
12225.7685309
12227.6623453
12229.0778473
12231.7177528
12235.9405025
12242.2707708
12252.2436293
12266.2325215
12236.1571007
12242.4109116
12252.3441055
12266.3134627
8545.42200349
8545.56848419
7328.17894787
7329.94142924
7332.8972987
7337.33050595
7344.12438206
7354.88164255
8544.15201664
8543.76673806
7327.75019681
7330.05755992
7333.15662985
7337.4326357
7344.29280118
7355.01002928
7325.99569136
7326.24166598
7328.01293417
7330.31221865
7333.23056307
7337.38876405
7344.23222227
7355.04675441
7325.30310585
7326.77388441
7328.08275953
7329.08009405
7330.83265684
7333.56104468
7337.59991443
7344.32657274
7355.1167328
7328.34631847
7329.46000805
7331.15804334
7333.76113732
7337.69760494
7344.39813873
7355.17992764
7337.73562955
7344.43144366
7355.18173275
3648.89004723
3650.9237267
3653.6962701
3655.490429
3656.18053408
3657.44436228
3659.87261277
3663.78765654
3643.99055412
3649.56128298
3650.56889302
3653.79255217
3655.03372266
3655.88163083
3657.08629774
3659.75478912
3663.83437297
3650.23702914
3652.33850741
3652.97886869
3653.04760419
3653.83294033
3654.78730243
3655.77389206
3657.09161285
3659.38069253
3663.71358185
3652.59480272
3652.98850294
3653.36987505
3654.08479106
3654.96665905
3656.0065762
3657.362297
3659.52340786
3663.81446349
3653.65431663
3654.17771703
3654.97979649
3655.96699708
3657.38047638
3659.57570424
3663.84208002
3657.24962212
3659.50552892
3663.76010496
-20.5173472313
-20.3985867615
-20.0217504618
-20.5457014799
-20.4223695445
-20.5007451388
-20.445579713
-20.5113373581
-20.0569082927
-19.9410136639
-20.3816105169
-20.4323791442
-20.4085702172
-20.2750647893
-20.0470473429
-20.0384801336
-20.3412749711
-20.4366899419
-19.9657167181
-20.1858472324
-20.1276420256
-20.1393642445
-20.1529202642
-20.1478585981
-20.0977502234
-20.0825532902
-20.1678492559
-20.3529184161
-20.0431803949
-20.2693980997
-20.0846162577
-20.0876808005
-20.1902171591
-20.1771590811
-20.1827123829
-20.2757447856
-20.4467307054
-20.1158017945
-20.1370116816
-20.2728975911
-20.1383864703
-20.1727366984
-20.31622224
-20.4977599063
-20.164105724
-20.3273997202
-20.5013477664
-26.9380624103
-26.9156225883
-26.9365471252
-26.9532857461
-26.9273973311
-26.9382460884
-26.9238151078
-26.9101476228
-26.8713814997
-26.8609316955
-26.9479474039
-26.9483838729
-26.9660287146
-26.9586015754
-26.9498887768
-26.9684199405
-26.9550951888
-26.8940050876
-26.8684436808
-26.8582645117
-26.9471792882
-26.9710100511
-26.9747021801
-26.9681923904
-26.946755371
-26.9391071618
-26.9192697757
-26.8840164162
-26.863216306
-26.8423475976
-26.9850321036
-26.9688935719
-26.9627634662
-26.9264134145
-26.910910894
-26.8943233214
-26.8737303204
-26.8510822001
-26.8453490297
-26.9568036774
-26.9201140312
-26.9311654599
-26.9232652562
-26.888037268
-26.862467472
-26.8588431099
-26.9084910353
-26.8695292542
-26.8743540739
18346.6349365
18346.1670424
18347.0878262
15896.6868478
15898.2660157
15897.1581041
15899.0461011
18348.4721862
18349.0848522
18349.8207897
15900.0877759
15901.9715773
15901.7101624
15903.2288388
18346.2794929
18349.513883
18347.1250351
15897.7321274
15899.0200953
15901.8892773
15899.5370525
18347.3764035
18350.8006266
18348.4721691
15899.8307383
15901.3510378
15903.7244852
15901.4885161
13446.7231169
13446.2584357
13446.9059129
10997.2577411
11000.2397403
10999.0420235
11001.3616935
13446.6304958
13447.7695116
13447.8880033
11003.6245472
11006.27856
11005.1256621
11007.4612118
13444.8578371
13448.8047205
13446.6116585
11001.289153
11002.6845811
11002.9815648
11001.6905657
13444.8600248
13449.5340868
13447.6105474
11004.8249859
11006.2632632
11006.4561261
11005.1180017
8546.4088496
8546.47873487
8546.91947881
6097.8835569
6101.10312262
6099.68477043
6102.62231871
8544.89849443
8546.58830242
8546.06744169
6105.27399486
6107.88544811
6106.2076597
6108.57483622
8544.60235126
8549.87436374
8548.10367712
6102.18000753
6104.54917401
6100.89321223
6100.81623014
8543.01796003
8549.41524708
8547.52994592
6106.91702706
6108.15927306
6104.91725035
6105.69276271
3644.6009765
3645.12832736
591.947582646
594.995156505
3650.38449544
3649.30605614
3651.17132106
594.10930146
592.823391601
592.360971046
593.240561565
3650.89153566
3651.64531095
3651.85123415
594.464119847
594.828451176
592.694157391
593.277961981
3654.05304408
3654.3567424
3654.41057135
593.791341431
593.484478925
592.409139387
595.321822529
3655.03921158
3655.47396129
3655.08436457
592.877224815
592.869887576
591.383586738
594.852815921
3656.01932598
3656.1393139
3656.21967834
594.047237185
593.044166466
592.165949596
595.014474004
3657.78763455
3657.23014642
3657.94279551
593.729885363
594.237073312
591.695548309
592.060535631
3660.34788711
3660.06711635
3660.64174377
592.92993266
592.398539358
593.462260891
592.490216847
3664.96742262
3663.91895779
3665.17935032
594.089099289
591.493087488
591.784035071
589.340592619
3655.43145838
3653.45031425
594.026620518
593.469453795
593.762886427
595.604533227
3647.11604344
3652.01739395
3650.98258859
593.505579439
592.084771718
592.508948684
595.315238512
3650.2864124
3651.59165347
3651.7674249
593.928010041
592.937581747
592.545131396
595.019754998
3650.72082124
3652.21748361
3652.30359744
593.562647059
592.77422624
592.382033633
595.028218339
3653.76946974
3654.20983965
3654.18494813
593.922884253
591.244476633
592.334419915
595.008214343
3654.62624487
3655.34064027
3655.17590564
595.462116822
591.914460078
592.519653744
595.12444057
3655.72325542
3656.24122997
3656.39157211
595.594482618
591.58152757
592.566495565
595.147690344
3657.60300176
3657.51321479
3657.93660376
595.661669761
592.659649184
592.445420601
595.165541296
3660.56578839
3659.64380826
3660.60017719
592.565517765
592.30682665
592.392900478
595.192791114
3665.19790593
3663.88260636
3665.19214243
592.531976558
590.423389629
592.418415224
591.753771156
3649.23702416
3656.06037699
3655.15747643
593.867537727
591.822745786
594.140479174
595.459035457
3652.0506977
3654.27496343
3653.43334647
594.835247321
592.063991823
592.751670844
595.375487972
3652.1716065
3654.41495663
3653.51367822
594.886334798
592.20992571
592.982688828
595.348024042
3652.47156757
3654.16246279
3653.70008416
595.038296895
592.305743895
592.575074439
595.194249207
3653.57454389
3654.69973609
3654.57378033
595.069152891
592.613467473
592.783606637
595.096149718
3654.53152937
3655.44245884
3655.35611457
595.021679148
592.750373724
592.708999577
594.978742223
3655.73089388
3656.32631534
3656.41614227
595.131165461
592.782039195
592.831537836
594.990444917
3657.43374394
3657.63086664
3657.98878228
595.124931592
592.58019071
592.938219703
594.993948584
3660.25684825
3659.77459671
3660.72019537
595.082260211
592.608117583
593.081793874
595.409952395
3664.98813631
3663.99792126
3665.38719195
595.413706201
592.46062716
593.312283317
592.956967562
592.574917599
592.341776514
3652.26631824
3654.0047639
594.915308313
592.267239295
596.329942475
3652.61573169
3654.90617178
3654.24874097
594.515572697
592.613321545
591.991863433
594.179606779
3653.15785408
3654.80910742
3654.50660906
595.333996268
592.763703457
593.086445571
595.581033241
3653.9987282
3654.97130428
3654.90080018
594.844525555
592.885871523
592.09744897
595.169319453
3654.88747977
3655.52734313
3655.5308921
594.832265819
592.844404838
592.422931309
594.963999152
3656.06861617
3656.36885904
3656.50199609
594.888790442
592.967644614
592.531979997
594.93532993
3657.67061495
3657.64629938
3658.01952628
594.884443828
593.057382737
592.706533406
594.834982856
3660.40439246
3659.76081067
3660.74464762
594.841052905
593.339899118
592.865079065
595.235793476
3665.12808321
3663.99676727
3665.4024873
595.487398321
593.056225802
593.193979554
592.869572809
3653.5752825
3654.57849514
593.73971231
592.35694462
593.689190668
3654.2024859
3655.03393237
3654.90246586
595.440177982
592.704741474
593.303913354
593.208746278
3655.01876528
3655.4999631
3655.55966982
595.135718492
592.843074959
593.436075686
593.893585009
3656.13838213
3656.28211578
3656.36471868
595.326340285
592.807954128
592.723247707
595.465470689
3657.74532279
3657.43187873
3657.96676986
594.940890092
593.002792153
591.735286157
595.111244257
3660.45825095
3659.6029931
3660.69849962
594.803504338
593.209767502
591.784864124
594.654199456
3665.14743993
3663.86638865
3665.31709586
595.408364841
592.872476913
592.327778835
591.660629641
3655.86935699
591.115165394
3657.46387619
595.619765219
591.129775641
3660.31823978
594.81313378
591.952558799
3664.95307536
594.471032295
590.98854841
-23.2447894629
-23.1910941861
-23.1561622132
-23.1014983918
-20.217925707
-20.1372675695
-23.2663542403
-23.2435906835
-23.139835798
-23.2796108026
-20.4966560984
-20.2373581661
-20.4135109999
-23.3090485189
-23.2614373681
-23.1549907656
-23.1672242454
-20.2699122732
-20.4577590139
-20.4992044639
-23.2728964371
-23.2397218782
-23.1546934353
-23.172977015
-20.1796043914
-20.6631011509
-20.4415321524
-23.226406369
-23.1669832577
-23.2054981781
-23.2409491178
-20.6205789558
-20.570498066
-20.418388167
-23.2023623324
-23.2076034965
-23.2290640067
-23.2429851784
-20.4169294975
-20.4049037489
-20.3432880423
-23.223701306
-23.2027651995
-23.1815639336
-23.1940155345
-20.4580658147
-20.3482839915
-20.4370358038
-23.1943272238
-23.1477168132
-23.1387181678
-23.1501435166
-20.4638011783
-20.4489471379
-20.5109850494
-23.1300964785
-23.110647206
-23.136384864
-23.0985899675
-20.208632628
-20.4768833372
-20.4412356303
-23.0878352691
-23.0990684848
-23.0685797751
-23.0559020893
-20.0968764608
-20.3359349175
-20.2676227027
-23.205185764
-23.1737259372
-23.1827853881
-23.2427000471
-20.2269796313
-20.3609912276
-20.2126243734
-23.1934690363
-23.159332757
-23.177737751
-23.2845543571
-20.4493454312
-20.3965478579
-20.353430543
-23.2340108742
-23.1875731098
-23.2112309011
-23.2921662422
-20.4729479945
-20.4399987867
-20.3718548553
-23.2099281201
-23.1896883728
-23.2297478862
-23.2960737271
-20.5258083266
-20.4645568827
-20.3012200689
-23.2293446731
-23.2036989015
-23.2522750884
-23.3058732009
-20.3114055125
-20.4529142839
-20.3084954656
-23.3116024542
-23.1779762494
-23.2463124531
-23.2892327106
-20.2328391038
-20.386259144
-20.2474488067
-23.2525653255
-23.1355861678
-23.2073003343
-23.2498527544
-20.0690782717
-20.3231142716
-20.3069245046
-23.2427578718
-23.1481076294
-23.1716609422
-23.195141977
-20.4193951943
-20.3640015224
-20.4538221289
-23.1078561012
-23.0824709036
-23.1091788759
-23.1280834098
-20.3806130123
-20.4694002861
-20.222510153
-23.0617509234
-23.0424923732
-23.0831579423
-23.0619169475
-20.2696959029
-20.1975711373
-19.9912091236
-23.2487804556
-23.1744047616
-23.3051025528
-23.2402041295
-20.3065417188
-20.3496505282
-20.2396886187
-23.2731903594
-23.2144790645
-23.1994915425
-23.2977843749
-20.3105418041
-20.3552541902
-20.2412972978
-23.3111239355
-23.2090821047
-23.2253554147
-23.2966617036
-20.3086791343
-20.3782625793
-20.2621794517
-23.3170860547
-23.2223239225
-23.2184929466
-23.2909971381
-20.2910183852
-20.3844656122
-20.2942649892
-23.3381908867
-23.231816513
-23.2125557997
-23.2716026523
-20.2386261331
-20.423913481
-20.3127151132
-23.3340538774
-23.1969948516
-23.2110442279
-23.2524983437
-20.1907473283
-20.3807981492
-20.2542201705
-23.2755478981
-23.1644500305
-23.1716600582
-23.2006460475
-20.1874657238
-20.3275900829
-20.2755829116
-23.2165076311
-23.1294556294
-23.1238175266
-23.1402748881
-20.2834311079
-20.3152828656
-20.4315020769
-23.1541382437
-23.1119759363
-23.0813208533
-23.0954377179
-20.0399520525
-20.4622148151
-20.0868412711
-23.0882582433
-23.0097156231
-23.0568265487
-22.9898826513
-20.2536516384
-20.0369914862
-23.2840182359
-23.2291733196
-23.3254070033
-20.3148336929
-20.0909720375
-20.0427011312
-23.3710559649
-23.259205713
-23.3094828101
-23.2966333876
-20.2455060588
-20.3327773352
-20.2206388408
-23.3515188093
-23.2117202313
-23.238560694
-23.2781720087
-20.273629849
-20.2746403326
-20.1604177008
-23.3012002781
-23.1683546457
-23.2017759551
-23.2204737419
-20.3069684003
-20.3043285012
-20.2009826499
-23.2716889108
-23.1616432144
-23.1813521244
-23.2110113294
-20.2691947046
-20.2596494008
-20.1506665035
-23.2071517347
-23.1246429993
-23.1480292065
-23.1656330524
-20.2660777291
-20.2296099173
-20.2097555078
-23.1610739363
-23.0852364367
-23.1208807374
-23.1229572435
-20.3473321749
-20.2495022026
-20.3628859286
-23.1173095814
-23.0767594279
-23.0879944824
-23.0914079087
-19.9801692923
-20.4220591701
-20.0264336437
-23.066272017
-22.9726991971
-23.051386851
-23.0098262641
-20.3357049086
-20.1703092673
-23.3359531283
-23.2425060761
-23.3144250901
-23.2886305302
-20.2904952652
-20.032173954
-20.0867887352
-23.3079005438
-23.1631123366
-23.2326546227
-23.1512282141
-20.3320140971
-20.3685176002
-20.1878591832
-23.2471395311
-23.1521816103
-23.1419781699
-23.1716182659
-20.2940675946
-20.2560859416
-20.0463749442
-23.2172781434
-23.1200769258
-23.1371768796
-23.1977919819
-20.3061549768
-20.15483785
-20.1489842719
-23.2215056884
-23.1008550163
-23.1535885186
-23.156025534
-20.3974825422
-20.1797733602
-20.3512201132
-23.1717578437
-23.083306254
-23.1310116543
-23.1167838793
-20.1027763292
-20.4114414083
-20.2715249849
-23.0983812431
-23.000977767
-23.0975277893
-23.0504119925
-20.2403846528
-23.1407181856
-20.274647066
-23.2635417881
-23.1268882948
-23.1131526146
-23.1265266463
-20.361357206
-23.2046430444
-23.1028434847
-23.110705821
-23.1200360905
-20.4359569746
-23.0974913629
-23.0818437869
-23.0862407017
-23.0803623241
1809.4707261
1811.43736859
590.598314593
591.018869275
1811.50633767
590.948564467
1809.24180461
1810.95770747
1812.30047116
594.289512745
594.058830412
1812.34067004
1811.99385046
595.007571536
1813.95693554
1813.90500688
592.612585309
593.239024596
1814.10897726
594.133228119
1813.71870669
1815.21712326
1815.04115567
592.322998765
592.159512543
1815.26153024
593.146534278
1815.17259955
1814.48972675
1814.32185652
591.055121158
592.101239157
1813.6386214
1814.65930152
592.985839571
1815.37945904
1815.64483796
592.556261484
592.052453422
1815.48438175
1815.58532324
592.785768433
1816.34646538
1816.16384478
592.714683747
593.061458589
1816.20177891
594.346178855
1816.26189535
1816.91851535
1816.88787849
592.775984914
592.859086409
1816.79330684
593.704972916
1817.13218949
1816.14618085
1816.16473175
591.479369068
591.984916936
1815.81228712
1816.01551953
592.823436727
1816.85929695
1816.84816262
592.250402801
591.773965173
1816.53457501
1816.62223978
593.262488402
1817.08715954
1816.64163137
592.749863508
593.012810103
1816.90241775
594.995405422
1816.69952567
1816.51230417
1816.62975786
591.469110366
591.439527012
1816.26428408
592.393054194
1816.53781276
1816.23859039
1816.51371795
591.527867513
590.476705576
1816.33000529
1816.05534961
591.994549317
1817.18120751
1816.60226222
592.599714898
592.685123037
1816.65330073
1816.98772091
594.395418378
1816.53308476
1816.71114141
590.892542098
591.54540708
1816.6372811
593.551648724
1816.30277725
1816.8484155
1816.52745352
591.839360883
591.151411461
1816.39067968
593.838384595
1816.88483908
1816.20582954
1815.84405925
590.85712266
590.012381308
1816.46168437
1815.90706088
592.861008785
1816.55315739
1816.48762582
591.667006225
592.220418004
1816.33640665
1816.82066677
593.291310357
1816.95198077
1817.12194833
591.867086473
591.648351218
1816.91025324
594.554901107
1816.78626746
1816.62694004
1816.52577427
590.873316852
590.549047609
1816.16984084
593.377288287
1816.59040195
1816.29790262
1816.01729645
590.93852884
589.846833211
1816.48064812
1816.09035621
592.95703793
1816.49839704
1816.71913536
591.813290714
591.798887166
1816.37493702
1816.81156524
593.361465515
1816.90196273
1816.93051733
590.554351443
591.52468748
1816.72418067
593.919410098
1816.56702272
1816.83114228
1816.54503624
590.906803154
591.2121158
1816.42287205
593.403444024
1816.93168391
1816.31832269
1815.95115924
589.771837683
588.939074635
1816.04237503
1815.5714049
592.312176537
1816.43439428
1816.2374403
589.568192804
591.922595661
1815.82220181
1816.47639031
592.902328594
1816.35437375
1816.40701106
589.587031909
589.542585425
1816.33337967
592.985429579
1816.18054124
1816.54653939
1815.7270182
589.886844662
588.572272216
1815.56573305
593.069794617
1816.73321892
1816.74781762
1817.20049957
590.741937129
590.378302952
1816.66240208
1816.34449483
593.510494634
1816.54224926
1816.31661683
590.304188037
589.750187377
1815.89680999
1816.23618872
592.187881924
1816.2873086
1816.68632167
586.920343462
590.397868109
1816.65688966
593.276212912
1815.40195577
1816.07500108
1813.1074909
589.293251867
586.81602477
592.747651112
1813.87572153
1816.18495118
1815.88938134
1816.45275822
588.249428046
588.866445705
1815.92974461
1815.28980165
592.591567837
1815.58607844
1812.91846729
585.080031752
587.256696902
1814.94918939
591.449047613
1812.51300168
1816.28019817
1815.9786622
592.697208642
592.658481832
1814.3238694
595.14147605
1816.79690159
1815.6383522
1812.86388918
592.847517742
592.879505125
1813.54749131
1814.94679694
594.093998858
1816.3630505
1818.07891322
591.656172776
591.534822761
1817.36963875
593.034600775
1817.02863498
1816.23425795
1817.00009828
592.739624301
592.790708883
1815.58531088
1817.37522722
594.134436839
1814.75934836
1813.31582012
593.576958736
593.148778619
1813.38812955
1815.66689377
594.879276949
1815.30197922
1813.67565259
590.911378417
591.856456567
1813.46854731
1814.77171378
593.412984945
1814.98817882
1816.34569315
591.910280136
591.363511036
1815.61299805
1815.92138946
593.085348273
1815.34707905
1815.766105
592.912337058
593.05822967
1815.17957568
1816.54792367
593.47131586
1815.58486463
1815.29448533
592.822026738
592.719108569
1815.21639169
1815.91552312
594.128392543
1816.27933715
1815.79597634
592.543217191
592.472652521
1815.92083852
1816.04921014
593.6646416
1815.5679496
1815.97158399
591.787837783
591.283043911
1815.884079
1815.88874598
593.050847846
1816.07377655
1816.40809723
592.642416807
592.839227863
1816.18084466
1816.62852407
593.274149137
1816.37080744
1816.40749987
592.743185381
592.514100416
1816.17458841
1816.62841915
594.191881572
1816.90076734
1816.63608168
592.374793351
592.251398413
1816.75134723
1817.03032849
593.44573609
1816.22831636
1816.20450129
591.917726078
591.125452783
1816.59679615
1816.32193457
592.908275749
1816.75242091
1816.76620965
592.487078593
592.700367288
1816.6927862
1817.00176468
593.593857432
1816.83759261
1816.98081769
592.594351307
592.431720656
1816.64392512
1816.86491736
594.893569983
1816.36885946
1815.57625347
591.535031573
590.770776509
1816.55023227
1816.0202449
592.902178293
1816.35671236
1816.13909119
591.749860141
590.933364181
1816.73432826
1816.31873203
592.951558548
1816.63284556
1816.48586776
592.400623388
592.582883431
1816.44350639
1816.85188241
593.89725467
1817.31125413
1816.89728324
593.23155073
593.271033457
1816.78630717
1817.13031461
596.453392297
1816.38488298
1815.64909461
591.15879124
590.273500365
1816.53613872
1816.016627
592.934818866
1816.51211305
1816.23104979
591.221409257
590.3481285
1816.6552333
1816.31677216
593.101096457
1816.73608216
1816.67386261
591.969320982
592.084387779
1816.59035159
1816.91313533
594.194551098
1817.76429129
1817.0962763
593.003315229
593.009482322
1816.97540829
1817.35061007
596.921999432
1816.39116291
1815.73737163
590.665770033
589.935832835
1816.38163169
1816.01542037
592.9845813
1816.55388034
1816.2798461
590.771672721
589.843348535
1816.75186144
1816.25252303
593.1917251
1816.816308
1816.65893991
591.587802474
591.621707569
1816.64726725
1816.92797739
594.326004138
1818.06838054
1817.26516082
593.783844809
592.981406673
1817.1715073
1817.44879775
596.793740803
1816.28766937
1816.30494745
589.302670698
589.498059481
1815.90125238
1815.89301543
592.215340423
1816.44880601
1816.20339478
590.465386298
589.236760211
1816.73925924
1816.12632881
592.556690603
1816.71364449
1816.77238598
591.108632184
591.021041309
1816.46112167
1816.82449876
594.105777774
1816.93254049
1816.70356237
590.491046306
591.083111971
1816.38454436
1817.01553701
593.970628816
1816.64231497
1816.3171774
590.074531633
589.32821646
1816.30254611
1815.88057307
593.012934435
1816.3344436
1816.15708377
589.518149139
587.9846344
1816.3682009
1815.72299168
592.950021765
1816.46239293
1816.58161978
589.469423422
589.95203917
1816.03720932
1816.61790646
593.088897773
1815.96120262
1816.67953667
588.312770679
589.172586831
1815.29528797
1816.42844489
593.013934897
1816.20567758
1813.70281369
588.736388074
585.398299485
1815.61902001
593.644909931
1813.45361653
1816.02476982
1815.98997143
588.365071434
585.209251972
1816.25668551
1814.78743535
594.204090053
1815.48154376
1812.31271518
584.570052739
587.491966362
1815.64695313
592.247354268
1813.21855123
1817.49842307
1816.85520773
592.569332439
593.000809261
1816.53566176
595.487186734
1817.31324103
1817.32800053
1815.23352332
591.551175888
591.450021509
1816.2365495
1816.19208463
593.676031466
1818.27402521
1817.96794135
593.054448226
592.687669243
1818.05875826
594.261632116
1818.25708362
1817.89929047
1818.00532155
592.547661042
592.62653298
1817.55496462
1818.0460125
594.00983505
1816.56724245
1816.0526717
592.787422722
593.039149925
1815.91272006
1816.57054595
595.846943197
1816.11872918
1814.92135636
591.615226788
591.080288616
1815.87508451
1815.78849444
593.222421614
1816.80314093
1817.07331127
591.741016485
591.438186476
1817.3080608
1816.87963545
593.286439594
1816.84328806
1816.82606264
592.681917485
592.937901161
1816.6401436
1817.25921443
594.250190835
1816.61022142
1816.02570102
593.326032519
593.377939465
1816.0576242
1816.56283953
596.412018267
1815.9785189
1815.31972419
591.411230638
591.00064393
1815.98838516
1815.8025216
592.988778183
1816.47323563
1816.51717521
591.573679031
591.142372424
1816.77759402
1816.50241265
593.320366742
1816.5897394
1816.53403171
592.415878968
592.497993177
1816.43699621
1816.90355325
594.343956723