/*--------------------------------*- C++ -*----------------------------------*\
| =========                 |                                                 |
| \\      /  F ield         | OpenFOAM: The Open Source CFD Toolbox           |
|  \\    /   O peration     | Version:  v1906                                 |
|   \\  /    A nd           | Web:      www.OpenFOAM.com                      |
|    \\/     M anipulation  |                                                 |
\*---------------------------------------------------------------------------*/
FoamFile
{
    version     2.0;
    format      ascii;
    class       volVectorField;
    location    "0.05";
    object      U;
}
// * * * * * * * * * * * * * * * * * * * * * * * * * * * * * * * * * * * * * //

dimensions      [0 1 -1 0 0 0 0];


internalField   nonuniform List<vector> 
28582
(
(0.800709476765 -5.78660620733e-05 -0.000158011970797)
(0.801068539544 -3.71703045951e-05 -0.000224706209606)
(0.800601319365 -4.79126244068e-05 -0.000456738964831)
(0.800910586787 -2.98635756998e-05 -0.000642978945458)
(0.800410212704 -2.14785337558e-05 -0.000635511893839)
(0.800613727803 -8.49796281209e-06 -0.000955956180457)
(0.80016563553 4.70319506432e-05 -0.00163333636688)
(0.800182901672 7.47838994095e-05 -0.0017322633312)
(0.228981350149 0.00678947284264 -0.0120209037111)
(0.179817915214 -0.0165327259607 0.00826411616505)
(-0.00154217166435 -0.00116642330533 0.0244073955825)
(0.800158178359 9.46238245156e-05 -0.00102717921774)
(0.801697244913 0.00166817227187 -0.000715997322927)
(0.796861730698 0.00244217502196 -0.00122335355298)
(0.800284093976 0.00010486730755 -0.00112597108895)
(0.800409827836 -6.23116450174e-05 -0.000755407557613)
(0.801155841454 0.00352947170941 -0.00200338187313)
(0.800387830889 -7.85258063253e-06 -0.00117383400301)
(0.800119591772 -9.34967685515e-05 -0.000779289963881)
(0.800433417569 -0.000178498274357 -0.000128521028634)
(0.801588335111 -2.44889676598e-05 -0.000316307825587)
(0.802340223351 -1.52302290353e-05 -0.000444763715621)
(0.800393041407 -0.000173671784866 -0.000379365673625)
(0.801368620869 -1.1342371407e-05 -0.000911889592681)
(0.802044991003 -7.86899187592e-06 -0.00129906255726)
(0.800271666508 -0.000113947437131 -0.000490986775002)
(0.800932589872 1.91030117424e-05 -0.00136743922083)
(0.800062075722 2.54909981255e-05 -0.00239952649506)
(0.800330680297 8.62441957873e-05 -0.00189700978662)
(0.275355267329 -0.0196245681838 -0.000934332721188)
(-0.00037253215444 0.00145148718767 0.00104970685708)
(0.00164391811363 -0.000721252334122 0.00786628116666)
(0.800040184317 0.000119337978125 -0.001297056191)
(0.800228486015 -0.000181191781419 0.000923611925472)
(0.80297528134 0.00310896587568 -0.00156840893274)
(0.797336206628 0.00161523055119 -0.0012334899755)
(0.800026900007 0.000255063967278 0.000374018950438)
(0.80049074936 4.86554053659e-05 -0.00129002149451)
(0.800408342604 -9.76539406117e-05 -0.00167240689572)
(0.800517850545 -4.42212701226e-05 -0.00149607050116)
(0.800193253889 -0.000113749656964 -0.00106606724679)
(0.797983093051 0.00145234228161 -0.00181350858394)
(0.799935651519 -0.000226745721929 -0.00141719467401)
(0.800135957107 8.33550978909e-05 -0.00265631482467)
(0.317036670956 0.00561254744705 -0.00853534782797)
(0.176326559895 -0.0293147614525 0.0191147339821)
(-0.00763122182571 -0.0112429218108 0.0103016017136)
(-0.00483578740903 -0.00419530188493 0.0721656538938)
(0.29894498818 -0.00766090253954 -1.77096427252e-05)
(-0.0145091517289 -0.00116037587473 0.0623390263771)
(0.800365998712 0.000350287346947 -0.00173938909576)
(0.799930949233 -0.000374673807041 -0.000855922937466)
(0.802019912858 -0.000497438575995 -0.000103387331834)
(0.800466766518 0.00081590640327 0.000161249336958)
(0.800117994993 -0.000120223366259 -0.000491608688777)
(0.798564583945 -0.00153745329343 -0.000737113871978)
(0.80026210185 0.000117848346662 -0.000804153776187)
(0.800194792776 -0.0003693267577 -0.00132258735883)
(0.799669782858 0.000536212143635 -0.00166988649235)
(0.798415365428 -0.00123633860381 0.000915833097911)
(0.802227549616 0.00175698713983 0.000204202669055)
(0.800382214059 5.84579398104e-05 -3.11169321534e-05)
(0.800964214971 -0.00243822305556 -0.0011120677687)
(0.79974808549 0.000183141906609 -0.000208003929702)
(0.799813351322 -0.000234635920096 -0.001193407218)
(0.800377892371 0.000638430715433 -0.00300035055402)
(0.802733552397 -0.000344071106847 -0.000374835076228)
(0.79902355624 0.00261164559793 0.000721711433937)
(0.800089947925 0.000204120072765 -2.86295470142e-05)
(0.798086011849 -0.00103750124808 -0.000876246638927)
(0.800506342603 0.000255430422217 -0.00121245368953)
(0.799929951189 0.000399961169983 -0.00138199730989)
(0.79833045767 0.00162265997805 -0.000957628597192)
(0.801340322179 0.000721460897538 -0.000690436121845)
(0.800156927119 -0.000273480275718 -0.00169065755444)
(0.799811516491 -0.000745387992887 0.000336746573034)
(0.800176312421 -0.00153893214725 -0.00111440139205)
(0.800036453865 0.000156168286357 -0.000749826623202)
(0.800079908305 -3.22588705613e-05 -0.00146263493971)
(0.800176974668 -0.000180146385731 -0.000218262631905)
(0.799340947893 1.06841905042e-05 -0.000950083370034)
(0.800279314463 6.92654670783e-05 -0.00138411732359)
(0.800068704867 0.00101129048907 -0.000247223570218)
(0.800243446362 0.000137032653887 -0.000849369815199)
(0.80143308148 0.000886789061882 -0.000768450116771)
(0.292730263755 0.01542391698 -0.00691725267606)
(-0.0037649703914 0.00372368507448 -0.050044537101)
(0.383287918919 0.0173509744287 -0.00883894133605)
(0.241498040481 0.0277817795498 -0.000943623103106)
(0.00729235888082 -0.00423356427375 -0.0391765799571)
(-0.00640135816214 -0.00166492074306 0.00363470369168)
(0.06549372626 -0.0361433416633 0.0146695465202)
(0.00109816128661 -0.0241528215186 0.0258010912596)
(-0.000690747349137 -0.0111767784795 0.0372638034064)
(0.0966631594279 -0.023475514012 0.00498748098127)
(0.0102291008776 -0.0168064521792 -0.0276157323277)
(0.1543401842 0.000545730035982 -0.00321185791777)
(0.00498210450837 -0.00791722416513 0.0074647600051)
(0.799864562577 -0.00060132615251 -0.000269599299202)
(0.800394317646 0.000662519972744 -0.00318349742387)
(0.803105150621 -8.73131870936e-05 -1.93329147077e-05)
(0.801373110747 0.000974447157612 0.000805450275487)
(0.800318154702 0.000356422735591 -0.00119446241305)
(0.800190895886 -0.000334916244376 0.000248073347752)
(0.798037715569 -0.00159376407781 -0.000346433401437)
(0.800074407549 -0.00054533535264 -0.00108831082765)
(0.799746351367 0.000646237442754 -0.00191394402491)
(0.798118011291 -0.00133711436096 0.000541229029642)
(0.801746568495 0.00158815659688 2.85215668494e-06)
(0.799761595898 0.000321901185447 -0.000879382760365)
(0.800270715243 -0.000201378352441 -4.54298714707e-05)
(0.799930014263 -0.00182936264068 -0.000998583758602)
(0.800592860173 0.000105742159631 0.000319314357201)
(0.798650659558 -0.00152547482087 -0.000290961949942)
(0.800083236677 5.39367609488e-05 9.30541328891e-05)
(0.800189868934 -0.000283802195388 -0.000986122179269)
(0.80117715018 -0.000288525698051 0.00026550226147)
(0.800268106984 -0.00047190163058 -2.51460038219e-05)
(0.801354583324 0.00109087442334 -0.000396122724412)
(0.800361309966 0.0004440016728 -0.00224049199028)
(0.800766435332 0.00210987104572 -0.00134331273847)
(0.800100277249 0.000486891260522 -0.000101277635201)
(0.799977298291 -0.000396226548759 -0.00163902626263)
(0.801558787401 2.9910197695e-06 -0.000358467869361)
(0.800333258818 0.000133631548095 -0.00120912360704)
(0.798592108187 -0.001273399422 -0.00105184237761)
(0.800323635165 -0.000405327545967 -0.00246464394582)
(0.79998501411 0.000388256598149 -0.0022600149544)
(0.798345162558 -0.00110602523643 -0.000152383184141)
(0.801912269634 0.000902488725596 -0.000934325755461)
(0.799947420495 3.91047099497e-05 -0.00120841511877)
(0.800568419712 -0.000137485343972 -0.00177630511892)
(0.800147926865 -0.00174909851044 -0.00147477989089)
(0.80019960464 -8.56807060008e-05 -0.0020901215053)
(0.800221137732 -0.000103654557276 -0.00171331446283)
(0.799020775885 -0.00107790454207 -0.000967243153531)
(0.800037785473 -0.000386379595675 -0.00102492808161)
(0.79972623339 -0.000409650722466 -0.00111877329782)
(0.800034652599 -6.70339244139e-05 -0.00162848695369)
(0.79954502342 -0.000195800334686 -0.00113349744296)
(0.799669607222 0.000204999352464 -0.00142615731013)
(0.799774802854 -0.000487401443623 -0.00155382643863)
(0.800295823561 8.11999283756e-05 -0.00267880546704)
(0.80020796427 -4.73458988059e-05 -0.00190152444487)
(0.800224782564 -0.000709763418065 -0.000985739002375)
(0.800325887499 -0.000214631907971 -0.00152269724738)
(0.800380475294 9.34983753041e-06 -0.00134185610435)
(0.801440941297 3.84197413405e-06 -0.00203523942158)
(0.800598023971 5.72454806025e-05 -0.00271022467876)
(0.430830464613 0.00651484246693 -0.00442365948847)
(-0.00226986659315 0.00476907880797 0.0145658776314)
(0.800220525208 -0.000135892103012 -0.000240724498432)
(0.800408943011 -0.00112004176767 -0.00109869957848)
(0.800616901641 3.19920077153e-05 -0.00261897953361)
(0.800804207261 6.58923400905e-05 -0.0022490073648)
(0.802382290235 0.0032935635371 -0.00177727052765)
(0.800014473892 -3.35015150987e-05 -0.00190139503019)
(0.799032632797 -0.00133642769241 -0.0021135847476)
(0.801001538885 8.20258525707e-05 -0.00353853734792)
(0.801338568322 0.00010829943242 -0.00350296016921)
(0.799948750933 -0.000612957258833 -0.00248266112629)
(0.799441500874 -0.00105644998486 -0.00293583264497)
(0.192869199816 0.0514463104884 -0.00078529531331)
(-0.003169975629 0.0128084483103 -0.00546249087621)
(0.24380001673 0.00117400990793 -0.00274276957543)
(-0.00509303752906 -0.00327575762922 -0.00118054874782)
(0.00801590442277 -0.0320653837058 0.00415816139064)
(-0.00689986523449 -0.0191064756409 -0.0270987493247)
(0.000900312917253 0.0142841907799 0.00651903129499)
(0.122158383455 0.0144861481171 0.00284318136793)
(0.799754340362 -0.000164921214464 -0.00109330740497)
(0.800261264122 9.08270755637e-05 -0.000980898923498)
(0.798768424495 -0.00215003261823 0.000155415152583)
(0.801471761344 0.0013027475123 0.000240764514032)
(0.800043113318 -0.000550134841052 -0.000382961519536)
(0.79807411782 0.000562692934958 -0.000802165343321)
(0.800097418765 0.000384297373055 0.000260443268815)
(0.799891194351 -0.000319651146221 -0.00217960681249)
(0.800561141995 0.000631057058491 -0.00302592964382)
(0.800949668508 0.00178279886503 -7.88820298401e-05)
(0.80089657686 0.000443106069258 -0.000200834262313)
(0.800337037034 0.000259245473434 -0.00157100528698)
(0.800387916479 -0.000123717865929 -0.00177852305658)
(0.797272714715 -0.00260560967228 -0.000815192554101)
(0.800377109011 -9.86172217936e-05 -0.00269869178441)
(0.800431431884 0.000156582328232 -0.00337500550858)
(0.798824874866 -0.00211273221967 -0.00146865320813)
(0.800906541512 0.00115676752944 -0.00179635234112)
(0.800316697033 -0.000333420588729 -0.00239222909237)
(0.800199531524 -0.00141416333555 -0.00226783554349)
(0.800397543163 0.000226457633323 -0.0030570265012)
(0.80046545194 0.000161611527813 -0.0025848884795)
(0.800262107019 9.05961071499e-06 -0.00348602011888)
(0.80005090312 0.000814647542385 -0.00103317706341)
(0.800267307219 0.000401515143256 -0.00144513752286)
(0.80043626941 -3.40405136714e-05 -0.00220950875771)
(0.801796573923 0.00141148130295 -0.00151643067098)
(0.800220350856 0.000259854919947 -0.00341689384404)
(0.800446592201 -0.000117127082983 -0.00402609040297)
(0.800592079051 5.06564906039e-05 -0.00407678603522)
(0.798460806044 -0.00182729648398 -0.00208657044855)
(0.800857596441 0.00109240549546 -0.00235294976386)
(0.800307119829 -0.000278511674003 -0.00345514710607)
(0.799909038152 -0.00133381990209 -0.00281519118672)
(0.800660442466 0.000325248050105 -0.00419849974177)
(0.800643272085 0.000170135377439 -0.0041458624712)
(0.800607504202 0.000117376460185 -0.00497956208726)
(0.799902535941 0.000786617536515 -0.0022500188232)
(0.80021763042 0.000420879778679 -0.0024604149911)
(0.800747851099 4.51175919692e-05 -0.00400441832597)
(0.801372241046 0.00115937528601 -0.00246206755689)
(0.800453232999 0.000331836655419 -0.0049778347353)
(0.799122442108 2.69987803315e-05 0.00256567475273)
(0.800139135773 -0.000169280476007 -0.00169339232905)
(0.799685641394 -0.00030138062526 0.000438321813686)
(0.800194443644 0.000310614794926 -0.00313162396595)
(0.0829004374173 0.00981851493222 0.0078400065369)
(0.242184657904 0.0114669320818 0.000422756061697)
(0.281608705482 0.0215403044301 -0.000896517187207)
(0.398422056374 0.0074948183895 -0.00796974770935)
(0.306720926227 0.0183045694054 -0.00243601237149)
(0.00170026765942 0.00240533248494 -0.0290994717248)
(-0.00567656502939 -0.000482415674791 0.0053855749094)
(0.00105980170477 -0.00341818325964 -0.0274482878927)
(-0.00210818966493 -0.000600429880324 0.0147893405332)
(0.00132684865733 -0.000402532734082 0.0108872905405)
(-0.0012710100827 0.00203679288273 0.00458432575016)
(0.79963912339 -0.00021694725777 -0.00460655950963)
(0.799599787245 0.000108450541248 -0.0034936688758)
(0.798673192576 0.0011005582434 -0.000732755362671)
(0.798051307319 -0.00114809366138 -0.000738474947254)
(0.798386588681 0.000294707127816 0.0038039603813)
(0.800721795947 -0.00180795773002 -0.000284516264132)
(0.799860878552 -0.000261420841804 -0.00472638683951)
(0.799918834364 0.000212489404362 -0.0013086955918)
(0.797667754587 0.00124901091782 -0.00118838997725)
(0.798919980309 -0.000299173692284 -1.0301232757e-05)
(0.799623898285 0.00144314858981 0.00676864854391)
(0.799810375612 0.000634468092983 0.00501637364968)
(0.800112642298 0.00120333429936 0.00276099246056)
(0.799728725372 0.00122086727914 -0.00120833566583)
(0.799218915726 0.000873062260694 0.00019384109906)
(0.79949992087 -2.89927358646e-05 4.81958315008e-05)
(0.798641649555 -0.00116436470842 0.000784372251153)
(0.800233622556 0.00109490518147 0.00115348725591)
(0.800561594866 0.000568515898048 6.91664252578e-05)
(0.800849665066 0.00167593633757 5.01214105835e-05)
(0.798486935326 0.0012194084303 -0.00122101372947)
(0.799439827478 -0.00012500988258 6.17079473872e-05)
(0.798326535822 -0.0011095123683 0.000247726196648)
(0.80002147898 -0.000145747885164 -0.00549570509282)
(0.799981808709 1.24808647041e-05 0.00191094130274)
(0.800823704534 0.000606051803804 -0.000487357653531)
(0.79991728809 -0.000329073354478 -0.0016968864573)
(0.797788207634 -0.0020116695345 0.000463650046682)
(0.800017721614 -0.000309683808178 0.000862079985391)
(0.800080806028 0.000288458145195 0.00542403724416)
(0.800354084623 0.00051440262636 0.00356905285978)
(0.801969049426 0.00214358395768 -0.000534266596081)
(0.798722636882 0.000644377928615 -0.00142662745552)
(0.799404530813 -0.000724820276496 -0.000393125345384)
(0.797804316158 -0.00206311651118 -0.000220923866356)
(0.802114821081 0.00231600176423 -0.000724451127815)
(0.797829384587 0.00165680349095 -0.00181266987234)
(0.159438127068 -0.0276210641235 0.0130047974868)
(0.278097251583 -0.0168845500426 0.00296695438495)
(0.264275172522 -0.0274482938254 0.000143768394676)
(0.0112875580307 -0.017798551443 -0.0297784903755)
(0.00872948076039 -0.0142649183899 -0.092706539971)
(-0.003604546881 -0.0153206599635 -0.0233611068999)
(-0.00197510954285 -0.0166990444309 -0.050191837743)
(-0.00907862092576 8.99337765904e-05 -0.0222203184414)
(-0.0180415863143 0.00334869965023 0.0162594364555)
(0.00507177049657 -0.0140970047264 -0.00183038294323)
(-0.00768959483277 -0.000836023514781 -0.0031635907584)
(0.283133850994 -0.0036182664335 0.00534755562672)
(0.164169269418 0.00707061219045 0.0143985759766)
(0.235477403513 0.00661759952229 -0.00441541030134)
(0.0942086048881 0.00144189292872 0.00288182910667)
(0.304607251726 0.00355928713769 -0.00119220373171)
(0.00181654165827 -0.00844188119539 0.0221971062673)
(0.00998706432207 0.00410915946891 -0.0510108105472)
(0.00707511380998 0.00781897600825 -0.0361599310568)
(0.0120335952046 0.00647267217329 -0.0497571027355)
(0.222976633739 0.01314254269 0.0012989587971)
(0.0187845559215 0.00391425708899 0.00934453224037)
(0.27899919329 -0.00387992106171 -0.000890899046798)
(0.00663359580745 0.00566165853069 0.000451385139752)
(-0.0134923866774 0.012677657636 0.026268292608)
(0.0136465735142 0.0035818214194 0.0195341358105)
(-0.00458824580873 0.0013685061621 0.0130989943544)
(0.0118787876012 0.015518374194 -0.0025540156369)
(0.388747046228 0.00433727822398 -0.0057639408056)
(0.0192462703475 0.0206808938894 0.00487591206771)
(0.00573170649802 0.0258430670923 -0.00752148324571)
(0.00484954664408 0.00328300853779 -0.00842943725392)
(0.135441978074 0.0245257829505 0.00477724420494)
(0.0604072868665 -0.00360085884498 0.00289123188978)
(0.346770216978 -0.00240708919561 -0.0112985366332)
(0.00139147613463 0.013174729241 -0.0839225502809)
(-0.0167262595121 0.0211567550183 0.0156570237168)
(0.00890704235755 -0.00258186036823 0.0215006507897)
(-0.0026347888009 0.00243166572632 0.0116783408185)
(0.800489993198 -0.000237971426032 0.00118394918099)
(0.799049759518 0.000116159632248 -0.00260356704531)
(0.799294702375 -0.000436754771051 -3.89659560755e-05)
(0.800744405771 0.000763369205122 -0.000238869081663)
(0.799155949168 -6.74428548015e-05 -0.00195099065474)
(0.799936588584 -0.00141662402161 -0.000808544488799)
(0.800545019415 2.88007739369e-05 0.00135460340637)
(0.800602810234 -0.000235159425154 0.000717653048781)
(0.798949763789 7.08104485187e-05 -0.00188716059955)
(0.801330869862 -0.000952541139528 -1.5995024374e-05)
(0.798955277986 0.00164344516087 0.000692098596795)
(0.799328983733 -0.000423402724782 -0.00185387532806)
(0.800342317229 0.000234735343886 0.00256791549661)
(0.801311834063 0.00123345822864 -0.000962694294989)
(0.799146493505 -0.000215523781319 -0.00147336723842)
(0.798716812704 0.000176516914584 0.00237908219446)
(0.799227399139 -0.00162363230205 0.000857670749053)
(0.801109964067 -0.000639684190935 0.00120528851282)
(0.79863527826 -0.000439565925668 0.00211660833686)
(0.799460540968 0.000448111020387 -3.24486203257e-05)
(0.798539217607 0.000704293644444 0.000735328746414)
(0.800521333945 -0.000435685384676 0.00120109287781)
(0.799268542137 0.000241374993548 -0.00321884770032)
(0.799306378567 -0.00156214102519 0.000499608083277)
(0.800572148326 0.000300537872689 -2.51878890851e-06)
(0.800518584114 2.10617051898e-05 0.00120032198128)
(0.799294332215 -0.000263761513446 -0.00133094901731)
(0.80092460967 -0.00160611477789 -0.000794422480693)
(0.80048815884 -0.000443572896497 0.000378416362694)
(0.799390108995 0.00046555706145 -3.06938765556e-05)
(0.800738133508 -0.000585135028488 -0.00043164171201)
(0.800161419953 0.00116645411143 0.000524696403294)
(0.799767838775 -0.000569117892894 -0.00209139344831)
(0.8002710583 0.000480660840784 0.00251654045243)
(0.800242264303 0.000869296153489 -0.000823080299977)
(0.798973138129 2.87191571272e-05 -0.000521483279181)
(0.799012694996 0.000364666087539 -0.000325734850051)
(0.801654645286 -0.000947319263384 -1.0227826406e-05)
(0.798715625489 0.00147247779847 0.000305784984936)
(0.799489047628 9.16676093774e-05 -0.00278091510263)
(0.798569048417 6.19032115748e-05 0.00213944466644)
(0.799314036617 0.000335496813995 0.000272192833631)
(0.799554074819 0.00035494084097 0.00284285136184)
(0.800022833234 -4.341395231e-05 -0.00272783544273)
(0.799982267745 -0.000606970982581 0.000926264901221)
(0.801078358009 0.000901684687881 0.00132886844817)
(0.799595962777 -0.00012226586057 0.000354504779708)
(0.799999155901 0.000717950407769 0.00162860780712)
(0.800647625933 -0.000603534195783 0.000843779429671)
(0.799779725236 0.000101263984639 -0.00223910860314)
(0.799239817575 0.000774530218405 0.002685782635)
(0.79977100915 -0.000592855401174 0.000157682379177)
(0.801131418707 0.000869087910011 0.00059263363653)
(0.799305499098 -0.000346959493687 0.000146965614523)
(0.799756421651 0.00110909832958 0.00155849135009)
(0.799505544606 0.000274274947938 3.03148566724e-05)
(0.80028518835 0.000436057417277 -0.00128138173058)
(0.800042821354 0.00105637389659 0.00234497114225)
(0.800515897148 0.000160329091082 0.000412794491034)
(0.800416736328 0.000549673761236 0.00139259112928)
(0.800473855938 0.000480804101449 -0.00246666376516)
(0.799934199497 0.00119168202486 0.00409309093009)
(0.800661250135 0.000992187172571 -5.39171069213e-05)
(0.800286368891 0.00057099772108 0.00280091781423)
(0.800608248515 -6.03308216221e-05 -0.00117524830337)
(0.801371602019 4.99712940243e-05 0.000388291492971)
(0.800103850891 0.000748369764051 0.00193882866184)
(0.800872363537 -0.000166771215386 -0.00288987651505)
(0.800152157215 0.000802857504699 0.00473355147742)
(0.799011272464 -0.000809301200152 0.00107852093671)
(0.80050397341 0.000335465086029 0.00377000897172)
(0.800624916539 -0.000693273689638 -0.00439941141335)
(0.798974542329 -0.000700559597992 0.000471963278735)
(0.801298357967 0.00107291506297 0.00111247589986)
(0.800731908408 -0.000496446403605 -0.00218763088406)
(0.800363880981 -0.00125128187804 0.000652012331102)
(0.800658741774 0.000222256832207 0.00356115150229)
(0.80043679586 0.000502473093855 -0.00338017498764)
(0.800176792339 0.000615593386634 0.00328955160551)
(0.799150456503 -0.00147026836137 -0.00015696268031)
(0.801777757915 0.0016850640483 0.000539005226972)
(0.800468222264 0.000477443183101 -0.00167042623168)
(0.800241191174 0.00045581060021 0.00276342805888)
(0.79928855303 -0.000491878767728 -0.000816632769394)
(0.800470330582 0.000426398256185 -0.00310192667717)
(0.800192161844 -4.77577584115e-06 0.0028327265956)
(0.800878149622 -0.000408623766033 -0.000449897257982)
(0.800299184653 0.00127902739628 0.00151669990297)
(0.800099355961 0.000276740982448 0.00415400870223)
(0.800942026701 0.00128158264676 -0.00101056751529)
(0.800543354974 9.43803677271e-05 -0.00317256852979)
(0.799985014633 -0.000902978304722 0.000277896948504)
(0.799948698103 0.000955351070826 -0.00172283763031)
(0.799940721296 0.000714028546605 -0.000271172833598)
(0.800313586548 -0.000520856569277 -0.000296815265758)
(0.800201182514 0.00103413206913 -0.00283610371076)
(0.799718349218 -0.000810886787509 0.000522296653755)
(0.799455625684 -0.000868039992818 0.000179541799099)
(0.800064115645 -0.00085804201857 0.00103209135873)
(0.799898487476 0.00116279861524 -0.0044531955588)
(0.798692971789 -0.00102721986622 -0.000823119127658)
(0.801776654826 0.0019144111542 -0.000318258692767)
(0.800230711256 0.00119135341086 -0.0025149287509)
(0.799736221919 -0.000852294310509 0.000391046695539)
(0.799389538464 -0.000103091661274 -0.000732682158744)
(0.800287865351 -0.000614725015414 -0.000422730981496)
(0.799622932489 0.00060792563569 0.00189914350846)
(0.80062573627 0.000534898445834 0.00108474084465)
(0.800046250097 0.000500527957803 0.00143155968885)
(0.799982530481 -0.000788974738545 -0.00022228390548)
(0.799884602709 0.000789743964455 0.00316592151244)
(0.801462639817 0.00157499178955 -4.64434325756e-05)
(0.799743784274 -0.000989198811662 0.00143421444211)
(0.799870454595 0.000878353689363 -0.00292104361213)
(0.800754334017 0.00125195939674 0.000378131196124)
(0.801117105383 0.000478313115006 0.0012749653108)
(0.800110825519 0.000561287480532 -0.00302065491249)
(0.79956376942 -0.000805404902854 0.00267956110113)
(0.798263834109 -0.00175743071268 0.000701209358858)
(0.799953430193 -0.000942497494458 0.00181264752431)
(0.800093591596 0.000444080488012 -0.00402357045248)
(0.798113848626 -0.00129598575722 -0.000418051398141)
(0.801643966425 0.00154594202065 0.000930012864735)
(0.800008147135 0.000378056966321 -0.00268340230257)
(0.799789779303 -0.0015497580341 -0.000109030529346)
(0.800246791734 -0.000691000347238 0.00236198030955)
(0.799992577517 -0.0004714703563 -0.00154946542032)
(0.799832554736 0.000806931827807 0.00213204067164)
(0.798234069384 -0.00255065770192 0.000356995504337)
(0.802332748668 0.00175821698308 0.000650024123343)
(0.799702923003 -0.000737891019297 -0.00014017933794)
(0.800266935077 0.00116558592643 0.00255972680921)
(0.798575520881 -0.00116906089121 -0.000316722873263)
(0.800292514775 -0.000259118344523 -0.00173457772262)
(0.799861629756 0.000700973218318 0.0019274625691)
(0.801985689794 -0.00131632025768 0.000633338732121)
(0.799607820416 0.00135529334514 0.00172582068768)
(0.799980510312 0.00103232378816 0.00354225798537)
(0.801498211018 0.00149357695092 -0.000597968099889)
(0.800326447232 -0.000468361627003 -0.00103942230483)
(0.799942303038 -0.000939109500168 9.39978480339e-05)
(0.80026207666 0.00141381709405 -0.00263685050109)
(0.800748953158 0.00132012540553 0.000228755110603)
(0.800001447958 0.000746926600681 0.00036110402892)
(0.800200817657 0.00127014347953 -0.00219337178062)
(0.79999419076 -0.000713380857569 0.000564248866973)
(0.798626327892 -0.00139063503566 0.000141577293876)
(0.799779605644 0.00143462271724 -0.00398468448279)
(0.797617573496 -0.00145658001981 -0.000761187465585)
(0.799821617766 0.00111465710301 -0.00245524372964)
(0.800668320658 -5.63669234401e-05 -0.000167512732172)
(0.801046012323 -5.22646173665e-05 -0.000229193246301)
(0.801577070745 -3.85306463645e-05 -0.00031937012365)
(0.803371426236 -8.0790750156e-06 -0.000611728681775)
(0.804877378898 -3.8561069344e-06 -0.000811598119868)
(0.802700044746 -1.26836979139e-05 -0.0009568533041)
(0.800567051353 -5.11983550435e-05 -0.000489777086512)
(0.800894513083 -4.67399186939e-05 -0.000669398293347)
(0.801359676543 -3.39499208536e-05 -0.000930098609153)
(0.803011303973 -4.45921875032e-06 -0.0018109306439)
(0.804531811359 -2.46961556014e-06 -0.00246907500184)
(0.80251915272 -9.8575847768e-06 -0.0030250027192)
(0.799790615122 -4.48169317946e-05 -1.61194166666e-05)
(0.800472459643 -0.000254756112392 -0.000253085057607)
(0.800653876829 -0.000145621817051 -0.000220228781658)
(0.801399608752 -5.15316483652e-05 -0.000326065895033)
(0.802234377644 -2.07821924152e-05 -0.000454702054335)
(0.803312312438 -9.17914207784e-06 -0.000613723532333)
(0.80484256898 -3.44586225339e-06 -0.000814401138148)
(0.802678982558 7.94853503233e-07 -0.000962632985485)
(0.799929101818 -0.000248316837203 -0.000299820173092)
(0.800801129787 -0.000218693052148 -0.000447947431317)
(0.80100700466 -0.000275618043046 -0.000227297215182)
(0.801523246303 -7.33618886066e-05 -0.000330016863171)
(0.802277407392 -3.58685917292e-05 -0.000458051682891)
(0.803328376002 -1.98594229846e-05 -0.00062263370019)
(0.804850366418 -1.09315855771e-05 -0.000818151599309)
(0.802683302421 -6.94076828444e-06 -0.000965478590017)
(0.800230126301 -0.000292785548556 -0.000158649438232)
(0.800520052902 0.000550905356751 -0.000180185614386)
(0.800896996475 -3.3470604589e-05 -0.000236491975338)
(0.801489011286 -5.10319930322e-05 -0.000326674345258)
(0.802284459675 -2.91517589896e-05 -0.000451793215305)
(0.803337226044 -1.40598547007e-05 -0.000616534326889)
(0.804855014718 -5.90193514204e-06 -0.000814250954654)
(0.802685905301 -9.05328131788e-06 -0.000962906979098)
(0.800259725078 -0.000284392279723 -0.000119265885265)
(0.800583257164 -0.000201937214002 -0.000163563898841)
(0.80105085102 -0.000120775023972 -0.000230241271098)
(0.801561457833 -6.35791686959e-05 -0.000320883709487)
(0.802315005495 -3.2941012456e-05 -0.000447219073938)
(0.803351881989 -1.6473958043e-05 -0.000613017594983)
(0.804862627378 -7.57956416764e-06 -0.000811387230813)
(0.802689806459 -1.39683859208e-05 -0.000960552071439)
(0.802331553946 -2.53859324481e-05 -0.000446928927513)
(0.803362880625 -1.32918232568e-05 -0.000614005662859)
(0.804870624872 -6.18011596162e-06 -0.000812574277531)
(0.802695523932 -1.64220396962e-05 -0.000959920477681)
(0.799311285561 -3.82931310011e-05 -0.000172686225411)
(0.800845493305 -0.000205480716795 -0.000742582570932)
(0.800427375339 -0.000126848892362 -0.000649257871249)
(0.801162670818 -5.07668464507e-05 -0.000972436452284)
(0.801946778354 -2.25360657012e-05 -0.00133949222421)
(0.80295955208 -9.82284046214e-06 -0.00180988502015)
(0.804495096221 -1.49677417131e-07 -0.00247732978865)
(0.802496210008 2.65615801834e-06 -0.00304407241143)
(0.799913267684 0.000139644637483 -0.00078768145995)
(0.801096620195 8.94504330464e-05 -0.00106113217533)
(0.80078359317 -0.000308228336186 -0.000677565898549)
(0.80129192381 -7.4478016982e-05 -0.000977577249566)
(0.801984891193 -3.29710166856e-05 -0.0013486197777)
(0.802974992668 -2.26709793454e-05 -0.00185256994037)
(0.804511837033 -1.07803305394e-05 -0.00249032837832)
(0.802505630293 -7.22359641092e-06 -0.00305009797631)
(0.800291215941 -0.000200213242639 -0.000454221472099)
(0.800437944236 0.000484197720343 -0.000551920052623)
(0.800751411 -3.78459126878e-05 -0.000703212346126)
(0.801276253913 -4.19690799598e-05 -0.000956874295353)
(0.801994838067 -1.83196271445e-05 -0.00132137145676)
(0.802981450184 -4.44245092994e-06 -0.00182765853923)
(0.804514177809 8.63164691679e-07 -0.00247991856017)
(0.802507996161 -3.83688136273e-06 -0.00304217678236)
(0.800088583181 -0.0002519955651 -0.000404323705469)
(0.800476426129 -0.000191125735322 -0.000493783162906)
(0.800894245305 -0.000111338549137 -0.000675407233602)
(0.801344826825 -5.62295187188e-05 -0.000932545059555)
(0.802023065101 -2.80746601688e-05 -0.00130472041506)
(0.802994398822 -1.39439185398e-05 -0.00181534407618)
(0.804520469766 -5.9015764326e-06 -0.0024693901371)
(0.802510983708 -1.07594466126e-05 -0.00303376380013)
(0.802037114578 -2.29281387137e-05 -0.00130546630833)
(0.803003880544 -1.20010259749e-05 -0.00182030775348)
(0.804528163253 -6.38866879305e-06 -0.00247468313631)
(0.802516373766 -1.24510104433e-05 -0.00303391074126)
(0.798899730942 -0.000135409838322 -0.000935328384403)
(0.801344177845 -0.000140753229311 -0.00123558141309)
(0.800002357307 -7.89565400027e-05 -0.000978712001696)
(0.800664545129 -4.74562843031e-05 -0.00144164573183)
(0.8013955285 -2.77451906993e-05 -0.0020977241759)
(0.802198342591 -1.45890441552e-05 -0.00272884117055)
(0.803626945995 9.57564263554e-06 -0.00417121261694)
(0.801987034826 9.5319727531e-06 -0.00563804960613)
(0.799844123325 0.000541668258032 -0.00133161036149)
(0.801567963746 0.000374140469204 -0.00155583231046)
(0.800400915849 -0.000327311543268 -0.00112530463931)
(0.800834494029 -5.87445080843e-05 -0.00145723456953)