/*--------------------------------*- C++ -*----------------------------------*\
| =========                 |                                                 |
| \\      /  F ield         | OpenFOAM: The Open Source CFD Toolbox           |
|  \\    /   O peration     | Version:  v1906                                 |
|   \\  /    A nd           | Web:      www.OpenFOAM.com                      |
|    \\/     M anipulation  |                                                 |
\*---------------------------------------------------------------------------*/
FoamFile
{
    version     2.0;
    format      ascii;
    class       volScalarField;
    location    "3.3";
    object      p_rgh;
}
// * * * * * * * * * * * * * * * * * * * * * * * * * * * * * * * * * * * * * //

dimensions      [1 -1 -2 0 0 0 0];


internalField   nonuniform List<scalar> 
28582
(
19562.5495858
19562.8762221
19563.329064
19563.7217551
19565.1076395
19565.7074417
19566.3675228
19567.8053134
582.219360532
590.389227544
0.00730554463512
19567.191745
18536.5342835
18553.672971
19567.9894522
19568.4248068
18556.5455563
19568.0706604
19568.6965735
19560.9621569
19562.660081
19561.7398049
19561.3129981
19563.3427492
19562.1391086
19562.5633804
19565.1138794
19563.216797
19567.8365947
596.334582336
-0.0446811112967
0.0411492577135
19563.9808958
19564.7537156
18551.2125582
18513.6085873
19564.7694161
19567.378257
19568.0178033
19567.1551208
19567.9822578
18521.277474
19568.3776392
19567.3544707
589.156415562
577.454154037
1.09189434524
1.47111993483
589.618922048
2.09798003329
19565.9488552
19566.2726057
18549.114068
18558.1121288
19566.0251989
18549.1815303
19566.3416266
19566.5743888
19567.0997833
18552.9334629
18552.265938
19566.7724224
18545.8620847
19566.6195371
19567.8160579
19567.6271373
18560.29234
18559.1723239
19567.1093455
18560.781615
19568.0172675
19568.3299984
18557.7306681
18559.8105841
19567.8543408
18559.2799695
18563.1348446
19568.1443225
19569.7504394
18587.1744605
18608.9236502
19568.8506125
18611.4063312
19569.7629439
18592.8622003
579.126839045
1.59408551693
548.978009511
569.771308924
0.910172468418
1.11664629408
592.016265287
1.84641363336
1.2352898491
615.672179313
3.24351611822
612.287665804
1.75795057327
19563.7551994
19563.1694498
18543.8777995
18527.9284303
19563.7390562
19563.1954922
18527.1758625
19564.1844096
19564.5293735
18523.6589687
18503.7632725
19564.2372993
19564.4546739
18522.1050387
18510.6749507
18509.0289013
19565.1888839
19564.9777176
18506.9906343
19564.9307216
18518.3074111
19568.2819076
18555.7486485
18554.4035432
19567.7611404
18551.293051
19568.1090614
18542.9880676
19567.3404049
19567.8276882
18539.1230829
18498.6953231
19567.9495007
19566.8228653
18524.4971091
19568.4203223
19569.3410893
18568.4427699
18592.3384566
18558.5153601
19567.7203038
18544.5778738
18511.425295
18462.0763214
19566.2583178
19566.9321019
18474.6615004
19566.2830927
18511.1341547
19563.035193
19566.3669725
643.600589768
0.157503528889
19565.5839623
18516.8686028
19565.9734069
19563.9628319
18496.889988
18417.8297051
18286.5011978
19560.8994591
19557.1294745
18224.0626478
17868.5382067
591.174615961
650.229465811
699.875464249
3.49438549099
4.87718594634
6.44930427756
753.455301313
799.437865636
19565.3212205
19565.7633525
18499.6863099
18531.3875755
19564.8193441
18504.4457388
19566.2231515
19565.3025471
19567.4120882
18464.6890466
18469.6491072
19566.5243526
19566.250576
18426.7509902
19564.5534134
19565.3701212
18435.2455196
18375.141581
19565.6058354
18394.6321247
19564.362295
19563.2113547
19561.7547627
18281.3376946
18328.2579784
19561.2366028
18347.306179
19563.197881
19554.4485731
19559.2823375
18193.4886094
18129.5824451
19558.2262653
18097.0280956
19555.1669863
19550.2795241
19544.8490887
17878.9933936
18005.4855348
19545.6778791
17994.0609399
19550.0511224
19570.679983
19565.193472
19563.7894443
19561.4574152
350.187579296
429.536661588
334.554498841
388.999507944
398.576505828
0.0398808469221
0.132082802235
0.0833145232452
0.0876149988859
0.0595039829115
0.110917703966
19570.7987356
19570.177402
18915.5550406
18965.6885143
19573.2274201
18987.7247672
19568.5205181
19566.4952788
18971.3415766
18940.9271039
19571.737651
19567.6750749
19567.8203976
18992.2345033
18913.0512603
18958.6900383
18895.887239
19566.2080975
19562.7766717
18759.6185032
18490.5449623
18759.0015271
18612.2326884
19565.0524325
19563.3731343
18937.0464167
18888.6458856
18855.4402372
19561.5830806
19562.5031242
19561.0647348
18767.8972575
18632.7931792
18759.2465262
18657.3233869
18746.1659326
18652.1152472
381.578684773
362.193268936
369.942542094
1.0252043055
2.26924011274
1.07679702718
2.21219881623
4.05864548907
4.55926442775
3.74848086667
3.83620177868
341.467420987
331.64211941
381.434723002
337.555547626
361.989548653
0.874771845899
1.92653883174
0.537307073661
1.58982746316
459.328976912
403.4762118
433.007541173
3.15466159851
2.95410172864
2.71521077717
2.50013028749
352.684664298
355.101905268
0.255429356566
1.19629050354
0.978437626312
418.861796927
386.987194863
416.942327537
2.37639817504
2.51910774041
1.97183521123
2.6188762499
19569.5550777
19571.2529035
18892.3820793
18939.6113587
19571.6032467
18896.6527649
19569.5500532
19569.2385604
19570.760135
18954.8756284
18940.1144369
19571.2727403
19569.1588221
18912.0727474
19573.624053
19572.0437853
18998.4403539
19000.4603896
19572.7767199
19572.9221826
18993.1034205
19567.8754376
19570.0418793
18947.6263282
18968.1470631
19568.7255631
19569.1910977
18941.2077126
19567.0870835
19567.3033621
18958.5355123
18931.3805787
19568.3245888
19566.3475387
18936.2454021
19569.9942554
19571.1175035
19008.3145354
18995.9216388
19571.9206934
19570.0640034
18987.3665365
19569.6152178
19570.3491776
18998.9277743
18911.4536943
19571.6544758
19569.4645141
18938.9546249
19569.1184887
19568.0875065
18978.5145377
18976.1136526
19569.1725936
19568.1546375
18979.0593535
19568.2457432
19566.3289025
18906.7689963
18967.668052
19568.1186621
19567.6694951
18933.7280201
19563.6641032
19568.303389
18710.4246426
18866.2501664
19565.4834658
19567.7848141
18714.0435769
19559.705568
19558.5841438
18677.2113717
18586.6842922
19562.2558688
18551.7676957
19558.9406521
19562.5957267
19564.5311697
18872.7577131
18739.142443
19566.4145208
19562.3708675
18728.4372114
19558.7969014
19559.2831301
18619.7622011
18724.2048518
19560.8329026
18588.4585124
19558.9122349
19565.9495388
19566.9308797
18958.8820862
18921.2748321
19567.0242134
19565.8796542
18932.9542071
19565.6153202
19565.4432994
18952.8043794
18881.9599154
19566.5102932
19564.9912121
18904.9692827
19564.8259629
19563.2199162
18874.4319781
18897.4121831
19564.3097704
19564.1740019
18897.2734784
19561.5534866
19563.8596835
18743.447221
18852.4500404
19562.2018376
19563.5787476
18754.8952793
19559.4431788
19558.8586463
18730.7855923
18649.2727819
19560.0404661
18641.9691831
19558.6419133
19560.7668272
19562.0503869
18844.5975632
18725.0567418
19562.7751861
19560.8997328
18756.2492061
19559.0315129
19559.2195263
18645.5501865
18716.3512402
19559.8514417
18646.0827812
19558.6392395
19559.5758703
19561.3513154
18702.9450196
18763.3446304
19560.5216008
19560.6884153
18711.7835881
19558.9859521
18698.2081963
19559.5023673
19561.4661814
19562.1548933
19562.2521939
19560.2375728
19558.7129968
19557.958191
19562.1334263
19562.972328
19562.9464825
19560.1706678
19558.1358081
19557.5939391
19546.9062134
19552.9885895
19555.6858626
19559.6806115
19560.8425615
19559.6370372
19558.2044406
19556.2918511
19549.7696561
19556.1201746
19560.1458656
19561.3106759
19560.9429323
19559.7542434
19558.3497532
19556.3256309
19556.2785698
19558.1711171
19560.1923652
19561.0258595
19560.6760908
19559.6311677
19558.2950497
19556.5252064
19558.8865992
19559.8819664
19561.3353373
19561.850532
19561.1947379
19559.9111358
19558.3960512
19557.008937
19561.43507
19560.0389739
19558.5280144
19557.5068941
19543.713643
19548.3220093
19555.9207853
19559.4368808
19561.3263877
19559.9663149
19557.7940118
19555.7482462
19548.3276757
19553.3683373
19562.2181376
19562.6223465
19561.7307406
19560.0191269
19558.0175655
19556.2626765
19556.1187112
19558.8858105
19560.7821292
19561.2480272
19560.9087218
19559.684086
19557.9034789
19556.3346189
19559.2731541
19560.5350165
19562.122406
19562.5678818
19561.7021944
19560.0442578
19557.9952021
19556.7188276
19561.9241609
19560.0821937
19558.0221196
19557.2112486
19538.9679194
19547.6411344
19559.5785128
19562.1968052
19563.003925
19560.2972767
19556.0498532
19551.8773347
19546.7685499
19552.5872064
19561.0759453
19563.3926617
19562.9207924
19560.1396003
19556.1371129
19552.0469864
19557.1291855
19560.3010494
19562.307942
19562.9213851
19562.1479766
19559.8627884
19555.9310066
19551.7935131
19559.947213
19560.5150584
19562.1386779
19563.7642122
19564.1176339
19562.8287146
19560.1316257
19555.762178
19552.2205652
19563.8340127
19564.887555
19564.787225
19563.1380895
19560.0438099
19555.7180257
19553.4916617
19559.7270667
19555.7715299
19554.5803502
19544.0878857
19552.4894363
19560.0211923
19563.725389
19564.9322279
19563.9289616
19557.3695103
19552.575172
19545.7803447
19550.2891126
19557.0983416
19561.4662058
19564.669368
19565.420547
19563.7285068
19557.3872468
19552.9973354
19559.0508099
19555.5584731
19556.4614729
19560.8101828
19563.6818985
19564.8285745
19565.3106971
19563.3125448
19556.2827283
19551.5081868
19560.0701103
19561.2464877
19563.2622217
19565.188576
19565.3490871
19565.5254505
19563.3312949
19555.3174611
19550.6321219
19564.7367747
19566.6845417
19567.2932904
19566.9907439
19562.9290262
19554.8501636
19552.113644
19561.2522019
19554.6428568
19553.1803175
586.536149839
611.459140943
611.688761577
602.346154247
612.409154949
666.81019322
831.072897962
966.150454187
466.175986052
480.334937827
544.071456073
589.219756436
593.443488479
580.858278284
589.52405062
664.76755768
828.515243859
961.634653901
437.687513764
465.90325563
506.09622221
553.711612139
571.362708235
585.077145724
604.959459782
683.469482792
843.985768358
975.461762663
480.241591003
501.982008628
552.917590942
588.878559678
615.548855087
633.641281423
720.807601044
865.409361404
984.000291351
589.210814498
583.680406616
585.913515959
621.606238149
737.765261716
864.538432897
955.536650272
747.655886548
852.688379074
933.992570057
0.00906864715876
-0.0445630348173
-0.0475127019553
-0.0438091877777
-0.0365251702974
-0.0428056187643
0.0050830790973
0.0274046371885
-0.0409833158984
1.37542757116
0.00517785363907
-0.011421252411
-0.0281930104224
-0.0406169385462
-0.0285922029862
-0.0319855980218
0.0106460077801
0.00326316938818
0.0119120198375
1.51499813478
0.0430960245067
0.0101262653334
-0.00496321373211
-0.0156044232817
0.0121630674303
0.00522188978409
0.0158089400762
0.0587107935326
-0.06906548891
1.00329336214
0.00909001802993
-0.00476238788238
-0.00745468425552
0.0385107480441
0.0135078997
0.0199949074843
0.122188352438
-0.0536469251692
0.881995310299
-0.0417361778563
-0.0194521707387
-0.00617221986959
0.0449618106934
0.118322437353
0.190764207497
1.22745884145
0.112683977033
0.215500243938
1.41809603032
19550.0339463
19547.6479346
19551.4200242
19545.3039793
19548.49031
19546.3882543
19549.2942067
19555.925572
19554.6213549
19556.8355553
19551.5384402
19552.5931082
19552.3869628
19555.0807603
19553.0948552
19552.2681404
19554.2660305
19549.4599272
19552.3159461
19551.6969834
19554.0966144
19557.6565159
19556.765076
19558.3325788
19555.2121689
19556.6422978
19556.5064819
19558.3686482
19546.1666269
19544.1195553
19546.3433383
19540.6885544
19542.2822564
19540.9086782
19543.9019876
19551.6502793
19549.3904251
19554.2956733
19547.3171877
19550.6012182
19547.9030885
19553.1134207
19550.5393075
19551.4306386
19553.8371368
19547.1990234
19547.0703809
19550.9722404
19552.9437862
19555.7907322
19556.4769128
19559.3633325
19551.1123363
19554.8807759
19555.6327678
19558.6491556
19541.4747672
19541.9719682
19544.4916094
19538.1773765
19543.867138
19543.1596445
19546.7553026
19551.8729783
19549.6932827
19554.5902733
19550.2102251
19554.6772455
19551.6174096
19557.2748873
19548.2691758
19551.2636439
19553.3806617
19547.9827398
19551.1348786
19551.7372192
19554.9746836
19556.0440685
19556.2415521
19558.9644268
19555.0463804
19557.9894913
19558.2298913
19560.5527258
19542.0909429
19544.5021732
18158.4240296
18267.5067423
19547.8309792
19547.6734146
19550.7735405
18195.2214736
18267.7141459
18280.5201055
18315.0140983
19556.6255427
19554.3342873
19557.8483598
18293.6488458
18357.3816496
18334.4419737
18393.4000404
19562.7885152
19560.4933909
19562.999464
18384.4160419
18457.1370401
18418.865034
18470.8175886
19564.3687293
19564.0613732
19564.69314
18454.0703589
18414.9656101
18483.8767097
18486.3390869
19565.1430822
19565.1224635
19565.1265312
18422.6991212
18473.8007931
18489.1782823
18489.4230286
19560.9060122
19563.8091425
19560.7970985
18465.7151805
18181.3427484
18469.9961162
18147.0547843
19554.1903675
19557.5019037
19554.4984457
17981.5815292
17511.9121353
17968.5929963
17560.780688
19551.8627427
19552.9322733
19552.169805
17526.2133134
17354.52536
17567.2249838
17283.2511008
19557.8551341
19553.5678578
18400.3324004
18350.6490174
18555.0125839
18513.5125143
19546.9626443
19551.2584576
19550.9060512
18343.4633387
18315.3068087
18509.741009
18464.7486496
19553.8986695
19553.0618448
19556.3058746
18322.5057317
18341.1398302
18460.4425261
18446.8653315
19559.2787094
19559.0479892
19561.1057569
18355.5882899
18406.6311362
18451.0481849
18477.9267387
19563.564387
19562.78641
19564.0988264
18431.7756324
18485.9199701
18495.5807882
18521.8225246
19565.0917576
19564.8328525
19565.2569888
18495.318821
18504.6401684
18521.7657734
18511.7758304
19565.257893
19565.5049705
19565.2307207
18508.8929597
18502.7657452
18513.4489786
18503.530668
19560.6085079
19563.5390401
19560.3450676
18475.3741712
18133.7933209
18468.3461666
18107.4685321
19554.4909392
19556.9777936
19553.8282985
17956.285668
17570.2472825
17929.1486247
17533.487536
19552.1240219
19552.1799271
19551.8895398
17573.6421346
17262.0491937
17545.0466956
17252.6473072
19556.9757614
19559.7621211
19558.8637424
18579.2935026
18547.422358
18602.8120771
18608.4705175
19555.2498801
19558.3464022
19558.4489659
18542.9390115
18505.8480872
18608.1217363
18600.6467735
19558.6211399
19559.2423569
19560.5362347
18500.4926177
18484.9585929
18593.867391
18559.1167719
19562.545474
19562.1667607
19563.6204307
18486.3283456
18505.523571
18550.199771
18552.4218772
19564.460398
19564.5035282
19564.8639417
18515.9663098
18533.6774125
18541.5821778
18464.0462377
19565.1029845
19564.9122633
19565.0400297
18525.4145289
18491.8865399
18444.2376439
18417.9165243
19565.0340604
19565.2350231
19565.0072317
18494.8540382
18489.7120234
18424.0927896
18441.8449848
19559.9941931
19563.2737424
19559.8820892
18454.1080454
18090.2210336
18417.9146782
18063.952516
19552.9992602
19555.810572
19552.2157516
17911.0701806
17505.0480259
17867.5564569
17412.1177812
19551.542257
19550.7396555
19551.2917131
17520.1521666
17264.7195724
17436.9600127
17234.2021677
18592.3811411
18601.1492977
19560.5857874
19561.7041639
18602.0464503
18608.5456693
18573.7631993
19562.1234809
19562.5255441
19563.3046682
18603.6721473
18569.7912661
18573.1006651
18540.2576257
19564.4324446
19564.1168862
19565.1212116
18553.1173025
18547.4722325
18530.2068682
18528.2961053
19565.3953834
19565.9928051
19566.3524811
18538.6108175
18456.8960704
18541.5184833
18527.9461622
19565.3569975
19566.3723983
19566.3765573
18435.2749406
18409.1029184
18516.3185513
18493.6109686
19565.2584538
19566.3728333
19565.680081
18415.0070045
18435.0345274
18496.2880813
18468.1180946
19559.6348324
19563.3196413
19559.397025
18407.6505027
18040.8537184
18405.1077816
17967.0083411
19551.840519
19555.1270431
19552.0483311
17843.5315631
17396.3244061
17783.0268018
17457.2869535
19551.4095632
19551.0700998
19552.2864329
17428.3169999
17252.8241648
17487.3641585
17352.7611365
19565.7719976
19566.5490617
18511.8269014
18525.8442939
18558.6142263
19567.1782949
19567.3604943
19567.7625181
18545.4534188
18568.1619919
18568.7001463
18575.4605984
19567.3135233
19567.8032408
19567.6338848
18566.4813991
18544.8391011
18573.3467112
18542.5657402
19565.7101946
19566.9708356
19565.2030096
18538.8357351
18468.6585698
18525.5193674
18378.6380202
19558.725364
19562.1024899
19558.0276057
18388.3376108
17939.5912207
18270.1103249
17873.3058002
19552.6256238
19554.8856234
19553.1347004
17772.916489
17522.5564303
17774.1296316
17647.2718853
19553.4315467
19553.0566844
19554.467429
17551.1198981
17373.8883183
17668.0718419
17472.0786752
19564.3946629
18332.1716231
19557.3624021
18232.1292148
17870.6727028
19553.2675193
17780.5789725
17659.0260757
19554.8937812
17676.6137775
17483.5192735
3.47574011086
0.579920514596
2.41799396365
0.249653862849
557.908976192
532.924016779
0.0498780776025
0.0395053176723
0.0246558385596
0.0440905749193
602.966587062
566.884375422
591.216420334
0.0569390028353
0.0551834524975
0.0582922418977
0.102608537272
615.205808759
602.394629226
606.765827001
0.0349863316274
0.0286720227289
0.117683224577
0.0926988552527
601.459543647
602.786641111
594.978636533
0.0618479039372
0.284668292081
0.105278968258
0.115423818803
608.303107737
589.553019955
591.939735047
0.529059130534
0.367659957193
0.129090814883
0.113102110438
624.114309791
598.06443992
616.635294465
0.389540812926
0.880055839418
0.13691538789
0.56853382672
740.974810869
664.33725737
738.490153325
2.01156567029
4.66766385958
1.88715054222
4.84310189507
924.036153234
827.481342135
920.800729522
7.51067849208
9.82111481251
7.9799541079
10.1808774624
973.016315224
961.801047912
973.967067839
17.9756073427
28.5843273314
18.1177659424
28.7124105984
472.889447292
446.960854465
458.058029295
1.46733135532
0.208197638968
1.21436840242
0.326673800334
509.282707212
474.837398465
494.036835256
0.0511887904962
0.0489260039693
0.0958823374954
0.042051977697
571.006936493
521.409876235
548.754826371
0.0507099916385
0.0771151664029
0.0450204031426
0.0439178143638
595.986276102
570.493167731
583.026542558
0.107356499267
0.117139021735
0.0936098137382
0.132680933714
583.890221962
579.153001792
575.386810712
0.125398990828
0.140391586867
0.242498012851
0.208533633354
582.575038396
576.481433047
580.817694633
0.108251411301
0.102268085658
0.204888286637
0.123389605844
612.458067182
589.870810188
615.796692625
0.0909737424501
0.535667061543
0.170420540973
0.701934698619
740.284745308
670.365548287
745.850790016
1.93554575384
5.05862978097
2.41730419445
5.74422525794
919.786659514
833.41053934
923.119454713
8.7281749563
11.1972579102
9.24103680005
11.6884046704
977.861164651
963.656285329
982.307861201
19.101735301
29.0592869796
19.7967874622
28.9990422416
453.891212413
438.314253989
453.184191343
1.71601395416
0.749899384208
2.36883471275
1.46526877537
482.394318269
465.128705672
477.606715371
0.194117366655
0.0467675696543
0.513415335901
0.159904539392
531.567242246
495.08915959
523.646037538
0.0341315645584
0.0343977772155
0.050729329146
0.0363823117564
569.178514728
547.08155746
561.564731956
0.0385850551222
0.110367715146
0.0391269083249
0.888796748162
577.091229994
577.91957494
593.239590784
0.394461817454
0.848024658267
2.45049064295
3.48943056228
594.122011342
603.248047414
611.241260923
0.861311919004
0.796232897311
3.37307773364
2.63780131807
630.514025297
621.145292514
647.1409741
0.749204998131
1.37103165611
2.0563602602
2.36970518385
757.263914777
701.142827828
773.495134842
3.07778955899
6.36683680048
3.9546370021
6.86206411891
932.834989692
855.64802296
940.915377921
8.95381347351
10.9691762964
9.2999185059
11.3695194805
992.550739316
983.389700581
995.493743791
17.7269770451
25.0003291244
17.914619897
24.8618447056
488.514039843
511.866979597
0.958885537516
0.503594706166
0.755843803634
530.314512986
521.02346114
546.568414972
0.134936548731
0.0615222793436
0.395667960749
0.637513591478
570.20747641
569.116836964
580.927561803
0.558573874123
1.78005404913
1.04133349151
1.23783764188
604.970714561
588.111170673
598.920276269
3.03904432425
3.55610090014
1.75079508399
1.9264304759
623.165313095
608.209939919
614.70377836
3.14166085814
2.45050680934
1.80989932439
1.64054310429
662.552578777
628.504796061
666.97735368
1.90297093431
2.51964376659
1.86298062022
2.87147235501
789.994388063
732.165972752
798.781854789
4.27847571006
7.28088152641
5.07528381922
8.12206826772
944.464553378
868.37002244
939.035539994
9.6284137522
11.6285168308
10.0540956924
11.5244017196
992.106800034
973.961163695
976.68259256
17.5309807224
23.6814859794
16.9155783406
22.7543636749
589.200180147
587.403307473
1.02026575675
0.552731210162
1.71857773329
1.35682176601
581.632327015
582.92909966
582.27769397
0.120139078856
0.107913379528
0.796081882825
0.586562074419
596.991242708
586.482179935
600.501302353
0.173888340674
0.511075221389
0.611020712242
0.915550488695
672.194053065
630.495867182
681.945960356
1.40625577427
3.22312718091
2.00988512031
4.74416452042
801.83291225
739.962795056
800.219296752
5.57830250067
8.27021367212
7.02310749021
8.9958732749
923.542376413
858.380462242
908.667734258
11.0079607891
12.8114144685
11.152784748
12.4634068638
955.470032018
937.600236354
941.966239317
17.9614771523
23.7058001841
17.1856333601
22.9118645188
693.847162152
6.08584613608
800.726112678
7.57238564102
8.70412352043
7.47281028023
8.15949215438
900.12673132
10.649539438
12.0835353524
9.58282349222
10.9341717044
934.535884863
17.7625170172
24.8178107608
16.689602461
24.7033497899
19543.1429697
19543.1729967
18151.9707068
18213.1662069
19544.4978582
18194.9156125
19541.1710643
19544.2978313
19546.5288647
18242.6138616
18280.6738845
19545.7253684
19544.7457827
18220.570478
19548.5363458
19545.5926401
18222.8083895
18216.5038923
19546.4984446
18231.7875142
19547.6586912
19550.2884268
19551.5903983
18240.492675
18271.3587833
19551.8723757
18256.8366257
19549.7065324
19549.5892488
19548.8767366
18245.6325652
18293.8674002
19547.6557858
19550.6355941
18258.6668926
19551.2945781
19553.6976923
18294.0651336
18301.2176424
19552.847405
19552.231578
18280.895296
19555.2706291
19553.4980929
18311.0636103
18286.58462
19553.5873161
18310.7103334
19555.169717
19556.9887446
19558.1739794
18330.3286446
18355.9035955
19558.4691025
18334.7560745
19556.6771935
19555.9371729
19555.2640381
18306.6469568
18351.2803172
19554.377655
19556.5363866
18328.0884485
19557.4212658
19559.1701808
18372.9987765
18368.9525073
19558.831055
19557.9194484
18351.3954337
19560.7898412
19559.3413081
18410.1696857
18381.5386553
19559.6311217
18418.2725851
19560.540283
19561.0446809
19562.9001953
18434.7811523
18470.0424989
19561.6273676
18453.3446948
19561.768487
19561.0514826
19560.3446352
18395.5222194
18440.020622
19560.0323513
19561.5381459
18424.1351792
19562.0513605
19563.4644457
18474.9322027
18455.7186825
19562.711805
19562.5674884
18453.3454974
19561.4611249
19563.1300237
18441.7940078
18470.01635
19561.8504059
18467.7960293
19563.2111422
19561.1586185
19562.2046659
18427.3110972
18443.6057936
19561.0468781
18460.5688918
19562.8083316
19563.2017531
19563.9875779
18480.8506694
18487.7913884
19562.9510476
19564.3540468
18481.9198201
19563.1140811
19564.6749731
18466.0615689
18488.482144
19563.2911461
19564.5343878
18478.8636593
19563.0481865
19562.6033987
18438.3331096
18445.3039142
19561.4551239
18449.2975771
19563.4689955
19564.9035333
19566.7547177
18457.2826651
18492.7674635
19566.6043166
18467.7819546
19565.0858341
19564.3436397
19564.8851401
18462.2387979
18488.6376599
19563.5724689
19565.1432004
18465.0412486
19565.6163686
19566.5561324
18490.7946217
18491.6637573
19566.8937111
19565.7674566
18477.6665338
19565.5125577
19567.2173458
18439.0648319
18485.8672805
19566.9550486
18444.7578984
19565.9820688
19562.0037442
19557.6130649
18340.759846
18166.3555547
19556.6269183
18330.3953974
19562.7037028
19565.347935
19566.343529
18477.9892489
18418.9896696
19566.8996982
19564.5630764
18428.4838119
19562.0967854
19555.9740364
18156.9213061
18306.3380298
19556.9412518
19560.9413668
18314.237547
19545.3911399
19551.5810932
17785.1610925
17982.0073256
19551.0582139
17806.4063821
19544.9918536
19540.8906037
19537.6056203
17634.8234193
17523.5869251
19537.8103491
17657.1783209
19540.1495833
19546.2846277
19550.8477692
17979.0513623
17804.0652282
19551.6887943
19545.7312927
17817.4386593
19541.8850853
19539.245286
17547.3589389
17677.2928655
19538.5331185
19542.0227656
17677.1549878
19533.2499645
19535.8085375
17508.2729512
17541.7350795
19536.1689915
17537.5421129
19532.556189
19526.6997105
19530.152023
17307.6723697
17333.956794
17361.1841536
19530.3027655
19525.623807
19534.385388
19537.5817653
17562.1958574
17561.2890957
19537.1136171
19534.6295989
17556.4830425
19528.3482526
19531.3640277
17278.1933876
17407.2514971
19529.1035702
17388.2354623
19530.5550358
19553.187454
19554.9251893
18465.8960675
18579.2558317
19551.6222356
18464.6856747
19556.8191273
19549.9805394
19546.7271104
18446.6566734
18464.1123335
19549.1821146
19549.7778124
18432.420658
19554.3753125
19557.7191599
18612.372249
18583.867777
19555.9607902
18516.8856798
19557.872764
19552.3173587
19554.0622016
18506.2664988
18557.7397672
19552.1850504
19554.3989682
18487.9309369
19548.0247974
19545.8348843
18353.8015818
18429.6555994
19545.8819749
19548.9139368
18382.7763392
19548.7324133
19548.3931993
18331.9621945
18382.4719167
19547.1485408
19550.2430899
18383.4355281
19550.417638
19553.5634973
18474.7839507
18502.0940326
19551.5707889
19552.5267908
18435.0205565
19550.5682881
19553.3730631
18428.0335621
18477.8106012
19551.656629
19552.4855459
18434.4111438
19553.2835961
19550.1821871
18329.5735376
18370.5692636
19551.9903501
19551.8144762
18370.9182268
19554.5455407
19554.9553344
18332.6160304
18376.3876402
19553.5844411
19555.8982973
18374.0518184
19554.3246691
19554.3390127
18410.9809662
18451.7940222
19552.9794919
19555.3139474
18409.2416438
19555.6941132
19557.703637
18411.6173355
18444.7588669
19556.9227443
19556.4672965
18410.075973
19558.4867726
19556.3232422
18370.4210825
18380.6644672
19557.3018459
19557.1730022
18393.4462526
19559.6538413
19559.523986
18385.4584226
18429.0153099
19558.4170005
19560.7155571
18411.3817885
19559.3421488
19558.9583952
18414.4272032
18457.4897889
19558.177012
19560.0884601
18423.7516746
19560.3800654
19561.9498592
18456.4291048
18465.7394316
19561.1221146
19561.0873438
18438.1909238
19562.3651288
19560.628695
18456.334608
18445.4656891
19561.6098886
19561.5133434
18465.2365906
19562.9048121
19563.3494297
18473.1350795
18504.6163947
19562.5275404
19563.5017975
18487.0669902
19562.4846531
19562.8121855
18473.4642108
18516.0182024
19561.8268874
19563.7758154
18488.8642959
19563.1356918
19564.9158118
18514.9954583
18522.2047178
19563.7827783
19564.4562999
18502.0820946
19564.151593
19563.8333779
18500.7156445
18508.0381262
19564.1577907
19563.9420786
18507.3222653
19564.5016629
19564.5534198
18503.2270568
18505.728616
19564.3692208
19564.9191193
18507.8930826
19564.4522166
19565.10214
18520.2647978
18520.0730662
19564.1932392
19565.2949483
18520.0575926
19564.7825673
19565.5652396
18520.0387355
18517.5722815
19565.1394433
19565.3720301
18519.9961169
19565.8105079
19564.7984803
18504.8544267
18507.9672015
19565.2773194
19565.338288
18508.5647107
19566.4070994
19566.7420725
18506.4355939
18510.2449644
19565.9469667
19566.953341
18513.4815254
19566.0606002
19565.8992047
18523.8889297
18512.8797627
19565.642713
19566.4988457
18522.6227321
19566.5650138
19567.2798024
18512.6970838
18512.8980122
19566.9475695
19567.082646
18522.1442142
19564.1199873
19566.389637
18415.4755508
18481.7935567
19564.4503517
19566.3131749
18410.1248084
19560.3081304
19555.6837766
18296.6583004
18118.0345052
19560.7063732
19555.1537136
18279.7090176
19563.7024168
19566.4841404
18477.0172043
18395.7017519
19566.1416085
19564.0516738
18404.4687842
19559.753384
19554.5937075
18110.8506152
18270.3919883
19554.5693847
19559.9214429
18273.6184299
19545.7570825
19550.6978648
17798.8958197
17953.0615011
19546.0029974
19550.4711899
17800.2849198
19542.1902922
19539.2486644
17679.503524
17552.7063258
19542.3375266
19538.857542
17671.5356978
19544.9641869
19549.2604789
17944.9415884
17763.5810795
19549.7786261
19544.0791693
17790.2848954
19541.3322013
19537.5143026
17546.202003
17638.6756018
19538.1460561
19540.2409454
17661.6623325
19534.3516936
19537.2995333
17566.0258203
17567.7626001
19534.1068533
19537.17686
17571.3808309
19528.3203072
19530.2355101
17414.6637305
17241.827463
19527.9880429
17428.6611379
19530.070148
19534.0493334
19536.1396265
17564.0053233
17539.9874328
19536.7455164
19533.2796008
17566.1343104
19528.2465121
19529.9689062
17253.6975373
17395.0669912
19527.422973
17425.0603268
19530.2097797
19557.8840531
19558.3785066
18601.1545832
18647.6987242
19557.3098275
18602.0651012
19558.4392893
19557.2171143
19555.4576028
18581.9370861
18592.4578281
19555.8976817
19556.8679991
18594.6652873
19558.33765
19559.2752862
18650.7945508
18617.1590916
19558.9442269
18611.3960184
19558.5749202
19558.3210237
19558.8707769
18605.4168787
18619.1726902
19558.1639782
19558.7357623
18603.6624169
19556.2343664
19555.1124623
18535.391656
18575.4235573
19554.3941413
19556.4773066
18561.0065437
19556.2929804
19555.2116368
18516.4726309
18548.325096
19554.3870435
19556.7536568
18556.9269348
19558.0452149
19559.0247222
18598.5668801
18609.1476265
19558.1025087
19559.036626
18588.3294335
19558.226656
19559.6923424
18579.8416925
18606.7855433
19558.6278993
19559.2701865
18585.0174577
19558.2540535
19555.994263
18492.4869438
18534.7324097
19556.8358134
19557.3473998
18526.9629356
19559.1938938
19559.2193733
18484.3880652
18517.611839
19557.9312762
19560.213634
18521.2242713
19559.9544155
19560.1983714
18570.2528836
18586.4156393
19559.1933964
19560.9589753
18561.0754648
19560.7563672
19562.2983937
18545.4020152
18575.4249674
19561.5530151
19561.722234
18550.9034529
19562.0055086
19560.3228945
18490.0360988
18516.8861721
19561.4001141
19561.1434979
18518.0383217
19562.715187
19562.8939052
18496.5394321
18528.9048396
19562.2498927
19563.241091
18520.44828
19562.8030801
19562.9138505
18543.4099539
18551.9956223