/*--------------------------------*- C++ -*----------------------------------*\
| =========                 |                                                 |
| \\      /  F ield         | OpenFOAM: The Open Source CFD Toolbox           |
|  \\    /   O peration     | Version:  v1906                                 |
|   \\  /    A nd           | Web:      www.OpenFOAM.com                      |
|    \\/     M anipulation  |                                                 |
\*---------------------------------------------------------------------------*/
FoamFile
{
    version     2.0;
    format      ascii;
    class       surfaceScalarField;
    location    "6.45";
    object      alphaPhi0.water;
}
// * * * * * * * * * * * * * * * * * * * * * * * * * * * * * * * * * * * * * //

dimensions      [0 3 -1 0 0 0 0];
oriented        oriented;


internalField   nonuniform List<scalar> 
92311
(
0.203338554895
-0.000396299486515
-0.000550974121317
-0.202886829985
0.000495545345167
-0.000347916010636
0.203626139286
-6.69347636806e-05
0.000127130252114
0.203416962972
-0.0009351631076
-0.000505013615279
-0.202838975283
0.00046594568632
-0.000782912310997
0.203796402609
-8.4620687643e-05
0.000140129049678
0.203715248372
-0.000407277697901
-0.000507750004436
-0.000299493998057
-0.202738189111
0.000310965273099
-0.000444902972649
-0.000563775446821
-0.000439581250384
-0.000305288168253
-0.000305259904601
0.204333520705
-8.77002635816e-06
0.000145822037861
-0.000488103499794
0.0508429489657
-0.000124380976149
-0.000155732520557
-0.000127023357428
-0.000147451856529
-4.60526637387e-05
-0.0506346804094
-1.48240927678e-05
-0.0510166458694
0.0511669651864
-0.000146309403914
-0.000140133402141
-0.000151089846916
-0.000134423181564
2.99417864585e-05
-4.77900841e-05
1.34516637823e-05
0.000259402199013
1.70091362135e-05
1.49702921994e-05
1.97346915761e-05
-0.000358079804033
-0.000454943711505
6.23583690601e-06
0.000352342874247
-0.000552275599088
0.000200481870907
8.33352979566e-06
0.000324237120189
8.71793522941e-06
9.50933549024e-06
1.2688272963e-05
1.43142543672e-05
-0.000238420855034
7.89586427302e-25
-2.72707952311e-06
-2.91858787628e-06
-3.28149591784e-06
-4.43488726801e-07
-8.55927379879e-07
-1.76418060576e-07
-3.36975491958e-06
-0.000154982643459
-0.000164054215507
-0.000176754637539
-0.00014644989483
2.24273344706e-05
-6.16328512801e-05
0.000131658693602
0.0112346762767
3.76868453876e-05
-4.65584844182e-05
-0.0112969094575
0.0109960446998
-2.12486638835e-05
0.00017694345382
-0.0110740137516
2.25948353655e-05
-2.80049514361e-05
-5.23744393323e-05
-8.28783974346e-05
0.0512061546309
-7.26220511196e-05
-0.000110713278966
-9.90614143201e-05
7.32800237447e-05
-7.80072399207e-05
0.0512185085403
-8.06618935684e-05
-0.000115257889134
-0.000127631899715
-0.0511842036794
9.70765369343e-06
-1.98684648299e-05
0.000164704658197
0.0109356174186
2.99021752835e-05
-3.28530264731e-05
-1.23527051973e-05
0.0128187902497
2.12821599807e-05
-8.30077962736e-05
-0.0128259201037
0.0128198169191
8.03747618208e-06
-8.40388356272e-05
-0.0128323629064
-0.000322491138731
0.203317055021
-0.00126474617893
0.00106368564763
-0.202793478017
0.203603072802
-0.000154764361012
0.000409759491464
-0.000232095849447
-4.98917328861e-05
0.203410582351
0.000698459506953
-0.000455395012153
-0.000575273004989
0.203249125093
-0.00127754753673
0.0010197466933
-0.202738408003
0.203719664827
-0.00022182393511
0.000339358536615
-0.000195484431569
-1.58524950241e-05
0.203433001241
0.000633362906183
-0.000380333795289
-0.000215011991288
-0.000295119311227
-0.00028438290089
-0.00113368172449
0.203152603746
0.000871309530187
-0.20246170818
-0.000209222542444
-0.000116777618054
-1.06764966613e-05
-7.97708772225e-05
4.54847745872e-05
0.204030945005
0.000352817181895
-0.000110404717469
0.0506090884585
-7.19473719052e-05
-5.4006320309e-05
-6.32894061293e-05
-6.48964381514e-05
-0.0002598306246
-0.0505241188669
0.000213957294672
0.051214144677
-2.81363891002e-05
-6.34706423804e-05
-5.36366046511e-05
-2.94942914848e-05
-2.30273774062e-05
7.31367351226e-05
0.000200996351871
6.20144239939e-06
-0.000649156799083
3.42681863537e-06
3.43014708367e-06
-4.88402044069e-06
-4.83098912687e-06
-0.00028151251443
-1.16867757179e-06
-6.00050880029e-07
-1.02452840766e-06
-1.01858900402e-07
1.38215400781e-06
-2.20112219079e-07
-1.10310196661e-07
-7.28757916168e-07
0
0
0
0
4.0664472024e-30
0
0
0.000144851609121
-8.93989090847e-05
-0.000100244039814
-8.38338913949e-05
-0.000105017361072
0.0507344175286
-0.00018679383497
-9.06841617545e-05
-0.000107537092505
-8.34190026458e-05
-0.00010142184975
0.0506876113261
0.000103327090936
-0.0505474215901
-4.18554117475e-06
5.64032819835e-05
0.0115057488237
0.000122871465866
-0.000129704532333
-0.0115399160136
-9.51159520315e-06
0.000110909027771
-0.0114073872273
9.231987302e-05
-9.78704457526e-05
0.0113412822954
-9.27308898166e-05
0.0126166931129
-3.08193162898e-05
2.52265296441e-05
-0.0126087842027
-2.54438828255e-05
-9.72073236388e-06
1.97476893105e-05
-3.0028260973e-06
1.8191831706e-05
0.0511182549102
8.54393873517e-05
0.0512122648893
-5.57138468485e-05
-7.9129843324e-06
-5.92388176305e-05
-1.71462803884e-05
3.84027149794e-05
1.45824385804e-05
4.51081190384e-05
5.5955637359e-06
3.12862864231e-05
0.0510908501564
4.50139119137e-05
-5.11141766368e-06
1.59928395545e-05
-6.15499307158e-05
0.0128076838631
3.13050769301e-05
-2.76917841714e-05
-0.0108009742933
1.40351315261e-05
0.0107863135606
1.67593628127e-06
1.98168559982e-05
-6.4285382582e-05
0.0128047588873
-0.0127905942262
1.80642113222e-05
0.012772975568
-2.49374794832e-05
3.98033295228e-05
-2.02498845498e-05
1.85225099475e-05
2.46740295896e-05
2.22793969913e-05
-0.000250123282439
0.000272417658771
7.52427276593e-06
8.87357144195e-06
7.39664184401e-06
5.52925069361e-06
1.31408042536e-05
1.2723467063e-05
-0.000634153152492
0.000105782000023
0.000446800146908
-1.59298683127e-06
-4.32101742231e-06
3.53466967846e-06
3.02848390634e-07
2.47959326496e-06
-5.29852439725e-06
-1.91192938882e-06
8.4266880894e-06
1.88607795009e-05
2.23115221237e-05
2.12389248634e-05
-0.000181524577049
0.000198822736404
-2.15176249732e-06
-2.26656895329e-06
1.29571057879e-06
-1.96688426529e-05
0.0126552194465
-1.42815386079e-07
-0.0126275359744
-0.0126437862377
-0.00017762971039
2.59082096281e-05
0.0126800397526
-3.94434749524e-05
3.26433464802e-05
0.000161606518053
0.0111498519175
-3.97320571429e-05
0.000140977520416
0.011221311324
-0.0112915933343
3.23110843221e-05
-0.0126150643809
-3.39307951497e-05
0.011133676157
3.00274557063e-05
0.0126895596006
6.42331047946e-06
0.0127187170394
-0.000181237748701
3.3499655621e-05
-4.48014479956e-05
-3.44044015996e-05
-0.0127225508055
0.0127508006908
2.02110912284e-05
2.59584414179e-05
0.000158805583213
-3.11469385146e-05
0.000199659500979
-0.0110610078531
0.0109842319475
1.85298984038e-05
0.0127507202701
-4.21624092759e-05
2.32622043496e-05
1.37152011777e-05
-0.012790698574
-0.000164958607395
2.89035926422e-05
0.0128083425365
-2.6376360559e-05
-3.27060675806e-05
0.0127875316626
2.184964345e-05
3.45204042256e-05
0.000146218408229
0.0108912151743
-3.64872525901e-05
0.000185168612558
0.0109216797932
2.570674802e-05
-3.70269679618e-05
0.0108750004845
3.03049986096e-05
0.0128055993883
2.38404848283e-05
-6.75094992556e-05
-0.0128221450328
0.0128145080305
2.54406556399e-05
4.5711192725e-05
-0.0108548586814
0.0108450587538
-4.11699724716e-05
-0.0108372664784
4.576994356e-05
0.0108271613637
-0.00013487365842
2.54621205688e-05
-1.70161641584e-05
4.0993364126e-05
0.000116193834795
-4.11279823807e-05
4.03770309066e-05
2.76670708472e-05
-7.48214607257e-05
-0.0128434619336
0.0128259554296
2.12571052324e-05
3.19727298447e-05
-0.0108215357972
0.0108135042571
-0.010781953053
0.0107687330099
1.73807922287e-05
4.60696066602e-07
-0.000143968791955
-0.0128189983734
0.000145468256245
-2.46348659453e-05
-0.0108184834586
1.10609933025e-05
-0.0128354758703
1.22950555626e-05
-0.0108545004573
3.80075335802e-06
-0.000381009598814
7.19070998671e-06
9.66430144272e-06
9.1461607894e-06
6.58770774811e-06
0.000453384442138
-0.000560782665491
0.000377419543523
-3.24447974241e-06
3.68206227613e-06
2.06917523112e-06
-3.37131321088e-06
0.000532479959129
2.44953291154e-06
6.09685211993e-06
4.83279282285e-06
6.08694862023e-06
-0.000305213361356
0.000368829177827
-0.000658297334872
3.27294660142e-06
7.90122585363e-06
9.42842724028e-06
7.33853984387e-06
0.000348596760767
-0.000293180033778
2.14847759506e-06
-1.73367972208e-06
-1.96409821238e-06
2.02655070548e-06
-2.9812589208e-06
1.16841711947e-06
4.86953512712e-06
-0.000652004597334
3.6256865893e-07
-6.73003604252e-06
-3.08278700714e-05
-1.78331185416e-05
7.49132528905e-05
-2.75660130471e-08
-9.94619573043e-07
2.18348954634e-06
-1.59524954844e-06
1.27028083802e-06
-1.43282537188e-06
-0.000126115212772
-5.84768181908e-05
-6.93986557818e-05
-4.14329575239e-05
-3.11283380068e-05
-0.00043999415023
1.78837192037e-06
5.87445904579e-08
5.11882784246e-07
1.84967965449e-06
-1.5115695036e-07
-2.38978513223e-05
-3.49483757217e-05
-2.61373508401e-05
-0.000538999626026
-0.00023052238218
7.33636033544e-07
1.04342513702e-06
-4.87448729721e-05
-0.0126122705938
-8.45445631194e-05
0.0126282382253
4.55679200022e-05
0.0126172416088
5.59462021278e-05
-5.97079690805e-05
-0.0126109342494
7.6428849429e-05
0.000116726252159
0.0114589694897
-0.000121507083995
6.95734666877e-05
0.0114867960141
-0.0115159843704
0.000109278462364
0.0126344172429
-5.27046796133e-05
-0.012606092144
5.46571001597e-05
0.0114409504557
0.000103568792455
-4.24287851039e-05
0.0126378138544
-9.35702364069e-05
3.71693440965e-05
-0.0126454684512
3.57306419928e-05
-4.11154642883e-05
0.01266153453
9.0238140738e-05
0.000103079695067
-0.000107321642681
0.000112953255489
-0.0113841950821
8.12497310458e-05
0.0113150005886
-4.7084650514e-05
2.88174661391e-05
0.0126528119996
9.17869574085e-05
0.0113717129264
-8.09708883062e-05
6.81230957793e-05
-0.0114204760675
0.00012160623989
-7.23303883363e-05
0.0113048167453
6.11551740225e-05
-2.08416546043e-05
0.012635431353
1.66255169177e-05
0.0126295864663
-8.61894977009e-05
-0.0126203517335
0.000110424800481
-0.0113782892376
0.0113063357688
0.0126468319591
-0.0114324951542
-5.01144834961e-05
0.0128040271983
2.44547117175e-05
4.24298260623e-05
0.0108293337354
-3.22485043398e-05
0.0108043238279
4.71316842005e-05
1.18971313014e-05
-1.86736008561e-05
0.0127896969045
-3.11388237996e-06
1.37857167545e-05
3.51466929979e-05
0.0108265423545
-2.4194637305e-05
0.0127879066781
2.02694695836e-05
0.0107969354973
4.12300408006e-05
8.59561255123e-06
0.0127781412085
-5.00486404446e-06
-4.45538831887e-07
-0.0127781832265
-8.73903226323e-06
0.01276096124
1.90447766054e-05
1.34492875822e-06
2.49077172439e-05
-1.19510299059e-05
-3.08065915147e-05
-0.0107702457987
2.40381145348e-05
0.0107612747685
1.79715318981e-05
-1.15941810446e-06
0.0127589829668
3.13871771064e-05
-0.0128085951969
-6.13279919956e-06
-2.05994325512e-05
3.76518517982e-05
-5.37212586558e-05
3.28428822114e-05
3.41715497962e-05
0.0107970703815
0.0107527223888
2.43577594376e-05
-3.39401081132e-05
0.0107411713428
2.50602317325e-05
-2.03770397751e-05
0.012785570197
0.0107817718885
0.0107127018984
-2.89065337741e-05
1.8189915818e-05
-5.9656492131e-05
-2.32707066999e-05
0.0107072814506
1.46794395203e-05
-2.28149135852e-05
0.0127471610645
3.45507886237e-05
0.0127736921352
-6.76075607969e-06
-2.85407128969e-05
-0.0107540733254
0.0107436225722
0.0127533536586
4.64846344073e-06
5.67512040484e-05
7.65443966067e-05
0.00067777681168
0.203505270459
9.40891188725e-06
-0.000315317752591
-3.87194985713e-05
2.96590666911e-05
1.5329832986e-05
2.88679127237e-05
1.41365442486e-05
0.000100014922021
0.0509736392156
-2.85439016179e-05
6.44254868951e-05
-9.46670041892e-07
-3.9459745398e-05
-3.52157034684e-05
-4.46102234478e-05
-0.000192748158317
-0.000347828316438
0
0
0
0
2.2084848943e-29
0
-5.16542758686e-29
-0.000127556210914
-0.000108796394851
-0.000104184162213
-0.000129794730154
0.000322914208753
-8.78631059655e-05
0.0508768139016
-1.24040602803e-05
0.000126847153209
-5.7677521907e-05
0.0112422961987
0.0509222740197
4.14242505248e-05
3.76876112926e-05
2.63995976228e-05
5.1226935061e-05
2.98873073071e-05
0.0507984178549
3.52126349678e-05
3.64396521298e-05
2.9396378858e-05
4.14041424013e-05
7.38385093315e-05
-1.58405884502e-05
-3.05326978298e-05
0.010774265137
4.9680487757e-06
1.03702408981e-05
6.63709288239e-05
-5.75080185046e-05
-1.19863281613e-05
0.0107036799307
5.23535556826e-06
0.010735175066
3.82342960664e-05
-4.74960193678e-05
1.3819056502e-05
-0.0107239902008
-2.08902609198e-05
0.0506967971651
-1.85802171168e-05
1.49356151555e-05
7.42448849231e-06
-1.32893879852e-05
4.67385464278e-05
0.000115136591857
-5.07093062106e-05
-3.53174716639e-05
-5.61089580902e-05
-5.89011412673e-05
-3.24486762321e-05
0.000109701131151
0.000154937629618
0.0507024134182
-8.73414008488e-05
2.27871949176e-05
-2.85416059708e-05
2.11864537305e-05
0.0107498760182
-2.7857570761e-05
-1.11364852334e-05
8.35273326789e-05
4.64316490534e-05
-0.0107359529846
0.0107106870368
-4.77751037705e-05
1.12867328263e-05
1.55203959165e-05
1.41943649742e-05
-0.000330594149919
0.000277737194671
4.67330714177e-06
-0.000192308112066
-1.36165523394e-06
-4.67561356705e-05
-6.99380065053e-05
-5.32018237766e-05
-5.75502605117e-05
-6.59602091652e-07
1.42088837596e-05
-2.85601263066e-05
-4.7048681603e-05
-3.47527382033e-05
-2.53170205778e-05
-6.68085057387e-05
-2.41585568028e-08
1.630778871e-06
8.98129764362e-07
6.34293658196e-07
1.24604042712e-06
1.69623134356e-07
3.85711573848e-07
7.37252951677e-07
4.1080980202e-06
-9.80239710543e-06
3.02027271368e-07
2.03274804686e-06
-3.18917330319e-05
1.64661152198e-06
4.49909379835e-06
1.02551675278e-05
7.99443544048e-06
7.1841366276e-06
-8.88626870921e-05
4.48062859165e-06
-0.00011161238325
8.67025862594e-05
-0.0126712081127
-0.000145596123713
2.97896063631e-06
-1.41910537853e-05
0.0127009374948
-8.52057066998e-06
0.0126623601245
0.000117167594711
0.0112418886107
-6.75129070015e-05
-4.70322093609e-05
0.000151757433548
0.0111566055239
-1.95828033788e-05
-5.67256791854e-05
0.0111597592226
0.0126942730676
1.34935881943e-05
-0.012732653899
5.52460098169e-05
-8.53350801927e-06
0.0127022030094
0.012737063874
-9.90015167571e-06
1.93545333388e-05
-4.92860745467e-05
-2.81480341663e-06
1.5319347813e-05
0.0107645512652
-3.46330711027e-05
0.0107513896385
1.47971036339e-05
2.06785722921e-05
0.0127094847257
-3.33336759288e-06
7.14799657783e-06
0.0107424671533
-0.0127247775073
5.32306922525e-05
1.0833534087e-05
0.0126936982456
-1.85839630514e-05
0.0127166011205
2.97945828715e-05
-3.36490940216e-05
0.0107303949337
-4.79961952122e-06
-7.1791496301e-05
0.0107096049842
-2.89631106688e-06
0.0107240770123
0.0126867321322
2.07476408568e-05
0.0126651811011
4.74587142977e-05
1.8849910634e-06
1.42745955978e-05
2.08251733788e-06
-0.0126575834469
0.0126377150472
6.50148971262e-06
-3.34819500696e-05
-0.0107347067329
0.0107455553213
7.50062871172e-06
6.01861623792e-06
-6.08956554397e-05
-1.44134613413e-05
0.0126452916704
1.77195634098e-05
6.55689644186e-07
1.14944474963e-05
-0.012621941309
-2.84611648292e-05
-1.4041926922e-05
0.0126145147457
3.14746285741e-05
9.60987943274e-06
0.0126150465299
-7.1023422784e-07
-1.39802658316e-05
0.0107629956024
1.60633540945e-05
2.96229994498e-05
1.67541977858e-05
0.0107470745684
-3.41672420876e-05
2.62352925591e-05
0.0107594185892
2.38057950395e-05
0.0126086834914
-3.97034581791e-06
0.0126157430182
-5.2267057208e-05
-1.95403975573e-05
3.57551800999e-05
2.22971118247e-05
-0.0126112504152
0.0126263727106
-9.0880850459e-06
8.8804369532e-05
-0.0107432176152
3.65853817805e-05
0.0107096824147
3.94469769541e-05
4.62539081979e-05
-4.03107743035e-05
3.91230991318e-05
0.0126295601416
3.20318719567e-05
-7.73090331317e-06
-0.000678432686956
-0.0495043871363
0.0494070812984
0.000871953478219
3.31083609035e-06
-1.90194764704e-05
-5.87689520086e-06
-7.89167037356e-06
-6.65926436828e-05
-0.000883998139301
0.0499127305535
6.4515195716e-05
5.01104352517e-05
5.98292631037e-05
5.49802763372e-05
-0.00010472874645
-0.049867868094
0.000714420425138
-0.00121983455067
-0.0499868155848
0.0500816170156
0.00095003982865
7.90384098483e-05
6.54370268295e-05
6.7699855144e-05
7.73284095572e-05
-0.000114473409986
-0.00069548085776
5.59874770424e-05
6.59013977149e-05
6.79580972686e-05
5.6027994562e-05
-8.30097871833e-05
0.0502201986953
0.000484073348182
-0.0501716381448
3.76212109045e-07
0.000243354561657
-0.000610370911682
0.000629169951901
-0.000274119271066
6.32386853792e-07
2.84861232557e-07
-3.15961347103e-05
-2.44279503564e-05
-5.47547485984e-06
-0.000663577925659
0.000685305179021
-0.000278237206841
1.28508966549e-06
-3.33576291895e-06
-2.63755641337e-05
-2.45088631741e-05
0.00020153543758
-6.90045852186e-05
0.000152815622807
0.000656233825129
-1.77010123538e-06
-7.98289942199e-05
-5.84796543594e-05
-7.00115678099e-05
-0.000515127396069
2.61522151882e-05
-7.69836183376e-05
0.000179046426312
-0.000809266065786
0.000933454673154
3.11170510478e-05
-1.34292695163e-06
-8.13021716264e-05
-8.98967056223e-05
-8.86270507528e-05
-6.77721402775e-05
-0.000220031229059
-6.66663460705e-05
-5.5737070173e-05
-5.04072902594e-05
0.000839609874205
0.000360520241909
-1.3690445605e-06
-0.000728132801852
1.31691743611e-07
8.07110220941e-10
-1.89669824613e-07
-1.01269587776e-07
-1.47155922097e-07
-6.6052622487e-08
9.88253315037e-09
-7.02876464826e-08
-2.62691750533e-07
-4.59307701501e-07
-1.27670065148e-06
-6.76459286085e-07
-1.36650888602e-06
3.57921490605e-07
5.5124617696e-08
0
4.22175486464e-28
0
0
5.53957019844e-09
2.09649734191e-08
-2.56974333966e-08
-6.01346355938e-08
-2.14721577416e-07
-4.93136265397e-07
1.63565832766e-07
1.15922080993e-07
2.9713958946e-07
0
0
1.88237955966e-08
2.10510928977e-08
-3.98748884943e-08
2.4927472795e-27
0
9.43641865323e-08
7.51525043544e-08
9.4719095242e-08
9.17644490011e-08
5.64365613089e-07
-1.45130157652e-07
0.000218981558169
-5.60291834649e-05
-3.88132202581e-05
-4.99414376922e-05
-4.57725985692e-05
0.0491520789008
0.000134532969981
4.58258568118e-05
-0.049360611614
0.0492089052753
0.00049139939182
-5.9213807699e-05
-4.12473599017e-05
-4.9458125311e-05
-5.73514296131e-05
0.000139888905985
-0.049413526373
-3.66109199114e-06
5.66314027335e-05
-0.011577978515
-3.48400124886e-06
0.0115467012603
2.33562789144e-05
0.0115006327347
6.26138307529e-05
-3.29937696617e-06
5.87758786203e-05
-5.45771962807e-05
-0.0115253267509
1.51012895135e-06
-2.09465394828e-05
-2.47149114597e-05
6.18312431145e-06
-0.00033189793479
0.0122992680124
0.0122558788709
0.0121886177631
0.0122006091563
-4.38859937649e-05
6.67434984469e-05
-1.51688406814e-06
3.74758090724e-05
-5.61020706459e-05
0.0114799187364
0.000663676585773
-3.39464600591e-05
-2.45144805777e-05
-3.99651989995e-05
-1.87861152456e-05
4.47863748897e-06
-0.0495638297324
0.0496696437391
-1.60106974612e-05
1.61522987601e-05
1.41035799476e-07
8.94851176164e-06
-2.501061198e-05
-0.0496902301913
0.000699879466924
0.0115200960154
-2.56347855742e-07
4.04229932173e-05
-0.0115411804863
5.18909452249e-05
0.0115141881314
4.7280774616e-05
-2.21621275394e-05
-1.97889899833e-05
-0.0115419418883
6.93122187543e-06
0.00110605651077
2.27010164967e-05
2.49097072704e-05
1.44127029331e-05
3.2578933382e-05
0.0492611473669
-0.000235346962724
-0.000196769820162
-0.000227499327271
-0.000184999349407
-6.86688636333e-05
-4.33368684844e-05
-5.61077431812e-05
-4.20384858459e-05
0.0496443320489
1.54248401472e-05
3.4032856077e-05
1.34283731823e-05
4.34348157362e-05
-9.319788329e-05
0.0497342659829
0.00103635921041
2.82975212803e-05
5.47685865113e-05
3.55964701502e-05
5.09463525248e-05
-0.000190045421214
3.47639383358e-05
0.0114961909694
6.34238989648e-05
0.0114727783958
9.65267386211e-06
2.62106880008e-06
-0.0114777429839
0.000113227085739
-0.000114791296426
1.92733875057e-05
7.4332306033e-05
-4.71645652551e-05
-3.60626815875e-05
0.0114834703334
0.0114394137089
6.26641379221e-05
8.79238617632e-05
-7.11727506588e-05
-8.77092306085e-05
-0.0114407540564
0.0498786709442
4.20215099576e-05
5.30030027113e-05
3.47580056878e-05
6.02651115775e-05
-0.00133634859145
-0.000218204131565
0.00140579515974
3.77673328944e-05
6.42906892396e-05
5.67896973279e-05
4.63405126733e-05
0.0503765178568
-0.000355640381009
-0.00175341864312
1.96631673208e-06
0.0114777575749
0.000133783109767
-0.000140967394474
-1.2663591189e-06
-1.78562502552e-05
-0.0115138358009
0.000180279071727
0.0115416497333
-0.000188477410326
7.39161994094e-05
8.36509890245e-05
-7.00029366633e-05
-9.95565769623e-05
0.0114471682698
0.000121666207911
6.11946317e-05
-6.03725991607e-05
-0.000145470318769
-0.0114826180038
0.0114985881978
0.000829061379675
7.54391448461e-05
7.09158919921e-05
6.71210638101e-05
8.211070246e-05
-0.000162440527013
0.0501061687373
7.34049221157e-05
7.88830290308e-05
8.25377877589e-05
6.86409992465e-05
-0.000147181562132
-0.0500615546264
0.00062815079825
-7.73737208411e-05
0.0114896116004
3.46315507175e-05
-0.0115218624635
0.011442102573
8.28329680036e-05
-0.000101335703581
-0.0114451487328
7.18246476895e-05
0.0114647119344
7.84227305111e-05
-0.00011249429362
-0.000105201134574
-0.0114745880429
0.000127983369184
0.00104888178944
7.3052474892e-05
6.01871209311e-05
5.99729582241e-05
7.31820750297e-05
0.0503311192137
-0.000158967436191
0.0501754915684
8.21904543376e-05
7.94502313572e-05
8.08972161584e-05
8.09680195758e-05
-0.000138324303277
7.78332183811e-05
7.42131927194e-05
7.67373229291e-05
7.70281277195e-05
0.0503133425647
0.000754050471401
-0.000148818550664
-9.94510824314e-05
0.0114470089543
8.15881982428e-05
5.93613544438e-05
-7.97452467289e-05
-0.0114696579918
0.000115558235495
0.0114910007362
0.000134621029594
7.84895249879e-05
-0.00011690582354
-0.000113031980945
0.0114665652281
0.000155611175697
5.66942304462e-05
-9.92233295812e-05
-0.00013794327188
-0.0114836545768
0.0115014419565
-0.000102499881564
0.0114736625664
0.000154656530636
-0.011472061421
-9.26602306439e-05
-0.0114916294235
0.0115072342221
5.38909576317e-05
0.000170831444372
-8.35816537963e-05
3.87328053529e-06
6.38469044767e-06
6.4141309234e-06
0.000675213111737
-6.14415715335e-05
-0.000753271412707
5.12411474887e-06
0.000677866546304
-0.0002044803798
5.87593957119e-06
5.11203314323e-06
6.75336434536e-06
-0.000745991467431
4.55363990305e-06
4.04418294619e-06
2.9756864174e-06
6.38669698258e-07
7.97442420964e-07
0.000103674751561
0.000655424536356
2.18784102078e-06
-3.98935496869e-07
-5.09163686222e-06
1.08194740842e-07
-1.36891087827e-06
-2.31830653521e-07
2.79586244142e-06
-3.12004710419e-06
-1.20343960524e-07
2.61218456637e-06
-6.62734635229e-07
-1.77159841409e-06
3.33298907423e-06
-5.08756261655e-07
-3.1355507132e-06
2.38575573288e-06
-1.01456175924e-07
-8.09257116517e-07
-2.66298409039e-07
-1.45279343696e-07
3.93448846723e-06
-1.91542142437e-06
-8.12942756311e-07
3.65838885603e-06
-4.68104836075e-07
-2.86849248819e-06
-6.40982811269e-07
4.8843321189e-06
-2.33914170673e-06
-0.000233940788645
9.99916564937e-07
-2.46353025255e-05
-3.47321469921e-06
2.07930595668e-06
-0.000643946161553
0.000519977756631
-2.41569855607e-05
-4.38195490131e-05
-1.35170718339e-05
-0.000498074261932
-7.02829060329e-07
-0.000157535580517
-0.000290572294538
6.86082837622e-07
-7.40784081662e-06
-3.53755878924e-05
-3.13405588211e-05
0.000229778154481
0.000627581682045
-1.55902371069e-06
-2.7909476812e-05
-8.41309300693e-05
-2.94210896946e-05
-1.17299110665e-06
0.000736868323285
-0.000171647955295
-4.57202988435e-05
-9.18964751044e-05
-3.74702701185e-05
2.02867875468e-06
-4.02877538426e-07
-1.57384161008e-06
-2.61448924268e-07
2.38274139231e-06
1.32353690385e-06
-1.99573560171e-07
-1.46188292658e-06
1.47072895429e-06
-1.12110926977e-07
-0.000254839545381
1.67839290636e-06
8.19098092151e-07
1.89095446392e-07
1.55730782076e-07
0.000670946812149
0.000183204118064
0.000830281731123
-1.21807097595e-06
-4.57145489947e-05
-8.48069361996e-05
-4.2845341411e-05
-1.47943856113e-06
-0.00015713517325
-2.00598814559e-05
-5.90938636503e-05
-1.84835627366e-05
0.00086758982264
2.89270792434e-06
-1.97984519921e-07
-1.61157104218e-07
4.43239139203e-06
1.58331654078e-06
-4.23558776629e-08
3.83094898134e-08
1.87838221815e-06
3.70708587852e-05
-1.25574526092e-06
-8.05664768183e-05
-9.35994843399e-05
-9.58387768079e-05
-1.11915962295e-06
0.000796345407508
-8.64944470726e-05
-6.88764073893e-05
-8.14058699486e-05
-0.00061858754762
0.00020045157242
1.01743544343e-06
-1.18275270212e-06
-1.01429799872e-07
-5.55176993309e-08
1.04586057723e-06
1.0142077856e-06
-1.01124634176e-06
-2.61075641487e-08
4.34052493644e-05
-1.45298757032e-06
-6.70435404375e-05
-6.73126705162e-05
-7.60749769567e-05
0.00100761798255
0.000938141965771
-1.24691805275e-06
-8.1980702091e-05
-7.55661726919e-05
-8.13088552475e-05
-1.28067683761e-06
-6.89570470086e-05
-6.63268287709e-05
-7.16536318099e-05
0.00102733788527
0.000233519640362
1.12981009233e-06
-5.12835865543e-09
2.85154930045e-08
1.31154005113e-06
1.13241403523e-06
-1.98784450997e-08
1.31178513596e-06
-4.88218514495e-08
0.0124035668984
-8.89039677482e-05
-4.77519642362e-06
4.6167463735e-05
-0.0124113870836
1.77170174973e-05
-0.0123917031675
0.0123688605039
2.33408908188e-05
-1.05745819387e-05
6.78095083554e-05
2.42644639773e-05
-0.0116075794204
7.47246758181e-05
-0.0115569603593
2.74868299105e-05
0.0115201303556
6.50034806449e-05
0.012381612151
1.38949441613e-05
-0.0115928609449
3.05371151544e-05
-0.0124042063291
0.0124140636275
9.34879918024e-05
-9.66380204928e-05
-0.0124230457964
-0.000109646458356
-0.0124238411228
0.0124079694635
0.000143516248923
7.44243458532e-05
-0.0115367260235
0.0114996896078
8.4799759378e-05
-3.56064529241e-05
4.67399851871e-05
-0.0115688590815
0.0123951951897
0.000132418922915
-0.0124345966011
-0.0115767806382
-0.0123703661794
0.000138977026265
-1.19184346053e-05
-9.13641089414e-05
0.0123365693696
-0.000120111703268
0.0123870143472
0.000157989281676
4.52100613778e-05
0.0114752825514
-3.65583595619e-05
7.52196186966e-06
-6.5743559629e-05
8.27892221258e-05
0.0114727365878
-7.44098959619e-05
0.000178683708199
0.0123612307753
-4.55118068463e-05
0.0114677497922
-0.000162605338906
0.0124588006767
-4.33801989159e-05
0.000178395218782
-0.0124650145542
-0.0124425002344
0.000175188724986
0.012426828947
6.10688937429e-05
3.25253487835e-05
-0.0115783631059
2.02338495202e-05
-0.0115395648208
3.00982635303e-05
0.0115063299995
-0.0124512881693
0.00018821462039
0.0124473118392
1.71281870011e-05
-0.0115742728115
0.012477187764
0.00018897760714
-2.15662851808e-05
-0.0124823392895
-0.000203219884233
-0.0124962532255
0.0124927264078
0.000200679385458
6.77697731151e-06
-0.0115516968608
0.0115177222137
-1.26826451863e-05
-1.03280820144e-05
-0.0115855650623
3.03651509384e-06
0.0124689608148
-0.0124968988955
0.000185804892639
-0.0115905642991
-0.000214214181961
-0.0124328216136
-5.37482004383e-06
0.012420400185
0.000235392413574
0.0124079456121
0.000192650597432
2.2967433946e-05
7.92047379448e-05
0.0114853270667
1.04590514786e-05
0.0114792162987
4.38335799244e-05
0.0123896177508
0.000209690053618
0.0114683269101
6.09662117056e-05
-0.000240820850903
0.0124147781267
4.8882238161e-06
0.000264512053494
-0.0123782148597
0.000273569731394
0.0123677620195
-0.00023532513905
1.08739428513e-05
9.65517293279e-05
-9.88343842129e-05
-1.78187819829e-05
-0.0114642169736
0.000100200115532
0.0114625594859
-0.000203876586382
0.000293759291431
0.0124097612157
8.04704021318e-05
-0.0124611850572
0.000253433024048
4.26862465598e-06
0.0124544457819
-0.000229806063253
0.0124875413214
0.000221944442314
-9.97325896181e-07
0.0114854289074
-6.23755015063e-05
-4.89215789128e-05
0.0114532590429
3.1135331434e-05
0.0124805051935
0.000241437002059
0.0114664711426
0.012448401737
0.00027792687929
2.10078406252e-05
-0.000300666845774
-0.0124750944783
0.0124747705925
0.000284434436544
-3.21272706914e-05
-0.0114589585853
0.0114550461813
-7.00393865443e-05
-6.8445240199e-05
4.5465798179e-05
0.0124449255943
0.000263993117969
-0.000341598465676
-0.0124126643192
2.43184288847e-05
0.012423492546
0.000358463369667
-5.16443856428e-05
0.0123667287729
0.000306504274624
-3.21094581241e-05
-0.000271178324265
-1.09336516717e-05
0.000152862645192
0.0114987334354
-0.000159798310978
-1.50921756576e-05
0.0114673670763
0.000118912530264
0.0123838308225
-5.35323208833e-05
-0.000315827018496
0.000325576525123
-3.67165379523e-05
0.0114827546854
0.000140514078253
-0.000371885624192
1.3562656654e-05
0.0124754172542
0.000386530630186
-7.96485748902e-05
-0.0124470284394
0.000395495877028
0.0125264768106
-0.000385275986725
-0.000107311694803
-7.21685668835e-06
0.000169107219325
-0.000177430926674
-0.0115079331058
-2.23925495598e-05
0.000173810463853
0.0115363781721
-0.000354586811878
-8.74332172101e-05
0.000158363965362
0.00040864898011
0.0125388575033
-9.85915383406e-05
-0.0124483032051
0.000354302209564
3.38034751823e-05
0.0124608613628
-0.000326634325657
0.0124768550794
0.000307500498586
-3.02397246429e-05
0.011456389933
-7.41116103467e-05
-0.00011834896394
0.0114606024279
9.12997999049e-05
0.012487666775
0.00032982081428
0.0114718985552
0.000375953170491
1.401934649e-05
0.0124957936838
-0.0125127318409
-0.000389894484846
0.000359247517373
0.0125478476461
-0.0114970922968
-1.53352669832e-05
0.0115174822011
-5.9842772739e-05
-0.00013209876356
0.000106957693131
0.000348349658939
0.0125461431683
-0.000213003299158
-0.0125275123819
9.78915945847e-05
0.0125238050745
0.000182987915848
0.0125117854354
0.000198655704072
-0.0125160124265
-9.48724982858e-05
4.74263348255e-05
0.011456550008
-8.32802581655e-05
0.011491906993
-0.0115149499214
6.14903644515e-05
0.0125048022845
-0.0125295931941
0.000172034205842
0.0114749485628
7.03554095795e-05
-0.00023532169859
0.0125196180934
0.000114013249994
0.000200668636472
-0.0125006659158
0.000253610382684
0.0125007501093
-9.94781399557e-05
5.96235913217e-05
-0.000120444881511
-0.0114520685492
8.56017705558e-05
0.0114468763492
0.000215789001178
0.0125188050045
7.51773389139e-05
0.0125361999211
0.000169154848807
0.000108259180897
-0.0125401634428
-0.000182160516754
-0.0125475858506
0.0125442495049
0.000151451375637
-0.000118491636263