/*--------------------------------*- C++ -*----------------------------------*\
| =========                 |                                                 |
| \\      /  F ield         | OpenFOAM: The Open Source CFD Toolbox           |
|  \\    /   O peration     | Version:  v1906                                 |
|   \\  /    A nd           | Web:      www.OpenFOAM.com                      |
|    \\/     M anipulation  |                                                 |
\*---------------------------------------------------------------------------*/
FoamFile
{
    version     2.0;
    format      ascii;
    class       volVectorField;
    location    "6.45";
    object      force.turbine;
}
// * * * * * * * * * * * * * * * * * * * * * * * * * * * * * * * * * * * * * //

dimensions      [1 -2 -2 0 0 0 0];


internalField   nonuniform List<vector> 
28582
(
(0 0 0)
(0 0 0)
(0 0 0)
(0 0 0)
(0 0 0)
(0 0 0)
(0 0 0)
(0 0 0)
(0 0 0)
(0 0 0)
(0 0 0)
(0 0 0)
(0 0 0)
(0 0 0)
(0 0 0)
(0 0 0)
(0 0 0)
(0 0 0)
(0 0 0)
(0 0 0)
(0 0 0)
(0 0 0)
(0 0 0)
(0 0 0)
(0 0 0)
(0 0 0)
(0 0 0)
(0 0 0)
(0 0 0)
(0 0 0)
(0 0 0)
(0 0 0)
(0 0 0)
(0 0 0)
(0 0 0)
(0 0 0)
(0 0 0)
(0 0 0)
(0 0 0)
(0 0 0)
(0 0 0)
(0 0 0)
(0 0 0)
(0 0 0)
(0 0 0)
(0 0 0)
(0 0 0)
(0 0 0)
(0 0 0)
(0 0 0)
(0 0 0)
(0 0 0)
(0 0 0)
(0 0 0)
(0 0 0)
(0 0 0)
(0 0 0)
(0 0 0)
(0 0 0)
(0 0 0)
(0 0 0)
(0 0 0)
(0 0 0)
(0 0 0)
(0 0 0)
(0 0 0)
(0 0 0)
(0 0 0)
(0 0 0)
(0 0 0)
(0 0 0)
(0 0 0)
(0 0 0)
(0 0 0)
(0 0 0)
(0 0 0)
(0 0 0)
(0 0 0)
(0 0 0)
(0 0 0)
(0 0 0)
(0 0 0)
(0 0 0)
(0 0 0)
(0 0 0)
(0 0 0)
(0 0 0)
(0 0 0)
(0 0 0)
(0 0 0)
(0 0 0)
(0 0 0)
(0 0 0)
(0 0 0)
(0 0 0)
(0 0 0)
(0 0 0)
(0 0 0)
(0 0 0)
(0 0 0)
(0 0 0)
(0 0 0)
(0 0 0)
(0 0 0)
(0 0 0)
(0 0 0)
(0 0 0)
(0 0 0)
(0 0 0)
(0 0 0)
(0 0 0)
(0 0 0)
(0 0 0)
(0 0 0)
(0 0 0)
(0 0 0)
(0 0 0)
(0 0 0)
(0 0 0)
(0 0 0)
(0 0 0)
(0 0 0)
(0 0 0)
(0 0 0)
(0 0 0)
(0 0 0)
(0 0 0)
(0 0 0)
(0 0 0)
(0 0 0)
(0 0 0)
(0 0 0)
(0 0 0)
(0 0 0)
(0 0 0)
(0 0 0)
(0 0 0)
(0 0 0)
(0 0 0)
(0 0 0)
(0 0 0)
(0 0 0)
(0 0 0)
(0 0 0)
(0 0 0)
(0 0 0)
(0 0 0)
(0 0 0)
(0 0 0)
(0 0 0)
(0 0 0)
(0 0 0)
(0 0 0)
(0 0 0)
(0 0 0)
(0 0 0)
(0 0 0)
(0 0 0)
(0 0 0)
(0 0 0)
(0 0 0)
(0 0 0)
(0 0 0)
(0 0 0)
(0 0 0)
(0 0 0)
(0 0 0)
(0 0 0)
(0 0 0)
(0 0 0)
(0 0 0)
(0 0 0)
(0 0 0)
(0 0 0)
(0 0 0)
(0 0 0)
(0 0 0)
(0 0 0)
(0 0 0)
(0 0 0)
(0 0 0)
(0 0 0)
(0 0 0)
(0 0 0)
(0 0 0)
(0 0 0)
(0 0 0)
(0 0 0)
(0 0 0)
(0 0 0)
(0 0 0)
(0 0 0)
(0 0 0)
(0 0 0)
(0 0 0)
(0 0 0)
(0 0 0)
(0 0 0)
(0 0 0)
(0 0 0)
(0 0 0)
(0 0 0)
(0 0 0)
(0 0 0)
(0 0 0)
(0 0 0)
(0 0 0)
(0 0 0)
(0 0 0)
(0 0 0)
(0 0 0)
(0 0 0)
(0 0 0)
(0 0 0)
(0 0 0)
(0 0 0)
(0 0 0)
(-0.00204300156397 3.50212342608e-05 0)
(0 0 0)
(0 0 0)
(0 0 0)
(0 0 0)
(-2.57638789034e-05 2.57769802703e-07 0)
(0 0 0)
(-2.59751447619e-06 2.56357708701e-08 0)
(0 0 0)
(0 0 0)
(0 0 0)
(0 0 0)
(0 0 0)
(0 0 0)
(0 0 0)
(0 0 0)
(0 0 0)
(0 0 0)
(0 0 0)
(0 0 0)
(-0.0160765051666 0.000450336388395 0)
(0 0 0)
(0 0 0)
(0 0 0)
(-0.0297119656202 0.00060837695524 0)
(0 0 0)
(0 0 0)
(-0.125235457506 -0.00607805152797 0.0197854262786)
(-1.09931606848 -0.0689435108444 0.208993832555)
(-0.0808031465953 0.00165451094444 0)
(-0.778813570591 0.015919983859 0)
(-0.0060071092299 6.09151309704e-05 0)
(-0.0803571504863 0.00164537880696 0)
(0 0 0)
(0 0 0)
(0 0 0)
(0 0 0)
(0 0 0)
(-0.0160764893881 0.000450335946406 0)
(0 0 0)
(0 0 0)
(0 0 0)
(-0.0294983169451 0.00060400232274 0)
(0 0 0)
(0 0 0)
(0 0 0)
(0 0 0)
(0 0 0)
(0 0 0)
(0 0 0)
(0 0 0)
(-1.64734628707e-05 1.65763286023e-07 0)
(0 0 0)
(-1.01184587667e-05 1.01816417582e-07 0)
(-0.000140631748373 1.97822944791e-06 0)
(-0.000751247191522 1.0567594687e-05 0)
(-8.80417284376e-05 1.23845960713e-06 0)
(-0.000461738002655 6.49514583043e-06 0)
(0 0 0)
(0 0 0)
(-0.00021730308236 2.19610233816e-06 0)
(0 0 0)
(0 0 0)
(0 0 0)
(0 0 0)
(0 0 0)
(0 0 0)
(-0.00907315793739 0.000155532523917 0)
(-0.000441379289284 6.3681193449e-06 0)
(-0.00205823243111 3.52823225416e-05 0)
(-3.02185795032e-05 3.85930226092e-07 0)
(-0.000153056126263 2.15299987136e-06 0)
(-3.7602925736e-06 3.71116310246e-08 0)
(-2.95868246896e-05 3.77861902496e-07 0)
(0 0 0)
(0 0 0)
(0 0 0)
(0 0 0)
(0 0 0)
(-0.000226992728254 2.2940275667e-06 0)
(0 0 0)
(0 0 0)
(0 0 0)
(0 0 0)
(0 0 0)
(0 0 0)
(0 0 0)
(0 0 0)
(0 0 0)
(0 0 0)
(0 0 0)
(0 0 0)
(0 0 0)
(0 0 0)
(0 0 0)
(0 0 0)
(0 0 0)
(0 0 0)
(0 0 0)
(0 0 0)
(-0.00521707758832 5.30240913802e-05 0)
(0 0 0)
(0 0 0)
(0 0 0)
(0 0 0)
(0 0 0)
(-0.00470490318246 4.77101019133e-05 0)
(0 0 0)
(0 0 0)
(0 0 0)
(0 0 0)
(0 0 0)
(0 0 0)
(0 0 0)
(0 0 0)
(0 0 0)
(0 0 0)
(0 0 0)
(0 0 0)
(0 0 0)
(0 0 0)
(0 0 0)
(0 0 0)
(0 0 0)
(0 0 0)
(0 0 0)
(0 0 0)
(0 0 0)
(0 0 0)
(-0.0362804032611 0.00084234413979 0)
(-0.00876582747292 0.000140626185137 0)
(-0.0144285486462 0.000231470646605 0)
(-0.0103112130128 0.000178218201562 0)
(-0.0194189370608 0.000450861246398 0)
(0 0 0)
(0 0 0)
(0 0 0)
(0 0 0)
(0 0 0)
(0 0 0)
(0 0 0)
(0 0 0)
(0 0 0)
(0 0 0)
(-0.00531321940194 5.38787365698e-05 0)
(0 0 0)
(-0.00803007464258 0.000138791183872 0)
(0 0 0)
(0 0 0)
(-0.13048802837 0.00301054689929 0)
(-0.101623937499 0.00234461071834 0)
(-0.197127941504 0.00402955696382 0)
(-0.0431510185968 0.000883552628089 0)
(-0.265385782893 0.00419124965561 0.00413518380186)
(-0.0527873998427 0.00122559709693 0)
(-0.103592300546 0.00212113763182 0)
(-0.374965925945 -0.000671579080223 0.020326337808)
(-1.37770652009 -0.00971073240822 0.0922022889198)
(-0.417152305072 0.00852714720731 0)
(-0.416382544298 0.00851141227463 0)
(-0.752666638086 -0.00614618452057 0.0520875892286)
(-0.222831388824 0.0045549695682 0)
(-0.733222978174 -0.00419448538828 0.0464575825665)
(-0.0616336447839 0.0014219770236 0)
(-0.00909904846187 0.000157267243997 0)
(-0.0203288934567 0.00041625082846 0)
(-0.0202949240586 0.00041555527707 0)
(-0.0249336914882 0.000578900646646 0)
(-0.0249334632132 0.000578895346647 0)
(-0.0487920937755 0.000999058286159 0)
(-0.135221155118 0.00273565181796 0.000792754549333)
(-0.101623670738 0.00234460456378 0)
(-0.196245856729 0.00401152597936 0)
(-0.0429877906003 0.00088021040049 0)
(-0.0527859275653 0.00122556291417 0)
(-0.103359735346 0.0021163756679 0)
(-0.293657501289 0.00218818025735 0.00991448630852)
(0 0 0)
(0 0 0)
(0 0 0)
(0 0 0)
(0 0 0)
(0 0 0)
(0 0 0)
(0 0 0)
(0 0 0)
(0 0 0)
(0 0 0)
(0 0 0)
(0 0 0)
(0 0 0)
(0 0 0)
(0 0 0)
(0 0 0)
(0 0 0)
(0 0 0)
(0 0 0)
(0 0 0)
(0 0 0)
(0 0 0)
(-0.00529603617412 5.37044899342e-05 0)
(0 0 0)
(-0.00802988634263 0.000138787929311 0)
(0 0 0)
(0 0 0)
(0 0 0)
(-0.0362797516639 0.000842329011263 0)
(-0.0143499772297 0.000230210161088 0)
(-0.00870230617046 0.000139607141759 0)
(-0.0194183429239 0.000450847451962 0)
(0 0 0)
(-0.01031092984 0.000178213307225 0)
(0 0 0)
(0 0 0)
(0 0 0)
(0 0 0)
(0 0 0)
(0 0 0)
(0 0 0)
(0 0 0)
(0 0 0)
(0 0 0)
(0 0 0)
(0 0 0)
(0 0 0)
(0 0 0)
(0 0 0)
(0 0 0)
(0 0 0)
(0 0 0)
(0 0 0)
(0 0 0)
(0 0 0)
(0 0 0)
(0 0 0)
(0 0 0)
(0 0 0)
(0 0 0)
(0 0 0)
(0 0 0)
(0 0 0)
(0 0 0)
(0 0 0)
(0 0 0)
(0 0 0)
(0 0 0)
(0 0 0)
(0 0 0)
(-0.0150093853271 0.000274208647405 0)
(0 0 0)
(0 0 0)
(0 0 0)
(0 0 0)
(0 0 0)
(0 0 0)
(0 0 0)
(-0.00334904568816 6.11842036321e-05 0)
(0 0 0)
(0 0 0)
(0 0 0)
(0 0 0)
(0 0 0)
(0 0 0)
(0 0 0)
(0 0 0)
(0 0 0)
(0 0 0)
(0 0 0)
(0 0 0)
(0 0 0)
(0 0 0)
(0 0 0)
(0 0 0)
(0 0 0)
(0 0 0)
(0 0 0)
(0 0 0)
(0 0 0)
(0 0 0)
(0 0 0)
(0 0 0)
(0 0 0)
(0 0 0)
(0 0 0)
(-0.32105589237 0.00819506876508 0)
(-0.00770645377843 0.000140790326907 0)
(0 0 0)
(0 0 0)
(0 0 0)
(0 0 0)
(0 0 0)
(0 0 0)
(-0.0705001525774 0.00181672031238 0)
(0 0 0)
(0 0 0)
(0 0 0)
(0 0 0)
(0 0 0)
(0 0 0)
(0 0 0)
(0 0 0)
(0 0 0)
(0 0 0)
(0 0 0)
(0 0 0)
(0 0 0)
(0 0 0)
(0 0 0)
(0 0 0)
(0 0 0)
(0 0 0)
(0 0 0)
(0 0 0)
(0 0 0)
(0 0 0)
(0 0 0)
(0 0 0)
(0 0 0)
(0 0 0)
(0 0 0)
(-1.51019556735 0.0499936028849 0)
(-0.0430354524402 0.00144992530756 0)
(0 0 0)
(0 0 0)
(0 0 0)
(0 0 0)
(0 0 0)
(0 0 0)
(-0.331264754904 0.0108441134308 0)
(-0.00654532319373 0.000240347817392 0)
(0 0 0)
(0 0 0)
(0 0 0)
(0 0 0)
(0 0 0)
(0 0 0)
(0 0 0)
(0 0 0)
(0 0 0)
(0 0 0)
(0 0 0)
(0 0 0)
(0 0 0)
(0 0 0)
(0 0 0)
(0 0 0)
(0 0 0)
(0 0 0)
(0 0 0)
(0 0 0)
(0 0 0)
(0 0 0)
(0 0 0)
(0 0 0)
(0 0 0)
(0 0 0)
(0 0 0)
(0 0 0)
(0 0 0)
(0 0 0)
(0 0 0)
(0 0 0)
(0 0 0)
(-2.56879852619 0.0701758879515 0)
(-0.0775746355362 0.00211922767619 0)
(0 0 0)
(0 0 0)
(0 0 0)
(0 0 0)
(0 0 0)
(0 0 0)
(-2.56883744519 0.0701769511625 0)
(-0.573186977102 0.0156586453434 0)
(-0.0160766754987 0.000450341159752 0)
(0 0 0)
(0 0 0)
(0 0 0)
(0 0 0)
(0 0 0)
(0 0 0)
(-0.0470495280492 0.00128532556169 0)
(-0.0775716379142 0.00211914578546 0)
(-0.0160765211494 0.000450336836107 0)
(0 0 0)
(0 0 0)
(0 0 0)
(0 0 0)
(0 0 0)
(0 0 0)
(0 0 0)
(0 0 0)
(0 0 0)
(0 0 0)
(0 0 0)
(0 0 0)
(0 0 0)
(0 0 0)
(0 0 0)
(0 0 0)
(0 0 0)
(0 0 0)
(0 0 0)
(0 0 0)
(0 0 0)
(0 0 0)
(0 0 0)
(0 0 0)
(0 0 0)
(0 0 0)
(-0.0445315429697 0.00076364681404 0)
(-0.00152718485703 2.61790786561e-05 0)
(0 0 0)
(0 0 0)
(0 0 0)
(0 0 0)
(0 0 0)
(0 0 0)
(-0.0247067030406 0.000423681592961 0)
(-0.0414456372567 0.000710728322809 0)
(-0.00958602522151 0.000164324120369 0)
(-0.00026651365383 2.6934328403e-06 0)
(0 0 0)
(0 0 0)
(0 0 0)
(0 0 0)
(0 0 0)
(0 0 0)
(-0.000717951703147 1.03584428189e-05 0)
(-0.00123343044309 2.11435259051e-05 0)
(-0.000230694768761 2.33144102501e-06 0)
(0 0 0)
(0 0 0)
(0 0 0)
(0 0 0)
(0 0 0)
(0 0 0)
(0 0 0)
(0 0 0)
(0 0 0)
(0 0 0)
(0 0 0)
(0 0 0)
(0 0 0)
(0 0 0)
(0 0 0)
(0 0 0)
(0 0 0)
(0 0 0)
(0 0 0)
(0 0 0)
(0 0 0)
(0 0 0)
(0 0 0)
(0 0 0)
(0 0 0)
(0 0 0)
(-0.000198156255351 2.22587314627e-06 0)
(-0.000194773325316 2.18787296754e-06 0)
(-2.51752618426e-05 2.51880638878e-07 0)
(0 0 0)
(0 0 0)
(0 0 0)
(0 0 0)
(0 0 0)
(0 0 0)
(0 0 0)
(-2.54944046705e-05 2.55073690052e-07 0)
(-2.52255377013e-05 2.52383653126e-07 0)
(-2.57001697703e-06 2.53643885181e-08 0)
(0 0 0)
(0 0 0)
(0 0 0)
(0 0 0)
(0 0 0)
(0 0 0)
(0 0 0)
(0 0 0)
(0 0 0)
(0 0 0)
(0 0 0)
(0 0 0)
(0 0 0)
(0 0 0)
(0 0 0)
(0 0 0)
(0 0 0)
(0 0 0)
(0 0 0)
(0 0 0)
(0 0 0)
(0 0 0)
(0 0 0)
(0 0 0)
(0 0 0)
(0 0 0)
(0 0 0)
(0 0 0)
(0 0 0)
(0 0 0)
(0 0 0)
(0 0 0)
(0 0 0)
(0 0 0)
(0 0 0)
(0 0 0)
(-0.00334905318038 6.11843405086e-05 0)
(-0.00910364689808 0.00016631585158 0)
(-0.00203129736014 3.71100674319e-05 0)
(-0.0865035779078 0.00190862466498 0)
(-0.0177317786396 0.000323944447483 0)
(-0.052467187999 0.00115764193273 0)
(-0.0107547644701 0.000196480359072 0)
(0 0 0)
(0 0 0)
(0 0 0)
(-0.00239977454924 4.38418308867e-05 0)
(0 0 0)
(0 0 0)
(0 0 0)
(0 0 0)
(0 0 0)
(0 0 0)
(-0.0177315157165 0.000323939644103 0)
(-0.00395643832651 7.22807482391e-05 0)
(-0.00395642898526 7.22805775825e-05 0)
(0 0 0)
(0 0 0)
(0 0 0)
(0 0 0)
(0 0 0)
(0 0 0)
(0 0 0)
(0 0 0)
(-0.0705015532158 0.00181675640546 0)
(-0.194728935438 0.00497052710879 0)
(-0.0427607108783 0.00110190189928 0)
(-0.799911667558 0.0237025867227 0)
(-0.176363050162 0.0052679036849 0)
(-0.485172138538 0.0143763807374 0)
(-0.106969331274 0.00319513715527 0)
(0 0 0)
(-0.00467411605813 8.53921072836e-05 0)
(0 0 0)
(-0.0227312882328 0.000701096377132 0)
(0 0 0)
(-0.0121623738361 0.000364871774266 0)
(0 0 0)
(-0.0148965952036 0.000374376163908 0)
(-0.0148965278788 0.000374374471925 0)
(-0.00283491382526 5.17914537201e-05 0)
(-0.176360069841 0.00526781466374 0)
(-0.0374762207689 0.0011558712529 0)
(-0.0374758667047 0.00115586033257 0)
(-0.00737656493034 0.000221297287059 0)
(0 0 0)
(0 0 0)
(0 0 0)
(-0.00334911431839 6.11854574479e-05 0)
(0 0 0)
(0 0 0)
(0 0 0)
(-0.331273025724 0.0108443841801 0)
(-0.900472975004 0.0294774223269 0)
(-0.200927070945 0.00657744573305 0)
(-2.22215288193 0.0715140483298 0)
(-0.49014421206 0.0156466254597 0)
(-1.33229383833 0.0425301414924 0)
(-0.297286423166 0.00949012393308 0)
(0 0 0)
(-0.0261020491597 0.00087941498253 0)
(0 0 0)
(-0.066336504687 0.00211762664457 0)
(0 0 0)
(-0.0402349968469 0.00128440142828 0)
(0 0 0)
(-0.0739160329226 0.00241967741362 0)
(-0.0739158115955 0.00241967016837 0)
(-0.013955760926 0.000513825875051 0)
(-0.49014351757 0.0156466032899 0)
(-0.10936733723 0.00349127811992 0)
(-0.109366491729 0.0034912511294 0)
(-0.0244030210324 0.000779005282086 0)
(0 0 0)
(0 0 0)
(0 0 0)
(-0.0132785825885 0.000457469874772 0)
(0 0 0)
(0 0 0)
(0 0 0)
(-7.17171180741 0.20105727498 0)
(-4.26083936522 0.117095152268 0)
(-4.35964330266 0.0891168998975 0)
(-2.06500416644 0.0422114280488 0)
(-0.573184610613 0.0156585806944 0)
(-1.55807315566 0.0425643218325 0)
(-0.347657799354 0.00949751197854 0)
(-2.64213053223 0.0540086575462 0)
(-0.278407877233 0.00569102681196 0)
(-1.25265796482 0.0256059926712 0)
(-0.131775789989 0.00269367218144 0)
(0 0 0)
(-0.0470511039721 0.00128536861364 0)
(0 0 0)
(-0.100789301862 0.00206374392631 0)
(0 0 0)
(-0.0477113148145 0.000976928447225 0)
(0 0 0)
(0 0 0)
(0 0 0)
(0 0 0)
(0 0 0)
(0 0 0)
(0 0 0)
(0 0 0)
(0 0 0)
(0 0 0)
(0 0 0)
(0 0 0)
(0 0 0)
(0 0 0)
(0 0 0)
(0 0 0)
(0 0 0)
(0 0 0)
(0 0 0)
(0 0 0)
(0 0 0)
(0 0 0)
(0 0 0)
(0 0 0)
(0 0 0)
(0 0 0)
(0 0 0)
(0 0 0)
(0 0 0)
(0 0 0)
(0 0 0)
(0 0 0)
(0 0 0)
(0 0 0)
(0 0 0)
(0 0 0)
(0 0 0)
(0 0 0)
(0 0 0)
(0 0 0)
(0 0 0)
(0 0 0)
(0 0 0)
(-1.31907540901 -0.0629401001037 0.208994041506)
(-0.669881078501 0.00880085836844 0.0197854816242)
(-1.2808219553 0.0261817020459 0)
(-2.68069442959 0.0547969548316 0)
(-0.134572595691 0.00275084260491 0)
(-0.283694235232 0.00579908699119 0)
(-1.55808185141 0.042564559388 0)
(-0.573184349978 0.0156585735742 0)
(-0.347654180338 0.0094974131122 0)
(-2.66871157323 0.0545520093311 0)
(-1.25448128167 0.0256432636893 0)
(-0.282840846964 0.00578164260145 0)
(-0.132810109425 0.00271481504457 0)
(-0.127895353199 0.00349391744198 0)
(-0.127895002005 0.00349390784788 0)
(-0.0285372704091 0.000779597259283 0)
(-0.761103851219 0.0155579736717 0)
(-0.0787459694319 0.00161238854853 0)
(-0.0792353609955 0.00162240924367 0)
(-0.00593219777799 6.01554908957e-05 0)
(0 0 0)
(0 0 0)
(0 0 0)
(-0.0289711127816 0.000593207383493 0)
(0 0 0)
(0 0 0)
(0 0 0)
(0 0 0)
(0 0 0)
(0 0 0)
(0 0 0)
(0 0 0)
(0 0 0)
(0 0 0)
(0 0 0)
(0 0 0)
(0 0 0)
(0 0 0)
(0 0 0)
(0 0 0)
(0 0 0)
(0 0 0)
(0 0 0)
(0 0 0)
(0 0 0)
(0 0 0)
(0 0 0)
(0 0 0)
(0 0 0)
(0 0 0)
(0 0 0)
(0 0 0)
(0 0 0)
(0 0 0)
(0 0 0)
(0 0 0)
(0 0 0)
(0 0 0)
(0 0 0)
(0 0 0)
(0 0 0)
(0 0 0)
(0 0 0)
(0 0 0)
(0 0 0)
(0 0 0)
(0 0 0)
(0 0 0)
(0 0 0)
(-0.0775716717133 0.00211914670881 0)
(0 0 0)
(0 0 0)
(-0.04864711972 0.000996089823029 0)
(-0.102822573193 0.00210537683062 0)
(0 0 0)
(0 0 0)
(-0.0470495750337 0.00128532684524 0)
(0 0 0)
(0 0 0)
(-0.102610488066 0.00210103421307 0)
(-0.0481561595385 0.00098603700915 0)
(0 0 0)
(0 0 0)
(0 0 0)
(0 0 0)
(0 0 0)
(-0.0291866123252 0.00059761991405 0)
(0 0 0)
(0 0 0)
(0 0 0)
(0 0 0)
(0 0 0)
(0 0 0)
(0 0 0)
(0 0 0)
(0 0 0)
(0 0 0)
(0 0 0)
(0 0 0)
(0 0 0)
(0 0 0)
(0 0 0)
(0 0 0)
(0 0 0)
(0 0 0)
(0 0 0)
(0 0 0)
(0 0 0)
(0 0 0)
(0 0 0)
(0 0 0)
(0 0 0)
(0 0 0)
(0 0 0)
(0 0 0)
(0 0 0)
(0 0 0)
(0 0 0)
(0 0 0)
(0 0 0)
(0 0 0)
(0 0 0)
(0 0 0)
(0 0 0)
(0 0 0)
(0 0 0)
(0 0 0)
(0 0 0)
(0 0 0)
(0 0 0)
(0 0 0)
(0 0 0)
(0 0 0)
(0 0 0)
(0 0 0)
(0 0 0)
(0 0 0)
(0 0 0)
(0 0 0)
(0 0 0)
(0 0 0)
(0 0 0)
(0 0 0)
(0 0 0)
(0 0 0)
(0 0 0)
(0 0 0)
(0 0 0)
(0 0 0)
(0 0 0)
(0 0 0)
(0 0 0)
(0 0 0)
(0 0 0)
(0 0 0)
(0 0 0)
(0 0 0)
(0 0 0)
(0 0 0)
(0 0 0)
(0 0 0)
(0 0 0)
(0 0 0)
(0 0 0)
(0 0 0)
(0 0 0)
(0 0 0)
(0 0 0)
(0 0 0)
(0 0 0)
(0 0 0)
(0 0 0)
(0 0 0)
(0 0 0)
(0 0 0)
(0 0 0)
(0 0 0)
(0 0 0)
(0 0 0)
(0 0 0)
(0 0 0)
(0 0 0)
(0 0 0)
(0 0 0)
(0 0 0)
(0 0 0)
(0 0 0)
(0 0 0)
(0 0 0)
(0 0 0)
(0 0 0)
(0 0 0)
(0 0 0)
(0 0 0)
(0 0 0)
(0 0 0)
(0 0 0)
(0 0 0)
(0 0 0)
(0 0 0)
(0 0 0)
(0 0 0)
(0 0 0)
(0 0 0)
(0 0 0)
(0 0 0)
(0 0 0)
(0 0 0)
(0 0 0)
(0 0 0)
(0 0 0)
(0 0 0)
(0 0 0)
(0 0 0)
(0 0 0)
(0 0 0)
(0 0 0)
(0 0 0)
(0 0 0)
(0 0 0)
(0 0 0)
(0 0 0)
(0 0 0)
(0 0 0)
(0 0 0)
(0 0 0)
(0 0 0)
(0 0 0)
(0 0 0)
(0 0 0)
(0 0 0)
(0 0 0)
(0 0 0)
(0 0 0)
(0 0 0)
(0 0 0)
(0 0 0)
(0 0 0)
(0 0 0)
(0 0 0)
(0 0 0)
(0 0 0)
(0 0 0)
(0 0 0)
(0 0 0)
(0 0 0)
(0 0 0)
(0 0 0)
(0 0 0)
(0 0 0)
(0 0 0)
(0 0 0)
(0 0 0)
(0 0 0)
(0 0 0)
(0 0 0)
(0 0 0)
(0 0 0)
(0 0 0)
(0 0 0)
(-0.002147294077 3.02176205534e-05 0)
(-0.00340479108066 4.79136444519e-05 0)
(-0.00131515407424 1.84999230138e-05 0)
(-0.00203705834091 2.8666337159e-05 0)
(-0.113408631925 0.00194478193835 0)
(-0.0683965798827 0.00117289513984 0)
(-0.00296308152058 4.1697722737e-05 0)
(-0.00155055621981 2.18200757869e-05 0)
(-0.00175121690751 2.4643856929e-05 0)
(-0.000950473661611 1.33700605206e-05 0)
(-0.010532180495 0.000180543161051 0)
(-0.0266413755992 0.000456858223211 0)
(-0.00637081996039 0.000109208912123 0)
(-0.000568781077628 8.00089233188e-06 0)
(-0.000136309061611 1.91742336147e-06 0)
(-0.000344139493444 4.84091883942e-06 0)
(-7.98318719853e-05 1.12297373722e-06 0)
(0 0 0)
(-0.000874173630638 1.26123770263e-05 0)
(0 0 0)
(-1.90454906762e-05 1.91644169971e-07 0)
(0 0 0)
(-1.1296926893e-05 1.13674686278e-07 0)
(0 0 0)
(0 0 0)
(0 0 0)
(0 0 0)
(0 0 0)
(0 0 0)
(0 0 0)
(0 0 0)
(0 0 0)
(0 0 0)
(0 0 0)
(0 0 0)
(0 0 0)
(0 0 0)
(0 0 0)
(0 0 0)
(0 0 0)
(0 0 0)
(0 0 0)
(0 0 0)
(0 0 0)
(0 0 0)
(0 0 0)
(0 0 0)
(0 0 0)
(0 0 0)
(0 0 0)
(0 0 0)
(0 0 0)
(0 0 0)
(0 0 0)
(0 0 0)
(0 0 0)
(0 0 0)
(0 0 0)
(0 0 0)
(0 0 0)
(0 0 0)
(0 0 0)
(0 0 0)
(0 0 0)
(0 0 0)
(0 0 0)
(-0.0406653391743 0.00069734742233 0)
(-0.00547853930727 9.39133928582e-05 0)
(-0.00904107575348 0.000154982569527 0)
(-0.000453013061797 6.37241440501e-06 0)
(-0.00070653488806 9.93863859125e-06 0)
(-9.13244436882e-05 1.28463669056e-06 0)
(-0.000155490606555 2.18724505895e-06 0)
(-0.025220089259 0.000432485369429 0)
(-0.00917537879397 0.000157284798917 0)
(-0.00566399110869 9.70924168472e-05 0)
(-0.000643250199426 9.04842968674e-06 0)
(-0.000364554807309 5.12809563657e-06 0)
(-0.000149230126388 2.09918054743e-06 0)
(-8.4987672131e-05 1.19549900832e-06 0)
(-0.00230838226808 3.95704034689e-05 0)
(-0.00214056616558 3.66936915065e-05 0)
(-0.00047293978155 6.82346690246e-06 0)
(-0.000126800708051 1.78367187768e-06 0)
(-2.74105143191e-05 3.50067612786e-07 0)
(-2.86019664632e-05 3.65283993004e-07 0)
(-3.60299399015e-06 3.55591967724e-08 0)
(0 0 0)
(0 0 0)
(0 0 0)
(0 0 0)
(0 0 0)
(0 0 0)
(0 0 0)
(0 0 0)
(0 0 0)
(0 0 0)
(0 0 0)
(0 0 0)
(0 0 0)
(0 0 0)
(0 0 0)
(0 0 0)
(0 0 0)
(0 0 0)
(0 0 0)
(0 0 0)
(0 0 0)
(0 0 0)
(0 0 0)
(0 0 0)
(0 0 0)
(0 0 0)
(0 0 0)
(0 0 0)
(0 0 0)
(0 0 0)
(0 0 0)
(0 0 0)
(0 0 0)
(0 0 0)
(0 0 0)
(0 0 0)
(0 0 0)
(0 0 0)
(0 0 0)
(0 0 0)
(0 0 0)
(0 0 0)
(0 0 0)
(0 0 0)
(0 0 0)
(0 0 0)
(0 0 0)
(0 0 0)
(0 0 0)
(-0.00123036032822 2.10908978435e-05 0)
(0 0 0)
(0 0 0)
(-9.9701027039e-06 1.00323593112e-07 0)
(-1.82585358592e-05 1.83725481749e-07 0)
(0 0 0)
(0 0 0)
(-0.000722522909929 1.0424395144e-05 0)
(0 0 0)
(0 0 0)
(-1.78212040304e-05 1.7932485502e-07 0)
(-1.02209752908e-05 1.02847984292e-07 0)
(0 0 0)
(0 0 0)
(0 0 0)
(0 0 0)
(0 0 0)
(0 0 0)
(0 0 0)
(0 0 0)
(0 0 0)
(0 0 0)
(0 0 0)
(0 0 0)
(0 0 0)
(0 0 0)
(0 0 0)
(0 0 0)
(0 0 0)
(0 0 0)
(0 0 0)
(0 0 0)
(0 0 0)
(0 0 0)
(0 0 0)
(0 0 0)
(0 0 0)
(0 0 0)
(0 0 0)
(0 0 0)
(0 0 0)
(0 0 0)
(0 0 0)
(0 0 0)
(0 0 0)
(0 0 0)
(0 0 0)
(0 0 0)
(0 0 0)
(0 0 0)
(0 0 0)
(0 0 0)
(0 0 0)
(0 0 0)
(0 0 0)
(0 0 0)
(0 0 0)
(0 0 0)
(0 0 0)
(0 0 0)
(0 0 0)
(0 0 0)
(0 0 0)
(0 0 0)
(0 0 0)
(0 0 0)
(0 0 0)
(0 0 0)
(0 0 0)
(0 0 0)
(0 0 0)
(0 0 0)
(0 0 0)
(0 0 0)
(0 0 0)
(0 0 0)
(0 0 0)
(0 0 0)
(0 0 0)
(0 0 0)
(0 0 0)
(0 0 0)
(0 0 0)
(0 0 0)
(0 0 0)
(0 0 0)
(0 0 0)
(0 0 0)
(0 0 0)
(0 0 0)
(0 0 0)
(0 0 0)
(0 0 0)
(0 0 0)
(0 0 0)
(0 0 0)
(0 0 0)
(0 0 0)
(0 0 0)
(0 0 0)
(0 0 0)
(0 0 0)
(0 0 0)
(0 0 0)
(0 0 0)
(0 0 0)
(0 0 0)
(0 0 0)
(0 0 0)
(0 0 0)
(0 0 0)
(0 0 0)
(0 0 0)
(0 0 0)
(0 0 0)
(0 0 0)
(0 0 0)
(0 0 0)
(0 0 0)
(0 0 0)
(0 0 0)
(0 0 0)
(0 0 0)
(0 0 0)
(0 0 0)
(0 0 0)
(0 0 0)
(0 0 0)
(0 0 0)
(0 0 0)
(0 0 0)
(0 0 0)
(0 0 0)
(0 0 0)
(0 0 0)
(0 0 0)
(0 0 0)
(0 0 0)
(0 0 0)
(0 0 0)
(0 0 0)
(0 0 0)
(0 0 0)
(0 0 0)
(0 0 0)
(0 0 0)
(0 0 0)
(0 0 0)
(0 0 0)
(0 0 0)
(0 0 0)
(0 0 0)
(0 0 0)
(0 0 0)
(0 0 0)
(0 0 0)
(0 0 0)
(0 0 0)
(0 0 0)
(0 0 0)
(0 0 0)
(0 0 0)
(0 0 0)
(0 0 0)
(0 0 0)
(0 0 0)
(0 0 0)
(0 0 0)
(0 0 0)
(0 0 0)
(0 0 0)
(0 0 0)
(0 0 0)
(0 0 0)
(0 0 0)
(0 0 0)
(0 0 0)
(0 0 0)
(0 0 0)
(0 0 0)
(0 0 0)
(0 0 0)
(0 0 0)
(0 0 0)
(0 0 0)
(0 0 0)
(0 0 0)
(0 0 0)
(0 0 0)
(0 0 0)
(0 0 0)
(0 0 0)
(0 0 0)
(0 0 0)
(0 0 0)
(0 0 0)
(-7.14168833138 0.165287972987 0)
(-5.5492485818 0.128029163441 0)
(-6.34568404881 0.129714210751 0)
(-3.85034306617 0.0787061265745 0)
(-4.89711322821 0.11298346085 0)
(-5.60042997927 0.114480227669 0)
(-8.10130766824 0.187764436082 0)
(-5.5490264388 0.128024038282 0)
(-2.6211671867 0.0604741051347 0)
(-3.00118748227 0.0613482585303 0)
(-3.00441312654 0.0614141949837 0)
(-3.81378999889 0.0879896324524 0)
(-3.81366269628 0.0879866953977 0)
(-4.36393174702 0.0892045613965 0)
(-1.58984497934 0.036680015268 0)
(-3.36575659833 0.0776528561083 0)
(-1.41410994192 0.0289062855351 0)
(-2.33382661542 0.0477065159753 0)
(-2.97024886283 0.0685279225674 0)
(-1.24823085949 0.0255154967578 0)
(-1.80152324348 0.0415637379339 0)
(-0.750968364418 0.0173259226092 0)
(-0.35471118226 0.00818369825369 0)
(-0.667893466951 0.0136526296085 0)
(-0.245706448386 0.00502256616995 0)
(-0.313033454158 0.0072221329923 0)
(-0.589383156771 0.0120477745854 0)
(-0.85094193442 0.0196324569706 0)
(-1.23815675089 0.028566060916 0)
(-1.58988432567 0.0366809230446 0)
(-1.82004313979 0.0372040992892 0)
(-0.670201473073 0.0136998083193 0)
(-2.31320612708 0.0533689995957 0)
(-0.851005919779 0.019633933205 0)
(-0.973299290816 0.0198955303103 0)
(-0.584841410047 0.0134931343173 0)
(-0.167554941576 0.00386573401503 0)
(-0.191534462184 0.00391521881686 0)
(-0.316206285546 0.00646367648444 0)
(-0.243784276491 0.00562445464809 0)
(-0.401969492654 0.00927401559237 0)
(-0.459458637223 0.00939194483078 0)
(-0.0362811825647 0.000842362233355 0)
(-0.130488329866 0.00301055385523 0)
(-0.0326921986555 0.000669399679994 0)
(-0.0889645637201 0.00182162267863 0)
(-0.115157671802 0.00265685347617 0)
(-0.0288487449802 0.000590701802026 0)
(-0.041112076333 0.000954524025671 0)
(-0.00909952122397 0.000157275415181 0)
(0 0 0)
(-0.00848744971285 0.000136160297284 0)
(0 0 0)
(0 0 0)
(-0.00584968790958 5.93187990281e-05 0)
(-0.0103112471609 0.000178218791774 0)
(-0.0282555397219 0.000656026012999 0)
(-0.0616378757737 0.00142207463863 0)
(-0.0693537062755 0.00142007422861 0)
(-0.014069152494 0.000225705017518 0)
(-0.0896828585377 0.00206911281489 0)
(-0.0194195610069 0.000450875732933 0)
(-0.0224838053266 0.00046037442294 0)
(-0.00521702015464 5.30235076495e-05 0)
(0 0 0)
(0 0 0)
(0 0 0)
(0 0 0)
(0 0 0)
(-0.00455520647698 4.6192101479e-05 0)
(0 0 0)
(0 0 0)
(0 0 0)
(0 0 0)
(0 0 0)
(0 0 0)
(0 0 0)
(0 0 0)
(0 0 0)
(0 0 0)
(0 0 0)
(0 0 0)
(0 0 0)
(0 0 0)
(0 0 0)
(0 0 0)
(0 0 0)
(0 0 0)
(0 0 0)
(0 0 0)
(0 0 0)
(0 0 0)
(0 0 0)
(0 0 0)
(0 0 0)
(0 0 0)
(0 0 0)
(0 0 0)
(0 0 0)
(0 0 0)
(0 0 0)
(0 0 0)
(0 0 0)
(0 0 0)
(0 0 0)
(0 0 0)
(0 0 0)
(0 0 0)
(0 0 0)
(0 0 0)
(0 0 0)
(0 0 0)
(0 0 0)
(0 0 0)
(0 0 0)
(0 0 0)
(0 0 0)
(0 0 0)
(0 0 0)
(0 0 0)
(0 0 0)
(0 0 0)
(0 0 0)
(0 0 0)
(0 0 0)
(0 0 0)
(0 0 0)
(0 0 0)
(0 0 0)
(0 0 0)
(0 0 0)
(0 0 0)
(0 0 0)
(0 0 0)
(0 0 0)
(0 0 0)
(0 0 0)
(0 0 0)
(0 0 0)
(0 0 0)
(0 0 0)
(0 0 0)
(0 0 0)
(0 0 0)
(0 0 0)
(0 0 0)
(0 0 0)
(0 0 0)
(0 0 0)
(0 0 0)
(0 0 0)
(0 0 0)
(0 0 0)
(0 0 0)
(0 0 0)
(0 0 0)
(0 0 0)
(0 0 0)
(0 0 0)
(0 0 0)
(0 0 0)
(0 0 0)
(0 0 0)
(0 0 0)
(0 0 0)
(0 0 0)
(0 0 0)
(0 0 0)
(0 0 0)
(0 0 0)
(0 0 0)
(0 0 0)
(0 0 0)
(0 0 0)
(0 0 0)
(0 0 0)
(0 0 0)
(0 0 0)
(0 0 0)
(0 0 0)
(0 0 0)
(0 0 0)
(0 0 0)
(0 0 0)
(0 0 0)
(0 0 0)
(0 0 0)
(0 0 0)
(0 0 0)
(0 0 0)
(0 0 0)
(0 0 0)
(0 0 0)
(0 0 0)
(0 0 0)
(0 0 0)
(0 0 0)
(0 0 0)
(0 0 0)
(0 0 0)
(0 0 0)
(0 0 0)
(0 0 0)
(0 0 0)
(0 0 0)
(0 0 0)
(0 0 0)
(0 0 0)
(0 0 0)
(0 0 0)
(0 0 0)
(0 0 0)
(0 0 0)
(0 0 0)
(0 0 0)
(0 0 0)
(0 0 0)
(0 0 0)
(0 0 0)
(0 0 0)
(0 0 0)
(0 0 0)
(0 0 0)
(0 0 0)
(0 0 0)
(0 0 0)
(0 0 0)
(0 0 0)
(0 0 0)
(0 0 0)
(0 0 0)
(0 0 0)
(0 0 0)
(0 0 0)
(0 0 0)
(0 0 0)
(0 0 0)
(0 0 0)
(-1.33685977133 0.0215202193029 0.0203273824033)
(-2.003241871 0.00472114889212 0.0922025575267)
(-1.85775116862 0.037974901485 0)
(-0.685275632891 0.0140079441686 0)
(-2.54968462992 0.0353128478974 0.0520892793053)
(-0.994049022923 0.0203196823958 0)
(-1.0680626944 0.0035303814798 0.0464583924476)
(-1.58976777099 0.0366782339601 0)
(-3.36557513909 0.0776486695821 0)
(-2.37671628589 0.0485832378087 0)
(-1.43683941938 0.0293709062455 0)
(-2.99171902371 0.0670915634694 0.00413544878296)
(-1.80142079952 0.0415613744039 0)
(-1.27234890448 0.0260085016328 0)
(-0.589578243212 0.0132182873896 0.000792831656071)
(-0.167554467818 0.00386572308475 0)
(-0.323372310699 0.006610159557 0)
(-0.195743627982 0.0040012597567 0)
(-0.24379201076 0.00562463308883 0)
(-0.469815566334 0.00960365421863 0)
(-0.451827301109 0.00583719114335 0.00991490645697)
(-0.750944198444 0.0173253650654 0)
(-0.354698578598 0.00818340746904 0)
(-0.679442444058 0.0138887060408 0)
(-0.251035225502 0.00513149345227 0)
(-0.850922687919 0.019632012926 0)
(-0.313032382372 0.00722210826465 0)
(-0.601707246878 0.0122996953569 0)
(-1.58961378013 0.036674681169 0)
(-3.36553387625 0.0776477175889 0)
(-2.34615314444 0.0479584866014 0)
(-1.43120079194 0.0292556452108 0)
(-2.9699544125 0.0685211291739 0)
(-1.80133114142 0.0415593058623 0)
(-1.25754930486 0.0257059781586 0)
(-1.23801161722 0.0285627124731 0)
(-1.58976995712 0.0366782843973 0)
(-1.82506836228 0.0373068215118 0)
(-0.672786451878 0.0137526487196 0)
(-2.31299314001 0.0533640856768 0)
(-0.850901029739 0.0196315132406 0)
(-0.978585661303 0.0200035907447 0)
(-0.750869978733 0.0173236527096 0)
(-0.354689512273 0.00818319829585 0)
(-0.676775175648 0.0138341835316 0)
(-0.248861384665 0.00508705725811 0)
(-0.85087482665 0.0196309086976 0)
(-0.313007238379 0.00722152815649 0)
(-0.595112187989 0.0121648835932 0)
(-0.58477756928 0.0134916614188 0)
(-0.167542628038 0.00386544992395 0)
(-0.318055999325 0.006501487091 0)
(-0.193464976485 0.00395468109343 0)
(-0.401920349846 0.00927288179695 0)
(-0.243768664366 0.00562409445386 0)
(-0.462944505592 0.00946320061042 0)
(-0.276254878678 0.00637359824352 0)
(-0.96428831489 0.0222475213449 0)
(-0.406984765858 0.00831930920051 0)
(-0.408161356419 0.00834336027442 0)
(-0.516149282563 0.0119083079238 0)
(-0.516125501427 0.0119077592587 0)
(-0.218279695438 0.0044619269095 0)
(-0.130487638346 0.00301053790088 0)
(-0.101618730814 0.00234449059262 0)
(-0.191948747446 0.0039236873579 0)
(-0.0422057869869 0.000864198232753 0)
(-0.243793567072 0.00562466899519 0)
(-0.0527851344067 0.00122554449893 0)
(-0.101310892747 0.00207442392907 0)
(-0.13048753267 0.00301053546279 0)
(-0.101619952875 0.00234451878732 0)
(-0.192942100807 0.00394399282004 0)
(-0.0423949433142 0.00086807136427 0)
(-0.243783010368 0.00562442543682 0)
(-0.052786971356 0.0012255871485 0)
(-0.101633453611 0.00208102862829 0)
(-0.0616349952601 0.00142200818103 0)
(-0.00909956547955 0.000157276180091 0)
(-0.0199769280345 0.0004090440467 0)
(-0.0200274258992 0.00041007803205 0)
(-0.0249338531737 0.000578904400596 0)
(-0.0249348213605 0.000578926879578 0)
(-0.0479525942806 0.000981868842918 0)
(0 0 0)
(-0.036278932044 0.000842309981651 0)
(-0.00854756482271 0.000137124696663 0)
(-0.0141184930379 0.000226496565433 0)
(-0.0103108129426 0.000178211286779 0)
(-0.0194184150736 0.000450849127105 0)
(0 0 0)
(0 0 0)
(0 0 0)
(0 0 0)
(0 0 0)
(0 0 0)
(0 0 0)
(0 0 0)
(0 0 0)
(0 0 0)
(-0.00522265148996 5.29603320579e-05 0)
(0 0 0)
(-0.00803003587261 0.000138790513775 0)
(0 0 0)
(0 0 0)
(0 0 0)
(0 0 0)
(0 0 0)
(0 0 0)
(0 0 0)
(0 0 0)
(0 0 0)
(0 0 0)
(0 0 0)
(0 0 0)
(0 0 0)
(0 0 0)
(0 0 0)
(0 0 0)
(0 0 0)
(0 0 0)
(0 0 0)
(0 0 0)
(0 0 0)
(0 0 0)
(0 0 0)
(0 0 0)
(0 0 0)
(0 0 0)
(0 0 0)
(0 0 0)
(0 0 0)
(0 0 0)
(0 0 0)
(0 0 0)
(0 0 0)
(0 0 0)
(0 0 0)
(0 0 0)
(0 0 0)
(0 0 0)
(0 0 0)
(0 0 0)
(0 0 0)
(0 0 0)
(0 0 0)
(0 0 0)
(0 0 0)
(0 0 0)
(0 0 0)
(0 0 0)
(0 0 0)
(0 0 0)
(0 0 0)
(0 0 0)
(0 0 0)
(0 0 0)
(0 0 0)
(0 0 0)
(0 0 0)
(0 0 0)
(0 0 0)
(0 0 0)
(0 0 0)
(0 0 0)
(0 0 0)
(0 0 0)
(0 0 0)
(0 0 0)
(0 0 0)
(0 0 0)
(0 0 0)
(0 0 0)
(0 0 0)
(0 0 0)
(0 0 0)
(0 0 0)
(0 0 0)
(0 0 0)
(0 0 0)
(0 0 0)
(0 0 0)
(0 0 0)
(0 0 0)
(0 0 0)
(0 0 0)
(0 0 0)
(0 0 0)
(0 0 0)
(0 0 0)
(0 0 0)
(0 0 0)
(0 0 0)
(0 0 0)
(0 0 0)
(0 0 0)
(0 0 0)
(0 0 0)
(0 0 0)
(0 0 0)
(0 0 0)
(0 0 0)
(0 0 0)
(0 0 0)
(0 0 0)
(0 0 0)
(0 0 0)
(0 0 0)
(0 0 0)
(0 0 0)
(0 0 0)
(0 0 0)
(0 0 0)
(0 0 0)
(0 0 0)
(0 0 0)
(0 0 0)
(0 0 0)
(0 0 0)
(0 0 0)
(0 0 0)
(0 0 0)
(0 0 0)
(0 0 0)
(0 0 0)
(0 0 0)
(0 0 0)
(0 0 0)
(0 0 0)
(0 0 0)
(0 0 0)
(0 0 0)
(0 0 0)
(0 0 0)
(0 0 0)
(0 0 0)
(0 0 0)
(0 0 0)
(0 0 0)
(0 0 0)
(0 0 0)
(0 0 0)
(0 0 0)
(0 0 0)
(0 0 0)
(0 0 0)
(0 0 0)
(0 0 0)
(0 0 0)
(0 0 0)
(0 0 0)
(0 0 0)
(0 0 0)
(0 0 0)
(0 0 0)
(0 0 0)
(0 0 0)
(0 0 0)
(0 0 0)
(0 0 0)
(0 0 0)
(0 0 0)
(0 0 0)
(0 0 0)
(0 0 0)
(0 0 0)
(0 0 0)
(0 0 0)
(0 0 0)
(0 0 0)
(0 0 0)
(0 0 0)
(0 0 0)
(0 0 0)
(0 0 0)
(0 0 0)
(0 0 0)
(0 0 0)
(0 0 0)
(0 0 0)
(-0.0282555046084 0.000656025197748 0)
(-0.0616385078159 0.00142208922075 0)
(-0.0707782552627 0.00144924304182 0)
(-0.014350848015 0.000230224130701 0)
(-0.0896844114848 0.00206914864362 0)
(-0.0229631681669 0.000470189771711 0)
(-0.0194192605408 0.000450868756829 0)
(-0.0362807739844 0.0008423527471 0)
(-0.13048802361 0.00301054678948 0)
(-0.090834113157 0.00185990324238 0)
(-0.0333879039681 0.00068364481898 0)
(-0.115156842874 0.00265683435161 0)
(-0.0411113830475 0.000954507929239 0)
(-0.0294796268133 0.000603619626905 0)
(-0.00521716414195 5.30249710734e-05 0)
(0 0 0)
(0 0 0)
(0 0 0)
(0 0 0)
(-0.00467411600119 4.73979042975e-05 0)
(0 0 0)
(-0.00909986395652 0.000157281338943 0)
(0 0 0)
(-0.00869930240947 0.000139558953786 0)
(0 0 0)
(-0.0103114118414 0.000178221638099 0)
(0 0 0)
(-0.00600126621911 6.08558798808e-05 0)
(-0.036279076716 0.000842313340588 0)
(-0.130482946715 0.00301042965818 0)
(-0.0903177521949 0.00184933032661 0)
(-0.0333571146997 0.000683014383363 0)
(-0.115148850094 0.00265664994665 0)
(-0.0411108635816 0.000954495868486 0)
(-0.0293966326678 0.000601920253456 0)
(-0.0282539202109 0.000655988411829 0)
(-0.0616336925736 0.00142197812617 0)
(-0.0701944589398 0.00143728933152 0)
(-0.0142502034585 0.000228609535834 0)
(-0.089676968555 0.0020689769245 0)
(-0.0194184373602 0.000450849644547 0)
(-0.0228545218684 0.00046796514931 0)
(-0.00909942904745 0.000157273822009 0)