/*--------------------------------*- C++ -*----------------------------------*\
| =========                 |                                                 |
| \\      /  F ield         | OpenFOAM: The Open Source CFD Toolbox           |
|  \\    /   O peration     | Version:  v1906                                 |
|   \\  /    A nd           | Web:      www.OpenFOAM.com                      |
|    \\/     M anipulation  |                                                 |
\*---------------------------------------------------------------------------*/
FoamFile
{
    version     2.0;
    format      ascii;
    class       volScalarField;
    location    "6.45";
    object      p;
}
// * * * * * * * * * * * * * * * * * * * * * * * * * * * * * * * * * * * * * //

dimensions      [1 -1 -2 0 0 0 0];


internalField   nonuniform List<scalar> 
28582
(
17103.4068956
17100.777392
12205.3554945
12202.3159189
7306.79093367
7302.06671556
3635.84832502
3626.87352417
26.6826637378
34.1240423639
-27.6727926043
3630.87635027
632.307172025
631.221509062
3624.74314687
3623.8395065
630.237283147
1783.42015845
1782.57054538
17105.7197327
17099.4645501
17099.26011
12208.1329544
12201.0857908
12201.2591474
7311.20153401
7301.00338794
3641.32425955
3624.76266864
34.5073459463
-27.3250799248
-27.159694353
3638.73088336
3639.02430042
627.259386421
629.915424205
1805.45767001
3626.26069286
3623.95798094
3625.85938871
1784.43886682
634.787983309
1783.93701558
1787.31474186
30.2782961572
34.0792585414
-23.1232209475
-23.1291694378
32.8533272488
-23.112914727
1802.06346927
1799.24816373
632.340022954
633.200183587
1802.7943378
633.099285006
1798.91225644
1795.16901409
1791.47701419
631.879980842
631.228866836
1790.97069965
632.283827991
1795.2670851
1784.57369072
1788.1570315
629.452034957
629.902432331
1787.38001671
628.915742921
1785.50102586
1784.10179928
628.960828868
628.572208827
1783.19763112
628.917970285
628.300814819
1784.10212153
1781.31470821
627.741575346
626.693499947
1782.02351235
625.881996967
1780.35452442
627.180046977
22.3581608198
-23.1514031647
18.84736907
22.0786255272
-23.1692693781
-23.1446265023
34.8809463901
-23.0996478801
-23.0817558596
36.1587535112
-23.0934328838
35.2945001838
-23.0610319261
1806.05891491
1807.13908617
628.197970319
627.361201676
1806.15348261
1807.02390718
628.235786257
1804.70693416
1803.09623171
629.131412163
629.942445319
1804.7804493
1802.93114198
629.209852733
629.945718669
630.89329317
1803.80328
1804.96713573
630.299794084
1803.19594068
629.519379789
1784.95047802
629.622536651
629.577116213
1786.16200504
631.057501881
1786.61618769
631.124850719
1788.04656918
1790.21028693
632.852523621
635.010220055
1788.41963309
1789.96605049
632.986060319
1785.15610833
1782.97451277
629.204385698
628.728994557
631.131212843
1785.86944704
631.158978299
633.593699508
636.004668551
1789.60736839
1787.90387055
635.492631485
1789.98844164
633.301524848
7302.45728051
3628.2667172
36.6825995251
-27.3071464899
3635.3298918
631.589605067
3628.25864996
3630.66046915
636.945203178
638.619574635
644.642561645
3632.00204449
3632.25881877
645.634005338
645.912034703
26.0598508641
37.8410702187
39.6555606889
-23.0710282495
-23.0954400824
-23.104261211
40.2139139915
40.6751664336
1798.20298195
1801.56721999
630.900160622
631.698318565
1800.95822589
631.195657272
1798.57891241
1793.99343203
1792.04832325
639.072780562
637.308484054
1793.99440682
1791.94474322
639.528435546
1794.19414249
1791.92828674
637.92212825
641.067099756
1792.04531878
640.259611053
1794.3795823
1796.06310548
1797.81392946
643.890174169
643.391746644
1797.45111879
642.479944639
1796.40148279
1798.78423003
1798.66341849
644.993514444
646.305978074
1798.33796766
645.728283366
1799.03239144
1798.50853706
1797.80051067
645.417039721
646.379075369
1797.5384961
645.915440963
1798.75256451
3653.98145995
3648.51771626
3648.69136344
3646.00194572
14.2377761122
15.3382581086
14.7482810117
16.6427598461
15.4626729726
-27.0394765449
-27.2155675753
-27.0795416393
-27.157336613
-27.1087196311
-27.1509693135
3656.08421908
3654.5478149
625.70944761
624.707730829
3657.03001888
626.013865865
3652.3644513
3649.96930589
624.758736203
623.954343085
3655.81374588
3650.83623126
3651.70071329
626.053859335
629.289686882
624.932700645
627.592165233
3651.99743523
3650.8631689
630.069169216
629.537694046
628.017542469
627.58036052
3648.80538523
3647.21415923
624.707409526
627.365919705
625.790749592
3647.96505181
3647.07711433
3646.64584898
627.850573024
627.368490289
626.301346039
626.312835721
625.558233121
625.740315734
12.0648326815
12.8594835986
14.1919698888
-23.240102755
-23.2585716414
-23.2440793225
-23.2669745066
-23.2826744116
-23.2465928181
-23.2971817971
-23.2427414181
12.8717679825
13.0850905639
14.9209965381
14.576092795
15.7498478939
-23.2406373241
-23.2645077577
-23.2246606447
-23.2600010807
15.2176776972
16.0251909057
15.6176934753
-23.298068977
-23.2557032244
-23.2956558626
-23.2492674984
16.2109352025
15.6684609525
-23.2165974432
-23.2565431336
-23.2545837785
16.3399808872
16.2873322217
16.1931902721
-23.28367423
-23.2507648145
-23.2841490685
-23.2579110883
1815.73590022
1818.2420121
624.568845013
625.19372687
1816.77865046
624.413935775
1816.97004279
1814.6543302
1814.85512704
624.742332343
623.454939847
1815.56983473
1813.80481713
624.004908716
1819.18814456
1816.41561723
625.866177739
627.386180643
1817.11987088
1818.13770267
627.56479655
1812.98060459
1814.53352665
623.274393044
624.519476745
1813.35419132
1813.93110722
623.142331679
1812.42515682
1812.16218147
624.375477073
622.807474021
1813.08848902
1811.60521474
623.190041869
1815.71340763
1815.7856431
627.11952771
625.64226069
1817.07130488
1814.85671466
626.640357071
1816.59539641
1819.47970368
628.235475707
628.426058086
1818.30442965
1817.52743222
627.590786807
1814.29723081
1812.6204439
625.326072355
625.770568845
1813.72133056
1813.02133774
626.184387201
1815.03811425
1814.14409413
627.999642569
626.743471678
1815.7241202
1813.58339835
627.229843928
1818.34168854
1820.26001657
630.30980576
629.073418076
1820.45977379
1818.19488408
629.440494602
1817.88149774
1818.10070419
630.064111114
628.785090656
1819.88553514
629.276437465
1816.48806699
1816.27891594
1814.52287358
628.41853015
628.210569596
1816.19850111
1814.61733984
628.662811861
1815.87811388
1813.5265635
627.995037983
628.007668967
1814.32388386
628.457793993
1814.77884384
1811.25530676
1811.70332003
625.519222803
624.274780634
1812.01726173
1810.90463502
625.097147099
1811.70381198
1812.93682107
626.486221094
627.007888079
1812.46695856
1812.03973136
626.19828864
1811.01929596
1810.61280534
626.434871569
625.181461489
1811.26158387
1810.40087811
625.7170546
1812.3207386
1813.23505545
627.999499179
627.453490116
1813.28447807
1812.26713722
627.641968423
1812.14488874
1812.46424535
627.801747971
627.215737108
1813.04442206
627.526773112
1811.71592139
1811.5493055
1810.79900081
626.928293038
626.531198789
1811.47005927
1810.87813186
627.147829772
1811.41584664
1810.52215673
626.827153912
626.493552369
1810.77807249
627.100075087
1811.08107016
1809.70134396
1810.18332668
625.801848081
624.797969968
1810.2653491
1809.62365472
625.020802045
1810.04157837
625.814276531
1810.20868385
17102.4459637
17099.956294
17098.9994494
17099.2674978
17099.2482675
17102.4394014
12204.4175319
12201.65849
12200.7214905
12201.5599231
12201.4972673
12204.3028661
18320.6495227
18322.6278799
17091.9420984
17094.9040564
17097.2782608
17099.5612619
17103.5689133
17097.0956893
18322.1785923
18323.5532594
17097.5428082
17097.1432875
17097.8149153
17098.2233062
17098.3156597
17099.6210586
17102.0127138
17099.379309
17098.0953831
17097.7017171
17097.6820491
17097.4192857
17097.3348179
17099.9109885
17104.4377778
17101.1430515
17099.1790824
17098.7053557
17098.7137919
17098.3656778
17098.0969265
17100.9592935
17098.8975472
17098.6139504
17098.2704838
17101.4146857
13421.1105457
13422.7242252
12197.0135151
12196.1437684
12196.7612029
12201.1844897
12208.7891247
12179.2827108
13424.7179979
13425.2355962
12201.4610715
12200.264998
12198.809023
12198.9434586
12198.6157751
12192.451924
12204.0375007
12202.1511441
12200.4217501
12199.0890782
12198.8078144
12198.4439899
12197.6866112
12198.1232388
12206.8190542
12203.5129327
12201.1418288
12200.4905136
12200.5637059
12200.1706539
12199.4654799
12201.5361755
12200.8707521
12200.7884554
12200.2511551
12202.8850203
8522.39211515
8524.45155402
7299.49747225
7295.11702506
7296.67317248
7302.06460323
7309.24923446
7274.09641119
8526.58382261
8528.58028017
7298.7323835
7296.07490809
7297.99185724
7300.07791179
7298.3324318
7287.99900857
7307.75336394
7305.23702753
7301.08998562
7298.41753654
7299.67840593
7299.94628228
7297.7506751
7296.67418157
7314.15314993
7310.296182
7305.72932362
7301.34661735
7299.73544481
7301.12311474
7301.13276474
7299.68231604
7300.65293799
7306.10298553
7301.80370373
7300.73040434
7302.0040558
7302.11798516
7300.9051514
7302.98730689
7303.19643426
7302.37041738
7304.95882567
3629.06555072
3632.10285239
3628.01191332
3618.29045633
3620.19180461
3628.4591496
3633.1975142
3637.33227276
3632.65892078
3632.01996087
3634.16413776
3628.14441
3619.58224902
3621.07777495
3627.31005795
3628.79193824
3623.57163907
3646.13290003
3640.24759765
3637.16408643
3636.73482808
3629.70201825
3621.08990456
3623.32144119
3627.98583303
3627.82612688
3624.9779796
3643.10462828
3640.77743697
3636.38198321
3627.86179593
3622.67305795
3625.87670532
3629.7366903
3629.28443057
3626.2983556
3635.15983254
3627.13464278
3624.24114773
3627.71044555
3630.81911649
3629.97801553
3627.25649954
3631.57545227
3630.96771133
3628.97360467
18.0531698834
24.3121477204
36.6797022421
43.2495066432
43.0145391838
42.1192355757
41.629635054
43.7607974375
15.2544935943
15.6023693283
17.019728022
23.3386857578
34.3005382017
39.2904558541
43.6406485155
44.3278740279
42.8432998931
44.0740890865
15.7129858868
15.4094904582
17.1294969333
21.0724203587
31.5058055801
36.7600109349
40.3101441915
42.4703697329
41.8285997685
42.7033809148
15.4330007903
17.0562699192
23.8065574307
31.8509019581
35.8238727457
37.6221110253
38.9265468739
39.324934169
40.7763715075
25.7301496145
32.5591274354
35.2548447705
36.63306458
38.1083487202
38.9469412806
39.3182804989
39.3847296101
39.7867274811
39.4697869502
-27.1309031826
-27.0779603338
-27.2293194784
-27.3578919718
-27.76386384
-27.6607464255
-27.2941463211
-27.1566279655
-27.2921180568
-27.7172453554
-27.1523418749
-27.0780001414
-27.1701052003
-27.1391780138
-27.5126031663
-27.6469465495
-27.591756707
-27.1809992023
-27.349991343
-27.7794292251
-27.2061632976
-27.0445260162
-27.1047796804
-27.0979386278
-27.2221039249
-27.2825111604
-27.5457069394
-27.1113501645
-27.3253249364
-27.6144831765
-27.0370708791
-27.1172154274
-27.0978615781
-27.2283973204
-27.2148721362
-27.5251972643
-27.0822993964
-27.2994350462
-27.5423427113
-27.4317662742
-27.5951917401
-27.6042378949
-27.5155944726
-27.1296509906
-27.2759537873
-27.5908683617
-27.0710584698
-27.226834377
-27.6133192453
18321.9550605
18320.7306714
18322.1285716
15871.1600682
15872.7878606
15871.754105
15872.9694184
18322.5050259
18323.1506583
18323.1658642
15873.6808233
15868.9253519
15873.4684654
15871.2435952
18322.6921226
18324.3958299
18323.6714179
15873.2623689
15874.0781515
15875.1965804
15874.9762846
18323.3535961
18323.8140317
18323.8131174
15874.5117068
15873.3968077
15875.1759997
15875.261057
13422.2402607
13422.4541376
13423.1849987
10971.1695862
10972.6075712
10972.7131848
10973.8936972
13422.1520799
13423.1125224
13423.2606656
10973.0673706
10972.3483858
10974.1172501
10973.0662202
13425.2770578
13426.2553227
13426.2628352
10975.3929714
10976.3928408
10977.3708482
10977.1384906
13424.2001044
13426.2093673
13428.6043681
10976.7332157
10971.9631863
10976.7984003
10978.5215285
8523.99079546
8524.10053338
8525.44065954
6075.04006813
6076.80723928
6076.69301587
6077.88025678
8523.9138242
8525.94177799
8525.39100788
6077.44947395
6077.11675434
6078.33734259
6079.26717434
8527.85423374
8528.78061534
8528.75760367
6078.71438043
6080.00231386
6080.77210735
6081.20821468
8523.94372743
8528.53545455
8528.98216976
6080.59711361
6078.78796141
6081.33397386
6081.56946131
3627.34245332
3629.12180126
616.594456377
617.301825089
3630.94588967
3630.62808236
3632.06607636
618.583928359
626.217793886
619.23639076
627.004739615
3631.1880904
3632.76304815
3631.30291173
629.251937168
639.123350903
630.024119875
637.065124491
3622.53569608
3627.25852005
3622.06328297
640.61463252
633.104264199
637.389711097
631.935566271
3617.38403232
3618.46366402
3617.62459356
628.273725628
629.844770228
628.843437072
632.712806723
3624.44798879
3620.4175656
3624.17214769
634.466985006
644.932425488
636.787380642
646.91492366
3631.07531648
3627.52978975
3629.72377303
645.68873174
646.938455845
647.409153998
647.536081282
3635.27415583
3630.97465513
3630.06611745
647.629912603
646.147574374
647.123315169
643.827839458
3614.73581864
3626.16228287
3617.84186581
646.36350337
609.512342464
643.364067515
614.886834277
3646.93733996
3641.58127256
628.087692738
621.474036788
626.807040715
623.76916997
3631.12501164
3637.22480653
3634.7820102
619.554667942
618.05284419
622.485702208
621.327675758
3633.34889686
3634.35617068
3635.20764186
619.701804031
626.836460101
621.900126219
626.378857825
3632.44953101
3635.68754766
3634.11935521
629.994114442
636.905234556
629.113667385
637.152860466
3622.91210039
3630.34415732
3625.0515378
637.020796501
631.203372826
636.636237632
628.963179512
3618.71222488
3621.29934945
3620.14970892
628.15855875
632.805808327
626.608767316
632.586016491
3624.49833622
3622.46084771
3625.60257002
636.990767435
647.136698867
636.637469454
646.269667158
3628.90842226
3627.67683349
3628.55827475
647.626104311
647.411416154
646.925542084
646.877769528
3626.96372845
3627.83512243
3626.23272825
646.865605361
643.147738168
646.035976381
641.786286238
3622.23921023
3623.69727052
3625.64036895
642.563349954
615.683232475
641.121645017
616.737498596
3643.20573677
3645.63059294
3643.9848869
626.691319503
624.282064473
625.976597313
624.834131513
3638.18365898
3642.12189347
3640.50334881
623.388853653
622.241913942
624.575276604
624.395352951
3637.18360122
3639.37286711
3638.55969752
622.807646677
626.595921174
625.028543134
629.34781761
3634.22169572
3636.9248348
3633.36789175
629.260807961
636.735356248
631.57461945
633.096355443
3624.37088293
3628.61757867
3624.20915077
635.918221658
628.284333426
631.829404102
627.367655156
3620.75864418
3621.78824845
3622.27111537
626.151911094
632.3783884
626.367809097
632.858996931
3626.21193537
3624.72873049
3627.3164767
636.229178978
645.751326813
635.957864119
643.533495055
3628.70966337
3628.88742719
3629.5905151
646.450477886
646.601425181
644.292961278
644.845045788
3626.52112523
3628.63535972
3627.30643372
645.887910689
641.539826687
644.625365147
640.647097658
3627.40164225
3625.65895021
3628.44315663
640.876896922
616.725719337
639.806670304
616.228762164
625.551052452
624.808706463
3641.94700371
3642.66797871
624.585932581
624.886432899
626.35479834
3639.16415135
3641.25709128
3638.93414794
625.766974378
630.065994211
627.309831743
630.001758893
3632.29542213
3635.57881674
3631.24201904
631.468701332
632.186071826
630.772278538
631.112869801
3624.32062156
3627.28821491
3624.62304967
631.253616285
627.640214788
630.612364292
628.767433657
3623.55844843
3623.55998555
3624.68560709
627.159601116
633.114534999
629.198003082
634.033655556
3628.20925954
3627.01095547
3629.12782411
635.893347281
642.795836779
636.134906064
641.792375935
3630.29846006
3630.40089122
3630.72525629
643.618684276
644.204880527
642.554172605
643.200867364
3627.866225
3629.7341657
3628.21750831
644.210881901
640.404453705
642.860171773
639.608618693
3629.21508598
3626.61844933
3629.91394344
639.589069177
616.212233618
638.981639272
616.851201786
3630.80403062
3630.80890438
630.662853564
630.977679161
631.072842232
3624.95235309
3627.10588738
3625.08372223
630.554598371
629.024695171
630.44060483
629.102575079
3625.52656683
3624.71131417
3626.23231666
629.641397094
634.319517618
629.595218687
634.665321156
3629.72322309
3628.23823942
3630.14338752
636.355390393
641.860859204
636.740691628
642.277925961
3630.91642637
3631.2113008
3631.23729559
642.661730806
643.004052999
643.297847802
643.603100487
3628.51931115
3630.44564211
3629.16078831
642.580456973
639.627923385
642.702210773
640.186593734
3630.83805591
3628.09809314
3631.79312967
639.112147019
616.484544986
639.874637486
617.836956744
3630.3146747
642.596091788
3631.71398302
643.715766235
644.290982737
3629.7519797
643.176441743
640.422976464
3632.58953371
640.202129651
617.512630663
-23.2065907072
-23.1938571466
-23.2013131095
-23.192509893
15.7904849935
15.5936908072
-23.1761792329
-23.1587518698
-23.1706641712
-23.1544630071
20.8302978871
17.5711850414
20.6488620992
-23.1688923998
-23.1761780911
-23.1577829388
-23.1698818343
30.1115397991
24.193657795
29.8250191122
-23.1778235833
-23.1656824079
-23.1640329306
-23.141125047
41.6995536747
35.8779933086
40.0380181924
-23.1564439514
-23.1335167283
-23.1334092072
-23.1044667768
42.4894872019
41.5938458017
42.4373588431
-23.1038659225
-23.1295855124
-23.0620853955
-23.0571952935
44.0751525713
43.9821748938
45.4172224743
-23.0845459423
-23.1146227338
-23.0136620843
-23.0867625173
41.7336466467
43.5926771938
42.8865378593
-23.1046623206
-23.1711008713
-23.0929547267
-23.180895012
42.4121008089
42.4672553441
42.9328497
-23.2030148312
-23.1950150125
-23.2120142563
-23.1931562246
46.0832320894
44.0083411887
47.1917417386
-23.2303783053
-23.1500027977
-23.2350557153
-23.1434381367
15.1990948029
15.1808725532
15.1692472429
-23.2299843022
-23.212155262
-23.2267746314
-23.2108836415
15.78151145
15.5978081792
16.1831682786
-23.1862163352
-23.1690895591
-23.1722719164
-23.1832343766
19.9129846912
17.076352456
18.8706645069
-23.1630507006
-23.1665165297
-23.1863710507
-23.1722039976
28.60945729
21.8510667854
27.12876125
-23.1496731549
-23.1099426072
-23.1320564301
-23.0882710907
38.0659139462
32.5592047792
36.5174470196
-23.0681140809
-23.0413653434
-23.0420956038
-23.0231146687
40.889569399
37.7467806559
39.2278423129
-23.0688296832
-23.0232415458
-23.1091245137
-23.0303336623
45.7604648562
41.9986728489
44.4428518682
-23.0335376858
-23.1296061489
-23.002270764
-23.1295247883
43.430807805
43.7751350073
43.1322760306
-23.0898468074
-23.2048972093
-23.1057331501
-23.2280415028
43.3275117443
42.6515674069
43.159323565
-23.2255530433
-23.1892970294
-23.2386957383
-23.193211359
47.5487480798
43.602494611
47.2961992581
-23.2440781113
-23.1436133097
-23.246032099
-23.1516041904
15.3253212103
15.7362540736
15.4260167106
-23.2315350842
-23.1937731999
-23.2404280935
-23.1858431788
16.0653990259
15.4183303666
15.7828711734
-23.1464970829
-23.1748455837
-23.1357290081
-23.1745537727
18.2488447522
16.7020929406
18.314779819
-23.184512778
-23.1594323069
-23.1821477853
-23.1483883116
26.3397671786
21.9019554998
26.751403915
-23.1074207786
-23.0621451248
-23.0937148924
-23.0301167823
35.7222146385
31.4890161926
35.5133993543
-22.9679647994
-22.9516603319
-22.9499712734
-22.9569624334
38.0454264454
36.1325006435
37.3886095655
-23.0433399746
-23.0095786578
-23.0672421247
-23.0680405103
42.7378207388
38.9011245632
40.6854956235
-23.0368919112
-23.1354245253
-23.0844087152
-23.1602177259
42.0307805577
40.5526474949
40.2355070462
-23.1137474856
-23.2422708185
-23.1403709651
-23.2570690423
42.3014499895
40.4945359262
41.0746107318
-23.2485163408
-23.1957940999
-23.2601897785
-23.2011794348
46.7352619823
41.6739980555
45.9570058382
-23.2350677685
-23.1654338167
-23.2401053781
-23.1724464467
15.8349422568
16.0645178205
-23.1250911513
-23.1722925235
-23.1750242897
19.8320098278
18.1501819375
21.4281956531
-23.1618343174
-23.1303425208
-23.1592471667
-23.1230047922
27.8083277662
25.1074441639
28.6097414858
-23.0569861309
-23.0017181266
-23.0614490283
-23.017245964
35.1463638367
32.2552425639
34.9992731855
-22.9508803065
-22.971458128
-22.9808580804
-23.0042984941
36.4890771249
35.5567862986
35.8781780476
-23.0721097528
-23.0806464497
-23.0817507416
-23.0707014994
38.9225471456
36.7677957162
37.9219096079
-23.088165507
-23.1535197791
-23.0810994233
-23.1480881466
38.7139776474
38.0059231273
38.1616716491
-23.1424585147
-23.2471925958
-23.135217552
-23.2345141139
40.0582648422
38.9376839624
39.7123177729
-23.2549432529
-23.2003369345
-23.2342012308
-23.1936888354
45.1376130811
39.9566332773
43.8149049577
-23.2357179969
-23.1742068881
-23.2335331296
-23.172943285
29.2019985584
29.7001609069
-23.1205732627
-23.093552588
-23.1384611858
-23.1225145639
34.7799966898
32.7410340357
34.4471202822
-23.0796958265
-23.1004075155
-23.0997428363
-23.1126992342
35.6088248823
34.8116518017
35.3591812335
-23.1543308545
-23.1220957089
-23.1372945877
-23.1208229955
37.8066411117
36.5057742332
38.0411805493
-23.0634138227
-23.1534560508
-23.112935221
-23.1583821021
38.5978103066
38.7770908804
39.2962906224
-23.125653928
-23.197951505
-23.115389192
-23.1718942889
39.460129615
39.0917425624
39.442661496
-23.2052928271
-23.1803058646
-23.1831280936
-23.1674244697
42.2467065766
39.0467881571
41.0059539345
-23.2353029982
-23.1654066205
-23.2313651047
-23.1773787678
38.5784180991
-23.0991792267
40.0573455675
-23.109893843
-23.1486833988
-23.1126141308
-23.1428024833
39.9101097653
-23.1609678108
-23.1516971516
-23.1424325334
-23.1297038578
40.9370804918
-23.218192338
-23.1783550196
-23.2013363146
-23.1652105166
1791.17218997
1791.47621422
615.206661451
616.523477918
1791.75894132
614.940995589
1790.76228259
1791.81416038
1793.64346819
616.700887845
616.327511744
1792.4934821
1792.96611285
615.269017318
1794.72763599
1792.78443194
621.015808668
618.75494632
1793.08730061
621.221697311
1794.43370618
1796.54886727
1798.12828441
623.549346055
626.4709797
1798.33950939
623.774787975
1796.26160018
1795.52856299
1795.01159808
618.890328508
621.544215949
1793.89925632
1796.5993808
621.419767726
1797.31741609
1799.84859325
626.78093627
624.217641717
1798.98342827
1798.27275731
624.061880396
1800.68485415
1799.7423147
632.565137627
629.503005381
1799.74729806
632.663760641
1800.96236623
1800.50824023
1799.69408091
636.311580237
638.304625701
1798.59257515
636.125316099
1801.17842533
1800.85680495
1800.92979427
629.789954895
632.952427055
1800.17224355
1801.40888802
632.810299063
1800.3350721
1798.09792762
637.550889405
635.713463189
1798.13939436
1800.5689424
635.886373949
1788.68290882
1795.88342083
639.61226035
639.296255988
1794.58773841
638.331236506
1789.85035638
1781.81897963
1774.97724951
636.78044962
632.560457645
1775.07270215
635.654206037
1782.61657292
1788.65800019
1794.01821951
638.269660717
636.492967205
1794.21790521
1788.74554608
637.459431203
1782.42677817
1777.39144681
632.34751524
634.451628228
1776.26635173
1783.08374201
635.05688173
1770.59393859
1770.03748752
625.915587134
628.613752475
1770.93549455
626.497474713
1769.56261564
1772.76405191
1774.86654072
626.33913535
630.62696504
1775.26098652
626.970238977
1771.86934881
1772.1005154
1773.99473649
628.838906108
627.690432541
1772.54007325
1773.58992242
627.310947909
1774.00550139
1777.44629349
632.031743857
629.286413602
1776.35873281
1775.34291842
628.57109649
1783.82898464
1779.07807581
638.455650998
635.180377253
1779.24582825
639.263903797
1783.73865029
1788.35104422
1792.17774545
642.606710434
645.829899306
1792.09945102
643.489318629
1788.30181327
1784.1605265
1780.72161015
636.266515526
640.751001523
1779.9329487
1784.5795195
640.162390765
1788.42855377
1791.92924516
646.500515373
644.739085368
1791.98967088
1788.53378272
644.228855415
1795.88879768
1794.75825346
646.089859248
646.413823938
1794.53390831
646.697045028
1796.26065638
1796.82684304
1797.73723455
646.460128491
647.273156811
1797.20053948
646.961221034
1797.28759968
1795.48392329
1794.03834219
647.036374259
647.520430978
1794.26761652
1795.10103953
647.17995935
1796.26245938
1796.15022037
647.597121993
647.578510989
1796.58295394
1795.7798754
647.338395632
1796.87490052
1797.97546372
647.330267205
647.682812523
1797.29656282
647.25142752
1797.8203903
1795.29752874
1793.76631265
646.732957056
645.704971109
1792.32487266
646.403844764
1796.57625526
1795.89638851
1795.81534185
647.490878442
646.347450643
1796.63281951
1794.62387256
646.839094043
1793.87983784
1788.52199535
644.618652243
644.938555169
1790.41137715
1792.27359369
645.640075801
1782.61467887
1789.66554937
648.742464256
645.776212178
1788.07376061
647.93525817
1784.66846349
1774.99997018
1776.51165796
653.483111851
611.121070856
652.285543985
1777.15620484
1777.60487602
1779.99924174
1783.75030255
644.22407876
644.776888972
1785.75433093
1777.83498202
645.87702869
1770.81365586
1779.80582598
613.100223393
647.871271016
1767.7470283
649.213258677
1778.44182312
1810.53963043
1814.86196376
625.922396296
627.646449994
1810.65243177
625.876177239
1813.86846104
1806.59086081
1801.36546871
623.717817541
622.095509319
1805.770685
1802.95292777
623.972704403
1810.3956716
1812.13962808
627.120006349
625.954937433
1810.39078029
625.952436297
1812.81462472
1807.54875952
1805.78534011
622.921407122
625.090322905
1804.51266658
1808.18847674
624.625340476
1797.32545407
1797.80268102
617.94497455
620.565290162
1795.2852003
1799.8252378
619.195785873
1796.22485908
1794.85685843
617.341906989
619.054929641
1794.35974007
1796.37005583
618.5389376
1799.47049686
1803.45187138
621.451130572
621.495381839
1801.70844829
1801.57527146
620.396098644
1798.27071657
1799.82930391
620.218517303
621.077791946
1798.04744829
1800.35387501
619.925949924
1798.52455717
1796.12017186
621.764875455
620.319054302
1797.49329107
1797.24102195
622.053727123
1799.76682372
1800.44425208
624.102875649
626.612126241
1798.94949438
1801.14306574
624.071728363
1799.45197926
1799.91249146
621.194123338
623.029286581
1798.49235924
1800.51955117
622.531272596
1800.56988958
1802.837759
626.399259943
624.469846446
1801.89740945
1801.52432179
624.188090758
1803.08179406
1801.60379652
632.911555795
629.733510801
1802.14778045
1802.4355224
632.728147603
1802.25081028
1798.55833597
635.693935164
637.039531687
1801.21985776
1799.49784488
635.735840521
1803.9574672
1804.04111039
629.219264636
632.306390785
1803.16864708
1804.73290764
632.449982276
1803.27004664
1800.99386814
637.240806181
635.725633339
1800.50679765
1803.90031697
635.849977708
1789.82932325
1794.39168778
636.031624427
637.013728301
1789.14119972
1795.17335214
635.821650354
1784.14696895
1778.09087873
633.788430642
630.473540302
1783.57856864
1778.71533089
633.239010002
1790.44503114
1796.26103989
636.900976601
634.997090196
1796.01835085
1790.35437378
635.526729991
1784.55931841
1779.31745109
629.704905316
631.887940285
1779.18923889
1784.45083693
632.652052708
1775.65420224
1774.8855921
627.429692051
627.559685258
1774.60242467
1775.65541198
627.146539809
1777.31055415
1778.49180362
629.359510988
632.908889485
1776.21488373
1779.89985296
629.231870134
1776.66964473
1777.08331541
627.203992905
626.585676865
1776.4850374
1777.44100141
626.974261398
1778.27338047
1781.24886555
632.806161367
628.956323898
1780.55746821
1778.95527721
629.104793547
1785.81390698
1781.5171795
640.85426922
637.08471743
1785.00022868
1782.61677526
640.898221047
1789.18526733
1791.85258285
644.888446097
647.098485799
1788.67782169
1792.03802316
644.800437407
1786.67424633
1784.35957388
636.861198948
640.370625896
1783.49304822
1787.56536404
640.64901345
1789.81475357
1793.02373554
646.729754766
644.187299813
1792.45575483
1790.56054519
644.485838215
1794.59974601
1793.72668678
647.634756372
647.578386291
1794.69943301
1793.72034785
647.645615837
1795.09522525
1795.57459215
647.572460399
647.302365938
1795.34184792
1795.10273854
647.589234757
1794.73837459
1794.42916142
647.343044853
647.167900104
1794.02759316
1795.01183668
647.440975384
1795.05247358
1794.94627515
647.126370464
647.102542964
1794.86830508
1795.21918662
647.455528139
1792.52719828
1794.91219886
645.929692057
646.558507079
1793.45624266
1794.19367049
645.421652205
1789.99557821
1787.19123483
644.485366337
642.6001099
1790.97560323
1786.21155043
643.877499063
1792.08740165
1793.82204772
646.289530127
644.786477736
1793.8261079
1792.00779221
645.020999852
1789.48417034
1785.57537961
642.147969812
643.180684611
1785.69712066
1789.37882838
643.456556804
1776.13755045
1782.74269067
644.019911253
642.013519906
1777.00160305
1781.80362756
643.366352819
1766.68587327
1780.63352471
647.330054513
616.199283083
1767.32458559
646.463551959
1781.2894629
1776.0084493
1781.34060677
641.537714209
642.490313814
1781.45664771
1775.91134045
642.993776896
1766.9978465
1782.20226353
616.508819016
645.509853582
1767.09189704
646.43612644
1782.00505655
1810.12123332
1811.52015925
625.934504845
626.593211264
1810.30489951
625.920738637
1811.02802186
1809.00861593
1807.01193615
625.224548282
624.590864964
1808.77552302
1807.76965521
625.274430445
1809.93789319
1810.15770488
626.329198317
625.610600354
1809.70032722
625.830136497
1810.58041828
1809.13864704
1808.46021002
624.797551175
625.215849365
1808.25742751
1809.10852517
625.296325433
1805.0936557
1805.11726588
622.566999897
624.046686272
1803.45727522
1806.4175037
623.494551292
1803.96870781
1801.54851298
622.140625315
623.052623734
1802.21782807
1803.24830766
623.069248529
1806.26528277
1807.73970124
624.408213243
624.29050141
1807.26258227
1807.04644114
623.982741925
1805.38588868
1805.94072212
623.775342665
624.237010366
1804.7309001
1806.43754913
623.731918181
1803.15390785
1801.44791476
623.648599093
623.538108247
1801.77856384
1802.9822741
624.240621119
1803.77384388
1803.81740952
624.726089158
627.23692272
1802.58396359
1804.81662115
625.262333074
1804.5729216
1805.69317855
624.272653242
626.045928342
1804.43196876
1805.74613363
625.083255539
1804.98258369
1806.14273337
628.224625621
627.403516064
1805.66164969
1805.98525976
626.232477191
1805.46046397
1804.86384346
632.405676692
629.908322332
1805.27135871
1805.57807179
632.744325034
1803.59306866
1800.75500016
635.566933423
635.954342202
1803.99674546
1799.90247072
635.348449219
1804.94916273
1805.6041918