/*--------------------------------*- C++ -*----------------------------------*\
| =========                 |                                                 |
| \\      /  F ield         | OpenFOAM: The Open Source CFD Toolbox           |
|  \\    /   O peration     | Version:  v1906                                 |
|   \\  /    A nd           | Web:      www.OpenFOAM.com                      |
|    \\/     M anipulation  |                                                 |
\*---------------------------------------------------------------------------*/
FoamFile
{
    version     2.0;
    format      ascii;
    class       volScalarField;
    location    "10.6";
    object      alpha.water;
}
// * * * * * * * * * * * * * * * * * * * * * * * * * * * * * * * * * * * * * //

dimensions      [0 0 0 0 0 0 0];


internalField   nonuniform List<scalar> 
28582
(
0.999999192747
0.999998558217
0.999999045936
0.999997791708
1.00000017313
1.00000008875
0.999991471252
0.999990699526
0.053584167451
0.0573546120374
6.3837696206e-07
0.999990788842
0.882552958173
0.872425305012
0.999991040148
0.999991472607
0.86864443979
0.998477214973
0.998378289446
0.999999425279
0.999991649818
0.999991773963
0.999999437765
0.999993409847
0.999993663364
1.00000084009
1.00000060453
0.999995880234
0.999992485089
0.0585757930149
-1.04500638988e-29
-5.10451542644e-28
0.999993774614
0.999997194431
0.88518245581
0.883714247841
0.998670446446
0.999993379191
0.999993075898
0.999996506633
0.998476030967
0.859755739628
0.998389163931
0.998303391347
0.0553817974362
0.058717650748
0.000503934864671
0.000452070221826
0.0565329876885
0.000502374782793
0.998589085721
0.998591157058
0.880623583453
0.882630049594
0.998598471597
0.880064898623
0.99860031022
0.998604186718
0.998562310516
0.876720024963
0.871474912914
0.998587881349
0.875904383692
0.99859123605
0.998538186898
0.998521947526
0.86561028754
0.867385652448
0.998558546124
0.863754233717
0.998501253651
0.998469699282
0.86405779593
0.86058779248
0.998514094302
0.864469720101
0.86200188033
0.998477066624
0.998236373311
0.857509147641
0.85427956524
0.99837945704
0.856167724086
0.998222035848
0.858777016881
0.0513267263055
4.78813485731e-05
0.0505253540547
0.0510604833911
2.61482252201e-05
3.24958031113e-05
0.0593414366017
0.000462020695405
0.0003744124235
0.060656754963
0.000438753918145
0.0600054532677
0.000360242266277
0.998882194505
0.998948922961
0.884730995871
0.885774524903
0.998852657872
0.9989909244
0.885421873937
0.998779317966
0.998674572489
0.884241825254
0.884675130551
0.998765750062
0.99867863968
0.885023911746
0.885344368479
0.885036287139
0.998581817832
0.998708831373
0.88488177992
0.998618499934
0.885135435268
0.998475992284
0.863572952794
0.859693228238
0.998488616056
0.863065920455
0.998496851317
0.859301454095
0.998532899229
0.998610285038
0.861703959925
0.857911499265
0.998539243611
0.998606558024
0.858504290001
0.998279795722
0.998246281764
0.857505991252
0.854307786976
0.854737027884
0.9984265436
0.857876454407
0.855199960448
0.855992142744
0.99832049703
0.998467484285
0.858248664067
0.998496874821
0.858250434404
1.00000088124
0.999994383864
0.0613132018549
-3.77490710631e-27
0.999995602312
0.883619611376
0.999998016477
0.999997372608
0.857644930015
0.855577434199
0.851633028954
0.99999778279
0.999997266146
0.849577116095
0.844098682936
0.0527878839052
0.0621724118379
0.0634253437045
0.00034517567211
0.000399389839361
0.000391286382159
0.0644571858941
0.0651900240908
0.998505029017
0.998549758689
0.883707169834
0.881565957421
0.99857142412
0.882191079979
0.998513269938
0.998759390706
0.998684078533
0.85567157143
0.856743433454
0.998733164058
0.998676152607
0.855487314604
0.998546798855
0.99832897008
0.857135555344
0.854781268764
0.998512091635
0.855420424591
0.998340569308
0.998558804756
0.998311557669
0.851450609443
0.853394168294
0.998547345627
0.853460034304
0.998336240034
0.99849225248
0.998285655567
0.849666253161
0.847455567113
0.998527223972
0.8482274164
0.998251665746
0.998452789658
0.998178294058
0.84595414524
0.845615474085
0.998403184617
0.847046375388
0.998217809355
0.999992050968
0.999998491805
0.999987393405
0.999996273218
0.040340147419
0.0443095083423
0.0404704482309
0.0438257322386
0.0443994905301
9.1036229384e-06
3.88150976791e-05
1.25750054331e-05
6.10243203633e-06
6.42775773032e-06
4.38940014828e-06
0.999995055319
1.00000053975
0.936636877872
0.931368850914
1
0.921543314413
1.00000080167
0.999998387322
0.925840333664
0.908661814704
0.999992738025
0.999993622596
0.999975457703
0.916110893566
0.878472108049
0.900204581871
0.874259629416
0.999973923682
0.99997562266
0.867971820526
0.854136804577
0.869574843667
0.862176785922
0.999995394916
0.999991523813
0.898782954407
0.876167048123
0.876808285157
0.999989903788
0.999992429273
0.999991884677
0.871655638121
0.864818218174
0.875198631416
0.872485764274
0.875755953498
0.874231551394
0.0367501135582
0.0377687792669
0.0400421279561
0.000272915274314
0.000408720204072
0.000314632896855
0.000450935364488
0.000825536382968
0.00128225120632
0.000723079556033
0.00109712150124
0.0381975695274
0.0382726785579
0.0426976168643
0.0405264591487
0.0424583136237
0.00036282322719
0.000487712278581
0.000409342719844
0.00049858668521
0.0468090626861
0.0439054690042
0.0474603461261
0.000531027093011
0.000774523489867
0.000497774119201
0.000618569279778
0.042300579765
0.0424463799683
0.000408310536714
0.000452074832405
0.00045753840213
0.0477084292903
0.0440988228483
0.0474545208435
0.000424724984057
0.000448274598532
0.000414911950354
0.000396138651527
0.999920481621
0.999876662724
0.94285808389
0.937162169327
0.999877006813
0.943589496805
0.999944637527
0.999932844227
0.999835212313
0.934836206319
0.939015132285
0.999885177011
0.999918212818
0.941794217608
0.99957102712
0.999719949498
0.925618621877
0.908934431843
0.999763031741
0.999502126319
0.913718666742
0.999784421942
0.999747972845
0.933805480981
0.919266284078
0.999809892249
0.999688935449
0.927755364995
0.999683692371
0.999520237974
0.914063041157
0.916067548751
0.999617216168
0.999607551329
0.922038608239
0.999328285543
0.999621222121
0.904421907233
0.909256613651
0.999378581898
0.999564652537
0.898062950691
0.99902984663
0.99867087053
0.891847886375
0.874105695162
0.999048398052
0.998600187544
0.886317424717
0.999194967669
0.999373646258
0.904926850337
0.891187544786
0.99943132656
0.999116367024
0.894883027207
0.998904744983
0.99854438475
0.874573306159
0.883031748944
0.998568300552
0.998830140734
0.884816756804
0.998131733936
0.99837829321
0.857902941976
0.866407738384
0.998196732156
0.99824042246
0.858575155478
0.998035307896
0.998197189317
0.856440054878
0.855701687034
0.998098176962
0.857009791538
0.998147879825
0.998229261657
0.998323050083
0.86781942667
0.864371178353
0.998338836639
0.998256438874
0.861866659753
0.99812497908
0.998239245835
0.858627827868
0.86304699654
0.998189960501
0.860164931158
0.998184605856
0.999012174523
0.999265873244
0.890803081132
0.896520962567
0.999061024092
0.999235199569
0.889474854995
0.998782401318
0.998591538115
0.883459352642
0.876606586468
0.998835105984
0.998530429237
0.883209081628
0.998837457111
0.99864574033
0.876980011624
0.881712623346
0.998634711194
0.998831508699
0.882528571431
0.998301508125
0.998408132877
0.867362759117
0.873379375462
0.998324360007
0.998375430029
0.869860400373
0.998325611206
0.998351821898
0.865690659768
0.867805151308
0.998299493715
0.868120704466
0.998389674456
0.998392400218
0.998457543706
0.874565927738
0.873084305835
0.998466594023
0.998470843854
0.872070753048
0.998421130152
0.998579028989
0.87032951185
0.871831209813
0.998502131784
0.870457210894
0.998496735857
0.998576054394
0.998555194504
0.873946666802
0.875914456282
0.998565138791
0.998572953232
0.874956826995
0.998678107995
0.873545065183
0.998602171328
0.999999207866
0.999996731809
0.999989377357
0.999996735336
0.999996820959
0.999993045886
0.999998885762
0.999996378218
0.999994234737
0.999996834099
0.999997520504
0.999994014192
0.999975289915
0.999999376175
0.999974089272
0.999933919366
0.999963660938
0.999989862527
0.999996168053
0.999993444631
0.999997004012
0.999993419804
0.999995670442
0.999991683515
0.999979485492
0.999977333481
0.999977327842
0.999989039802
0.999996201889
0.999997635811
0.999995675193
0.999987720056
0.999989805593
0.999995324022
0.999997959356
0.999997342525
0.999999268376
0.999998240643
0.999992968594
0.999988804413
0.999994522202
0.999998526706
0.999997833865
0.999995910015
0.999992834295
0.999997711782
0.999998813584
0.999996086853
0.999967135747
0.999997939383
0.999855263237
0.99990817015
0.999984167706
0.999999314645
0.999987158344
0.999969482628
0.999956902695
0.999996163949
0.999959529306
0.999915716639
0.999954286738
0.999990770477
0.999997546292
0.999995770233
0.99998290622
0.999993882078
0.999989993833
0.999978718789
0.999978979541
0.999989803032
0.999997879308
0.999998817683
0.999998946772
0.999998220771
0.999997180082
0.999997279179
0.999997801076
0.999998517448
0.999998466483
0.999997276832
0.999995328407
0.999997947449
0.999998807726
0.999996884762
0.999918384069
0.999996328249
0.99989107943
0.99994383406
0.999995545902
1.00000288362
1.00000183608
0.999995920173
0.999853995574
0.999988806633
0.999971913659
0.999961568885
0.999982199567
0.999998699011
1.00000265273
1.00000302495
1.00000118237
1.0000007592
0.999999315175
0.99999781393
0.999998670527
0.999999921566
1.00000108757
1.00000220592
1.00000044041
0.999999818733
0.99999992268
1.00000017268
1.00000047008
1.00000066012
1.00000072756
1.00000085572
1.00000124946
1.00000038013
1.00000050828
1.00000079926
1.000000928
1.00000111726
1.0000012698
1.00000153834
1.00000035573
0.999999797105
1.0000002197
0.999838040421
0.999998063967
0.999996487748
0.999995998549
0.999995580289
1.00000093427
1.00000247996
1
0.999990072628
0.999981299755
0.999986297049
0.999996853825
0.999991324812
0.999986325567
0.999980748517
0.999976236912
0.999959620524
0.999991809431
0.999991830739
0.999991079652
0.999988689474
0.999988667996
0.999989916179
0.999988956629
0.99998515187
0.999979144593
0.999978889577
0.999994751881
0.999988174902
0.999987492894
0.999990688478
0.999994554395
0.999994903082
0.999993248621
0.999988951032
0.999985375518
0.999990657078
0.99998528047
0.999987555514
0.999991177225
0.999990673229
0.99998672804
0.999984539705
0.999993501004
0.999992531968
0.999995103838
0.0561839223995
0.0545304492071
0.0546455960057
0.0562562311291
0.0599468718257
0.0635028249476
0.0656629708884
0.0665383905366
0.0515927554399
0.0561030270649
0.0568403982153
0.0567638284605
0.0571998245557
0.0591233693604
0.061723128427
0.0650305277184
0.0673802099377
0.0677716962354
0.0511180683714
0.0554466390767
0.0550471507363
0.0556256228062
0.0571488032563
0.0589585422996
0.0610095001192
0.0656615985699
0.0677131450922
0.0694580857071
0.0526696066645
0.0527842195649
0.0535796009399
0.0553417573509
0.0566117758726
0.0591491314511
0.0634416532959
0.0660271208347
0.0682550702257
0.0521675072497
0.0541684555589
0.0554893465061
0.0596825752505
0.0623711286332
0.0643107788644
0.0658854793252
0.06338823962
0.0645248490357
0.0644757053061
1.7189763022e-05
6.37968040721e-45
3.99715416712e-25
-2.03146668896e-25
2.47810151223e-06
2.17276360626e-05
-6.55774281302e-27
-2.51609709336e-29
-8.90679342782e-28
8.59071504661e-05
6.52106420838e-05
3.91201505962e-05
4.31978789002e-06
-9.80362580583e-27
7.90540464237e-07
5.84986312356e-05
1.30758183171e-05
-1.57543015438e-26
-7.92516248215e-27
5.56082511329e-05
4.78558947992e-05
2.12571600989e-27
-4.84865865404e-29
-1.61486560013e-28
-1.31519316165e-26
-1.11526233303e-27
8.07068901509e-05
-3.38135276045e-24
-9.94533909632e-25
6.14269503688e-05
6.18914043228e-07
-2.58184304642e-28
-2.0397204925e-27
-1.39610992213e-27
-3.23680094666e-29
2.20422332977e-05
-1.4171508206e-24
-4.30666851618e-25
6.51236844404e-05
1.11254168265e-07
3.33191176145e-06
3.94037110873e-05
-2.14630278412e-26
-1.40626466429e-25
-9.60413412576e-26
6.9366620246e-05
-3.10786439985e-27
-4.37120356064e-26
8.43890561826e-05
0.999994913207
0.999993789022
0.999995038789
0.999977705914
0.999998715132
0.999965284567
0.99999347629
0.999999372242
0.999998619058
0.999998941986
0.999999305716
0.999989290694
0.999999288668
0.999997158743
0.999993996938
0.999997083243
0.999981924317
0.999992802825
0.999994302305
0.999994727447
0.999980057153
0.999996237102
0.999983501835
0.999993213153
0.999998035451
0.999996146844
0.999984550139
0.999995056404
0.999998892225
0.999931358186
0.999994930659
0.999934851044
0.999997378703
0.999936015657
0.999997807285
0.99996048901
0.999999278249
0.999988146315
0.99999820431
0.999965501007
0.999997920334
0.999950840347
0.999978028542
0.99997928249
0.999963458172
0.999914130273
0.999956141353
0.999922705269
0.999953198724
0.999995650311
0.999981629651
0.999995826697
0.999993311673
0.999985518161
0.999985256508
0.999999138109
0.999995655867
0.999927866917
0.999988300635
0.999785033638
0.999963403276
0.999852597576
0.999971256607
0.999964451518
0.9999929811
0.999958054757
0.999994785482
0.99998284499
0.99999614763
0.999995427375
0.999937687095
0.99995106664
0.999967851069
0.999925253298
0.999959086727
0.999998289352
0.999994393471
0.999985272948
0.999988062952
0.999999292474
0.999990257391
0.999997502021
0.999996152073
0.999997492821
0.999782736569
0.999915909729
0.860160137693
0.859300650415
0.999958847005
0.999935195644
0.999979136139
0.860686355524
0.866182494665
0.859520225013
0.863523568018
1.00000078118
0.999999282749
1.00000086007
0.867999941968
0.870368998603
0.864782943965
0.866781712314
0.999995953416
1.0000009045
1.00000121794
0.871688664617
0.874779511271
0.867355081918
0.867543724955
0.999994710199
0.999999041966
0.99999466669
0.874467953757
0.867985883273
0.865835309887
0.855079059143
0.999999175079
0.999993861633
0.999992364726
0.863454891773
0.851276237069
0.851065113677
0.845178981639
1.00000345427
0.999995942583
0.999999995992
0.851061944124
0.851966874385
0.845699059435
0.845953726037
1.00000577729
1.00000299986
1.0000054853
0.851173495264
0.841489412756
0.845064112654
0.832111352986
0.999943118628
1
0.999957693368
0.843869405548
0.810845435638
0.836157914528
0.833770847793
0.999984780182
0.999994730024
0.854574702685
0.861073291251
0.862309901873
0.868440048295
0.999986875861
0.999996991602
0.999995256113
0.860657026306
0.860149078857
0.868406976319
0.867436776141
0.999982636485
0.999992910207
0.999990372652
0.86013351079
0.862523928481
0.866531117791
0.864110763723
0.99999341744
0.999988407237
0.999987350081
0.863464861267
0.8658072007
0.864137584012
0.865260057647
0.999995209726
0.999987021687
0.999985191492
0.866109820999
0.864553732866
0.865124233565
0.859130028944
0.999988611084
0.999985313966
0.999983603084
0.862322876916
0.852448160795
0.856412117635
0.849886846756
0.999986568409
0.99998553857
0.999985069844
0.849702586853
0.846679850771
0.848047509378
0.845214157606
0.999978883839
0.999984177843
0.999982950562
0.845922830911
0.843155991207
0.844245678395
0.840400723906
0.999970163386
0.999979529242
0.999975907842
0.842093407739
0.830151367807
0.839630522695
0.829457516187
0.999948676298
0.999967894193
0.999976139998
0.834551491525
0.835291507519
0.833777305111
0.835367413616
0.999990793202
0.999992731447
0.999993589049
0.864760922577
0.870126057721
0.87339578505
0.87751795599
0.999991594339
0.999991513295
0.999992950508
0.870546557685
0.869974481053
0.878857546412
0.87853049037
0.999990249705
0.999990965124
0.999990283996
0.868909480117
0.866265340151
0.876973192626
0.87010885605
0.999989413938
0.999989052612
0.99998809333
0.865990731119
0.866454154107
0.86916755638
0.869018702914
0.999990113163
0.999988987143
0.999989114554
0.865628295914
0.859908860944
0.868051245064
0.863533182436
0.999991685591
0.999991350543
0.999991239051
0.857626321721
0.850191528216
0.861954806332
0.858178299801
0.999987714702
0.99999127192
0.999989540385
0.848449352495
0.846627517227
0.856966207574
0.853823500122
0.999981245475
0.999984943585
0.999982232717
0.844767924482
0.838520227888
0.851112397141
0.840357438747
0.999977643376
0.999979086632
0.999979888834
0.837731551303
0.831827518975
0.839254308687
0.835802562776
0.999986901396
0.999980771084
0.999988030599
0.835518724086
0.836398127587
0.838803230692
0.83631089044
0.875279378021
0.878754008271
0.999989788506
0.999995233245
0.880355474619
0.879904654723
0.8845281734
0.999986762052
0.999993633587
0.999993779487
0.878433799944
0.873300746103
0.883829768839
0.881793248622
0.999989420712
0.999994319272
0.999993533906
0.87206672944
0.870374373159
0.880981105089
0.875908791675
0.99999429579
0.999993946547
0.999993365683
0.869221762568
0.865034746396
0.873302162901
0.868008840809
0.999995644611
0.999994871533
0.999994127681
0.863648809395
0.859863322131
0.867836781481
0.866311179808
0.999994080956
0.999994109329
0.999993237337
0.858886358576
0.855284480582
0.865397075994
0.85577241079
0.999990531925
0.999991220717
0.999989880879
0.852079539435
0.841701352994
0.852579307961
0.847034136601
0.999985070629
0.999988193122
0.999985274706
0.840709936016
0.837542157854
0.846418051838
0.841300332015
0.999988336038
0.999983759169
0.999988019699
0.840421631666
0.83603497892
0.844206228778
0.836443105432
0.999988137165
0.999993798943
0.882735141396
0.875560498091
0.873353938315
0.999986152073
0.999993489409
0.999994348597
0.873062308933
0.87015469767
0.870309188351
0.868324052475
0.999989900656
0.999995894868
0.99999644958
0.869896068156
0.866065378515
0.869051152719
0.862096500804
0.999990533792
0.99999535122
0.999993374742
0.862858565718
0.856397795701
0.858506818656
0.854896763947
0.999988751977
0.99999121044
0.999988702947
0.854969015989
0.848283100284
0.854208010662
0.851221589048
0.999982956167
0.999988537703
0.999986560553
0.84748536355
0.841724830266
0.850957142801
0.84406846899
0.999990803164
0.999987410052
0.999994335143
0.844938311068
0.836060275751
0.847505623812
0.837811195814
0.999994379123
0.853488790151
0.999993080352
0.852598172861
0.850206222685
0.999992576743
0.850068995228
0.843664995039
1
0.847194976239
0.838883651519
0.00075030241338
0.000217946681158
0.000883526255494
0.000254150107891
0.0556494518351
0.0570346038683
4.66352805551e-05
4.23791250414e-05
5.59587242867e-05
5.2641018326e-05
0.0552305461595
0.0570375857079
0.0560918009653
6.13686318738e-05
6.09031826645e-05
8.4133768392e-05
7.34038328685e-05
0.0544969489119
0.0555523094159
0.0555221869052
5.40929037315e-05
3.15650601171e-05
6.0938545302e-05
3.17847402059e-05
0.0551678783904
0.0558566835319
0.0567013524725
3.51400038781e-05
9.01071986967e-05
3.97859751866e-05
0.000199854555097
0.0578908844543
0.0578837135797
0.0594515757305
0.000309057221253
0.000663649216069
0.000506850948047
0.000812031027388
0.0618870800622
0.0613093301286
0.0628515206748
0.000761353209686
0.000787689670046
0.000807070903513
0.000763861480492
0.0646402768555
0.0642725316436
0.0651186642583
0.000600679806888
0.000389801094611
0.00052746873352
0.000346815182437
0.0673938289374
0.066334018867
0.0684989339089
0.000354048736558
0.000409519954493
0.000351392559535
0.000458293555192
0.0682016005332
0.0665423920231
0.0705940727141
0.000776733095929
0.00222574406216
0.000743974967041
0.00111873939988
0.05414833067
0.0514385536325
0.0543315671818
0.00127840669799
0.000699180523949
0.00119615436235
0.000662779191349
0.0568164742205
0.0561197279417
0.0561738404755
0.000446756447199
0.000389096491681
0.000216120699035
0.000150205055571
0.0565601382071
0.0561856059986
0.0562444588381
0.000249828418323
0.000131839230396
0.000119582062735
8.06758770124e-05
0.0567600553045
0.0568536529567
0.0571604119591
3.19853510617e-05
2.35878696141e-05
5.05155381958e-05
4.59756529355e-05
0.0580681471541
0.0576524378177
0.0586162291858
4.50336617514e-05
0.000235380295745
0.000128719283121
0.000298276320222
0.0601526961457
0.0593381442916
0.0599940541996
0.000706648467304
0.00115031473303
0.000714457580838
0.00116935535688
0.0632729058115
0.0618396167166
0.0638646323707
0.00105680816706
0.000867944277747
0.00114877705913
0.000817336413924
0.0664271567434
0.06562321675
0.067174708942
0.000399967302918
0.000306971755394
0.000366071908342
0.000316542420026
0.0692969257325
0.0679033868255
0.0694460585979
0.000336801161792
0.000488202716
0.000384709070512
0.00052066207393
0.0718044908857
0.0687968924912
0.0720985482723
0.000684334973754
0.00084701811382
0.000694145790166
0.000891473276879
0.0541039512923
0.0503578105508
0.0532901043853
0.000845491343015
0.000284688702604
0.000720718442815
0.000267656213927
0.0552247271456
0.053866141541
0.053869166267
2.16744714545e-05
2.09951045024e-05
1.86088484847e-05
1.78250664017e-05
0.0551153995798
0.0538506501966
0.0542820487064
3.58336685263e-05
4.00793594862e-05
3.11653237405e-05
5.36806975463e-05
0.0562972939479
0.0547746616119
0.0554974351581
6.78446665601e-05
7.98725433517e-05
8.7427740283e-05
0.000102350876476
0.0580717076797
0.0562310062427
0.0570036294403
0.000156075441952
0.000274310736654
0.000133231102064
0.000193820594685
0.0601087838334
0.0575892138008
0.0585266035253
0.000369541220033
0.000523779848863
0.000292166580135
0.000427480235779
0.0631855869608
0.0595106854141
0.0624537946997
0.00150160262236
0.00116868143821
0.00125733153193
0.00106308673635
0.066997269259
0.0648742555327
0.0661798996414
0.000424781146605
0.000373939868073
0.000403855726971
0.000350521667285
0.0690366397858
0.0669559895759
0.0681958206585
0.000421484561469
0.000500016637894
0.0003850067508
0.000427259616509
0.0720352537372
0.0692288242471
0.0712060113903
0.000719795600138
0.000997293960824
0.000683333960898
0.00111850523543
0.0527224944255
0.0515633961249
2.14260362509e-05
1.88139563651e-05
1.63799739802e-05
0.0529681256056
0.0513268192867
0.0515536793706
4.33715657573e-05
5.97839948779e-05
3.45187185628e-05
3.96588426752e-05
0.054489844379
0.0523526893265
0.0537204979665
8.50170387093e-05
9.02502385641e-05
6.43551467496e-05
9.26626332876e-05
0.0560442578616
0.0546219098947
0.0554410440594
0.000119340588786
0.000175407548225
0.000176400565552
0.000292548864743
0.0575955074347
0.0561395091512
0.0569756472764
0.000267106659477
0.000435649605821
0.000329611744733
0.000381840554726
0.0612127293253
0.0584369320557
0.0607912689946
0.000795329192291
0.000800546516314
0.000620427239753
0.000567056858634
0.0650232989795
0.0626643656074
0.064066990779
0.000363314691586
0.000319391333451
0.000311650376178
0.000268942380188
0.0673596112969
0.0649548232814
0.0665526145268
0.000331200459687
0.000363463965914
0.000266506839233
0.000308245535731
0.0702077520786
0.0670247280979
0.0691784823482
0.00062013277469
0.00121970575096
0.000554664070153
0.00137869560439
0.0537252351415
0.0544026110063
7.4908601968e-05
0.000157837979307
0.000123887182195
0.000264181374868
0.0544736937429
0.0548536448688
0.0551200886124
0.000390439829625
0.000629997037105
0.00056369979799
0.000861865223531
0.0575211280262
0.0557818334279
0.0583228094099
0.000875841750116
0.000599014659031
0.001065569177
0.000523285064634
0.0612543414951
0.0605216777712
0.0617939369732
0.0002705056734
0.000257389409786
0.000273962661605
0.000267160724809
0.0634770414003
0.0627006621186
0.0634865049668
0.000271703600356
0.000273123258796
0.000277031383663
0.000278124893423
0.0661874796534
0.0641324040351
0.0657551895137
0.000261485974053
0.000303348074422
0.000252169919103
0.000273448977232
0.0682919477252
0.0651433834778
0.0675259235218
0.000510131154646
0.00144632828849
0.00046516246897
0.00152600449264
0.062417708323
0.000344803709229
0.0641058611326
0.000337227859663
0.000342814851777
0.000404158654728
0.000420123755913
0.0657187132681
0.000300457190258
0.000305200371418
0.000379526915338
0.000375049851653
0.0665467989377
0.000486706470258
0.00172452351326
0.000529865562553
0.00171734055361
0.999050609479
0.999020380906
0.860328203845
0.85887679336
0.998955814466
0.85878119635
0.999120506493
0.998973206942
0.998846072248
0.858378759686
0.85938722944
0.998880883581
0.99888666913
0.858094743206
0.998720267678
0.998870964002
0.862131582326
0.859388341251
0.998790620657
0.860848508723
0.998771307003
0.998710676775
0.99877698191
0.864154715554
0.865543471224
0.998714652949
0.863303031194
0.998764563544
0.998675973911
0.998783290906
0.859265236426
0.860476834868
0.998753139326
0.998707272271
0.860803998513
0.998665316369
0.998710739278
0.864909219131
0.862182278837
0.998677152509
0.998701162985
0.862870938656
0.998783301766
0.998792816567
0.86903428837
0.867060601047
0.998760414639
0.868066416786
0.998791805884
0.99877775494
0.998732993945
0.869766519417
0.86955522039
0.998751942311
0.869104943195
0.998776438285
0.998739471496
0.998727279994
0.866434635213
0.865738097277
0.998726248579
0.998727915804
0.867168945872
0.998727678082
0.998674115779
0.868472251498
0.866607183718
0.998686213391
0.998716901845
0.867975665351
0.998696018898
0.998696706871
0.873187112888
0.870352359031
0.998715345706
0.871347438043
0.998691068993
0.998693843177
0.998682313382
0.87410769
0.873180710135
0.998663765902
0.87227124488
0.998695877503
0.998601701065
0.998602743829
0.869195871609
0.868132795484
0.998630613127
0.998555015763
0.869904807985
0.998584390671
0.99836130903
0.870341582408
0.868146796032
0.998511281093
0.998485251777
0.870487425036
0.998624923957
0.998666135482
0.873980276111
0.872533154879
0.998638713488
0.871451063056
0.998669155269
0.998650484225
0.998724651146
0.871412935812
0.864156728386
0.99863780957
0.868421732916
0.99873413404
0.998447953031
0.99826510586
0.869114622891
0.863382938354
0.998456162142
0.998236410785
0.867281396429
0.99850534166
0.998315088251
0.859410198132
0.859440945074
0.998513957896
0.998284540867
0.863595476495
0.998530417761
0.998680028385
0.858374025282
0.859392707996
0.998598417099
0.854710482821
0.998577396475
0.998436568396
0.998433888887
0.854462973825
0.848775242937
0.998381807896
0.851285484023
0.998475374523
0.998426620188
0.998314861363
0.855049534968
0.847489099618
0.99848487412
0.99828416301
0.851072675627
0.998334870238
0.998222691771
0.847285458501
0.846168510042
0.998324314756
0.998229873055
0.849046732008
0.998248117377
0.998373723137
0.85119520687
0.849115027364
0.998330445693
0.849474294354
0.998286571285
0.99808409209
0.997842576674
0.852026843437
0.850385295639
0.997860254998
0.850281860757
0.998120020165
0.998210730397
0.998197529345
0.847860754921
0.846062515114
0.998290785473
0.998121959623
0.848428792988
0.998047123556
0.997768381236
0.848840785021
0.846074075298
0.99783099666
0.997965944193
0.848982940778
0.997536323283
0.997587254113
0.850540807144
0.849651562347
0.997624471092
0.848625094545
0.997571650505
0.997444478071
0.997618869797
0.846610590344
0.837683764572
0.997498774467
0.843693441338
0.997544142152
0.997518387552
0.997533361742
0.847824773643
0.844628558332
0.997613658334
0.997417429357
0.846616589031
0.997371991974
0.997260094634
0.834016307469
0.839356149659
0.997407344397
0.997233079068
0.840866327083
0.996802969689
0.997459889375
0.838009371363
0.840122933703
0.997363683251
0.835663780229
0.996839832372
0.994705528895
0.994269472886
0.808157110186
0.828845909406
0.80976386761
0.995301924573
0.993987197454
0.996760818242
0.997185781224
0.8380926158
0.834110656341
0.997306857414
0.99674457349
0.834833388131
0.994957160199
0.996072308199
0.831661357317
0.807451064314
0.995315554996
0.804982182736
0.995736603743
0.998460688994
0.998366822228
0.857077992871
0.85619494518
0.998483086422
0.859022319688
0.998308223918
0.998537399918
0.998676189553
0.859966594115
0.863989673696
0.998572443672
0.998638542089
0.862113495525
0.998407438512
0.998349963666
0.85881649703
0.863503826896
0.998478419172
0.860752829586
0.998293927237
0.998502076498
0.998689785642
0.865567982295
0.865890973694
0.998604785583
0.998582036505
0.863523809444
0.998729215722
0.998729237519
0.860787116763
0.863864454716
0.998740770197
0.998725554928
0.863968284244
0.998717296419
0.998692473395
0.860479816238
0.862735084202
0.998726843192
0.998690394635
0.863448147507
0.998682972539
0.998733806722
0.865822787045
0.868458361046
0.998678533826
0.998732845724
0.865748642561
0.998671202076
0.998697360413
0.864442380613
0.868118951976
0.998647329014
0.998726677966
0.865312315212
0.998582982037
0.998621263004
0.860501310524
0.862177252552
0.99854596696
0.998645302816
0.861761693745
0.998514879112
0.99846863509
0.861517108784
0.862073536944
0.998509935972
0.998443646942
0.861923268171
0.998488249788
0.998630398831
0.863625326766
0.865348232239
0.998584228066
0.998528627493
0.86289939628
0.998392694761
0.998323569862
0.862714806737
0.864706580353
0.998293095238
0.998425504111
0.862874682553
0.998242196359
0.998406865884
0.864444003451
0.862378350547
0.998334891917
0.998352484188
0.862713666369
0.998131457834
0.998192895564
0.865499021202
0.864420721189
0.998269140022
0.998047908382
0.863594133669
0.998040203798
0.998211954729
0.862707267781
0.864127843283
0.998169430753
0.998091029403
0.862859954436
0.997964715396
0.997998957875
0.864750292851
0.864411885994
0.997922677384
0.998031305593
0.863764279798
0.99787536467
0.998122025544
0.866646255706
0.865030047214
0.998029248624
0.997988903432
0.86552749654
0.997710120784
0.997774922143
0.865893734658
0.862417996522
0.997910993361
0.997523062127
0.864492920684
0.997809405529
0.997950826576
0.86502712138
0.864212818869
0.997891809943
0.997849731899
0.86456597183
0.997692609747
0.99764657477
0.860350341342
0.862025127136
0.997604437122
0.997729514014
0.862720159715
0.997435151798
0.997711434257
0.85957341565
0.859603408966
0.997704624287
0.997435194831
0.856316527737
0.997492136131
0.997860377941
0.856154364852
0.849487880183
0.997775408638
0.997572692321
0.852860297987
0.997652869853
0.997656515175
0.857779783752
0.853905758492
0.997608329175
0.997698772334
0.85506301787
0.997714190486
0.997851673105
0.849969138599
0.851936455938
0.997807332623
0.997766336811
0.852633113458
0.997684389752
0.997877835111
0.8469461269
0.847508230804
0.99788866253
0.997639342557
0.846389489768
0.997668547952
0.997764468202
0.846867650452
0.84515951452
0.997848853835
0.997598484492
0.845780182912
0.997885291553
0.997883079144
0.848591057836
0.846987490997
0.997874637693
0.997889756443
0.847243942844
0.997878494017
0.997787236309