/*--------------------------------*- C++ -*----------------------------------*\
| =========                 |                                                 |
| \\      /  F ield         | OpenFOAM: The Open Source CFD Toolbox           |
|  \\    /   O peration     | Version:  v1906                                 |
|   \\  /    A nd           | Web:      www.OpenFOAM.com                      |
|    \\/     M anipulation  |                                                 |
\*---------------------------------------------------------------------------*/
FoamFile
{
    version     2.0;
    format      ascii;
    class       volScalarField;
    location    "10.6";
    object      p;
}
// * * * * * * * * * * * * * * * * * * * * * * * * * * * * * * * * * * * * * //

dimensions      [1 -1 -2 0 0 0 0];


internalField   nonuniform List<scalar> 
28582
(
17099.6985095
17098.3222506
12202.0459528
12200.3779654
7304.80550912
7302.32319521
3633.83908338
3629.67270573
45.428284025
50.3403068236
-27.1173016923
3631.73659514
651.078765249
651.128838104
3628.13103072
3627.32846471
650.118559974
1790.25840137
1789.01267419
17099.4057899
17097.333946
17097.0954129
12201.7738176
12199.3583724
12199.0489024
7305.12653966
7300.75937578
3633.51885741
3627.45293406
51.6017650942
-27.1115478503
-27.0498033926
3632.92451306
3634.25770512
646.475126054
647.422665126
1800.49295534
3627.32683593
3626.63737604
3626.853543
1790.34285114
654.568010892
1789.17598106
1790.1023739
47.9666843366
52.0492679225
-22.8201610341
-22.8085460119
49.4205534019
-22.8526733906
1800.39305693
1799.61181303
651.63775163
651.83952656
1800.89429193
652.391501926
1799.2551811
1797.67630273
1795.25731038
651.700376486
651.93935518
1795.34968208
652.42461382
1797.45283463
1791.5312434
1793.39578434
649.656209576
650.938857199
1793.21829491
650.368668152
1792.09797739
1791.52076986
650.380397048
650.521215828
1790.5588981
649.743477801
650.1742016
1791.5326719
1787.74165057
650.260079507
650.001836592
1789.39474027
650.102537696
1788.22604083
650.15042661
42.2093879137
-23.0529063349
41.1921582469
41.819190839
-23.1492137319
-23.0820065163
52.7811698029
-22.8308811447
-22.8257500143
54.3470509853
-22.8552071338
53.3621163115
-22.8526251871
1799.22069367
1798.84739057
646.486931918
646.557507275
1798.46747138
1799.46543513
646.699021535
1799.13190585
1798.10291498
646.825324732
647.940393286
1798.2605695
1799.06061477
647.171153184
648.400269263
649.22666528
1800.42780553
1799.84882115
648.628040694
1799.80185677
647.785986553
1791.73263107
651.45382886
651.401515308
1790.75598114
652.655703566
1791.88174242
652.509757573
1791.14755352
1791.61724077
653.766847698
654.912064925
1791.83891406
1791.38476348
653.816739907
1789.00132556
1788.04464754
650.939603637
650.640434629
652.136482371
1789.90336922
652.208805478
654.143360831
655.93737805
1791.17057136
1790.74435425
655.336289477
1791.38067679
653.86117005
7300.04696068
3627.05537052
54.993946036
-27.0609735943
3633.01839739
650.320284392
3627.16562496
3627.01063679
655.050821572
657.452376614
659.289199528
3626.47521028
3625.60936082
659.335828748
659.041593959
44.0672926855
56.1159073082
57.6512612034
-22.8650714033
-22.8640358613
-22.8821175352
58.9071857341
59.802022011
1798.47092641
1799.95458035
649.631970686
650.867957807
1799.38674205
650.19068621
1798.90667413
1791.33065335
1791.32614796
655.57879258
655.77421879
1791.08220458
1791.43844168
656.39497346
1791.67903339
1791.81024943
656.550459863
658.404467973
1791.69014695
657.285657469
1792.02217245
1791.36256944
1791.48216978
658.022778665
659.004883772
1790.87337882
657.716242049
1791.93140408
1789.79877872
1790.71499917
658.266311966
659.374752465
1790.32721209
658.503569376
1789.89347221
1789.27494774
1788.27029616
658.641239879
659.215190824
1788.70682205
658.604846625
1789.07949472
3640.35303135
3630.86665936
3621.42646578
3622.22377969
29.3025688785
33.9746976446
29.5257804014
33.5373441135
34.1336897496
-27.157972885
-27.3356909755
-27.1238927177
-27.2442829611
-27.0737191382
-27.1548677624
3654.59772403
3652.77865929
644.509683952
644.34955194
3646.02052659
641.404424513
3648.10179717
3642.31452728
641.675776469
633.075617328
3631.70485987
3634.57812511
3626.68713908
638.67896067
625.48053173
630.845760666
622.924666655
3621.58685256
3618.23787747
620.608685738
623.637442754
621.017928564
628.924355589
3624.7356307
3623.96171142
629.471239199
623.270133503
623.925014325
3619.98207961
3621.82626472
3621.88199401
621.960265102
630.496051516
624.286067993
633.54493494
624.813298988
634.206948457
24.4451493148
25.7477827107
28.7394349348
-22.989968988
-22.942526057
-22.9721316152
-22.927946539
-22.9483912833
-22.9511703078
-22.916939838
-22.8647253234
26.4556274441
26.6863583707
32.1956990161
29.5201142599
31.9346051286
-22.9487448438
-22.9163429614
-22.9383373262
-22.9149033081
37.3644849815
33.6512487353
37.9018206111
-22.8996960459
-22.7869129397
-22.9199849189
-22.8207422184
31.8382352567
32.0172968757
-22.911172415
-22.8968492737
-22.8881312605
37.9020336354
33.8469246912
37.7155262473
-22.9279723957
-22.8653414487
-22.9413762627
-22.8828347116
1825.93848687
1821.71205498
644.508711936
645.689388163
1821.71681349
645.847421211
1825.52663019
1824.97809194
1817.15857785
645.579453983
645.655738902
1820.19655144
1822.50699709
646.247671425
1805.85505154
1810.53570476
643.100527984
637.43425672
1813.9463202
1802.29643634
639.329277269
1814.18530013
1813.01237656
643.505912859
638.688997993
1818.74981765
1808.37142113
640.874862422
1809.87624136
1800.64954168
635.682153499
634.95517986
1804.26948852
1805.89482472
637.71809568
1794.1436339
1806.12252527
634.991358588
635.609874723
1798.17049299
1801.65467686
632.089584378
1786.49412264
1781.70803624
630.300748013
623.914455678
1790.01521643
1779.12683809
627.815837327
1791.02222319
1794.94284764
632.985470142
628.398281833
1797.95772321
1788.76892996
629.921382053
1784.16712119
1777.68247855
622.983872626
625.273602432
1777.8975358
1782.78158157
626.185159555
1773.17148608
1775.66672527
618.232436205
620.184084959
1773.45478481
1774.41855358
618.75308415
1773.63928893
1773.19036224
619.041157262
625.256929103
1774.00533504
620.483979511
1773.83756902
1773.75546701
1775.27973222
620.290538735
621.526121663
1774.37469486
1775.04871433
619.90651601
1775.017274
1777.05808235
627.210654276
624.319714151
1776.10046084
622.434602494
1775.29051253
1786.27761329
1792.94609156
627.48493521
628.532157567
1787.40736659
1791.19684683
626.88989751
1781.85025683
1778.0145024
625.099107637
623.612426849
1782.1796723
1778.59410145
624.984915449
1781.52941721
1779.58539151
623.798224853
624.636263716
1779.12268017
1781.25242016
624.824736449
1777.91760805
1776.34748688
622.83684957
622.846186913
1776.46797389
1777.55812122
624.016812925
1778.90073024
1778.9104283
626.055684434
631.731596659
1777.87939303
627.44539853
1780.62322235
1779.23946585
1779.45137622
623.494637669
626.309636658
1778.57968081
1780.21718295
625.336808881
1780.1736026
1783.650491
632.740046024
629.682830485
1781.20656708
628.686191409
1782.21822333
1781.26713366
1780.00662633
627.101080406
625.249068916
1780.75665465
1780.39831782
627.790147468
1784.86515196
630.468132517
1782.20752747
17098.0431038
17096.7897386
17096.1505113
17097.3695544
17097.9949501
17107.6787415
12200.4008124
12199.0725353
12198.4225836
12198.9271164
12199.0265228
12208.8836992
18310.5112697
18315.3551017
17088.4906089
17093.552291
17097.7035649
17100.8130188
17106.1141142
17087.0893121
18312.3170811
18315.8781962
17093.5061531
17094.658668
17095.3268557
17095.0827613
17093.9290218
17104.9762253
17093.9414819
17093.2426524
17093.5474442
17094.2774472
17094.9720377
17095.257826
17095.4572275
17107.6909108
17097.2384222
17095.9113045
17095.32857
17095.5085379
17095.9127402
17095.8901657
17095.9187677
17108.2198059
17096.2204131
17096.5018607
17097.0246867
17108.0634626
13410.5850378
13415.3092447
12194.2538581
12197.1012904
12200.3357739
12205.3712749
12247.2458733
12122.0024084
13414.4200774
13417.7595841
12198.2795942
12198.9871965
12197.9116419
12195.7033601
12190.7513455
12186.2737279
12195.3956198
12195.8340435
12196.7963208
12197.0337648
12196.5786503
12195.6436075
12194.3190769
12204.5715068
12199.3590706
12198.3067911
12197.9139149
12197.9753365
12197.8318446
12196.8619425
12195.3738283
12206.9794172
12198.1631867
12197.8299375
12197.4921753
12208.6989724
8510.83099499
8516.82909534
7298.1031131
7299.28794804
7300.03629209
7299.75240531
7305.89685852
7225.98924621
8515.5965044
8520.32385708
7296.00672309
7297.12500364
7296.25128453
7291.90576912
7279.7692862
7267.03758963
7298.02573251
7298.07898148
7298.21895122
7297.5623122
7296.55585002
7293.86525129
7287.26097086
7301.0583006
7303.47555267
7302.26887925
7300.81743105
7299.9138399
7299.27714743
7298.35748664
7296.00885045
7291.54893976
7304.32804348
7303.19840205
7301.34861728
7300.20023606
7299.25331557
7297.86814665
7295.25970192
7307.52613298
7299.01412486
7296.97936206
7308.02963562
3616.16031631
3621.70837796
3626.44751938
3629.07605457
3628.2953904
3628.31669544
3627.58680095
3598.30930784
3613.98953717
3618.7890476
3622.63183725
3625.05372453
3625.15506566
3623.71073986
3622.59362812
3618.49441572
3605.30703748
3621.55735697
3624.56729721
3624.45879918
3624.9221236
3625.81018474
3624.4950151
3622.64269352
3621.5808457
3619.18679381
3619.39773251
3629.9818776
3629.88774956
3628.26992171
3627.31625039
3626.30300957
3625.37718185
3623.72128148
3621.38023987
3623.77360461
3631.92562484
3629.15515782
3627.88371587
3626.96530255
3625.2919973
3623.9639846
3625.66945157
3626.16441584
3625.12475398
3626.29821837
47.98025487
46.0556779184
46.1478294281
48.8135480374
54.3628464151
58.2744264654
60.4760110656
62.0090564509
43.9672260661
48.8077017266
49.166172152
48.5696520343
49.2417021893
52.835958896
56.936710919
59.6885302013
62.5634187894
63.1316820677
43.0499680281
47.1473143887
46.6588767779
47.3734924876
49.3782378593
52.1034489606
56.6840005371
60.358490012
62.9371242117
65.1525707808
43.9312401154
43.8799450703
44.9327441143
47.1102209442
49.1345473869
53.1685343773
57.5567404934
60.6638335227
63.6007176489
43.3075694607
46.4967720525
49.1037655029
52.7078661172
56.1529724052
58.4448482797
60.6062844406
57.5650996263
58.8059061393
58.9624221636
-27.2080720263
-27.0667238129
-27.0531004291
-27.0758757572
-27.1031946012
-27.2213505106
-27.0558267271
-27.0603818854
-27.2337423614
-27.7683765831
-27.47279268
-27.2247566198
-27.1317113182
-27.1950009412
-27.1303087656
-27.4029012647
-27.0202983308
-27.088089668
-27.2191795923
-27.6505452854
-27.484827549
-26.9679919031
-27.0829608066
-27.0686698282
-27.1116282641
-27.0694558742
-27.355091253
-27.1050734952
-27.2793437962
-27.7075528779
-26.9614227678
-27.1161541839
-27.0906494839
-27.1418515407
-27.0673918713
-27.1295879219
-27.0979730051
-27.2638076382
-27.6993374288
-27.0987733442
-27.0259265285
-27.1981574515
-27.0968224752
-27.1087545498
-27.2541522775
-27.6955403573
-27.0899025999
-27.2571103243
-27.7486816283
18313.2158172
18310.6402753
18313.3558679
15860.8661948
15863.7878276
15861.3411208
15863.8943571
18316.6239039
18315.6995864
18317.2818861
15865.959478
15863.266815
15865.7010206
15865.4630703
18314.0455953
18314.9186791
18315.3600864
15863.149223
15865.1886693
15865.5478931
15866.5583384
18317.2167393
18316.3691178
18317.6178525
15866.9773843
15867.5632463
15868.0364359
15869.3558109
13413.3979507
13411.8694528
13414.1708819
10960.1974318
10963.4337833
10961.9081282
10964.6880927
13416.427314
13415.5807861
13417.5179873
10965.6194777
10966.9158748
10966.4865358
10967.2591586
13416.2835305
13416.3558448
13417.6734625
10964.9850451
10967.2840307
10967.2317177
10968.2628983
13418.5826563
13419.0378619
13422.9632031
10968.7046416
10966.0316105
10969.108442
10972.5827109
8514.36435477
8512.71725383
8515.77694075
6062.75094235
6066.35480498
6064.41139459
6067.42105336
8518.47546197
8518.07055557
8519.61167855
6069.1682575
6071.27534593
6069.90710347
6072.89855362
8518.27792942
8518.14559264
8519.35872994
6066.86828544
6069.42751569
6069.1993237
6070.66695076
8517.54326407
8520.30535509
8522.9061871
6071.35618191
6071.71850782
6071.98295185
6074.54400581
3612.89364421
3614.54886981
642.321627485
646.162926168
3619.01286673
3617.39321196
3619.79211115
643.628440818
644.780673265
646.564873285
646.724016275
3624.07609261
3622.119528
3624.05700932
644.972112458
646.403965108
646.92702709
648.047279584
3628.19716102
3625.61303465
3626.57660115
647.263060831
651.365673473
648.855738353
652.258077139
3628.98296902
3626.86769742
3626.31827826
652.60312619
654.958096437
653.023309383
653.369626436
3627.77378326
3625.52046553
3625.23270875
655.111422712
655.656795064
653.321882281
655.24224628
3628.77620951
3625.41545363
3625.50815047
656.846758363
661.216800176
656.660681294
660.169923061
3617.25554361
3624.22438449
3615.61493882
662.219391523
661.635825362
661.387117089
659.199431852
3579.19435417
3599.16867546
3602.10622286
661.37196212
623.528759416
657.355105233
638.655054753
3618.29896136
3619.14241965
630.025844722
642.212014819
634.498214122
646.561229523
3616.7108646
3620.16587559
3620.64561801
644.187614957
646.722345442
648.313207356
648.091882934
3620.86287414
3621.18378258
3622.20081667
646.802149338
646.972095838
647.645273183
647.163887227
3624.1325702
3623.58607211
3625.10125229
647.448824189
648.854200881
647.794064732
650.120136794
3625.29973451
3626.03176572
3625.87947579
649.822376868
652.427081032
650.792411398
651.446724362
3624.57000141
3624.98123281
3623.79923161
652.89465778
652.731003126
651.170402359
651.30372969
3623.11851814
3622.75565507
3621.99376866
652.79672935
655.622900061
652.35385708
656.780983824
3621.42726424
3621.36953853
3620.21272081
656.97314752
660.182530897
657.96648554
660.24525449
3613.31297209
3618.23917949
3615.47711362
661.217166549
659.207312713
660.592470163
660.241542876
3622.98962964
3612.63402957
3632.10613871
657.67945865
641.501008468
660.425070269
645.234623723
3623.47274328
3624.06618213
3626.28029517
635.460733832
647.048442683
637.838336432
647.814802688
3624.78072444
3627.70600003
3628.074199
648.83951635
648.611474372
648.865216372
648.941631806
3624.37269678
3627.574346
3626.69537389
648.047021288
646.996121316
648.151092845
646.146833025
3625.53075801
3626.38058995
3626.40707908
647.420542811
649.7703684
646.143316501
648.481639551
3625.42171802
3626.40979333
3625.95016815
650.32900487
650.810107498
648.965891795
649.051631
3623.53250243
3625.22253963
3624.61008559
650.672574667
651.097404526
648.899987695
650.338772514
3622.10657739
3624.13887095
3623.44423474
652.026914613
657.100940719
651.55804247
657.407549371
3620.54546482
3622.65537506
3621.50829348
658.50980275
659.738676574
658.245198642
657.844012819
3618.60340297
3620.31972551
3620.36856491
659.86160044
660.657682204
658.16205193
660.681307881
3635.46260735
3621.95570499
3636.59426563
661.740355736
645.177825304
662.73134216
641.727073755
638.334999043
647.931998093
3630.41886866
3632.2780111
648.745235426
648.686526085
647.341843716
3628.91150413
3631.93930021
3631.15882912
647.917058548
646.155471292
646.699055946
646.979909282
3627.75212984
3630.35873292
3629.32931927
646.204847133
648.211087863
647.557631665
648.739237021
3626.80862597
3628.34968507
3627.65692499
648.622496498
648.730016424
648.344459229
648.447405252
3625.8357245
3627.22258524
3627.02689437
648.665244412
650.503578364
649.297262845
651.985371321
3624.74035748
3626.70653078
3625.90447254
651.995289758
657.084142378
653.24671935
655.521391554
3622.42759948
3624.67850548
3623.52897465
657.462398361
657.264783403
655.564992822
656.698158975
3621.85363628
3622.77731845
3623.16802786
657.752678896
660.472678466
657.203137594
659.510800655
3637.10867389
3624.94877126
3637.14527681
662.524772435
640.995516022
660.690778337
638.024568528
3630.51176588
3631.28865117
648.164597263
648.837275779
650.195474499
3628.29316006
3629.64257042
3628.50727097
648.041956268
648.537548707
649.071092973
649.840741319
3627.6596207
3628.06658561
3627.77285664
649.700458127
653.133483248
651.129763468
654.211971794
3626.14055506
3627.18943251
3626.52694365
653.47476598
655.540192287
654.367563613
656.350489874
3624.53977194
3625.91709566
3625.37230632
656.203984934
656.989651618
657.109602071
658.238820061
3624.18607739
3624.82784362
3624.90396215
657.384845451
659.487145656
658.525075671
658.967029295
3637.10575333
3626.01052327
3636.74538423
660.266500944
637.124302126
659.233419783
635.819534763
3626.70664084
656.611732901
3625.60828968
657.229200453
658.31041549
3625.23910152
658.5800998
658.4819536
3636.52069041
658.497119072
635.895175437
-22.9859253337
-23.0659869966
-22.9146535881
-23.0006300671
47.419408923
49.12966519
-23.0997142079
-23.1381667547
-23.0353567092
-23.0694069504
46.9610951502
49.109461536
48.0440631243
-23.1223764596
-23.0654341811
-23.0864577656
-23.0338790928
45.9412528738
47.3250021345
47.2123903706
-23.0453005885
-23.0142460603
-23.0332487038
-23.0075988945
46.972922846
47.6444150304
48.925903571
-22.9907999398
-22.9285331424
-22.9943793185
-22.9147168538
51.4284293535
51.0274862195
53.4383994937
-22.8606993469
-22.7800023605
-22.8259127534
-22.7520796722
56.7451036073
55.9244468402
57.8264059854
-22.6451698906
-22.6245196362
-22.6134428206
-22.6058578004
59.3069604791
59.0779732887
59.9268006509
-22.691728468
-22.7898532888
-22.6878836833
-22.7863592917
62.4161063191
61.3062744401
63.8514673585
-22.8532104512
-22.867576954
-22.847823635
-22.8724983697
66.2754604575
61.7576395535
67.7150790697
-22.930813078
-22.7978533206
-22.9488254633
-22.7797258954
47.1333180022
44.0142934741
47.2793487631
-22.8371745341
-22.9532818614
-22.8017816841
-22.9536661138
49.504309895
48.343122841
48.2567242191
-23.0098020041
-23.0394828491
-23.0465541203
-23.1072621277
48.6466742192
48.1248147765
48.1345849643
-23.0390161942
-23.0289066509
-23.0762813359
-23.0534683628
48.6163192259
48.7010219399
49.1026848236
-23.0383632026
-23.0136232374
-23.0584811524
-23.0267303642
50.6275772866
49.9241773547
51.3388937288
-22.9816719161
-22.8996311747
-22.9815592377
-22.9136130131
54.9289775618
53.1904706424
54.8705260592
-22.8316689398
-22.756808742
-22.8739731289
-22.7638613855
58.5548857892
57.0392796641
59.0234597489
-22.5706009279
-22.6154279417
-22.5413167292
-22.6206634067
61.3286121445
60.3182951078
62.168416263
-22.7360709809
-22.8241406419
-22.7602532133
-22.8473729163
64.892542498
63.2106693556
65.1154692845
-22.8559200874
-22.8655957226
-22.8697647466
-22.8654427897
68.578502124
64.3585853909
69.0030860816
-22.9462607298
-22.7973338037
-22.958361668
-22.8186583112
45.9752667663
42.0518929564
44.9561746027
-22.8771915349
-23.0275720751
-22.910903494
-23.0580015965
46.9473104303
45.3428888533
45.2976569013
-23.0764062206
-23.1376120979
-23.1144398938
-23.1896014959
46.71485907
45.176678788
45.7106844599
-23.121356159
-23.0813482164
-23.1701232519
-23.1122356509
48.2227486959
46.3678761978
47.2671899021
-23.0614297848
-23.0253374868
-23.0730163834
-23.0299700856
50.7194998104
48.2322942169
49.3005387368
-22.9789796792
-22.9309875855
-22.9867057393
-22.9560961013
53.6495639481
50.3941720473
51.7017504125
-22.8913754699
-22.7844204431
-22.9212018445
-22.8271031183
58.9428927983
54.7275876968
57.6826209005
-22.7025884492
-22.771236541
-22.7767907802
-22.8481259009
62.0300646479
59.3292280469
60.9964232903
-22.8051391356
-22.8783940153
-22.8460607966
-22.9088464224
64.5482874261
61.954234254
63.4139541994
-22.8939084249
-22.8736176834
-22.9211611341
-22.8945751491
69.110805563
64.8586110193
68.310666696
-22.966154846
-22.8466459473
-22.9803771528
-22.8829057185
43.9335781681
42.5770900035
-23.1028160082
-23.1737088752
-23.1635204192
44.1591685254
42.1824886731
42.472704597
-23.1585034211
-23.1036794353
-23.1443711857
-23.0790130605
46.0502690614
43.4810413963
45.1250518604
-23.0635798565
-23.0167455823
-23.0395591462
-23.0001440309
48.0902856322
46.383771569
47.5645328917
-22.9719595616
-22.9452996928
-22.9561677449
-22.9207889479
50.5950287745
48.5791759432
49.8250609482
-22.9194832297
-22.8581806461
-22.8958720642
-22.8411993991
55.7517024938
52.1193181546
54.8651802358
-22.807645428
-22.8574983902
-22.8456685806
-22.8792436194
59.488864142
56.5090590328
58.2522674981
-22.8705506816
-22.927028011
-22.887154287
-22.9403722936
62.2546555465
59.2960190468
61.2072227884
-22.9447242272
-22.9321816782
-22.9615077779
-22.9595390359
67.3673198525
62.026630285
66.313227955
-23.0071854531
-22.9244401296
-23.0291406788
-22.951298796
45.2559478607
46.2160454515
-23.0341546562
-22.9837135
-23.0088632044
-22.9545674847
47.3984953489
47.638709377
48.5909713832
-22.8963966563
-22.8132011317
-22.8561202917
-22.7626094575
50.9575342366
49.8678789944
51.7587353983
-22.8796280144
-22.8887119947
-22.8457458096
-22.9011487634
54.686463946
53.782546384
55.3964906418
-22.882656236
-22.8943615334
-22.8945730552
-22.9080113987
57.5218761258
56.5681963877
57.5640661302
-22.9020791896
-22.9411680072
-22.8998136464
-22.9321502229
60.703826849
58.247293079
60.1295883652
-22.9669313357
-22.9774905004
-22.9643417699
-22.9807561385
65.3204277779
59.673308145
64.436579838
-23.0424717084
-22.9624749666
-23.0459462473
-22.9601838162
56.3911385943
-22.8792829796
58.4402581921
-22.8757669138
-22.9051889531
-22.8756001885
-22.8986459237
60.1882833916
-22.9482379299
-22.9737818929
-22.9332526183
-22.9586830538
63.7433947489
-23.0500910508
-22.9472265773
-23.0436545678
-22.9467144616
1778.71659661
1779.8259472
640.384412432
643.78347231
1780.22688822
642.10614933
1778.0829291
1779.87418256
1782.54678139
645.063053502
645.236310284
1781.13791561
1781.51322591
643.77956508
1783.37479755
1781.61218821
644.403897713
644.831056743
1781.8294409
645.422678957
1783.20937703
1784.72647163
1785.68396213
644.644802197
645.551269745
1785.82071564
645.582106729
1784.52845331
1783.89321599
1783.48937641
645.828109239
646.741250967
1782.53589387
1784.40526066
646.256864596
1785.13817392
1786.39917483
646.222105448
646.705541342
1786.17671698
1785.44295316
646.313895228
1787.93071103
1786.85901846
645.316975524
645.618679179
1786.87080646
645.881816131
1788.00550512
1788.91846336
1790.18950306
645.799664623
646.823553127
1789.9766431
646.338618167
1789.05002734
1788.04786069
1787.32033241
646.32743285
647.254729619
1787.13434194
1788.14753005
646.565852283
1788.91753477
1789.72769836
647.372398147
647.575429629
1789.88094045
1788.90963236
646.913511767
1792.34825584
1791.46920196
648.606826363
647.637543016
1791.13994585
648.978491055
1792.82341465
1793.45056564
1795.2965713
650.033646495
651.529023371
1794.49017015
650.32943259
1794.06293496
1792.0213029
1790.64670845
648.221597285
650.092959666
1790.93738284
1791.55744683
649.552972662
1792.89548845
1792.4331582
651.999087185
651.266770508
1793.55711465
1792.2022544
650.872315697
1794.76545669
1796.1002859
653.717299929
652.772320524
1795.03030139
653.765548991
1796.17938711
1793.79364967
1794.15360524
654.580252822
654.627318241
1792.27072069
654.371338568
1795.46682243
1793.0400895
1792.12936649
652.992667339
653.425058555
1793.69136678
1791.1572675
653.656454227
1791.84305646
1788.39359821
654.036254149
653.41572527
1790.37715725
1789.76636951
653.904787013
1789.40564761
1792.66441868
655.02506702
654.636604287
1790.73079227
654.564278066
1791.05136074
1788.65071659
1789.75229219
654.923816353
655.596984558
1788.74846961
654.747644129
1789.86438712
1787.83649969
1787.20089717
653.927890951
653.622213654
1788.91915249
1786.43275199
653.975144133
1787.48258404
1787.1447734
655.406863768
654.191317495
1787.91530067
1786.56356017
654.371426483
1790.74002222
1790.61036246
658.292487063
656.891015575
1789.73141815
658.214314962
1791.74748914
1791.5364712
1793.49980757
659.776674629
660.859415127
1791.97454344
659.577682585
1792.75562964
1789.6716279
1787.80951257
656.75840441
657.934720957
1788.79608556
1788.46222741
658.008560506
1790.22646102
1788.74072113
660.378570357
659.051268983
1790.48036112
1788.72232243
659.207423422
1790.41124029
1793.77414693
662.899683674
661.811110543
1791.76092306
662.401488007
1793.06810528
1787.42696953
1785.21497981
662.736300103
659.939377513
1782.33970859
661.847508229
1790.49915599
1788.48291484
1788.12417566
661.460269265
662.016528515
1790.12229818
1786.51119354
662.114725252
1785.21489437
1779.22431266
659.280833529
661.508150219
1780.32378989
1783.61489497
661.548243945
1768.19921112
1777.35089895
666.546120505
658.536373133
1775.31379402
662.235106183
1767.52068299
1759.10119183
1761.31709916
679.492129362
630.732649418
669.745387859
1771.34132294
1754.14448203
1769.46994053
1774.68238467
657.54042043
661.468305779
1774.51279196
1771.04847084
661.713729642
1762.50875301
1786.59552405
635.088813625
669.872653204
1764.95605295
671.440810997
1779.629688
1778.14114338
1773.92896966
635.041455164
631.569693144
1775.71310764
636.863958265
1775.43635985
1780.60867906
1779.17316651
639.449855765
644.124740749
1777.5785312
1782.34413166
641.429211617
1780.28755349
1779.42298998
633.081171614
639.204004171
1782.58769634
638.07090077
1777.31613393
1783.19085537
1787.76812307
645.472421154
643.621748094
1785.16554528
1785.62600031
642.600225889
1784.68535633
1780.71784822
645.573168491
646.032564184
1782.14667523
1783.68178294
647.002289796
1785.18596353
1783.64579991
646.409282411
647.218340569
1783.09462482
1785.24836868
647.348281987
1787.08653723
1788.8910578
647.340159739
648.814643425
1786.39501902
1789.34223142
648.022075605
1787.18368386
1788.78491459
647.659218733
648.554931753
1786.93128821
1789.22060744
647.975366192
1785.61164548
1784.15557585
646.836634751
647.060988993
1784.75403801
1785.36730601
647.102117389
1786.16159783
1786.52753295
646.818235784
647.178326965
1785.61030222
1786.83129899
646.971797148
1786.48678863
1788.26140233
647.291915392
647.387811223
1786.66845219
1787.77426504
647.199750275
1786.72086322
1787.86211361
647.287420837
647.085506387
1787.1889858
1787.67291845
647.107479075
1788.40995257
1787.45254884
647.843616149
647.788182446
1788.24219581
1787.64100667
648.311236625
1789.07267422
1789.73821292
648.27522419
649.482874786
1788.97867229
1789.75698311
648.830734244
1788.69510507
1788.47592425
647.921811896
648.479282598
1787.92969381
1789.13808919
648.552595561
1789.3599163
1790.14253911
650.027321496
649.248597223
1789.99135408
1789.67635127
649.217224143
1790.6537204
1790.46466367
650.996286029
650.374479827
1791.009952
1790.34753604
651.251213047
1790.67055182
1791.19573293
651.813859214
652.288859337
1791.36405304
1790.10992474
651.955758942
1790.40916464
1790.37289694
650.844143721
651.242528097
1790.35858432
1790.23824917
651.532728654
1790.11776196
1788.69991616
651.947845328
651.471414104
1789.27428733
1789.6913854
651.865291248
1787.87525354
1790.54000081
652.970019593
652.411681931
1789.38756675
1789.15126973
652.259244686
1786.6757416
1786.81539567
652.778497345
652.142657462
1788.01759816
1785.78623322
651.9911425
1786.92758996
1787.537253
651.743079731
650.969157499
1788.12121082
1786.52132756
651.532436718
1785.99878611
1785.43463171
651.567904828
650.803770698
1785.56675166
1785.88401881
651.255775058
1785.56632868
1786.07705587
653.338687359
652.445886177
1785.8294995
1785.50690325
653.314456988
1785.85515084
1786.66896908
654.361945917
655.97220935
1786.15296293
1786.23602442
654.635174602
1785.52084775
1785.3367054
652.423783731
653.752068661
1785.42070531
1785.59709192
653.632339445
1785.71703088
1786.22059819
656.366168127
655.382052332
1786.0327884
1785.90150282
655.083297226
1786.42240998
1787.07372397
658.081295292
657.236256097
1787.33434806
1786.36132284
658.256499863
1786.2405677
1787.08220997
659.096222493
660.327595494
1787.34020623
1785.94745376
659.281748124
1786.09368326
1786.31751179
657.51821818
658.965138467
1786.17148579
1786.13770061
658.560342871
1785.78475753
1784.94887367
660.417524008
659.740251397
1785.34239062
1785.65720123
659.571204823
1783.33615554
1786.19845392
661.667839935
661.161092442
1784.48610458
1784.99247508
661.510049785
1781.16118985
1778.32042092
661.19003408
659.638952802
1781.81009288
1778.49983557
661.177473287
1782.68039453
1783.90936394
660.958032154
660.855691182
1784.24077958
1782.65744699
661.161775334
1780.98428843
1779.91056876
659.896004025
660.70244139
1779.12585158
1781.30332582
660.782296551
1774.61788738
1775.22443936
662.699667034
658.447103187
1772.90073821
1776.3213634
663.642920336
1770.25277253
1791.76475724
672.209081985
643.284984504
1768.42946604
672.622902953
1794.22123234
1776.28276984
1778.66567874
659.62005286
665.958901988
1777.67521029
1777.15947276
664.949415868
1771.80099182
1795.16223811
644.707421733
674.266499485
1772.07502276
673.422271595
1795.34642969
1786.19416431
1781.31159496
639.863511319
636.45721157
1784.37806518
640.575059461
1783.18497882
1789.1041155
1789.75199054
644.130282106
647.470043026
1787.40233611
1791.57955169
644.61266671
1787.78900468
1786.38466084
637.103512838
641.677559233
1789.30930976
641.060697861
1784.84439724
1790.68985949
1794.43036607
647.694217424
645.460123726
1793.1082118
1792.15543841
645.039604667
1793.0404971
1790.96725914
649.376851544
649.117341483
1791.33751676
1792.7840784
649.572566975
1792.7567395
1790.51564303
649.119554526
648.955633709
1791.10262419
1792.15288137
649.409862189
1794.42792818
1795.48426906
648.9011247
649.198473611
1794.23202897
1795.66249838
649.343681485
1794.16888951
1794.90528443
649.065432388
649.250448655
1793.54274608
1795.41065418
649.33203556
1790.5000389
1789.82870802
647.600163925
648.291068912
1789.10809449
1791.42260025
647.652567001
1789.7958947
1788.66915235
647.098446975
646.683976118
1788.71680184
1789.43835563
646.967279911
1791.80577997
1794.13146794
648.345293646
647.460173094
1792.75606554
1792.98428145
647.615909216
1790.81495036
1791.00848641
646.417803094
646.689955921
1790.08589618
1791.85662207
646.842674688
1789.94655889
1789.0240185
648.07200228
646.927592453
1789.50958333
1789.5948181
647.547331206
1790.32029195
1790.27832755
648.938661988
649.256148374
1789.918363
1790.60692053
648.475505225
1790.3376243
1790.82852667
646.423340538
646.806774273