/*--------------------------------*- C++ -*----------------------------------*\
| =========                 |                                                 |
| \\      /  F ield         | OpenFOAM: The Open Source CFD Toolbox           |
|  \\    /   O peration     | Version:  v1906                                 |
|   \\  /    A nd           | Web:      www.OpenFOAM.com                      |
|    \\/     M anipulation  |                                                 |
\*---------------------------------------------------------------------------*/
FoamFile
{
    version     2.0;
    format      ascii;
    class       surfaceScalarField;
    location    "4";
    object      alphaPhi0.water;
}
// * * * * * * * * * * * * * * * * * * * * * * * * * * * * * * * * * * * * * //

dimensions      [0 3 -1 0 0 0 0];
oriented        oriented;


internalField   nonuniform List<scalar> 
92311
(
0.201501587347
-0.00014754944715
0.000442401679642
-0.201511956883
-0.000284122634691
-0.000203760986115
0.201362357904
0.00106650433574
-0.000723145238931
0.201468491315
-0.000319012924661
0.000462775287447
-0.201468407097
-0.000291084109747
-0.000448561041512
0.201337678964
0.00109949769405
-0.000723536410815
0.201336243934
-0.000121772705698
-0.000130723990792
0.000472310953374
-0.201363178153
-0.000325376154408
-9.91319249183e-05
-8.72585471515e-05
-0.000171781461008
-0.000190645404912
-0.000119889302178
0.201150401267
0.00113155627763
-0.00080247139391
-0.000109337448405
0.0503540393815
-1.77133552039e-05
-3.21690176179e-05
-2.98777676753e-05
-2.45368158604e-05
4.02443752255e-05
-0.0503438420707
-6.79738538289e-05
-0.0503487174308
0.0503030659924
-3.37431292275e-05
-3.19620780354e-05
-3.38824275447e-05
-3.13180214882e-05
0.000181754159517
-0.000177017496645
2.45099319538e-06
0.00077954317578
2.81502320384e-06
3.63716962731e-06
2.91987028367e-06
-4.54568575162e-05
-0.000820098930963
-3.84815174917e-07
0.000130005713121
0.000783892021045
0.000210997661079
2.55297371742e-07
-0.000789694176767
1.83893719944e-06
1.45760020069e-06
9.69188972633e-07
1.10640776347e-06
-0.000180486229779
-3.38564262507e-08
-2.90863535251e-08
-6.58663731188e-08
2.95560051492e-09
3.98093162363e-09
2.54576334003e-08
-1.79990282098e-09
1.00358933133e-08
-3.00470742583e-05
-2.9087583952e-05
-2.95866665864e-05
-2.80493642259e-05
0.000116069495458
-0.000124776935368
9.86172116383e-06
0.0117210051921
1.46286308677e-05
5.81820738196e-06
-0.0117378724644
0.0116556073238
-1.76080688946e-06
1.98398131465e-05
-0.0116752761887
1.81171646797e-05
-8.53809090158e-06
-0.000218488052081
-4.41669093184e-05
0.0502647624477
-4.47880275272e-05
-4.10961592425e-05
-3.98106154596e-05
0.000235962946087
-2.7680843643e-05
0.0502306602062
-3.06876062776e-05
-2.49233905841e-05
-2.53922035763e-05
-0.0502542612552
-0.000206152718442
-1.10780918361e-06
1.77214519815e-05
0.0116307576509
1.90361453952e-05
-1.20926906843e-05
-5.71115417301e-05
0.0125457639979
4.75690617619e-05
-3.08670493927e-05
-0.0125495872749
0.0125435044894
-5.55082879449e-05
-2.70486437601e-05
-0.0125458175347
-7.41799437672e-05
0.202044746772
-0.00039670648682
0.000326071299791
-0.201899794709
0.201290292468
-0.000257934118613
0.00127615275126
-0.000945952363184
-0.00028885688849
0.201251851093
0.00131404876406
-0.000986340012134
-0.000107596798194
0.201965234757
-0.000316405352275
0.000332331502393
-0.201947529856
0.201269565806
-0.000584064412735
0.00131567265066
-0.000921002425809
-0.000681707265279
0.201303081306
0.00134673166943
-0.00098690401196
-4.98291977866e-05
-5.75523146961e-05
3.75611762427e-06
-0.000439330858836
0.201874804412
0.00035482795463
-0.201810901211
1.66285345555e-05
-0.00025449846671
-0.000311337656647
-0.000180404793182
-0.000221909677984
0.201176645364
0.00135894120104
-0.0010009235192
0.0504693192267
2.42907584522e-06
-9.973038318e-06
-1.68144077276e-05
1.08802218423e-05
-0.000283022720146
-0.0504406231089
0.000217918529513
0.050230866637
-0.000251323832064
-5.81478192932e-05
-6.04470861118e-05
-6.47213901538e-05
-6.79647288503e-05
0.000281996380871
0.000218022376373
1.86242473937e-06
0.000728870171187
2.67387476885e-06
2.31619335974e-06
4.33054292595e-06
2.93179292654e-06
-0.000207259716777
4.85321544607e-09
3.14156569339e-09
1.5275776068e-09
-5.6515493031e-09
-3.09357950717e-09
-1.43807800836e-08
4.87069714187e-09
2.1254874257e-08
-4.60083981491e-08
-1.02358545812e-07
-1.8934630727e-07
-2.29296797658e-07
2.22777814861e-08
-8.08428116514e-09
3.71083487967e-08
0.000114288761715
-1.23747964186e-05
-2.61711312002e-05
-2.59448712995e-05
-2.02857003709e-05
0.0505138323768
-0.000131577978259
1.80819567677e-05
1.12341496009e-05
1.26625883756e-05
5.26755977771e-06
0.0503919335858
3.40552568696e-05
-0.0503552010221
-1.06856242515e-06
2.25785559187e-06
0.0117365916449
-2.12173002965e-05
2.21461707897e-05
-0.0117356334598
-1.50643819078e-06
2.93560367665e-05
-0.0117368567213
-4.34424573337e-05
4.01142385961e-05
0.0117342007381
2.76488258615e-05
0.0125750603163
-2.20707074388e-05
9.30364508239e-06
-0.0125719232849
-0.000267519693356
-8.22628056979e-05
-0.000101509148977
-8.40623575563e-05
-9.39628403888e-05
0.0502499253214
0.000298967713357
0.0502149926735
-4.09683449984e-05
-4.7166184068e-05
-4.32242316238e-05
-4.59810955794e-05
-0.000238696983811
-6.40938757723e-05
-6.88624325516e-05
-6.16787786684e-05
-6.95947368189e-05
0.0502436209773
-0.000253695138076
-5.84609257211e-05
4.89358839427e-05
-4.2024814726e-05
0.0125393446993
-8.54174316003e-06
0.000108773951785
-0.0114078852552
2.6469404408e-05
0.0113499430332
-1.83480986698e-05
-5.67390247311e-05
-3.67751307072e-05
0.0125377726539
-0.0125380524953
-5.54943409822e-05
0.0125320014567
5.94992043983e-05
-6.15568500232e-05
0.000773192373936
2.50182277121e-06
1.192077607e-06
1.48999638068e-06
-9.04329657869e-05
0.000162026972104
-6.05108924953e-07
-2.12434391799e-08
1.19879267519e-06
1.26277234065e-06
9.02287639551e-07
7.97581819739e-07
0.000780608709485
0.000244034180535
-0.000787816028637
-1.63389361516e-07
3.14653936133e-07
-4.63154048382e-07
1.63957390409e-07
-6.54965792193e-07
2.85962639366e-07
-7.15675460766e-09
-4.59176050039e-07
9.52386794697e-07
5.42268519833e-07
7.90544412157e-07
-0.000137371759349
0.000191036098568
6.06466869888e-08
-1.06051171772e-06
1.83688520304e-07
-1.57473837456e-05
0.0125822614637
4.48173094716e-06
-0.0125786920236
-0.0125804736155
-2.51701278342e-05
1.76914809295e-05
0.0125824827624
-2.66773804573e-05
1.6465782348e-05
1.96700276775e-05
0.0116967724515
3.73039651781e-06
2.89293971325e-05
0.0116952868622
-0.0117147867391
3.25609873592e-05
-0.0125751092407
-2.18875915559e-05
0.0116769319956
2.93899607824e-05
0.0125859344907
9.26415841472e-06
0.0125806237404
-1.71954100506e-05
2.14104531615e-05
-3.25438928568e-05
-2.48014172028e-05
-0.0125871345827
0.0125838886811
1.84814194113e-05
1.77304587701e-05
2.1949806153e-05
-2.52744308514e-06
1.20303569465e-05
-0.0116553007803
0.0116312374029
2.43098123126e-05
0.0125753290185
-3.74482225901e-05
2.63514582232e-05
1.4022863334e-05
-0.0125660632288
-1.61027231604e-05
3.82378718885e-05
0.0125582499349
-4.84039330759e-05
-3.07552515483e-05
0.0125746051804
2.54227743299e-05
1.98816645373e-05
1.60996242494e-05
0.0116012345149
-1.50765268098e-05
1.32905459078e-05
0.0116082711145
2.17565753627e-05
-4.25976231602e-05
0.0115901653521
2.257101998e-05
0.0125643063694
3.29209594349e-05
-3.57320203867e-05
-0.0125540777518
0.0125488243675
4.37357455055e-05
2.03224489111e-05
-0.0115700402161
0.0115399507527
-1.47258264056e-05
-0.0115681271312
2.51621050696e-05
0.011540622209
-2.31432737778e-05
4.39027847344e-05
-5.34359928669e-05
1.96374299948e-05
2.40579457351e-05
-1.4013920927e-05
2.46312134363e-05
3.81443211257e-05
-3.08973202137e-05
-0.0125434653422
0.0125429881164
-5.48138337506e-05
2.94924033045e-05
-0.0115677835938
0.0115425238859
-0.0115729804406
0.0115461593419
3.15118161198e-05
-5.19221093026e-05
-1.90830719053e-05
-0.0125536555544
2.19197589953e-05
-2.8595264788e-05
-0.011593078467
2.96875139735e-05
-0.0125480924309
-5.13233549643e-05
-0.0115866124755
-2.11965887048e-07
5.31980914822e-05
-6.88883254749e-06
6.08627045771e-07
4.43709229175e-07
2.47399867952e-07
0.000818489724921
-0.000864071970849
3.06763200972e-05
-8.53187986754e-08
3.72426172967e-07
1.0704565948e-07
-3.03016264976e-07
0.000779399886804
-1.58286360289e-07
1.318244097e-06
-2.46935681248e-06
6.92696563713e-07
0.000124047478315
-7.95473542575e-05
-0.000778824291553
-4.6455890264e-08
7.63914971076e-07
1.1266338625e-06
9.3659346171e-07
0.000753403857986
7.69982084368e-05
1.55959447e-07
-1.46238792297e-07
-2.23681743965e-07
1.20072704015e-07
-4.0586447378e-08
1.00729116299e-07
1.47374063083e-06
0.000705862239975
1.5696875495e-06
1.2643549359e-06
1.59434879544e-06
1.8812485289e-06
0.000250598451143
-3.78040291899e-07
4.70884881145e-07
5.34604434028e-07
7.31693326457e-08
-7.63234283527e-08
3.3462086277e-06
-0.000215936038983
2.91171295934e-06
3.58782150608e-06
4.39894672662e-06
2.64712826311e-06
0.000551223444169
0.000255751872794
-6.18365419978e-07
8.17675121214e-07
9.16086211366e-07
3.58135312021e-06
6.19306115487e-06
5.65388760611e-06
4.13678220973e-06
0.000600838235515
-0.000201896250896
-2.3982258106e-07
-1.4443959925e-07
-6.01157498395e-05
-0.0125921554456
1.31646003013e-05
0.0125955593456
4.59731123776e-05
0.0126118615906
7.83604911484e-05
-8.72654443646e-05
-0.0126107870097
1.12878014356e-05
-3.31343855506e-05
0.0117402175363
3.0138355085e-05
-2.88678099975e-05
0.0117508943197
-0.011736948281
-1.24398658597e-05
0.0126134898693
-6.73005721307e-05
-0.0125929028983
6.10645473247e-05
0.0117609887633
-2.28912586827e-05
-4.39675015296e-05
0.0126001470087
-5.64738120904e-06
3.27623619705e-05
-0.0126143657682
2.89901758213e-05
-3.1861846119e-05
0.0126208615504
2.20110566119e-05
-4.1363038392e-05
3.60939593892e-05
1.80057410004e-05
-0.0117641870201
-4.04840863962e-05
0.0117659005533
-4.85922815451e-05
1.99315908445e-05
0.0126072535264
-3.30912228337e-05
0.0117587706165
1.2899660562e-05
5.00612550256e-06
-0.0117580680163
-1.12680364388e-05
2.41583325613e-05
0.0117573277272
-3.89928279253e-06
-1.05197158602e-05
0.0125832458615
2.34184829817e-06
0.0125872612178
1.87497927737e-05
-0.01258264859
-7.16552902804e-06
-0.0117671499341
0.0117651447189
0.012595162558
-0.0117630456834
-5.02579397115e-05
0.0125400137946
4.77369187654e-05
2.2192304255e-05
0.0115016706677
-1.45726675291e-05
0.0115070483919
2.85733605029e-05
5.06928106892e-05
-5.59633046986e-05
0.01253955281
-5.92960404551e-05
6.68182512005e-05
2.4534344743e-05
0.0114550314057
-1.51626264454e-05
0.0125384327705
5.14257649249e-05
0.0114672160373
2.86418517574e-05
5.09147683877e-05
0.0125350302193
-6.80529967633e-05
-6.01895923899e-05
-0.0125351898483
-5.47660633512e-05
0.0125409197691
5.68966234611e-05
8.22831500884e-05
2.63000742371e-05
-1.71561310059e-05
8.96096849877e-05
-0.0114240494999
2.62491705396e-05
0.0113691590607
5.27805316084e-05
-6.41765911264e-05
0.0125405095585
2.74365989827e-05
-0.0125387266905
-4.50685838229e-05
5.8752816127e-05
-5.9936975612e-05
-3.83343368833e-05
-5.72821804939e-05
3.17690014746e-05
0.0115131108764
0.0115138124735
3.20781450762e-05
-3.0712465667e-05
0.0114815025605
3.12464403327e-05
-4.57949591712e-05
0.0125373341211
0.0114772404391
0.0114516458499
-2.56926775027e-05
2.77413399904e-05
7.15041983789e-05
-2.6536140167e-05
0.0114158476743
2.63495915604e-05
6.26618399632e-05
0.0125361859574
-6.34420153724e-05
0.012532454879
-5.72931632596e-05
7.46796598533e-05
-0.0114371780421
0.0113886500458
0.0125361538285
-0.000360877959981
-0.000264155535826
-0.000319790865044
0.00137022116987
0.201531874517
-0.000411650309057
-0.00105045769583
-0.000277643093138
-0.000119467839787
-0.000111643939146
-0.000128701702643
-0.000104713517133
0.00030667670857
0.050324683675
1.02053774385e-05
0.000202042119748
4.3765481462e-06
1.2497938559e-05
7.5876356444e-06
9.53461545712e-06
-0.000182372510295
0.000429333400318
-6.67506556829e-08
-5.65888110167e-08
-5.20181582914e-08
4.4800366804e-08
1.88660173363e-07
-6.26229495267e-08
8.27706047315e-08
-9.50556059086e-06
-1.04685452349e-06
-7.36388693333e-06
-6.95753836227e-06
5.67965102931e-05
4.76118990709e-06
0.0503955015076
-1.38602507031e-06
-2.34571190397e-06
3.13178329804e-05
0.0117462179351
0.0503290679359
-9.92043076608e-05
-8.41272511022e-05
-8.24555604231e-05
-9.55659040542e-05
-0.000265741152771
0.0504213620402
-0.000102625180366
-0.000114564352682
-0.00011515078756
-9.88594196026e-05
0.000282140456134
-0.000262912155247
0.000119623574813
0.0112951602017
2.28531465379e-05
-2.0926605252e-05
-5.75628527253e-06
8.79543351793e-05
-1.84436436862e-05
0.0113739736898
1.65882201588e-05
0.01116787903
-1.42284316204e-05
0.000142921333546
-6.27761336497e-06
-0.0112457209579
1.21136688374e-05
0.0504985502622
-9.87114797318e-05
-0.000101947271999
-0.000102164815769
-9.72632953897e-05
0.000294557837249
0.000277299780008
-0.000248898265399
-7.91190905077e-05
-5.8515807232e-05
-5.99846612428e-05
-7.785961563e-05
0.000232910393108
0.000274838738311
0.0505074638444
-0.00024117692936
-1.36867283309e-05
0.000135351462607
-7.50230590703e-06
0.0110850900975
1.40671953451e-05
-9.23860347173e-06
5.84854908618e-05
-9.5804654119e-06
-0.0109542290662
0.010926247728
2.25715161821e-05
6.60649748259e-07
2.62037629865e-06
1.15605633647e-06
1.4305295676e-05
0.000780609783929
-1.24945438597e-07
0.00035424888851
4.27454041861e-06
6.39581528468e-06
8.78001399667e-06
9.25161039579e-06
0.000240314474259
4.70748953955e-06
0.000136360938151
1.38515071089e-05
1.16804856994e-05
1.17143952335e-05
-0.000188290310008
0.000225292114051
2.46069581185e-07
6.02133736237e-07
5.76452681927e-08
1.41020973639e-06
1.1697415182e-06
3.55195308738e-07
1.62003635858e-06
1.30339593669e-06
-5.866944837e-05
1.4036295354e-05
1.42198247784e-05
1.41841175229e-05
-0.00021293308738
4.14323725769e-06
0.000243878228854
8.956397629e-06
1.28288168422e-05
1.16478662043e-05
-0.000247976318397
2.78635266944e-06
-0.000182816183097
0.000260020718229
-0.0125961891734
-9.53191642489e-06
-8.34127461837e-06
6.04460265256e-06
0.0125985508927
-1.17641537775e-06
0.0125856728465
1.6424220018e-06
0.0117547273632
4.77639499449e-05
3.24020449158e-05
9.00024408631e-06
0.0117285731104
-7.86521709203e-06
4.97938341588e-05
0.0117384724277
0.0125887936915
6.20369203294e-05
-0.0125471543778
-0.000124400969949
-7.12969940249e-05
0.0125619674407
0.0125504433587
-5.62983773207e-05
5.54111460723e-05
0.000137577158631
2.26535469816e-05
-2.15788350585e-05
0.011222083205
0.000100149506053
0.0113180593217
1.93792351236e-05
5.74179425076e-05
0.0125646499648
-6.69559592902e-05
1.67177985261e-05
0.0112569957792
-0.0125412595562
-0.000118464832564
-6.80834362519e-05
0.0125580632188
6.50434659132e-05
0.0125402357612
-6.45681508959e-05
8.90528218532e-05
0.0113415955735
-1.60305648876e-05
0.000116217726866
0.0113113638872
1.73954021943e-05
0.0112802897963
0.0125583277645
-6.47328004086e-05
0.012580004141
-0.000127636652101
-7.0641677364e-05
7.45535515581e-05
6.83302331728e-05
-0.0125833322584
0.0126042129061
-6.0130915055e-05
0.000141315069459
-0.0112178400097
0.0111433180555
-4.49426681577e-06
-7.66576499539e-06
0.000128905274417
1.15313834029e-05
0.0125999802468
7.54153053083e-05
-8.21314854194e-06
-6.47116846565e-05
-0.0126238379913
-0.000127003199188
-6.10163350919e-05
0.0126405878604
7.31648514731e-05
6.58778964937e-05
0.0126288073926
-5.65155163425e-05
0.000134978942638
0.0110735393641
-2.96516003094e-06
-4.33150880229e-06
0.000125022069381
0.0110072520717
1.58243191359e-05
7.56043757199e-05
0.0109995199907
1.7307855138e-06
0.0126450973818
-4.88993425231e-05
0.0126513536357
-0.000103094705413
-5.47555967354e-05
6.84109340022e-05
5.24797703787e-05
-0.0126565854304
0.0126450021599
-4.0584108963e-05
6.12576277585e-05
-0.0109315788613
1.7462368594e-07
0.0108996106212
-8.10815444804e-06
0.000101618338955
2.1312502653e-05
6.47687719483e-05
0.0126406206363
-2.24122757342e-06
-4.17866443603e-05
-0.000478862412742
-0.0490749621335
0.0490495743984
0.000598426344103
-2.84223156441e-05
-3.53237314872e-06
-2.37181519256e-05
-7.85418492069e-06
-3.08533846373e-05
-0.000666255337528
0.0495242965859
-3.16464273642e-05
-1.67475254758e-05
-3.65073291638e-05
-1.50723080093e-05
7.23635445996e-05
-0.0494700824051
0.000639634941812
-0.000983622701694
-0.049687037567
0.0499541923924
0.000866982238706
-6.6153006851e-05
-7.35870569289e-05
-7.07405966844e-05
-7.07094076265e-05
0.000130622380095
-0.00076784530998
-3.77709221777e-05
-4.96127739325e-05
-4.70957405323e-05
-4.73595127283e-05
0.000123279281921
0.0500511742989
0.000680495795297
-0.0499052969455
1.90636839639e-06
-0.000180903154389
-0.000937809851246
0.000845571640519
0.000151851719715
3.03398009361e-06
2.99933160444e-06
1.11042895663e-06
3.00972010212e-06
4.79530579991e-06
-0.000719424723597
0.00059659434691
0.00018492288018
2.9827855377e-06
1.00331117483e-06
1.03602006567e-06
2.79351589379e-06
-0.0001851839029
4.29342115141e-07
-6.62501550587e-05
0.00079890423186
2.77864043737e-06
1.67201162171e-06
-7.57044728608e-06
8.79375822866e-07
-0.000860319418714
-1.1430807357e-05
8.77733458192e-06
-8.75204350481e-05
-0.000700791077537
0.000618094859932
-5.76580953957e-05
5.0739814813e-06
5.89754684363e-06
3.31917339309e-06
6.10384322451e-06
4.00037518829e-06
0.000188231053864
3.00979068732e-06
1.09793997199e-06
1.07298433223e-06
0.000606995073765
-0.000273856152372
3.28393214953e-06
-0.000666889569778
6.35549936097e-07
-1.38203632223e-07
-7.02436880011e-09
-3.07387517648e-07
-1.76360121392e-07
-4.33179125433e-07
3.7832921223e-08
9.63930939171e-29
-3.4941311732e-07
-1.07812364925e-06
-5.89978125918e-07
-1.14967987896e-06
-5.89679461433e-07
3.09092360033e-07
1.30027422278e-08
4.2337573362e-07
-4.14496761627e-09
-1.81396313312e-07
-3.47884581047e-07
-1.69804242003e-07
-4.27229375095e-07
-5.72222279803e-09
9.38992895574e-09
-8.64223938988e-07
-5.23815530566e-07
-9.73851120668e-07
-6.98183521427e-07
2.74707595007e-07
2.16122782595e-07
-6.38374280832e-08
-3.4910085449e-07
-2.57018516606e-07
-4.39903800769e-12
2.32153083898e-08
-3.54273453697e-08
-1.01042152445e-06
-8.58502333585e-07
-7.568651748e-07
-7.79509040948e-07
4.40250155856e-07
2.39783070294e-07
0.000122541302114
5.96055750481e-05
6.21930765605e-05
5.84756191292e-05
6.75348058836e-05
0.0487878516715
-0.000100182858816
1.25185276161e-05
-0.0490706074167
0.0488475739762
0.000288870460984
5.52765927447e-05
3.29503939602e-05
4.95974550305e-05
4.50134951713e-05
-9.21784720788e-05
-0.0491046920203
6.56296295472e-05
-8.0589364141e-05
-0.0118511652653
2.21357157336e-05
0.0118474618478
-2.61492844228e-07
0.0118639508391
6.95262659174e-05
1.37507721679e-05
-1.84001155359e-05
-5.4234569979e-05
-0.0118562450496
2.1357028587e-05
2.70694857428e-05
4.5390759059e-05
3.44547031062e-06
-0.000236044887847
0.0122032681968
0.0121754530002
0.0121005460329
0.0121670028669
-0.000138866008245
8.0433517863e-05
-8.32592588397e-07
-2.68587689238e-06
-6.10482100687e-05
0.0118640643074
0.000421708503009
1.97292619561e-05
8.09326089742e-06
2.80406633162e-05
-5.41559826515e-07
-6.52840056721e-05
-0.0491978237645
0.0492730398041
9.29578448503e-06
-7.54922931447e-06
-6.92762873833e-06
3.38654280153e-06
-4.36471930085e-05
-0.0493309972058
0.000525071010186
0.0118691537061
-3.18869326014e-07
4.43701800432e-06
-0.0118708062124
8.15700213762e-05
0.0119104343738
-5.49993314561e-07
2.43918836297e-05
-8.69422335906e-05
-0.0119181925889
8.67251623852e-05
0.000862396109041
-2.00486219812e-05
-1.90207560126e-05
-1.00623118142e-05
-2.77780947814e-05
0.0491267354095
-0.000193197829312
-0.000158898061313
-0.000193986516685
-0.000158545102622
-4.79024277976e-05
-3.52033526651e-05
-4.10620841838e-05
-3.39462508549e-05
0.0492789919553
-3.84231373728e-05
-1.71316887393e-05
-1.63951763657e-05
-3.743678705e-05
3.55588754434e-05
0.0495027765916
0.000817320697984
-4.55755586825e-05
-5.95362895145e-05
-5.98075124191e-05
-4.30537741642e-05
2.91618781416e-05
2.1804132557e-05
0.0118586090029
9.4172538985e-05
0.0117135383329
-3.90894796935e-06
4.83325802987e-05
-0.0117542043809
0.000117995116032
-0.000111492031398
9.70503218197e-05
-1.87720868466e-06
3.69325059062e-05
-9.54346669071e-05
0.011902247814
0.0117741927737
0.000115518695507
-6.58389081482e-06
0.000102563819529
-0.0001183868197
-0.0118254218376
0.0497819573305
-4.14843429419e-05
-5.34497964168e-05
-4.327802171e-05
-4.59539681969e-05
-0.00106047052047
-1.82835279674e-05
0.00111907773434
-2.49533989188e-05
-8.96382873058e-06
-2.87787952671e-05
9.27553688281e-07
0.0503082198094
-0.000186251565335
-0.0013974584949
3.54162767554e-05
0.0117111815755
0.000144018544396
-0.000125953383805
-7.62058128273e-07
-2.33289660217e-05
-0.0116739184699
0.000182006534613
0.0117150250166
-0.000190893065256
0.000123462944002
-9.01860686488e-06
0.000106538403688
-0.0001144324628
0.0117630738189
0.000137512519547
-3.07983544508e-06
3.20396505629e-05
-0.000153874519869
-0.0117171574295
0.0117342464307
0.000758631912402
-4.68909610321e-05
-7.08320697045e-05
-4.92242377138e-05
-6.81288224831e-05
0.000130967705355
0.0498170712209
-4.09297930125e-05
-5.99157586109e-05
-6.09892811451e-05
-4.21985942225e-05
0.000135301374106
-0.0496687557727
0.000679018031814
2.06945901159e-05
0.0119296050791
8.8983997424e-05
-0.0119306421005
0.0118086001144
-6.11735817309e-06
0.000103473701426
-0.0118630876418
0.000106944107543
0.0118287032785
-4.8063083561e-06
8.28692643017e-05
-8.01495604461e-05
-0.0118841234975
7.19770295508e-05
0.000960531495005
-6.21935351232e-05
-3.83659586806e-05
-5.6310856345e-05
-4.60265077643e-05
0.0502443309979
7.12448632154e-05
0.0500148546339
-5.916712722e-05
-6.46915030133e-05
-6.07669778617e-05
-6.00561827018e-05
0.00014594486379
-5.82878262087e-05
-3.79665135845e-05
-5.46437814109e-05
-4.60938106776e-05
0.0502194304817
0.00080908352942
0.000143829523138
0.000112089845601
0.0117886061342
0.000125983253394
-3.80505831717e-06
4.5853463459e-05
-0.0117324261219
0.000121682619472
0.0117427567316
8.07607217313e-05
-6.46717410951e-06
8.83415163196e-05
-7.88118115849e-05
0.0118023428361
8.1539827625e-05
-2.67036639305e-06
4.02015851981e-05
-9.29839071334e-05
-0.0117672493058
0.0117577617498
6.64165769989e-05
0.0118035269141
7.15814224543e-05
-0.0118222974191
3.28021896946e-05
-0.0117825074311
0.0117730727815
-1.72928525639e-06
6.64370570705e-05
0.000134809290653
-6.68802957858e-05
-6.82401827337e-05
-6.31340122506e-05
0.00101564725539
-2.16501688373e-05
-0.000973129975908
-2.52679759921e-07
0.000999779810747
0.00018339797496
-4.87014871101e-05
-4.39026927954e-05
-6.02261190466e-05
-0.00100821840756
-9.69384952753e-08
2.36389342006e-06
-7.01060053957e-06
2.29416150862e-06
9.92798140719e-07
-0.000167626164792
0.000869654956622
1.39499683449e-06
5.69269173853e-08
-4.32569109175e-07
-4.94780928747e-08
-2.99253479698e-07
2.5865981805e-08
3.95203924412e-06
-2.94802741692e-06
-1.83034590082e-07
2.80152249272e-06
2.42048647775e-08
-1.01945928799e-06
4.5351444583e-06
-5.73859329093e-08
-3.27806245076e-06
3.87133175423e-06
1.40771179571e-08
-2.71487520698e-06
-2.20107654511e-07
1.53559528581e-07
1.96962647344e-06
2.43991562095e-07
-2.52553765831e-07
3.87360510835e-06
-2.25052228869e-07
-2.63223104968e-06
-8.36533286548e-08
1.61562204002e-06
6.75319664764e-07
0.000147426749324
-2.28279258119e-05
3.96144506728e-07
-1.27197094125e-05
1.26045733171e-06
-0.000971318489308
0.000895698804664
6.12613859809e-07
-3.80693196833e-06
-8.58075150181e-06
-0.000911569820901
1.67861919685e-06
7.06788885951e-05
0.000178267392267
3.6974852201e-06
2.38624235663e-06
5.43242795156e-06
5.85995786021e-06
-0.000188957835796
0.000820240490563
3.54549297039e-06
1.61512126685e-06
3.08518901659e-06
3.74321590091e-06
4.7504711033e-06
0.000708649603034
8.57727590217e-05
6.66655541895e-06
3.9885584719e-06
7.00959413153e-06
2.79673234682e-06
1.34883125213e-07
-1.43893019385e-06
1.92525791642e-07
4.24795456497e-06
2.05345383511e-06
1.13431509165e-07
-7.4387119812e-07
3.85182977572e-06
2.70416145565e-07
0.00018653050712
1.25537926115e-06
-2.51812289872e-05
9.73427044884e-07
3.63256958083e-06
0.000559983752073
-0.000209122460233
0.000616490131899
4.21975640942e-06
2.83496979711e-06
5.37816345879e-06
4.9748388665e-06
3.08614376663e-06
5.40857732623e-05
1.80682753774e-06
6.44913410067e-07
6.02882119523e-06
0.000591333658315
3.59009108718e-06
1.82486654507e-07
2.99004284274e-07
1.83047290043e-06
3.52460489914e-06
4.79515584733e-07
6.88655340225e-07
2.10934582683e-06
-3.00616005599e-05
4.92147304589e-06
3.69075389872e-06
5.12452333581e-06
4.517466238e-06
4.48189922407e-06
0.00068276816624
4.64994416609e-06
2.80717175511e-06
3.87999899943e-06
-0.00077406009957
-0.000135093412523
1.13716033418e-06
-2.45503186935e-07
5.52187876726e-08
1.82472764045e-07
3.2255644361e-06
3.07767613663e-06
-9.59529837867e-07
1.08460666728e-08
-0.000106413266925
3.84339485041e-06
1.43930283869e-06
3.70366444385e-06
6.79644801487e-06
0.000583479710503
0.000609915489033
4.60089867498e-06
3.32650784381e-06
3.93586777009e-06
5.40080994768e-06
3.43096067676e-06
3.57051866031e-06
1.58747671699e-06
5.95925562427e-06
0.000560028519072
-0.000228508352202
3.76449760823e-06
4.21911331114e-07
6.93331820624e-07
2.86414851587e-06
4.35543675537e-06
6.98004495259e-08
4.3160875913e-06
1.45421839783e-07
0.0122373365804
8.02589799531e-05
-5.58550848011e-06
1.6979438923e-05
-0.0122694100666
4.82548574609e-06
-0.0122407241523
0.0122082005311
9.23808459287e-06
1.72466919059e-05
-9.02192808795e-05
5.06491149112e-06
-0.0118475328472
-6.94827769399e-05
-0.0118494504897
3.81662360064e-05
0.0118402560141
2.37794084918e-05
0.0122074008759
3.58207493016e-05
-0.0118479569957
3.87304583713e-06
-0.0122729631195
0.0122400442979
3.04315243921e-05
7.29192672529e-05
-0.0122710732085
-4.30942608017e-05
-0.0122506599009
0.0122415712695
6.69392682717e-05
-5.06156709133e-05
-0.0118510935163
0.0118448752133
-5.03048058112e-05
-5.2863055354e-05
6.6486356462e-05
-0.0118528276911
0.0122198712853
5.07161999581e-05
-0.0122761889302
-0.0118499067985
-0.0122125436421
8.53849033835e-05
-7.63092784295e-06
-5.20743804865e-05
0.0122081976509
-5.70772907346e-05
0.0122360139851
8.7201114931e-05
-2.65511067253e-05
0.0118523010089
-4.10810241407e-05
3.17262745469e-05
-7.3757357893e-05
8.90513260054e-05
0.0118249659738
-3.07190623464e-05
0.000115402732851
0.0122411679005
-5.16026648225e-05
0.0118284624891
-6.76272467933e-05
0.012289484716
1.2459869564e-05
8.66722993283e-05
-0.0123010311822
-0.0122696967732
8.40783679794e-05
0.0122651164558
-2.76298969126e-05
7.73538610683e-05
-0.0118640297437
1.50347574984e-05
-0.0118905020399
8.60910569267e-05
0.0118797713209
-0.0122860792793
0.000102056227368
0.0122860923661
8.16393475588e-05
-0.0118834261861
0.0123098059102
0.000104239629182
2.9606188256e-06
-0.0123208188232
-0.000120481189157
-0.012328186013
0.0123275291429
0.000138144154411
2.35236276321e-05
-0.0119083267274
0.0119006956472
3.77942109744e-06
-8.16223358221e-05
-0.011912847291
7.94585724926e-05
0.0123081113908
-0.0123381638201
0.000121670422031
-0.0119022286713
-0.000130124590315
-0.012285518446
-6.13098869323e-05
0.0123021742643
0.000146895170707
0.0122638514562
0.000106719756682
5.15569358041e-05
9.75020939545e-05
0.011815186337
2.54943001389e-05
0.0118548199425
9.57557755515e-05
0.0122766492657
0.000125063561674
0.0118079237243
0.000102585905025
-0.000148102351689
0.0123337975053
-7.0993735578e-05
0.000168115411319
-0.0122992467069
0.000187294225393
0.0123258592139
-0.000184658020328
4.01292651871e-05
9.69919469412e-05
-9.82901601801e-05
7.13164195747e-05
-0.0117861799215
0.000120488282115
0.0117494837215
-0.000140993075286
0.00019693892217
0.0123674273634
0.000110447081549
-0.0123096800403
0.000163390685474
-7.39112210757e-05
0.0123289660715
-0.000142625007393
0.0123307885651
0.000159166402342
3.54266572663e-05
0.0118806679305
7.09040389037e-05
-0.00010785548833
0.0118699790206
0.000104786503205
0.0123509034225
0.000176933989715
0.011835058711
0.0123605181363
0.00018282783679
-9.1352086722e-05
-0.000198499115175
-0.012375634881
0.0124093764665
0.000208193192614
9.59843996303e-05
-0.0118110013481
0.0117711862628
7.57661318284e-05
-0.000120682798674
0.000109822162504
0.0123950907479
0.000191345650316
-0.000247566717747
-0.0123903767566
-2.35500984231e-05
0.0124181084453
0.000250285683745
-6.03444216965e-06
0.0123582425239
0.000220065977121
3.85446885091e-07
-0.00021780788118
5.4491265207e-06
0.000144024402579
0.0117000080578
-0.000146086213785
3.06641120733e-05
0.0116893591384
0.000130532475859
0.0123896012688
-1.85214604118e-05
-0.000254753436201
0.000219944805352
7.63820806309e-06
0.0116895124255
0.000142870914962
-0.000270773427038
-2.60593986848e-05
0.0124788514415
0.000276776672298
-3.95614685147e-05
-0.0124516736499
0.000292920741348
0.0125250002282
-0.000305798603738
-8.3681161362e-05
-1.3826803235e-05
0.000152693325061
-0.000169944879848
-0.0117191098624
-1.24202197756e-05
0.000177164408983
0.0117504805367
-0.000284277513284
-6.16040270829e-05
0.000157235745784
0.00029675775476
0.0125340659485
-7.11220893261e-05
-0.0124209210919
0.000237063922916
-5.63223144167e-05
0.0124498443876
-0.000210632085019
0.012450003826
0.000223027961633
5.94385160667e-05
0.0117049444447
7.33734452888e-05
-0.0001364210759
0.0117545722157
0.000129062846971
0.0124776902845
0.000237482166586
0.0116977578108
0.000264759917025
-5.62877719585e-05
0.0124946231676
-0.0125042209712
-0.00027425872605
0.000262705839663
0.0125389618509
-0.0117262754356
2.36488100638e-05
0.0117620736445
4.28268456722e-05
-0.000161702617742
0.000134822356588
0.00025301075631
0.0125423920918
-0.000176620024261
-0.0123674845059
-4.37331190874e-05
0.0123835186907
0.000172672531152
0.0123512391495
0.000162215017367
-0.012350137493
5.47852781997e-05
9.4294955411e-05
0.0119029424782
1.14729953292e-05
0.0119300823346
-0.0119358637487
7.78198936394e-05
0.012369831064
-0.0123677019494
0.000159186297478
0.0119151539227
8.16548554011e-05
-0.000190111586414
0.0124109360572
-7.0888057805e-05
0.000186730611958
-0.0123932779849
0.000206243767074
0.012428037515
7.1237334116e-05
9.6588041088e-05
9.67538859444e-05
-0.0118918773737