/*--------------------------------*- C++ -*----------------------------------*\
| =========                 |                                                 |
| \\      /  F ield         | OpenFOAM: The Open Source CFD Toolbox           |
|  \\    /   O peration     | Version:  v1906                                 |
|   \\  /    A nd           | Web:      www.OpenFOAM.com                      |
|    \\/     M anipulation  |                                                 |
\*---------------------------------------------------------------------------*/
FoamFile
{
    version     2.0;
    format      ascii;
    class       volScalarField;
    location    "4";
    object      alpha.water;
}
// * * * * * * * * * * * * * * * * * * * * * * * * * * * * * * * * * * * * * //

dimensions      [0 0 0 0 0 0 0];


internalField   nonuniform List<scalar> 
28582
(
1.00000104115
1.00000101487
1.00000104393
1.00000100966
1.00000112993
1.00000121958
1.00000491785
1.00000307436
0.0251137686202
0.0276294408665
1.96019249954e-06
1.00000408052
0.942077930966
0.936801519067
1.00000300349
1.00000358869
0.935614180197
0.999776261148
0.999779095028
1.00000038657
0.999999841286
0.99999897599
1.00000016782
1.00000038699
1.00000026874
1.00000084615
1.00000213787
1.00000521201
1.00000219205
0.0291109179216
1.44406951406e-06
3.30698711972e-06
1.00000613704
1.00000572613
0.942185752612
0.940931138092
0.999933704085
1.00000163617
1.000003553
1.0000063549
0.99976769058
0.923473181781
0.999776581273
0.9997897852
0.0255744308912
0.0275158784543
8.5541396107e-05
0.000104100022779
0.0264251989322
0.000118354795513
0.999942915327
0.999930968816
0.940134233902
0.940193976375
0.999935700672
0.938309173753
0.999944763204
0.99991699493
0.999918817026
0.938201708759
0.935236512543
0.999896217262
0.93697660054
0.999940286481
0.99982695694
0.999890410483
0.933929716659
0.933767717863
0.99986544025
0.932699832812
0.99986651196
0.999812464967
0.931230179846
0.931047701771
0.999805352656
0.932459667036
0.931881225468
0.999832436414
0.999786300568
0.931036700688
0.931195695808
0.999813555047
0.932085284531
0.999818782832
0.931802529234
0.0244802296677
3.88531028332e-05
0.0250167102042
0.0247303136277
3.11930805095e-05
3.12330682381e-05
0.0285933376516
0.000120499252098
0.000124455386053
0.0302454657047
0.000194552970311
0.0310834278874
0.000189717037383
0.999909899334
0.99991075675
0.940962178671
0.943566970683
0.999910119773
0.999909810224
0.943182468943
0.999913855338
0.999920752379
0.941006978939
0.943498995929
0.999908193577
0.999923526036
0.943244261254
0.94427973654
0.944215296705
0.999946396968
0.999941019393
0.944076864813
0.999967499945
0.943892629872
0.999795149501
0.930049772688
0.929874189253
0.999762204676
0.928372301228
0.999792169404
0.928639258898
0.999760047046
0.999753041736
0.92616091032
0.924671934381
0.999778407417
0.999748267597
0.926888016161
0.999790312371
0.999788707337
0.93019714129
0.930195164774
0.929418569195
0.999789919367
0.929285251163
0.928484018672
0.927841424053
0.999807082421
0.999790668621
0.926266141645
0.999779688785
0.928061628717
1.00000271564
1.00000099085
0.0333622959037
5.3805987077e-06
1.00000660337
0.943854441838
1.00000932429
1.00001017176
0.920238606094
0.926403204146
0.9143285419
1.00000866197
1.00000872011
0.908422182436
0.893629690977
0.024433459877
0.032238524649
0.034744125953
0.000277323959913
0.000264373817368
0.00034401706299
0.0375902187669
0.0404633610243
0.999999549972
0.999955582783
0.944003251685
0.942833781283
0.999999620617
0.943684872347
0.999980861215
0.999682932472
0.999720848795
0.91595134354
0.921594637051
0.999670456648
0.999721756608
0.918308991037
0.999727891403
0.999819306551
0.923960264727
0.923716183917
0.999754363963
0.921065266979
0.999801878604
0.999699804909
0.999717678715
0.912145801645
0.919464004715
0.999649277616
0.91695582073
0.999771390224
0.999511962461
0.999637033539
0.907009362743
0.902475474014
0.999590831087
0.901891420952
0.999540365062
0.999420343976
0.999408714654
0.892178603954
0.897480646637
0.999360414689
0.896612124856
0.999451910208
1.00001558001
1.00000761674
1.00000742427
1.00000641529
0.0221939547656
0.0258818673365
0.0204165767046
0.0247475927832
0.0237207832399
6.89301489055e-06
2.33766490726e-05
5.4216684019e-06
1.63960397586e-05
2.10663693743e-06
1.47248297186e-05
1.00000721428
1.00000688888
0.960842895945
0.961224818107
1.0000084598
0.962072504133
1.00000552844
1.00000848666
0.961548384014
0.962944340094
1.00001687196
1.00001572518
1.00001849588
0.961157311097
0.951255238582
0.962639920026
0.953969590297
1.0000205638
1.00001998237
0.948711796145
0.943579823564
0.949605376575
0.942739511782
1.00000850932
1.00001163276
0.963916594942
0.956096265264
0.956190830567
1.00000648344
1.00001169522
1.0000096978
0.951359288698
0.943148353773
0.951211062677
0.945499383636
0.95081434171
0.946554537325
0.0220025047582
0.0218757582494
0.0223339320667
4.96526052282e-05
0.000140471690463
0.000102232458591
0.000173570865831
0.000268461288257
0.000282321504039
0.000280195962774
0.000262870176655
0.0211138306801
0.0203231741964
0.024142017666
0.0214797948374
0.0235549632098
0.000114320869189
0.000173096412119
8.90160172217e-05
0.000156115485747
0.0265657363549
0.0256051880583
0.0263408494878
0.000256083410391
0.000242572244762
0.000245397360629
0.000238040859447
0.0223907840593
0.0218822911633
5.14021002255e-05
0.000120907410458
9.93065181269e-05
0.0258411069759
0.0241062295639
0.0252078237973
0.000218065884202
0.000236870225506
0.000175961519977
0.000222121404188
0.999972976002
0.999994408898
0.960088509417
0.960424713416
0.999973516228
0.95965358907
0.99999606967
0.999948311183
0.99997740626
0.960536219171
0.959522992197
0.999958011072
0.999963508398
0.959590239114
0.99998502109
0.999992340244
0.961971558185
0.960836372427
0.999983263491
1
0.961593007191
0.999956909676
0.999973447599
0.960118043945
0.961794827358
0.999972029952
0.999974972425
0.961164008274
0.999976377368
0.999994632799
0.962675899535
0.962190545306
0.999990158773
0.999987595285
0.961758327241
0.999943419536
0.999987682709
0.959565981022
0.961024370062
0.999978242125
0.999968351237
0.958794835624
0.999936882217
0.999914268317
0.955729132702
0.952550379157
0.999944377378
0.999928804312
0.955627012897
0.999973862993
1
0.962072033987
0.961556075167
0.999982518196
0.999984221347
0.960064429856
0.999954295326
0.999965207454
0.953477093694
0.958447596406
0.999925333107
0.999968973837
0.956699454063
0.999867348423
0.999902219534
0.947400363612
0.948426226679
0.999876496968
0.999879352062
0.944114154484
0.999875562667
0.999930146893
0.944380568697
0.945003719903
0.999890416855
0.944165884082
0.999919990885
0.999875898792
0.99995204513
0.948987513139
0.947692376675
0.999881884834
0.999917002049
0.943820550582
0.999869917715
0.999929077883
0.944640026648
0.945373326437
0.999919384425
0.943330758535
0.99989475142
1
1
0.963305000637
0.963617231589
1
1.00001266324
0.963652436773
0.999998992824
0.999982234835
0.960491250767
0.957829406669
0.999991909946
0.999993017604
0.961153163175
0.999996049016
0.999980101739
0.957829995342
0.960367161638
0.999989416533
0.999995370281
0.961046336559
0.999954771308
0.999976273134
0.949001418781
0.953718133286
0.999914776101
0.99995940268
0.947945931435
0.99992799485
0.999933272358
0.946294518704
0.945725729568
0.999896596214
0.945244733971
0.999920616985
0.999945264034
0.999971658324
0.954002716603
0.949754884641
0.999950320946
0.999940216866
0.94839181739
0.999921427965
0.999944532431
0.946194565319
0.948298058282
0.999934076343
0.94572759533
0.999918993069
0.999942384785
0.999964936923
0.949683324252
0.95164131262
0.999930347013
0.99995059509
0.948764546258
0.999934894168
0.94881108004
0.999924222221
1.00000028903
1.00000033706
1.00000058421
0.999998455759
0.999997226241
0.999996466053
1.00000041277
1.00000060881
1.00000082744
1.00000000016
0.999999441305
0.999999009737
1.0000054329
0.999959564565
0.999940376825
0.999947852874
0.999976898871
0.999992888155
0.999996424953
0.999994650276
0.999992288194
0.999997608555
0.999994752908
0.999988824807
0.999982488755
0.999987787021
0.999995392748
0.999998560875
0.999997179066
0.999997602078
0.999997533172
0.999998299282
0.999998737369
0.999998657001
0.999998499254
0.999999093824
0.999998059077
0.999999418819
0.999999739945
0.999999727818
1.00000009732
0.999999929806
0.999999727626
1.00000000928
1.00000010638
0.999999811346
0.999999491393
1.00000009186
1.00000339887
0.999858431012
0.999805673837
0.99997328144
0.999995939209
0.999997525478
0.999997174892
0.999997391506
1.0000019706
0.999838540253
0.999899676057
0.999980343854
0.999997227804
0.999998422649
0.999998343124
0.999999478412
0.999991444399
0.999981029863
0.999987920691
0.999996701182
0.99999918217
0.99999920415
0.999999286645
1.00000022266
0.99999982896
1.00000009006
1.00000024444
1.00000027611
1.00000010209
0.999999684159
0.999999607289
1.00000037241
1.00000092493
1.00000084427
1.00000090484
1.00000212589
1.00001069667
0.999512988265
0.999931382712
0.999996506967
0.999999997585
1.00000168293
1.00000148119
1.00000127192
1.00001253394
0.99984357737
0.999962626365
0.999997175358
0.999999994214
1.00000087887
1.00000105828
1.00000172673
1.00000011742
0.99999426379
0.999995251538
0.999998755541
0.999999950016
1.00000031429
1.00000098479
1.00000221311
0.99999994219
1.00000036392
1.00000047257
1.0000007181
1.00000078992
1.00000048334
1.00000033807
1.00000098361
1.00000212165
1.00000101154
1.00000113173
1.00000135902
1.00000152879
1.00000165512
1.00000225899
1.00000305923
1.00000321644
1.00000355209
1.00000390526
1.00002163738
0.999809654591
0.999953360582
0.999999985689
1.00000622236
1.00000724601
1.00000506658
1.00001037977
1.00001069233
1.00000869565
1.00000561082
1.00000432599
1.00000572216
1.00000835601
1.00000570103
1.00000231432
1.00001235634
1.00000529157
1.00000485267
1.00000410352
1.00000407983
1.00000488729
1.00000516012
1.00000455685
0.999999998306
0.999996404996
1.00000085787
1.00000742644
1.00000532439
1.00000563945
1.00000541178
1.00000312871
1.00000132177
0.999998269928
0.999994319081
1.00000043531
1.00000736668
1.00000784357
1.00000369478
1.00000046795
0.999996793135
0.999995220977
1.0000002654
0.999999576244
0.999998990373
1.00000182527
0.0258292769264
0.0258530930249
0.025232083125
0.0254211484163
0.0283491023258
0.036996591154
0.0419462500233
0.042300996031
0.0265012078593
0.0249005593565
0.0238492411389
0.0243866422085
0.0244398937615
0.0248580710848
0.0286716033044
0.0371257693523
0.0409813225373
0.0406875434555
0.0256325743834
0.0248263977273
0.0244294596535
0.0239270584067
0.0245277104662
0.0259541120092
0.0301520631643
0.0378969917162
0.0416623426007
0.0423322751543
0.0250004848809
0.0262353465776
0.0257049470722
0.0254022473581
0.0269154510698
0.0318536398811
0.0387838419449
0.042859261986
0.0453053463816
0.0242437460336
0.0256460106538
0.0286964652242
0.034053895601
0.0400700443574
0.0433663320526
0.0443193386087
0.0388481102414
0.0427165001012
0.0433082305234
6.61687726916e-06
1.56192126057e-07
1.74623420087e-26
-1.65171874209e-28
1.92945217198e-27
3.13745233604e-08
3.52668225985e-06
1.30076236957e-05
1.92394358059e-06
6.1751003794e-05
4.05662793559e-06
2.61104237564e-07
9.10813663861e-10
-1.58537026545e-26
-2.74239565513e-25
2.58918662907e-07
5.08929648762e-06
9.97457736012e-06
1.75158183669e-06
6.74517456365e-05
8.42310849748e-06
1.73911083711e-06
3.84785391116e-07
3.2089672633e-07
5.16285330702e-07
1.08182035576e-06
7.01573122825e-06
1.13033755329e-05
8.88530144824e-07
4.95741377916e-05
2.47178461769e-06
9.58821765437e-07
5.02812390749e-07
1.38887069643e-06
1.74517012932e-06
1.08952625116e-05
1.40119140012e-05
1.21555800048e-06
4.7800741869e-05
5.57749656037e-07
1.03716722646e-06
4.08568741994e-06
1.65425140204e-05
8.06721169912e-06
3.76514745156e-06
7.25448247963e-05
2.63559535473e-06
2.86159844233e-06
8.32078444426e-05
0.999987227558
0.999990392701
0.999989764644
0.99999873388
0.999925258952
1
0.999924527576
0.999971814483
0.999990920828
0.999996294737
0.999877589271
0.999879560445
0.999882921462
0.999911801602
0.999995602481
0.999993408105
0.999996903849
0.999983625889
0.999983252073
0.999997414833
0.99999330458
0.999996124401
0.999997640656
0.999996633456
0.99998562028
0.99998407792
0.999991268621
0.999993536963
0.999968152258
1.0000079097
0.999947848805
1.00001407026
0.999923634146
0.999998083057
0.999700365817
0.999630252172
0.999637467009
0.999610021436
0.999581933595
0.999512986801
0.999512986801
0.999512973293
0.999950733122
0.99998742067
0.999989184603
1.00000735976
0.999978546093
1.00000256766
0.999989728433
0.999843461974
0.999988385694
0.99999375581
0.999791999828
0.999545458871
0.999948562632
0.999930191651
0.999812256207
1.00000614515
0.999914943854
1.0000027235
0.999749613487
1.00000970509
0.999892610174
0.999590179343
0.999543284922
0.99961893671
0.999520601951
0.999766546776
0.999755036635
0.999837244338
0.999982709649
1.00000657468
0.99999651161
1.00001182648
0.999982514724
1.00000717801
1.00000465691
0.999722730979
0.999965000623
0.999952030315
0.99993708791
0.99994366784
1.00000237573
1.00000087379
1.00006705688
1.00004347051
0.927862205746
0.933227616008
0.999949550738
1.00001746173
0.999990528244
0.928190225218
0.930451994689
0.933371622219
0.933698136552
0.999846112036
0.99995104761
0.999952163072
0.931005345924
0.932640163881
0.933729135307
0.934301681009
0.999996787508
0.999977458778
0.999997394887
0.933287523181
0.934824865233
0.934762182957
0.93644096707
1.00000239457
1.00000107634
1.00000471277
0.935566969561
0.937640090718
0.937175663073
0.939526246368
1.00000592184
1.00000830668
1.00000989361
0.937793720296
0.92850095366
0.939421564877
0.928130191593
1.00000742288
1.00000331287
1.00000385133
0.919341575249
0.886746935645
0.919136425815
0.890175077617
1.00000803813
1.00000562855
1.00001128218
0.882364943799
0.882752955624
0.885828205994
0.885363776005
1.00001348277
1.00001741888
1.00002344321
0.885456459524
0.88559289626
0.888577736484
0.885903974204
1.00001842809
1.00001761475
0.943837371262
0.938202018388
0.94302792713
0.942883208274
1.00001056971
1.0000158449
1.00001216809
0.936699151469
0.935691185715
0.941850254122
0.940429593857
1.00000712113
1.00000808392
1.00000594231
0.935734599254
0.93537540317
0.940349182824
0.940417586142
1.00000436378
1.00000396572
1.00000276679
0.935257364501
0.935653234934
0.940366488716
0.939940748184
1.00000464475
1.00000168829
1.00000169301
0.935979112261
0.937325523175
0.939551373798
0.936455389806
1.00000720565
1.0000028588
1.00000350735
0.937917229545
0.939408151902
0.936084265598
0.935925647804
1.00000706273
1.00000524962
1.00000537316
0.938862591212
0.926924728789
0.93532331767
0.923403057384
0.999999915063
0.999999865937
0.999996962168
0.918206551237
0.890864782703
0.914950515653
0.889647751636
1.0000089592
0.999996558436
0.999998594551
0.886922974007
0.886096280932
0.885996004861
0.885897705092
1.00001766247
1.00000687988
1.00000982272
0.889388743995
0.885813143439
0.88896794756
0.88456478261
1.00000459418
1.00000858706
1.00000784934
0.943280561086
0.944349174241
0.945095507642
0.945428334689
1.00000418321
1.00000656767
1.00000581014
0.943402871939
0.940975546259
0.943549395106
0.938098895553
1.00000401844
1.00000250534
1.00000363986
0.940469581557
0.940301384714
0.936979355053
0.936007131538
1.0000043205
1.00000415582
1.00000603557
0.940581852147
0.939735232831
0.936462784052
0.935728502061
1.00000487635
1.00000636904
1.00000547719
0.938483223824
0.935141107487
0.934677787334
0.93360906346
1.00000613833
1.00000731949
1.00000647099
0.934886674748
0.935503453014
0.933680383562
0.93448696655
1.00000156177
1.00000733092
1.00000568955
0.934854212713
0.922495154954
0.933428575409
0.918009709197
0.999995186082
1
0.999994278939
0.91396330867
0.888741897065
0.908945826641
0.884086445327
0.999999553145
0.999995716767
0.999998914344
0.885048947221
0.885573917768
0.880864186966
0.881932361646
1.00000510864
1.00000644384
1.00000870992
0.888269625077
0.884146838875
0.883738752891
0.882498789607
0.946252151028
0.946134375509
1.00000457747
1.00000585144
0.944055407175
0.937640963879
0.941767380905
1.00000315027
1.00000395354
1.00000389652
0.936360815571
0.935156530396
0.940337664324
0.938714192797
1.0000050942
1.00000516715
1.00000647825
0.935800549429
0.935654824598
0.939116095527
0.939838391637
1.00000593733
1.000007755
1.00000708551
0.934501961733
0.933732445403
0.938130830758
0.932370663859
1.00000485408
1.0000056208
1.0000058394
0.933620664056
0.933868894492
0.931835029016
0.928999766886
0.999999676831
1.00000360036
1.00000147436
0.932598147405
0.916253227478
0.926227121845
0.906113186429
0.99999398868
0.99999824221
0.999992561458
0.907258668886
0.883160064772
0.898094120723
0.879957420443
0.999999927306
0.999994995357
0.999999272155
0.880154314522
0.881473004702
0.878980135485
0.881767225645
1.00000444993
1.00000476342
1.0000070501
0.883383452461
0.882195019815
0.88437565334
0.883129670471
1.0000088028
1.00000847538
0.941275306191
0.942083466811
0.938990255308
1.00000537458
1.00000731227
1.00000442799
0.939771497423
0.931230503828
0.936936753818
0.931221976242
1.00000131207
1.00000164525
1.00000115692
0.929929789633
0.925567067504
0.929820452824
0.922377577259
0.999996607115
0.999999594858
0.999997996685
0.92255467911
0.903076035995
0.918536922809
0.902861650847
0.999995326086
0.999995930551
0.999994170933
0.896023260238
0.880745155613
0.897898633709
0.886927175843
0.999999218654
0.999996857536
0.999999637845
0.880353765311
0.883215036171
0.885757669877
0.889116693832
1.00000327054
1.00000320403
1.00000628095
0.885906234867
0.883136870624
0.89219228506
0.879185794967
0.999999733973
0.905911106656
0.999999219572
0.900890250326
0.88928627813
0.999999923539
0.887407652273
0.890060145837
1.00000379583
0.893127231069
0.878260651138
0.000196202479056
5.8278290658e-05
0.000165046414179
4.10584800922e-05
0.025347078166
0.0245958234688
2.23010669025e-06
1.55853427073e-07
1.39370106831e-06
1.61230694344e-07
0.0259933830197
0.0249842126408
0.0251526468759
2.22754157058e-07
4.42944736763e-07
2.62709490693e-07
1.09085890707e-06
0.0255144394336
0.0251853980052
0.0251108327177
3.24195383107e-07
2.136897005e-07
1.93639195504e-06
1.73922591698e-06
0.02519113181
0.024970027933
0.0248991902814
7.67112091329e-07
5.19692420194e-06
1.85776712268e-06
2.00271839299e-06
0.0261645651468
0.0250781527247
0.0258477261762
1.28216870175e-05
2.21960172074e-05
2.488057209e-06
1.72040476827e-05
0.0324608640051
0.0282502141
0.0324993312953
7.32978218465e-05
0.000231638971755
8.94325457892e-05
0.000231801491733
0.0407467252019
0.0369430169587
0.0402626901981
0.000367210110311
0.000486407386905
0.000353192936489
0.000464021879057
0.0417436754167
0.0412976358667
0.040954603778
0.000433480592952
0.000330537801007
0.000414442261185
0.000325111664175
0.0416733187289
0.041243614835
0.0408836052572
0.000495878117159
0.00115180930059
0.000501154081397
0.00118868877715
0.0255405410204
0.0261056369296
0.0254545325433
0.000152225650799
6.22703109368e-05
0.000164609058714
8.455791391e-05
0.0239610551096
0.0248709716454
0.024156076273
3.095379054e-05
9.38925578264e-07
5.1402203906e-05
1.99213377781e-05
0.0240971009965
0.0235539465874
0.0233936906647
3.14250249185e-07
7.31427660565e-07
1.49360487645e-06
2.95758612107e-07
0.0244713296906
0.0236629677838
0.0238086110669
1.34966188769e-06
1.73486189155e-06
1.28637611585e-06
2.34217943864e-06
0.0245305773693
0.0240387150777
0.0245400354166
2.26502997924e-06
2.79080940634e-06
5.96000460023e-06
6.01855488558e-06
0.0259648263045
0.0253099763189
0.026728935484
2.31348343216e-06
2.99606355903e-05
1.55953468991e-05
5.23825261562e-05
0.0328726095364
0.0294619440056
0.0334808513961
0.000114330559105
0.000250194031676
0.000137411052602
0.000265794293705
0.0401287102578
0.0375086868491
0.0403258134519
0.000353913511979
0.000448763747764
0.000369303449849
0.000469608578666
0.0405864634566
0.0411321194882
0.0408050311976
0.000403856118594
0.000333077205887
0.000412929067341
0.000341369018302
0.0401689408281
0.0409945893791
0.0405896590897
0.000528869619688
0.00123898260732
0.000561131475718
0.00127860193315
0.0251406957555
0.0251030314158
0.0249441078868
0.000190898715203
0.000115837349125
0.000205076049613
0.000165446483359
0.0246642517111
0.0251977916546
0.025543742372
6.68468271087e-05
4.47604402947e-05
0.000118653151855
8.90505284476e-05
0.0241003019598
0.0255846652982
0.0253749033237
2.3445691041e-05
6.54934097411e-06
6.88866645196e-05
4.25137533424e-05
0.02413698409
0.0250669248373
0.0249768074826
9.68311150493e-07
2.83398976434e-06
2.112007767e-05
3.90885244762e-05
0.0251291999739
0.0250901038885
0.0255254021956
1.43016788075e-05
3.72028783654e-05
8.43790297822e-05
0.000125463169503
0.027421025384
0.0263954043614
0.0279874462623
5.65175543773e-05
8.77509634141e-05
0.00013755449047
0.000146657193753
0.0340748763091
0.0308977140881
0.0347324079028
0.000160424137818
0.000283077377656
0.000203519017624
0.000312024857484
0.0406744222773
0.0383416802762
0.0411958192277
0.00038571488707
0.000493104958108
0.000409181582682
0.000514841044652
0.0415912398376
0.042292142822
0.0427449323824
0.000405725687781
0.000320427884654
0.000423477151946
0.000325975354256
0.0423645466908
0.0440150409291
0.0440075702407
0.000482507640465
0.00106167457942
0.000470317504516
0.00107539246099
0.0257901044016
0.025288985938
0.000128873177115
0.000104488901732
8.2443394161e-05
0.0261366158961
0.0257377803767
0.0256179340588
8.37582543095e-05
4.85893169294e-05
5.95308723527e-05
3.82181390993e-05
0.0253871454753
0.0251493983229
0.0251239411991
4.22457645008e-05
6.96634437569e-05
4.12178468091e-05
4.5110961405e-05
0.0258185195866
0.0255002369815
0.0263158448746
0.000109953586172
0.000131020911755
7.12166620019e-05
9.2404362248e-05
0.0288156151926
0.027605733732
0.02975157228
0.000132404006492
0.000139266946973
0.000109317691686
0.000148539050741
0.0353934276907
0.0329290013799
0.0362803317846
0.000213037993863
0.000334154296899
0.000251503123958
0.000384690200539
0.0416900000449
0.0395000722986
0.0421670936745
0.000425818710523
0.000535844654535
0.000467479444807
0.000563420367595
0.043889408631
0.0433460902137
0.0446233889041
0.000435170415826
0.000329404089272
0.000450635678396
0.000339686860865
0.0449958155576
0.0453479326397
0.0446071793296
0.000449044068597
0.00103948761993
0.000480737160131
0.00109007727308
0.0244959115227
0.0248294454425
2.85825462026e-05
2.06309519378e-05
4.74701583092e-05
5.86765560319e-05
0.0270708303665
0.0259253042209
0.0274374729699
1.36689368894e-05
4.84702681657e-05
5.80397280341e-05
7.10160885791e-05
0.0310416488717
0.0291936563341
0.031548125051
9.44054274085e-05
0.000175502613307
0.000119488039792
0.000203276448184
0.0371256777955
0.034234569611
0.0370116775941
0.000301745193272
0.000432770231396
0.000321080444883
0.00045798702965
0.0423999091101
0.039792937963
0.0420632888701
0.000470706538042
0.000526230796819
0.000481966913549
0.000514102583224
0.0442783420837
0.0430977832222
0.0436900577739
0.000477798668918
0.000419603696888
0.00047056420637
0.000445370220594
0.0434198896216
0.0435251603406
0.043017291615
0.000625434273928
0.00129432111314
0.000696350009281
0.00132241237681
0.0360208077315
0.000383844625293
0.0413699531675
0.000424823743065
0.000450337392098
0.000372023017806
0.000403080566467
0.043466909901
0.00045422513144
0.000451771080372
0.00041881061358
0.000386336601637
0.0427462439342
0.000726383656187
0.00147116082911
0.000589286053415
0.00142809085918
0.999967409987
0.999969173717
0.92734074471
0.929354268301
0.999969110083
0.929378789418
0.999967869091
0.999974361446
0.99993528762
0.930997453569
0.932728545389
0.999994668886
0.999925022497
0.931008774728
0.999987958445
0.999968897183
0.928765083573
0.929630744081
0.999982308589
0.930188819098
0.999967529148
0.999985347527
0.999930145217
0.929622962435
0.930970274054
0.999973780629
0.93055808447
0.999954633713
1.000003794
0.99996797172
0.931257098584
0.933475649676
1.00000184343
0.999979308312
0.931902785716
1.00000239868
0.999965136457
0.932544200449
0.9335631236
0.99999953819
0.999976125788
0.932243510278
0.999936534353
0.999912055805
0.931558848546
0.93142893738
0.99995432619
0.931862697595
0.999912084924
0.999934599975
0.999920828802
0.932103631768
0.932649840655
0.999935773199
0.932294703096
0.999914378697
0.999972905317
0.99996052173
0.932799129058
0.933818360578
0.999988097355
0.999962179827
0.933017139952
0.999964137329
0.999957469432
0.933406180051
0.934010894635
0.999959758585
0.999961946004
0.933217588999
0.99994558184
0.999933185882
0.933855290841
0.933073832201
0.999940152834
0.933562301311
0.999940531853
0.999946428885
0.999925631121
0.934360271077
0.934863848928
0.999938595049
0.934193321775
0.999939522684
0.999949079804
0.999950953332
0.933720752627
0.935315017445
0.999952698288
0.999943038948
0.934111336064
0.999945561434
0.999927352634
0.935498267676
0.935865615811
0.999938401234
0.999932396574
0.934697448469
0.999840093169
0.999897863621
0.936496157393
0.93563104509
0.999901020429
0.936595966495
0.999874994585
0.999791374284
0.999885389926
0.937290846915
0.93877848471
0.999779777183
0.937687851903
0.999871671693
0.999885414788
0.999920220776
0.936385641444
0.938064826976
0.999916042119
0.999915983931
0.937320432069
0.999872299626
0.999922796055
0.939033368215
0.938982651846
0.999876169742
0.999914936757
0.938186647489
0.999776350138
0.99991845886
0.937466936272
0.939141429331
0.999790708872
0.938288556927
0.999939358797
0.999740256656
0.999834629344
0.934369335864
0.928955649293
0.99967140055
0.934750462074
0.999918696216
0.999890259261
0.999928816477
0.939317415537
0.938352363745
0.999894407169
0.99993041231
0.938428851774
0.999870669494
0.999834496021
0.928747418487
0.934332372973
0.999804949417
0.999903021345
0.934752996435
0.999428638173
0.999710362082
0.908248178546
0.919472695711
0.999554995767
0.908514288219
0.999508986911
0.999287169366
0.999117420562
0.896617231185
0.888762712086
0.99915150063
0.897852877921
0.999287043273
0.999540012015
0.999736371085
0.919506953658
0.909162066145
0.999680322456
0.999578126162
0.908934882279
0.999394977412
0.999276993309
0.889972531948
0.898840700833
0.999248875228
0.99942556545
0.898762474697
0.999054741641
0.9990311745
0.880060405634
0.883959527241
0.999033424006
0.880557477136
0.999035907685
0.999100290895
0.999179947053
0.881591578145
0.88363411221
0.999167283933
0.881843869596
0.999092059529
0.999109574062
0.999156084299
0.88494930578
0.883338361523
0.99912324217
0.999138662716
0.88146097387
0.999148920406
0.999234297294
0.884310367793
0.884172795304
0.999225315998
0.999177106485
0.882492852925
0.999261201952
0.999285200832
0.887920429537
0.886794854203
0.999275798058
0.888990435945
0.999274495208
0.999168598832
0.999285799668
0.877389018485
0.885735849037
0.878271135015
0.999264430267
0.999191191168
0.999307387593
0.999322735994
0.887688922908
0.890262179567
0.999329023692
0.999307371837
0.889462907092
0.999201559198
0.999304746274
0.88573442929
0.878879133682
0.999210522061
0.878346636007
0.999280086149
0.9999037127
0.999935121942
0.943013659222
0.943831268085
0.99992569281
0.942679097069
0.999923691664
0.999912263753
0.999938179412
0.940640716447
0.940499273535
0.999934953515
0.999930424885
0.941732865241
0.99987825626
0.999921354066
0.943935016925
0.944212835316
0.999907607863
0.942666644122
0.99988948577
0.999887666216
0.999929782842
0.941834992824
0.944078385141
0.999896896106
0.999914218512
0.942112311166
0.999901840174
0.999926356643
0.934747385109
0.938068877994
0.999899994783
0.999908627143
0.936668832815
0.999904303163
0.999913355626
0.934942963269
0.937791478345
0.999884198351
0.999920933418
0.937143475365
0.999888456453
0.999933947363
0.940313547458
0.941376377086
0.999883314107
0.999931849923
0.938683756176
0.999913578624
0.999945447924
0.938948220715
0.940977409388
0.999937496841
0.999939461098
0.93878218775
0.999962046842
0.999949003728
0.935590259234
0.938107645862
0.999989272633
0.999962566424
0.938150866337
0.99997320745
0.999980955386
0.935469150211
0.937087281245
0.999989751502
0.999974405796
0.937540277721
0.99995833615
0.999939586899
0.93917046744
0.940178320668
0.999949267858
0.999934925798
0.939440252859
0.99994865377
0.999928480865
0.939140136556
0.940160571592
0.999960978528
0.999938794693
0.939451106099
0.999973978819
0.999978759352
0.935307383513
0.936946584597
0.999980008687
0.999974657637
0.936977814896
0.999972519484
0.999978660816
0.935434007783
0.937215281959
0.99998134659
0.999970774542
0.937069913672
0.999961876841
0.999927579374
0.938755296117
0.940085667346
0.99996557786
0.999934456723
0.938671298467
0.999966498228
0.999941400717
0.938750179248
0.939928974646
0.999971277674
0.999938076357
0.938681232382
0.999963292679
0.999971109438
0.936400912713
0.937361854561
0.999958556124
0.999970712608
0.93749479695
0.999957139453
0.999927549347
0.936834956109
0.937997829582
0.999942042674
0.999948731958
0.937785382503
0.999964985448
0.99994114082
0.938805024102
0.938675724399
0.999971114784
0.999939826437
0.938898907884
0.99995572089
0.999913326544
0.937721234058
0.93762514409
0.999933075992
0.999928850825
0.938430536266
0.999926029177
0.99991225472
0.938622957999
0.93825754915
0.999905926828
0.999935213185
0.938246113683
0.999920297817
0.999903220023
0.939113973501
0.938387502127
0.999899976395
0.999913238314
0.938520196661
0.999890196853
0.999913162506
0.93718331717
0.935747758552
0.999897132519
0.999918057522
0.937019204202
0.99988611755
0.999922942393
0.937072060506
0.9358908941
0.999888977786
0.999920855341
0.937179242145
0.999891267917
0.999906710493
0.937325772661
0.937755967489
0.999894908823
0.999904255682
0.936006942593
0.999866326783
0.999786971449
0.93310382282
0.925416245559
0.99985535532
0.999804425703
0.931629665305
0.999872559463
0.999917295921
0.936444484889
0.933674775947
0.999886005632
0.999902081258
0.93474119489
0.999839489532
0.999791179293
0.92425166472
0.9295640263
0.999778015783
0.999862892724
0.930403540898
0.999572701067
0.999688534525
0.908528708845
0.916718151768
0.999542677267
0.999696966416
0.907601883591
0.999436180586
0.999272532125
0.898891902171
0.891069507178
0.999398158717
0.999304856454
0.898603426828