/*--------------------------------*- C++ -*----------------------------------*\
| =========                 |                                                 |
| \\      /  F ield         | OpenFOAM: The Open Source CFD Toolbox           |
|  \\    /   O peration     | Version:  v1906                                 |
|   \\  /    A nd           | Web:      www.OpenFOAM.com                      |
|    \\/     M anipulation  |                                                 |
\*---------------------------------------------------------------------------*/
FoamFile
{
    version     2.0;
    format      ascii;
    class       volVectorField;
    location    "4";
    object      force.turbine;
}
// * * * * * * * * * * * * * * * * * * * * * * * * * * * * * * * * * * * * * //

dimensions      [1 -2 -2 0 0 0 0];


internalField   nonuniform List<vector> 
28582
(
(0 0 0)
(0 0 0)
(0 0 0)
(0 0 0)
(0 0 0)
(0 0 0)
(0 0 0)
(0 0 0)
(0 0 0)
(0 0 0)
(0 0 0)
(0 0 0)
(0 0 0)
(0 0 0)
(0 0 0)
(0 0 0)
(0 0 0)
(0 0 0)
(0 0 0)
(0 0 0)
(0 0 0)
(0 0 0)
(0 0 0)
(0 0 0)
(0 0 0)
(0 0 0)
(0 0 0)
(0 0 0)
(0 0 0)
(0 0 0)
(0 0 0)
(0 0 0)
(0 0 0)
(0 0 0)
(0 0 0)
(0 0 0)
(0 0 0)
(0 0 0)
(0 0 0)
(0 0 0)
(0 0 0)
(0 0 0)
(0 0 0)
(0 0 0)
(0 0 0)
(0 0 0)
(0 0 0)
(0 0 0)
(0 0 0)
(0 0 0)
(0 0 0)
(0 0 0)
(0 0 0)
(0 0 0)
(0 0 0)
(0 0 0)
(0 0 0)
(0 0 0)
(0 0 0)
(0 0 0)
(0 0 0)
(0 0 0)
(0 0 0)
(0 0 0)
(0 0 0)
(0 0 0)
(0 0 0)
(0 0 0)
(0 0 0)
(0 0 0)
(0 0 0)
(0 0 0)
(0 0 0)
(0 0 0)
(0 0 0)
(0 0 0)
(0 0 0)
(0 0 0)
(0 0 0)
(0 0 0)
(0 0 0)
(0 0 0)
(0 0 0)
(0 0 0)
(0 0 0)
(0 0 0)
(0 0 0)
(0 0 0)
(0 0 0)
(0 0 0)
(0 0 0)
(0 0 0)
(0 0 0)
(0 0 0)
(0 0 0)
(0 0 0)
(0 0 0)
(0 0 0)
(0 0 0)
(0 0 0)
(0 0 0)
(0 0 0)
(0 0 0)
(0 0 0)
(0 0 0)
(0 0 0)
(0 0 0)
(0 0 0)
(0 0 0)
(0 0 0)
(0 0 0)
(0 0 0)
(0 0 0)
(0 0 0)
(0 0 0)
(0 0 0)
(0 0 0)
(0 0 0)
(0 0 0)
(0 0 0)
(0 0 0)
(0 0 0)
(0 0 0)
(0 0 0)
(0 0 0)
(0 0 0)
(0 0 0)
(0 0 0)
(0 0 0)
(0 0 0)
(0 0 0)
(0 0 0)
(0 0 0)
(0 0 0)
(0 0 0)
(0 0 0)
(0 0 0)
(0 0 0)
(0 0 0)
(0 0 0)
(0 0 0)
(0 0 0)
(0 0 0)
(0 0 0)
(0 0 0)
(0 0 0)
(0 0 0)
(0 0 0)
(0 0 0)
(0 0 0)
(0 0 0)
(0 0 0)
(0 0 0)
(0 0 0)
(0 0 0)
(0 0 0)
(0 0 0)
(0 0 0)
(0 0 0)
(0 0 0)
(0 0 0)
(0 0 0)
(0 0 0)
(0 0 0)
(0 0 0)
(0 0 0)
(0 0 0)
(0 0 0)
(0 0 0)
(0 0 0)
(0 0 0)
(0 0 0)
(0 0 0)
(0 0 0)
(0 0 0)
(0 0 0)
(0 0 0)
(0 0 0)
(0 0 0)
(0 0 0)
(0 0 0)
(0 0 0)
(0 0 0)
(0 0 0)
(0 0 0)
(0 0 0)
(0 0 0)
(0 0 0)
(0 0 0)
(0 0 0)
(0 0 0)
(0 0 0)
(0 0 0)
(0 0 0)
(0 0 0)
(0 0 0)
(0 0 0)
(0 0 0)
(0 0 0)
(0 0 0)
(0 0 0)
(0 0 0)
(0 0 0)
(0 0 0)
(0 0 0)
(0 0 0)
(0 0 0)
(0 0 0)
(0 0 0)
(0 0 0)
(0 0 0)
(0 0 0)
(0 0 0)
(0 0 0)
(0 0 0)
(0 0 0)
(0 0 0)
(-0.00179035302235 2.31440455643e-05 0)
(0 0 0)
(0 0 0)
(0 0 0)
(0 0 0)
(-2.53619773908e-05 3.8920339605e-08 0)
(0 0 0)
(-2.56119332772e-06 -4.7346419617e-09 0)
(0 0 0)
(0 0 0)
(0 0 0)
(0 0 0)
(0 0 0)
(0 0 0)
(0 0 0)
(0 0 0)
(0 0 0)
(0 0 0)
(0 0 0)
(0 0 0)
(-0.016013032412 0.000436970884393 0)
(0 0 0)
(0 0 0)
(0 0 0)
(-0.0297815379043 0.000524034357728 0)
(0 0 0)
(0 0 0)
(-0.0802371779862 -0.00818061026212 0.00618056977257)
(-0.821395809432 -0.126755956551 0.0899816679352)
(-0.12941688379 -0.00695739638756 0.00579184757167)
(-2.42461291831 -0.293589256065 0.212392131435)
(-0.00603786143713 2.94502127758e-05 0)
(-0.0802306628607 0.0014117344785 0)
(0 0 0)
(0 0 0)
(0 0 0)
(0 0 0)
(0 0 0)
(-0.0160128662297 0.000436966349535 0)
(0 0 0)
(0 0 0)
(0 0 0)
(-0.0295279978135 0.000519573079769 0)
(0 0 0)
(0 0 0)
(0 0 0)
(0 0 0)
(0 0 0)
(0 0 0)
(0 0 0)
(0 0 0)
(-1.65008721885e-05 4.87508559471e-08 0)
(0 0 0)
(-1.0298129825e-05 3.04252186118e-08 0)
(-0.000154697923699 1.26830953192e-06 0)
(-0.000700869107633 5.74615966772e-06 0)
(-9.46953926678e-05 7.76371565161e-07 0)
(-0.000418662576301 3.43245548152e-06 0)
(0 0 0)
(0 0 0)
(-0.000179807914794 7.25172345828e-07 0)
(0 0 0)
(0 0 0)
(0 0 0)
(0 0 0)
(0 0 0)
(0 0 0)
(-0.00822791099353 0.000106362904162 0)
(-0.000373965414011 3.64888145376e-06 0)
(-0.0018209188166 2.35391721823e-05 0)
(-3.33245725451e-05 2.21702166374e-07 0)
(-0.000151546621413 1.24247320114e-06 0)
(-4.28759140747e-06 -7.926074917e-09 0)
(-3.28468204092e-05 2.18523770511e-07 0)
(0 0 0)
(0 0 0)
(0 0 0)
(0 0 0)
(0 0 0)
(-0.00019195809753 7.74174507537e-07 0)
(0 0 0)
(0 0 0)
(0 0 0)
(0 0 0)
(0 0 0)
(0 0 0)
(0 0 0)
(0 0 0)
(0 0 0)
(0 0 0)
(0 0 0)
(0 0 0)
(0 0 0)
(0 0 0)
(0 0 0)
(0 0 0)
(0 0 0)
(0 0 0)
(0 0 0)
(0 0 0)
(-0.00517531937126 2.81721107726e-05 0)
(0 0 0)
(0 0 0)
(0 0 0)
(0 0 0)
(0 0 0)
(-0.00476158941315 2.32250810703e-05 0)
(0 0 0)
(0 0 0)
(0 0 0)
(0 0 0)
(0 0 0)
(0 0 0)
(0 0 0)
(0 0 0)
(0 0 0)
(0 0 0)
(0 0 0)
(0 0 0)
(0 0 0)
(0 0 0)
(0 0 0)
(0 0 0)
(0 0 0)
(0 0 0)
(0 0 0)
(0 0 0)
(0 0 0)
(0 0 0)
(-0.0576194286922 -0.00279458416143 0.00246150792566)
(-0.00882819761506 0.000110417156948 0)
(-0.014506877218 0.000181442261313 0)
(-0.0102500163718 0.000148591670383 0)
(-0.0193156561211 0.000410045047767 0)
(0 0 0)
(0 0 0)
(0 0 0)
(0 0 0)
(0 0 0)
(0 0 0)
(0 0 0)
(0 0 0)
(0 0 0)
(0 0 0)
(-0.00535009595715 2.60955747245e-05 0)
(0 0 0)
(-0.00798256889558 0.000115721107471 0)
(0 0 0)
(0 0 0)
(-0.725465424007 -0.107494867255 0.0762122652347)
(-0.582505331101 -0.0877679967357 0.062154661637)
(-0.539838384352 -0.0592563333856 0.0433586423141)
(-0.0432031495711 0.000760200323103 0)
(-2.52659070847 -0.428120711499 0.29951401445)
(-0.154468437814 -0.0169688925267 0.0125012900633)
(-0.167300000906 -0.00919405452209 0.00761091684374)
(-1.95544966295 -0.308601856933 0.217361932325)
(-11.2746826474 -1.9410707386 1.35592265956)
(-1.40509050259 -0.176325574843 0.126947949747)
(-0.846917243623 -0.0710297484391 0.054159126237)
(-6.76148407964 -1.17629198435 0.820697869488)
(-0.467543254265 -0.0401108943399 0.0304327090468)
(-3.30013316665 -0.511242721315 0.360942279802)
(-0.124518235627 -0.00956373889336 0.00750896950926)
(-0.00904567699344 0.000131132693397 0)
(-0.0204197875373 0.000359305495958 0)
(-0.020391948915 0.000358815649039 0)
(-0.024800630795 0.00052648358281 0)
(-0.0248015009546 0.000526502055112 0)
(-0.0487180986963 0.000857241074726 0)
(-0.375750793839 -0.0414400716912 0.0305478692315)
(-0.106611905269 0.00134317306707 0.000551177389142)
(-0.247532442499 -0.00538044400383 0.00610668412531)
(-0.0430642292805 0.000757755889054 0)
(-0.0525049029041 0.00111460751239 0)
(-0.123410434488 -0.00153132508347 0.00231254814975)
(-0.676849364118 -0.0738917130609 0.0546317076645)
(0 0 0)
(0 0 0)
(0 0 0)
(0 0 0)
(0 0 0)
(0 0 0)
(0 0 0)
(0 0 0)
(0 0 0)
(0 0 0)
(0 0 0)
(0 0 0)
(0 0 0)
(0 0 0)
(0 0 0)
(0 0 0)
(0 0 0)
(0 0 0)
(0 0 0)
(0 0 0)
(0 0 0)
(0 0 0)
(0 0 0)
(-0.00532500868234 2.59732092829e-05 0)
(0 0 0)
(-0.00798248470165 0.000115719886935 0)
(0 0 0)
(0 0 0)
(0 0 0)
(-0.0360865575491 0.000766068422484 0)
(-0.0144117036753 0.000180251894666 0)
(-0.00873589166156 0.000109262656176 0)
(-0.0193150345794 0.000410031853283 0)
(0 0 0)
(-0.0102497730578 0.000148588143126 0)
(0 0 0)
(0 0 0)
(0 0 0)
(0 0 0)
(0 0 0)
(0 0 0)
(0 0 0)
(0 0 0)
(0 0 0)
(0 0 0)
(0 0 0)
(0 0 0)
(0 0 0)
(0 0 0)
(0 0 0)
(0 0 0)
(0 0 0)
(0 0 0)
(0 0 0)
(0 0 0)
(0 0 0)
(0 0 0)
(0 0 0)
(0 0 0)
(0 0 0)
(0 0 0)
(0 0 0)
(0 0 0)
(0 0 0)
(0 0 0)
(0 0 0)
(0 0 0)
(0 0 0)
(0 0 0)
(0 0 0)
(0 0 0)
(-0.0150470735541 0.000290428772206 0)
(0 0 0)
(0 0 0)
(0 0 0)
(0 0 0)
(0 0 0)
(0 0 0)
(0 0 0)
(-0.00335741184354 6.48025674897e-05 0)
(0 0 0)
(0 0 0)
(0 0 0)
(0 0 0)
(0 0 0)
(0 0 0)
(0 0 0)
(0 0 0)
(0 0 0)
(0 0 0)
(0 0 0)
(0 0 0)
(0 0 0)
(0 0 0)
(0 0 0)
(0 0 0)
(0 0 0)
(0 0 0)
(0 0 0)
(0 0 0)
(0 0 0)
(0 0 0)
(0 0 0)
(0 0 0)
(0 0 0)
(0 0 0)
(0 0 0)
(-0.32165165622 0.00866370563931 0)
(-0.00772429064524 0.000149089205964 0)
(0 0 0)
(0 0 0)
(0 0 0)
(0 0 0)
(0 0 0)
(0 0 0)
(-0.0706315279895 0.00191974759268 0)
(0 0 0)
(0 0 0)
(0 0 0)
(0 0 0)
(0 0 0)
(0 0 0)
(0 0 0)
(0 0 0)
(0 0 0)
(0 0 0)
(0 0 0)
(0 0 0)
(0 0 0)
(0 0 0)
(0 0 0)
(0 0 0)
(0 0 0)
(0 0 0)
(0 0 0)
(0 0 0)
(0 0 0)
(0 0 0)
(0 0 0)
(0 0 0)
(0 0 0)
(0 0 0)
(0 0 0)
(-1.51027202944 0.0521869458638 0)
(-0.0430476948103 0.00153417646058 0)
(0 0 0)
(0 0 0)
(0 0 0)
(0 0 0)
(0 0 0)
(0 0 0)
(-0.331289029832 0.0113176545799 0)
(-0.00655128645452 0.000253154545304 0)
(0 0 0)
(0 0 0)
(0 0 0)
(0 0 0)
(0 0 0)
(0 0 0)
(0 0 0)
(0 0 0)
(0 0 0)
(0 0 0)
(0 0 0)
(0 0 0)
(0 0 0)
(0 0 0)
(0 0 0)
(0 0 0)
(0 0 0)
(0 0 0)
(0 0 0)
(0 0 0)
(0 0 0)
(0 0 0)
(0 0 0)
(0 0 0)
(0 0 0)
(0 0 0)
(0 0 0)
(0 0 0)
(0 0 0)
(0 0 0)
(0 0 0)
(0 0 0)
(0 0 0)
(-2.55986989095 0.0683907421616 0)
(-0.0772850028116 0.00206478412006 0)
(0 0 0)
(0 0 0)
(0 0 0)
(0 0 0)
(0 0 0)
(0 0 0)
(-2.5598419017 0.0683899943871 0)
(-0.571176794175 0.0152598399619 0)
(-0.0160128522707 0.000436965968614 0)
(0 0 0)
(0 0 0)
(0 0 0)
(0 0 0)
(0 0 0)
(0 0 0)
(-0.0468848869249 0.00125259968262 0)
(-0.0773000764548 0.00206518683492 0)
(-0.0160128281588 0.000436965310638 0)
(0 0 0)
(0 0 0)
(0 0 0)
(0 0 0)
(0 0 0)
(0 0 0)
(0 0 0)
(0 0 0)
(0 0 0)
(0 0 0)
(0 0 0)
(0 0 0)
(0 0 0)
(0 0 0)
(0 0 0)
(0 0 0)
(0 0 0)
(0 0 0)
(0 0 0)
(0 0 0)
(0 0 0)
(0 0 0)
(0 0 0)
(0 0 0)
(0 0 0)
(0 0 0)
(-0.0360969349595 0.000467948110925 0)
(-0.00108474175502 1.4022548788e-05 0)
(0 0 0)
(0 0 0)
(0 0 0)
(0 0 0)
(0 0 0)
(0 0 0)
(-0.0224421738851 0.000290932537246 0)
(-0.0348475231941 0.000451751171323 0)
(-0.00741715427636 9.58821832267e-05 0)
(-0.00018155722419 7.3222737897e-07 0)
(0 0 0)
(0 0 0)
(0 0 0)
(0 0 0)
(0 0 0)
(0 0 0)
(-0.000617199341759 6.02218052002e-06 0)
(-0.00104327173739 1.34864623482e-05 0)
(-0.000181863411615 7.3346224482e-07 0)
(0 0 0)
(0 0 0)
(0 0 0)
(0 0 0)
(0 0 0)
(0 0 0)
(0 0 0)
(0 0 0)
(0 0 0)
(0 0 0)
(0 0 0)
(0 0 0)
(0 0 0)
(0 0 0)
(0 0 0)
(0 0 0)
(0 0 0)
(0 0 0)
(0 0 0)
(0 0 0)
(0 0 0)
(0 0 0)
(0 0 0)
(0 0 0)
(0 0 0)
(0 0 0)
(-0.000193191580467 6.33046171212e-07 0)
(-0.000191954628369 6.28992952186e-07 0)
(-2.47840179628e-05 3.80334065055e-08 0)
(0 0 0)
(0 0 0)
(0 0 0)
(0 0 0)
(0 0 0)
(0 0 0)
(0 0 0)
(-2.48843131914e-05 3.81873189665e-08 0)
(-2.47904734499e-05 3.80433130575e-08 0)
(-2.51997839086e-06 -4.65845170797e-09 0)
(0 0 0)
(0 0 0)
(0 0 0)
(0 0 0)
(0 0 0)
(0 0 0)
(0 0 0)
(0 0 0)
(0 0 0)
(0 0 0)
(0 0 0)
(0 0 0)
(0 0 0)
(0 0 0)
(0 0 0)
(0 0 0)
(0 0 0)
(0 0 0)
(0 0 0)
(0 0 0)
(0 0 0)
(0 0 0)
(0 0 0)
(0 0 0)
(0 0 0)
(0 0 0)
(0 0 0)
(0 0 0)
(0 0 0)
(0 0 0)
(0 0 0)
(0 0 0)
(0 0 0)
(0 0 0)
(0 0 0)
(0 0 0)
(-0.00335739486979 6.48022398734e-05 0)
(-0.00912637432313 0.000176151308082 0)
(-0.00203636808661 3.93046449217e-05 0)
(-0.0866954245412 0.00201781411844 0)
(-0.0177745932876 0.000343073574169 0)
(-0.0525834995514 0.00122386767645 0)
(-0.0107808279153 0.000208084489223 0)
(0 0 0)
(0 0 0)
(0 0 0)
(-0.00240541505244 4.64277480811e-05 0)
(0 0 0)
(0 0 0)
(0 0 0)
(0 0 0)
(0 0 0)
(0 0 0)
(-0.0177756297746 0.000343093579763 0)
(-0.00396627763715 7.65544968094e-05 0)
(-0.00396633375527 7.65555799647e-05 0)
(0 0 0)
(0 0 0)
(0 0 0)
(0 0 0)
(0 0 0)
(0 0 0)
(0 0 0)
(0 0 0)
(-0.0706291417447 0.00191968273513 0)
(-0.195092470387 0.00525482677672 0)
(-0.0428378710064 0.00116432281845 0)
(-0.800838933042 0.024945367342 0)
(-0.176589188691 0.0055694171197 0)
(-0.485725608747 0.0151298884678 0)
(-0.107082865693 0.00337726873225 0)
(0 0 0)
(-0.00468398477071 9.04072104853e-05 0)
(0 0 0)
(-0.0227525117923 0.000740103268881 0)
(0 0 0)
(-0.0121754936301 0.000384639305123 0)
(0 0 0)
(-0.0149252422912 0.000395342976005 0)
(-0.0149257893403 0.000395357466358 0)
(-0.00284197895685 5.48540190295e-05 0)
(-0.176603960049 0.00556988299112 0)
(-0.037527419411 0.00122070767536 0)
(-0.0375283199951 0.00122073696994 0)
(-0.00738832901655 0.000233406695884 0)
(0 0 0)
(0 0 0)
(0 0 0)
(-0.00335674006118 6.47896011859e-05 0)
(0 0 0)
(0 0 0)
(0 0 0)
(-0.331222747292 0.011315390204 0)
(-0.900531202251 0.0307643784362 0)
(-0.200917364248 0.00686383527045 0)
(-2.21887212469 0.0731252428346 0)
(-0.48927477263 0.0159855589027 0)
(-1.33033238199 0.0434645476164 0)
(-0.296802554453 0.00969711700273 0)
(0 0 0)
(-0.0261105373629 0.000930553238028 0)
(0 0 0)
(-0.0662009870702 0.00216291506823 0)
(0 0 0)
(-0.0401623366795 0.0013121816913 0)
(0 0 0)
(-0.0739183718887 0.00252523483971 0)
(-0.0739201342165 0.0025252950452 0)
(-0.0139668653249 0.000542598904363 0)
(-0.489402970423 0.0159897473741 0)
(-0.10919736555 0.00356769041993 0)
(-0.109200056066 0.00356777832431 0)
(-0.0243657646316 0.00079607694391 0)
(0 0 0)
(0 0 0)
(0 0 0)
(-0.0132828906711 0.000485575586373 0)
(0 0 0)
(0 0 0)
(0 0 0)
(-7.14749309329 0.196738068132 0)
(-4.24614515874 0.114224608732 0)
(-4.38047700638 0.0771964585719 0)
(-2.08114311083 0.0366756583138 0)
(-0.5711430461 0.0152589383317 0)
(-1.55263309709 0.0414809089282 0)
(-0.346429950295 0.00925539281955 0)
(-2.65783186455 0.0468385536836 0)
(-0.280815296808 0.00494876388914 0)
(-1.26247167675 0.0222483401581 0)
(-0.133110034432 0.00234577723922 0)
(0 0 0)
(-0.0468823462632 0.00125253180506 0)
(0 0 0)
(-0.101737316981 0.00179016442107 0)
(0 0 0)
(-0.04819775301 0.000848085099692 0)
(0 0 0)
(0 0 0)
(0 0 0)
(0 0 0)
(0 0 0)
(0 0 0)
(0 0 0)
(0 0 0)
(0 0 0)
(0 0 0)
(0 0 0)
(0 0 0)
(0 0 0)
(0 0 0)
(0 0 0)
(0 0 0)
(0 0 0)
(0 0 0)
(0 0 0)
(0 0 0)
(0 0 0)
(0 0 0)
(0 0 0)
(0 0 0)
(0 0 0)
(0 0 0)
(0 0 0)
(0 0 0)
(0 0 0)
(0 0 0)
(0 0 0)
(0 0 0)
(0 0 0)
(0 0 0)
(0 0 0)
(0 0 0)
(0 0 0)
(0 0 0)
(0 0 0)
(0 0 0)
(0 0 0)
(0 0 0)
(0 0 0)
(-1.04038613143 -0.12090507259 0.0899815282213)
(-0.622981353542 0.00631964030191 0.00618055156444)
(-2.92758184114 -0.284817213373 0.212450041801)
(-2.73460907411 0.0390578751404 0.0057277535224)
(-0.134438683179 0.00236919180751 0)
(-0.284563064619 0.00501481021289 0)
(-1.55262240722 0.0414806233325 0)
(-0.571180873536 0.0152599489481 0)
(-0.34643743955 0.00925559290616 0)
(-2.68217051494 0.0472674698984 0)
(-1.26560573553 0.0223035711838 0)
(-0.284251649141 0.00500932218681 0)
(-0.134068656412 0.00236267088388 0)
(-0.127446569093 0.00340492517883 0)
(-0.127446691674 0.00340492845376 0)
(-0.0284371398835 0.000759740605748 0)
(-0.767664259484 0.0135284267257 0)
(-0.0796046153306 0.00140071857945 0)
(-0.0800274529925 0.00140815880847 0)
(-0.00597950445245 2.91655713289e-05 0)
(0 0 0)
(0 0 0)
(0 0 0)
(-0.0292812097829 0.000515230610703 0)
(0 0 0)
(0 0 0)
(0 0 0)
(0 0 0)
(0 0 0)
(0 0 0)
(0 0 0)
(0 0 0)
(0 0 0)
(0 0 0)
(0 0 0)
(0 0 0)
(0 0 0)
(0 0 0)
(0 0 0)
(0 0 0)
(0 0 0)
(0 0 0)
(0 0 0)
(0 0 0)
(0 0 0)
(0 0 0)
(0 0 0)
(0 0 0)
(0 0 0)
(0 0 0)
(0 0 0)
(0 0 0)
(0 0 0)
(0 0 0)
(0 0 0)
(0 0 0)
(0 0 0)
(0 0 0)
(0 0 0)
(0 0 0)
(0 0 0)
(0 0 0)
(0 0 0)
(0 0 0)
(0 0 0)
(0 0 0)
(0 0 0)
(0 0 0)
(0 0 0)
(-0.077300056493 0.00206518630161 0)
(0 0 0)
(0 0 0)
(-0.0486902551087 0.000856751140439 0)
(-0.103193919938 0.00181579472927 0)
(0 0 0)
(0 0 0)
(-0.0468848350117 0.00125259829568 0)
(0 0 0)
(0 0 0)
(-0.103090622241 0.00181397710849 0)
(-0.0485714011632 0.000854659792731 0)
(0 0 0)
(0 0 0)
(0 0 0)
(0 0 0)
(0 0 0)
(-0.0294442201151 0.000518098931842 0)
(0 0 0)
(0 0 0)
(0 0 0)
(0 0 0)
(0 0 0)
(0 0 0)
(0 0 0)
(0 0 0)
(0 0 0)
(0 0 0)
(0 0 0)
(0 0 0)
(0 0 0)
(0 0 0)
(0 0 0)
(0 0 0)
(0 0 0)
(0 0 0)
(0 0 0)
(0 0 0)
(0 0 0)
(0 0 0)
(0 0 0)
(0 0 0)
(0 0 0)
(0 0 0)
(0 0 0)
(0 0 0)
(0 0 0)
(0 0 0)
(0 0 0)
(0 0 0)
(0 0 0)
(0 0 0)
(0 0 0)
(0 0 0)
(0 0 0)
(0 0 0)
(0 0 0)
(0 0 0)
(0 0 0)
(0 0 0)
(0 0 0)
(0 0 0)
(0 0 0)
(0 0 0)
(0 0 0)
(0 0 0)
(0 0 0)
(0 0 0)
(0 0 0)
(0 0 0)
(0 0 0)
(0 0 0)
(0 0 0)
(0 0 0)
(0 0 0)
(0 0 0)
(0 0 0)
(0 0 0)
(0 0 0)
(0 0 0)
(0 0 0)
(0 0 0)
(0 0 0)
(0 0 0)
(0 0 0)
(0 0 0)
(0 0 0)
(0 0 0)
(0 0 0)
(0 0 0)
(0 0 0)
(0 0 0)
(0 0 0)
(0 0 0)
(0 0 0)
(0 0 0)
(0 0 0)
(0 0 0)
(0 0 0)
(0 0 0)
(0 0 0)
(0 0 0)
(0 0 0)
(0 0 0)
(0 0 0)
(0 0 0)
(0 0 0)
(0 0 0)
(0 0 0)
(0 0 0)
(0 0 0)
(0 0 0)
(0 0 0)
(0 0 0)
(0 0 0)
(0 0 0)
(0 0 0)
(0 0 0)
(0 0 0)
(0 0 0)
(0 0 0)
(0 0 0)
(0 0 0)
(0 0 0)
(0 0 0)
(0 0 0)
(0 0 0)
(0 0 0)
(0 0 0)
(0 0 0)
(0 0 0)
(0 0 0)
(0 0 0)
(0 0 0)
(0 0 0)
(0 0 0)
(0 0 0)
(0 0 0)
(0 0 0)
(0 0 0)
(0 0 0)
(0 0 0)
(0 0 0)
(0 0 0)
(0 0 0)
(0 0 0)
(0 0 0)
(0 0 0)
(0 0 0)
(0 0 0)
(0 0 0)
(0 0 0)
(0 0 0)
(0 0 0)
(0 0 0)
(0 0 0)
(0 0 0)
(0 0 0)
(0 0 0)
(0 0 0)
(0 0 0)
(0 0 0)
(0 0 0)
(0 0 0)
(0 0 0)
(0 0 0)
(0 0 0)
(0 0 0)
(0 0 0)
(0 0 0)
(0 0 0)
(0 0 0)
(0 0 0)
(0 0 0)
(0 0 0)
(0 0 0)
(0 0 0)
(0 0 0)
(0 0 0)
(0 0 0)
(0 0 0)
(0 0 0)
(0 0 0)
(0 0 0)
(0 0 0)
(0 0 0)
(0 0 0)
(0 0 0)
(0 0 0)
(0 0 0)
(0 0 0)
(-0.00177989277761 1.46197384294e-05 0)
(-0.0025968764174 2.13303039561e-05 0)
(-0.0010500581272 8.60902783923e-06 0)
(-0.00154951497257 1.27274540784e-05 0)
(-0.0963582762086 0.00124915518103 0)
(-0.0567779366498 0.000736049424343 0)
(-0.00245965735705 2.02032097879e-05 0)
(-0.00148877748086 1.22285665876e-05 0)
(-0.00149061559658 1.22436645593e-05 0)
(-0.000901756930675 7.39316264435e-06 0)
(-0.00805708819643 0.000104154663357 0)
(-0.0212043498808 0.000274885817348 0)
(-0.00473467822569 6.12055875125e-05 0)
(-0.000546976788737 4.48445498366e-06 0)
(-0.000122073820813 1.00083690093e-06 0)
(-0.000331771412881 2.72006782841e-06 0)
(-7.40893499084e-05 6.07430445449e-07 0)
(0 0 0)
(-0.000606837154428 5.92107386215e-06 0)
(0 0 0)
(-1.44774751229e-05 4.27728483761e-08 0)
(0 0 0)
(-8.79515032111e-06 2.5984754105e-08 0)
(0 0 0)
(0 0 0)
(0 0 0)
(0 0 0)
(0 0 0)
(0 0 0)
(0 0 0)
(0 0 0)
(0 0 0)
(0 0 0)
(0 0 0)
(0 0 0)
(0 0 0)
(0 0 0)
(0 0 0)
(0 0 0)
(0 0 0)
(0 0 0)
(0 0 0)
(0 0 0)
(0 0 0)
(0 0 0)
(0 0 0)
(0 0 0)
(0 0 0)
(0 0 0)
(0 0 0)
(0 0 0)
(0 0 0)
(0 0 0)
(0 0 0)
(0 0 0)
(0 0 0)
(0 0 0)
(0 0 0)
(0 0 0)
(0 0 0)
(0 0 0)
(0 0 0)
(0 0 0)
(0 0 0)
(0 0 0)
(0 0 0)
(-0.0357084960523 0.000462912524024 0)
(-0.00490719158732 6.34356823888e-05 0)
(-0.00789626455842 0.000102075682531 0)
(-0.000382052682144 3.13230486145e-06 0)
(-0.00058082536977 4.761966646e-06 0)
(-8.6161730422e-05 7.06407308953e-07 0)
(-0.000132312580491 1.0847806035e-06 0)
(-0.020369483075 0.000264062894431 0)
(-0.007722096787 9.98242009588e-05 0)
(-0.00455427577119 5.88735096627e-05 0)
(-0.000563741380756 4.6219015075e-06 0)
(-0.000331995158242 2.72190223166e-06 0)
(-0.000128276754882 1.05169240188e-06 0)
(-7.54795847963e-05 6.18828453372e-07 0)
(-0.0016714969828 2.16075834473e-05 0)
(-0.00163532575944 2.11399949711e-05 0)
(-0.000342883212193 3.34560402354e-06 0)
(-0.000122058155683 1.00070846848e-06 0)
(-2.65630588581e-05 1.76719076782e-07 0)
(-2.65832406934e-05 1.76853342769e-07 0)
(-3.44541518114e-06 -6.36922137644e-09 0)
(0 0 0)
(0 0 0)
(0 0 0)
(0 0 0)
(0 0 0)
(0 0 0)
(0 0 0)
(0 0 0)
(0 0 0)
(0 0 0)
(0 0 0)
(0 0 0)
(0 0 0)
(0 0 0)
(0 0 0)
(0 0 0)
(0 0 0)
(0 0 0)
(0 0 0)
(0 0 0)
(0 0 0)
(0 0 0)
(0 0 0)
(0 0 0)
(0 0 0)
(0 0 0)
(0 0 0)
(0 0 0)
(0 0 0)
(0 0 0)
(0 0 0)
(0 0 0)
(0 0 0)
(0 0 0)
(0 0 0)
(0 0 0)
(0 0 0)
(0 0 0)
(0 0 0)
(0 0 0)
(0 0 0)
(0 0 0)
(0 0 0)
(0 0 0)
(0 0 0)
(0 0 0)
(0 0 0)
(0 0 0)
(0 0 0)
(-0.00105596678411 1.36505722953e-05 0)
(0 0 0)
(0 0 0)
(-1.04498674209e-05 3.08735184106e-08 0)
(-1.61452107909e-05 4.77000752753e-08 0)
(0 0 0)
(0 0 0)
(-0.000594760900431 5.80324259329e-06 0)
(0 0 0)
(0 0 0)
(-1.5437903975e-05 4.56103789068e-08 0)
(-9.17015462807e-06 2.70926822642e-08 0)
(0 0 0)
(0 0 0)
(0 0 0)
(0 0 0)
(0 0 0)
(0 0 0)
(0 0 0)
(0 0 0)
(0 0 0)
(0 0 0)
(0 0 0)
(0 0 0)
(0 0 0)
(0 0 0)
(0 0 0)
(0 0 0)
(0 0 0)
(0 0 0)
(0 0 0)
(0 0 0)
(0 0 0)
(0 0 0)
(0 0 0)
(0 0 0)
(0 0 0)
(0 0 0)
(0 0 0)
(0 0 0)
(0 0 0)
(0 0 0)
(0 0 0)
(0 0 0)
(0 0 0)
(0 0 0)
(0 0 0)
(0 0 0)
(0 0 0)
(0 0 0)
(0 0 0)
(0 0 0)
(0 0 0)
(0 0 0)
(0 0 0)
(0 0 0)
(0 0 0)
(0 0 0)
(0 0 0)
(0 0 0)
(0 0 0)
(0 0 0)
(0 0 0)
(0 0 0)
(0 0 0)
(0 0 0)
(0 0 0)
(0 0 0)
(0 0 0)
(0 0 0)
(0 0 0)
(0 0 0)
(0 0 0)
(0 0 0)
(0 0 0)
(0 0 0)
(0 0 0)
(0 0 0)
(0 0 0)
(0 0 0)
(0 0 0)
(0 0 0)
(0 0 0)
(0 0 0)
(0 0 0)
(0 0 0)
(0 0 0)
(0 0 0)
(0 0 0)
(0 0 0)
(0 0 0)
(0 0 0)
(0 0 0)
(0 0 0)
(0 0 0)
(0 0 0)
(0 0 0)
(0 0 0)
(0 0 0)
(0 0 0)
(0 0 0)
(0 0 0)
(0 0 0)
(0 0 0)
(0 0 0)
(0 0 0)
(0 0 0)
(0 0 0)
(0 0 0)
(0 0 0)
(0 0 0)
(0 0 0)
(0 0 0)
(0 0 0)
(0 0 0)
(0 0 0)
(0 0 0)
(0 0 0)
(0 0 0)
(0 0 0)
(0 0 0)
(0 0 0)
(0 0 0)
(0 0 0)
(0 0 0)
(0 0 0)
(0 0 0)
(0 0 0)
(0 0 0)
(0 0 0)
(0 0 0)
(0 0 0)
(0 0 0)
(0 0 0)
(0 0 0)
(0 0 0)
(0 0 0)
(0 0 0)
(0 0 0)
(0 0 0)
(0 0 0)
(0 0 0)
(0 0 0)
(0 0 0)
(0 0 0)
(0 0 0)
(0 0 0)
(0 0 0)
(0 0 0)
(0 0 0)
(0 0 0)
(0 0 0)
(0 0 0)
(0 0 0)
(0 0 0)
(0 0 0)
(0 0 0)
(0 0 0)
(0 0 0)
(0 0 0)
(0 0 0)
(0 0 0)
(0 0 0)
(0 0 0)
(0 0 0)
(0 0 0)
(0 0 0)
(0 0 0)
(0 0 0)
(0 0 0)
(0 0 0)
(0 0 0)
(0 0 0)
(0 0 0)
(0 0 0)
(0 0 0)
(0 0 0)
(0 0 0)
(0 0 0)
(0 0 0)
(0 0 0)
(0 0 0)
(0 0 0)
(0 0 0)
(0 0 0)
(0 0 0)
(0 0 0)
(0 0 0)
(0 0 0)
(0 0 0)
(0 0 0)
(0 0 0)
(0 0 0)
(0 0 0)
(0 0 0)
(0 0 0)
(-7.1045860365 0.15100973143 0)
(-5.52022496607 0.116870172024 0)
(-6.36997834616 0.112257128342 0)
(-3.87196706961 0.0682350677895 0)
(-4.87158112443 0.103137558259 0)
(-5.63382732906 0.0992840545391 0)
(-8.05905584096 0.171604112129 0)
(-5.52025357571 0.116870777726 0)
(-2.60748136299 0.0552036913919 0)
(-3.0208169112 0.0532353821739 0)
(-3.02642776105 0.0533342613 0)
(-3.79408807026 0.0803256621187 0)
(-3.79382408894 0.080320073299 0)
(-4.39531606092 0.0774579649004 0)
(-1.58160061307 0.0334844932694 0)
(-3.34818476544 0.070885322955 0)
(-1.42351501404 0.0250863816081 0)
(-2.34916463922 0.0413989596306 0)
(-2.95480227385 0.0625569160974 0)
(-1.25817125899 0.0221725545711 0)
(-1.79215171115 0.0379421273701 0)
(-0.747093280734 0.0158169134 0)
(-0.352882415821 0.00747096882729 0)
(-0.673041309954 0.0118609013414 0)
(-0.247956520738 0.0043696988371 0)
(-0.311431215115 0.00659339427428 0)
(-0.594553698124 0.0104777264803 0)
(-0.846541619699 0.0179223610138 0)
(-1.23177128214 0.0260781621261 0)
(-1.58156903333 0.0334838246862 0)
(-1.83272851001 0.0322978868034 0)
(-0.675827627276 0.0119100041741 0)
(-2.30124723409 0.048720326032 0)
(-0.846562487802 0.0179228028181 0)
(-0.981668317652 0.0172997866453 0)
(-0.581846743262 0.0123184343744 0)
(-0.166695677535 0.00352915916087 0)
(-0.193434856801 0.00340887211315 0)
(-0.319268249569 0.00562641423874 0)
(-0.242549115425 0.00513507275846 0)
(-0.399886532638 0.00846610566538 0)
(-0.463876638749 0.00817482517852 0)
(-0.0360866751533 0.00076607091906 0)
(-0.129815839785 0.00274836616629 0)
(-0.0330488864689 0.000581526449373 0)
(-0.0898236728401 0.00158053257212 0)
(-0.114566914675 0.00242552705888 0)
(-0.0291750427193 0.000513362500695 0)
(-0.0408905612888 0.000868050872916 0)
(-0.00904551934068 0.000131130407948 0)
(0 0 0)
(-0.00861019436541 0.000107690518954 0)
(0 0 0)
(0 0 0)
(-0.00592791131209 2.89139211416e-05 0)
(-0.0102497091757 0.000148587217046 0)
(-0.0281053520905 0.000596638310818 0)
(-0.0613236299776 0.00129829911437 0)
(-0.0700575440292 0.00123272882036 0)
(-0.0142218976245 0.000177877928267 0)
(-0.0892278132085 0.00188906610565 0)
(-0.0193163001913 0.000410058720499 0)
(-0.0227496645591 0.000400301888172 0)
(-0.00517521139775 2.81715230133e-05 0)
(0 0 0)
(0 0 0)
(0 0 0)
(0 0 0)
(0 0 0)
(-0.00462122713342 2.25404514134e-05 0)
(0 0 0)
(0 0 0)
(0 0 0)
(0 0 0)
(0 0 0)
(0 0 0)
(0 0 0)
(0 0 0)
(0 0 0)
(0 0 0)
(0 0 0)
(0 0 0)
(0 0 0)
(0 0 0)
(0 0 0)
(0 0 0)
(0 0 0)
(0 0 0)
(0 0 0)
(0 0 0)
(0 0 0)
(0 0 0)
(0 0 0)
(0 0 0)
(0 0 0)
(0 0 0)
(0 0 0)
(0 0 0)
(0 0 0)
(0 0 0)
(0 0 0)
(0 0 0)
(0 0 0)
(0 0 0)
(0 0 0)
(0 0 0)
(0 0 0)
(0 0 0)
(0 0 0)
(0 0 0)
(0 0 0)
(0 0 0)
(0 0 0)
(0 0 0)
(0 0 0)
(0 0 0)
(0 0 0)
(0 0 0)
(0 0 0)
(0 0 0)
(0 0 0)
(0 0 0)
(0 0 0)
(0 0 0)
(0 0 0)
(0 0 0)
(0 0 0)
(0 0 0)
(0 0 0)
(0 0 0)
(0 0 0)
(0 0 0)
(0 0 0)
(0 0 0)
(0 0 0)
(0 0 0)
(0 0 0)
(0 0 0)
(0 0 0)
(0 0 0)
(0 0 0)
(0 0 0)
(0 0 0)
(0 0 0)
(0 0 0)
(0 0 0)
(0 0 0)
(0 0 0)
(0 0 0)
(0 0 0)
(0 0 0)
(0 0 0)
(0 0 0)
(0 0 0)
(0 0 0)
(0 0 0)
(0 0 0)
(0 0 0)
(0 0 0)
(0 0 0)
(0 0 0)
(0 0 0)
(0 0 0)
(0 0 0)
(0 0 0)
(0 0 0)
(0 0 0)
(0 0 0)
(0 0 0)
(0 0 0)
(0 0 0)
(0 0 0)
(0 0 0)
(0 0 0)
(0 0 0)
(0 0 0)
(0 0 0)
(0 0 0)
(0 0 0)
(0 0 0)
(0 0 0)
(0 0 0)
(0 0 0)
(0 0 0)
(0 0 0)
(0 0 0)
(0 0 0)
(0 0 0)
(0 0 0)
(0 0 0)
(0 0 0)
(0 0 0)
(0 0 0)
(0 0 0)
(0 0 0)
(0 0 0)
(0 0 0)
(0 0 0)
(0 0 0)
(0 0 0)
(0 0 0)
(0 0 0)
(0 0 0)
(0 0 0)
(0 0 0)
(0 0 0)
(0 0 0)
(0 0 0)
(0 0 0)
(0 0 0)
(0 0 0)
(0 0 0)
(0 0 0)
(0 0 0)
(0 0 0)
(0 0 0)
(0 0 0)
(0 0 0)
(0 0 0)
(0 0 0)
(0 0 0)
(0 0 0)
(0 0 0)
(0 0 0)
(0 0 0)
(0 0 0)
(0 0 0)
(0 0 0)
(0 0 0)
(0 0 0)
(0 0 0)
(0 0 0)
(0 0 0)
(0 0 0)
(0 0 0)
(0 0 0)
(0 0 0)
(0 0 0)
(-2.9123349452 -0.288353224373 0.217368045704)
(-11.8970171889 -1.92790596049 1.35592939906)
(-2.8448055994 -0.150662953858 0.126764398366)
(-1.1147318713 -0.066203563438 0.054092003031)
(-8.54935595171 -1.13848696963 0.820726794563)
(-1.23824568509 -0.0264528694144 0.0303848371962)
(-3.63322324452 -0.504192929996 0.360943614339)
(-2.1771631262 -0.0767660967851 0.0762156853589)
(-3.82950495908 -0.0190284879678 0.0621568946909)
(-2.71783497573 -0.0203836912948 0.0430496078788)
(-1.44148057558 0.0254029858787 0)
(-5.23886729502 -0.370726500799 0.299531507629)
(-1.89405611707 0.0198563427004 0.012501927977)
(-1.33773905122 0.0114657704883 0.00759174059121)
(-0.827717052153 -0.0318717836283 0.0305481237343)
(-0.172197851957 0.00273171789094 0.00055117313591)
(-0.374364333204 -0.0031380420031 0.00610213137746)
(-0.195852647864 0.00345148046548 0)
(-0.242526840124 0.00513460116207 0)
(-0.489370921109 0.00492331610941 0.00231092182064)
(-0.834175274567 -0.0705604596398 0.0546314202509)
(-0.810220908786 0.00495331395556 0.00750905779294)
(-0.352882288065 0.00747096612252 0)
(-0.681873221209 0.0120165447269 0)
(-0.251444006566 0.00443115825235 0)
(-0.846492789145 0.017921327209 0)
(-0.311412683703 0.00659300194076 0)
(-0.601927999697 0.0106076826392 0)
(-1.58146454312 0.0334816124958 0)
(-3.36957628643 0.0673216293395 0.00246153765392)
(-2.36208039639 0.0416265719916 0)
(-1.43775953299 0.0253374105292 0)
(-2.95455929211 0.0625517718653 0)
(-1.79204625211 0.0379398946683 0)
(-1.26692667521 0.0223268498965 0)
(-1.23164885537 0.0260755701959 0)
(-1.58148273795 0.0334819977034 0)
(-1.83997454939 0.0324255826176 0)
(-0.678948894959 0.0119650097845 0)
(-2.3009767753 0.048714600076 0)
(-0.846513118275 0.0179217576025 0)
(-0.987182938936 0.0173969699504 0)
(-0.747020965496 0.0158153823946 0)
(-0.352883756282 0.00747099720654 0)
(-0.680772890632 0.0119971537739 0)
(-0.250725122302 0.00441848946781 0)
(-0.846481302412 0.0179210840203 0)
(-0.31141816932 0.00659311807823 0)
(-0.59973977896 0.0105691199687 0)
(-0.581795115479 0.0123173413487 0)
(-0.166692398714 0.00352908974407 0)
(-0.321107917757 0.0056588344224 0)
(-0.19518225377 0.00343966621562 0)
(-0.399871100544 0.00846577894834 0)
(-0.242534558365 0.00513476456703 0)
(-0.467126735618 0.00823210112539 0)
(-0.274833860972 0.00581858181636 0)
(-0.959251931378 0.0203085814298 0)
(-0.410837753194 0.00724012922519 0)
(-0.411942008513 0.00725958934333 0)
(-0.513471215537 0.0108708376303 0)
(-0.513457516253 0.0108705475991 0)
(-0.220506815818 0.00388595699676 0)
(-0.129823770984 0.00274853407985 0)
(-0.10110763711 0.00214057706244 0)
(-0.194040918904 0.00341955265046 0)
(-0.0426871780455 0.000751121315568 0)
(-0.242546744048 0.00513502255341 0)
(-0.0525077891352 0.00111466878314 0)
(-0.102450665561 0.00180271646476 0)
(-0.129821842218 0.00274849324541 0)
(-0.101103458549 0.00214048859701 0)
(-0.194807847668 0.00343306811567 0)
(-0.0428278338354 0.000753596287369 0)
(-0.242536934605 0.00513481487504 0)
(-0.0525057181508 0.00111462481896 0)
(-0.102658065517 0.00180636586336 0)
(-0.0613229028913 0.00129828372103 0)
(-0.00904546404197 0.000131129606298 0)
(-0.020208120732 0.000355581018103 0)
(-0.0202300547184 0.000355966967362 0)
(-0.0248025906354 0.00052652518755 0)
(-0.0248020409484 0.000526513518444 0)
(-0.0484927961469 0.000853276663045 0)
(0 0 0)
(-0.0360881974837 0.000766103236059 0)
(-0.00863975684087 0.00010806026651 0)
(-0.0142694888654 0.000178473167494 0)
(-0.0102503812478 0.000148596959891 0)
(-0.0193165409842 0.000410063832203 0)
(0 0 0)
(0 0 0)
(0 0 0)
(0 0 0)
(0 0 0)
(0 0 0)
(0 0 0)
(0 0 0)
(0 0 0)
(0 0 0)
(-0.00526757660786 2.56930791688e-05 0)
(0 0 0)
(-0.00798288985431 0.000115725760322 0)
(0 0 0)
(0 0 0)
(0 0 0)
(0 0 0)
(0 0 0)
(0 0 0)
(0 0 0)
(0 0 0)
(0 0 0)
(0 0 0)
(0 0 0)
(0 0 0)
(0 0 0)
(0 0 0)
(0 0 0)
(0 0 0)
(0 0 0)
(0 0 0)
(0 0 0)
(0 0 0)
(0 0 0)
(0 0 0)
(0 0 0)
(0 0 0)
(0 0 0)
(0 0 0)
(0 0 0)
(0 0 0)
(0 0 0)
(0 0 0)
(0 0 0)
(0 0 0)
(0 0 0)
(0 0 0)
(0 0 0)
(0 0 0)
(0 0 0)
(0 0 0)
(0 0 0)
(0 0 0)
(0 0 0)
(0 0 0)
(0 0 0)
(0 0 0)
(0 0 0)
(0 0 0)
(0 0 0)
(0 0 0)
(0 0 0)
(0 0 0)
(0 0 0)
(0 0 0)
(0 0 0)
(0 0 0)
(0 0 0)
(0 0 0)
(0 0 0)
(0 0 0)
(0 0 0)
(0 0 0)
(0 0 0)
(0 0 0)
(0 0 0)
(0 0 0)
(0 0 0)
(0 0 0)
(0 0 0)
(0 0 0)
(0 0 0)
(0 0 0)
(0 0 0)
(0 0 0)
(0 0 0)
(0 0 0)
(0 0 0)
(0 0 0)
(0 0 0)
(0 0 0)
(0 0 0)
(0 0 0)
(0 0 0)
(0 0 0)
(0 0 0)
(0 0 0)
(0 0 0)
(0 0 0)
(0 0 0)
(0 0 0)
(0 0 0)
(0 0 0)
(0 0 0)
(0 0 0)
(0 0 0)
(0 0 0)
(0 0 0)
(0 0 0)
(0 0 0)
(0 0 0)
(0 0 0)
(0 0 0)
(0 0 0)
(0 0 0)
(0 0 0)
(0 0 0)
(0 0 0)
(0 0 0)
(0 0 0)
(0 0 0)
(0 0 0)
(0 0 0)
(0 0 0)
(0 0 0)
(0 0 0)
(0 0 0)
(0 0 0)
(0 0 0)
(0 0 0)
(0 0 0)
(0 0 0)
(0 0 0)
(0 0 0)
(0 0 0)
(0 0 0)
(0 0 0)
(0 0 0)
(0 0 0)
(0 0 0)
(0 0 0)
(0 0 0)
(0 0 0)
(0 0 0)
(0 0 0)
(0 0 0)
(0 0 0)
(0 0 0)
(0 0 0)
(0 0 0)
(0 0 0)
(0 0 0)
(0 0 0)
(0 0 0)
(0 0 0)
(0 0 0)
(0 0 0)
(0 0 0)
(0 0 0)
(0 0 0)
(0 0 0)
(0 0 0)
(0 0 0)
(0 0 0)
(0 0 0)
(0 0 0)
(0 0 0)
(0 0 0)
(0 0 0)
(0 0 0)
(0 0 0)
(0 0 0)
(0 0 0)
(0 0 0)
(0 0 0)
(0 0 0)
(0 0 0)
(0 0 0)
(0 0 0)
(0 0 0)
(0 0 0)
(0 0 0)
(0 0 0)
(0 0 0)
(0 0 0)
(0 0 0)
(0 0 0)
(0 0 0)
(0 0 0)
(0 0 0)
(-0.0281038792639 0.000596607044716 0)
(-0.0613220177719 0.00129826498193 0)
(-0.0709574989982 0.00124856438015 0)
(-0.0144037229709 0.000180152077384 0)
(-0.0892192511521 0.00188888483604 0)
(-0.0230334054695 0.000405294578148 0)
(-0.0193154071489 0.000410039762425 0)
(-0.0360857921847 0.000766052174841 0)
(-0.129817286953 0.00274839680468 0)
(-0.0911385158239 0.00160366847936 0)
(-0.0335330407491 0.000590045602349 0)
(-0.114559675005 0.00242537378587 0)
(-0.0408905913922 0.00086805151197 0)
(-0.0295734026414 0.000520372020708 0)
(-0.00517498908491 2.81703128422e-05 0)
(0 0 0)
(0 0 0)
(0 0 0)
(0 0 0)
(-0.00468037949645 2.28289723898e-05 0)
(0 0 0)
(-0.00904537568001 0.000131128325339 0)
(0 0 0)
(-0.00872992765788 0.000109188062431 0)
(0 0 0)
(-0.010249845955 0.000148589199898 0)
(0 0 0)
(-0.00600718224323 2.93005722454e-05 0)
(-0.0360863959971 0.000766064992955 0)
(-0.129818577779 0.00274842413309 0)
(-0.0909336367209 0.00160006343756 0)
(-0.0335156933167 0.000589740357851 0)