/*--------------------------------*- C++ -*----------------------------------*\
| =========                 |                                                 |
| \\      /  F ield         | OpenFOAM: The Open Source CFD Toolbox           |
|  \\    /   O peration     | Version:  v1906                                 |
|   \\  /    A nd           | Web:      www.OpenFOAM.com                      |
|    \\/     M anipulation  |                                                 |
\*---------------------------------------------------------------------------*/
FoamFile
{
    version     2.0;
    format      ascii;
    class       volScalarField;
    location    "4";
    object      p;
}
// * * * * * * * * * * * * * * * * * * * * * * * * * * * * * * * * * * * * * //

dimensions      [1 -1 -2 0 0 0 0];


internalField   nonuniform List<scalar> 
28582
(
17110.2072019
17108.5766334
12212.3565351
12210.6173928
7314.71466478
7312.67664479
3642.11272217
3639.56187021
10.0996301903
13.1269326327
-27.0466464344
3640.68367492
618.093073515
616.946335251
3638.71688997
3638.92930996
617.22805284
1801.76453739
1801.74306454
17110.8990391
17107.1197367
17105.556705
12213.0594668
12209.0302042
12207.318677
7315.82824571
7310.80356147
3643.28112946
3638.04869752
15.0388606231
-27.0296576161
-26.9983283838
3642.20248249
3643.07024289
618.804982795
617.424189776
1807.78174173
3637.08632944
3638.5022569
3637.98224893
1801.7554948
624.03034438
1801.80063934
1802.35707166
10.6987824159
12.9511861647
-23.1906765834
-23.1877699856
11.6942408418
-23.2009496474
1805.94937264
1804.32217019
617.497173252
617.910422737
1805.42177584
617.302008966
1804.94045194
1803.50841352
1803.26756021
616.935620902
616.961414337
1802.86506793
617.039494021
1803.99920709
1802.03922702
1802.73438743
617.631034262
617.104541726
1802.39548994
617.608580918
1802.23655672
1801.79571686
619.261300899
619.146463308
1801.81704557
618.333738424
618.305130241
1801.89978119
1801.70425436
618.891500132
618.61429369
1801.79436735
617.992808998
1801.7953508
618.168462788
9.24538330654
-23.2471847626
9.78826269253
9.51948207799
-23.2503643766
-23.2555104377
14.4229651889
-23.1716165477
-23.1650440306
16.6217464515
-23.1407823291
17.6021800801
-23.1313154437
1807.38679904
1807.22054531
618.192076729
619.10297743
1806.41120086
1808.10372195
618.629622656
1806.82231431
1805.47791738
617.876468546
617.87963751
1805.90391129
1806.41560593
618.189771363
618.707898804
618.516061609
1807.006461
1807.45850486
618.243979689
1806.87503484
618.474402176
1801.74263039
620.387138073
620.178362657
1801.78566867
621.608830036
1801.58321173
621.337273405
1801.61812344
1800.47372931
622.859848776
623.821862339
1801.16437858
1801.14699065
622.71289633
1802.05126289
1801.77733268
619.793301738
619.414534475
620.524779734
1801.96554038
620.951766763
621.930017418
623.435818886
1802.58427042
1802.05913997
623.686361154
1801.89007682
622.395282234
7308.55222114
3635.49569117
20.6359796939
-26.9883984964
3642.12928103
618.25845938
3636.64313371
3634.47676955
625.058632209
624.941974221
626.794323952
3631.95893256
3629.88946387
626.885638392
628.233625142
9.26785861399
19.2916664019
22.5214727925
-23.0748860166
-23.0859568427
-23.0351028343
26.0538029908
29.4539793642
1805.91014277
1806.25117551
618.070565693
617.897803459
1806.36597261
617.849845184
1805.57280423
1799.02097981
1799.3683863
625.63379229
624.83607803
1797.80196204
1800.27141455
625.827577914
1800.16346354
1802.21867845
624.882903001
625.897297621
1801.27046886
625.956007303
1801.10725033
1798.46361944
1796.99018024
627.102636454
626.515418383
1796.37084253
626.662565912
1799.26818233
1792.1546439
1794.69026104
627.469174268
627.298600861
1794.23724214
627.810618713
1792.4928678
1790.54424827
1790.42661475
628.608225778
627.707303128
1789.78021141
628.151377124
1790.92330166
3658.54610441
3654.77254804
3652.77896262
3650.8347641
6.50571887561
11.0290405418
4.51269808071
9.72940406399
8.405741292
-27.1062156875
-27.3128074827
-27.0184159733
-27.2265552293
-26.9722140343
-27.1755551749
3659.74441824
3658.70895342
622.72088086
622.165153653
3661.36827627
623.387015215
3657.0400021
3655.68313303
621.591160311
619.80493714
3659.26702895
3656.38199671
3655.97568271
622.672012318
624.218040551
620.95858026
623.493978326
3654.28640578
3650.88362079
624.41919571
623.831082259
623.285939799
622.754974165
3654.27212208
3653.00289827
620.336525388
623.199931854
620.984604759
3650.43784243
3651.83356539
3650.05907461
623.12355462
622.48385499
620.769954728
621.269328065
620.031322239
620.830446615
5.97305096831
5.80336240377
6.61782798847
-23.3679674838
-23.3488011245
-23.3535108246
-23.3203748783
-23.3289691667
-23.2588208489
-23.3158837772
-23.2603266054
5.02621851636
4.15573988387
8.90599118896
5.71069592857
8.23315242597
-23.314976018
-23.3000857907
-23.3096059049
-23.3021045545
11.8337462489
10.6779739003
11.6084148762
-23.3040665437
-23.2743385764
-23.3081700516
-23.2908442304
6.9482218744
6.32685065359
-23.3073020698
-23.301761324
-23.301844825
11.0390000976
8.93464081231
10.2494288179
-23.3084507929
-23.2926698085
-23.3109965205
-23.2956432653
1821.88413558
1823.63362217
621.501302631
622.667936703
1823.32269983
621.442334361
1822.12393723
1821.53091072
1822.22393761
622.468561833
620.834572372
1822.85266841
1820.96744732
621.304258036
1824.72623202
1823.04634277
623.749822631
623.828483749
1823.99033607
1823.45232134
624.770037302
1819.97901161
1821.40815719
620.275532649
620.838307614
1820.37725535
1820.8150357
619.831174821
1819.56364615
1819.99433906
620.315099516
618.56061866
1820.38424179
1819.14054163
619.256012459
1821.24396314
1821.96409106
623.115339659
621.844043948
1822.11569368
1821.27551472
622.994902824
1820.56402349
1821.13395203
623.616017089
623.349921312
1821.85881249
1819.66527469
623.5242223
1820.62084813
1820.40805799
621.455226255
621.794256663
1820.79167857
1820.28640205
622.668063658
1819.79264539
1818.43048753
623.176877657
622.60742309
1818.73322185
1819.6389845
623.263900902
1817.64009427
1820.63319779
624.448551217
623.808157903
1819.91845283
1819.0718483
623.785637931
1816.05796987
1815.43650383
624.361440985
623.271211676
1817.94593462
623.65125716
1814.46094264
1816.08290192
1816.91808095
623.672663313
622.958141137
1817.67585282
1815.71027172
623.371620471
1814.73304767
1813.09034996
622.855818065
623.253998756
1814.53069145
623.065093724
1813.62793871
1819.68314493
1820.06829072
621.370832615
619.57987522
1820.07654531
1819.56425856
620.907818652
1819.07559439
1818.28919083
622.331850182
622.249780224
1819.49099597
1818.03115297
621.89651479
1818.42836218
1816.52138531
621.617491812
620.586324505
1817.4304834
1817.60989845
621.199002699
1815.15899912
1816.75098532
622.839935361
622.772557609
1815.47638277
1816.83102424
622.793628885
1813.75653803
1812.90331288
623.068175702
621.95774331
1814.24858792
622.039124189
1812.9827709
1814.85270187
1815.31532179
622.068901784
621.207160544
1816.348934
1814.53448305
622.134656766
1813.56125847
1812.76112346
621.569727057
621.597470414
1813.71785465
621.555640262
1812.9038969
1813.64753795
1814.64348239
620.655092654
620.084375987
1814.08248167
1814.30665932
620.150309066
1812.81022055
621.098143145
1813.55293582
17108.9816566
17107.6664898
17106.4712342
17103.9556871
17102.754176
17103.1240067
12211.160093
12209.8038364
12208.4222323
12205.5537552
12204.4219118
12204.7784177
18323.4532129
18326.0545902
17099.8555006
17103.2932428
17104.9229555
17103.5744358
17101.7301503
17099.6557268
18325.3974581
18328.264496
17104.9248755
17105.7917148
17105.0216052
17103.3016143
17101.5320058
17100.0472335
17106.2046577
17105.4187589
17105.6570606
17105.3284502
17104.2733637
17102.7126201
17101.2781486
17100.4537632
17108.9020246
17107.2201456
17106.7192287
17106.0947856
17104.721075
17102.9685208
17101.5544741
17101.3168566
17104.9277142
17103.2214514
17101.9150646
17102.1354276
13423.2328628
13425.5981044
12203.8020415
12205.3468266
12206.730182
12205.5557129
12202.6780441
12199.8899453
13427.697914
13428.9617307
12208.761475
12209.1090283
12207.5260441
12205.0343993
12202.5135701
12200.6360854
12207.9261941
12207.8565269
12208.1101835
12207.478919
12206.1665207
12204.1336304
12202.3663395
12201.2577786
12211.0573511
12209.4796594
12208.9721946
12208.2600601
12206.666013
12204.4839233
12202.7809442
12202.3800244
12206.5957005
12204.6366581
12203.4118496
12203.4811527
8523.90098562
8527.16355106
7307.52933314
7309.48608851
7309.85632793
7306.54774139
7301.33050689
7298.77531575
8528.95725659
8531.54569307
7308.14496523
7310.01893093
7309.92846529
7305.59332881
7300.86338892
7299.37096391
7310.28735276
7310.42058151
7310.33289832
7310.13796637
7308.29217577
7304.3580079
7300.48428626
7300.1629351
7316.8851067
7313.50793465
7312.02814986
7311.25382978
7310.2573699
7308.03907658
7304.11773903
7300.55093488
7301.3872755
7313.81262398
7312.1349918
7310.20520755
7307.63007649
7303.9480661
7301.26868929
7302.62454167
7305.51586156
7303.14466852
7304.21318883
3629.47208695
3632.33724948
3633.84675372
3637.13523215
3640.1300178
3634.18737357
3625.49449178
3624.37546989
3632.11572708
3632.85245796
3634.84245092
3635.42166249
3638.23443727
3640.12943962
3634.04412559
3625.57512747
3624.32925131
3647.68301119
3641.66812332
3637.61415591
3637.56123653
3637.57265613
3638.38341003
3639.0591001
3632.46837794
3624.79659991
3624.30576729
3644.70576114
3640.50085546
3638.73008855
3638.10455255
3638.51540277
3637.62426969
3630.51420932
3624.09625704
3624.46242117
3641.39977995
3639.5055418
3637.86657512
3635.19921265
3628.73718901
3624.88206742
3626.12562631
3630.56371646
3627.82762643
3628.99935272
10.6157902843
10.6617272532
9.98385183907
10.2532781052
14.3350854104
25.2099747001
31.1940593898
31.7925300567
11.5511231211
9.6192391051
8.40118641853
8.97050665303
9.05157353311
9.68013182018
14.7513717704
25.3328718181
30.0866203448
30.093959521
10.8243822038
9.72478383298
9.15198505897
8.57133019741
9.23436866547
11.0996809339
16.582683218
26.3238369
30.8995551674
31.8283400042
9.94980609556
11.2050470846
10.6584874771
10.5176589451
12.4902116495
18.6835887956
27.5108374307
32.2638496847
35.3369483721
9.14726894623
10.623603751
14.459845874
21.3136034084
29.0129120949
33.0470367541
34.6477392716
27.5551290258
32.2831549381
33.6084764716
-27.1377056666
-27.0541643905
-27.0508248465
-27.0391225743
-27.0232752582
-26.9928069116
-26.9996612617
-27.0362544659
-27.1608521888
-27.5016158709
-27.0674928719
-27.0119879237
-27.0056629695
-27.0138990173
-27.0099132856
-26.9852134584
-27.0184273115
-27.0366035834
-27.1579489231
-27.4982742541
-27.0890490726
-27.0212010345
-27.0014291553
-26.9932760614
-27.0003661686
-26.9878571477
-27.0707132985
-27.0321608195
-27.1686991654
-27.4805166004
-27.053380958
-27.0207676259
-26.9934526808
-27.0037412963
-26.9840725446
-27.1120892288
-27.039820817
-27.2014253074
-27.5092171808
-27.0111975895
-27.0494253699
-27.0725360518
-27.2091323379
-27.0734666243
-27.2110315015
-27.5988790356
-27.0477259666
-27.1975896852
-27.6332764053
18325.0643521
18323.6466972
18325.9262907
15873.4574845
15875.2872599
15874.2497028
15875.7621308
18326.9145642
18327.1585583
18327.8164587
15876.2649457
15873.8572984
15876.5805329
15876.4680151
18327.0548516
18327.5511393
18327.9605324
15876.3246343
15877.8663957
15878.3514077
15878.8957926
18328.5258379
18328.9436672
18329.4838652
15878.6544804
15878.5748111
15880.0801903
15881.0221791
13424.7544883
13424.6663403
13425.7785027
10973.0308599
10974.6562045
10974.7286418
10976.3483049
13426.0343486
13426.4113079
13427.9058411
10975.56978
10976.0406205
10977.4656154
10977.8925575
13428.5006457
13429.3486406
13429.9983999
10978.1448334
10979.230544
10980.4028901
10980.7128656
13429.2080878
13431.0701236
13434.1414969
10979.9867145
10977.4078728
10981.2783125
10983.630469
8525.8058739
8525.99717806
8527.76795213
6075.94167681
6078.01170423
6077.9759867
6079.60675014
8527.80734633
8529.04420249
8529.78828677
6079.78653882
6080.60141702
6080.9100113
6082.87368491
8530.3674829
8531.50779233
8532.05517527
6080.46683307
6082.02372216
6082.71901808
6083.74564137
8529.42427652
8532.62384408
8534.16199568
6083.02677362
6083.09694742
6084.6826704
6086.20291343
3627.3558076
3629.56985773
611.218745263
611.70971419
3631.16173284
3631.20514312
3632.35328586
612.087925459
613.827063731
612.192588783
613.197543092
3632.90868237
3633.16914994
3633.78296022
614.053714202
613.747492839
613.387191584
613.565291947
3635.25877225
3634.1888753
3635.58434374
613.760325562
614.584741427
613.610228615
614.547646412
3639.38844698
3637.45667548
3639.56460786
615.282166126
620.103069421
615.230542677
620.138418938
3638.23582315
3640.14929821
3638.49384094
623.031213742
630.940105801
623.130772227
630.833618804
3628.86517762
3634.38667887
3629.02754203
631.281024463
626.682849545
631.124421042
626.461747473
3624.16589918
3625.57795239
3624.11508596
624.911118553
625.19375449
624.671570486
623.742023408
3624.91039838
3624.30047972
3624.99452926
627.658077861
610.581035691
625.935247057
608.526768781
3646.2629476
3641.83538643
623.361289294
616.984661853
622.033505135
619.554515836
3631.62411974
3638.03078164
3635.55981378
614.760349097
612.106237681
618.188754085
614.972080139
3634.12340197
3635.10213607
3635.81552085
612.3504829
612.974862326
614.204919368
613.640559824
3635.24830892
3636.6040415
3637.04327619
613.217058044
613.607138545
613.888003747
614.235624326
3636.62344432
3637.49908781
3637.88371195
613.688867747
614.74556724
614.327687847
614.737497189
3639.81517431
3638.61740292
3639.58081302
615.424162809
620.277207085
615.50288026
620.988526958
3638.25154983
3639.65878118
3637.54183397
623.31610955
630.601155614
623.979040874
630.533723461
3629.00493499
3633.32588177
3628.54856471
630.877878277
626.459755527
630.574517893
626.328040256
3624.11959653
3625.28983826
3624.00468199
624.762612149
623.701172874
624.777486752
624.529944015
3625.29614239
3624.20542815
3625.73930025
625.793267817
607.814246525
626.622205416
608.910041778
3644.72026564
3648.08890978
3645.93163999
621.694069435
620.045883537
620.658831666
620.236482278
3639.14511912
3643.50071319
3641.08408804
618.968376473
616.171994157
619.629521363
617.867407425
3637.29388945
3639.15610897
3638.17875072
615.440095726
614.383314527
617.250951397
616.11635706
3637.68091395
3637.98089439
3637.79989615
614.445631625
614.63649915
615.95143985
615.016142291
3637.71404319
3637.65876522
3637.86995153
614.398509313
614.794923443
614.580207358
615.630901684
3639.24597605
3638.43791077
3639.05227514
615.706605811
621.440394417
616.789560793
623.26689141
3636.63831375
3638.40795847
3635.69517189
624.445369739
630.608927983
626.232437714
630.35412212
3627.80169168
3631.51355567
3627.03651469
630.47165621
626.140568252
629.534461552
625.627110166
3623.62970741
3624.43138509
3623.15154402
624.717980636
625.183244577
624.490793064
627.643067258
3626.52498637
3624.062513
3627.27374422
627.458880959
610.264737985
630.476410618
614.314561177
620.378675875
620.105686035
3642.47523247
3643.76378089
619.603383583
618.147748879
619.0336396
3639.26878744
3642.02129181
3640.76504991
617.678400929
616.658002513
618.535268844
617.271896893
3638.38214674
3640.03869354
3639.50514721
616.441653507
615.38609564
616.917753096
617.080831206
3638.17782636
3638.83736603
3638.39592634
614.892920938
615.987222417
616.762578619
617.117770017
3638.74680745
3638.25154282
3637.90880892
617.284145042
623.943004406
618.414354205
624.600799201
3634.71671791
3636.35618355
3633.37737555
626.827548941
630.055614736
626.880403348
627.625465585
3626.36310317
3629.45227298
3626.01705065
629.072116457
625.553319604
626.821413404
625.619176748
3623.23742392
3624.03720818
3623.74246608
624.547858467
628.633835433
625.597569909
630.857564785
3628.0282716
3624.9939262
3628.66802749
631.549411625
615.126059907
633.153196017
615.211943138
3640.58095899
3640.89525809
617.063298579
617.66531229
617.199401696
3638.50393577
3639.67765821
3638.64327641
617.602842102
617.578371544
617.3477333
619.132002229
3636.9806875
3637.8422016
3636.6987368
618.76228367
624.349592042
620.290960922
624.130768908
3632.25284159
3634.86612467
3632.20022074
626.28733955
626.902099507
625.107609711
626.432126637
3626.24118086
3629.31903284
3627.36574583
626.375485638
626.054548404
626.764495203
628.19687148
3624.94355726
3626.5113452
3626.49563157
626.37420062
631.253506288
628.635813376
632.394964262
3629.26359905
3627.44076367
3630.0335926
633.175683633
614.486486641
633.83088789
613.093819533
3633.12286148
626.792867688
3628.68205929
627.225330949
628.681542032
3627.99892536
629.113293616
632.74841596
3631.30715718
634.154608492
613.157286014
-23.2309864218
-23.2592783799
-23.2401164375
-23.2745181576
10.0795440721
9.23286143111
-23.2604986044
-23.2527889599
-23.2700169905
-23.2588252289
10.8239909898
9.60321245143
9.84648832384
-23.2473870072
-23.2486769043
-23.2540173101
-23.2493957119
10.2921307813
9.89982481197
9.80461703759
-23.2450939295
-23.2445368786
-23.2434362348
-23.2428992973
9.94342183752
9.64489928481
9.59279841288
-23.2394040821
-23.2357104903
-23.2393293459
-23.2358503245
11.3570976309
9.86309770481
11.0001055546
-23.2297252929
-23.2078106445
-23.2318242761
-23.207921146
19.5350513611
14.2209288313
19.5673553057
-23.144276724
-23.0782543917
-23.1505390399
-23.0795475655
29.8085896221
25.1137752677
29.2590800265
-22.9671130464
-22.9461894892
-22.9815856583
-22.9521135729
30.8368843598
30.4380490474
29.9446141465
-22.957813093
-22.9639682672
-22.9624971373
-22.9649879565
32.6934366973
30.60413632
31.7025747467
-23.0066623622
-22.9250545089
-23.0091556835
-22.9198986294
10.4705510036
11.2759615471
10.4146460259
-23.2679266218
-23.2844213954
-23.2846377568
-23.2889475907
8.6132986565
9.67963012014
8.84390314149
-23.2870622799
-23.2697446663
-23.2873690019
-23.2752812954
8.64893687895
8.15692376532
7.94956442265
-23.2558506701
-23.2463373428
-23.2614660681
-23.2467099106
9.06966935619
8.18848222687
8.37293962133
-23.2400491656
-23.2401741493
-23.2404235742
-23.2377940624
9.18467842671
8.64434124381
9.22664179698
-23.2364081893
-23.2337207888
-23.2303661157
-23.2252022701
11.2029325418
10.2342435721
12.1109676123
-23.2350853091
-23.2045621693
-23.2257107725
-23.1913271419
20.0398610304
15.6940001015
20.7656402714
-23.1504459953
-23.0825522839
-23.1415758891
-23.0805216392
29.0880021268
25.798954369
29.3420541296
-22.9861178632
-22.9643981015
-22.9882309219
-22.9741473909
29.5873204575
30.2697833661
29.8764022125
-22.969276208
-22.9650868732
-22.9811541596
-22.9697974454
31.051181068
30.5115782833
31.5555036091
-23.0061785864
-22.9118147588
-23.0064082587
-22.9207148501
10.1711192499
10.2228768129
9.99915322815
-23.2854625744
-23.2862555222
-23.2793343371
-23.2727988836
9.4869803204
10.1541176164
10.4842734597
-23.279320301
-23.2715454845
-23.2642238144
-23.2655506119
8.76671660961
10.4927463813
10.241598836
-23.2670582205
-23.2591600002
-23.2705755428
-23.2676564498
8.77229902406
9.88514007709
9.81048833179
-23.2471167895
-23.2409234361
-23.2545759733
-23.2351203354
9.99588898974
10.055091099
10.6759759006
-23.2224495589
-23.2118016227
-23.2118753244
-23.1992648789
13.0382659394
11.8277768175
13.9001929387
-23.1982569853
-23.1647148808
-23.1840231048
-23.1504334439
21.5040576076
17.5475143939
22.3161011634
-23.1263758837
-23.0739398952
-23.1161577817
-23.0650902903
29.8381947641
26.8990797762
30.4788986276
-22.9744617158
-22.9702059785
-22.9659525458
-22.9656341596
30.7717248499
31.6217111168
32.0730115442
-22.982443993
-22.9713577345
-22.9849863244
-22.9740778616
33.174338125
33.8533751777
35.1544465881
-23.0031085121
-22.939845846
-23.0005202851
-22.940859113
10.7351299153
10.1732333194
-23.2486681525
-23.2466275442
-23.237586574
11.1178056973
10.5998643619
10.4821153471
-23.2574168062
-23.2678355385
-23.2406070748
-23.2600045469
10.364960144
10.0630813809
10.0651299522
-23.2524229482
-23.2279598444
-23.2470425106
-23.2303421053
11.142466893
10.6055753221
11.6439652934
-23.2012653368
-23.1893332667
-23.2057399982
-23.190672061
14.8821224967
13.3000347415
16.0152494801
-23.1748155072
-23.1432738404
-23.1740766284
-23.1451003258
23.1813089311
19.9898517112
24.2914602715
-23.1135709272
-23.0572847508
-23.1130849747
-23.0490263541
31.1352031402
28.3842689994
31.7485685745
-22.9476015842
-22.9447526258
-22.9401169704
-22.9199762887
33.3905290074
32.8301672264
34.2519093061
-22.9659799326
-22.9635367037
-22.9503194079
-22.9587124365
36.2662147371
35.4987290508
35.8884131683
-22.9975865739
-22.9411255643
-22.9906870346
-22.9347410807
9.44804367826
9.76022359578
-23.2434159482
-23.2265316225
-23.2347365605
-23.2190099698
12.3265588481
11.0031862523
12.8057801617
-23.2196327811
-23.20891512
-23.2089464355
-23.2013386756
17.4595897828
15.0858478115
18.0895810017
-23.1972716362
-23.166073871
-23.192040059
-23.1612145763
25.3047795985
21.5809684677
25.2240849099
-23.1191677929
-23.0517062727
-23.1120593329
-23.05008157
31.9525765498
28.7170713395
31.5755528381
-22.9423065523
-22.9200265821
-22.9380729313
-22.9180870083
34.0577693851
32.7942306818
33.5114201553
-22.9433881939
-22.9517339996
-22.9397562138
-22.9514832101
34.9559866648
33.8118283947
34.3760655238
-22.9964832419
-22.9227616531
-23.0042048943
-22.917614379
24.0495625747
-23.0385239349
30.652842804
-22.94502145
-22.9347881336
-22.9614521367
-22.9586025521
33.2046494435
-22.9515201519
-22.9580399878
-22.9706215552
-22.9654099344
34.3462760218
-23.0179262306
-22.9219870391
-23.0178964936
-22.9280030931
1792.18161244
1791.85594082
610.332528196
611.38203197
1792.53722962
610.669441974
1791.36131242
1793.18769781
1795.00827857
611.493760275
611.241995874
1793.63034267
1794.41438333
610.91766436
1794.21954144
1792.67149644
612.925733792
612.078981044
1793.27072675
612.838948793
1793.71660392
1795.06922794
1795.36230752
613.563644728
613.5486297
1795.64697671
613.367117169
1794.67670301
1795.01276263
1795.59755684
612.07900941
612.69640755
1794.23877884
1796.17279001
612.83889255
1795.69128575
1796.88525918
613.429248895
613.026349777
1796.14822809
1796.61021036
613.278485224
1796.34849649
1795.88398548
614.041472013
613.74447375
1796.08096884
613.714575384
1796.228973
1796.6837957
1796.85639242
613.876558572
613.611248465
1796.9080027
613.670392657
1796.60124135
1796.74397839
1797.16189494
613.603099277
613.466202534
1796.49136654
1797.38248566
613.59251771
1797.05871362
1797.89347539
613.558487637
613.539651736
1797.29823475
1797.67771628
613.590637069
1797.82200729
1797.30556135
613.860980457
613.619706666
1797.33056066
613.780278792
1797.80571344
1798.4400395
1799.36909279
614.118436243
614.581114314
1799.41193058
614.068162821
1798.42623274
1798.07884444
1798.20233919
613.617798171
613.764973844
1797.65562072
1798.59087886
613.776801241
1798.72399717
1800.08463287
614.54857084
614.037707717
1799.67845355
1799.20415133
614.021645852
1801.87295544
1800.43163469
616.439324012
615.299660505
1800.48550042
616.404104498
1801.83724491
1803.38571006
1805.13608191
617.979462751
620.011021409
1805.32867
617.863219483
1803.31588937
1802.17488107
1801.11465873
615.272877979
616.315309657
1800.79423174
1802.41581003
616.337489914
1803.6690073
1805.54486323
620.024462559
617.829967493
1805.49780974
1803.84792007
617.794172629
1807.75954198
1806.63807617
626.138754281
622.945438708
1806.88691837
626.069312603
1807.50063157
1807.01566207
1804.47621695
629.270935538
630.926084201
1804.72384661
629.244114651
1806.764036
1807.85038745
1806.90329244
623.007328198
626.251679962
1806.98793735
1807.64337928
626.149668289
1807.13641775
1804.44279158
630.919890131
629.274852041
1804.78534863
1806.83053241
629.298724313
1795.65372114
1800.61497435
630.204107184
631.238814166
1800.8880277
630.399028172
1795.31554077
1790.48320739
1785.35081469
628.245569585
626.489680521
1785.72074292
628.616938267
1790.12475421
1795.72227887
1800.60947246
631.156106935
630.262877727
1800.84226986
1795.66008441
630.403259299
1790.73246491
1786.14835698
626.423316672
628.352040441
1786.01070822
1790.76941974
628.61703362
1782.01646682
1782.83103138
623.794494734
624.709141182
1782.98065313
623.474377548
1782.12559353
1782.09026502
1782.29096231
623.992815704
624.507005658
1782.28126781
623.250944061
1782.25876421
1782.01439725
1783.23874355
624.542370947
623.233202488
1783.10472131
1782.13103237
623.207589561
1782.03847419
1782.26492189
623.93487033
622.868618909
1782.20833642
1782.13865742
622.857519288
1780.87757437
1782.48351223
631.470818378
627.004698712
1782.33502186
630.690866347
1781.15205181
1777.37845268
1781.51661673
635.819788281
609.782860924
635.157057459
1781.29859469
1777.66480271
1780.69192262
1782.05541893
626.339614398
629.334731019
1782.16549297
1780.60287414
629.835848383
1776.59053148
1781.2143168
609.227045408
633.281063519
1775.8001635
633.850470613
1781.19506373
1809.10937201
1811.988284
621.375331228
623.105176869
1808.11244544
621.863584611
1811.89721097
1806.10927188
1800.80404399
619.043278099
617.772797421
1804.24295392
1803.2715691
619.919788016
1809.81871924
1811.69491061
622.772109828
621.311202334
1810.42976268
621.691526543
1811.90505879
1807.56864756
1807.03301381
618.519315848
620.624970176
1805.31735068
1808.93426222
620.175507193
1798.8597527
1798.28069418
612.880802922
615.829552681
1796.49964679
1800.82294161
614.411075238
1797.99108687
1796.27526069
612.009677937
612.758226432
1795.95909247
1797.89546666
613.23896521
1801.23282665
1805.09797663
617.013875995
616.952121511
1803.13392734
1803.43099695
615.740589679
1800.10926007
1801.16096794
613.831480373
615.903833182
1799.53873829
1802.12564192
614.66737694
1798.37836532
1796.74644092
612.625306458
612.684037997
1797.14073384
1798.10112647
612.762768204
1798.58953329
1797.61234517
612.779049671
612.954617385
1797.40619924
1798.73405017
612.810951619
1799.41291468
1800.63252945
613.32063212
613.819012792
1799.34805056
1800.43454245
613.084566128
1799.57562966
1800.63129765
613.229324815
613.569570426
1799.73396296
1800.45742496
613.071063862
1799.08367549
1797.89403794
613.380424887
613.210113271
1798.14017826
1798.88744232
613.420058931
1799.28450737
1798.53419891
613.531839219
613.74884631
1798.39007287
1799.37044538
613.621454052
1799.97863087
1800.75968271
613.407744984
613.987077721
1799.83860454
1800.8310344
613.589091742
1800.13598515
1800.77018525
613.950233419
614.09597319
1800.16903175
1800.87833296
613.722363902
1799.70371985
1798.74782803
613.87766622
613.891196043
1799.10424108
1799.48670609
614.045938549
1800.09147359
1800.47089303
614.208586041
614.84332287
1799.65694612
1800.74703536
614.354322708
1800.22492491
1800.58059395
614.219738538
614.431234916
1800.21947045
1800.33306259
614.362488391
1800.38458488
1800.56497721
614.88270249
614.461824593
1800.78727626
1800.28333888
614.548364044
1802.61598405
1801.43633953
616.459293772
615.463859182
1802.6024911
1801.56548813
616.561840716
1803.84847708
1805.51392336
617.991151799
620.443679917
1803.92945427
1805.31851445
618.157293298
1802.44522348
1801.2339107
615.420675893
616.832930123
1801.45559222
1802.2550785
616.573917866
1803.66548553
1804.95559755
620.663812268
618.646664106
1805.11360859
1803.5030288
618.314737329
1806.86511993
1806.80402357
626.274249687
623.453807093
1807.31957684
1806.50875755
626.375668998
1805.80509587
1803.93989452
629.121879642
630.432526383
1806.37654196
1803.33925886
629.050363949
1806.5298934
1806.02414564
623.670857141
626.855931061
1806.23161984
1806.27404845
626.538260121
1805.39190481
1802.46832905
630.42338262
629.408471494
1802.86506431
1805.09548804
629.116975078
1795.06150384
1800.2041669
630.119802091
630.644455684
1795.4158951
1799.64623244
629.955185727
1790.54333794
1786.30154346
628.213814608
626.406429651
1790.68685408
1786.33669976
628.266991857
1794.63201956
1798.69925853
630.568052132
629.769062621
1799.17911805
1794.13231929
629.815248611
1790.21677612
1785.69305981
626.33733927
628.002495309
1786.11732794
1789.72858059
628.123228705
1782.2627286
1783.44434361
623.32585881
624.723083169
1782.23799863
1783.52560905
623.43736228
1782.12330742
1782.2467682
622.879708296
623.783163475
1782.1552143
1782.2761467
622.965087317
1782.26001816
1783.1600236
624.720665508
623.66852215
1783.42158383
1782.23211485
623.523865792
1782.17253709
1782.51022976
624.083731804
623.579687522
1782.35951245
1782.27869908
623.147986102
1780.38385638
1781.88557512
628.884614988
625.798318267
1780.48786567
1781.98252005
628.827326148
1775.18114978
1781.14248582
632.641108571
607.638844531
1775.48834422
632.46235937
1781.16106798
1780.38136757
1782.2477704
626.101374036
629.663400112
1782.04006077
1780.58243321
628.971398611
1775.11170042
1781.8621058
608.099903157
633.357672607
1775.33192271
632.510083529
1781.39402094
1811.26410431
1811.80735849
621.230246151
621.859655317
1810.93547411
621.374142775
1812.19605269
1810.2252774
1808.34626367
620.825532605
620.234844912
1809.83496944
1809.14348515
620.628045879
1811.48187634
1812.07412408
621.520761315
620.730347818
1811.6708849
621.086479069
1812.26282538
1810.59389042
1809.93388924
620.26367779
620.761814123
1809.59771806
1811.04468257
620.517432289
1806.18636308
1806.64070657
618.035188873
619.643396588
1805.08863005
1807.73090793
618.757210985
1804.74857377
1802.57901211
617.105784526
616.98842069
1803.72738999
1803.4508205
617.851402606
1806.75826429
1808.54598032
619.889245153
619.112966876
1808.28441371
1807.10704873
619.078830485
1805.28855345
1804.29123359
617.511602842
618.448072097
1803.92915248
1805.67310031
618.29650896
1801.76721409
1801.80920692
614.82835088
616.16561536
1801.31273394
1802.45308657
615.543223106
1801.50477302
1801.21262163
614.471247015
614.945332408
1801.1812918
1801.42517647
615.182740028
1802.02786508
1803.13475874
616.728448093
616.612099824
1802.81159785
1802.25461477
616.143581787
1801.64568902
1801.60065168
615.516746534
616.265902421
1801.46317956
1801.79370619
615.837020548
1801.35454888
1801.27747635
614.533543819
614.821438395
1801.29169753
1801.38229973
614.916257063
1801.1704698
1800.91053963
614.668351981
614.796004438
1801.20333975
1800.80171092
614.956555501
1801.25426724
1801.473846
615.306907871