/*--------------------------------*- C++ -*----------------------------------*\
| =========                 |                                                 |
| \\      /  F ield         | OpenFOAM: The Open Source CFD Toolbox           |
|  \\    /   O peration     | Version:  v1906                                 |
|   \\  /    A nd           | Web:      www.OpenFOAM.com                      |
|    \\/     M anipulation  |                                                 |
\*---------------------------------------------------------------------------*/
FoamFile
{
    version     2.0;
    format      ascii;
    class       volScalarField;
    location    "4";
    object      p_rgh;
}
// * * * * * * * * * * * * * * * * * * * * * * * * * * * * * * * * * * * * * //

dimensions      [1 -1 -2 0 0 0 0];


internalField   nonuniform List<scalar> 
28582
(
19559.2026741
19557.5720413
19559.3429722
19557.6035783
19559.6931119
19557.6561886
19560.6449409
19558.0647728
553.201606495
608.543806632
-0.0163938422767
19559.202578
18499.545946
18398.3548064
19557.2186655
19557.4403916
18376.1237618
19552.9946941
19553.0234869
19559.8929099
19556.1122734
19554.5471247
19560.0394735
19556.0118195
19554.2994245
19560.8032215
19555.7943384
19561.8180261
19556.5375692
641.263929408
-0.0132948972046
0.0681690705615
19560.7540894
19561.6153152
18502.3022279
18477.13308
19561.8045296
19555.5663612
19557.012771
19556.5373204
19552.8336317
18152.7243668
19553.0364742
19553.8271101
563.3805041
606.006462392
2.09623801067
2.53048669717
582.068188965
2.84861837385
19560.1355442
19558.2964415
18462.0962115
18463.6422194
19559.479978
18427.2966507
19559.1594
19557.2348241
19557.0262901
18424.8926523
18368.6962846
19556.2229364
18401.7676304
19558.1387497
19554.1685962
19555.9892586
18344.5881551
18340.9900539
19555.2074537
18321.2462575
19555.0675298
19553.6680358
18295.0333457
18291.4585982
19553.5632105
18317.4177066
18306.4214481
19554.1263421
19553.1124844
18290.9950469
18293.7324974
19553.6860215
18309.9782272
19553.7797324
18304.7926459
539.172541017
0.954594261207
550.871851621
544.64728419
0.773379381678
0.769162720713
629.884645016
2.92779322095
3.0263147337
666.440409868
4.67979388426
684.84676451
4.5768633684
19560.9873521
19560.8363067
18478.4895177
18528.7890678
19560.015664
19561.7026944
18521.0252954
19560.4930367
19559.2709755
18479.0233535
18526.2768798
19559.4742086
19560.2578615
18521.7570689
18541.9085204
18540.4948596
19561.2543879
19561.6110474
18537.5980137
19561.497274
18534.335215
19553.3078177
18273.7778507
18270.2398925
19552.7664998
18243.1935292
19553.0955398
18247.9836737
19552.5606838
19551.2920336
18202.5150542
18175.2450591
19552.4326045
19551.880614
18216.154529
19553.530652
19553.2282526
18275.9782245
18275.5619811
18261.9474397
19553.4379586
18259.8466251
18245.6329562
18234.9547214
19554.3611169
19553.544848
18205.3368249
19553.1810309
18238.0894167
19553.5500657
19553.9654607
735.270977288
0.133903878338
19560.6883037
18533.3952007
19555.2454259
19553.0925386
18092.4228732
18209.1912374
17982.09968
19550.5506922
19548.4821481
17870.2023537
17591.0745208
538.222410763
710.557173669
765.892446532
6.66946463151
6.35740485654
8.25933785493
828.610966271
891.759841421
19561.1008667
19560.662035
18536.0288442
18513.6821182
19561.5579496
18529.7714323
19560.4320378
19548.5957267
19549.6156709
18011.7085844
18117.9115993
19547.1554201
19550.5348014
18056.6049893
19550.5356659
19554.2123494
18162.8123533
18159.1988078
19552.112226
18108.9943077
19552.7917945
19548.3376398
19547.1812358
17941.0217349
18079.1926841
19545.3486392
18031.7829369
19550.4119414
19538.6968243
19543.4508794
17843.9978557
17757.8616314
19542.1783483
17747.2996012
19539.538837
19535.4613533
19535.1374456
17563.9355127
17663.5649687
19533.6343256
17647.5412719
19536.4003101
19577.2478783
19573.3476858
19571.3510397
19569.3907958
488.888432835
570.104085605
449.933780189
545.216536471
522.53975972
0.056788747832
0.29380360386
0.104991666745
0.192194085602
0.0619796623947
0.198218627881
19578.3131559
19577.2725165
18859.9704051
18866.656185
19579.9568208
18883.9507571
19575.5819307
19574.2721048
18872.217224
18896.8992889
19577.989348
19575.0860791
19574.7238262
18865.8830643
18679.6789821
18892.280918
18730.4208967
19573.0674343
19569.6554032
18631.654718
18533.7608721
18647.4643621
18516.7518743
19572.8614542
19571.6419009
18915.8654983
18770.4500713
18770.0277675
19568.9949579
19570.4735613
19568.6673064
18680.557358
18524.2326806
18675.3932907
18567.5952981
18667.1325556
18587.1628569
484.374448377
481.568990923
491.911453017
1.08481502222
3.21481073372
2.32133968096
4.01253245039
6.20939407888
6.60168338963
6.49521834635
6.14808727487
464.947110943
447.634461388
531.799829556
473.242030247
518.918844895
2.64083494693
4.02179422112
2.05806629886
3.62510249059
585.130253502
563.999309132
580.228266233
5.94660840539
5.66230805013
5.6941382966
5.54048333124
493.424117837
482.228334996
1.18614243344
2.80713491594
2.30500058012
569.266409266
531.084244353
555.307338361
5.05861571677
5.51144972225
4.0774747122
5.16568218339
19576.6035059
19578.7331567
18844.4471391
18851.9884324
19578.0516523
18836.1417817
19577.2529296
19575.8127908
19577.0218893
18853.9032834
18833.0578131
19577.3065995
19575.5188868
18834.8025466
19579.6592511
19578.1091847
18882.3995598
18860.9543176
19578.8921799
19578.6510276
18876.2421871
19574.4134068
19576.1358924
18843.7813641
18876.1371067
19575.0798452
19575.5698174
18863.1692099
19574.3433479
19575.097845
18892.3196335
18881.3625024
19575.4083901
19574.1192203
18873.8627442
19575.439078
19576.9443204
18836.1536781
18862.5344424
19576.9284714
19575.9128536
18821.4117937
19574.6431832
19574.8119996
18763.9050705
18703.3676196
19576.070917
19573.6011532
18761.8770139
19575.3559513
19575.6067642
18882.0100538
18872.5661499
19575.6803027
19575.2052357
18845.1573351
19574.1806687
19573.0120638
18720.7657214
18814.4404194
19572.6075302
19574.2873667
18781.9509152
19570.485904
19574.097531
18606.81841
18625.6290866
19572.9265342
19572.1305716
18543.8467098
19569.0494791
19569.3961963
18549.4739097
18560.1990562
19571.2009188
18544.6931578
19568.2404938
19569.0803732
19571.2661916
18636.1359696
18610.8647686
19570.779501
19569.4368086
18537.8657603
19567.62443
19567.031081
18552.8877881
18567.1898376
19568.2994855
18528.2724392
19566.9598069
19574.8818512
19575.266997
18905.3035565
18909.4327129
19575.2752516
19574.9875781
18911.4281708
19574.2564359
19573.1727889
18852.9139398
18802.3614737
19574.5462056
19573.1060095
18865.0289193
19573.5569882
19571.3671478
18801.7403469
18848.8155989
19572.4414663
19572.7264854
18862.3059011
19569.5554651
19571.5288382
18635.5669022
18724.9316779
19569.1634371
19571.3096389
18615.5078292
19567.6780588
19566.918443
18584.4704539
18572.575388
19567.613178
18563.5367613
19566.7734274
19569.0805334
19570.0113199
18729.6239177
18648.2203587
19570.6664621
19568.6727909
18623.3031616
19567.3662997
19566.9759782
18581.0768203
18620.9882381
19567.7472454
18572.2086611
19566.6657494
19567.824299
19569.2202602
18646.3114566
18682.865547
19568.0457238
19568.62905
18628.3860098
19566.8541174
18630.2161564
19567.4075399
19557.9752887
19556.6602394
19555.4655885
19552.9448341
19551.7403149
19552.1082858
19558.1418976
19556.7870799
19555.4070803
19552.5325314
19551.3965862
19551.7499245
19547.9563213
19550.5015893
19548.7025551
19552.1585877
19553.8593627
19552.5499613
19550.7143288
19548.6355634
19549.884487
19552.7580331
19553.9049632
19554.7572993
19553.9716882
19552.2646598
19550.513659
19549.0366377
19555.1906812
19554.4058172
19554.6439504
19554.3172143
19553.2631996
19551.7022594
19550.267402
19549.4444712
19557.890201
19556.2116487
19555.7115175
19555.0870447
19553.7142381
19551.9612741
19550.5467328
19550.3098044
19553.9208995
19552.2139148
19550.9067452
19551.1285773
19545.7359639
19547.2145313
19549.3545361
19552.1294974
19553.6791524
19552.5163258
19549.6360839
19546.849575
19550.1922794
19550.4564987
19555.0039103
19555.9435347
19554.4844723
19552.0015971
19549.4801842
19547.6110322
19554.8421742
19554.6960683
19555.000301
19554.4334819
19553.1392932
19551.1065642
19549.3398787
19548.2381878
19558.0348707
19556.4590954
19555.9527637
19555.2408616
19553.6455373
19551.4603801
19549.7568368
19549.3615327
19553.5812641
19551.6216297
19550.3972658
19550.4755309
19544.4869124
19542.269991
19551.6545833
19554.4079843
19554.8209234
19551.5329532
19546.3132509
19543.7554998
19549.5634106
19550.2917313
19552.6524097
19554.9490029
19554.8930195
19550.5687048
19545.8409595
19544.3567115
19555.2534142
19555.3150372
19555.2394368
19555.0873683
19553.2561893
19549.3264775
19545.4609579
19545.1546324
19561.8490245
19558.4770114
19556.9985556
19556.227239
19555.2316578
19553.0096141
19549.0864995
19545.5275921
19546.377854
19558.7896228
19557.1134609
19555.186457
19552.6134028
19548.9329377
19546.2609479
19547.6265893
19550.5198323
19548.1527451
19549.2255857
19548.2701882
19547.7642917
19551.5590823
19555.5890171
19558.6829815
19552.7566158
19544.0290757
19542.9945469
19550.7397744
19551.4447531
19553.3856895
19553.944469
19556.7794465
19558.7163337
19552.5887988
19544.0659435
19542.9797607
19566.2211729
19560.1993055
19556.1334246
19556.0801286
19556.1043889
19556.9194815
19557.5855779
19550.9223635
19543.1934428
19542.7734221
19563.2778727
19559.0395391
19557.2737824
19556.6446259
19557.0191697
19556.0993017
19548.9407093
19542.4599287
19542.9233562
19559.9709412
19558.0842868
19556.3793439
19553.6606667
19547.1402043
19543.2600814
19544.5838593
19549.0109902
19546.2655833
19547.4823916
568.59718655
569.138393425
555.546248503
559.747399734
624.717746657
815.422299386
924.337478442
932.313102921
583.505722003
548.287402208
525.206563109
536.951457595
538.13992213
547.46472609
631.840632308
818.23153382
903.163799534
897.061828312
564.715232323
546.850711832
538.023350187
526.994963166
540.148917766
571.67709685
664.458985361
835.260525766
918.138950837
932.999380807
550.695979794
577.630902795
566.054370621
559.618721848
593.059243995
701.945188841
854.890103248
944.393894478
998.334770197
534.156609106
564.79386909
632.066124792
750.330827249
883.139520586
955.721904585
977.140944153
856.27089222
941.444381591
955.075088514
0.0178673683603
-0.0724609566515
-0.073324846534
-0.0616225742751
-0.0457752582046
-0.0144625622078
0.0727486161526
0.291305983377
-0.131575125619
1.13772372681
0.0191788747162
-0.0274611009453
-0.0281384577104
-0.036399017299
-0.0324132856079
-0.000745453622688
0.0960355540051
0.20933169071
-0.133310449646
1.2944833927
0.115133157227
0.00310182011704
-0.0135738321888
-0.00714010650446
-0.00897192638788
0.018756741911
0.0955936722101
0.249534997445
-0.167287091285
0.831119853185
-0.00936042709753
-0.0174638675863
-0.00242102155332
0.0111359150576
0.0403933773453
0.158623473162
0.314767037362
-0.191212277739
0.754693739763
-0.0186874616082
-0.0440131828947
0.0149177419679
0.213558884197
0.121137730666
-0.132204061625
1.33094327576
0.000703029749255
-0.143078506191
1.58350850082
19549.5451905
19548.1314074
19550.4102326
19546.9422256
19548.5023619
19547.7390903
19548.9745488
19551.3765482
19551.6439145
19552.3083887
19549.305109
19546.9046955
19549.6402643
19549.6337312
19551.5459347
19552.0395381
19552.4532075
19549.7539319
19551.2943215
19551.8313081
19552.3606092
19553.0175595
19553.4372436
19553.9762096
19552.091097
19552.0057676
19553.5375353
19554.4878484
19547.0420089
19547.1970313
19547.9418401
19544.6265796
19545.4775294
19546.1874647
19545.2578074
19546.2551536
19546.6762413
19548.0029078
19543.4651602
19543.3456168
19544.7706118
19545.1974382
19550.6816247
19551.7540135
19552.4145616
19549.6830917
19550.522074
19551.9001143
19552.1001488
19550.7329588
19553.4813989
19556.5856178
19549.6808691
19544.9909239
19552.3130974
19554.5079452
19544.2070839
19546.5329951
19547.2996948
19545.4394117
19544.1035977
19547.5676656
19547.6228031
19543.7636162
19544.4841914
19546.0611589
19542.7968594
19546.9211644
19547.0748785
19550.1447367
19550.6452885
19552.0483383
19552.4849326
19550.0870574
19551.2495283
19552.2766927
19553.2693922
19546.8398646
19552.7066833
19554.1020392
19551.6413178
19551.8000309
19554.1757256
19555.6757586
19546.876193
19548.7151605
18223.131683
18325.3545234
19548.8134753
19549.936841
19550.6566736
18230.2203381
18274.8441823
18328.5678549
18335.7637457
19548.9154896
19550.8446964
19551.4762454
18285.5627531
18316.2538054
18336.5411519
18347.5751129
19553.6616981
19552.2844257
19553.9969284
18328.5410161
18358.5144954
18356.3514835
18389.1198035
19557.8805391
19555.9278045
19558.0935652
18373.2827289
18417.4114362
18403.7330417
18453.2095951
19556.7840078
19558.7354078
19557.1051867
18423.2525031
18254.9641436
18454.2171153
18247.8277526
19547.4372325
19552.8933743
19547.5428004
18081.6369432
17459.0219668
18077.5905653
17523.800796
19542.7477382
19544.121473
19542.7485135
17374.1646543
17381.8042615
17439.5909412
17429.8554818
19543.5788208
19543.0314962
19543.8213477
17435.5288796
17421.0387718
17492.9876083
17424.8827569
19565.010013
19560.5695178
18538.1743608
18424.9475641
18521.4989587
18516.2760003
19550.2462173
19556.7367678
19554.2073295
18394.2278601
18372.4620242
18495.3247169
18465.1713465
19552.6906583
19553.6847032
19554.364031
18373.52942
18367.3431945
18462.8795372
18463.6121516
19553.7717164
19555.121119
19555.5412877
18365.3472958
18373.2433522
18462.8907532
18455.1660402
19555.15132
19555.9799484
19556.3646476
18379.5039398
18406.0895169
18447.8752974
18389.5831193
19558.3837748
19557.1168776
19558.0906012
18417.9872726
18451.1092309
18383.311732
18385.7898761
19556.8178774
19558.1962758
19556.0812932
18443.8039272
18224.7388849
18377.3597961
18157.898139
19547.4575968
19551.7777623
19546.9542681
18059.7129606
17536.8760872
17997.6729244
17513.6686253
19542.7160829
19543.6891212
19542.4363443
17460.4395379
17443.7034289
17442.8784394
17440.7670654
19544.0310326
19542.7688481
19544.3495187
17508.2228897
17422.4480208
17501.0732372
17399.8740355
19563.2473371
19566.6794781
19564.5104767
18525.9496367
18544.5630918
18559.3270349
18565.2153154
19557.6656551
19562.0591682
19559.6304963
18525.5430417
18476.7228938
18528.9823667
18423.8750297
19555.8118052
19557.6499626
19556.6906462
18466.3975564
18462.1516473
18402.0313152
18382.4626939
19556.2036332
19556.5009948
19556.3498894
18467.5318199
18451.6702025
18390.9372619
18376.0794724
19556.2456019
19556.2140615
19556.4110651
18427.6932601
18364.7208482
18355.7212631
18336.5082172
19557.7976035
19557.0083215
19557.6091926
18360.8083107
18378.2366397
18339.0191545
18360.7898537
19555.1171622
19556.9785511
19554.2396626
18368.9315721
18140.7588886
18343.6875755
18055.4569438
19546.1791508
19549.9675682
19545.3995479
17978.8519388
17496.3055271
17882.7798314
17407.5214997
19542.0766138
19542.8172834
19541.5882919
17424.8620686
17435.2811354
17345.2889462
17368.6945476
19545.060239
19542.6189987
19545.8662664
17488.6692379
17393.3042308
17405.7783123
17366.1059055
18580.9776338
18578.4715391
19561.0020382
19562.310846
18538.5505661
18415.4726714
18494.5982692
19557.7728972
19560.5381755
19559.2810269
18390.7308304
18366.8763562
18466.991488
18434.9459784
19556.9171698
19558.5748767
19558.0621801
18378.8710513
18375.0524504
18442.212187
18456.0704965
19556.7262574
19557.4147026
19556.9626162
18352.7002022
18339.2039445
18423.3757144
18314.5141767
19557.2780121
19556.7949402
19556.4556825
18338.3814158
18349.7468951
18305.6547556
18258.0826791
19553.1655912
19554.8674509
19551.8548341
18328.5372002
18021.8543341
18207.7910249
17827.1620273
19544.7215206
19547.8783322
19544.3527716
17850.327814
17389.8828962
17674.3109699
17329.2244125
19541.6902804
19542.4116343
19542.184904
17331.8863415
17360.9755919
17310.6728102
17368.7779529
19546.5530492
19543.523689
19547.2341544
17400.1145726
17361.1577199
17420.5311686
17378.9652229
19559.1749581
19559.4840505
18483.2978529
18499.2231482
18440.1078185
19557.0434176
19558.2479543
19557.1677051
18455.3241471
18293.3565592
18401.3203484
18294.748501
19555.4555653
19556.3223777
19555.1711473
18269.878035
18192.7451289
18269.3336111
18132.0513755
19550.6528987
19553.3136944
19550.6223755
18137.5659191
17768.8521986
18060.2067644
17764.3173357
19544.6208664
19547.7083309
19545.7270615
17634.600102
17344.5957852
17670.5474833
17463.9534669
19543.3851444
19544.9153846
19544.9438849
17337.4944079
17396.6253785
17442.2177707
17509.6663278
19547.7696213
19545.9457283
19548.5874879
17449.5745354
17378.3762863
17569.417578
17302.0685052
19551.5726435
17822.4978578
19547.123661
17727.7314293
17509.1683406
19546.4517219
17473.9800529
17527.9082789
19549.8215329
17587.4685184
17284.5906079
4.62792789496
1.39398346302
3.8946644433
0.978518540102
558.033330877
541.563860854
0.0900838342202
0.0495834063522
0.0611255964992
0.0436721165112
572.218070882
550.010995259
553.756961034
0.0565402747469
0.060368076619
0.0508386190593
0.0747081770189
561.726294493
554.491376697
552.845539505
0.0611910630034
0.059179726038
0.10031964652
0.0962740245435
554.654211598
549.757702673
548.232490786
0.0771752399102
0.183827118542
0.102599126588
0.109447124791
576.311011472
552.22442032
569.365164922
0.367028075328
0.606822162484
0.124753483064
0.490687636241
715.424237521
622.547150722
716.256491601
1.85807107598
5.60427963816
2.22681417666
5.60676377547
898.007177961
814.211992761
887.391873132
8.86638355733
11.6577061941
8.52612191269
11.1314951365
919.767644218
910.093151688
902.466160874
10.415950951
8.0171856083
9.96877544798
7.89005091942
920.161087467
909.13583954
902.747665089
11.8173533031
27.144201641
11.9374846497
28.006515258
562.447512708
575.00442813
560.603010392
3.56887235803
1.46162351796
3.83997804966
1.97510877828
527.743913243
547.732499206
532.030098588
0.731119868783
0.0508279678503
1.20607791106
0.486483107405
530.608706442
518.821474968
515.281498583
0.0502031763191
0.0694125968986
0.0719984966824
0.0589141506635
538.81174676
521.120193925
524.333389846
0.0900698569253
0.0988977433517
0.0882245518575
0.115393186024
540.158846479
529.389940965
540.397495556
0.114985941078
0.129893577454
0.20690711007
0.213431789237
572.00315859
557.416475442
588.801297632
0.117434982935
0.790536938939
0.435508370464
1.32490455223
724.491539931
649.218864676
737.866069706
2.80559018404
6.03124093573
3.35090021375
6.39585496154
884.434602843
826.660613022
888.78753277
8.53833741988
10.7645790752
8.89391936003
11.2393081396
894.453170669
906.482874664
899.287498342
9.7159518322
8.07508819087
9.91494857146
8.26309703421
887.234400375
903.864649322
896.487808909
12.5846300027
29.1835350706
13.3342347126
30.0954726606
553.833061317
553.101566579
549.572933868
4.45018095192
2.70480167266
4.78582069591
3.87128045866
543.240985662
555.003402797
562.52780917
1.57309261468
1.0675326684
2.79227864502
2.10292370636
530.793052104
563.387298635
558.774026312
0.576619673249
0.191810660571
1.62924754732
1.01920390382
531.561461192
552.012972109
550.064276478
0.0741388280915
0.123694533852
0.535049702797
0.972130389823
553.418769455
552.664945261
562.338116756
0.408701976875
0.951622662864
2.04802339579
3.01551692343
604.121016263
581.582129156
616.762001661
1.41408158905
2.17355477282
3.31178680013
3.55694271085
750.957587728
680.930070125
765.443391093
3.90097343034
6.80413245922
4.91280850514
7.48578327041
896.533200865
845.083331221
908.016663821
9.28912538977
11.7893555524
9.84305064452
12.2991204082
916.532496352
931.958176246
941.825504362
9.7462368249
7.77482010995
10.1562764029
7.90103501495
935.016484686
970.018529177
971.164243186
11.5101487417
25.034487033
11.2294121951
25.3523066082
567.901910276
556.918957757
3.0453695038
2.48066751526
1.97732384358
575.490498278
566.678535563
564.068511225
1.98805376723
1.16023387839
1.44176743984
0.927016564698
559.151970429
553.905998503
553.378651072
1.02820877281
1.68991725287
1.00969820971
1.11688290622
568.900157892
561.744390611
579.743830876
2.65304065088
3.15462232604
1.74823720576
2.25575251207
634.966195737
608.223904807
655.563105947
3.20128615877
3.39233720814
2.66544981439
3.60601420135
780.05489774
725.614232474
799.608746191
5.13663668126
8.00792420694
6.03113434316
9.1907448497
918.949751778
870.657970186
929.484562451
10.2480839615
12.8081706582
11.2238529456
13.4738654144
966.94308479
955.084094
983.068020568
10.4470592012
7.99126729166
10.8221654315
8.23508511453
992.827159337
999.382157392
984.367436707
10.7379058572
24.5175350285
11.481420478
25.6997310114
539.701314872
546.949530642
0.719653421772
0.551725727752
1.16732122169
1.44350841035
596.126795904
570.981527111
604.230567798
0.396812482198
1.21638734949
1.438770703
1.74797677398
683.83535478
643.031510998
694.997818799
2.29566196153
4.2117313914
2.88386697767
4.86211387909
818.201537622
754.355415597
815.750141074
7.19278443429
10.3055474529
7.64928540387
10.8932643605
934.53010561
877.081087866
927.152864185
11.2966678972
12.6094501323
11.562616675
12.32950414
975.698427193
949.88446617
962.918356528
11.4604225121
10.0995013661
11.2959101439
10.6986211532
958.744615935
959.789624757
949.79243026
14.8386939844
30.458773146
16.4792053584
31.1168213356
793.969891754
9.18159429574
911.811826643
10.2275389286
10.8307638956
8.98390670814
9.70860000161
957.971093335
10.9043912362
10.8408340165
10.0621808619
9.31262714442
944.126043337
17.1635300691
34.5696801417
13.9771189463
33.5626260738
19546.802256
19546.5078684
18212.3582057
18251.5855027
19547.1880285
18251.33785
19545.9900993
19547.9316423
19549.0591543
18282.8531547
18315.4240827
19548.7344887
19548.2831823
18282.4917157
19549.2046616
19547.318519
18241.9578565
18257.5246229
19548.155633
18268.866077
19548.3393611
19550.0080372
19549.3219703
18258.8617412
18284.3926818
19550.380619
18276.395771
19549.0707285
19550.2787647
19550.2281641
18288.361452
18331.0441059
19549.4701827
19551.0044791
18301.3640076
19550.9325384
19551.4655762
18314.1160288
18333.0326139
19551.338743
19551.3854497
18308.2639725
19550.421486
19549.5227888
18296.0453016
18293.2850982
19550.4695396
18301.4795921
19549.8682928
19550.7224744
19550.650806
18306.209853
18316.3010393
19550.9674913
18309.626531
19550.2812468
19551.4620949
19551.6603586
18319.123501
18338.3119354
19551.4789506
19551.9103597
18323.2465561
19551.6213087
19552.3377992
18330.588994
18342.0359629
19551.7831622
19552.2014429
18327.0453273
19552.0554759
19551.3191577
18339.4069366
18324.3486691
19551.4677327
18333.7709518
19551.9496083
19552.6885325
19553.2486871
18349.2391652
18359.2500259
19553.5214715
18346.0234181
19552.5522275
19552.3743579
19552.5310842
18336.6128171
18366.9883511
19552.0153167
19552.7792431
18344.177551
19552.9571038
19553.9947624
18371.2464986
18377.7008089
19553.7845567
19553.2037474
18355.5354902
19554.2353274
19553.8187053
18392.0579276
18374.5151394
19553.9285646
18393.9151574
19554.8186778
19554.8839348
19558.3019014
18408.6659267
18438.9041219
19556.6211921
18416.0771713
19556.2383828
19555.3411415
19554.8982875
18388.7960231
18421.6769683
19554.5037419
19556.1242881
18407.5849087
19556.6026386
19559.3741708
18443.7503297
18440.5942174
19558.5000869
19557.537824
18425.465632
19558.9912771
19560.3904531
18420.1639936
18448.720219
19558.3733404
18435.6730451
19561.6237194
19557.607192
19556.7416747
18364.5635391
18263.5714642
19554.094047
18371.7631335
19560.520623
19561.1025763
19560.8393868
18452.1189281
18437.0652336
19560.3136994
19561.6077796
18438.4134876
19560.0411347
19556.7058846
18259.6170707
18363.8666138
19556.5243611
19560.3090877
18371.8657964
19540.7179438
19550.6762518
17870.221589
18084.0808672
19548.1935078
17875.4621325
19541.8049426
19533.0381387
19524.8948404
17647.7322839
17497.0493065
19525.8692611
17671.5323652
19532.6774489
19542.7619859
19551.1320824
18084.6477142
17887.6082974
19550.3707219
19543.375838
17883.4411165
19535.1996326
19528.5227913
17519.9219599
17689.9972697
19527.8864004
19535.7791402
17688.7790415
19520.4487304
19520.8452747
17329.3524006
17404.1970765
19521.0347969
17338.4571012
19520.2237913
19521.3304547
19522.9440466
17358.5828063
17397.824848
19522.709741
17362.6245542
19521.3529507
19521.4192464
19523.4685642
17422.7971886
17390.9434082
19522.7520074
19522.0518391
17355.3212332
19522.1412259
19523.8820391
17410.074984
17406.4002635
19523.6661486
19522.7413574
17374.5363001
19522.9719108
19525.0035268
17486.0601875
17460.2523848
19524.6882555
17505.5682934
19523.4821762
19517.8302488
19524.0472531
17290.7263551
17422.9510801
17306.7891609
19523.4501931
19518.5173286
19523.605473
19525.2412103
17476.5394585
17528.3252925
19525.4628119
19523.5161451
17513.6716536
19517.6269594
19524.081017
17422.3683452
17316.4412402
19516.9955695
17306.9141248
19523.624357
19562.6001902
19566.036221
18520.5702555
18537.8025279
19561.993134
18514.7149802
19565.7424044
19559.7517636
19554.9062126
18473.2455741
18469.2932384
19558.2879035
19557.2361924
18494.8299768
19562.8580059
19565.498641
18539.4366103
18543.2433307
19563.989671
18514.3068057
19565.1435279
19560.7748425
19560.986249
18495.3659139
18540.0078307
19558.68726
19562.6114263
18502.2802519
19552.3173571
19552.1731574
18355.3414804
18421.2680214
19549.9245187
19554.4009293
18393.3037237
19551.4923783
19549.9371194
18358.1786519
18412.9370069
19549.1037765
19551.6917359
18401.1311631
19554.4530384
19559.1250796
18465.0128227
18485.1030495
19556.2629271
19557.4208968
18432.8375719
19553.7750742
19555.3920612
18435.9428923
18476.490059
19553.6287999
19556.2505444
18433.6306896
19552.9038805
19551.040605
18371.0674575
18418.8575722
19552.1491643
19552.6358577
18419.7557923
19553.3130089
19552.4732491
18368.9248902
18399.7813361
19552.4231236
19553.4787813
18408.2267953
19553.8726118
19554.7596633
18439.6459949
18459.2539665
19553.6468996
19554.4790004
18444.5252462
19553.8635864
19554.5614391
18438.9795932
18458.6679895
19554.2405291
19554.5705071
18444.7175288
19553.8208332
19552.7159899
18366.4590575
18397.3691267
19552.9842902
19553.6366405
18398.1712203
19553.9957802
19553.3544031
18369.0113552
18403.0025467
19553.2579158
19554.0507675
18400.1188716
19554.5011307
19554.673834
18431.8611738
18457.6652607
19554.4267509
19554.8671721
18430.4498673
19554.7404565
19554.9294915
18432.3066428
18454.8031547
19554.8582781
19554.9786737
18430.7714933
19554.251333
19553.4340903
18387.6903652
18405.9240138
19553.56784
19554.1659296
18408.5994355
19554.5299444
19554.3845117
18396.2510465
18418.9346648
19553.8276391
19555.0363789
18414.4175218
19554.8025634
19554.7352903
18433.6160441
18431.3759292
19554.9058275
19554.4644452
18435.5388951
19554.797894
19554.2263201
18413.7296029
18411.4867931
19554.7989234
19554.2200425
18426.8441225
19556.5026389
19555.0786711
18432.4035008
18424.4796629
19556.1325822
19555.6150436
18425.3608201
19557.6334724
19558.9960027
18443.2453507
18431.9234815
19557.354
19558.9782924
18432.1530746
19555.6963054
19554.892344
18404.0683019
18378.2613766
19554.8296949
19556.0003368
18402.109849
19556.8442112
19558.7875008
18407.2019353
18382.7890591
19558.3430674
19557.2979131
18406.885098
19560.1351998
19560.3480148
18417.6229298
18422.9592773
19560.6542369
19560.0092068
18392.7184233
19558.6327844
19555.3600243
18340.4194848
18195.9683754
19559.0096251
19555.068982
18312.396928
19559.4681336
19559.7558951
18398.3097145
18348.9792005
19559.4083603
19559.735929
18368.8815668
19557.7435698
19553.9630951
18173.8779774
18273.5890982
19554.1263437
19557.8622652
18289.2153764
19542.6810303
19549.8782798
17875.4563314
18031.2584596
19542.5028768
19549.4699053
17857.7184703
19535.7413435
19528.5968479
17690.8298565
17540.7044783
19535.2104499
19529.2053543
17685.4133426
19541.6620969
19548.383675
18012.9922439
17824.7347396
19548.6960107
19541.3154352
17839.9818218
19534.6514
19527.9907287
17531.7341094
17654.7740451
19528.2040191
19534.3043386
17672.7246606
19522.8409323
19523.9682961
17407.8609408
17460.9058329
19522.288952
19524.2932241
17404.238434
19522.9553887
19524.0973916
17419.6191605
17454.1371907
19522.861021
19523.8126142
17419.4119731
19521.9537143
19523.8175226
17456.6859799
17398.2775906
19523.3911416
19521.7702566
17403.7395891
19522.2473375
19523.6992359
17456.7751502
17416.0275548
19523.3368011
19522.4123187
17421.8681239
19523.0755086
19525.181612
17529.4234575
17516.0825439
19523.3280931
19525.153042
17528.6663477
19515.7113425
19523.1905768
17324.1516657
17416.5060435
19515.922923
17321.8824576
19523.1062203
19522.3776099
19524.9608853
17518.4398263
17509.302495
19524.5239337
19522.7615273
17522.6308995
19514.8493609
19523.2840934
17409.2792851
17304.426171
19515.2102912
17314.4770703
19522.6924418
19565.0518065
19565.8390542
18554.194691
18573.3155284
19564.2193382
18551.9085087
19565.903089
19563.8638604
19562.182982
18559.160072
18561.2736603
19563.1016115
19562.7958751
18549.9041638
19565.2817842
19566.2755558
18583.3307627
18577.6159164
19565.6084591
18561.2759028
19565.9304744
19564.3506
19564.1756521
18558.6264144
18585.3032344
19563.514641
19565.0576035
18553.1125564
19560.1220122
19560.6539584
18516.0444074
18551.4008897
19559.0023933
19561.5547164
18525.2263646
19558.5294544
19556.4379162
18496.3663837
18468.7985936
19557.6594523
19557.1107738
18496.1098297
19560.6022264
19562.7293127
18541.9780705
18496.0562233
19562.1892274
19561.043626
18508.8580527
19559.1202602
19557.5373128
18445.882784
18459.4392036
19557.5264906
19559.0474685
18474.2737901
19555.0193757
19555.5027588
18455.1498259
18451.6412852
19554.6616656
19555.7108226
18437.0312746
19554.5260275
19554.6967929
18457.6607689
18442.987621
19554.5186862
19554.4151171
18440.6403945
19555.0936677
19556.2099458
18422.132663
18384.4382685
19556.0008821
19555.0392359
18405.3985677
19554.7079189
19554.0445388
18407.4688246
18380.4487092
19554.4811111
19554.1665387
18407.2728961
19554.7350534
19554.9276796
18468.2573361
18447.0626661
19555.0877828
19554.5592917
18452.082031
19554.5932226
19554.805929
18464.3516429
18433.1539659
19554.9786292
19554.1656665
18446.078535
19554.6577757
19554.1167554
18411.3527512
18398.9895267
19554.4343519
19554.1750382
18413.6729279
19554.5874419
19553.7083511