/*--------------------------------*- C++ -*----------------------------------*\
| =========                 |                                                 |
| \\      /  F ield         | OpenFOAM: The Open Source CFD Toolbox           |
|  \\    /   O peration     | Version:  v1906                                 |
|   \\  /    A nd           | Web:      www.OpenFOAM.com                      |
|    \\/     M anipulation  |                                                 |
\*---------------------------------------------------------------------------*/
FoamFile
{
    version     2.0;
    format      ascii;
    class       surfaceScalarField;
    location    "4";
    object      phi;
}
// * * * * * * * * * * * * * * * * * * * * * * * * * * * * * * * * * * * * * //

dimensions      [0 3 -1 0 0 0 0];
oriented        oriented;


internalField   nonuniform List<scalar> 
92311
(
0.201523597462
-0.000147490682024
0.000431061032448
-0.201528182736
-0.000278985038866
-0.000202065059424
0.201386639948
0.0010613355061
-0.000722094469662
0.201491899625
-0.00031604670377
0.000449671104752
-0.201486462022
-0.000286300151803
-0.000441805720781
0.201363021221
0.00109270322424
-0.000723716153555
0.201363243579
-0.000120819552937
-0.00012858540851
0.000454217111894
-0.201385771872
-0.000317968636846
-9.66243357245e-05
-8.36045502476e-05
-0.000167422322546
-0.000186218068824
-0.00011512420069
0.201177300027
0.00112092882296
-0.000802793493679
-0.000105090287405
0.050362105862
-1.76309588891e-05
-3.16419532657e-05
-2.97289016058e-05
-2.40793353757e-05
3.40323228229e-05
-0.050350648088
-6.32241665795e-05
-0.0503568325833
0.0503109851706
-3.16442381829e-05
-3.08691920061e-05
-3.22288697486e-05
-2.983018917e-05
0.000176546064746
-0.000173559330514
3.98206337794e-05
0.0307127652618
4.21234378807e-05
5.50652602422e-05
4.1367951746e-05
-0.00162345381014
-0.0328661791739
-0.00127813399048
0.00487676220493
0.0273217141708
0.00764714744184
0.000382897381291
-0.0289629069891
2.23750683615e-05
1.71633478364e-05
1.11219992597e-05
1.26778272938e-05
-0.00645225962091
-0.0143250874891
-0.000914571933775
-0.0018378805213
0.000792825530338
0.00204788629092
0.0130999655402
-0.00258765193814
0.000755762798989
-2.92256048957e-05
-2.80132734999e-05
-2.82433881733e-05
-2.71049610765e-05
0.00010915472179
-0.000119928702228
1.04990991971e-05
0.0124572421503
1.62123534376e-05
5.47339990288e-06
-0.0124495048505
0.0124534345118
-2.38910379821e-05
1.81824401408e-05
-0.0124579635818
1.91730310287e-05
-8.92614579856e-06
-0.000216687278939
-4.2250019232e-05
0.0502708092589
-4.27802948345e-05
-3.9193320953e-05
-3.79497507404e-05
0.000232736844592
-2.53235173733e-05
0.050234061
-2.82313315393e-05
-2.27712519784e-05
-2.32037357463e-05
-0.0502602279228
-0.00020615320657
-1.58737220692e-05
1.67795673653e-05
0.0124446260216
2.06968020579e-05
-1.28502938269e-05
-5.65436263507e-05
0.0125494448519
4.70511662967e-05
-2.87573040621e-05
-0.0125534532448
0.0125468506464
-5.48524994253e-05
-2.44025154991e-05
-0.0125495412071
-7.69395499586e-05
0.202061433534
-0.000413634697183
0.000337730965316
-0.201908590154
0.201314835774
-0.000255494082537
0.00127901074034
-0.000950972718975
-0.000285426691962
0.201274531364
0.00132196292968
-0.000995583888916
-0.000113356357899
0.201985466353
-0.000335107455389
0.000344998557001
-0.201958774068
0.201294617008
-0.000577439855809
0.00131812942979
-0.00092721655207
-0.000674124706831
0.201325478534
0.00135561196499
-0.000997250759745
-5.082224976e-05
-5.80916389226e-05
2.01970474015e-07
-0.000457459279049
0.201895598336
0.00036852046957
-0.20182467805
1.34572660539e-05
-0.000250561389281
-0.000308817875127
-0.000176670690268
-0.000219712007977
0.20120454631
0.00136210532633
-0.00101102579944
0.0504726019467
2.97001619124e-06
-9.13307117462e-06
-1.63788173128e-05
1.10425493794e-05
-0.000285767164892
-0.0504460473075
0.000219884395064
0.050237024309
-0.000252082153478
-5.66650223973e-05
-5.87778205894e-05
-6.35048066519e-05
-6.69201188591e-05
0.000281145039689
0.00766299143963
0.00272585460295
0.0239207027065
3.41679328701e-05
2.88688652862e-05
5.29331496364e-05
3.56319423626e-05
-0.00713976756875
0.00151073963737
0.000685120461768
0.000112544939255
-0.00468385339196
-0.00574823248008
-0.00512901573475
0.00358371923527
0.00360808830362
-0.00113211941169
-0.00247494017267
-0.00299061426417
-0.00365270071603
0.00533939810867
-0.00204560281677
0.0113535215264
0.000117492206887
-1.20093157435e-05
-2.61148139789e-05
-2.58351343803e-05
-2.06889607172e-05
0.0505157501083
-0.000134140841454
1.82751838121e-05
1.00483238732e-05
1.27359721761e-05
4.56768227609e-06
0.0503956068614
3.68946740317e-05
-0.0503604198458
-1.67127322339e-05
9.73037278725e-07
0.0124651518863
-2.12604020177e-05
2.28181424071e-05
-0.0124509705592
-2.17035470941e-05
2.872497412e-05
-0.0124732418307
-4.69371928507e-05
4.27052300215e-05
0.0124703869826
2.76450232114e-05
0.012577698886
-2.27599517579e-05
1.02596018893e-05
-0.0125745863877
-0.000272142227046
-8.13315971059e-05
-0.000100815541014
-8.29749546655e-05
-9.34198805889e-05
0.0502579622205
0.000300912842667
0.0502173672516
-3.91906256374e-05
-4.56311885444e-05
-4.14791101825e-05
-4.46844088542e-05
-0.000241091601634
-6.38271479762e-05
-6.91030832165e-05
-6.13096079499e-05
-6.99174645397e-05
0.0502482270184
-0.000258617242096
-5.82847816822e-05
4.87038055226e-05
-4.0329807619e-05
0.0125426216701
-9.60595313289e-05
0.000108900725727
-0.0123354210095
2.94926793377e-05
0.0123130055368
-1.99605653434e-05
-5.63008492282e-05
-3.48998489441e-05
0.0125405144849
-0.0125399633025
-5.51260922342e-05
0.012533700478
6.00318872021e-05
-6.24252922762e-05
0.0296053016311
3.51908672587e-05
1.52720616822e-05
2.27698984475e-05
-0.00334399283335
0.006052755884
-0.00169834957275
-0.000125949643403
1.33349270884e-05
1.42946786459e-05
9.88231704391e-06
8.25499659796e-06
0.0275816137842
0.0089781801535
-0.0288327556984
-0.00158756931317
0.00360620587254
-0.00526732759365
0.00220940062885
-0.00567588964023
0.00269423103264
-5.43430741573e-05
-0.00141519175737
1.14133236873e-05
4.15057359754e-06
7.45522549772e-06
-0.00504934351723
0.00706619807653
0.000545193274207
-0.00842365284806
0.00157535966042
-1.35627379976e-05
0.0125853085111
2.67456084409e-06
-0.0125814713031
-0.0125838901074
-2.44058737816e-05
1.54510242416e-05
0.0125857978501
-2.45905632145e-05
1.76600749964e-05
1.90183415527e-05
0.0124589354186
3.73737482259e-06
2.8614716877e-05
0.0124557422758
-0.0124488119164
3.57315535079e-05
-0.0125786075883
-1.99190066467e-05
0.0124585206407
3.19935730206e-05
0.0125892095451
6.5261668595e-06
0.0125843810406
-1.66944307959e-05
1.95403723261e-05
-3.06232262874e-05
-2.29711577591e-05
-0.0125903943226
0.012587634417
1.58505363483e-05
1.8455422083e-05
2.0082027572e-05
-2.39791319308e-06
1.03436540652e-05
-0.012454260879
0.0124520597844
2.63677323707e-05
0.0125793572859
-3.59616793353e-05
2.86901279167e-05
1.12731734229e-05
-0.0125703425483
-1.31184143544e-05
3.65673720325e-05
0.0125625324116
-4.73051401518e-05
-2.86869626017e-05
0.0125790737491
2.30115167235e-05
2.13813499897e-05
1.45694239307e-05
0.012436372976
-1.61952563734e-05
1.08008483877e-05
0.0124426751903
2.34741298257e-05
-4.12791438866e-05
0.0124339683018
2.42348050015e-05
0.0125687318117
3.14346976481e-05
-3.3565163286e-05
-0.0125580645174
0.0125524600547
4.33518939e-05
2.20072215553e-05
-0.0124193934316
0.0124015804473
-1.54394754514e-05
-0.0124203513925
2.75690632974e-05
0.0124031711224
-2.05585380199e-05
4.28479012631e-05
-5.25701772689e-05
2.11320530552e-05
2.17034424337e-05
-1.47962252727e-05
2.67522015905e-05
3.72492471675e-05
-2.77691968289e-05
-0.0125469148416
0.0125459161257
-5.43621131048e-05
3.23039474673e-05
-0.0124201870218
0.0124042903846
-0.0124239556551
0.0124080098754
3.46833631122e-05
-5.11337076288e-05
-1.63463566231e-05
-0.0125574653747
1.90332394963e-05
-3.09669924218e-05
-0.0124341996167
3.19121877429e-05
-0.0125516986337
-5.07143751359e-05
-0.0124326831792
-0.00186802705048
0.00214921932307
-7.41804408544e-06
1.12290369725e-05
9.38305673553e-06
5.52298724205e-06
0.033547297252
-0.035006856252
0.00115944576866
-0.00268027919537
0.00849408449255
0.00233213524527
-0.008513863026
0.0312417046404
-0.00190289725553
1.86789902454e-05
-1.93778004431e-06
1.1505004943e-05
0.00480748067011
-0.00311582007253
-0.031075709508
-0.000500500992813
1.27275348215e-05
2.13792847861e-05
1.57564506085e-05
0.0308355592482
0.00298314039488
0.00503018573337
-0.00320508177179
-0.00689304321474
0.00384760990184
-0.00120159250747
0.00315902993916
0.00230055832176
0.0238377143518
1.85074139971e-05
1.39874830712e-05
1.74581191638e-05
2.24613013021e-05
0.00903372164972
-0.00309805890421
0.00317504659716
0.00469410892302
0.000432057504037
-0.00058326650948
0.00471850878409
-0.00725130156436
3.52294301524e-05
4.46561591171e-05
5.27595224204e-05
3.42430128391e-05
0.0173587418701
0.00884226097523
-0.00336103182104
0.0033747219197
0.00489507580888
0.00468673416411
7.36079555965e-05
6.56003164965e-05
5.22138855805e-05
0.0182507706127
-0.00655595144664
-0.00121865766882
-0.00068754601627
-5.98683696776e-05
-0.0125951535639
1.40831521569e-05
0.0125977514539
4.61459050903e-05
0.0126150388461
7.84903140645e-05
-8.75278337424e-05
-0.0126141985012
1.00336647435e-05
-3.46799826608e-05
0.0124767952587
3.16676995774e-05
-2.92400071033e-05
0.0124549897081
-0.0124373034995
-1.17394950686e-05
0.0126159270586
-6.71870698609e-05
-0.0125961574477
6.12433829598e-05
0.0124688761772
-2.31229449466e-05
-4.35816037887e-05
0.0126017524853
-5.37498908461e-06
3.29261895418e-05
-0.0126165279575
2.83439140078e-05
-3.13107063927e-05
0.0126220909245
2.17469808337e-05
-4.3693032709e-05
3.82285291692e-05
1.9573388973e-05
-0.012469917687
-4.29242826545e-05
0.0124676919255
-4.82139880219e-05
2.05425856877e-05
0.0126084684028
-3.45448873122e-05
0.0124533985652
1.25951487951e-05
6.1305868194e-06
-0.0124519164301
-1.03106027216e-05
2.5020349716e-05
0.0124532909926
-3.45217571847e-06
-1.17316420427e-05
0.0125853149625
3.66898378388e-06
0.0125889944296
1.86135841294e-05
-0.0125847819606
-6.10849917612e-06
-0.0124654091305
0.0124630285523
0.0125961674039
-0.0124633340697
-4.91410321507e-05
0.012543712349
4.77607500169e-05
2.42957130861e-05
0.0123777626633
-1.53942798999e-05
0.0123844135585
3.16316540166e-05
5.11570789682e-05
-5.54547715399e-05
0.0125430540961
-5.9643749069e-05
6.64860323582e-05
2.70149396639e-05
0.0123534370758
-1.61475784761e-05
0.0125424090772
5.18832810318e-05
0.0123595279616
3.220355286e-05
5.20913732805e-05
0.0125390227506
-6.82889464594e-05
-6.11703965359e-05
-0.0125396550391
-5.65364382749e-05
0.0125462146721
5.81232628897e-05
8.15890700952e-05
2.86191799317e-05
-1.85245401984e-05
9.04802639373e-05
-0.0123411765754
2.95166305853e-05
0.0123164040345
5.3475551507e-05
-6.59468581723e-05
0.0125454253736
3.07694156347e-05
-0.0125408998412
-4.33777713669e-05
5.86993904492e-05
-6.01362893941e-05
-3.59769160401e-05
-5.70347630508e-05
3.52623545343e-05
0.0123841456113
0.0123853732645
3.58516959242e-05
-3.49169932674e-05
0.0123585827915
3.57214240909e-05
-4.51199552023e-05
0.0125397829142
0.0123586853983
0.0123367363402
-2.97394122875e-05
3.1722530124e-05
7.34773429009e-05
-3.02803645924e-05
0.0123081009142
3.01821869717e-05
6.4344364859e-05
0.0125385739962
-6.49366987789e-05
0.0125353092438
-5.82036878196e-05
7.64173082896e-05
-0.0123355431189
0.012310960502
0.0125400209228
-0.000358562131294
-0.000262454943795
-0.000317778901258
0.00138172788332
0.201561068478
-0.000408109891357
-0.00106534136458
-0.000284416022954
-0.00011873927525
-0.000110811368449
-0.000128269737214
-0.000103991532186
0.000310865457561
0.0503347983641
0.000115842251814
0.00641972935461
0.0050317487187
0.000126434884347
8.62091796209e-05
0.000101812138778
-0.0055520359883
0.0119210027531
-0.000678770919912
-0.000677248063305
-0.000459697541106
0.00901173532145
0.034866021127
-0.000391185795973
0.0155435136641
-1.1725109787e-05
-3.03487541152e-06
-8.86510067951e-06
-8.21283633254e-06
5.90698157735e-05
-4.35545303052e-08
0.050402415865
-2.46973957033e-05
-4.46783984755e-07
3.31202468548e-05
0.0124508307528
0.0503368541863
-9.97571544806e-05
-8.44511009678e-05
-8.26550490871e-05
-9.69951407578e-05
-0.000271709688331
0.0504307859726
-0.000102970571816
-0.000115052798999
-0.000115301871925
-9.97874592904e-05
0.000289895593595
-0.000268535006088
0.000120565229226
0.0123049373383
2.59345401903e-05
-2.2603966631e-05
-7.3806481835e-05
9.10065185345e-05
-2.06658153537e-05
0.0122919822759
1.95930539167e-05
0.0122630111208
-0.000145630069363
0.000146049546427
-8.33158615151e-06
-0.0122701369359
1.54198310679e-05
0.0505060525812
-9.79692840533e-05
-0.000102329731747
-0.00010190364406
-9.63157893948e-05
0.00029208026966
0.000285611505385
-0.000254468126061
-7.81431866573e-05
-5.75011269689e-05
-5.80362154197e-05
-7.65647128176e-05
0.000227782619247
0.000283217994446
0.0505121586452
-0.000247014447386
-0.000137414335517
0.000137669230356
-1.06965296894e-05
0.0122556851064
1.76490726507e-05
-7.63822922865e-05
5.85512008227e-05
-1.16541815424e-05
-0.0122416653202
0.0122441774634
2.65673949812e-05
1.38192060811e-05
4.38606650838e-05
2.24128188445e-05
0.000715424791762
0.0318548529707
-0.000751276427034
0.0101791043286
0.00537092217192
7.34670110657e-05
0.000102015384402
0.000100416203272
0.00787830149926
0.0050808325203
0.00326373219839
0.000134933197868
0.00013443485004
0.000126536784159
-0.00557842413056
0.00687232849024
0.00101597365628
0.00218382864204
-7.09919716203e-05
0.00446186042339
0.00464921599657
0.000980908830383
0.00419524210274
0.00396543888723
-0.00200834860465
0.000139151767444
0.000126224307799
0.000126388520275
-0.00579642751357
0.00373744478188
0.00680265564598
7.02411574464e-05
0.00011251819459
0.000101661295042
-0.00623405693648
0.00196185720154
-0.00473279279796
0.00663689855127
-0.0125970381668
-1.35964140747e-05
-5.87044257783e-06
4.43444029844e-06
0.0126003432952
-2.95804245183e-06
0.0125874964441
3.81114210544e-06
0.0124550158037
5.11085221547e-05
3.48124532674e-05
1.15903133821e-05
0.0124519852824
-8.99415556782e-06
5.36503341432e-05
0.0124450435079
0.0125914212199
6.50671173123e-05
-0.0125529395216
-0.000125422653643
-7.40633745429e-05
0.012568623768
0.0125572306886
-5.86753576938e-05
5.7450495459e-05
0.000138292621259
2.49218078735e-05
-2.33999045005e-05
0.0122916777033
0.000100581968546
0.0123062893348
2.17404012805e-05
5.99562136461e-05
0.0125724304567
-6.94943979216e-05
1.9020227309e-05
0.0122884441668
-0.0125461020437
-0.000120800921325
-7.06046111424e-05
0.0125637249832
6.76542641335e-05
0.0125439251691
-6.64839749785e-05
9.05190599532e-05
0.0122948271809
-1.86348949763e-05
0.000120070679666
0.0122726304401
2.0317992456e-05
0.0122747119448
0.0125632128426
-6.66489568395e-05
0.0125865749064
-0.000130409564505
-7.3002591069e-05
7.75978709057e-05
7.04021018173e-05
-0.0125895502796
0.0126116738906
-6.14228280079e-05
0.000144298325877
-0.0122710037146
0.0122589989489
-5.66541034202e-06
-9.93825792827e-06
0.000132451307326
1.46153848195e-05
0.0126076670838
7.84376387863e-05
-1.00580292846e-05
-6.64955998284e-05
-0.0126327423668
-0.000128845415182
-6.2897119913e-05
0.0126503009142
7.62151900915e-05
6.77565937456e-05
0.0126371970226
-5.78351082112e-05
0.000137806411117
0.0122543044322
-4.65193623996e-06
-6.86918585824e-06
0.000125529410715
0.0122444429996
1.94877487354e-05
7.85607938646e-05
0.0122442348047
8.24024529284e-07
0.01265417739
-5.04778291372e-05
0.0126609055651
-0.000103429783249
-5.65697227803e-05
7.1245104399e-05
5.49367088067e-05
-0.012664733022
0.0126528868348
-4.20442722903e-05
5.93793064116e-05
-0.0122354851133
-2.58502537432e-07
0.0122349084788
-1.06184148562e-05
0.000100467689215
2.56116566322e-05
6.75630398406e-05
0.0126496087137
-3.45334353891e-06
-4.31225981971e-05
-0.000478535436712
-0.0490689870957
0.049041894223
0.000595706951021
-2.70414072642e-05
-2.75206606724e-06
-2.2893059409e-05
-7.06454337019e-06
-3.10450340922e-05
-0.000663101071309
0.0495203507815
-3.38473939181e-05
-1.86288625183e-05
-3.89057773657e-05
-1.69822260731e-05
7.66791308337e-05
-0.0494641763898
0.000638597692749
-0.000982056847302
-0.0496839336215
0.0499514059133
0.000866023477989
-6.72433621015e-05
-7.60108354325e-05
-7.3156187785e-05
-7.31036490075e-05
0.000138073077661
-0.000769059480903
-3.86360545712e-05
-5.06054449575e-05
-4.82280298157e-05
-4.89874901433e-05
0.000126505965859
0.0500479555324
0.000682949347181
-0.0499018952624
3.69423381088e-05
-0.0082240002648
-0.043861463004
0.0368532769388
0.00713052867995
0.00793991838401
5.0112504084e-05
1.75241107455e-05
5.09348218355e-05
6.68979329228e-05
-0.0286857868215
0.0227026640104
0.0072534961389
0.00574917537946
1.39871384218e-05
1.54642208077e-05
2.81983620122e-05
-0.0071551452815
1.3540505878e-05
-0.00351373786526
0.0379109917959
0.0090022289878
3.71982765979e-05
-5.28692418444e-06
2.18254070342e-05
-0.0430964220577
-0.000371070943518
0.000145636466177
-0.003716022752
-0.0297184328554
0.0242528535933
-0.00214110330142
0.0109226397214
9.48600199019e-05
6.69726445424e-05
9.26512787128e-05
6.19986829631e-05
0.00776541536068
5.21104063211e-05
2.86918957922e-05
1.7016998258e-05
0.0250273993317
-0.0115531945545
0.00760863047456
-0.0290081491986
0.0539501284176
-0.0218924338296
-0.000280655587316
-0.00670718435828
-0.00533545940548
-0.00759654495636
0.00532086606716
-0.0204171485149
-0.019982994439
-0.0130201441264
-0.00672156723125
-0.013279130818
-0.00718769686424
0.0129859891973
0.000436690130385
0.0482057515642
-0.00246837566129
-0.00473968955268
-0.00588745815164
-0.00607248698898
-0.00828158444725
-0.0110084253634
1.76844026958e-05
-0.0105956444803
-0.00671638347632
-0.0125763243039
-0.00934141116843
0.0167652681585
0.0558585958588
-0.00423564403138
-0.00897276015507
-0.00815004097078
-0.0113439148507
0.0111027996904
-0.00328638695537
-0.0149212748007
-0.0115320546513
-0.0141673064669
-0.0111998406261
0.0305891726155
0.0161947481119
0.000123613186668
6.11010945936e-05
6.33392084797e-05
5.99659457965e-05
6.85663418758e-05
0.0487823770387
-0.000102864077937
9.83823329412e-06
-0.0490660225211
0.048839988022
0.000287722256529
5.71770445183e-05
3.52373514131e-05
5.16949932805e-05
4.72006623745e-05
-9.57957411454e-05
-0.0490998517315
7.23556251242e-05
-8.17755877841e-05
-0.0123351230735
2.26577522122e-05
0.012321645077
4.97526629159e-07
0.0123299226797
7.31666917992e-05
1.75975213925e-05
-2.10246996449e-05
-5.68640353677e-05
-0.0123427253194
2.3992138174e-05
2.85346227549e-05
4.77163928818e-05
4.5923659157e-06
-0.000235583763481
0.0122006466921
0.0121716697119
0.012096942086
0.0121639294736
-0.000141164448945
8.43652542675e-05
-1.72792504822e-05
-4.2409591899e-06
-6.30260890707e-05
0.0123314200682
0.000417916275464
2.11094908563e-05
9.8739976341e-06
2.98900618243e-05
9.10164611385e-08
-6.72642992383e-05
-0.0491928964255
0.049267215349
9.65574336951e-06
-8.17403744767e-06
-7.15118121968e-06
3.46069513724e-06
-4.38043698107e-05
-0.0493252904683
0.00052183036945
0.0123399790258
-3.94405646387e-06
2.00757441602e-06
-0.0123506637362
8.57908053274e-05
0.0123647509607
-1.31877190355e-05
2.57461677722e-05
-9.08284042116e-05
-0.0123765103646
9.0940961629e-05
0.000861342863117
-1.88502749162e-05
-1.51233423086e-05
-8.0863966671e-06
-2.64729299021e-05
0.0491137047297
-0.000194172311681
-0.000159570763152
-0.000195068415001
-0.000159070703196
-4.77675283258e-05
-3.49266890903e-05
-4.07653711383e-05
-3.34668452737e-05
0.0492740179908
-3.84239979779e-05
-1.80909083519e-05
-1.68372425045e-05
-3.86504140286e-05
3.73950802417e-05
0.0494983122456
0.000813690391153
-4.60182106619e-05
-5.92699299058e-05
-6.04365399046e-05
-4.37425315566e-05
3.25258139765e-05
2.05209894447e-05
0.012341257685
9.93775255336e-05
0.012335191224
-5.08435168597e-05
4.07555385588e-05
-0.0123318639699
0.000123417708801
-0.000117017629475
0.000101054313281
-3.97605445864e-05
3.84361787867e-05
-9.91493262574e-05
0.0123639064902
0.0123701957922
0.000120945426455
-0.000107409308355
0.000101874268616
-0.000123131459491
-0.0123629217906
0.0497795081935
-3.93958346957e-05
-5.46826871392e-05
-4.36411614504e-05
-4.72986405349e-05
-0.00106583410682
-1.26638212864e-05
0.0011164422683
-2.62018394236e-05
-9.91822777609e-06
-3.0607253672e-05
-1.00349884003e-06
0.0503049988438
-0.000175511825875
-0.0013988719297
2.95358435933e-05
0.0123548449124
0.000150917890501
-0.000133743235591
-2.20086976727e-06
-2.7496800925e-05
-0.0123699400328
0.000190292410907
0.0124091288596
-0.000200199500869
0.000129378118059
-0.000144296162804
0.000105657171091
-0.000121493739763
0.0124005982067
0.000146351886436
-4.1424279799e-05
3.10258931379e-05
-0.000163339996454
-0.0124157967087
0.0124428150684
0.000757619517274
-4.92818648793e-05
-7.19986854439e-05
-5.12262433613e-05
-7.05641708227e-05
0.000135500604224
0.0498140188918
-4.33720760802e-05
-6.15187133186e-05
-6.35299929555e-05
-4.43602857071e-05
0.00014016730031
-0.0496644280435
0.000680640362202
2.45279255053e-05
0.0123737203347
9.33877736167e-05
-0.012376908781
0.0123798288431
-0.000103238147698
0.000105280682552
-0.0123738420074
0.00011275529285
0.0124026604926
-8.37484402118e-05
8.49463038461e-05
-8.52354033239e-05
-0.0123958640544
7.71584506035e-05
0.000959209834941
-6.31407308264e-05
-3.90990166112e-05
-5.86542664807e-05
-4.82595390585e-05
0.0502397547505
7.80477758738e-05
0.050011538253
-6.02596642329e-05
-6.63830410769e-05
-6.31389659382e-05
-6.18430925315e-05
0.000151007873558
-5.92323485824e-05
-3.90917211682e-05
-5.66639835803e-05
-4.78118904586e-05
0.0502151578853
0.00081021652694
0.000148240930594
0.000113514969619
0.0124085507871
0.000131908348879
-5.12760177794e-05
4.46397448812e-05
-0.0124236449228
0.000129371630074
0.0124467987653
8.61027861093e-05
-0.000103821585043
8.77421271538e-05
-8.61448633522e-05
0.0124185839313
8.79095826443e-05
-4.02757196448e-05
4.02189724938e-05
-0.000100012759933
-0.0124263770096
0.012438420198
6.54393734262e-05
0.0124217787513
7.39381902426e-05
-0.012413266013
3.3145401724e-05
-0.0124305476933
0.0124404751606
-2.65214680634e-05
7.12983534067e-05
0.00594611721535
-7.42684089572e-05
-7.63700302674e-05
-7.05603396258e-05
0.0456162552866
-0.000718470018506
-0.0447337450881
-0.00581650198938
0.045334587178
0.00854593219884
-5.63660343107e-05
-5.24970505205e-05
-6.64284475773e-05
-0.0464777943235
-0.00126379534995
0.00608602518569
-1.04302130971e-05
3.99628930604e-05
1.53201275359e-05
-0.00739926666066
0.0383580786871
0.0184959402691
0.00079921892549
-0.000856934361741
-0.00252910585834
-0.0162097702564
0.000140825041791
0.020438563838
-0.00699687388428
-0.00179178865935
0.0206865008111
0.00018778888541
-0.019374166264
0.0211145322684
-0.00032966275104
-0.00755447016857
0.0137218546671
4.32420562765e-05
-0.00543995551163
-0.000908906851307
0.000532756062997
0.00700675224362
0.000253322147432
-0.000796079980128
0.013887513563
-0.000819816466956
-0.00519415195448
-0.000258973581963
0.00657916194504
0.000913299692761
0.00741321233434
-2.99515604513e-05
6.74751806184e-06
-1.39280242846e-05
0.00351013843402
-0.0462064543986
0.0433710495726
1.29004540921e-05
-5.51052799236e-06
-8.79382977992e-06
-0.0451582877594
0.00531363126603
0.00387417925943
0.00755944216517
0.00819205644122
3.67055577183e-05
8.05061115186e-05
0.000102322853113
-0.00785915600764
0.0367558967866
0.0100329232869
3.08905352484e-05
5.86577563744e-05
6.70347556434e-05
0.0111222311781
0.0287447500649
0.00404108114395
0.000102136938528
7.33753935079e-05
0.000125918094577
0.0199464057096
0.0011838856117
-0.0177599657897
0.00118126368116
0.0207028024529
0.0180548697901
0.00154940743997
-0.0144657283503
0.0201557795245
0.00191500784423
0.00709260897232
0.00217293660081
-3.38137135057e-05
1.7962865813e-05
4.8172661987e-05
0.0212171981854
-0.00781853519179
0.0236161296416
0.00832922053774
4.91267269498e-05
8.48702632183e-05
5.87816015014e-05
0.00567550201253
0.00225033715527
3.17970989434e-05
1.92117111037e-05
8.14993342213e-05
0.0226102804259
0.0142147109132
0.000816351038961
0.00136612493086
0.00809349110388
0.0146564076387
0.00206243432669
0.00295256286612
0.0093801319439
-0.00117205457882
0.01304344438
7.24592499927e-05
9.18178851691e-05
9.40767403244e-05
0.0124386026024
0.0296536384478
8.5811429663e-05
6.06291682561e-05
8.08855087714e-05
-0.0374232802871
-0.00615283614946
0.016055702524
-0.0110626649445
0.00130412840714
0.00167231333475
0.020367093272
0.0235024276608
-0.0175406366303
-1.28679002966e-05
-0.00400094379227
0.00749122679825
3.37690551956e-05
6.19728747683e-05
9.75073301459e-05
0.0227673146014
0.0245433691953
0.0104124104145
6.75796779975e-05
6.61924468393e-05
8.23522364415e-05
0.00703448371798
5.93788714492e-05
3.61095631625e-05
8.49714110766e-05
0.0223872132995
-0.00910131721205
0.0163932427711
0.00204815584763
0.00290219094784
0.0123891934685
0.0215293861096
0.000264799532949
0.0197207176835
0.000530271937701
0.01223680969
8.22995442886e-05
-6.73496815452e-06
1.76180690822e-05
-0.0122689197544
5.91478333551e-06
-0.0122398829084
0.012207452511
8.03634207404e-06
1.73217558741e-05
-9.15102415953e-05
6.29480007176e-06
-0.0123416489964
-7.19207812558e-05
-0.0123388390631
3.99873993996e-05
0.0123175249017
2.42647398132e-05
0.0122065111321
3.7117466459e-05
-0.012347004046
2.62456175051e-06
-0.0122722835453
0.0122395261802
3.0904332366e-05
7.51331039685e-05
-0.0122708140657
-4.30490945564e-05
-0.0122494403463
0.0122402033393
6.64772338288e-05
-5.36949660961e-05
-0.0123399114636
0.0123200599202
-5.40358496927e-05
-5.58995837789e-05
7.00963223614e-05
-0.0123555367042
0.0122187601235
5.03886224098e-05
-0.0122757350663
-0.0123501967364
-0.0122112732517
8.53057283579e-05
-3.87836509068e-06
-5.21855527517e-05
0.012205984015
-5.68765538188e-05
0.012234718019
8.67165690654e-05
-2.91944029986e-05
0.0123181654709
-4.22106887041e-05
3.08405762315e-05
-7.76880509285e-05
9.37395155897e-05
0.0123233502019
-3.08369105591e-05
0.000115672178314
0.01223953103
-5.35461558616e-05
0.0123052411314
-6.62271045231e-05
0.012288371693
1.38328370049e-05
8.51476905833e-05
-0.0123000340197
-0.0122684135807
8.27546493013e-05
0.0122640081934
-3.10532315062e-05
8.07030060081e-05
-0.0123602301291
1.41734485528e-05
-0.012361793684
8.99284179781e-05
0.01235026706
-0.0122854189524
0.000100214063084
0.0122851378835
8.56633201399e-05
-0.0123671117026
0.0123082412541
0.000102633320696
3.38941962852e-06
-0.0123194817759
-0.000118582314188
-0.0123261818209
0.0123258716715
0.000136520827702
2.40963023888e-05
-0.0123712824091
0.012359245346
3.45523221278e-06
-8.59573570912e-05
-0.0123829716685
8.33484131807e-05
0.0123068484384
-0.0123368652926
0.000120237335026
-0.0123771254772
-0.00012953667476
-0.0122849418962
-5.91129863525e-05
0.0123020457946
0.000145095383189
0.0122630274597
0.000105255790716
5.03279773076e-05
0.000101649121837
0.012331493391
2.47019995194e-05
0.0123429976623
9.95433608128e-05
0.0122763740209
0.000123277033052
0.0123319777844
0.000106884859134
-0.00014752387686
0.0123332190577
-6.84706430017e-05
0.000166505804184
-0.0122989257957
0.00018582775094
0.0123237303991
-0.000185000528219
3.74460960994e-05
0.000100612487714
-0.000102792359601
6.9300304315e-05
-0.0123536439601
0.000125395084856
0.0123617317972
-0.000140779696545
0.000195732695832
0.0123659314873
0.0001151909217
-0.0123090646134
0.000160976368941
-7.36640144718e-05
0.0123286272174
-0.000140585174157
0.0123296491608
0.000157037451069
3.62426741079e-05
0.0123532992317
7.28476191712e-05
-0.000113051069127
0.0123541829064
0.000108810517781
0.0123504648224
0.00017464435902
0.0123415447003
0.0123602785029
0.000180248383502
-9.09325919852e-05
-0.000196783258596
-0.0123757257168
0.0124093234977
0.000205914590449
9.60691912538e-05
-0.0123654258424
0.0123728295643
7.76195070124e-05
-0.000127008516065
0.000114431539282
0.0123950456855
0.00018932972622
-0.000250155598675
-0.012391234274
-1.66198064548e-05
0.0124181846227
0.000250762389096
-1.03278139212e-05
0.0123556092212
0.000219784211419
-2.06957320871e-06
-0.000220374446509
3.5272012277e-06
0.000153214509306
0.0123667492315
-0.000154260992874
2.98249888114e-05
0.0123611557491
0.000136032616579
0.0123890108499
-2.15302581845e-05
-0.000258246772525
0.000219922416444
4.5130745254e-06
0.0123781516588
0.00015002148912
-0.000273100381698
-2.2006712315e-05
0.0124765146231
0.000277461116657
-4.0086488866e-05
-0.0124491580151
0.000293191533896
0.0125219030309
-0.000308827054305
-8.47724698444e-05
-1.96794799466e-05
0.000161583408121
-0.000178661949571
-0.0124010978616
-8.91091521142e-06
0.000186404480545
0.0124305171107
-0.000288499087541
-6.41017276257e-05
0.000165989557645
0.000296931102765
0.012532685537
-6.87999013666e-05
-0.0124222444996
0.000234379307529
-4.9952670942e-05
0.0124496591839
-0.000209867294418
0.0124490168819
0.000221035994632
6.0429730841e-05
0.0123741624281
7.64164480227e-05
-0.00014180345933
0.0124164211616
0.000134921440288
0.0124773600271
0.000235698455697
0.0123922832239
0.000262416251324
-5.32722272684e-05
0.012492741025
-0.012504554179
-0.000274681561436
0.000262097651051
0.0125381669383
-0.0124194393747
2.71543901349e-05
0.0124462412972
4.68856852609e-05
-0.000168575735839
0.000142155839858
0.000251898794108
0.0125414367595
-0.000175335883147
-0.012365795116
-4.76540428721e-05
0.012382572897
0.000172334907127
0.0123498337269
0.000160954747214
-0.0123479761741
5.89635324094e-05
9.86256578048e-05
0.0123623053016
1.51971565691e-05
0.0123762551136
-0.0123854801583
8.18164199338e-05
0.0123690865708
-0.0123655575951
0.000158778626314
0.012362640668
8.61008545218e-05
-0.000188994935315
0.0124101075805
-7.42291279455e-05
0.000186332596527
-0.0123931269639
0.000204404566646
0.012427938918
7.4764354009e-05
0.000100864282241
0.000101171193129
-0.01238986158
9.724631074e-05
0.0123962833941
0.00020026977689
0.012444905736
9.28969505377e-05
0.0124253243576
0.000181345114584
-6.41358153135e-05
-0.0123995422384
-0.000196626149114
-0.012438900563
0.012466345401
0.000192631500223
9.16034235184e-05
-0.012397334461
0.0124038700303
6.22091477032e-05
-8.34175011482e-05
-0.0123813356073
6.73465196211e-05
0.0124570551411
-0.0124158722022
0.000176123863162