/*--------------------------------*- C++ -*----------------------------------*\
| =========                 |                                                 |
| \\      /  F ield         | OpenFOAM: The Open Source CFD Toolbox           |
|  \\    /   O peration     | Version:  v1906                                 |
|   \\  /    A nd           | Web:      www.OpenFOAM.com                      |
|    \\/     M anipulation  |                                                 |
\*---------------------------------------------------------------------------*/
FoamFile
{
    version     2.0;
    format      ascii;
    class       volVectorField;
    location    "4";
    object      U;
}
// * * * * * * * * * * * * * * * * * * * * * * * * * * * * * * * * * * * * * //

dimensions      [0 1 -1 0 0 0 0];


internalField   nonuniform List<vector> 
28582
(
(0.806750184135 -0.00130486402135 -0.000321524569426)
(0.806386041671 -0.0032880970553 -0.000446913322537)
(0.806557495236 -0.00137245379619 -0.000910077799043)
(0.806294886276 -0.00321938671212 -0.00120619907945)
(0.806007827729 -0.00157416603466 -0.00143555443976)
(0.805835572719 -0.00362972527687 -0.00216838771165)
(0.805742084186 -0.000950703857529 -0.00212436176028)
(0.805665600793 -0.00279808100936 -0.00252653875298)
(0.510825992256 0.0588278806607 -0.00823440809583)
(0.444759040946 0.118295500486 -0.00146693362009)
(-0.0708918412028 -0.0255905814519 0.014134887507)
(0.805671208918 -0.00194511461537 -0.00205100482983)
(0.797019674984 8.7669434425e-05 0.00028631745219)
(0.797138756027 0.00110964648792 -0.000574207624501)
(0.804681340984 -0.00345171356417 -0.00302624202534)
(0.804031832911 -0.00359910210046 -0.00133729911184)
(0.796766985311 0.00147745762278 -0.000622016866864)
(0.803215488203 -0.00367130153997 -0.00255581094783)
(0.803074614172 -0.00361250737103 -0.00176776619519)
(0.808330226197 0.0015164631674 -0.000180829723014)
(0.805508222778 -0.00422902744178 -0.00046965449044)
(0.805059371062 -0.00438473818127 -0.000542334835664)
(0.80859701549 0.00172873690987 -0.000512209048816)
(0.80541856334 -0.00401181838544 -0.00164286296031)
(0.805176642174 -0.00428007831159 -0.00169916387848)
(0.808233312751 0.00194476998291 -0.000343082358547)
(0.80492119668 -0.00443980396616 -0.00327725444128)
(0.807326108929 0.00424404752139 -0.00116345469059)
(0.80443301552 -0.00402317137045 -0.00411742372401)
(0.408818040695 0.12202065188 -0.00314304088815)
(-0.000986119229402 0.0244102581503 0.0268035682459)
(-0.0319319221728 0.0470688474355 -0.0743698198986)
(0.807957624394 0.00227251632076 -0.00131698825607)
(0.805885159221 0.00137792520046 0.000132356832942)
(0.797380107116 -0.001171546482 0.000319977529608)
(0.798329457717 -0.00286608480311 -0.00129558035442)
(0.804886651673 0.00111705431186 0.00164774412568)
(0.804316761512 -0.00428285143795 -0.00581677944129)
(0.803951557916 -0.00414194000054 -0.00216078927647)
(0.804040849594 -0.00444390089549 -0.00339504220269)
(0.803113831101 -0.00380425729145 -0.00342384156667)
(0.789009311141 0.00155840969443 -0.00472183649488)
(0.802849212036 -0.0037410703716 -0.00272756452)
(0.802485400753 -0.00394209981899 -0.00426381173601)
(0.479538571008 0.082602466203 -0.00424569689053)
(0.450474834422 0.128424320274 8.59214732574e-05)
(0.071634607857 0.0410120247529 0.00177374496)
(0.0683785762235 0.0084920811944 0.0214367470265)
(0.466268671654 0.102736886436 -0.0015029221344)
(0.103071025364 0.0100208343841 -0.0325789002076)
(0.805339359058 -0.000392423648424 -0.00107732895177)
(0.80548092578 -0.00166825582203 -0.00225275413637)
(0.797245121352 0.000247180259433 -0.000198448428532)
(0.796923063732 0.00189832823513 -0.000701350209492)
(0.805062794364 -0.0014262835874 -0.00227884782155)
(0.797262451338 0.00187811645235 -0.000702472057455)
(0.805686385722 -0.000546317534925 -0.00167927473624)
(0.805518021941 -0.00191285877682 -0.00191548634862)
(0.805672351339 -0.000941655049174 -0.00182402023584)
(0.79742118668 0.000698399595606 -0.000457048911387)
(0.797043056766 0.00140325750526 -0.000263550539544)
(0.805237793403 -0.00221603705454 -0.00156353047936)
(0.797268749791 0.00168926613437 -0.000514111645663)
(0.805802698637 -0.000799670096606 -0.00187336891257)
(0.804242507345 -0.00302025221568 -0.00164359863395)
(0.805378611508 -0.00135597978141 -0.00184758435486)
(0.796170571205 0.00167918587215 -0.000653328964566)
(0.796631599249 0.0011342821578 -0.000367880028134)
(0.804827920222 -0.00258292310914 -0.00164024131086)
(0.796117257755 0.00104608513479 -0.000662814945048)
(0.804687029199 -0.00188084920301 -0.0016390782461)
(0.803393590402 -0.00261661654314 -0.0027330709794)
(0.79424672788 0.0016029358236 -0.00163638051994)
(0.794454906909 0.00115989907462 -0.00158421720862)
(0.803872366617 -0.00343734378312 -0.00217548176711)
(0.795453188029 0.00166704276327 -0.000973688247325)
(0.795300041577 0.00104198723546 -0.00107042394026)
(0.804286017651 -0.00227594126592 -0.00219943877046)
(0.802960035756 -0.00346831941436 -0.00211469945879)
(0.794466489435 0.0022520558068 -0.00192952953241)
(0.794776729383 0.00184583091938 -0.00205862471289)
(0.80352292307 -0.00329942142288 -0.00140720702977)
(0.795598857767 0.00162111260602 -0.00143641369335)
(0.803195131376 -0.00319921133713 -0.00159862948961)
(0.795314334641 0.00234758783177 -0.00129775083377)
(0.550180665441 -0.0139326913265 -0.00433814636742)
(0.142523775331 0.0579867509144 -0.0560228187346)
(0.499012213132 -0.0796867113846 -0.00461594525861)
(0.497339073976 -0.0523564737675 -0.00215414879003)
(0.0943586356795 0.0640215321439 -0.0397703608774)
(0.0730571986934 0.0243112501139 -0.0177628952176)
(0.416490078174 0.124365680777 0.000530542280616)
(0.0466222091503 0.0802915103992 0.0679327086394)
(0.0226569841772 0.0135471758333 0.0889599592159)
(0.336695174305 0.117654149638 -0.00154845994546)
(0.0487047848009 0.0943055617361 0.127077566828)
(0.342568081976 0.107521090413 -0.00627375782101)
(-0.011800964997 0.0136311383018 0.138060440957)
(0.806136235313 0.00336310961968 0.000784803297906)
(0.807255633488 0.0055236598567 -0.000289875275403)
(0.798288664485 -0.00197501372818 -0.000350997634226)
(0.796531781093 -0.00131228045671 0.00272263446836)
(0.807468849947 0.00428911016527 -0.000838131217594)
(0.805994625484 0.00449745168781 0.00165050407127)
(0.797632344223 -0.00212009722596 0.00148394902716)
(0.806489270741 0.00247879692467 -0.00074049848509)
(0.807660023572 0.00211718221833 -0.00196743464462)
(0.798527316683 -0.00254714489839 -0.000826055320125)
(0.798155303847 -0.00300242692663 -0.000195350678814)
(0.807519344931 0.00311155520996 -0.00172573458596)
(0.806770162503 0.00157601327204 -0.00164397659931)
(0.798167691015 -0.0027082381036 0.000393406131928)
(0.797084821886 9.71863092567e-05 0.00267490474007)
(0.797111638014 -0.000616068533124 0.00142312220259)
(0.805139074213 0.000518624140529 0.000566087535633)
(0.805590383868 0.00180295479015 0.00116691342021)
(0.79783749568 -0.00258509560393 0.00110025416082)
(0.805921006508 0.00100486412283 0.000176329667976)
(0.797894277883 -0.00186404941448 0.00182308747561)
(0.803329134428 -0.00273074946993 -0.00378700683863)
(0.792992836959 0.00162103048985 -0.00210187600961)
(0.793183771861 0.00140927683861 -0.00193421630349)
(0.802682192943 -0.00390091443926 -0.00418339798773)
(0.791359166165 0.00149519047412 -0.00283733994596)
(0.802669401498 -0.00298536788221 -0.0047896425459)
(0.791897249085 0.00173023024102 -0.0026186977951)
(0.802856690076 -0.00399597661577 -0.00510468751742)
(0.802797184849 -0.00332975833378 -0.00756445991423)
(0.789941269107 0.00172647816758 -0.00340516837393)
(0.789283006174 0.00196426479084 -0.0039414654563)
(0.802953516477 -0.00302670127727 -0.00571804725625)
(0.802797333035 -0.00419820818054 -0.00650446496093)
(0.790138723717 0.00171191289412 -0.00293307384676)
(0.802552713789 -0.0037728333443 -0.00334693513353)
(0.802795047547 -0.00360501252313 -0.00289320111268)
(0.79322780198 0.00244954217977 -0.00224548792328)
(0.793357686993 0.00201889127715 -0.00242731105459)
(0.791646555456 0.00217683294051 -0.00271121679772)
(0.802523176616 -0.00389087284018 -0.00330789687509)
(0.791711775641 0.0022599080926 -0.0027098456583)
(0.790034439444 0.00180688467926 -0.00310385898646)
(0.788800629753 0.00191854780644 -0.00347663186734)
(0.802333285398 -0.00409252128025 -0.00507910455781)
(0.802580967712 -0.00391334905831 -0.00426181153012)
(0.788813140414 0.00183033881233 -0.00372848570382)
(0.80247806431 -0.00420730263362 -0.00519516799253)
(0.790063362733 0.00206558937033 -0.00304000244148)
(0.805500235129 -0.00463572748345 -0.00406109900375)
(0.804608461955 -0.0043374145957 -0.0068089781047)
(0.24473256036 0.0886261291921 -0.00924312619706)
(0.0809125392039 0.0181637617039 -0.212197952561)
(0.806611325376 -0.000230880357456 -0.000858592229399)
(0.79702911983 -0.000895891651013 0.000485500766586)
(0.804500298485 -0.00459993416977 -0.00460073368989)
(0.806397227847 -0.0046290976935 -0.00556973715622)
(0.787682239077 0.00170334370082 -0.00528192295759)
(0.787170607066 0.00122921475862 -0.00402492027689)
(0.785320061833 0.000676787391933 -0.00687781040962)
(0.806876322209 -0.00450521914892 -0.00472664963077)
(0.808139906736 -0.0043618618869 -0.00288352201448)
(0.78486523144 0.000802209989236 -0.00714951234973)
(0.783367718759 0.00119227736765 -0.00496334522661)
(0.523713257225 0.00325715407236 -0.00458581828458)
(0.224714202973 0.105713937136 -0.00530022206872)
(0.118384682042 0.0946109281353 -0.0102519419813)
(-0.0213852562918 -0.0427373050446 0.134949063338)
(0.0700180983294 0.0753298390015 0.135525357876)
(0.0661356362101 0.0434928382215 0.130508394108)
(-0.00434008334783 0.0994790214385 -0.0103575960847)
(-0.0543298157436 0.105387655159 -0.00484289419761)
(0.806453845522 -0.000346692561708 -0.00102820821072)
(0.805593508814 4.20947757476e-05 -4.11992306478e-05)
(0.797461296156 -0.00317595797748 0.000573063089944)
(0.796966189192 -0.000911591833422 -0.000227598435569)
(0.806298852209 0.000318050099399 -0.000718479053264)
(0.796915127674 -0.0032515641274 -6.87193316946e-05)
(0.805863235553 -0.000379887023901 -0.000662001238473)
(0.803867344567 -0.00473402000444 -0.00882947412552)
(0.803490881967 -0.00331324994486 -0.00824054778137)
(0.78736280472 0.00169770248752 -0.00622842194684)
(0.787899304607 0.00139399648525 -0.00435153906204)
(0.804180870849 -0.00356082445941 -0.00981120516274)
(0.803332090869 -0.0043706971711 -0.00712436039201)
(0.787256348046 0.00135259774484 -0.00547756930089)
(0.8034825211 -0.00456475154043 -0.00796993111473)
(0.802843844173 -0.0042253801602 -0.00596799896999)
(0.787362984147 0.00142363373783 -0.00420648211809)
(0.786590619082 0.00120295702786 -0.00519790759599)
(0.802939575375 -0.00436490134605 -0.00598454869687)
(0.786590416176 0.00122514618829 -0.00554320692682)
(0.803415075531 -0.00426055138587 -0.00786643740931)
(0.804625213792 -0.00474465718605 -0.00817257445976)
(0.806819276458 -0.00412382024072 -0.0094681627765)
(0.78521955935 0.000419236204492 -0.00691876829492)
(0.785595515924 0.000732521921049 -0.00621012387498)
(0.806531909045 -0.00474192208646 -0.00943669598509)
(0.785622918036 0.000573994911106 -0.00626092690801)
(0.80467985139 -0.00434947419944 -0.00807124759379)
(0.809035074343 -0.00449345593294 -0.00827327099936)
(0.807509944476 -0.00395039748498 -0.00864201594358)
(0.784679369099 0.000422535994822 -0.0070555307637)
(0.784003258205 0.000774647088294 -0.00695510428523)
(0.807369725953 -0.0046762500715 -0.00868487572368)
(0.784048654694 8.63925403215e-05 -0.00695118344754)
(0.809336008318 -0.00357511982669 -0.00802706150128)
(0.80935881016 -0.00412733451622 -0.00710823714052)
(0.810017978304 -0.00307984461454 -0.00424279563909)
(0.782777842539 0.000349573630886 -0.0048270197786)
(0.783339178444 0.0010893427291 -0.00646843437033)
(0.809761413783 -0.00396041378758 -0.00456206208064)
(0.783102426668 0.00038631296421 -0.00640932579252)
(0.809617872962 -0.00314472806942 -0.00691424415805)
(0.787165093717 0.00843032685921 0.000298184723126)
(0.792771940973 0.0106715736145 -0.00149549472301)
(0.796504946676 0.0152558711711 -0.00308144937864)
(0.798956578186 0.0116553765006 -0.0021405475414)
(0.669773839723 0.133179493631 -0.002251883783)
(0.41581128912 0.123887231998 -0.000597169985285)
(0.655281445358 0.0203720039228 0.000857888026787)
(0.441732828431 0.0109799675254 -0.00761749555898)
(0.435998048388 -0.156905153596 -0.000597394165711)
(0.205341178711 -0.0816014537634 0.00646856938663)
(0.154767074021 -0.0693332884139 0.386460776457)
(0.160414997763 -0.0660822342425 -0.128809154146)
(0.156924369646 -0.066872200939 0.189943094813)
(0.15031111343 0.0482433873987 -0.137326104463)
(0.23122655081 0.067362380454 0.230368661892)
(0.784096764834 0.000812512216518 0.00228186362759)
(0.785201578448 0.00295505261358 0.00207493180049)
(0.789204413773 0.000607003775955 0.0043735085884)
(0.789935726952 0.00429072696063 0.00125794253231)
(0.782470193845 0.00580256367645 0.00237650920149)
(0.789324806934 0.0046616443529 2.28934254719e-05)
(0.786775334422 0.00566827988314 0.00123965880712)
(0.789783030015 0.00756752103919 0.000699439232043)
(0.790326838203 0.00498943233598 -3.67278558755e-05)
(0.792011328186 0.00590985164229 -0.00109386637618)
(0.78624210183 0.0134023866892 0.00199077501171)
(0.790105383988 0.0102905627923 -0.000442882239216)
(0.791428652944 0.0136035377367 -0.00113556100546)
(0.789992362939 0.00595074431901 -0.00108548069353)
(0.789413006418 0.00763618681402 -0.00315202132073)
(0.791429778566 0.00642042339869 -0.00170000666487)
(0.791255335647 0.00803973452794 -0.00506519629692)
(0.794096989446 0.0176689253909 0.000226943203104)
(0.798588348605 0.0205441233679 0.00226173383063)
(0.78997227576 0.00918431639266 -0.00330460075199)
(0.792559836455 0.0127413770159 -0.000949888404886)
(0.792532185374 0.00810230051848 -0.00579240617191)
(0.795335944168 0.0101602646829 -0.00284841797361)
(0.794057518503 0.0131165401156 -0.00287969801652)
(0.7959483791 0.0117806667434 -0.00291656657436)
(0.792230487043 0.00610602421397 -0.000718861086291)
(0.791768122704 0.00736062149742 -0.00463956466766)
(0.793182109195 0.00523768767775 -0.00367914817983)
(0.799869096905 0.0167896612193 -0.00155148820902)
(0.797689722185 0.0131429132988 -0.00267918422497)
(0.800730881907 0.0141696176913 -0.00203100403709)
(0.793164404718 0.00832632126299 -0.00569617566235)
(0.795685504628 0.00869916820753 -0.0030778183691)
(0.794095057161 0.00548721961818 -0.00438671208317)
(0.795645651737 0.00618991581866 -0.00249629268811)
(0.794667978179 0.00512031315094 -0.00350117827788)
(0.795871880721 0.00494973390009 -0.00225450574318)
(0.721790342411 0.0547962765706 0.00360842901755)
(0.731094601327 0.128433384218 0.00188275159793)
(0.688081515844 0.142043561776 -0.00155592051643)
(0.275161699615 0.0197136218669 0.0117284151065)
(0.348439389267 0.0129294748096 0.192601899884)
(0.347687692489 0.0100059443194 0.16005265016)
(0.344081657709 -0.00557455616939 0.214858616402)
(0.299504003537 0.0104516449378 0.170381233208)
(0.163039120709 0.0138873928288 -0.00849537416123)
(0.307651197886 -0.00872034067986 0.175832333714)
(0.1567694826 2.61561244508e-05 -0.0217378083205)
(0.720596927191 0.13866045984 0.000226641494382)
(0.705185141329 0.0906205201379 0.00104367280682)
(0.5482919788 0.129072188577 -0.00585053675428)
(0.655051094396 0.079972790417 -0.00179156694345)
(0.555189221295 0.0950127339208 -0.00785043311675)
(0.310384350123 0.000215080129688 0.210660427435)
(0.341020417012 -0.00249961498567 0.234186393636)
(0.263068681264 0.031118178266 0.255169493255)
(0.331101044667 0.0352854922868 0.306009747855)
(0.321983548444 0.131223466288 0.00132100203846)
(0.421356166475 0.0964986256802 -0.00674576782356)
(0.348969746571 0.0853501516759 -0.000668851472521)
(0.30131315176 -0.0133522641087 0.195634475741)
(0.172080813477 -0.00723516180113 0.085942129676)
(0.297394435387 0.0359587184297 0.25331362315)
(0.181262745725 0.0478091064332 0.166989757474)
(0.572024100373 0.0191289179593 -0.00595408685737)
(0.565964566726 -0.0561542242142 -0.00465780537411)
(0.199245217212 0.0140034551713 0.213905178323)
(0.332976114223 0.0251647668582 0.342060342974)
(0.369104012317 0.024310867189 0.320918802128)
(0.358054270341 -0.0163557724937 -0.00258688140563)
(0.44174948801 -0.0807089877436 -0.00538807899114)
(0.363140863875 -0.111313041393 -0.00232930015681)
(0.305244596688 0.0324213809017 0.307471922032)
(0.231886676778 0.0511942464107 0.212640200825)
(0.368527784167 0.0313513288531 0.288014253665)
(0.332458471893 0.0366683147838 0.200767769483)
(0.784475121173 0.000625338612994 0.00525687420904)
(0.783199896536 -5.94763956737e-05 0.00534772757862)
(0.78956284485 0.000236044912366 0.00478315936809)
(0.789243091801 0.00224464765819 0.00397592172906)
(0.782921671607 0.000808904600736 0.00488897130967)
(0.789958689398 0.00186340959316 0.00427674187114)
(0.784478457824 0.000227030145724 0.0059561445603)
(0.784702867635 0.00155278017863 0.00497069623663)
(0.784129055776 0.00342440638544 0.00197135308619)
(0.789434184198 0.00293339355116 0.00331213985785)
(0.790294211269 0.00412156184175 0.00291617332795)
(0.78328211858 0.00213459172343 0.00383404067189)
(0.785125191226 0.0024460887935 0.00381822545825)
(0.790211855243 0.00293436978821 0.00392227896475)
(0.782127957937 0.00440453507994 0.000582446970017)
(0.78384105665 0.00442365361317 0.000877264546799)
(0.788646678938 0.00329745828482 0.0018118950552)
(0.789468628694 0.0056150757342 -0.00197896470397)
(0.782581322216 0.00275037943479 0.00276215221013)
(0.783865908028 0.00630390846212 -0.000957820940898)
(0.788329216391 0.00407252638964 -0.000579476410198)
(0.787280925613 0.0046942240247 0.00128996702303)
(0.785452145168 0.00467395479252 9.58343389602e-05)
(0.790799512995 0.00490456807945 0.00178910358466)
(0.791221386002 0.00581321110361 -0.000524642696101)
(0.786088783774 0.00375745986931 0.00239253726083)
(0.786661132235 0.00581626176317 -0.0006714279483)
(0.79123868929 0.00534891412576 0.000853413558915)
(0.788484180068 0.00603221960942 0.000566521557948)
(0.789120791884 0.00827624322543 -0.00133506708753)
(0.791577028852 0.00565889830728 -0.000981726868744)
(0.792220668503 0.00541001615271 -0.00023575516236)
(0.787996976081 0.00689748220162 -0.00124871919022)
(0.789623738668 0.00705554304537 1.74146776529e-05)
(0.792045661593 0.00544039411323 6.84821366395e-05)
(0.787190653434 0.00882824229792 -0.00325733490512)
(0.785269839988 0.00618377485506 -0.000623365193739)
(0.789985338055 0.00619684781902 -0.00256284401749)
(0.79028526393 0.00646208890298 -0.0012134524671)
(0.785837799553 0.00784849699696 -0.00278336284498)
(0.78670923339 0.00722892193718 -0.00107414019287)
(0.790077889675 0.0068270374042 -0.00295410876416)
(0.788272015127 0.0100042470339 -0.00335831864498)
(0.788098422094 0.0118375023191 -0.00258332759619)
(0.789649018685 0.00649936013205 -0.00274760715438)
(0.790941759184 0.00810817073018 -0.00434769064708)
(0.786426304545 0.0092887751594 -0.00185970401587)
(0.790388315134 0.0124198505233 -0.00391532068152)
(0.790253251288 0.00695394102475 -0.0039307608923)
(0.788714548248 0.00969086419734 -0.00419379191713)
(0.789436092512 0.0095357361024 -0.00194006916677)
(0.790972618798 0.00629431933736 -0.00166564848571)
(0.791436780231 0.00723188312981 -0.00320534985543)
(0.788179254155 0.00850279822688 -0.00179135854284)
(0.789996597369 0.0109638041039 -0.00420505478176)
(0.790572925086 0.00689013419241 -0.00339325552946)
(0.78992283741 0.0112281392789 -0.00478879562471)
(0.792918753631 0.0131547301968 -0.00601664729033)
(0.791585210844 0.00786801180871 -0.00504341727389)
(0.791156738346 0.007866109173 -0.00374413480227)
(0.792143646511 0.0125422996583 -0.00595549639031)
(0.791134666577 0.0119493307342 -0.00435271091641)
(0.790878469893 0.00770257857314 -0.00476951548328)
(0.793889577404 0.016236680634 -0.000531182174102)
(0.789535417917 0.0143342797254 -0.00160829606902)
(0.790949248661 0.0098189478346 -0.00166055871584)
(0.791030158631 0.00937080337012 -0.00290467338314)
(0.792073565335 0.0164228799722 0.00068052829381)
(0.791739634054 0.0141014878383 -0.00201409214624)
(0.791434873264 0.010131397921 -0.00285560549335)
(0.796227937867 0.0176444058965 -0.000883633225502)
(0.797496056462 0.0196526706051 0.00367472520956)
(0.791422211588 0.0109257009215 -0.000248131895046)
(0.794618961342 0.0121360641999 -0.00134616501324)
(0.794446184272 0.0183090642067 0.00189317492853)
(0.792536110179 0.0104697560503 -0.00271434441382)
(0.799253379229 0.0190252185558 0.00208739705826)
(0.795624096033 0.0154999283832 -0.00378684885007)
(0.79467550829 0.0138903309968 -0.00621071423202)
(0.791890820458 0.00816739580812 -0.00408418494781)
(0.793833246427 0.00895560926756 -0.00504643882139)
(0.793516399218 0.0138487120336 -0.00420916757545)
(0.797284356997 0.0153047500523 -0.00486993239455)
(0.792253020136 0.0091353752942 -0.00399128688104)
(0.797760682745 0.0173364705407 -0.00362459008247)
(0.800969024563 0.0173758771891 -0.00189231884152)
(0.79559188902 0.0112242857295 -0.00257728864072)
(0.794656975505 0.0100967713239 -0.00316366041302)
(0.798977412549 0.0166459634536 -0.0036684169806)
(0.793708253345 0.0107623576767 -0.0040808512264)
(0.800426485133 0.0183441997142 -0.00122578753967)
(0.792092102549 0.0111759127715 -0.00315983857217)
(0.790620456692 0.0102948502152 -0.00142838133309)
(0.791967915631 0.00660622682138 -0.00203841736002)
(0.792510892313 0.00573468396285 -0.000187315816987)
(0.791223936526 0.0112874626146 -0.00369847096931)
(0.79171179934 0.0102356478158 -0.00108735222314)
(0.792149107689 0.00603416851574 -0.00128068597561)
(0.793122829469 0.0120496036622 -0.00429149345091)
(0.794010084566 0.0132841452077 -0.00653229234565)
(0.791643460982 0.0068927976367 -0.00312717799228)
(0.792753474656 0.0068023968628 -0.00422232915784)
(0.79218950189 0.0123367783051 -0.00435147939826)
(0.795155273119 0.0131026776927 -0.00637644392009)
(0.792010113535 0.00630837546495 -0.00292594486332)
(0.794143944095 0.0118360554194 -0.00361703781734)
(0.796751778314 0.0125143885691 -0.0053308227002)
(0.793173778902 0.0059036290615 -0.0038702703993)
(0.792919365347 0.00488902385417 -0.00245080996817)
(0.796075177983 0.0127370868842 -0.00564113100075)
(0.795057664887 0.0114850426893 -0.00362030759535)
(0.792653809298 0.00560452918705 -0.00253658322099)
(0.798536655967 0.0145409781215 -0.00555746091566)
(0.795801885107 0.0144214495989 -0.00688287766552)
(0.794422055294 0.0082398852968 -0.00516826335135)
(0.793382843481 0.00767335191962 -0.0042234052849)
(0.798250211464 0.0150452938688 -0.00611152821832)
(0.796595195856 0.0139908819543 -0.00624070474603)
(0.793926461877 0.00760034773962 -0.00437274426714)
(0.800310758926 0.0147240931532 -0.00577372422983)
(0.80160049308 0.0162224131393 -0.00312861904891)
(0.795217511805 0.00821414732635 -0.0033668870279)
(0.796364481215 0.00764559729849 -0.00365419042083)
(0.799963707968 0.0156604457856 -0.00476950118602)
(0.795099933706 0.00725443920045 -0.00451788817634)
(0.802003843494 0.0152002603292 -0.00414314169085)
(0.799126310474 0.0138475604358 -0.00492815489461)
(0.797973006097 0.0130379580554 -0.00572896446108)
(0.793845230939 0.00596213667003 -0.00410386789424)
(0.794962418821 0.00597382862059 -0.00417244292991)
(0.797339526071 0.0134196968908 -0.00547273697619)
(0.799607889437 0.0136024411287 -0.00500535688325)
(0.794226134538 0.00653216373992 -0.00401519864877)
(0.800669341049 0.0144931877693 -0.00508705219327)
(0.802080500432 0.0139669490965 -0.00287637391221)
(0.796399831016 0.00680313278546 -0.00362454350761)
(0.795410066088 0.00633857058285 -0.00286960483188)
(0.800939412282 0.0139616334866 -0.004349327189)
(0.795241532169 0.00700670926493 -0.00418734867544)
(0.802196726419 0.0145759417293 -0.00375859226564)
(0.800130871848 0.0122988164458 -0.00257829781093)
(0.798616305879 0.0127010854325 -0.00430419096424)
(0.795293125062 0.00527486074497 -0.00342485465505)
(0.794800487711 0.0042228854361 -0.00237396738053)
(0.8000256279 0.0132084484013 -0.0038197997709)
(0.799279365436 0.0119640529955 -0.00351098570287)
(0.795006879352 0.00434167540955 -0.00188532772379)
(0.80199175446 0.0130558097051 -0.00231801002721)
(0.795619187269 0.00502798735317 -0.00256911891327)
(0.801021664427 0.0131494036445 -0.00332397836138)
(0.809132587152 -0.00231982138885 -0.000311908925192)
(0.807851406541 -0.00515723720803 -0.00058655331577)
(0.806112672544 -0.00591268080529 -0.000804850036565)
(0.804891361607 -0.00437735652309 -0.00046484413306)
(0.804554912573 -0.00404154038292 -0.000316656523137)
(0.80385689059 -0.0144159382622 -0.000298194696903)
(0.808701275098 -0.00237305310888 -0.00076513861033)
(0.807429389747 -0.00552288277253 -0.00103560589553)
(0.80592904178 -0.00643692474847 -0.00160501652006)
(0.805146682297 -0.00430140682282 -0.00133154157207)
(0.804723131893 -0.00398735366791 4.24594278224e-05)
(0.803998870015 -0.0142946159188 0.000820073686725)
(0.81848282581 0.00509344395582 0.000145111411849)
(0.815381083485 0.0036641703291 0.00181760502509)
(0.79354226678 -0.0014972522526 0.0125881537611)
(0.788183865008 -0.00559947297025 0.0143534386037)
(0.788132678082 -0.00666214616458 0.0131103925979)
(0.788911579296 -0.00562969070861 0.00784624985402)
(0.796625927243 -0.00300058628929 0.00294200599503)
(0.78760794465 -0.00600676810289 0.00179689039065)
(0.825205042106 0.000558298882688 0.000150466630523)
(0.820676030525 -0.00367335578215 7.54381000099e-05)
(0.815723359824 -0.0160016482861 0.00322933748554)
(0.806522756125 -0.0184705777047 0.00376922274158)
(0.802407304997 -0.0148064290591 0.00282032667371)
(0.798977996797 -0.0108615780779 0.00140674053226)
(0.80087084544 -0.00627269813627 0.000603770822018)
(0.793361531582 -0.014999059871 0.00048592260583)
(0.817741072042 -0.000185511968669 -0.000516891697731)
(0.817500714423 -0.00561900632899 -3.05695636401e-05)
(0.812949448279 -0.00957171956102 0.00048832337281)
(0.80719018484 -0.00997407346163 0.000864512780016)
(0.804095438879 -0.0092590383539 0.000954121051687)
(0.801866549958 -0.00743709680595 0.000404652289009)
(0.802535268889 -0.00511632623584 0.000123928964342)
(0.797400231182 -0.0161169582356 0.000164641555916)
(0.812953058294 0.00188900437679 -0.00057268771319)
(0.81326006492 -0.00325338750893 -0.00027674723502)
(0.810124434822 -0.0072557515866 1.64122124615e-05)
(0.806351802204 -0.00856131924461 -1.14179760335e-05)
(0.804797549054 -0.00863168416133 -3.40818739317e-06)
(0.803468074685 -0.00751679462303 -0.000174107807015)
(0.803684667745 -0.00546480255662 -0.000154239812168)
(0.800684591449 -0.0177345924024 -3.50852360924e-05)
(0.805252283571 -0.00606139477873 -0.000716399074309)
(0.804587970521 -0.00562483904237 -0.000653451600368)
(0.804368648345 -0.00458518403428 -0.000387640372445)
(0.802805362312 -0.0161152000283 -0.000277582468742)
(0.641934090095 0.0407427313504 0.0111175964493)
(0.641225110919 0.0402388140064 0.0187010601569)
(0.66931918522 0.0105194831016 0.0318760768988)
(0.708948595687 -0.00695586259076 0.0242927525683)
(0.745802586674 -0.00976435046863 0.0134063784539)
(0.767857946793 -0.00787387395881 0.00663443373221)
(0.790319978893 -0.00420349981058 0.00375009309106)
(0.781513613276 -0.0080107086809 0.00366365319533)
(0.776112838161 0.00876520313599 0.00680653262646)
(0.775188608735 7.6852473005e-05 0.0101985244555)
(0.787167059065 -0.0207951342127 0.0137397921622)
(0.789834937909 -0.0260555536396 0.00977453728994)
(0.793017390458 -0.0233303835534 0.0065634420359)
(0.793873163631 -0.0161177999907 0.00298062315891)
(0.799714372314 -0.00823445788935 0.00231708202332)
(0.792376366385 -0.0173901359527 0.00275517657909)
(0.818821863498 0.00191755156344 -0.000692230737692)
(0.817547366533 -0.00631437448273 -0.000597114698222)
(0.813691403695 -0.011575437836 6.4531219583e-05)
(0.807858698403 -0.0125560197861 -4.44195680372e-05)
(0.804367664202 -0.0114911079631 -2.12809883767e-05)
(0.801666243218 -0.00881380664041 -0.000467809109838)
(0.802612655209 -0.00598220384478 0.000783570301062)
(0.797383869339 -0.0171289219636 0.00184110036296)
(0.813105547516 0.000805906485111 -0.0010357309137)
(0.813419769831 -0.00350012380564 -0.000925988210036)
(0.810346175781 -0.00652191231143 -0.000672491614343)
(0.806431450484 -0.00779537482337 -0.00102233085122)
(0.80459690075 -0.00812734172682 -0.00107261569519)
(0.803712396935 -0.00705659485142 -0.000996430149546)
(0.80390554082 -0.00556974235295 0.000590100397901)
(0.800702539842 -0.0181099664382 0.00158900874822)
(0.805342713027 -0.00642160659411 -0.00157292943309)
(0.805080392243 -0.00585185694751 -0.00128874200599)
(0.804748567694 -0.00484392556159 0.000291905461397)
(0.803208631035 -0.0165492212322 0.00115342840922)
(0.633967632229 -0.0163312028147 0.0187689617017)
(0.631269624456 -0.0192528017106 0.0280573481276)
(0.658757897374 -0.0350874315525 0.0193948969349)
(0.699395143653 -0.0317775528904 0.00202207704442)
(0.742459228314 -0.0210915071534 -0.00509449494442)
(0.767081169288 -0.0124281913073 -0.00632657005508)
(0.792210196215 -0.00551427960953 -0.00204739605168)
(0.784627531651 -0.00894695809297 -0.000958220595876)
(0.736756872125 0.00143422452634 0.0208157288393)
(0.739795514738 -0.00990135429369 0.0226920594593)
(0.790441595587 -0.0229753591069 0.00389367445068)
(0.789033048876 -0.0259661305786 -0.000803669979613)
(0.791149684278 -0.0239621023959 -0.00257002054765)
(0.793640754247 -0.0166756843828 -0.0051483602867)
(0.801625288604 -0.008484017328 -0.00168946516514)
(0.795155564472 -0.0186805430087 -0.0004617715039)
(0.819107808721 0.00121954030438 -0.0012106609436)
(0.818870101901 -0.00653639760234 -0.0012647448593)
(0.814562503129 -0.0141559572601 -0.00235393321083)
(0.807468644963 -0.0148374143449 -0.00461254989577)
(0.803627379748 -0.0129438390682 -0.00605738202685)
(0.802961950131 -0.00950374337856 -0.00563060189722)
(0.80480896451 -0.00663754117763 -0.00162867794833)
(0.801353539169 -0.0192455415399 -1.42063417258e-05)
(0.80861519341 0.00755880898988 -0.00131006635405)
(0.812978361555 0.00159901914049 -0.00102257502926)
(0.813272131334 -0.00377180750689 -0.00200117044835)
(0.81012177333 -0.00805166664126 -0.00282306983311)