/*--------------------------------*- C++ -*----------------------------------*\
| =========                 |                                                 |
| \\      /  F ield         | OpenFOAM: The Open Source CFD Toolbox           |
|  \\    /   O peration     | Version:  v1906                                 |
|   \\  /    A nd           | Web:      www.OpenFOAM.com                      |
|    \\/     M anipulation  |                                                 |
\*---------------------------------------------------------------------------*/
FoamFile
{
    version     2.0;
    format      ascii;
    class       surfaceScalarField;
    location    "5.75";
    object      alphaPhi0.water;
}
// * * * * * * * * * * * * * * * * * * * * * * * * * * * * * * * * * * * * * //

dimensions      [0 3 -1 0 0 0 0];
oriented        oriented;


internalField   nonuniform List<scalar> 
92311
(
0.202866951125
-0.000287103776179
-0.000274545282269
-0.202529290481
0.00022382599419
-0.00035331097097
0.203102360867
0.000329894532644
-0.00021185782114
0.20281872204
-0.000634640008785
-0.00026104555067
-0.202430526483
0.000220211966993
-0.00084618541486
0.203233099414
0.000324783525658
-0.000246234192471
0.202710899061
-0.000272874226774
-0.000347055043928
-0.000114838386524
-0.20216388691
0.000130988259263
-0.000253436971889
-0.000324484407105
-0.000386459437047
-0.000459299546562
-0.000475013546164
0.203527989112
0.000350213425883
-0.000306722537565
-0.000386041184843
0.0505102894405
-7.89918293363e-05
-8.91818223887e-05
-7.81102776949e-05
-9.16810763559e-05
-6.92891530105e-05
-0.0504661792376
9.03185514455e-05
-0.0506441340467
0.0508464856579
-0.000161746585437
-0.000134772182209
-0.000137635941812
-0.000153999919567
8.03965853977e-05
-8.09180127083e-05
4.39965115973e-06
0.000494556359855
6.6765041807e-06
3.53869228611e-06
5.90984300724e-06
-0.000180478231558
-0.000671193012845
5.75248404559e-06
0.000140418208812
-0.000213815804186
0.000157805432053
4.17757923205e-06
4.12776278398e-06
1.83760188226e-05
1.93939952419e-05
1.71824843209e-05
1.74556820375e-05
-0.000123421718199
-2.96657456479e-08
-1.1114947119e-06
-1.10703815247e-06
-1.21215507775e-06
-2.4926420534e-08
-1.13849434973e-07
2.52298457361e-08
-1.0544742404e-06
-0.000113927224397
-0.000133439129454
-0.000136898132207
-0.000114774148154
1.45044365799e-05
3.70631896504e-06
7.82915818977e-05
0.0115333490335
2.99649465327e-05
-3.14493082137e-05
-0.0115700893939
0.0113469702966
-1.2966959942e-05
0.000156722731363
-0.0114207019753
2.648639132e-05
-2.37636045427e-05
-0.000159120199606
-0.000157916536157
0.0510053740911
-0.000149517808809
-0.000151457493797
-0.000144332672548
0.000144338868311
-0.000172062154725
0.0509648694861
-0.000181220061073
-0.0001665018096
-0.000168243924363
-0.0507751343652
-0.000135669537056
-1.45218588974e-05
0.000156503915978
0.011281925926
1.61495510114e-05
-1.62330371995e-05
-6.01495427697e-05
0.0127664567943
4.83047472932e-05
-0.000173741543293
-0.0127374654495
0.012765492126
-6.13766613318e-05
-0.000202436028261
-0.0127323179742
-0.000197641663818
0.20299428844
-0.000980480271462
0.000837930667816
-0.202654221897
0.203155893982
-0.000291681071069
0.000830968922825
-0.000592462448164
-9.73219359112e-05
0.202961161886
0.0011082272653
-0.000815924626586
-0.000301929123352
0.202919142252
-0.00102224097064
0.000820886028477
-0.202613555304
0.203331938799
-0.000596456413638
0.000795786085414
-0.000589680637873
-0.000169837625087
0.203080635407
0.00109902871026
-0.000775111748342
-0.000104921312243
-0.000129173782135
-0.000116623996804
-0.000810161538839
0.20263783324
0.000695076546375
-0.20238129615
-9.26774353557e-05
-0.000369447210937
-0.000249699216339
-0.000371170454162
-0.000213222487661
0.203895931305
0.000935147048171
-0.000696137017706
0.0505357218919
-3.50354318932e-05
-2.16535728615e-05
-2.73521278695e-05
-2.73158551495e-05
-0.000184086196671
-0.050530368755
0.000185200766719
0.0511251355672
-0.000158494571448
-0.000129888071015
-0.000122571300727
-0.000114629941839
-0.000108215426273
0.00014459062424
0.000209619419322
3.09219270809e-06
-0.000328626894028
1.63445637182e-05
1.7289690528e-05
1.48812699695e-05
1.58313761107e-05
-0.000225469029489
-7.63032542467e-07
-4.54539227844e-07
-6.41032193593e-07
2.06240546745e-09
2.95688608753e-07
-8.96339311058e-08
-2.24332673244e-08
-5.56978515366e-07
1.50882599615e-07
1.95427880254e-07
4.71176016328e-08
4.08419211841e-08
5.12464826057e-08
1.85891362119e-09
1.60187897788e-07
9.81713386808e-05
-5.72579006968e-05
-5.81719969385e-05
-4.90477584512e-05
-6.47309505406e-05
0.0505993181837
-6.16709274836e-05
-4.5474909229e-05
-5.1456562746e-05
-4.651773733e-05
-5.37802221749e-05
0.0505329380156
0.000123300115804
-0.0504774054889
5.79817469698e-07
2.09842304682e-05
0.0116337519537
9.18803768115e-05
-0.000107405221089
-0.0116391298811
-3.83847713402e-06
7.84448849174e-05
-0.0115965042178
6.14283303122e-05
-7.20589809083e-05
0.0115620132506
-4.36576044959e-05
0.0125923184633
-3.24286255258e-05
3.67665763965e-05
-0.0125982198403
-0.000184608671111
-7.83338594675e-05
-4.42709330399e-05
-7.189632779e-05
-4.86526582956e-05
0.0511041150111
0.000199093887857
0.0511039713521
-0.000139138039956
-0.000126513889478
-0.000149211884522
-0.000120117216111
-0.000133785861544
-8.34755898078e-05
-4.42070523574e-05
-7.66502530664e-05
-4.02677285963e-05
0.0510959151584
-0.00014531166835
-5.87862162084e-05
4.8087000221e-05
-0.000149670948195
0.0127980998892
-4.81729865613e-06
2.2432283642e-05
-0.0109116407168
-6.80700341242e-06
0.0109066938966
1.55349058545e-05
-5.72090629257e-05
-0.000173970822007
0.0128004164646
-0.0128119351305
-8.62179405175e-05
0.0128099502703
3.83845880416e-05
-3.27344000539e-05
0.000249021710702
1.02650315225e-05
1.21828367208e-05
8.64262256109e-06
-0.000105512032321
0.000133300056766
5.69983245576e-06
4.39098496942e-06
2.16574999716e-05
2.57318915371e-05
2.33078193928e-05
1.9616230342e-05
-0.000244080631995
0.000183497330536
2.83814904109e-05
-1.78114384003e-06
-2.31950016713e-06
3.99471562039e-07
2.31376068082e-06
-1.41573501767e-07
-2.52135304158e-06
-4.07295829181e-07
4.95564723834e-06
1.68433661941e-05
1.44273106151e-05
1.79848533831e-05
-7.53673710614e-05
0.000127234945705
-2.48392278871e-07
-2.45984544418e-06
1.2031605881e-06
2.4673276494e-05
0.0125857877935
-2.22713414892e-05
-0.0125888385189
-0.0125745726873
-0.000105777043543
-1.00831810866e-05
0.0125882984776
1.32397728985e-05
3.06807672039e-05
0.000110093677373
0.0114775537216
-2.87133369363e-05
7.52288334296e-05
0.0115539076202
-0.0115896555492
2.91550132416e-05
-0.0125799539627
2.70855920826e-05
0.0114965070974
3.132440648e-05
0.0126018128894
-7.4570228438e-06
0.0125973840474
-0.000127778004156
5.22979406559e-06
2.04989992097e-07
-1.82800378824e-05
-0.0126136210643
0.0126386485918
1.76748426538e-05
2.75000782775e-05
0.000128331497174
-2.57712595556e-05
0.00016447285423
-0.0114347245275
0.0113536118529
2.38124070374e-05
0.0126262805437
-1.84557868138e-05
2.30019590611e-05
7.61514326923e-06
-0.0126624696828
-0.000189704340485
4.09686047871e-05
0.0127002845877
-4.92811541218e-05
-3.40919192449e-05
0.0126691068052
2.67503073673e-05
8.21725059484e-06
0.000176778582719
0.0112031306042
-1.05843235321e-05
0.000168016832419
0.0112859798891
8.19931016969e-06
-3.84749407671e-05
0.0111976046446
3.96946337232e-06
0.0127038423743
3.05024189441e-05
-0.00016410192407
-0.0127396675439
0.0127681151448
3.57565803881e-05
-3.57547033051e-06
-0.0111319120568
0.01106023253
3.54787352538e-06
-0.011119634641
-7.73650348681e-06
0.0110426249567
-0.000176142749315
4.49282975681e-05
-5.59621947355e-05
4.34457257224e-06
0.000165274546378
-3.16175702795e-06
-2.10247692697e-06
3.14889230316e-05
-0.000223134326295
-0.0127328784189
0.0127702478164
-5.53460979033e-05
-2.36870672416e-05
-0.0111108378763
0.0110272646892
-0.0111206008831
0.0110227896097
-2.8792754743e-05
-5.8220676848e-05
-0.000206568886919
-0.0126886464895
0.000228869046911
2.04692178592e-05
-0.0112221936853
-2.49869035796e-05
-0.0126779025863
-5.13946821574e-05
-0.0111994181242
4.62864618848e-06
-0.000297740743208
1.97218189778e-06
3.39462784964e-06
2.71086337956e-06
1.53917790813e-06
0.000722808648997
-0.000821193437665
0.000221664357021
-1.2261802497e-06
2.27880307024e-06
5.37960479171e-07
-2.10293248466e-06
0.000765404980852
2.96230933838e-06
8.28347270539e-07
4.43624897842e-07
1.35073869157e-06
-0.000363120333373
0.000317832943726
-0.000822004062624
3.89050237601e-06
2.41026703493e-06
3.36133177354e-06
2.65113599715e-06
0.000660861790746
-0.00032973875047
1.48825329063e-06
-1.2165851727e-06
-1.47536161175e-06
1.08626427452e-06
-1.38362265172e-06
1.08696719907e-06
2.96726226966e-06
-0.000355069238861
1.84312462317e-05
2.06959080033e-05
1.82338218293e-05
1.6180666189e-05
0.000189622465901
-1.87097985028e-06
-1.37700189292e-06
4.59741355785e-06
-1.61226125985e-06
4.94718749845e-07
2.91090546292e-06
-0.000209556377484
1.00408680135e-05
3.49747299677e-06
4.02377548365e-06
1.00600246419e-05
-0.000424161037207
0.000167212160285
-2.22100473313e-06
-3.1492656767e-08
5.17400607877e-06
3.27124427926e-06
9.53485808902e-06
5.18200427454e-06
1.05815628202e-05
-0.000403099878393
-0.000254030069061
-5.73046132297e-08
1.75205686828e-07
-3.11122308016e-05
-0.0126087429815
-4.09281838954e-05
0.012609391133
3.64225678334e-05
0.0126179799689
4.02390149826e-05
-3.67134513521e-05
-0.0126222777973
3.3862106356e-05
8.30306314099e-05
0.0116219501901
-9.69230538036e-05
2.54682855911e-05
0.0116238706026
-0.0116282917388
7.75262806775e-05
0.0126176603608
-2.42170734838e-05
-0.0126132459173
4.29235950961e-05
0.0116155133457
6.82445313715e-05
-2.35463731841e-05
0.0126080881518
-6.33985161446e-05
3.10749785653e-05
-0.0126167750332
1.14415155743e-05
-1.63345905357e-07
0.0126259788599
5.78016823755e-05
6.9150601312e-05
-8.38577539699e-05
8.08182219423e-05
-0.0115917648893
4.43746130308e-05
0.0115601252048
-1.37793750876e-05
1.87008896742e-05
0.0126172590195
5.41077338654e-05
0.0115895597274
-4.04834510874e-05
3.55977450883e-05
-0.0116101231741
6.22879801924e-05
-3.51475097956e-05
0.0115597041488
3.37998740594e-05
-2.15380360942e-05
0.0125982455505
2.68023799677e-05
0.0126015368135
-4.43503787944e-05
-0.0126048865362
6.32534060496e-05
-0.0115904337171
0.0115638865345
0.0126083618335
-0.0116021127784
-0.000141094588474
0.0127991119004
3.68337085116e-05
-4.88098591659e-06
0.0109954646794
6.69348386912e-06
0.0109768927039
-6.02302737767e-06
4.82337541068e-05
-0.000114304704358
0.0128047392001
-5.42854881563e-05
0.000107504179222
-6.00267389209e-06
0.0109458640475
1.07644029572e-05
0.0128067712126
4.07086319639e-05
0.0109317053758
-2.64942577684e-06
4.92516746256e-05
0.0128054051482
-7.75845228657e-05
-5.00592376857e-05
-0.0128070334844
-4.68604773298e-05
0.0127846745162
4.70350959701e-05
6.99626041161e-05
-6.58915090063e-06
1.3613358823e-05
2.61132641237e-05
-0.0109020631506
3.73733747016e-07
0.010897317064
4.72141288185e-05
-4.73822419442e-05
0.012783306439
-4.71768625892e-07
-0.0128075405913
-0.000133466378726
4.64361366897e-05
-4.26754002371e-05
-0.000190062185769
-5.20435935467e-05
-1.81877888716e-05
0.0109572454444
0.0109371391594
-2.53687353183e-05
1.35037416482e-05
0.0108847451679
-1.73998784535e-05
-0.000132849034444
0.0128065424267
0.0109125328621
0.0108545495675
6.18637613675e-06
-8.63835893879e-06
2.58205324914e-05
2.25552407717e-06
0.0108531271458
-4.15134753969e-06
3.57126900431e-05
0.0127846115012
-2.86298887411e-05
0.0128071570959
-8.81827222688e-05
2.86605921685e-05
-0.0108843686295
0.0108812693013
0.0127840016124
-8.98442298373e-05
-3.54137174415e-05
5.34356710784e-05
0.00118460513439
0.203383002045
-2.00467002528e-05
-0.000749818585049
-0.000178131865919
1.98341508776e-08
-3.32295324588e-05
7.52794687207e-07
-3.68342750033e-05
0.000211245024949
0.0510504046622
-5.70387835818e-06
0.000178773933358
3.36427517423e-06
-1.77948430058e-05
-7.13316578245e-06
-2.18404777392e-05
-0.00024001926306
-0.000452966738596
0
0
3.17114209244e-08
0
-3.66822902557e-27
1.95350616814e-08
-2.07124753179e-26
-7.91584735999e-05
-7.59555560189e-05
-7.58997475798e-05
-8.30012920303e-05
0.000230811887556
-3.86010047879e-05
0.0505855355639
-5.25153692245e-06
8.20943152699e-05
-2.88659043942e-05
0.0115211467831
0.0510304223187
1.36355889361e-05
-2.50333017109e-05
-2.51840370906e-05
1.70434069251e-05
-0.000128720170885
0.0508878147579
2.46619779748e-05
5.03843014095e-05
4.04775699614e-05
2.857262553e-05
0.000196274237184
-0.000144312602977
1.26227827356e-05
0.0108998897312
-6.33174738527e-06
1.61661035684e-05
1.93836986142e-05
1.11739833076e-05
1.61574243103e-08
0.0108445129048
-4.45742652109e-07
0.0108101232336
7.99024696395e-05
-6.76863393744e-05
6.32013591207e-06
-0.0108221124377
-1.33920274781e-05
0.0507583694102
4.11040631794e-05
4.3770299956e-05
3.38606653902e-05
5.02728767308e-05
-9.14093329775e-05
0.000220605314243
-0.000168736743793
3.98568604363e-05
3.83129153735e-05
3.31914486203e-05
4.45632063295e-05
-0.000112405004867
0.000241298211706
0.050671828455
-0.000198199129182
8.31528015559e-05
-6.14081899437e-05
8.2191398544e-06
0.0107929490907
-1.72968567654e-05
3.81937404525e-05
-3.89804628403e-05
7.75192581105e-06
-0.0107840710063
0.0107758093363
-7.38711151733e-06
4.56095800545e-06
6.8656162331e-06
6.58859577354e-06
-0.000220478031717
0.000557091663602
5.56291603989e-06
-0.000441193149302
2.07638032275e-06
-1.52511973416e-05
-4.0811348541e-05
-3.10287682002e-05
0.00012554109998
-1.55947846538e-06
-0.000275712742593
-5.68282575041e-05
-7.15787107363e-05
-5.44265766815e-05
-0.000145266903573
0.000102892807844
1.23825569658e-06
1.69040516934e-06
1.27352009462e-07
1.4141701458e-07
4.10651940031e-06
-3.62886632456e-07
2.0014071167e-07
2.2199723931e-06
-0.000123424686989
-5.8365482242e-05
-8.32821257527e-05
-6.27349775243e-05
-0.00014997782246
-1.18278637393e-06
0.000159782180891
-3.54857813048e-05
-4.38439726244e-05
-4.38453245348e-05
-0.000196397583062
-4.89552322153e-07
-6.9006830977e-05
0.00023952535237
-0.0126098304496
-9.79969861577e-05
2.066074879e-06
2.09378751621e-06
0.0126251186322
-1.57877629285e-05
0.0125983645443
8.11571825555e-05
0.0115240618966
-3.26802318732e-05
-2.33775731114e-05
0.000104408148505
0.0114706496256
-1.16778440026e-05
-1.9616930469e-05
0.0114721954766
0.0126150597091
4.62173201401e-05
-0.0127588775639
1.90420307961e-05
-4.21930791284e-05
0.0127357621023
0.0127607787139
-4.6255187507e-05
4.92380915292e-05
-1.45568935244e-05
-7.16292217188e-06
1.46038229095e-05
0.0109002620326
1.44990499284e-05
0.0108845020913
1.32811294185e-06
5.32997621714e-05
0.012739766544
-4.44407275624e-05
-4.51828351708e-07
0.0108825110916
-0.0127609353466
2.27621328767e-05
-2.70936101797e-05
0.0127369619475
3.10054598867e-05
0.0127628407904
-2.32446538888e-05
1.55045104981e-05
0.0108694874499
7.42136263467e-07
-3.48227308725e-05
0.010846673387
-1.8769386881e-06
0.0108693426595
0.0127371873325
-1.89254341494e-05
0.012714706808
3.02240252859e-05
-2.55422877473e-05
4.25740603198e-05
2.71622966392e-05
-0.0127131126174
0.0126903333303
-2.18908017011e-05
-4.36915728418e-05
-0.0108454779909
0.0108335947892
6.83043414583e-06
5.1273626616e-06
-4.60050949528e-05
-1.10262421188e-05
0.0126938124601
4.48440655193e-05
6.03809696768e-06
-1.8799498212e-05
-0.0126740656217
4.46051308537e-05
-3.41364718749e-05
0.0126545470845
5.02160847368e-05
2.91320064943e-05
0.0126669751221
-2.35061591948e-05
-3.71403926017e-05
0.0108172319261
8.56730329915e-06
1.07275660568e-05
-6.51757423266e-05
0.0107757452467
-1.5664028777e-05
4.56335989411e-05
0.0107944155385
1.05567390567e-05
0.0126463170627
-2.82290576056e-05
0.0126342757603
4.57116149297e-05
-4.2449558761e-05
5.6856584143e-05
4.846223461e-05
-0.0126275822398
0.0126186171025
-4.03329493887e-05
-3.04634787783e-05
-0.0107859687444
7.50822054259e-06
0.0107725202133
1.13921641307e-05
-5.48905175695e-05
-1.5126302361e-05
6.09140754168e-05
0.0126244130721
8.98317666037e-06
-3.40851633537e-05
-0.000579333896335
-0.0495110038769
0.0494581516486
0.000742528817231
-3.65935769039e-05
-4.74444856587e-05
-3.20149927324e-05
-6.04191944018e-05
6.63083695606e-05
-0.000805219754402
0.0500236378304
1.30943142256e-05
-3.7660098709e-05
3.64559965974e-06
-2.31028725587e-05
3.07614019715e-05
-0.0499119115782
0.000706874967761
-0.00115758417224
-0.0501067632255
0.0502306695448
0.000905072479788
6.75394501496e-05
4.90894497199e-05
5.69761753932e-05
5.59549890651e-05
-0.000101017048275
-0.000670968200392
3.89940968725e-05
4.51337977132e-05
4.79365699974e-05
3.47533188413e-05
-4.85292654725e-05
0.0503277166573
0.000488602451028
-0.0502636369935
5.55444489811e-06
9.61165872125e-06
-0.000678045901282
0.000631845595343
-2.37488846997e-05
1.43204115083e-06
4.72770166844e-06
6.65866775226e-06
3.33419124466e-06
8.85470971137e-08
-0.000623262034102
0.000680318513236
-9.69917166805e-05
-4.9403225372e-07
3.35450079517e-07
-4.16106110726e-05
-3.31454122662e-05
8.47387514039e-05
-7.51378156454e-06
1.46440599624e-05
0.000528987112798
-2.05003204257e-07
-3.38768628747e-05
-1.5108806025e-05
-5.1697930282e-05
-0.000556802144898
4.27341726215e-05
-5.08524568492e-05
2.78990315065e-05
-0.000599338117048
0.000770437603498
9.86539536487e-05
-3.68017093714e-06
-6.0125997567e-05
-6.92599958813e-05
-8.33968175294e-05
-5.12154370536e-05
-0.000238059263751
-5.24534146016e-05
-3.55839630423e-05
-3.02966637708e-05
0.000712990137756
0.000307428316737
-2.59510431504e-06
-0.000606212847604
7.31851188203e-08
9.00482131369e-12
1.99844298754e-08
2.0533773595e-09
1.07129302315e-09
5.36824342442e-10
1.32944162556e-09
4.09354746442e-28
-3.05685316473e-07
-3.2389017563e-07
-1.13980245037e-06
-4.82065777858e-07
-1.0883579603e-06
1.08115707666e-07
-9.2330687385e-08
0
-7.34180288648e-10
5.54172593431e-09
5.33157989172e-09
0
0
-1.01301207161e-08
-1.36348337191e-07
-1.71482944097e-07
-3.28987346339e-07
1.64944049488e-07
6.73658476781e-08
1.96603306811e-07
9.69415140307e-08
1.45917553718e-08
2.0213108947e-07
3.05555112851e-07
-9.93038793998e-08
-4.18118125838e-09
1.68580648238e-08
1.82000070769e-07
1.21143321729e-07
2.53381705809e-07
1.96229614244e-07
8.86367300458e-07
-3.80098689758e-07
0.00018579082251
-8.51179627572e-06
-1.8218928661e-05
-1.42810550723e-05
-1.24262024516e-05
0.0490724493309
0.000154024436838
-1.36907684953e-05
-0.049345166855
0.0491684035646
0.000355265629728
-1.73287590905e-05
-3.24605176309e-05
-2.20666490934e-05
-3.23432207941e-05
0.000159702470997
-0.0493934640971
-1.87514199917e-06
2.15260712045e-05
-0.0117367043864
2.11051568969e-05
0.0117085075416
8.82723866e-06
0.0116864623471
8.40311459952e-05
-3.97353242554e-06
5.53738723665e-05
-6.32396856026e-05
-0.0117237384257
-1.19145821421e-05
-2.82052558974e-05
-1.1524418682e-05
-1.63331395009e-05
-0.000303377260141
0.0123066424051
0.0122618716418
0.0121719739999
0.0122178806761
2.02779224475e-06
0.000104295822719
-5.73694305922e-06
6.31352172138e-05
-7.73041059389e-05
0.0116442814022
0.00051636186226
-6.99052936188e-05
-5.7464447164e-05
-5.32877896924e-05
-7.35961808402e-05
0.000134760815882
-0.0495524019493
0.0497132094533
-7.34555547306e-05
-7.22247187232e-05
-7.43118500532e-05
-7.87698099503e-05
0.000155421099767
-0.049690635695
0.000637451286137
0.0116421164233
-6.06870235443e-06
9.66291827195e-05
-0.0116853975259
9.14117355988e-05
0.0114897949175
-6.14674143275e-06
9.48509399066e-05
-7.75777157328e-05
-0.0115173406185
5.92240982422e-05
0.00102651461303
-1.54556520038e-05
1.78871055655e-05
-2.32525762567e-06
1.45064255986e-05
0.0493940039275
-0.000224067976465
-0.000184455360975
-0.000227612257498
-0.000183080001463
-5.58769332838e-05
-2.84023428894e-05
-4.32228748492e-05
-3.02342974698e-05
0.0497503864699
-2.29680210892e-05
-5.31531935118e-05
-5.16141936261e-05
-2.11195724439e-05
4.90305424762e-05
0.0498817755712
0.000958717123891
-9.60258188727e-06
2.05063801189e-05
1.37567556622e-05
6.44609459223e-06
-9.47571842733e-05
8.5188119342e-05
0.0116035737974
0.00011268410524
0.0115394945244
5.54008710334e-06
-5.29571477223e-06
-0.0115570924724
0.000162657573202
-0.000159247681505
8.1887013618e-05
-1.61980626271e-06
6.32432110346e-05
-9.99043554581e-05
0.0114602898075
0.011437204302
0.000117517445985
5.03136161645e-05
-2.71791299284e-05
-0.000144764709461
-0.0114388713558
0.0500157828901
5.26964291567e-05
5.17201286976e-05
4.84128817734e-05
6.25113558939e-05
-0.00127158487518
-0.000235307725799
0.00131418988094
7.15437688957e-05
7.95746201854e-05
7.96344531919e-05
7.018788289e-05
0.0504876173185
-0.000400688003693
-0.00168633996546
-2.68408869056e-05
0.0115481720925
0.000178197615285
-0.000167060258852
-9.92497940333e-07
-5.12670838286e-05
-0.0115919854015
0.000188272033661
0.0116029001124
-0.000191375629413
0.000131463655348
5.66129151684e-05
-6.33444527595e-05
-0.000156081319839
0.0114565057616
0.000150475815812
4.76637714078e-05
-7.78292466517e-05
-0.000168832306194
-0.0114877725223
0.0115243232822
0.000802812381195
3.10627693983e-05
2.67116839507e-05
1.90358151542e-05
4.29106572387e-05
-4.68973636303e-05
0.0502030043597
3.94696104168e-05
4.61080565934e-05
4.67514026545e-05
3.8030921206e-05
-3.90421961995e-05
-0.0501496242066
0.000618106948719
2.64843767467e-05
0.0114437850861
7.31783034876e-05
-0.011471860619
0.0114259858126
3.78283432833e-05
-4.18407587772e-05
-0.0114203959995
0.000114047348396
0.0114443642217
5.09511666307e-05
-7.38817344069e-05
-9.88588201675e-05
-0.0114329274277
0.000105504879679
0.000981024742681
8.38563370404e-05
7.30036081638e-05
7.19233574913e-05
8.73637299006e-05
0.0504392282056
-0.000191568968774
0.05030708314
7.06747680981e-05
5.76309321759e-05
6.0245644489e-05
6.34003732212e-05
-0.000121974280696
8.87012294735e-05
8.04377144706e-05
7.72647177485e-05
9.2039613479e-05
0.0504152345905
0.000706270426305
-0.00017195699054
-7.21308779373e-05
0.0114427216695
0.000124841406468
4.59018728414e-05
-9.17760178885e-05
-0.0114717190834
0.000148974553515
0.0115085034892
0.000114906128095
6.32784268247e-05
-8.58219325521e-05
-0.000111739680006
0.0114535136394
0.000150363908062
6.4433509105e-05
-0.000108672214761
-0.000141943608619
-0.0114800617273
0.0115022259
-7.46217763786e-05
0.0114690199281
0.000119085251363
-0.0114583301669
-8.2419169594e-05
-0.0114982016075
0.0115139592551
6.08226410654e-05
0.000145120324314
3.23861638204e-05
1.08097558733e-06
7.31204553672e-07
2.62346782436e-07
0.000742692630217
-2.28518780615e-05
-0.000741128164275
1.89113851153e-07
0.00072700001399
2.51517326127e-05
1.65796839962e-06
2.321771472e-06
6.60233984047e-07
-0.000736436786959
7.03758737077e-07
1.38248977806e-06
3.62664158787e-06
6.16471699132e-06
5.32268063657e-06
-5.84394589449e-06
0.000701218692094
3.04119095917e-07
-3.07435871301e-08
-1.21580136444e-06
6.25152277746e-09
-2.69332180186e-08
-4.09663830851e-08
1.03763764312e-06
-1.34657197025e-06
-3.9307383184e-08
6.78872251616e-07
-2.13479598524e-07
-9.75766685814e-08
1.74630008028e-06
-2.67580261329e-07
-1.13225081408e-06
2.7438673665e-06
-6.1130210188e-08
-5.94595198063e-07
-2.56047658194e-07
-1.71901692519e-07
3.46558872644e-06
-1.97423557607e-07
-8.12573982463e-07
4.14705949685e-06
-3.747350848e-07
-6.06526675894e-07
-6.18263486795e-07
3.96934345767e-06
-1.5108805739e-07
-1.12135680104e-05
4.65570591696e-06
8.73245316365e-06
6.91042715943e-06
1.79580686193e-06
-0.000716134539653
0.000593431916831
7.25753876933e-06
8.47552067136e-06
6.67977340557e-06
-0.000649704704253
1.44638181542e-06
-2.81271011433e-05
-5.98195166261e-05
9.01141861459e-07
1.43593886508e-06
-4.95512838242e-06
1.32698779216e-06
4.59266889037e-05
0.000539413691121
9.76831884027e-07
3.38863364266e-06
-6.35835418702e-06
2.95823044271e-07
-2.99032979001e-07
0.000567842311497
-3.35120574637e-05
-2.16708050307e-05
-3.62156366669e-05
-3.88629234383e-06
1.52689930766e-06
-4.09778460436e-07
-6.1166922564e-07
-2.51656493402e-07
2.58107802095e-06
2.47155316706e-06
-3.94106042155e-07
-1.55958934838e-06
3.09725411988e-06
-1.1673927172e-07
-0.000106179580658
-3.63663164751e-07
1.08829944105e-06
-4.24882056901e-07
-9.06146768631e-06
0.000708431455769
8.29210928797e-05
0.000718708791303
-3.0054529651e-06
-3.73688232302e-05
-7.38179049167e-05
-3.28793868644e-05
-3.61210729321e-06
-4.02782885625e-05
-1.47019655942e-05
-6.80694027083e-05
-2.18806322172e-05
0.000795076291347
4.13129057639e-06
-4.34758732346e-08
1.6686461338e-07
3.87180207636e-06
3.49698544782e-06
1.46115986382e-07
6.14695930955e-07
3.80164026656e-06
6.51910499039e-05
-1.80658090783e-06
-4.3171903767e-05
-7.64490172203e-05
-7.72546915221e-05
-2.24531815282e-06
0.000633483333538
-6.49117403078e-05
-5.41308574501e-05
-6.89522042049e-05
-0.000551699818729
0.000185898619531
3.00125887628e-06
-2.28375504239e-06
-1.5510991963e-07
-4.82651391729e-08
3.44523375319e-06
3.39348992533e-06
-2.96336072037e-06
-6.39343945879e-08
0.000104524616372
-4.67765504237e-06
-5.63662312101e-05
-8.65031082631e-05
-8.90103442436e-05
0.000904534371683
0.000784689373782
-3.32703934679e-06
-7.08926602106e-05
-7.0208689098e-05
-8.40370968063e-05
-3.97468827986e-06
-9.23719686797e-05
-6.79245928906e-05
-9.15605261944e-05
0.000921951369056
0.000279686967516
3.09924281182e-06
1.16027008859e-07
3.16517360684e-07
3.81801428084e-06
3.03065638008e-06
-9.76760489444e-08
3.57545234736e-06
-2.06762591175e-07
0.0123489289943
2.00307424402e-06
-2.12525054413e-05
2.90505964756e-05
-0.0123673344903
2.65733661406e-05
-0.0123444237694
0.0123244045147
-3.24696897087e-06
2.20160696711e-05
5.54646407044e-06
3.99886382197e-06
-0.0117531962946
9.81846866753e-06
-0.0117458800979
4.32899330833e-05
0.0117232904081
4.22075386342e-05
0.0123291002451
4.26763811585e-05
-0.0117606165852
-6.70418736049e-06
-0.0123657624763
0.0123599815118
3.85158839985e-05
-1.18650679274e-05
-0.0123746436156
-5.98123304591e-05
-0.0123796017832
0.0123785707709
8.39439225854e-05
2.8648806342e-05
-0.0117431659559
0.0117146102951
4.38811642256e-05
-5.76670521651e-05
6.90384841818e-05
-0.0117505018377
0.0123489588772
5.72576971015e-05
-0.0123868056529
-0.0117617578374
-0.0123428157204
0.000121061886006
-4.09107974439e-05
-8.34248960652e-05
0.0123342992624
-8.58022286149e-05
0.0123792291914
0.000120353611864
3.58998593062e-05
0.011681043486
-4.72914282534e-05
4.60124564236e-05
-9.61694776767e-05
0.000127579576627
0.0116140455106
-5.50884703047e-05
0.00015768767641
0.0123726512495
-5.67660242311e-05
0.0116420150073
-8.7818882843e-05
0.0124398174103
-0.00011438398524
0.000119292790353
-0.0124263086982
-0.0124080381363
0.000116233297536
0.0124154162326
8.69301690242e-05
7.22206045644e-05
-0.0117194692838
0.000118812626716
-0.0116207716632
9.12910615449e-05
0.0115779871857
-0.0124046326052
0.000149119266263
0.0124527315915
6.38604578719e-05
-0.011661939103
0.0124717866372
0.000147655091049
-0.000119387708443
-0.0124533647491
-0.000176332832234
-0.0125001278194
0.0125096567042
0.000189880636218
0.000113729940752
-0.0115626277388
0.0115293143573
0.00012080839417
-4.82267535098e-05
-0.0115541383216
3.76430645827e-05
0.0124846621054
-0.0124782696353
0.000168524573721
-0.0116027530987
-0.000188213500406
-0.0124592456883
-4.99324832451e-05
0.0124513729792
0.000209769359052
0.0124211480682
0.000152914126734
5.50310593334e-05
0.000137719909017
0.0115798833951
9.52300793773e-05
0.0115447998709
0.000113460586213
0.0124140603329
0.00018195963354
0.0115302658172
0.000133065906807
-0.000223795264053
0.0124502902259
-3.00697265477e-05
0.000239929611964
-0.0124104063981
0.000260398591667
0.0124018122193
-0.000239197296566
2.4439105977e-05
0.000145421402569
-0.00013860233711
-2.69876920439e-06
-0.0115145333956
0.00015793871001
0.0115112497336
-0.000198007436202
0.000271861405586
0.0124506189577
0.000144281752782
-0.0124897518177
0.000222078430793
-2.81226990069e-05
0.0124833222099
-0.000205063621296
0.0125121795415
0.000212943591467
7.93484789639e-05
0.0115038726704
1.55825543319e-05
-0.000116492691925
0.0114524236252
9.90155259907e-05
0.0125071039153
0.000221815515931
0.0114981833953
0.0124842971928
0.000247983553119
-1.83374001207e-05
-0.000273200982793
-0.0125128971568
0.012515559378
0.000264210956419
-1.12615056244e-05
-0.0114920829321
0.0114876210282
-1.16960737251e-06
-0.000131268661505
0.000107046283433
0.0124856126534
0.000247916057949
-0.000337124908682
-0.0124491668493
5.6860909704e-05
0.012457095757
0.000338774999075
-6.6958112816e-05
0.0124040194284
0.000301186558951
-5.02784966737e-05
-0.000279958210721
-3.16991274792e-05
0.000182835637852
0.01157043117
-0.000178370404289
-4.95334411133e-05
0.0115051848584
0.000166753548018
0.0124198220341
-6.27087877101e-05
-0.000321819290065
0.000305981924762
-5.31697128211e-05
0.0115207899794
0.000173626583923
-0.000368448261961
5.49702487484e-05
0.012514941159
0.00037290025755
-0.000117342950459
-0.0124947893509
0.000385661692834
0.0125797053517
-0.000387576447718
-0.000134601146883
-3.472916361e-05
0.000187003697766
-0.000187380768651
-0.0115558755372
-4.98252630362e-05
0.000184850392415
0.011583898424
-0.000354330225219
-0.000123921121984
0.000182222200798
0.000392465272451
0.0125816405668
-0.000123303309188
-0.0124864983015
0.000329416637301
5.03645400893e-05
0.0124979167167
-0.000303715181566
0.0125197102646
0.000287787630913
-4.95115748753e-05
0.0114840512599
-7.96169659925e-05
-0.000162588455784
0.0114609090305
0.000137924768147
0.0125263124037
0.000305352549346
0.0114942818902
0.00035350438053
5.71649211191e-05
0.0125313970533
-0.0125422499489
-0.000366345817719
0.000337089140825
0.0125731705286
-0.0115321730648
-4.74450194709e-05
0.0115685815612
-9.15256084932e-05
-0.000168676451611
0.000145160941738
0.000325371550144
0.0125801667996
-0.000212039085386
-0.0125444786099
3.5085862779e-05
0.0125457460799
0.0001887247469
0.0125275124746
0.000201459829804
-0.0125272093221
-1.20670564837e-05
8.59597839176e-05
0.0114297530871
8.6490444181e-06
0.0114371508051
-0.0114540854912
7.02154881808e-05
0.0125289080079
-0.0125367082233
0.000179079589627
0.0114194598977
7.47751979286e-05
-0.000233227174649
0.0125464465243
6.10658235008e-05
0.00020258950397
-0.0125323929906
0.000245451224516
0.0125365954675
-3.05730431993e-05
0.00010094791607
-7.43233951455e-05
-0.0114059152593
9.98898181867e-05
0.0114099315539