/*--------------------------------*- C++ -*----------------------------------*\
| =========                 |                                                 |
| \\      /  F ield         | OpenFOAM: The Open Source CFD Toolbox           |
|  \\    /   O peration     | Version:  v1906                                 |
|   \\  /    A nd           | Web:      www.OpenFOAM.com                      |
|    \\/     M anipulation  |                                                 |
\*---------------------------------------------------------------------------*/
FoamFile
{
    version     2.0;
    format      ascii;
    class       surfaceScalarField;
    location    "8.7";
    object      phi;
}
// * * * * * * * * * * * * * * * * * * * * * * * * * * * * * * * * * * * * * //

dimensions      [0 3 -1 0 0 0 0];
oriented        oriented;


internalField   nonuniform List<scalar> 
92311
(
0.203964997888
0.000130688482171
-0.00103752783392
-0.203888963454
0.000830804818943
0.000113526373529
0.203929624347
-0.000636204451132
0.000558218845069
0.203951792518
0.000470675118852
-0.00106904759557
-0.20403092657
0.000808360259533
0.000321545903614
0.203865183095
-0.000649515434968
0.000528254446352
0.203812463671
0.000313658534999
0.000335486872578
-0.00106807294865
-0.204255934087
0.000686585834488
0.000323947815123
0.000322682197879
0.000196584112704
0.000100946170219
0.000127239890136
0.203694039845
-0.000619141253417
0.00042917450676
0.000205262930862
0.0510972959864
0.000134009201035
0.000156578607715
0.000142818368049
0.000150937016108
-0.000392422250758
-0.0512577193354
0.00028217634054
-0.0509875673076
0.0509020911181
7.57752953527e-05
9.24036375879e-05
0.000103315875692
6.56937720877e-05
-0.000272811127429
0.00021771919057
-0.000217694837271
0.00126974907698
-0.000215747245721
-0.000220632049284
-0.000208879134784
0.00462426084289
0.0042289388088
-0.00868658389115
-0.000573430314014
-0.00368391464421
-0.000369228582966
-3.96639651998e-05
-0.000700027314444
1.75100645131e-05
1.71913054284e-05
-3.80414180512e-06
-4.8523094793e-06
0.00476672996732
-0.106547343144
-0.00209222782492
-0.0031717299962
0.00163435598396
-0.0657139257093
0.133237689172
0.00455121357477
0.00250043919417
0.000137574266356
0.000124411712917
0.000130556889424
0.000131467881
-0.000299687436509
0.000220913243244
-0.000191249328093
0.011918833674
5.34554873398e-07
4.76881570432e-06
-0.0119505766052
0.0119110449523
0.000140069984167
-0.000156536645286
-0.0119076650439
-1.26887752756e-05
2.57658694817e-05
0.000165978537693
3.34939391211e-05
0.0508910411487
2.30340540361e-05
5.66101705115e-05
4.72818970326e-05
-0.00021436104618
4.71454569045e-05
0.0508639210801
5.31893624182e-05
6.69146687886e-05
7.22877309776e-05
-0.0508845106694
7.42992336216e-05
7.139120048e-05
-0.000120925134262
0.0119420208091
-2.20933025347e-05
4.05423200291e-05
5.05570159358e-05
0.0126708376075
-5.83949566438e-05
3.41664231768e-05
-0.0126636593451
0.0126644027739
3.66088337952e-05
5.62972221457e-05
-0.0126596569777
-0.00011906845685
0.204310747872
-0.00190713993062
0.00160633759546
-0.203890877571
0.203947620553
4.63337798933e-05
-0.000114657893333
5.04237155289e-05
-2.69296215166e-05
0.204037400797
9.78644991342e-06
-7.26307966983e-05
-7.60385056062e-05
0.204468018305
-0.00196360167589
0.00169380598614
-0.204241118047
0.20396269201
0.000101124944395
-0.000258390349816
0.000106194147846
-2.3479035719e-05
0.20411654563
-2.77730786854e-05
-0.000129539832394
2.66478889355e-05
0.000198850090675
0.000223916211807
-0.00206336896577
0.204783311078
0.00175113156194
-0.20504086482
4.44328017469e-05
1.40832047547e-05
-4.56060349378e-05
2.58961339852e-05
-3.7119967948e-05
0.204000788444
-0.000222592489614
5.98429420315e-05
0.0515877429455
2.33309216546e-05
-5.70581533395e-05
1.97192781115e-05
-4.5281627158e-05
-0.000602548307033
-0.0515283049729
0.000628977709712
0.0509449658855
0.000131308480949
2.27689319386e-05
6.6047040896e-06
-4.91744790169e-06
-1.63367737114e-05
-0.000179214570167
-0.00155300130243
0.000818893552644
-0.00637426622983
3.9231746065e-05
3.27823472836e-05
4.43647258346e-05
4.32279579491e-05
0.00326476983605
0.0126063678315
0.00938231916594
0.0117253734994
-0.107991513276
0.0345782806331
0.138686869858
-0.0489984676952
0.00851963298021
0.00444894288129
0.00279742637998
0.00412936373979
0.00345574809077
-0.0458918269294
0.0285534265309
-0.0064169105348
0.000531068850695
5.88776124205e-05
9.98695362134e-05
5.4667149704e-05
0.000103948850874
0.0514306347318
-0.00049266857872
9.32968974315e-05
0.000134329809147
7.55328548743e-05
0.000120292028045
0.0513463682311
0.000474500104962
-0.0514894444623
3.28119937978e-05
5.34174487505e-05
0.0119987058613
4.45776697104e-06
-3.18238322012e-05
-0.012057537167
0.000163448103762
-0.000126909007795
-0.0119115029797
1.24284143955e-05
-3.57543697521e-05
0.0118982960882
0.000138181815114
0.0128524886704
-0.000144405215518
0.000129588442921
-0.0128825885405
7.82692616687e-05
-1.15750846391e-05
-2.7514540369e-05
-1.91056982907e-05
-2.13306302714e-05
0.0510398422737
-0.000139243028395
0.0508800321063
3.42074636028e-05
1.50400086848e-05
4.02832861238e-05
5.24855436489e-06
4.63677451668e-05
-4.37236511062e-06
-2.41201642143e-05
-6.97601669242e-06
-2.11713597865e-05
0.0509738777468
3.95703029763e-06
4.07842424946e-05
-5.43991859967e-05
2.03324775635e-05
0.012686858585
-4.64685272873e-05
1.91591229644e-05
-0.0120082190312
-0.000124836761722
0.0120050308752
0.000155324832904
2.73571966756e-05
3.66184747812e-05
0.0126754131854
-0.0126819995724
-1.55317792116e-06
0.0126941639895
-1.30797424221e-05
-1.92192298847e-06
0.00344757860329
-0.000162976116739
-0.000136254811143
-0.000147288176462
0.00582213847334
-0.000444982954582
-0.00696855093117
-0.00246514320746
-2.79583150866e-05
-3.21078971892e-05
-4.51769511524e-05
-4.30140850547e-05
0.00842989616053
0.00291135247729
-0.00909736236686
-0.00658948785812
-0.0195876054549
0.014194369077
0.00742440862829
0.00976461340532
-0.0150259415396
-0.00454016837166
-0.00260638424574
-3.99369971738e-05
-7.27403720459e-05
-4.40975820203e-05
0.00582823327114
-0.000246338127836
-0.00912383670713
0.00797759669211
0.00993786009562
8.94219903749e-05
0.0127729684318
-0.000108064812149
-0.0128116489054
-0.0127644863374
0.000203939713281
-7.57099624374e-05
0.0127357258644
5.70981391748e-05
-5.18946057162e-06
-0.000201234392023
0.0118990119363
1.0536289185e-05
-0.000201881569949
0.0119304642669
-0.0119630529445
1.43900948798e-05
-0.0128015829578
6.73469809557e-05
0.0119095895157
1.05027340467e-05
0.0127408839888
-9.39860774736e-05
0.0127100601031
0.000178888104228
-6.98513612347e-05
5.42227874756e-05
7.00806211302e-05
-0.0127106222529
0.0126903789105
-8.2030706534e-05
-9.32808324897e-06
-0.000179184436333
1.69128142985e-05
-0.000161823082684
-0.0119191044937
0.0119187977593
1.32407345866e-05
0.0126905453972
5.82825541197e-05
1.2670627879e-05
-8.73642363565e-05
-0.0126691491784
8.57369568777e-05
-6.78057036105e-05
0.012666349046
6.06604961035e-05
6.30038290736e-05
0.0126694783888
-7.06182610235e-05
-2.29276236009e-05
-7.30227617921e-05
0.011949272867
4.87833336286e-05
-0.000133668696715
0.0119465154557
1.11197058766e-05
5.41216108927e-05
0.011952155367
1.29990775215e-05
0.0126667405471
-7.23949925298e-05
2.23764632046e-05
-0.0126646902026
0.0126715647842
-6.46570568513e-05
-4.32311257224e-05
-0.0119766622979
0.0119903955252
6.93827784043e-05
-0.0119771912375
-2.70781464714e-06
0.0119880561923
6.67293984016e-05
-6.03398267684e-05
5.29293044032e-05
-3.53872589949e-05
-5.54398458059e-05
5.96788339714e-05
1.41171589726e-06
-6.64224254886e-05
6.65225141014e-05
-0.0126550599126
0.0126588364156
1.94629089922e-05
2.82827294983e-05
-0.0119853358486
0.0119826640457
-0.0119882325856
0.0119822785212
6.86254948967e-05
3.72025521246e-05
8.92156565211e-05
-0.0126662791829
-9.9995914193e-05
-3.20296987465e-05
-0.0119738925277
7.24867623823e-05
-0.0126663452193
2.07353540176e-05
-0.0119697708354
-0.00855784333842
0.00436880116678
-0.000182040323912
-0.000201031483846
-0.00018646120333
-0.000171677661122
-0.00875503486478
0.016502495709
-0.00281732294365
-0.0175546886685
-0.00143764636091
0.0215481483286
0.00149047101308
-0.0211414361192
-0.00285891745484
-8.39032640392e-05
-3.6123618272e-05
-8.13812358629e-05
0.00394797278686
-0.00273791543498
0.0230238858819
-0.00731386029931
-0.000140635562016
-0.000154064726506
-0.000141224141533
-0.0146427254688
0.00578317357927
-0.00184283227318
-0.0119076116792
0.00519693275764
0.015075192921
-0.0144204656123
-0.000555155866027
-0.000192870874002
0.0057728381371
1.10317285615e-05
-3.88231488921e-06
1.5423788728e-05
2.96686972122e-05
0.00124458808644
-0.00125946344928
-0.0192602906622
0.00518521578539
-0.0151384335663
0.00247367993534
0.000540538641305
0.00315901536948
5.80124447483e-05
7.24641224534e-05
5.88728240181e-05
6.14645405676e-05
0.0021708742415
-0.000348073098624
-0.000152642101807
-0.0179138627947
0.00347997659318
0.000694476032653
4.94680135597e-05
5.54904397191e-05
5.33289794789e-05
-0.00730510145418
0.00319063178268
-0.0139826161437
0.00284001821325
-0.000145212074068
-0.0129166417135
2.67610506288e-05
0.0128987172072
0.000159651642643
0.0129259652729
0.000147967774501
-0.000136495237032
-0.0129412488329
-1.96086434894e-05
7.72027368354e-06
0.0119602428534
-3.3586732213e-05
4.44692854761e-05
0.0119956910013
-0.0120541985372
-1.76894374771e-05
0.0129094624145
-0.000129003037909
-0.0129291151374
0.000159236100682
0.0119597016174
-1.10893039673e-05
-0.000133541985389
0.0128682471275
7.38891848217e-05
0.000148794496157
-0.0128823752534
0.000122103486968
-0.000110889143751
0.012844032243
-6.77384671536e-05
1.03613573013e-05
-3.4637971723e-05
-0.000125941664723
-0.0119092463989
-2.11082131231e-06
0.0118956186943
-0.000119732118508
0.000135664764648
0.0128325224784
-6.66693770545e-06
0.0119441178991
1.74490370862e-05
-1.52959319645e-05
-0.0119902117594
-0.000182244968399
1.02406200182e-05
0.0119231166664
-8.17049477981e-06
-0.000130768634197
0.0128173034803
0.000117792171835
0.0128626419224
0.000109256335363
-0.0128922466456
-0.000160162520873
-0.0119273274014
0.011909143351
0.0128274701718
-0.0119791203387
4.8485455827e-06
0.0126877339797
-6.88281990633e-05
-6.31234102913e-05
0.0120080373445
8.94900461344e-05
0.012000779701
-2.27441960568e-05
-5.05336492412e-05
-1.93527010453e-06
0.0126989039246
3.55061385141e-05
1.79512501181e-05
-8.26637712094e-05
0.0120067211204
0.000110356626385
0.0127031332165
-6.42338719512e-05
0.0120000647323
-4.06736068258e-05
-4.42626766438e-05
0.0127163309022
-1.12854303313e-05
2.66165288399e-05
-0.0127224022376
4.05914540501e-05
0.0127377675622
-6.43056639301e-05
1.7973275764e-05
-0.000104331123288
0.000134370213985
1.65638209926e-05
-0.0120046533526
-8.70543423434e-05
0.0120057987541
-6.46464498442e-05
1.96194481869e-05
0.0127325426541
-6.68637959537e-05
-0.0126670161726
1.5667711762e-05
-2.20815744232e-05
6.44528242149e-06
4.7192067429e-05
1.21501397642e-05
1.18889010194e-05
0.011995696881
0.0119861108143
5.13369211744e-05
4.03682369424e-06
0.0119791825069
3.39456082309e-05
4.91055010603e-06
0.012689092309
0.0119935710522
0.0120001676601
2.873896214e-05
6.72914358826e-06
2.99606184222e-05
5.16803670321e-05
0.0120104249265
-1.92972188706e-05
-1.42193509344e-06
0.0127141052856
-1.26177452442e-05
0.0127050874327
-9.45676948094e-06
2.07403273278e-05
-0.0120074359823
0.0120102125638
0.0127228808689
-7.50868817856e-05
-5.7637861516e-05
-6.28253162829e-05
9.00322719866e-05
0.204417844117
-8.07394055955e-05
-0.000254256435075
5.70938108043e-05
-1.50732864667e-05
-2.45314913824e-05
-2.53445047536e-05
-1.48500268561e-05
-0.000123533374336
0.051110984019
4.26536109996e-05
-0.00445273286554
0.000574318663731
4.02850174983e-05
4.34085501259e-05
3.79953588018e-05
0.00369749086528
-0.00728847603106
0.00592941088273
0.00668326179353
0.00751922447574
0.0524300573197
-0.0106965349318
0.00675452469281
-0.00262779568118
0.000130301922313
0.000126837556306
0.000113897023702
0.000143329981383
-0.000280018719358
-0.000444705836288
0.0511641774515
0.00019832529047
-0.000177557462784
5.81593682461e-06
0.0119011096769
0.0510700530666
-1.21416750157e-05
-2.14024983781e-05
-1.51057946486e-05
-2.21483541608e-05
-2.59733742685e-05
0.0510994646728
-5.86775077636e-06
-4.68858711959e-06
3.0696867858e-06
-1.55994850142e-05
-1.06643447522e-05
-5.86007979623e-05
1.52607135357e-05
0.0120016349408
-0.000136381440053
0.000167217158907
-7.3837176523e-05
3.32231832442e-05
6.90947116303e-05
0.0120187097853
-3.65486323105e-05
0.0120490143239
-2.76524715238e-05
-6.74280887827e-06
8.52749270873e-05
-0.0120417982274
-5.81577743536e-05
0.0510825961736
2.18533092378e-05
7.77802873961e-06
1.14057332858e-05
1.90081217347e-05
9.43241745056e-06
2.12614537113e-05
-7.39494379589e-05
3.46346143341e-05
4.04953423816e-05
3.98880215142e-05
3.24448897192e-05
-3.76416359224e-05
7.10210939596e-05
0.0510046815256
-0.000103046040082
1.36632225689e-05
-2.24042084472e-05
8.80148811287e-05
0.0120344347194
-6.47142604666e-05
4.59768877806e-05
-6.19421727716e-05
0.00010845639376
-0.0120259759354
0.0120300565379
-9.67939343254e-05
-0.000184914463586
-0.000201312039083
-0.000179808197733
0.0073443200402
-0.00347682699157
-0.00723364673466
-0.000631319392707
0.0004860380072
4.51361592253e-05
7.18401337832e-05
4.1006043632e-05
-0.00236840429092
0.000175230750026
-0.00238358180116
2.03080130261e-05
4.31621583427e-05
3.25939153638e-05
0.0060784136783
-0.00462482834515
0.000769114679669
0.000963011874551
-0.00921202722596
-0.0116704585443
0.00170439297409
0.00182842342672
-0.00591993840773
0.00013012318022
-0.00357745170099
-8.68095845255e-06
-2.04148964084e-05
-1.12378413748e-05
0.00656031850164
-0.000493472694311
-0.00481877713945
-2.69029430655e-05
-4.44155817385e-05
-2.39981067403e-05
0.00499998960786
-0.00126974075892
-0.00346639051327
-0.0036996245442
-0.0127857153532
0.000166079902883
0.000105049683286
-0.000108730769114
0.0127536227465
-0.000119299177823
0.0127777209768
-0.000161135486215
0.0118923615645
-1.23255720381e-06
1.00545498098e-05
-0.000187314954068
0.0118876249587
-0.00012481775039
3.15730925118e-06
0.0118855180392
0.0127447348067
-2.8918162784e-05
-0.0127457140342
2.03199175955e-06
4.89081238895e-06
0.0127526248054
0.012751264116
3.5029841344e-05
-5.78349802705e-05
9.01148020599e-06
-0.000144051637992
0.000173279155101
0.0120036737567
4.6053425567e-06
0.0120068249058
-9.85920157663e-05
-4.98900918315e-05
0.012755801453
1.15334079069e-05
-0.00010900231125
0.0120117866523
-0.0127395995832
-4.11079376376e-06
-1.1379070884e-05
0.0127477894329
7.66336659047e-06
0.0127389162548
-2.06016136535e-05
1.26490650807e-05
0.0120131874742
8.36264226907e-05
2.38647110186e-05
0.0120362046717
-5.29818306336e-05
0.0120247049
0.0127510465196
-2.18027295332e-05
0.0127553330883
-4.36840605474e-07
-1.00608075224e-05
-2.93848729155e-06
8.05047533726e-06
-0.0127577407056
0.0127562930412
-1.81175409054e-05
-1.36887526439e-05
-0.0120314605621
0.0120380314293
0.000112719617968
8.59431053127e-05
1.1300318303e-05
-5.96868063583e-05
0.01275536488
-2.62586519689e-06
0.000111360867535
-2.111733021e-05
-0.0127510249994
3.25810344367e-05
-5.01190339479e-06
0.0127426080562
2.67925640931e-06
4.65620039391e-06
0.0127495601964
-1.26377752082e-05
-2.16327790693e-05
0.012027864477
0.00011110170233
8.95701082828e-05
-3.56677218717e-05
0.0120296765891
-6.97348006873e-05
-1.42016619132e-06
0.0120254305146
0.000113259167511
0.0127401240355
-1.24757415367e-05
0.012727416157
4.62796380652e-05
-8.1245723859e-06
1.15807837967e-05
1.04830827666e-05
-0.0127227370415
0.012705249358
-1.45461637796e-05
-4.98113425836e-05
-0.0120258149866
0.000126160706184
0.0120310237619
9.86623957437e-05
-5.48374298043e-05
-8.49170603271e-05
1.74642728503e-05
0.0127103956331
0.000120481867114
-1.3302065662e-05
-0.000526492842887
-0.0495811891849
0.0493733487464
0.000603043659219
8.19646225636e-05
7.37300393161e-05
8.85642153612e-05
6.66102151172e-05
-0.000179965379129
-0.000590597157907
0.0498340138471
1.90114600752e-05
2.64072091125e-05
3.02686733835e-05
1.72385397563e-05
2.58587214189e-05
-0.0499037408587
0.000541505078422
-0.000920737073601
-0.0498479615422
0.0499247416006
0.000796232765019
-5.37391846266e-05
-3.04836621398e-05
-4.41535738484e-05
-4.27242405682e-05
0.000218823102677
-0.000715098386744
-8.00875143646e-05
-6.75193946601e-05
-7.72670517433e-05
-6.97148607071e-05
0.000306751256892
0.0501069409607
0.000664535174112
-0.0500685312816
-7.39159679075e-05
-0.00389955273778
-0.0118976916735
0.0166150274383
0.00723108519516
-0.00777962310663
-7.30150542324e-05
-6.49131265475e-05
-6.65507236687e-05
-7.85666267179e-05
-0.0199489352893
0.0186940983807
0.012043691799
-0.00325648515276
-6.89156044357e-05
-5.38415402366e-05
-4.20305033935e-05
-0.0072806202721
-4.30440308228e-05
-0.00948225175492
0.0106265086775
-0.00144754836229
-3.62676060907e-05
-1.81877580071e-05
-1.41286433697e-05
-0.00815618557487
0.00857075571006
-1.9322637327e-05
-0.012023290966
-0.0124127936255
0.0114847798639
0.00730360405537
0.00565127869041
2.67126099562e-06
-4.14866397747e-06
1.7185973452e-05
1.61044038888e-05
-0.00110678067872
2.45226236562e-05
1.99565339856e-05
3.75510901583e-05
0.00531933634952
-0.00439503215633
0.0076795120743
-0.00759549173521
0.0747617921703
-0.00958629542014
0.0122962476973
0.0133445941642
0.0118610381529
0.0124692612281
-0.00566653993694
-0.044048523073
-0.0360035058599
0.000261122665828
-0.0108727645378
-0.00217257050188
-0.0114542230306
0.0273894315417
0.00782948282721
0.0748173649566
-0.0219610515081
0.0102548488082
0.00999763076254
0.00808815196537
0.00583991605399
-0.0373421712067
-0.0404071930899
0.00355107729116
-0.00690900462874
-0.00191531190654
-0.0111849519614
0.117467464589
0.057095780135
0.00352776923591
0.000980856100192
-0.00142980868636
-0.0278368111125
-0.00984576690761
-0.000464823524453
-0.00453021276329
-0.00985298711171
-0.00509317124268
-0.0094399356852
0.0756614715909
-0.0108634473003
0.00018565496407
5.12361829996e-05
6.45528331259e-05
6.75759426432e-05
4.52967404408e-05
0.0492758820571
-6.45080206581e-05
-3.84579071634e-05
-0.0495872503886
0.049246053359
0.000348947319509
5.33198912868e-05
7.77737607213e-05
6.97803387619e-05
5.21630039405e-05
-7.08770390003e-05
-0.049591597953
6.39700799268e-05
-7.82336316878e-05
-0.0120514115986
2.17898710724e-06
0.012048353953
1.51045165739e-05
0.0120729747044
5.79132671596e-05
6.61817111441e-05
-8.83446658481e-05
-3.97272382417e-05
-0.0120690471198
0.000107976921672
9.14426294103e-05
9.54813559974e-05
0.00010879189602
-0.000300348398062
0.0122830173003
0.0122097904404
0.0121754318817
0.0121621031529
-0.00021428075254
7.11713356969e-05
7.06750526513e-05
-9.84557999544e-05
-4.83192338569e-05
0.0120779884793
0.00042023921639
4.89521407923e-05
7.23110142462e-05
5.17629364073e-05
6.7428729475e-05
-0.000162221413004
-0.0497307563651
0.0497347262395
4.17976501434e-05
4.96190564077e-05
5.73326115331e-05
3.57941150365e-05
-0.000148265787754
-0.0498249184208
0.000474092725145
0.0120839702106
6.78098510041e-05
-8.563270517e-05
-0.012078512742
7.03002629423e-05
0.0121250207207
4.25348224011e-05
-5.39756316417e-05
-8.45429843024e-05
-0.0121187031975
8.9593295958e-05
0.000836821209446
8.10307373888e-05
0.000100968053201
8.83325545484e-05
8.90899813682e-05
0.0491207842861
-0.00020207613315
-0.000160128043636
-0.000188867782785
-0.000153669900271
-7.68988696472e-05
-5.26281719273e-05
-6.14158781429e-05
-4.81433558024e-05
0.0495780662917
6.81612336567e-05
4.62204973475e-05
5.62655190676e-05
5.50048542563e-05
-5.67818519973e-05
0.0495724507765
0.000747753593005
5.57985062392e-05
4.00668689854e-05
5.44795363992e-05
4.29113991353e-05
-9.89031597554e-05
-9.50144967251e-05
0.0120905581267
8.55704347197e-05
0.0121293799422
8.33841980497e-05
-0.00011767204091
-0.0121157093517
0.000150806845634
-0.000130141331621
0.00010635421301
4.20976046662e-05
-5.99932318189e-05
-0.000102678065821
0.0121391832786
0.0121945578072
0.000163536108601
2.96712828048e-05
-4.88338132913e-05
-0.00016418511633
-0.0121747309517
0.0496570195596
7.21137170017e-06
4.576226539e-06
1.72716284918e-05
-1.02890376961e-05
-0.00105382300872
2.93883900569e-05
0.00113364025672
-4.27266799353e-05
-7.98895668194e-05
-6.23778624632e-05
-6.03855150533e-05
0.0502297166644
1.00890886125e-05
-0.00147130379584
-0.000102598542955
0.0121321214336
0.000169675902517
-0.000148398288834
-1.08279653792e-05
-6.02768355939e-06
-0.0121289294295
0.000236694701039
0.0121350979015
-0.000225712796861
0.000176396592934
2.96232419065e-05
-1.75846629029e-05
-0.000183545930375
0.0121896438801
0.000184591091245
-6.91238749611e-05
0.000117837653858
-0.000217939769005
-0.0121748544675
0.0121595139051
0.000665930477725
5.34122667333e-06
1.06621813206e-05
1.6144869138e-05
2.7385403277e-07
3.53748198719e-05
0.0499852114037
-9.84542166786e-06
-2.32422028941e-05
-1.66698474924e-05
-1.80261184594e-05
9.23085441951e-05
-0.0499595512652
0.000615735505316
-5.22962566464e-05
0.0121585947878
0.000101107136977
-0.0121442014226
0.012209218597
2.0592684867e-05
-2.56291724416e-05
-0.012193682178
0.000153024336847
0.0122224543712
-2.39873414576e-06
2.17476883211e-05
-0.000124015084874
-0.0122220512599
0.000104202789607
0.00092264841337
-0.000105483270807
-0.000118510216061
-9.92168300424e-05
-0.000122978340563
0.0502251427854
0.000356695984287
0.0500509583748
-6.22463650529e-05
-5.58039108008e-05
-5.22533902574e-05
-6.53129595295e-05
0.000250907965756
-0.000113422719354
-0.00013969209162
-0.000114078828426
-0.000136765260873
0.0502690549635
0.000776406369694
0.000431990081363
5.53201275263e-06
0.0121999335242
0.000160775392532
-7.70020325794e-05
0.00013390581153
-0.0121693028348
0.000156661879764
0.0121403601263
9.94397303152e-05
-4.1224756932e-06
4.13838107092e-05
-0.000122823695268
0.012208676243
9.04731197476e-05
-8.78872628585e-05
0.000159285952215
-0.000111826158381
-0.0121525058754
0.012102631948
5.26530986858e-05
0.0122041510404
7.58935618057e-05
-0.0122174090582
0.000173392480059
-0.0121489369184
0.0121005102758
-0.000115661252185
8.09765413437e-05
-0.000841669405761
-4.77274053788e-05
-7.20135796497e-05
-5.04422616456e-05
0.0120023394375
0.00332694842011
-0.00720265930269
-0.00705089455769
0.0124065593983
0.00188965058519
-5.9401131265e-05
-5.19522493416e-05
-4.45013934217e-05
-0.00802134895933
-0.0068959435923
-0.00862685251271
-7.63435335055e-05
-8.00532438456e-05
-8.21320425237e-05
-0.000135208392159
0.0175760864316
0.0118893469424
-0.00224013947776
0.0089445938336
0.00225440618246
-0.00859041628785
7.05382069666e-06
0.015923770242
0.00990800560696
-0.000598537578842
0.0129919861378
-0.00312598714425
-0.00892973430649
0.0174931954698
-0.00128047516848
0.00922670671006
0.00896898714516
0.00113186315536
0.00830187796386
-0.0022419218209
0.00277348803977
0.00156191291785
-0.00103814964218
-0.00516683707008
0.0128788272608
-0.00267753355977
0.00626541653801
-0.000588973095525
0.00678959020283
-0.0020137469009
0.00508930795305
-5.84024796348e-05
-5.46879345361e-05
-4.71528150505e-05
-0.00707102479705
-0.00779954643334
0.00966868310156
-6.11019776576e-05
-3.47881948898e-05
-5.35139502847e-05
-0.00593857037452
-0.00581688246359
0.00736703484437
0.0100065293873
-0.00730352004974
-8.22151289847e-05
-7.1196743057e-05
-7.11162519046e-05
-0.0057520382932
0.0133721448033
-0.00574399223243
-6.3825059448e-05
-4.11085863264e-05
-6.51430986157e-05
-0.0033644112239
0.0155514898493
0.0113807636109
-4.97018869012e-05
-4.35153957409e-05
-6.72182657271e-05
0.0113365662407
-0.00352260106139
-0.00849128046355
-0.00220756860655
0.0149178488621
0.0107115183471
-0.00347615787471
-0.00845224503918
0.0138058104591
-0.00281867860661
0.0117594022073
0.00405996588415
-2.96791061514e-05
4.40012871467e-05
-5.45185902279e-06
0.010554145899
-0.00772545806297
0.0140611646391
0.00160442458509
-4.29178829041e-05
-2.66415289735e-06
-1.96116103212e-05
0.00769849907961
0.010070559394
5.69000544571e-05
3.25309381998e-05
2.09159560712e-05
0.00787303016166
0.0151685384874
-0.00257441601116
-0.000791971395416
0.0125402749901
0.0139090957181
-0.00301031132859
-0.00259728485615
0.0122264164586
0.00839214578906
0.0012750129936
-3.45077719502e-05
-3.46172027332e-06
-1.45659136677e-05
0.00452708167519
0.0110733302148
-4.21691465813e-06
-4.18475616293e-06
-1.07140028467e-05
-0.00980147429622
0.00260897827463
0.00868505655245
-0.00688914598402
-0.00321389671965
-0.00315395230881
0.0112879285621
0.0109142271366
-0.00792548057706
-0.00304329265834
0.00466301202158
0.00983032599046
4.21888817773e-05
8.12513717227e-05
4.73665166646e-05
0.00681368374933
0.0100503225899
0.00718918020811
2.12646952102e-07
1.08865865113e-05
1.24260401689e-05
0.0107425638846
8.17118661096e-05
3.95138379858e-05
4.53758972105e-05
0.00537885579513
-0.00166643419339
0.0125963446635
-0.00320260036721
-0.00317978555418
0.0131730610891
0.0129121439919
-0.0031255156179
0.0137394231835
-0.00273687601242
0.0124554283179
5.7252152911e-05
-2.94793807682e-05
4.36287935621e-05
-0.0124756083961
3.77714799189e-05
-0.0124506190063
0.0124122682019
-1.31712583257e-05
-1.16843768998e-06
-4.99301582336e-05
1.53560317838e-05
-0.0120635790212
-8.52343554546e-05
-0.0120596169729
1.80919830099e-05
0.0120566743959
5.70452708788e-05
0.0124184324229
1.23946598793e-05
-0.012066583326
-1.03923432857e-05
-0.0124743808676
0.012458861783
6.35960150664e-05
5.49833932668e-05
-0.0124805070428
-7.80282725686e-05
-0.0124671205332
0.0124418007845
9.26844008989e-05
-8.06714017807e-05
-0.0120632765436
0.0120627982134
-5.65789599429e-05
-2.93905073359e-05
4.31484694822e-05
-0.0120783449563
0.0124269455236
7.84292850319e-05
-0.0124864320061
-0.0120699920214
-0.0123962828604
0.000107809072236
0.000118617043558
-8.2641389342e-05
0.0123604577128
-8.58682997825e-05
0.0124131155931
0.000107431620105
-0.000103130353224
0.0120681055453
-2.70110605291e-05
-0.000116447499886
-6.42040775664e-05
8.77911930895e-05
0.0120908540523
-6.30260029639e-05
0.000128925721047
0.0123842526067
-3.74851702136e-05
0.0120778485519
-8.57425045336e-05
0.012494929139
5.23225072789e-05
9.37154841608e-05
-0.0125062861068
-0.0124816462712
9.94871685808e-05
0.0124614765819
-5.88525228825e-05
5.43997102684e-05
-0.0120894182625
-7.46006111136e-05
-0.0120910591043
8.25307722698e-05
0.0120986727578
-0.0124961393069
0.000107112540139
0.0124800823701
6.60285801081e-05
-0.0120976156043
0.0125091599153
9.46110494762e-05
4.87820054665e-05
-0.0125170929916
-0.000107525632235
-0.012523669408
0.0125127519354
0.00011404335316
-6.91734994338e-05
-0.0121050198107
0.01211091126
-3.52697048068e-05
-6.72078445057e-05
-0.0121237419596
7.26119253095e-05
0.0124968556766
-0.0125299047612
0.000101326613904
-0.012111040986
-0.000136591984586
-0.0124538727711
9.874671434e-05
0.0124291837844
0.000144382037174
0.0124334892731
0.000114074514383
-0.000109625243971
0.000105742249075
0.0121093782345
-8.49191759384e-05
0.0121063458156
9.77820563423e-05
0.0124046895536
0.000121892515942
0.0121258201743
0.000118129939447
-0.000155641175756
0.0124093417023
9.54767731958e-05
0.000160909015315
-0.0123785014248
0.000186192116625
0.0123550430452
-0.00017947020225
-0.000105259031879
0.000125964894325
-0.000109314373198
-9.7444042377e-05
-0.0121379835882
0.00016348684554
0.0121514459195
-0.000146527260831
0.00019161017701
0.0123954426143
0.000138060910984
-0.0124750863293
0.00014138621903
9.0284507708e-05
0.0124559030478
-0.000120368824686
0.0124929395287
0.000126328222798
-7.9394044967e-05
0.0121217072507
-6.82342074964e-05
-0.000122505525
0.0121621840102
0.000126640979081
0.0124774129981
0.0001436008975
0.0121424685998
0.0124354282048
0.000155515587033
8.15744956699e-05
-0.000183355740586
-0.0124606600008
0.0124567988855
0.000178435080473
-7.10661823056e-05
-0.0121530310255
0.0121736673118
-5.88551387472e-05
-0.0001416800345
0.000144301985033
0.0124270056619
0.000156252577036
-0.000245683017658
-0.0123853185398
5.85778578444e-05
0.012392405165
0.000247779022242
-6.7897811026e-05
0.0123427363047
0.000208049661565
-8.69342994727e-05
-0.000211431770538
-8.94485230974e-05
0.00019257826848
0.0121314072599
-0.000171327194931
-7.74954801188e-05
0.0121583112478
0.000186445406919
0.0123534149377
-8.83613245076e-05
-0.000257575784898
0.000212218892469
-7.16971015842e-05
0.0121597266415
0.000207265011995
-0.000272627076622
1.56652149123e-05
0.0124251410872
0.00027523109067
-5.11716291974e-05
-0.0124012620872
0.000299443376539
0.0124803489458
-0.000315783865038
-6.89603724291e-05
-4.4492742885e-05
0.000212528104776
-0.000195493306448
-0.012154232446
3.03574821193e-05
0.000248601133789
0.0121559752752
-0.000289626781129
-7.5700136992e-05
0.000228161069301
0.000299967558885
0.0124939485552
-3.923479442e-05
-0.012416859296
0.000227953434329
1.36296457294e-05
0.0124301987116
-0.000199653159438
0.0124463715167
0.000197028892745
-3.98102853321e-05
0.0121736344389
1.21027490851e-05
-0.000200761543663
0.0121876536507
0.000188148177779
0.0124561807471
0.000219737796737
0.0121741572756
0.000253430661281
-4.18187206139e-05
0.0124507781468
-0.0124712083869
-0.000273663747959
0.000262960440109
0.0125197768123
-0.012170467676
9.50311379715e-05
0.0121621220006
7.05971240018e-05
-0.000210133676017
0.000184807542215
0.00024651714233
0.0125114495995
-0.000134101006666
-0.012521944934
3.27594192872e-05
0.0125101358021
0.000132161799554
0.01250911976
0.000119164838711
-0.0125279082783
-5.40437379699e-05
0.000121535056879
0.0121815041442
-3.38753368663e-05
0.0121765650989
-0.012162031994
0.000102276122152
0.0124948540645
-0.0125386208423
0.000119173410377
0.0121974074929
0.000119425190767
-0.000146923796988
0.0124995066455
1.88180691969e-05
0.000144068700061
-0.012481060628
0.000164299426121
0.0124801940232
-3.92541132881e-05
0.000136739927969
-4.13538177163e-06
-0.0122062655052
0.00014192698609
0.0122179864857
0.000159809351747
0.0125001443363
0.000132018186695
0.0125161381621
0.000139850804227
3.35035882182e-06
-0.0125251127701
-0.000152915772717
-0.0125288250959
0.0125284301999
0.000151769996325
9.19384777229e-06
-0.0122189465789
0.0122233142291
9.78120116265e-06
-0.000118689642596
-0.01221981752
0.000102394462541
0.0125154927623
-0.0125373696223