/*--------------------------------*- C++ -*----------------------------------*\
| =========                 |                                                 |
| \\      /  F ield         | OpenFOAM: The Open Source CFD Toolbox           |
|  \\    /   O peration     | Version:  v1906                                 |
|   \\  /    A nd           | Web:      www.OpenFOAM.com                      |
|    \\/     M anipulation  |                                                 |
\*---------------------------------------------------------------------------*/
FoamFile
{
    version     2.0;
    format      ascii;
    class       volScalarField;
    location    "12";
    object      alpha.water;
}
// * * * * * * * * * * * * * * * * * * * * * * * * * * * * * * * * * * * * * //

dimensions      [0 0 0 0 0 0 0];


internalField   nonuniform List<scalar> 
28582
(
0.999996905975
0.999999121839
0.99999762869
0.999998661572
1.00000104767
1.00000064695
0.999991133419
0.999987478146
0.0595365399175
0.0603695717245
-1.3267741054e-27
0.999990312387
0.850921634225
0.852828853306
0.99998538441
0.999994750001
0.854187627478
0.997616779998
0.997890887323
0.999997691472
0.999998798665
0.999996670682
0.999998344944
0.999998487732
0.999996844441
1.00000119201
1.00000001675
0.999987959133
0.999984623479
0.0612573383282
5.51308305137e-08
-2.77351287167e-27
0.999986679598
0.999990480014
0.860458339599
0.854954712376
0.998334592745
0.99998340927
0.999992460307
0.99998673924
0.997619446321
0.853710411741
0.997866931699
0.998009957185
0.0595003466583
0.059381273069
0.000166377884042
0.000344171494335
0.0597755911746
0.000306248922102
0.998227112487
0.998217068918
0.85050065723
0.852216299069
0.998218952011
0.851680483727
0.998191787247
0.99819276221
0.998043258228
0.851436781638
0.854120190711
0.9981325679
0.852707122643
0.998128186396
0.997880364262
0.997922414816
0.855169093358
0.855490033345
0.99804693973
0.856423800992
0.99773029347
0.997494727815
0.856529529869
0.857380174417
0.997689610647
0.855687088971
0.856752547276
0.997538824022
0.998073554636
0.859625575023
0.86016951587
0.998021874058
0.859525602173
0.998189397965
0.858650165013
0.0599685291347
0.00059864215034
0.0586024664277
0.059596112599
0.000468547881367
0.000542823863037
0.0604837145225
0.000178480901975
0.000302798561233
0.0617494214706
0.000226588867017
0.0621303580796
0.000285800074201
0.998313283844
0.998219081038
0.858637673812
0.860109566576
0.998278323214
0.99826014695
0.857635590881
0.998323801517
0.99825310318
0.85670737327
0.853114808744
0.998284383409
0.998291707538
0.855344864408
0.853053477675
0.851108345522
0.998324452858
0.998343251796
0.851745876011
0.998317662746
0.853979767287
0.997497076573
0.856231384683
0.857293536881
0.997648498808
0.855474802272
0.997515599373
0.857058079241
0.997724190855
0.997636378039
0.854607614353
0.856022246281
0.997564663132
0.997840341799
0.856702943481
0.998015600246
0.998026561302
0.859570377611
0.860651413024
0.860763505544
0.997871432699
0.859340320912
0.86036920318
0.859712910413
0.998013634941
0.997899820326
0.857691310787
0.997985654692
0.858774235048
0.99999965339
0.99998267451
0.063079504024
-1.91294310335e-27
0.999987600056
0.850223202915
0.999981323165
0.999976734036
0.852742445657
0.858682126587
0.850457634264
0.999977795944
0.999981248725
0.848497594747
0.845322068251
0.0604147664335
0.0630259322352
0.0643224378095
0.000262067733776
0.000252767904273
0.000253689671481
0.0650957530877
0.0655936996794
0.998084367905
0.998255432026
0.850738789936
0.849416796406
0.998224179377
0.849364890392
0.99815000381
0.998060466151
0.997720658419
0.851861144399
0.854748706928
0.997759876343
0.997956745518
0.853159818834
0.998012829358
0.998037811287
0.855827797257
0.856358141403
0.998024422631
0.853653711698
0.998020823943
0.997979587391
0.997890067203
0.850291826352
0.853517088837
0.99793311543
0.85173679372
0.997963605012
0.997858912419
0.997842943079
0.848809141989
0.847121569659
0.997880382663
0.847247099767
0.997800206632
0.997880351796
0.997765656538
0.845297833455
0.846041659934
0.997931472201
0.846140804662
0.997774109679
1.00000367547
1.00000043818
1.0000013483
0.999998219485
0.0529259485256
0.0554526700603
0.0510989280921
0.0527027099131
0.0515873887546
9.86033788085e-08
1.77601429044e-06
-2.56967326882e-24
-3.48171733798e-26
-8.16300171832e-27
-3.83092186066e-27
1.00000109872
1.0000016588
0.881188502543
0.888262137963
1.0000052071
0.88909592807
1.0000002578
1.00000289865
0.890026934558
0.89425820598
1.00000125369
1.00000684472
1.0000136869
0.890702683187
0.893544281708
0.894375661532
0.894545239321
1.00001619949
1.00001581084
0.894215984197
0.895562427481
0.894222948388
0.891958115231
1.00000171379
1.0000013745
0.894243191355
0.894007552876
0.894854956811
1.00000068795
1.00000205343
1.00000174021
0.893709058438
0.891423357078
0.894285110484
0.89065158064
0.894087330683
0.889305668305
0.0527844943476
0.0508227628447
0.0546085075857
0.00010494139394
7.74870449089e-05
8.42922509649e-05
6.61471603298e-05
6.80044384385e-05
6.50046664259e-05
4.59942811085e-05
4.79923368403e-05
0.0493904110758
0.0486403923714
0.0553812265521
0.0517750161666
0.0534140420128
7.47830527487e-05
5.64204645937e-05
9.57003005083e-05
7.25019977553e-05
0.0540935032176
0.0539486302437
0.0532663083088
2.86036109867e-05
3.21184741628e-05
4.46482127862e-05
4.39022153917e-05
0.0523303426866
0.0515116616314
0.00011129376661
8.7686384985e-05
9.82275606625e-05
0.052568808611
0.0519725623895
0.052245368225
6.99525475809e-05
5.56809982168e-05
8.65336087168e-05
7.98479813673e-05
0.999101225536
0.999078471528
0.879809565071
0.883118923237
0.9990913568
0.882036520542
0.999086400262
0.999167055612
0.999205115313
0.885554560586
0.887764472914
0.999150503367
0.999224418486
0.884887441144
0.99912575931
0.999188452534
0.886855418767
0.89073229155
0.999140586508
0.999168392616
0.888925338619
0.999323986045
0.999290823711
0.889672320605
0.892024706054
0.999297302248
0.999313662075
0.891775193813
0.999370833598
0.99938684037
0.893059904115
0.894155725788
0.999364950016
0.999391049316
0.892988147733
0.999214835179
0.999250491815
0.892028170273
0.89226791855
0.999197255038
0.999269719148
0.893305064401
0.999114822887
0.999077802616
0.892665752346
0.894459169275
0.999131728942
0.999042122618
0.893887226134
0.999295783469
0.99936768722
0.893144974008
0.894772269713
0.999345505459
0.999327719304
0.893713345801
0.999229547537
0.999187744905
0.894307446407
0.894673500003
0.999123141113
0.999272708502
0.894083217405
0.998981819691
0.999046933027
0.895025662184
0.894505071306
0.999044294863
0.998998644687
0.894745799758
0.998991034328
0.999058964132
0.895592696581
0.8942396357
0.999058474515
0.894703150176
0.999033928293
0.998955088307
0.999081018991
0.894179241321
0.893665762544
0.999017971325
0.998987263757
0.894017603236
0.998955270179
0.998917958588
0.893140100828
0.892985416055
0.99894661384
0.893771241987
0.998956787227
0.999366984092
0.999380554009
0.89439648083
0.894816865152
0.999358986566
0.999374435816
0.894966180478
0.999337924029
0.999246686154
0.89427053454
0.894526610983
0.999316522388
0.99928801377
0.894838539868
0.999375373318
0.999392985023
0.894280763053
0.895288127483
0.999332965184
0.999429323801
0.894732485007
0.999093513841
0.999149987308
0.893228740789
0.894091262724
0.99904047654
0.999208538411
0.893325750887
0.998987293998
0.99884739293
0.892505322667
0.891012054534
0.998945644129
0.892391237923
0.998875850393
0.999156139136
0.999317937277
0.893740517873
0.893427079404
0.999259036563
0.999204627515
0.89294765634
0.999061275893
0.999019062739
0.890635228702
0.892343861023
0.999111919787
0.892033587406
0.998958607808
0.999231917351
0.999334837944
0.892906630801
0.894096577504
0.999222962232
0.999343617235
0.892729547366
0.999037211453
0.891193999195
0.999125548569
0.999998667586
0.999999338256
0.999999034748
0.999987766642
0.999988393285
0.999994113418
0.999998935567
0.999999445898
0.999999108433
0.999989428042
0.999989244319
0.999994555919
1.00000032166
0.999949655502
0.999993956911
0.999994794098
0.999965578307
0.999936032485
0.99996091988
0.999990909837
0.999999884673
1.00000045416
0.999995673743
0.999992536702
0.99999278567
0.999989900553
0.999980584965
0.999980019241
0.999995232275
0.9999959539
0.999996960331
0.999997944654
0.999996614243
0.999986289787
0.999986519528
0.999994325693
0.999994175862
0.999998629804
0.999999340959
0.99999849983
0.999993489908
0.999985755365
0.999991744038
0.999997307629
0.999995258053
0.999985798293
0.999990260413
0.999997045506
0.999940128485
0.999873304995
0.999989105368
0.999920877555
0.999898889419
0.999931383607
0.999983360524
0.999993004448
0.99998339037
0.999895399256
0.999975864309
0.999987798794
0.99994081795
0.999929256223
0.999954414763
0.999992092036
0.999985848834
0.99996892025
0.999977256242
0.999993174933
0.999990980269
0.999976765658
0.999975401549
0.999990471232
0.999998273645
0.999998698094
0.999998739143
0.99999821034
0.99999649807
0.999995907455
0.999996297781
0.999997287621
0.999996466508
0.999991126249
0.999992425044
0.999997188842
0.999988007314
0.999743300831
0.999975418676
0.999951900154
0.999928875373
0.999961604708
0.999993352096
0.999997303931
0.999986603745
0.999660298107
0.999961864407
0.999991145246
0.999976573614
0.999965791284
0.999979302566
0.999996564354
1.00000010828
0.999999917861
1.00000013992
1.00000009951
0.999999520227
0.999998291641
0.999998116668
0.999998998142
1.00000086253
1.0000009741
1.00000069798
1.00000045443
1.000000242
0.999999990306
0.99999995748
0.999999924711
0.9999998987
1.00000166538
1.00000124418
1.00000064105
1.00000032935
1.000000368
1.00000036548
1.00000041921
0.999999180774
0.999999338523
0.99999992891
1.00001130986
0.999720760938
0.999882572076
0.999995143374
0.999995235924
0.999992258824
1.00000143301
0.999996854726
1.00000728095
0.999989895388
0.999982962704
0.999982250515
0.999990957389
0.999992612851
0.999990212904
0.999985674095
0.999964660277
0.999999718019
0.999993940461
0.999991277101
0.999991588844
0.999991537601
0.999987772563
0.999986719917
0.999985986466
0.999987415526
0.999983750054
0.999996645437
0.999992366355
0.999987014083
0.999977789782
0.999976355381
0.999980385712
0.999985581385
0.99998990976
0.999989350537
0.999985348029
0.999972440293
0.999967807246
0.999968539557
0.999975453382
0.999985077055
0.999985282985
0.999985413131
0.999988950909
0.999990260354
0.0501846010405
0.0535743807494
0.0559982176884
0.060353123592
0.0666470012571
0.0699896877041
0.0702588472157
0.070020755642
0.0521305417275
0.0503315341915
0.0512195466083
0.0532161057925
0.055787815228
0.0571062157776
0.0615112825585
0.0646596260658
0.0660650914652
0.0662121413175
0.0523812462546
0.0539422453312
0.054899171719
0.0554694261488
0.0563828248243
0.0571738975907
0.0589245519684
0.0620578848161
0.063157181975
0.0634594420676
0.0560507265319
0.0577067379016
0.0586116704164
0.0588772475198
0.0594739180661
0.0598854503931
0.062189517545
0.0631527234934
0.0644736893517
0.0603234496758
0.0610428315931
0.0601442486142
0.0623612002326
0.0633825696283
0.0646342176206
0.0655450338767
0.0645890085387
0.0653663114323
0.0654458166797
1.44932264369e-06
8.01235039892e-07
3.68208920676e-08
4.14323230477e-06
4.48393744488e-05
1.17325725272e-05
-8.92708978909e-27
-7.08969803825e-29
-1.58785184885e-27
4.91371737229e-05
1.76990460043e-05
1.14522584804e-05
4.4047324623e-07
1.15913935508e-06
-3.11070343196e-25
5.78401575986e-05
-8.23046886871e-27
-6.26833296268e-26
-2.54063660187e-26
3.41015013268e-05
2.7976676492e-05
1.5082980414e-06
1.32327979257e-24
2.65399157273e-06
1.20335133895e-06
1.08632377077e-09
4.46746751778e-05
-1.42244558482e-24
-1.68396082227e-24
4.32734091836e-05
1.26633550674e-06
5.94535606538e-26
1.62472908455e-06
-9.39778340412e-28
8.26390018476e-26
6.82021307997e-06
-6.54749080033e-25
-9.55268509805e-25
5.54543551777e-05
1.70768067652e-25
-2.8586038582e-27
4.9209625403e-05
-1.66987501716e-26
-9.44178715538e-26
-1.76400261323e-25
5.70583020761e-05
-1.96530109865e-27
-4.45966763989e-26
6.43261910125e-05
0.999979904048
0.999996921082
0.999996635692
0.999974222387
0.999812592893
0.999987781905
0.999922300495
0.999962547519
0.999995990134
0.999994189354
0.999839447002
0.999953133734
0.999904878002
0.999945894212
1.00000011094
0.999991063419
0.999995918745
0.999993830861
0.999995090872
0.999994971479
0.999997715496
0.999999601692
0.999998224694
0.999997710439
0.999993231673
0.999993034946
0.999998143454
0.999996507351
0.999735125425
0.999979208974
0.99978886799
0.999985939413
0.999719390784
0.999968731942
0.999691978657
0.999976441759
0.999818266408
0.999946110853
0.999802022489
0.999951746164
0.999797906135
0.999951398718
0.999913760754
0.999979715007
0.999990012756
0.999991246369
0.999848446028
1.00000073753
0.999982239299
0.999932100967
0.999989050153
0.999979346627
0.999746738619
0.999866273277
0.999854831521
0.999850545731
0.999682778903
0.999981347763
0.999656148586
0.999880816488
0.999602419534
0.999971062067
0.999658227412
0.999924715153
0.99972697852
0.999918839468
0.999583591009
0.99980724816
0.999583397497
0.999800701728
0.999723667988
0.999998582362
0.999967596867
0.999978294806
0.999893546841
1.00000183701
1.00000029109
0.999742310274
0.999909295085
0.999906470402
0.999841804581
0.999867449614
0.999999662649
0.999999929433
1.00008614007
1.00003111547
0.878940439315
0.881037683607
0.999885082337
0.999992631575
0.999912806045
0.879243559226
0.880973465826
0.879728311391
0.879694923644
0.999771921666
0.999864421685
0.999879006269
0.879875115867
0.869027726853
0.879222767886
0.871311005451
0.999964748063
0.999924935866
0.999978316566
0.863483349098
0.845996938216
0.866918678285
0.854977715672
0.999997648297
0.999995221689
0.999994797073
0.843757841917
0.840060697857
0.854734168367
0.852960841403
0.99999280994
0.999993262409
0.999991820129
0.839396940669
0.841631100508
0.85258412004
0.850726739097
0.999994602992
0.999988363216
0.99998806378
0.842629233755
0.845196672999
0.850313480795
0.846126267215
1.00000697427
0.999986866589
0.999992929462
0.843252504062
0.830728639345
0.842823825225
0.828734017167
0.999831206068
0.999989188715
0.999941057455
0.838575466137
0.788516112022
0.834176489443
0.82997907701
1.00001277169
1.00000571375
0.894934686779
0.889797755905
0.890750714657
0.886078405363
0.999999138722
0.999998848184
0.999993039751
0.8873198644
0.881201970942
0.883189531778
0.875138793373
0.999984450208
0.999991791462
0.999993795017
0.879743678089
0.879191142849
0.873631133658
0.873041157507
0.999980464234
0.999997709806
0.999999024394
0.87922505274
0.873075362605
0.873387565254
0.871682325866
0.999985647128
0.999998184827
0.999994578392
0.867696859856
0.856827833037
0.86906719589
0.863788766786
0.999991821577
0.999992716439
0.999991004051
0.857290196103
0.857431509505
0.864459624181
0.864445635212
0.999990807279
0.999989120204
0.999988029376
0.85601361036
0.852196551839
0.863362193253
0.859814708623
0.999987596425
0.999985154073
0.999984084618
0.851423040404
0.846743235312
0.857022174201
0.845566447216
0.999979190528
0.999982624162
0.999980984901
0.843298302952
0.830095956626
0.842569564078
0.838696299854
0.999945030994
0.999970094237
0.999973477284
0.834802022841
0.834622670435
0.84353496209
0.839066392702
0.999998146503
1
0.999999624679
0.890154027723
0.885529297411
0.888412716525
0.880757456107
0.99999102312
0.99999750805
0.999992399954
0.88228715153
0.872544973484
0.876994330752
0.866581085654
0.999991463151
0.999991881564
0.999991453472
0.871018021298
0.871093796164
0.865461051326
0.865112030257
0.999992138694
0.999992254148
0.999992057762
0.871659611147
0.870113048618
0.864957071853
0.863158665908
0.999990084893
0.999991746914
0.999990858479
0.868679339669
0.865004673464
0.862764220125
0.864100818909
0.999987069806
0.999989955081
0.999988583656
0.864518215716
0.863176852815
0.863271184944
0.862619662662
0.999985701816
0.999987008323
0.999987080558
0.863314865594
0.859428205557
0.863630137321
0.854671450487
0.999985721883
0.999986189714
0.99998684985
0.855442226623
0.846110223549
0.849990159069
0.845960527551
0.999987297659
0.999989652605
0.999990354568
0.844294883634
0.841960549339
0.846373691927
0.846548863523
0.9999853853
0.999987786702
0.999989164322
0.846635833794
0.839146220121
0.850221344716
0.838123656414
0.886978882408
0.879216288443
0.999994315425
0.999994231842
0.875661897954
0.865298624346
0.863156982313
0.999990141866
0.999992722221
0.999989455222
0.864220313356
0.862742269677
0.861067179412
0.856636338869
0.999982173939
0.99998565216
0.999979266132
0.862157477447
0.861035002705
0.855364611405
0.854201111246
0.99997630974
0.99997704682
0.999976679125
0.861380066173
0.861875436864
0.854895280211
0.856417305215
0.999976770494
0.999976858427
0.999979330249
0.860993992866
0.859709146718
0.855588394377
0.853161911992
0.999982816146
0.999983061384
0.999984779748
0.859288456424
0.852201191937
0.852923834228
0.850749505557
0.999988470695
0.999987448368
0.999989175053
0.849658471284
0.847209515593
0.84955291649
0.846698098788
0.999989205496
0.999991108326
0.9999909058
0.846857076294
0.845722085937
0.845917106977
0.842556917654
0.999991336451
0.999988977746
0.999991098061
0.849170875186
0.837679058549
0.846205420367
0.835252523775
0.99997980844
0.999984395436
0.853864093786
0.853432677923
0.851421071906
0.999967637586
0.999982418516
0.999980059377
0.854286527743
0.855005325756
0.852801203327
0.855782288252
0.999968150976
0.999977862598
0.99997642229
0.855538657385
0.853268968433
0.856551426563
0.853336739799
0.999971461733
0.999976657532
0.999978266477
0.852730163111
0.850503959661
0.852778354416
0.850002326497
0.999981440349
0.999981920983
0.999986903057
0.848952473232
0.84623018032
0.848307367896
0.845299342143
0.999984381838
0.999989365406
0.999989044326
0.845432066788
0.841715571671
0.844635102731
0.839415616276
0.999989277546
0.999988356298
0.99999278357
0.845415065391
0.83442164994
0.843285701918
0.834120170058
0.999983803907
0.849699339864
0.99998784252
0.848295176401
0.844756399399
0.999989071985
0.843897722358
0.838273677487
0.999995067477
0.842384560862
0.83459489849
8.6123447475e-05
0.000117477968818
7.79274153729e-05
4.29338741678e-05
0.0491417340209
0.0493764384804
8.70089359068e-05
9.32538431773e-06
1.9651512358e-05
1.39787736834e-05
0.0515389682171
0.0504678434778
0.0516148430633
1.15744035032e-05
2.06697229349e-05
2.67155960561e-05
2.80059234852e-05
0.0554174617592
0.0532331922528
0.0547686355778
9.59536852048e-05
0.000352938035728
6.89716079016e-05
0.000322200402007
0.0579262347561
0.0553308421503
0.0569166539466
0.000999315921612
0.00127211184126
0.000946441878706
0.00119916152891
0.0637199340258
0.0588212688524
0.0613757354949
0.00100357970284
0.000737094912351
0.000953813708089
0.000638353874685
0.0685611064942
0.0637442020013
0.0658805454337
0.000354835980313
0.000250218454057
0.000286415934758
0.000216479256869
0.0702891655307
0.0673535816164
0.068136439424
0.000294840678659
0.000343867439854
0.000263877358041
0.000325226809223
0.0704002129704
0.0682553471643
0.0687711648556
0.000462987327409
0.000537363174539
0.000400247644323
0.000411893991103
0.0719799531485
0.0673614716923
0.0717366581885
0.000532412143819
0.00110513064638
0.000450832142823
0.000685848816996
0.0507193694918
0.0521662439749
0.0518570070331
0.000164951859309
0.00020894743274
0.000222359155037
0.00028955567048
0.0503969817659
0.0522865061815
0.0526996798393
0.000172062438146
0.000123734043043
8.26605562203e-05
0.000103605173431
0.0520989789798
0.0531461426146
0.0533106505963
3.99241527847e-05
2.36439304928e-05
5.40148427266e-05
4.05149279517e-05
0.0547419856906
0.0539749539504
0.0549311990635
2.2366075142e-05
0.000112876279528
4.76073812789e-05
0.000119292672929
0.0565023973612
0.0558399386415
0.0562794018145
0.000435602306966
0.000931512839838
0.000270298463876
0.000494415337745
0.059165063701
0.0563892792293
0.0578007390175
0.00132891594489
0.000745693138763
0.00078420335183
0.000638048716374
0.0632339695643
0.060295346709
0.0615629499465
0.000268443449516
0.000210703774398
0.000253475018923
0.000208511079879
0.0656659389749
0.0628615087228
0.0637898843777
0.000237288883636
0.000252434567574
0.000236055616906
0.000226881954654
0.0668630534951
0.0643686680755
0.0648557509474
0.000277017417784
0.000236014307302
0.000185751899051
0.000149071794126
0.0715316881159
0.064554458562
0.0695878854908
0.000293116248479
0.000523985049918
0.000221691085196
0.000549137544529
0.0527693260671
0.0529212652301
0.0536301632328
0.000212062220573
0.000275620339182
0.000226847719602
0.000426882588214
0.0544616348424
0.0550882765682
0.0558164529207
7.53568452278e-05
0.000147087881535
0.000187730131863
0.000275241670464
0.0552633241224
0.0564759360817
0.0569515735341
0.000122285017696
8.60676011021e-05
0.000238853623453
0.00023097624769
0.0559133177604
0.0571665965096
0.0573063844566
0.00011071029622
0.00016211535706
0.000249430865165
0.000278197806108
0.0568007979145
0.0574705668955
0.0575479542933
0.000215837295892
0.000241272999672
0.000275544367245
0.000243500097496
0.0578865550775
0.0581560926017
0.0583469944481
0.000258167325859
0.00037665695248
0.000279910012333
0.000424080044367
0.0607873534717
0.0583686237165
0.0601628295524
0.000571274901384
0.000480683637
0.000899873332636
0.000937741176211
0.0627046663506
0.0619775409341
0.0625712434959
0.000286992461061
0.000208043100698
0.000323717049629
0.000197075912476
0.0637134789561
0.0628100328494
0.0635648554789
0.00015534990957
0.000140278204622
0.000148356583906
0.000133047182458
0.0682054350352
0.0636622516278
0.067900409699
0.000227262965467
0.000675566670056
0.000227147141418
0.000852394059414
0.0569648120123
0.0575142274605
0.000252908301753
0.000341991749595
0.000400642158621
0.0583104166293
0.058385081663
0.0591653332997
0.000322872223713
0.00035914342392
0.000403530176062
0.000469606256572
0.0587830913316
0.0596815653974
0.0600879791278
0.000408955208688
0.000417154247455
0.000529849294874
0.000524045824108
0.0590730493907
0.0602967530601
0.0603059549019
0.000419531579223
0.000430685860783
0.000508742464988
0.000604406741859
0.0597256435696
0.0605531968333
0.0608295505095
0.000418634809299
0.000543742937183
0.0006191794037
0.000583536334427
0.0608549394037
0.060907900684
0.061590717374
0.000754335085757
0.000770527872365
0.000699203322314
0.000575122477693
0.0627285079806
0.0626615373567
0.0633841383949
0.000317695157169
0.000210079226212
0.000284078556983
0.000216379618289
0.0641696351322
0.0640228714566
0.0650993954304
0.000166579597323
0.000142064904621
0.000170801039317
0.000155792280603
0.0681905953177
0.0651683264612
0.0684117244474
0.000241698877561
0.00100650180923
0.000255534304104
0.0010925969297
0.0608866091947
0.0608445080414
0.00055073817495
0.000492439774597
0.000595420140704
0.0004910361717
0.0608773335671
0.0608956319908
0.0607500808874
0.000432778761846
0.000662823993696
0.000394595542278
0.000581305706829
0.0613096477933
0.0604267358532
0.061852518684
0.0012632550911
0.000633468269632
0.00107336578702
0.000488556174662
0.062862626689
0.0629714463233
0.0635688720273
0.000338745148114
0.000314610348661
0.000275032826457
0.000271132749137
0.0640632526991
0.0641263211415
0.0646231551085
0.000277851294718
0.00026226694656
0.000280716933396
0.000299052798795
0.0656832844817
0.0650406230049
0.0661471451755
0.000234813881732
0.000211218269751
0.000265544747853
0.000264344293449
0.068527944713
0.0656458111299
0.0684604686975
0.000305132633093
0.00109776704413
0.000376584092887
0.00109973818381
0.0639693607338
0.000257795805512
0.0650510049891
0.000265426899564
0.00029132374762
0.00025051286616
0.000245889308
0.0663980279326
0.000272070427449
0.000276920982562
0.000217148334559
0.000225885753638
0.0681592041516
0.000414786727412
0.00114737535249
0.000368393804205
0.00120501330825
0.998823401687
0.998803370187
0.877786502582
0.880629989925
0.998883206089
0.8806493062
0.998773673861
0.998897866416
0.998864764888
0.879855595862
0.882232850649
0.998914063718
0.998860632836
0.880588299343
0.999012459396
0.998890983123
0.879772214615
0.880207479824
0.998946811305
0.880373285905
0.999044719738
0.999107023772
0.999295907002
0.880230416308
0.880870585451
0.999205004927
0.880475767105
0.999217487198
0.998949921419
0.998872847173
0.879540665464
0.879496589568
0.998917257039
0.99890251476
0.87970973641
0.999037666027
0.999077785114
0.880438449491
0.879427885251
0.999160796026
0.998973692776
0.879892613963
0.999242726072
0.999296543244
0.878486385954
0.879802254426
0.999259348431
0.878557688512
0.999278367843
0.999210805679
0.999171099058
0.873952581087
0.86942031491
0.999150000388
0.874290128276
0.999234331931
0.999254198299
0.99917983069
0.879923319616
0.878463621983
0.999244550632
0.999206675252
0.879017069596
0.999238998948
0.999180165603
0.870706680979
0.875217813703
0.999205820635
0.99920430139
0.875355788966
0.998945139747
0.999088550454
0.856920556915
0.864150088963
0.999063246223
0.85820823747
0.998941742483
0.998804202229
0.998575919038
0.851491915343
0.849293441013
0.998686860384
0.853323585454
0.998752280161
0.999055706789
0.999141130479
0.86584317895
0.86206572657
0.99915045943
0.99907877922
0.860487158023
0.998943508615
0.998938180565
0.852683138794
0.858328681169
0.998858133753
0.999007714149
0.856456889075
0.998442181795
0.998377222917
0.840775387808
0.847774324694
0.998579523109
0.845585536847
0.998228165553
0.998310687941
0.997916086681
0.840016222049
0.844894959224
0.998164365693
0.844771265626
0.998058444239
0.998689320124
0.998867350754
0.851570850553
0.854045584338
0.998785164908
0.998789713183
0.849508355741
0.998568269649
0.998543565448
0.848273330995
0.853375901002
0.998414838612
0.998679816243
0.848505165963
0.99780052268
0.997750513218
0.839268847032
0.844471762913
0.998004795614
0.843644525769
0.997530664045
0.997544543968
0.99730254647
0.839920161009
0.844681486529
0.99744275681
0.843786560073
0.997322778738
0.997994450959
0.99837933601
0.847934086098
0.851993245278
0.998232153842
0.998168306603
0.847130039921
0.997692123839
0.99761593309
0.846802470891
0.850949745838
0.997527078272
0.997875395643
0.846568824681
0.997460991553
0.997315553203
0.843525363248
0.845107337444
0.997437304158
0.845709154373
0.997369133893
0.997539897333
0.997664201676
0.843948826032
0.845376861188
0.997694542331
0.845640804185
0.997473984497
0.997522694588
0.997545444543
0.846748836804
0.849937492887
0.997509740341
0.997555225312
0.846859069945
0.997585225126
0.99771315024
0.845288744168
0.848235807221
0.997767238267
0.997581355975
0.846229124444
0.998032083627
0.997884639189
0.840179676584
0.842666279654
0.997861780269
0.838743837501
0.99811306428
0.997969826573
0.997891533785
0.835583837352
0.828406923422
0.997832000777
0.83379847995
0.998049185236
0.997983119203
0.997789239622
0.842497883149
0.838730015239
0.99789063427
0.99783066793
0.839049299058
0.997894473953
0.997632990416
0.829445326188
0.834020485623
0.997777342093
0.99774061779
0.834456209542
0.996313744528
0.997374566126
0.834457217966
0.833791379556
0.997370256095
0.833132079431
0.996019356776
0.99340778332
0.990123083744
0.811255887871
0.824812646681
0.818154087379
0.99176762026
0.989586695391
0.996525685845
0.997351348903
0.835499222628
0.83248266416
0.99745372924
0.996574235776
0.832436578106
0.993552282811
0.995171509482
0.825154518521
0.800408547218
0.994360767179
0.796480674421
0.994201496989
0.999044355298
0.9990502504
0.893726663623
0.893196231316
0.999027311085
0.891773340252
0.99905978764
0.999004475487
0.998897948523
0.892085351173
0.888315524708
0.998975180359
0.998921127447
0.890399162327
0.998937578984
0.998897344299
0.892025100001
0.889306364567
0.998849566836
0.890696782626
0.998953513661
0.998892356492
0.998649011245
0.887612267188
0.887805477276
0.998781703529
0.998783248028
0.889293951877
0.998674054324
0.998808480587
0.884915632539
0.885916811799
0.998719099724
0.998794182609
0.883781924355
0.998626110525
0.998709724582
0.883018307874
0.880204033255
0.9987183959
0.998624027176
0.881892671366
0.998542094646
0.998509158118
0.884940512853
0.880888741592
0.998647910685
0.998438021159
0.882806814304
0.998523503163
0.998445492794
0.87775695934
0.877827769092
0.998526923353
0.998432387686
0.880047863971
0.998664339615
0.998711726678
0.878848767129
0.879050125964
0.998737440294
0.998634647666
0.877903732595
0.998732348183
0.998898861209
0.878905913385
0.877411910611
0.998800233622
0.998808641923
0.877414511246
0.998566279295
0.99847576115
0.876394187372
0.872229853829
0.998533664403
0.998528009971
0.875101853193
0.99861939756
0.998677020808
0.87619362319
0.872708122193
0.998694635753
0.998608392286
0.875723216721
0.998919000638
0.998988654395
0.878990116824
0.877354925465
0.999023314152
0.998895468834
0.877207753727
0.998917343269
0.998957447146
0.876798666821
0.873278267301
0.999011850274
0.9988927306
0.875428781378
0.998826623558
0.99873658366
0.876269582615
0.873404406124
0.998782002256
0.998769955519
0.876146258259
0.998821231168
0.998780166453
0.873758374815
0.872663052456
0.998799467026
0.99879079537
0.875166102178
0.998785787918
0.998877655124
0.862252267886
0.869026766389
0.998800928052
0.998838263796
0.864433883815
0.998717138564
0.998664575428
0.859195951157
0.859162383847
0.998726521811
0.998649747813
0.861605394018
0.99868679187
0.998743107421
0.870281542093
0.866593222634
0.998747627616
0.998680333887
0.86618329702
0.998606896008
0.998526777387
0.861385625555
0.864843630387
0.998528431694
0.998591234199
0.863853421946
0.998485817212
0.998598575637
0.858029103093
0.859611688833
0.998511033332
0.998577097008
0.860596304109
0.998360353831
0.998201780371
0.858070252695
0.860476787876
0.998389980587
0.998192894263
0.860804506282
0.998342258042
0.998441064068
0.861972781232
0.864931863037
0.998442794301
0.998341303776
0.863157062451
0.998225383711
0.998126403892
0.86307985086
0.864846760772
0.998103028086
0.998241867579
0.863436313682
0.997655943789
0.997953043864
0.854197216102
0.859494432812
0.99766109806
0.997952007679
0.858202155481
0.99731701342
0.997084475358
0.852810413304
0.856744517219
0.997297234198
0.997135823728
0.857266778932
0.997712393894
0.997974516287
0.861255729757
0.862132983093
0.997931012215
0.997791296461
0.859094477457
0.997516965602