/*--------------------------------*- C++ -*----------------------------------*\
| =========                 |                                                 |
| \\      /  F ield         | OpenFOAM: The Open Source CFD Toolbox           |
|  \\    /   O peration     | Version:  v1906                                 |
|   \\  /    A nd           | Web:      www.OpenFOAM.com                      |
|    \\/     M anipulation  |                                                 |
\*---------------------------------------------------------------------------*/
FoamFile
{
    version     2.0;
    format      ascii;
    class       surfaceScalarField;
    location    "12";
    object      alphaPhi0.water;
}
// * * * * * * * * * * * * * * * * * * * * * * * * * * * * * * * * * * * * * //

dimensions      [0 3 -1 0 0 0 0];
oriented        oriented;


internalField   nonuniform List<scalar> 
92311
(
0.204172545965
-0.000136928410649
-0.0011900646342
-0.2038520527
0.00100748460651
-8.6870170044e-05
0.204314386792
-0.000967792255271
0.000913028288845
0.204293937835
-0.000232536619037
-0.00126492683617
-0.20399924561
0.00106629470971
-2.06883223484e-05
0.204318489113
-0.00100432914223
0.000913828081527
0.204450544959
-0.000117441307316
-8.30870480693e-05
-0.00132622421755
-0.204056630052
0.00106675972342
-9.95215023897e-05
-6.69268849173e-05
1.80945415722e-05
3.47628373008e-05
6.79100958279e-05
0.204385742856
-0.00110174842423
0.00100452109661
2.0547713979e-05
0.0513811913634
-3.0667308268e-05
-2.10005259818e-05
-3.32383235503e-05
-1.90833117677e-05
-0.000332182261259
-0.0513440903064
0.000281587161729
-0.051361103839
0.051361280125
2.07276122933e-05
8.45933068959e-06
1.43295364188e-05
1.09705412909e-05
-0.000358773739616
0.000322007468309
6.9302716211e-06
-0.000759487823528
3.10862195597e-06
7.42687035519e-06
3.6158173138e-06
3.21749217655e-05
0.000519869906894
2.95553085942e-06
0.000141546093236
-0.00125784732556
-6.04672466966e-05
-1.36922159448e-06
0.0011672723772
-1.36697129204e-05
-3.51799348512e-05
-2.03848213146e-05
-3.26621557177e-05
0.000230558910638
4.65655608845e-29
0
0
0
5.79496379958e-29
-5.26208148213e-29
-7.21798036225e-29
0
-1.36916669853e-05
1.04122140366e-06
5.63490854664e-06
-1.35216388412e-05
-0.000346013418685
0.000303478797439
2.3870785663e-05
0.0100923625468
4.03492272233e-05
-2.80710403165e-05
-0.0100960855713
0.0100710547761
2.04381267376e-05
-4.99138685239e-06
-0.0100814927829
-1.43520574549e-05
2.04999669732e-05
0.000322177336742
2.84183065815e-05
0.0513523414908
9.9069571767e-06
2.71803364016e-05
1.28764767999e-05
-0.000356963860794
4.56063201607e-05
0.0513312198744
5.06235499302e-05
4.18573683653e-05
4.31269526438e-05
-0.0513716337675
0.000249171203637
2.94019120517e-05
-8.61232372223e-06
0.0100478813763
-3.31326319224e-05
3.90055414598e-05
0.000102004849002
0.0127831057064
-0.000113451249109
4.13274741153e-05
-0.0127849859874
0.0127851689105
9.13393496665e-05
6.33363821976e-05
-0.0127934857906
-0.000218800651226
0.20420905017
-0.00188252977887
0.00161253584224
-0.203719558418
0.204332613143
4.49844602978e-06
-0.000575854698128
0.000553044071635
-2.24202111628e-05
0.204391961108
-0.000446076707302
0.000407901280183
-0.00041430067363
0.204287639292
-0.0017920628017
0.00156454952832
-0.203864270838
0.20442848412
3.45573828763e-06
-0.000734976082274
0.000625970254901
-6.21562423224e-05
0.204603772966
-0.000560796755523
0.000424421983832
-0.000105235408126
-0.00015154258855
-0.000161789862232
-0.00182825168751
0.204248533082
0.00155227530177
-0.203846102467
-0.000122110697048
-3.81405928109e-06
-5.43230188693e-05
3.31911249686e-05
-1.23781651092e-05
0.204550701118
-0.000733122292664
0.000608945422682
0.0513074717604
-4.22894277718e-05
-4.32060044389e-05
-3.93853363123e-05
-4.32071943059e-05
-0.000495150749729
-0.0511721795141
0.000422727137825
0.0513380854767
0.000322218780524
2.26046925499e-05
-1.83869584626e-07
1.69161622088e-05
-1.03692342631e-05
-0.000340796963371
-0.00031082125655
-1.47709618212e-07
-0.00129081213354
1.92862066381e-06
-1.23206993801e-05
2.27626641031e-06
-1.00547068529e-05
0.000339308893429
4.90699079582e-10
2.12247867799e-07
7.12703073521e-10
7.26219958604e-28
4.81335361924e-10
1.23863086062e-08
3.28276434805e-09
1.06167761636e-07
0
0
0
0
7.6432614367e-30
0
3.2741496327e-28
0.000424398526586
-3.79086508669e-05
-3.92028633119e-05
-3.77583524239e-05
-3.90768170585e-05
0.0513548844138
-0.000469430716024
-4.11204292856e-05
-3.38387036198e-05
-3.53028474924e-05
-3.22322642118e-05
0.051344928121
0.000350601581846
-0.0512906473221
-1.04088723152e-05
4.47398540221e-05
0.0101643170692
6.79537860545e-06
3.58010014597e-06
-0.0101855166908
-1.03881477739e-05
4.14322056874e-05
-0.0101428232647
8.22784848825e-06
-9.2841204638e-06
0.0101384866733
-4.04708927077e-05
0.0128172545383
-9.29091388027e-05
8.29130959071e-05
-0.0128066428442
0.000286584869677
3.78818297058e-06
-3.00756116783e-05
-2.1069916845e-05
-9.45611794274e-06
0.0513440548948
-0.000290087399186
0.0512786810761
3.97936244029e-05
4.42409367649e-05
4.88097981378e-05
3.19258733176e-05
0.000243026557837
3.42053031201e-05
2.1769866414e-05
1.99787822213e-05
-2.81047899932e-07
0.0512508107973
0.000226234972859
9.80226713415e-05
-0.000111311977
3.76625613288e-05
0.0127812331772
-2.29508367812e-06
1.89600859951e-05
-0.00990729826435
-0.00013809077989
0.00988672746654
0.000141125550017
8.69280537128e-05
5.912853089e-05
0.0127765696138
-0.01276406289
5.16684592555e-05
0.0127618087307
-7.29936231588e-05
5.75754023608e-05
-0.00100348761858
-2.26611960928e-05
-2.37141669855e-05
-2.31301826583e-05
0.000116133990242
0.00015404294391
-4.01317326745e-07
-2.07418081468e-06
-6.26933977689e-05
-7.64282817429e-05
-7.47079285568e-05
-6.63742738151e-05
-0.000486840333162
0.000154857148498
0.000544976276032
-2.22616512018e-06
-9.32060973139e-07
1.58621401563e-06
1.47114466549e-06
3.13779586012e-06
-1.43834556654e-06
-4.3761225619e-06
-1.46042130705e-06
-3.41738188617e-05
-3.86971799524e-05
-4.51857480954e-05
0.000153908888735
0.000116011959526
-2.1245597071e-06
3.81740864074e-06
2.07111485609e-06
8.14792028816e-05
0.0128254417006
-9.11085636363e-05
-0.0128224102342
-0.0128299508061
-5.84674833e-06
-8.4279466434e-05
0.0128223916223
7.67670347275e-05
2.20791489502e-05
3.2206618261e-06
0.0100961936126
-1.28890605894e-05
2.86447584518e-05
0.0101027274389
-0.0101057389969
4.91072545331e-05
-0.012824049392
7.17147215293e-05
0.010106938906
3.0469516311e-05
0.0128162117627
-9.14676334087e-05
0.0128107888962
3.52285979813e-06
-9.15223135414e-05
8.53116647211e-05
9.73703929866e-05
-0.0128016001863
0.0127963620497
-9.74189592469e-05
3.51425077919e-06
-3.09952006979e-06
5.18687034191e-06
-1.28868413986e-05
-0.0100940224341
0.0100847581432
-7.25616984126e-06
0.0128069291321
9.29461077266e-05
1.16435802942e-05
-9.45443162191e-05
-0.0128014980854
3.08470041434e-05
-0.000107132099812
0.0127953989199
0.000100330362211
0.000105260709429
0.0127905706101
-0.00010161198886
-4.69878679218e-05
-8.6836965221e-06
0.0100126684047
5.38911223644e-05
-2.49557282991e-05
0.0100604832144
-2.44297237595e-05
9.83766000076e-05
0.0100245603077
-3.62562355304e-05
0.0127880899306
-0.000105260174668
7.10591825363e-06
-0.0127818930457
0.0127836856577
-0.000112547087901
-7.5887373685e-05
-0.00999795217218
0.00997520797608
9.1047496147e-05
-0.0100061788508
-5.94868286374e-05
0.00998427179517
4.18401095111e-05
-0.000109379100698
0.000103008943637
-6.53091089805e-05
-1.77961777216e-05
7.44075725888e-05
-4.95791083143e-05
-0.000109665995547
7.86632441837e-05
-0.0127979543435
0.0127845655468
7.50262785683e-05
-5.75417050967e-05
-0.0100475253719
0.0100260118429
-0.0100579225816
0.0100374599284
-5.80273118112e-05
9.0865770496e-05
6.59106404075e-05
-0.0128078900689
-7.14278287896e-05
5.03376788983e-05
-0.0100853915919
-5.02953118986e-05
-0.0128144587831
7.73516200182e-05
-0.0100667095248
4.96803416188e-06
2.14474117872e-05
1.43608893638e-05
1.24324865564e-05
1.24044985427e-05
1.36331888073e-05
-0.000409123279327
0.000228810108297
4.13527138044e-05
-1.92139410148e-06
-9.22701731828e-06
6.47762867103e-06
7.82881649291e-06
-0.000302077027451
3.59345443662e-06
9.98452537002e-06
1.32458392248e-05
1.28835213218e-05
-0.000132239172347
0.00010993667639
0.000232716421379
4.17919007396e-06
1.08431195384e-05
1.13664618963e-05
1.19205815951e-05
-0.000494714405523
0.000111210080063
-7.63811150703e-06
2.7109706491e-07
6.01786436142e-06
2.74372823258e-06
1.76664297996e-06
-8.7241920394e-06
-1.35845375815e-06
-0.000598442007922
-3.49035467063e-05
-5.0705018753e-05
-4.7594463014e-05
-2.97229534726e-05
-3.21399745001e-05
3.17008651158e-07
-9.08232523329e-07
2.40045541394e-07
-1.19723573541e-06
1.50635486139e-06
-5.29817747783e-07
0.000486463854952
-2.16723862716e-05
-1.32454677612e-05
1.7404113694e-06
-4.30382422472e-06
-0.000793957154154
-0.000249088255947
4.6304972204e-07
-1.01443206317e-06
4.97264139789e-07
9.69041694951e-07
2.04650778518e-06
1.31083219015e-06
-2.87583418769e-06
-0.00126277592146
0.000420938810064
-9.75733836077e-07
1.60615080165e-06
-0.000104104856017
-0.0127935144705
-4.43037147142e-05
0.0128017757236
9.96329054954e-05
0.0127950061695
0.000101139709184
-0.000111688206598
-0.0127811601341
3.79675474553e-05
7.6032401163e-06
0.010150106251
5.56204023203e-07
5.40619248197e-05
0.0101582988495
-0.010185268675
2.31134341648e-05
0.01280277367
-0.000111688110876
-0.0127759283231
9.63623523429e-05
0.0101386499305
2.0470337968e-05
-0.000106570177876
0.01281026503
-4.07119246531e-05
0.000102047540407
-0.0128082518941
0.000111367985125
-0.000111969001618
0.0128114660608
3.88149182622e-05
8.23163930874e-06
-5.30677913397e-06
3.78275987455e-05
-0.010126529416
1.19015757925e-05
0.0101215624334
-0.000109858230688
0.000107372046737
0.0128133378182
1.53707543319e-05
0.0100918395893
-3.72985030364e-05
6.25342244478e-05
-0.010110967674
2.63855737439e-05
-3.02005387556e-05
0.0100915009458
4.97040361764e-05
-9.89596527572e-05
0.0128219791756
8.72707700783e-05
0.0128149912473
-3.5464160009e-05
-0.0128046097367
2.74283107553e-05
-0.0101074361832
0.0101034892443
0.0128187251372
-0.0101240767541
-1.89277532821e-06
0.0127889269041
-0.000114645514062
-9.22992572269e-05
0.00995652386645
0.000109713425085
0.00998014960078
-7.44182128074e-05
-0.000106351704894
2.83771588828e-05
0.012783154638
9.35184370044e-05
1.06124629601e-05
-0.000112417333662
0.00993106426978
0.000126860934889
0.0127954611212
-0.000111821287022
0.00996559366268
-9.07245771512e-05
-9.72449420809e-05
0.0127857607377
1.55842002601e-05
8.41400753295e-05
-0.0127987421069
8.53319320939e-05
0.012799975851
-9.59780656632e-05
1.5558260144e-05
-0.000126684197308
0.000135121028829
3.07956273105e-07
-0.0099509310446
-0.000124817358354
0.00993088976247
-0.000104669133863
7.24160224224e-05
0.0127912296549
-0.000109031434
-0.0127689223404
6.47242631648e-05
-8.30905350017e-05
6.70752479513e-05
7.81178611349e-05
7.25822541603e-05
-6.70422212276e-05
0.0100227279665
0.0100385721822
-6.26333230436e-05
7.77068022245e-05
0.0100259412553
-7.06879952744e-05
4.45757112671e-05
0.0127742115884
0.0100052354112
0.0100242345584
9.04876688558e-05
-8.05594621796e-05
-3.40597075571e-05
0.000106430928869
0.0100153241009
-9.68453496195e-05
-6.14182130343e-05
0.0127651523405
4.571239527e-05
0.0127742485756
3.15177007246e-05
-7.19019798886e-06
-0.00999723965173
0.00997386121054
0.0127788906617
-0.00012149619644
-0.000114820846981
-0.000126476893736
-0.000387026598236
0.205062957487
-0.000105376950152
0.000280802859243
0.000224627650235
-3.21673246185e-05
-3.70237551361e-05
-4.19637008407e-05
-2.45831646457e-05
-0.000235670017293
0.0513694253705
2.71147660885e-06
-0.000507404164389
5.27536310323e-07
2.7627315757e-06
3.50765128669e-06
4.8130059594e-06
0.000404955057434
-0.00119410259204
0
0
0
-3.2272925185e-29
-4.47751787008e-29
0
-1.97326358039e-29
-2.96514036825e-05
-3.40417343773e-05
-3.38011166671e-05
-2.53487408707e-05
0.000155437419296
-0.000385909332066
0.0513659076039
-6.86107087302e-06
2.23212810898e-05
-1.30820655575e-05
0.0100823244754
0.0512702369152
-3.83112790837e-05
-4.46586803595e-06
-2.51698349777e-05
-2.38826226119e-05
0.000182053400742
0.051319948417
-3.95215165843e-05
-4.51234562304e-05
-3.72528944149e-05
-3.67372899704e-05
-0.000153026882037
0.000135566122344
2.3383056819e-05
0.00986433851045
-0.000137207116041
0.000139398678323
-1.81063176568e-06
-1.07327103931e-05
0.000116027482799
0.0100008139893
-0.000103150418031
0.00988585320362
-8.88822080597e-06
4.21710355975e-05
0.000111420409663
-0.00991816969655
-0.000107680877507
0.0513614708013
-3.15202546156e-05
-4.02752227039e-05
-3.33334259104e-05
-3.47778402636e-05
0.000107429427027
-8.81956573032e-05
7.93318977387e-05
-1.63956149527e-05
-1.68836792464e-05
-1.27887469501e-05
-1.92047803715e-05
5.51538740482e-05
2.5708679729e-05
0.0513491905997
-3.0916678356e-06
-6.37499075792e-06
3.7669135704e-05
9.49441328039e-05
0.0098670517921
-9.77060720956e-05
-2.95900286718e-06
1.88197900789e-05
3.62321219021e-05
-0.00984231300101
0.00983332804525
-3.80878455599e-05
6.53380390301e-06
2.82884760157e-06
3.60350386333e-06
0.000240539231737
-0.00067619142618
2.41417320702e-06
-0.000910193943365
-1.86933555479e-08
3.91293705649e-06
7.16917165812e-06
4.23423972211e-06
-0.000414358741572
-3.62599171062e-09
-0.000905303836113
4.46176255773e-06
7.57024873772e-06
3.93068661155e-06
0.000441343435489
-0.000470046442443
7.74271825554e-08
6.45167814025e-07
-4.25189316382e-07
-4.48790387528e-07
7.84936445809e-07
7.26483923822e-08
2.86242580689e-07
4.68359557209e-07
-0.000824891967003
4.44648390618e-06
5.0601711742e-06
4.81195354808e-06
0.000221568719548
-2.92908012539e-07
-0.000293283415933
4.15425683081e-06
2.96869769217e-06
4.74164253757e-06
-0.000199098657889
-4.70062835955e-07
-0.000637774796703
4.92991485801e-05
-0.0128170638525
-1.18711622212e-05
0.000101865292572
-0.00010835647478
0.012804065406
-0.000101599304167
0.0128199938368
2.60184513004e-05
0.0100913758528
-2.48057589161e-06
-3.03312167273e-06
4.71551574104e-06
0.0100805373855
-0.000108768079937
3.68503032422e-06
0.0100855797049
0.0128081900525
-5.95267462278e-05
-0.0127958902788
-2.363493246e-05
4.94446093901e-05
0.0127988686453
0.0128026246887
7.17872138289e-05
-8.64086718854e-05
2.87776789631e-05
-0.00013743115652
0.000139398353111
0.0098378487765
1.55451598331e-05
0.0099033654882
-0.000127057166396
-7.41888478936e-05
0.0128054058794
6.00685451303e-05
-0.000126895685333
0.00987277539484
-0.0127817697137
-2.29552404382e-05
3.20888951583e-05
0.0127842311076
-4.78599841478e-05
0.0127639092272
3.4110945528e-05
1.52723472971e-05
0.00993973795182
0.000126442396022
2.16941223769e-05
0.00996496065155
-0.000114573725417
0.00991248257615
0.0127688046301
2.52822602036e-05
0.0127901420876
-2.78007602113e-05
1.68310895877e-05
-3.41553904848e-05
-5.28552421166e-06
-0.0127787060711
0.0127825783986
-1.03991472024e-06
2.90453455001e-05
-0.00988747726725
0.00986689297541
0.000110050518787
0.000121029549076
4.15073150872e-05
-0.000112923014489
0.0127941264266
-1.71879639144e-05
0.000119796680787
1.1949583709e-05
-0.0127963742886
-2.92834166729e-05
-1.46542857606e-05
0.0127974440796
1.22761165981e-05
4.55333387446e-06
0.0127867173398
-1.05840116967e-05
2.79294641215e-05
0.00984478750987
9.38777010672e-05
7.6320135618e-05
2.89454101747e-05
0.00985365996492
-7.96358073326e-05
-2.70049242972e-06
0.00982378183475
7.64096612273e-05
0.0127862533908
-1.95064660314e-05
0.0128008686643
-1.78866987389e-05
-2.44022817963e-05
2.35779263e-05
3.5928823265e-05
-0.012787758164
0.012788403866
-3.40451493396e-05
1.354101959e-05
-0.00981462893274
4.07952236044e-05
0.00980503555458
5.56277656886e-05
1.83045196241e-05
-5.75682105097e-05
3.68241161702e-05
0.0128020122524
5.89848014174e-05
-2.63827466371e-05
-0.000514626715393
-0.049838237202
0.0495765974066
0.000552665662976
0.000172426207802
0.000169125818295
0.000188641212847
0.000163687451822
-0.000470549534739
-0.000622423674632
0.0500897845555
7.60112049399e-05
8.65540691777e-05
8.41399567743e-05
8.07008914544e-05
-0.000192300185481
-0.0502052034045
0.000602910369052
-0.000996494010503
-0.0500957718429
0.0501924924924
0.000861371615379
-1.30285234695e-05
2.07273276123e-05
-2.01862961949e-06
1.31006490601e-05
1.95976282421e-05
-0.000747349322297
-3.31001265178e-05
-1.26227171441e-05
-2.97512980615e-05
-1.74820657353e-05
9.68069010377e-05
0.0503678733052
0.000676996862317
-0.0503012850856
-0.000182705280042
-4.6741152533e-05
0.000473298202455
-9.50083505186e-05
0.00022397504476
-2.18792945109e-06
-0.000191403096351
-0.00015898486712
-0.0001573665462
-0.000136730563537
-0.000296244200822
0.000635672364281
0.000324642865018
-7.97123435034e-07
-0.000113993342443
-9.98242630839e-05
-7.72852681223e-05
-0.00010396810953
-8.53641016879e-05
-0.000241565170126
-0.000686661475501
-1.44230510074e-06
-7.40070111242e-05
-7.17017042538e-05
-6.19317164492e-05
0.00101601354757
0.00012825087818
-4.92114048656e-05
-0.000357291541787
0.000322923740559
1.83721094258e-05
0.00022130176005
-7.5615830753e-07
-4.05627188173e-05
-3.33547878338e-05
-2.00638582593e-05
6.68314773994e-07
-4.88426190577e-05
1.87354240199e-06
1.32271645278e-06
3.33374636154e-06
-0.000393943183144
-0.000116534930153
-1.85855849929e-07
0.000587148812925
-2.98177944447e-09
6.16029929791e-26
4.53800421605e-09
4.6586184917e-09
1.48856722051e-07
2.00667989672e-07
2.64785522949e-09
2.21985901062e-09
1.67699822344e-27
4.65244051232e-08
8.20215206514e-08
1.00644573573e-07
6.43810624704e-08
-1.83646191412e-08
2.34038453907e-07
-6.00554576916e-26
2.32258415427e-28
0
0
0
0
-5.46220993244e-27
9.80008113503e-29
0
0
0
0
0
-3.5593414236e-28
0
0
0
-2.32488204486e-27
9.49372187666e-30
0
0
0
0
0
0
1.44419769303e-29
0.000209776563214
0.000171114007038
0.000206900849002
0.000212264631207
0.000167022706995
0.0496371674728
-0.000362561751177
-0.000152729599172
-0.0500890613424
0.0496598612725
0.000336996325354
0.000159185393731
0.000195212040473
0.00020081534136
0.000153153341181
-0.000372282967288
-0.0501233268032
0.000211473346208
-0.000281829749853
-0.0105162872674
-8.44473511173e-06
0.0105302875747
1.28412009131e-05
0.010612194148
3.14459282729e-06
0.000196439902047
-0.000246280702399
-3.87735242782e-06
-0.0106159718922
0.000225023744613
0.000200228105412
0.000206535153601
0.000220048441441
-0.000380796893402
0.0123370179094
0.0122525538523
0.0123169702191
0.0123421404464
-0.000574105079312
1.26711368712e-05
0.000192458642315
-0.000238111684002
-7.1496046307e-06
0.0106021791969
0.000425812666686
0.000134918284734
0.000175845242918
0.000134784280155
0.000170241657664
-0.000351477285998
-0.0501915777562
0.050015712015
0.000117421293179
0.000137674253032
0.000143873058956
0.00011533815357
-0.000361351992206
-0.0502358167511
0.000492797803607
0.0106432609996
0.000176840152593
-0.000219175628497
-0.0106418834264
-4.40732921614e-06
0.0107055510295
0.000115805980764
-0.000151667414778
2.1322157165e-05
-0.0106990977626
-2.60687746032e-05
0.000830597508439
0.000158318342245
0.000177849390842
0.000174913921025
0.000156833133162
0.0493472328011
-0.000218495064704
-0.000170653417866
-0.000213384507725
-0.00018033508265
-0.000142205252243
-0.000107405227663
-0.000132689921296
-0.000104105005908
0.04980498326
0.00012810458956
0.000120594562641
0.000124754484163
0.000119316278252
-0.00035172698929
0.0498136237946
0.000789421951421
0.000106780755681
8.41960847533e-05
0.000103511031152
9.58005284366e-05
-0.000357611354531
-0.00020764701661
0.0106342168966
8.28560017587e-07
0.0106123355389
0.000172516338021
-0.000197081507244
-0.010622317678
4.8482034355e-05
-5.68103728021e-05
-2.63345108087e-05
0.000109634448459
-0.000135235463005
1.88648790269e-05
0.0107061491724
0.0106997148036
3.65661767317e-06
7.65241772749e-05
-7.02368530277e-05
-2.48887842273e-05
-0.0107085933283
0.0499505585191
6.0622909788e-05
5.70934504854e-05
7.74737217438e-05
3.4642346387e-05
-0.00110471976382
-0.000258414598474
0.00118360162918
5.85482657213e-05
1.18646407609e-05
3.07912355715e-05
3.96273166983e-05
0.0505017643424
-0.00033635075818
-0.00153929395596
-0.000170757522151
0.0106158734009
7.58214940645e-05
-8.12071054271e-05
8.98528716093e-05
-0.000132244975479
-0.0106478020552
0.000156961368422
0.0106650073306
-0.000165735525398
2.43497453304e-05
6.03257601222e-05
-4.11560744945e-05
-4.9596142807e-05
0.0106843208119
7.59078007987e-05
2.79922928645e-05
1.45140922483e-05
-0.000111757674655
-0.0106472357661
0.010621632003
0.0007272434792
5.06221324966e-05
4.47661830131e-05
5.76560833978e-05
3.63717543201e-05
-0.000133207820702
0.0502420191647
3.64659388104e-05
1.76171753918e-05
2.49320123894e-05
3.15970479723e-05
-7.206034738e-05
-0.0502338894024
0.000680705968343
-0.000111265627242
0.0107000046901
-3.09798952966e-05
-0.0106970822262
0.0107053481049
5.24054079637e-05
-4.93653812576e-05
-0.0107100091525
-1.34825642538e-05
0.0107321478889
1.27437237833e-05
-1.50130270041e-05
3.02416902687e-05
-0.0107393449928
-3.16600861501e-05
0.000976903475112
-1.81913659987e-05
-3.02585129867e-05
-9.40594250844e-06
-4.07072346355e-05
0.0504832415254
1.45266852514e-05
0.0503232724992
-1.89693666203e-05
1.3375623022e-06
6.26058937521e-06
-2.08449568446e-05
6.50075426201e-05
-2.7661228969e-05
-4.85994934524e-05
-3.05474720471e-05
-4.8371742379e-05
0.0505075287866
0.000814714533673
0.000133169094156
-2.46688207616e-05
0.0106907034354
-1.9963751936e-06
2.29812252302e-05
4.2502716394e-05
-0.0106442131988
2.95762014511e-05
0.0106091529016
-2.86711719638e-05
1.05790945545e-05
-4.64869689714e-06
2.60245141235e-05
0.0107175863493
-3.75559589242e-05
-3.73430276776e-06
6.18047221843e-05
2.7504454869e-05
-0.0106518881222
0.0106019645469
9.31307233806e-06
0.0107126830181
-2.59349095728e-05
-0.0107322067597
5.77388517534e-05
-0.0106336326128
0.0105853218257
-4.99738667995e-06
-3.83424082969e-05
-0.000134839253443
-0.000187340224369
-0.000211525023777
-0.000184318503407
-0.000341234864755
0.000286442647848
0.00076983225263
-9.02502666589e-06
-0.000367560697652
-3.83947375207e-06
-0.000205457545631
-0.000163779597737
-0.000175295697042
0.000765623672343
-7.17383085244e-06
-2.79656251741e-06
-0.000207670434353
-0.00020540132207
-0.000223817808831
0.000173437266909
8.51375240882e-05
-7.13448203148e-07
-4.72179699672e-07
3.38987066998e-06
3.82433841935e-07
2.14537546912e-06
-3.20674745864e-08
2.83457393042e-08
2.49635337741e-06
-2.04359894498e-07
-5.38480812228e-07
-5.76693184331e-07
1.58334460776e-06
1.00341592349e-07
-1.61187598848e-07
2.21015361534e-06
1.66790085785e-07
-4.54722894828e-07
2.15069125884e-06
5.72333894399e-07
-6.33041055679e-07
3.26284987444e-08
1.73010371841e-06
1.03409671374e-06
9.10311505889e-08
-2.18624117511e-07
1.52114991834e-06
-2.41997064178e-07
-1.4596327531e-07
1.28113606956e-06
0.000109578275672
-0.000154333998244
-0.000165440367657
-0.000148431867519
-5.80045206504e-06
0.000829397944836
-0.000742495633395
-0.000132633140511
-0.000108645441226
-0.000126806504469
0.00104248725058
-4.27604370276e-06
0.000148209159692
0.000305444351836
-1.67541635698e-06
-0.000172550283278
-0.000130916752674
-0.000128450736465
-9.35209091115e-05
-0.00040932398564
-1.86896495567e-06
-0.000126729297881
-0.000101721658357
-0.000122410546421
-1.50794685765e-06
-2.20081789077e-05
0.000317744435696
-0.000111280255948
-8.39703613672e-05
-0.000111535446624
-3.98596594695e-07
-7.58623881119e-07
1.18548063575e-06
-3.77395252399e-07
1.70837401996e-07
-3.22934956614e-07
-1.07942811126e-06
1.25055196757e-06
2.64596420423e-07
-5.87553744673e-07
0.000249783877393
-6.57340168815e-07
-8.96723835383e-05
-5.62096059065e-05
-6.3067676647e-05
0.000806339546164
-4.73240278478e-05
0.000310113493233
-8.36488745264e-07
-9.5642332882e-05
-4.67036475645e-05
-7.79388033204e-05
-5.93794062603e-07
0.000326620087268
-5.41610184586e-05
-3.83575194419e-05
-6.04115767142e-05
0.000486567967017
2.01200443081e-07
-2.61268154268e-07
-1.44419314423e-07
2.12444600814e-07
3.67980892741e-07
-4.62243529776e-07
-1.14662052593e-07
4.28094795183e-07
0.000177545188038
-1.05549467575e-06
-6.18022378167e-05
-3.81177348955e-05
-4.62115803878e-05
-6.25030693928e-07
-0.00049010271739
-2.05034801411e-05
-1.89656780995e-05
-2.72752757381e-05
0.000763555400222
1.52725490228e-05
1.98258627406e-07
3.24503077555e-07
-8.98784979571e-07
-6.00704606334e-07
6.30680263901e-07
8.35166766696e-07
-3.469192227e-07
-4.24909148273e-07
0.000256070907209
-4.83566738271e-07
-3.0839917231e-05
-6.20828355408e-06
-1.66769408358e-05
0.000252257284655
-0.000219051779369
-4.67282368643e-07
-2.03143095791e-05
-1.50761095915e-06
-8.88818687501e-06
-2.6213119528e-07
1.44111142364e-06
1.14162221499e-06
-1.73241394154e-06
-4.2223505932e-06
9.85696397318e-05
7.38887759379e-07
-5.32474328196e-07
-1.99582179527e-07
8.95298069653e-07
1.05810096473e-06
-4.16161951442e-07
1.41168535943e-06
-3.53545403789e-07
0.0125238466996
0.000233814932303
-4.60446244836e-05
4.03718855891e-05
-0.0125821013089
5.52772652351e-05
-0.0125103871783
0.0124360802999
-5.66486542842e-05
-4.97893401357e-06
-0.000230698863519
8.97060585305e-06
-0.0105318853051
-0.000289784490549
-0.0105382563049
2.57713139872e-06
0.0105499592796
4.97314539015e-05
0.0124510430337
5.45604516877e-06
-0.0105574263085
-5.01225329016e-05
-0.012570949857
0.0125376062902
4.4598434733e-05
0.000208318079341
-0.0125918217301
-5.28261825646e-05
-0.0125483437674
0.0124856164257
6.35425820406e-05
-0.000263167375802
-0.0105793643357
0.0105809912596
-0.000189957808663
-5.91640734083e-06
4.75545832397e-06
-0.0106407715363
0.012471342374
5.64568410897e-05
-0.0125976469812
-0.0106024011126
-0.0124172891698
9.46629394126e-05
0.000276484378939
-9.07834794276e-05
0.0123611382007
-7.63050322059e-05
0.012440262288
8.28308273427e-05
-0.000256980220819
0.010574758063
-3.96650278305e-07
-0.000260525564547
-9.48703281948e-06
1.96002876172e-05
0.0106005022801
-7.35195688851e-05
0.000103238010409
0.0123905444632
-1.04422576488e-06
0.0105702444764
-6.51300016768e-05
0.0125654179217
0.000167378433384
7.43280936274e-05
-0.0126075367497
-0.0125585991507
6.99190201339e-05
0.0125081762023
-0.000171608259331
-4.91593599602e-06
-0.0106616339939
-0.000201808888708
-0.0106727333664
-1.3285576714e-05
0.0106692104605
-0.0126044292991
8.19099468005e-05
0.0125211571731
-1.62650242799e-05
-0.0106849990028
0.012572573824
8.25232672391e-05
0.000145733004395
-0.0126093252135
-9.22315514178e-05
-0.0125810918467
0.0125515651261
0.000107426561782
-0.000167033622069
-0.0106807333766
0.0106830635115
-0.000134923128645
2.49966066494e-05
-0.010704170986
-2.7622246153e-05
0.0125387288326
-0.0126117648442
9.34469399366e-05
-0.0106912290789
-0.000103749247504
-0.0124864754252
0.000188825701546
0.0124535585988
0.00011909123407
0.012468658807
8.27572352729e-05
-0.000227546751976
1.2993910327e-05
0.0106304533779
-0.00018583384862
0.0106600155936
-8.29850649994e-06
0.0124280724306
9.43751970322e-05
0.0106638266915
5.47060574455e-06
-0.000123941382292
0.012433905002
0.000162263423528
0.000138097916622
-0.012400075492
0.000159330328036
0.0123849135926
-0.000164585537134
-0.000203324833928
2.37823783133e-05
-3.30619163895e-05
-0.000155768198569
-0.0106621223201
4.84616774326e-05
0.0106493197115
-0.000125651799896
0.000170601837753
0.0124223402626
2.26284147582e-05
-0.0125060594443
0.000123793727394
0.000147062168504
0.0124815889696
-0.000101369714291
0.0125214097172
0.000116177299001
-0.000149798479321
0.0106794268159
-0.000124316006119
6.83094875246e-06
0.0107110295152
-1.77660443082e-05
0.0125019314598
0.000137421300267
0.0106875107519
0.0124644212895
0.000139201544105
0.000121595172434
-0.000166229005765
-0.0124875912697
0.0124895435132
0.000176817546291
-0.000111759044273
-0.0106837406108
0.0106754740044
-9.37026665503e-05
-4.89702151544e-06
-1.06569649852e-05
0.0124587376216
0.000154559119337
-0.000231836930417
-0.012425412674
9.98808256873e-05
0.0124476045797
0.000238993164895
-0.000129520007728
0.0123831083838
0.000191899158958
-0.000161289408816
-0.000200231297246
-0.000146544901447
0.000101357304151
0.0106240408784
-0.000105525030137
-0.000129670610513
0.010641825263
8.10567043249e-05
0.01240284391
-0.000156267830747
-0.000242332991417
0.000199269917954
-0.000140866246399
0.0106383465103
0.000104513215825
-0.000265079849612
9.76014490213e-05
0.0124934953623
0.000272063003222
-0.000150529440236
-0.0124514587954
0.00030359947448
0.0125242224805
-0.000328921863299
-0.000180218592284
-0.000139501140663
0.00013212108807
-0.000136642785724
-0.0106497685664
-8.18703727041e-05
0.000153823597998
0.0106483116388
-0.000276534709619
-0.000177045878829
0.000130619701863
0.000304446046434
0.0125530278496
-0.000142106511208
-0.0124630609598
0.000222821966013
5.07489022923e-05
0.0124887049255
-0.000190323762541
0.0124962176926
0.000198104798455
-8.07838312221e-05
0.0106627202831
-1.17003614089e-05
-6.91696540106e-05
0.0106593376168
4.05005931325e-05
0.0125186733194
0.000222472493624
0.0106483941856
0.000248818468436
4.31423683452e-05
0.012527169074
-0.012549903847
-0.000270940175932
0.000255688584589
0.0125914483885
-0.0106490477777
-2.30563212692e-05
0.0106347445736
-7.38446250815e-06
-9.10200290735e-05
5.36917956449e-05
0.000240652713584
0.0125770791023
-0.000135577494044
-0.0125523419439
8.37157871349e-05
0.012540583409
0.000139336224676
0.0125384472788
0.000117107207184
-0.012564432339
-0.000100294345317
-2.4129855642e-05
0.0107102813657
-9.85812253168e-05
0.0107136961893
-0.0107065858234
-3.47896014588e-05
0.0125236353693
-0.012575978706
0.000122661891816
0.0107260045764
-3.30177465403e-05
-0.000150052301468
0.0125319252031
5.54945177579e-05
0.000153280907562
-0.0125116263185
0.000167297484117
0.0125153482128
-7.33379821834e-05
-2.09476255665e-05
-3.05737878595e-05
-0.0107277898986
-3.02092017855e-05
0.0107213884853
0.000167681358735
0.0125364415473
-3.09511396377e-05
0.0125495044657
0.000148321899686
4.88416471328e-05
-0.0125573384361
-0.000158893627193
-0.012564385881
0.0125689566947
0.000156179599559
-2.84619697799e-05
-0.0107297241291
0.0107237650544
-3.45182269424e-05
2.66249246355e-05
-0.0107372493
-2.49209056848e-05
0.0125539284094
-0.0125689320965
0.00014966816605
-0.0107272967448
-0.000203469644608