/*--------------------------------*- C++ -*----------------------------------*\
| =========                 |                                                 |
| \\      /  F ield         | OpenFOAM: The Open Source CFD Toolbox           |
|  \\    /   O peration     | Version:  v1906                                 |
|   \\  /    A nd           | Web:      www.OpenFOAM.com                      |
|    \\/     M anipulation  |                                                 |
\*---------------------------------------------------------------------------*/
FoamFile
{
    version     2.0;
    format      ascii;
    class       volVectorField;
    location    "12";
    object      force.turbine;
}
// * * * * * * * * * * * * * * * * * * * * * * * * * * * * * * * * * * * * * //

dimensions      [1 -2 -2 0 0 0 0];


internalField   nonuniform List<vector> 
28582
(
(0 0 0)
(0 0 0)
(0 0 0)
(0 0 0)
(0 0 0)
(0 0 0)
(0 0 0)
(0 0 0)
(0 0 0)
(0 0 0)
(0 0 0)
(0 0 0)
(0 0 0)
(0 0 0)
(0 0 0)
(0 0 0)
(0 0 0)
(0 0 0)
(0 0 0)
(0 0 0)
(0 0 0)
(0 0 0)
(0 0 0)
(0 0 0)
(0 0 0)
(0 0 0)
(0 0 0)
(0 0 0)
(0 0 0)
(0 0 0)
(0 0 0)
(0 0 0)
(0 0 0)
(0 0 0)
(0 0 0)
(0 0 0)
(0 0 0)
(0 0 0)
(0 0 0)
(0 0 0)
(0 0 0)
(0 0 0)
(0 0 0)
(0 0 0)
(0 0 0)
(0 0 0)
(0 0 0)
(0 0 0)
(0 0 0)
(0 0 0)
(0 0 0)
(0 0 0)
(0 0 0)
(0 0 0)
(0 0 0)
(0 0 0)
(0 0 0)
(0 0 0)
(0 0 0)
(0 0 0)
(0 0 0)
(0 0 0)
(0 0 0)
(0 0 0)
(0 0 0)
(0 0 0)
(0 0 0)
(0 0 0)
(0 0 0)
(0 0 0)
(0 0 0)
(0 0 0)
(0 0 0)
(0 0 0)
(0 0 0)
(0 0 0)
(0 0 0)
(0 0 0)
(0 0 0)
(0 0 0)
(0 0 0)
(0 0 0)
(0 0 0)
(0 0 0)
(0 0 0)
(0 0 0)
(0 0 0)
(0 0 0)
(0 0 0)
(0 0 0)
(0 0 0)
(0 0 0)
(0 0 0)
(0 0 0)
(0 0 0)
(0 0 0)
(0 0 0)
(0 0 0)
(0 0 0)
(0 0 0)
(0 0 0)
(0 0 0)
(0 0 0)
(0 0 0)
(0 0 0)
(0 0 0)
(0 0 0)
(0 0 0)
(0 0 0)
(0 0 0)
(0 0 0)
(0 0 0)
(0 0 0)
(0 0 0)
(0 0 0)
(0 0 0)
(0 0 0)
(0 0 0)
(0 0 0)
(0 0 0)
(0 0 0)
(0 0 0)
(0 0 0)
(0 0 0)
(0 0 0)
(0 0 0)
(0 0 0)
(0 0 0)
(0 0 0)
(0 0 0)
(0 0 0)
(0 0 0)
(0 0 0)
(0 0 0)
(0 0 0)
(0 0 0)
(0 0 0)
(0 0 0)
(0 0 0)
(0 0 0)
(0 0 0)
(0 0 0)
(0 0 0)
(0 0 0)
(0 0 0)
(0 0 0)
(0 0 0)
(0 0 0)
(0 0 0)
(0 0 0)
(0 0 0)
(0 0 0)
(0 0 0)
(0 0 0)
(0 0 0)
(0 0 0)
(0 0 0)
(0 0 0)
(0 0 0)
(0 0 0)
(0 0 0)
(0 0 0)
(0 0 0)
(0 0 0)
(0 0 0)
(0 0 0)
(0 0 0)
(0 0 0)
(0 0 0)
(0 0 0)
(0 0 0)
(0 0 0)
(0 0 0)
(0 0 0)
(0 0 0)
(0 0 0)
(0 0 0)
(0 0 0)
(0 0 0)
(0 0 0)
(0 0 0)
(0 0 0)
(0 0 0)
(0 0 0)
(0 0 0)
(0 0 0)
(0 0 0)
(0 0 0)
(0 0 0)
(0 0 0)
(0 0 0)
(0 0 0)
(0 0 0)
(0 0 0)
(0 0 0)
(0 0 0)
(0 0 0)
(0 0 0)
(0 0 0)
(0 0 0)
(0 0 0)
(0 0 0)
(0 0 0)
(0 0 0)
(0 0 0)
(0 0 0)
(0 0 0)
(0 0 0)
(0 0 0)
(0 0 0)
(0 0 0)
(0 0 0)
(0 0 0)
(0 0 0)
(0 0 0)
(0 0 0)
(0 0 0)
(-0.00366105523942 9.88368374617e-05 0)
(0 0 0)
(0 0 0)
(0 0 0)
(0 0 0)
(-2.36631792168e-05 6.61074975561e-07 0)
(0 0 0)
(-2.36192778289e-06 8.39521741691e-08 0)
(0 0 0)
(0 0 0)
(0 0 0)
(0 0 0)
(0 0 0)
(0 0 0)
(0 0 0)
(0 0 0)
(0 0 0)
(0 0 0)
(0 0 0)
(0 0 0)
(-0.0158612872701 0.000507546496294 0)
(0 0 0)
(0 0 0)
(0 0 0)
(-0.0274236810473 0.000767143299622 0)
(0 0 0)
(0 0 0)
(-0.0281894414722 0.000873831073627 0)
(-0.126336262694 0.00391623765149 0)
(-0.074601268868 0.00208687752227 0)
(-0.720459623211 0.020040152114 0)
(-0.00550814731472 0.000113820526295 0)
(-0.0744131137921 0.00208161411851 0)
(0 0 0)
(0 0 0)
(0 0 0)
(0 0 0)
(0 0 0)
(-0.0158612783056 0.000507546209439 0)
(0 0 0)
(0 0 0)
(0 0 0)
(-0.0273586608986 0.000765324441997 0)
(0 0 0)
(0 0 0)
(0 0 0)
(0 0 0)
(0 0 0)
(0 0 0)
(0 0 0)
(0 0 0)
(-1.4963501228e-05 3.71379238714e-07 0)
(0 0 0)
(-8.98052030971e-06 2.22887594624e-07 0)
(-0.000125836854234 3.40044147152e-06 0)
(-0.000562381223955 1.51970140098e-05 0)
(-7.4754554893e-05 2.02006391681e-06 0)
(-0.000335665151858 9.07055178605e-06 0)
(0 0 0)
(0 0 0)
(-0.000388990327974 8.74417532995e-06 0)
(0 0 0)
(0 0 0)
(0 0 0)
(0 0 0)
(0 0 0)
(0 0 0)
(-0.0160126926494 0.000432291729355 0)
(-0.00075064374135 1.85786010831e-05 0)
(-0.00351927194088 9.50091397307e-05 0)
(-2.63379712629e-05 6.84955247036e-07 0)
(-0.000121618238201 3.28644341428e-06 0)
(-3.37216330783e-06 1.19859905708e-07 0)
(-2.67287750986e-05 6.95118639469e-07 0)
(0 0 0)
(0 0 0)
(0 0 0)
(0 0 0)
(0 0 0)
(-0.000369587484502 8.30801573159e-06 0)
(0 0 0)
(0 0 0)
(0 0 0)
(0 0 0)
(0 0 0)
(0 0 0)
(0 0 0)
(0 0 0)
(0 0 0)
(0 0 0)
(0 0 0)
(0 0 0)
(0 0 0)
(0 0 0)
(0 0 0)
(0 0 0)
(0 0 0)
(0 0 0)
(0 0 0)
(0 0 0)
(-0.00502272434623 9.77216646397e-05 0)
(0 0 0)
(0 0 0)
(0 0 0)
(0 0 0)
(0 0 0)
(-0.00426436430551 8.81189557636e-05 0)
(0 0 0)
(0 0 0)
(0 0 0)
(0 0 0)
(0 0 0)
(0 0 0)
(0 0 0)
(0 0 0)
(0 0 0)
(0 0 0)
(0 0 0)
(0 0 0)
(0 0 0)
(0 0 0)
(0 0 0)
(0 0 0)
(0 0 0)
(0 0 0)
(0 0 0)
(0 0 0)
(0 0 0)
(0 0 0)
(-0.0354973992183 0.00103715985482 0)
(-0.00806172595883 0.000194763397876 0)
(-0.0133182125812 0.000321754962793 0)
(-0.0100512023253 0.000241080259066 0)
(-0.0189997107349 0.000555131859274 0)
(0 0 0)
(0 0 0)
(0 0 0)
(0 0 0)
(0 0 0)
(0 0 0)
(0 0 0)
(0 0 0)
(0 0 0)
(0 0 0)
(-0.00486138175422 0.00010045574277 0)
(0 0 0)
(-0.00782781702626 0.000187751882365 0)
(0 0 0)
(0 0 0)
(-0.127750051118 0.00368986736388 0)
(-0.0994983181958 0.00287385870971 0)
(-0.182051661946 0.00506391042672 0)
(-0.0399440764626 0.0011173857574 0)
(-0.238683427655 0.0068940104704 0)
(-0.0516443230507 0.00150893923998 0)
(-0.0958466165287 0.00268118964535 0)
(-0.270449352448 0.00781152125144 0)
(-0.944025116172 0.0272667402976 0)
(-0.385647266583 0.0107270825952 0)
(-0.38506528235 0.0107108942452 0)
(-0.505299984852 0.0145948272173 0)
(-0.20621730753 0.00573609690022 0)
(-0.505287582402 0.0145944689913 0)
(-0.0603432381324 0.00174292333402 0)
(-0.00886970517457 0.000212741794674 0)
(-0.0188613804987 0.000527623612828 0)
(-0.0188505615568 0.000527320966411 0)
(-0.0243955223219 0.000712786202563 0)
(-0.0243947732101 0.000712764315079 0)
(-0.0452379298464 0.00126547470818 0)
(-0.127746659363 0.00368976939816 0)
(-0.0994854860896 0.00287348807369 0)
(-0.181668560591 0.00505325416066 0)
(-0.039876292301 0.00111548957996 0)
(-0.0516416359558 0.00150886072867 0)
(-0.095742337155 0.00267827255984 0)
(-0.238662542008 0.00689340722003 0)
(0 0 0)
(0 0 0)
(0 0 0)
(0 0 0)
(0 0 0)
(0 0 0)
(0 0 0)
(0 0 0)
(0 0 0)
(0 0 0)
(0 0 0)
(0 0 0)
(0 0 0)
(0 0 0)
(0 0 0)
(0 0 0)
(0 0 0)
(0 0 0)
(0 0 0)
(0 0 0)
(0 0 0)
(0 0 0)
(0 0 0)
(-0.00485552456453 0.000100334709621 0)
(0 0 0)
(-0.00782717002436 0.000187736363885 0)
(0 0 0)
(0 0 0)
(0 0 0)
(-0.03548922093 0.00103692090232 0)
(-0.0132891529941 0.000321052911651 0)
(-0.00804680805222 0.000194402995873 0)
(-0.0189978777532 0.000555078303377 0)
(0 0 0)
(-0.0100486307833 0.000241018580074 0)
(0 0 0)
(0 0 0)
(0 0 0)
(0 0 0)
(0 0 0)
(0 0 0)
(0 0 0)
(0 0 0)
(0 0 0)
(0 0 0)
(0 0 0)
(0 0 0)
(0 0 0)
(0 0 0)
(0 0 0)
(0 0 0)
(0 0 0)
(0 0 0)
(0 0 0)
(0 0 0)
(0 0 0)
(0 0 0)
(0 0 0)
(0 0 0)
(0 0 0)
(0 0 0)
(0 0 0)
(0 0 0)
(0 0 0)
(0 0 0)
(0 0 0)
(0 0 0)
(0 0 0)
(0 0 0)
(0 0 0)
(0 0 0)
(-0.0150602040956 0.000273508039884 0)
(0 0 0)
(0 0 0)
(0 0 0)
(0 0 0)
(0 0 0)
(0 0 0)
(0 0 0)
(-0.00336038428474 6.10278660995e-05 0)
(0 0 0)
(0 0 0)
(0 0 0)
(0 0 0)
(0 0 0)
(0 0 0)
(0 0 0)
(0 0 0)
(0 0 0)
(0 0 0)
(0 0 0)
(0 0 0)
(0 0 0)
(0 0 0)
(0 0 0)
(0 0 0)
(0 0 0)
(0 0 0)
(0 0 0)
(0 0 0)
(0 0 0)
(0 0 0)
(0 0 0)
(0 0 0)
(0 0 0)
(0 0 0)
(0 0 0)
(-0.322291508197 0.0081636446719 0)
(-0.0077311854685 0.000140405891584 0)
(0 0 0)
(0 0 0)
(0 0 0)
(0 0 0)
(0 0 0)
(0 0 0)
(-0.070776580667 0.00181432337775 0)
(0 0 0)
(0 0 0)
(0 0 0)
(0 0 0)
(0 0 0)
(0 0 0)
(0 0 0)
(0 0 0)
(0 0 0)
(0 0 0)
(0 0 0)
(0 0 0)
(0 0 0)
(0 0 0)
(0 0 0)
(0 0 0)
(0 0 0)
(0 0 0)
(0 0 0)
(0 0 0)
(0 0 0)
(0 0 0)
(0 0 0)
(0 0 0)
(0 0 0)
(0 0 0)
(0 0 0)
(-1.51239624272 0.0505849996078 0)
(-0.0432297356043 0.00142540342193 0)
(0 0 0)
(0 0 0)
(0 0 0)
(0 0 0)
(0 0 0)
(0 0 0)
(-0.331734296835 0.0109696378356 0)
(-0.0065698483163 0.000240915988857 0)
(0 0 0)
(0 0 0)
(0 0 0)
(0 0 0)
(0 0 0)
(0 0 0)
(0 0 0)
(0 0 0)
(0 0 0)
(0 0 0)
(0 0 0)
(0 0 0)
(0 0 0)
(0 0 0)
(0 0 0)
(0 0 0)
(0 0 0)
(0 0 0)
(0 0 0)
(0 0 0)
(0 0 0)
(0 0 0)
(0 0 0)
(0 0 0)
(0 0 0)
(0 0 0)
(0 0 0)
(0 0 0)
(0 0 0)
(0 0 0)
(0 0 0)
(0 0 0)
(0 0 0)
(-2.53752025932 0.0786593822632 0)
(-0.0766042310209 0.00237461808185 0)
(0 0 0)
(0 0 0)
(0 0 0)
(0 0 0)
(0 0 0)
(0 0 0)
(-2.53751004625 0.0786590656733 0)
(-0.566185189307 0.0175509050909 0)
(-0.0158609974423 0.000507537222074 0)
(0 0 0)
(0 0 0)
(0 0 0)
(0 0 0)
(0 0 0)
(0 0 0)
(-0.0464757665424 0.00144068015733 0)
(-0.076625142605 0.00237526631009 0)
(-0.0158611291871 0.000507541437786 0)
(0 0 0)
(0 0 0)
(0 0 0)
(0 0 0)
(0 0 0)
(0 0 0)
(0 0 0)
(0 0 0)
(0 0 0)
(0 0 0)
(0 0 0)
(0 0 0)
(0 0 0)
(0 0 0)
(0 0 0)
(0 0 0)
(0 0 0)
(0 0 0)
(0 0 0)
(0 0 0)
(0 0 0)
(0 0 0)
(0 0 0)
(0 0 0)
(0 0 0)
(0 0 0)
(-0.0670678519688 0.00180712490627 0)
(-0.0021466637102 5.79530868384e-05 0)
(0 0 0)
(0 0 0)
(0 0 0)
(0 0 0)
(0 0 0)
(0 0 0)
(-0.0422251616388 0.00113774541794 0)
(-0.0672603712355 0.0018123122852 0)
(-0.0151774263014 0.000409742196808 0)
(-0.000374053181335 8.40840083958e-06 0)
(0 0 0)
(0 0 0)
(0 0 0)
(0 0 0)
(0 0 0)
(0 0 0)
(-0.00120230184087 2.97572404224e-05 0)
(-0.00216113288588 5.83437085228e-05 0)
(-0.000385664636463 8.66941658258e-06 0)
(0 0 0)
(0 0 0)
(0 0 0)
(0 0 0)
(0 0 0)
(0 0 0)
(0 0 0)
(0 0 0)
(0 0 0)
(0 0 0)
(0 0 0)
(0 0 0)
(0 0 0)
(0 0 0)
(0 0 0)
(0 0 0)
(0 0 0)
(0 0 0)
(0 0 0)
(0 0 0)
(0 0 0)
(0 0 0)
(0 0 0)
(0 0 0)
(0 0 0)
(0 0 0)
(-0.000183679845524 5.20356600484e-06 0)
(-0.000183561265605 5.20020668997e-06 0)
(-2.36221969862e-05 6.59930060634e-07 0)
(0 0 0)
(0 0 0)
(0 0 0)
(0 0 0)
(0 0 0)
(0 0 0)
(0 0 0)
(-2.40383884137e-05 6.71557143169e-07 0)
(-2.38911895528e-05 6.67444868885e-07 0)
(-2.36296562079e-06 8.39890629976e-08 0)
(0 0 0)
(0 0 0)
(0 0 0)
(0 0 0)
(0 0 0)
(0 0 0)
(0 0 0)
(0 0 0)
(0 0 0)
(0 0 0)
(0 0 0)
(0 0 0)
(0 0 0)
(0 0 0)
(0 0 0)
(0 0 0)
(0 0 0)
(0 0 0)
(0 0 0)
(0 0 0)
(0 0 0)
(0 0 0)
(0 0 0)
(0 0 0)
(0 0 0)
(0 0 0)
(0 0 0)
(0 0 0)
(0 0 0)
(0 0 0)
(0 0 0)
(0 0 0)
(0 0 0)
(0 0 0)
(0 0 0)
(0 0 0)
(-0.00336031720939 6.10266479456e-05 0)
(-0.00913444449411 0.000165890448307 0)
(-0.00203816948174 3.70151517447e-05 0)
(-0.0868074972121 0.00190715887572 0)
(-0.0177881922921 0.000323050974344 0)
(-0.0526521217832 0.00115676600074 0)
(-0.0107902666866 0.000195961799227 0)
(0 0 0)
(0 0 0)
(0 0 0)
(-0.00240743463725 4.37213682235e-05 0)
(0 0 0)
(0 0 0)
(0 0 0)
(0 0 0)
(0 0 0)
(0 0 0)
(-0.0177914135625 0.000323109475766 0)
(-0.00396980595448 7.20955598237e-05 0)
(-0.00396980548099 7.20955512246e-05 0)
(0 0 0)
(0 0 0)
(0 0 0)
(0 0 0)
(0 0 0)
(0 0 0)
(0 0 0)
(0 0 0)
(-0.0707590266283 0.00181387338847 0)
(-0.195487313334 0.00495169411336 0)
(-0.0429198238991 0.00110022890531 0)
(-0.802567358858 0.0237317526351 0)
(-0.177074539032 0.00522437992481 0)
(-0.486773341621 0.0143937881415 0)
(-0.107398195008 0.00316865980295 0)
(0 0 0)
(-0.00468894316139 8.51557950384e-05 0)
(0 0 0)
(-0.0228271348179 0.000699791948504 0)
(0 0 0)
(-0.0122062066837 0.000365351154474 0)
(0 0 0)
(-0.0149496551579 0.000374459557953 0)
(-0.0149506402487 0.000374484232546 0)
(-0.00284447583301 5.16584638991e-05 0)
(-0.177122643012 0.00522579917721 0)
(-0.0376373284959 0.00115381538922 0)
(-0.0376430554684 0.00115399095611 0)
(-0.00740480220036 0.0002216374917 0)
(0 0 0)
(0 0 0)
(0 0 0)
(-0.00335953446844 6.1012432604e-05 0)
(0 0 0)
(0 0 0)
(0 0 0)
(-0.331633607301 0.0109663082801 0)
(-0.901742576078 0.0298184106222 0)
(-0.201140597706 0.0066512251881 0)
(-2.21405625596 0.0745885725796 0)
(-0.488161065924 0.0163210672967 0)
(-1.32744823282 0.0443816056895 0)
(-0.296101167229 0.00989977983565 0)
(0 0 0)
(-0.0262197324005 0.000864536776905 0)
(0 0 0)
(-0.0660641729596 0.00220877470172 0)
(0 0 0)
(-0.040069938659 0.00133968931789 0)
(0 0 0)
(-0.0740004835241 0.00244701410635 0)
(-0.0740208125598 0.0024476863376 0)
(-0.0140282346072 0.000512441034086 0)
(-0.488344442681 0.016327198274 0)
(-0.108955148242 0.00364278192365 0)
(-0.108966936451 0.003643176048 0)
(-0.0243137724317 0.000812901199615 0)
(0 0 0)
(0 0 0)
(0 0 0)
(-0.013343896428 0.000443180903983 0)
(0 0 0)
(0 0 0)
(0 0 0)
(-7.08786354213 0.224345759462 0)
(-4.20941169338 0.131112448551 0)
(-4.06909429825 0.113185064195 0)
(-1.92668516398 0.0535922659897 0)
(-0.56612590454 0.0175490673506 0)
(-1.53905511859 0.0477084367909 0)
(-0.343382229485 0.0106443422283 0)
(-2.4688806284 0.0686738600615 0)
(-0.260729498331 0.00725239644086 0)
(-1.16685886799 0.0324570988528 0)
(-0.122981357564 0.00342082336521 0)
(0 0 0)
(-0.0464694848368 0.00144048543373 0)
(0 0 0)
(-0.0942554275319 0.00263667811624 0)
(0 0 0)
(-0.0444901390771 0.00124455619336 0)
(0 0 0)
(0 0 0)
(0 0 0)
(0 0 0)
(0 0 0)
(0 0 0)
(0 0 0)
(0 0 0)
(0 0 0)
(0 0 0)
(0 0 0)
(0 0 0)
(0 0 0)
(0 0 0)
(0 0 0)
(0 0 0)
(0 0 0)
(0 0 0)
(0 0 0)
(0 0 0)
(0 0 0)
(0 0 0)
(0 0 0)
(0 0 0)
(0 0 0)
(0 0 0)
(0 0 0)
(0 0 0)
(0 0 0)
(0 0 0)
(0 0 0)
(0 0 0)
(0 0 0)
(0 0 0)
(0 0 0)
(0 0 0)
(0 0 0)
(0 0 0)
(0 0 0)
(0 0 0)
(0 0 0)
(0 0 0)
(0 0 0)
(-0.343416524522 0.0106454053238 0)
(-0.566194136552 0.0175511824422 0)
(-1.18700542699 0.0330174912663 0)
(-2.49848263951 0.0694972633258 0)
(-0.124525197991 0.00346376650318 0)
(-0.262238619296 0.00729437382964 0)
(-1.5390651235 0.0477087469282 0)
(-0.566190253222 0.0175510620648 0)
(-0.343409755121 0.0106451954824 0)
(-2.49153274326 0.0693039464856 0)
(-1.16881128389 0.0325114068395 0)
(-0.261384611201 0.00727061892153 0)
(-0.122345135507 0.00340312634737 0)
(-0.12633230474 0.00391611496075 0)
(-0.126333231263 0.0039161436816 0)
(-0.0281888105454 0.000873811515826 0)
(-0.707748027328 0.0196865690583 0)
(-0.0733492032224 0.00205185254626 0)
(-0.0728858707761 0.00203889139852 0)
(-0.00537781988365 0.000111127436232 0)
(0 0 0)
(0 0 0)
(0 0 0)
(-0.0269847034508 0.000754863448451 0)
(0 0 0)
(0 0 0)
(0 0 0)
(0 0 0)
(0 0 0)
(0 0 0)
(0 0 0)
(0 0 0)
(0 0 0)
(0 0 0)
(0 0 0)
(0 0 0)
(0 0 0)
(0 0 0)
(0 0 0)
(0 0 0)
(0 0 0)
(0 0 0)
(0 0 0)
(0 0 0)
(0 0 0)
(0 0 0)
(0 0 0)
(0 0 0)
(0 0 0)
(0 0 0)
(0 0 0)
(0 0 0)
(0 0 0)
(0 0 0)
(0 0 0)
(0 0 0)
(0 0 0)
(0 0 0)
(0 0 0)
(0 0 0)
(0 0 0)
(0 0 0)
(0 0 0)
(0 0 0)
(0 0 0)
(0 0 0)
(0 0 0)
(0 0 0)
(0 0 0)
(-0.0766254645728 0.00237527629062 0)
(0 0 0)
(0 0 0)
(-0.045042649126 0.0012600119734 0)
(-0.0948604347747 0.00265360243985 0)
(0 0 0)
(0 0 0)
(-0.0464753628449 0.00144066764331 0)
(0 0 0)
(0 0 0)
(-0.094513519536 0.0026438979184 0)
(-0.0441526163609 0.00123511441603 0)
(0 0 0)
(0 0 0)
(0 0 0)
(0 0 0)
(0 0 0)
(-0.0267331045033 0.000747825281459 0)
(0 0 0)
(0 0 0)
(0 0 0)
(0 0 0)
(0 0 0)
(0 0 0)
(0 0 0)
(0 0 0)
(0 0 0)
(0 0 0)
(0 0 0)
(0 0 0)
(0 0 0)
(0 0 0)
(0 0 0)
(0 0 0)
(0 0 0)
(0 0 0)
(0 0 0)
(0 0 0)
(0 0 0)
(0 0 0)
(0 0 0)
(0 0 0)
(0 0 0)
(0 0 0)
(0 0 0)
(0 0 0)
(0 0 0)
(0 0 0)
(0 0 0)
(0 0 0)
(0 0 0)
(0 0 0)
(0 0 0)
(0 0 0)
(0 0 0)
(0 0 0)
(0 0 0)
(0 0 0)
(0 0 0)
(0 0 0)
(0 0 0)
(0 0 0)
(0 0 0)
(0 0 0)
(0 0 0)
(0 0 0)
(0 0 0)
(0 0 0)
(0 0 0)
(0 0 0)
(0 0 0)
(0 0 0)
(0 0 0)
(0 0 0)
(0 0 0)
(0 0 0)
(0 0 0)
(0 0 0)
(0 0 0)
(0 0 0)
(0 0 0)
(0 0 0)
(0 0 0)
(0 0 0)
(0 0 0)
(0 0 0)
(0 0 0)
(0 0 0)
(0 0 0)
(0 0 0)
(0 0 0)
(0 0 0)
(0 0 0)
(0 0 0)
(0 0 0)
(0 0 0)
(0 0 0)
(0 0 0)
(0 0 0)
(0 0 0)
(0 0 0)
(0 0 0)
(0 0 0)
(0 0 0)
(0 0 0)
(0 0 0)
(0 0 0)
(0 0 0)
(0 0 0)
(0 0 0)
(0 0 0)
(0 0 0)
(0 0 0)
(0 0 0)
(0 0 0)
(0 0 0)
(0 0 0)
(0 0 0)
(0 0 0)
(0 0 0)
(0 0 0)
(0 0 0)
(0 0 0)
(0 0 0)
(0 0 0)
(0 0 0)
(0 0 0)
(0 0 0)
(0 0 0)
(0 0 0)
(0 0 0)
(0 0 0)
(0 0 0)
(0 0 0)
(0 0 0)
(0 0 0)
(0 0 0)
(0 0 0)
(0 0 0)
(0 0 0)
(0 0 0)
(0 0 0)
(0 0 0)
(0 0 0)
(0 0 0)
(0 0 0)
(0 0 0)
(0 0 0)
(0 0 0)
(0 0 0)
(0 0 0)
(0 0 0)
(0 0 0)
(0 0 0)
(0 0 0)
(0 0 0)
(0 0 0)
(0 0 0)
(0 0 0)
(0 0 0)
(0 0 0)
(0 0 0)
(0 0 0)
(0 0 0)
(0 0 0)
(0 0 0)
(0 0 0)
(0 0 0)
(0 0 0)
(0 0 0)
(0 0 0)
(0 0 0)
(0 0 0)
(0 0 0)
(0 0 0)
(0 0 0)
(0 0 0)
(0 0 0)
(0 0 0)
(0 0 0)
(0 0 0)
(0 0 0)
(0 0 0)
(0 0 0)
(0 0 0)
(0 0 0)
(0 0 0)
(0 0 0)
(0 0 0)
(0 0 0)
(0 0 0)
(-0.0015611718959 4.21673131977e-05 0)
(-0.0026480761921 7.15246402122e-05 0)
(-0.000938434961129 2.5358971182e-05 0)
(-0.00149923099483 4.04942870678e-05 0)
(-0.178595016067 0.00481219380369 0)
(-0.108830370463 0.00293240453136 0)
(-0.00257603108086 6.95786989753e-05 0)
(-0.00145103093205 3.91924015107e-05 0)
(-0.00146584028594 3.95924027311e-05 0)
(-0.000882887314191 2.38579282368e-05 0)
(-0.0152702607304 0.000412248430876 0)
(-0.0409038033137 0.0011021417797 0)
(-0.0092752563631 0.000250402396474 0)
(-0.000534231482358 1.44363342445e-05 0)
(-0.000120272367009 3.25007444875e-06 0)
(-0.000328866153083 8.88682502699e-06 0)
(-7.3471959574e-05 1.98540483112e-06 0)
(0 0 0)
(-0.00122148928168 3.02321338891e-05 0)
(0 0 0)
(-1.52193765117e-05 3.77729809118e-07 0)
(0 0 0)
(-9.00425735858e-06 2.23476724602e-07 0)
(0 0 0)
(0 0 0)
(0 0 0)
(0 0 0)
(0 0 0)
(0 0 0)
(0 0 0)
(0 0 0)
(0 0 0)
(0 0 0)
(0 0 0)
(0 0 0)
(0 0 0)
(0 0 0)
(0 0 0)
(0 0 0)
(0 0 0)
(0 0 0)
(0 0 0)
(0 0 0)
(0 0 0)
(0 0 0)
(0 0 0)
(0 0 0)
(0 0 0)
(0 0 0)
(0 0 0)
(0 0 0)
(0 0 0)
(0 0 0)
(0 0 0)
(0 0 0)
(0 0 0)
(0 0 0)
(0 0 0)
(0 0 0)
(0 0 0)
(0 0 0)
(0 0 0)
(0 0 0)
(0 0 0)
(0 0 0)
(0 0 0)
(-0.0677685327164 0.00182600455715 0)
(-0.00937245608366 0.000253026479519 0)
(-0.0153626932742 0.000414743815325 0)
(-0.000373039656629 1.00805088195e-05 0)
(-0.000638217490801 1.72463086175e-05 0)
(-8.73296196368e-05 2.35987511062e-06 0)
(-0.000151881565544 4.10423780363e-06 0)
(-0.0408474889987 0.0011006244059 0)
(-0.0154875198579 0.000418113735732 0)
(-0.00946648896586 0.00025556506801 0)
(-0.000618784626168 1.67211817045e-05 0)
(-0.000359868471948 9.72458890326e-06 0)
(-0.00012755977111 3.44699919924e-06 0)
(-7.88622929293e-05 2.1310657601e-06 0)
(-0.0034435718411 9.29654780078e-05 0)
(-0.00351147931988 9.47987637694e-05 0)
(-0.000741928797986 1.83629042787e-05 0)
(-0.000122535843779 3.31123952096e-06 0)
(-2.6211275905e-05 6.81660359616e-07 0)
(-2.69871028157e-05 7.01836807833e-07 0)
(-3.3588519501e-06 1.19386767862e-07 0)
(0 0 0)
(0 0 0)
(0 0 0)
(0 0 0)
(0 0 0)
(0 0 0)
(0 0 0)
(0 0 0)
(0 0 0)
(0 0 0)
(0 0 0)
(0 0 0)
(0 0 0)
(0 0 0)
(0 0 0)
(0 0 0)
(0 0 0)
(0 0 0)
(0 0 0)
(0 0 0)
(0 0 0)
(0 0 0)
(0 0 0)
(0 0 0)
(0 0 0)
(0 0 0)
(0 0 0)
(0 0 0)
(0 0 0)
(0 0 0)
(0 0 0)
(0 0 0)
(0 0 0)
(0 0 0)
(0 0 0)
(0 0 0)
(0 0 0)
(0 0 0)
(0 0 0)
(0 0 0)
(0 0 0)
(0 0 0)
(0 0 0)
(0 0 0)
(0 0 0)
(0 0 0)
(0 0 0)
(0 0 0)
(0 0 0)
(-0.00211499858613 5.7098229286e-05 0)
(0 0 0)
(0 0 0)
(-1.02068107002e-05 2.53322904164e-07 0)
(-1.77088524155e-05 4.39516128502e-07 0)
(0 0 0)
(0 0 0)
(-0.00124915614029 3.09168948497e-05 0)
(0 0 0)
(0 0 0)
(-1.49339850064e-05 3.70646675409e-07 0)
(-9.66075734933e-06 2.39770402335e-07 0)
(0 0 0)
(0 0 0)
(0 0 0)
(0 0 0)
(0 0 0)
(0 0 0)
(0 0 0)
(0 0 0)
(0 0 0)
(0 0 0)
(0 0 0)
(0 0 0)
(0 0 0)
(0 0 0)
(0 0 0)
(0 0 0)
(0 0 0)
(0 0 0)
(0 0 0)
(0 0 0)
(0 0 0)
(0 0 0)
(0 0 0)
(0 0 0)
(0 0 0)
(0 0 0)
(0 0 0)
(0 0 0)
(0 0 0)
(0 0 0)
(0 0 0)
(0 0 0)
(0 0 0)
(0 0 0)
(0 0 0)
(0 0 0)
(0 0 0)
(0 0 0)
(0 0 0)
(0 0 0)
(0 0 0)
(0 0 0)
(0 0 0)
(0 0 0)
(0 0 0)
(0 0 0)
(0 0 0)
(0 0 0)
(0 0 0)
(0 0 0)
(0 0 0)
(0 0 0)
(0 0 0)
(0 0 0)
(0 0 0)
(0 0 0)
(0 0 0)
(0 0 0)
(0 0 0)
(0 0 0)
(0 0 0)
(0 0 0)
(0 0 0)
(0 0 0)
(0 0 0)
(0 0 0)
(0 0 0)
(0 0 0)
(0 0 0)
(0 0 0)
(0 0 0)
(0 0 0)
(0 0 0)
(0 0 0)
(0 0 0)
(0 0 0)
(0 0 0)
(0 0 0)
(0 0 0)
(0 0 0)
(0 0 0)
(0 0 0)
(0 0 0)
(0 0 0)
(0 0 0)
(0 0 0)
(0 0 0)
(0 0 0)
(0 0 0)
(0 0 0)
(0 0 0)
(0 0 0)
(0 0 0)
(0 0 0)
(0 0 0)
(0 0 0)
(0 0 0)
(0 0 0)
(0 0 0)
(0 0 0)
(0 0 0)
(0 0 0)
(0 0 0)
(0 0 0)
(0 0 0)
(0 0 0)
(0 0 0)
(0 0 0)
(0 0 0)
(0 0 0)
(0 0 0)
(0 0 0)
(0 0 0)
(0 0 0)
(0 0 0)
(0 0 0)
(0 0 0)
(0 0 0)
(0 0 0)
(0 0 0)
(0 0 0)
(0 0 0)
(0 0 0)
(0 0 0)
(0 0 0)
(0 0 0)
(0 0 0)
(0 0 0)
(0 0 0)
(0 0 0)
(0 0 0)
(0 0 0)
(0 0 0)
(0 0 0)
(0 0 0)
(0 0 0)
(0 0 0)
(0 0 0)
(0 0 0)
(0 0 0)
(0 0 0)
(0 0 0)
(0 0 0)
(0 0 0)
(0 0 0)
(0 0 0)
(0 0 0)
(0 0 0)
(0 0 0)
(0 0 0)
(0 0 0)
(0 0 0)
(0 0 0)
(0 0 0)
(0 0 0)
(0 0 0)
(0 0 0)
(0 0 0)
(0 0 0)
(0 0 0)
(0 0 0)
(0 0 0)
(0 0 0)
(0 0 0)
(0 0 0)
(0 0 0)
(0 0 0)
(0 0 0)
(0 0 0)
(0 0 0)
(0 0 0)
(0 0 0)
(0 0 0)
(0 0 0)
(0 0 0)
(0 0 0)
(0 0 0)
(0 0 0)
(0 0 0)
(0 0 0)
(0 0 0)
(0 0 0)
(0 0 0)
(0 0 0)
(-6.99036225314 0.202345334452 0)
(-5.43110103358 0.156869154089 0)
(-5.91273326605 0.164467334801 0)
(-3.59785800974 0.100077255514 0)
(-4.79331256196 0.138447596948 0)
(-5.23496720908 0.145614737873 0)
(-7.92925690516 0.229748819425 0)
(-5.43161435183 0.156883980512 0)
(-2.5656280097 0.0741042917636 0)
(-2.79955344697 0.0778717850676 0)
(-2.80710886634 0.0780819450108 0)
(-3.73315078256 0.107826424463 0)
(-3.73295130036 0.107820662721 0)
(-4.07671444955 0.113397024708 0)
(-1.55636191199 0.0449531642075 0)
(-3.29441795726 0.0951542891535 0)
(-1.32229023228 0.0367805447246 0)
(-2.18116539778 0.0606708342135 0)
(-2.90747597044 0.0839780540257 0)
(-1.16771337912 0.0324808677533 0)
(-1.76364598612 0.0509402517546 0)
(-0.735242831352 0.0212363791966 0)
(-0.347369714418 0.0100332497812 0)
(-0.624930614731 0.01738293747 0)
(-0.230066134895 0.00639947082535 0)
(-0.30652483906 0.00885350721952 0)
(-0.551652878989 0.0153446595103 0)
(-0.833231298322 0.0240666281331 0)
(-1.2120200749 0.0350073700919 0)
(-1.55614462808 0.0449468882897 0)
(-1.69740791314 0.0472147385959 0)
(-0.624410217886 0.0173684622217 0)
(-2.2642776381 0.0654002412246 0)
(-0.832968911133 0.0240590494753 0)
(-0.908731434189 0.0252770808873 0)
(-0.572567982373 0.0165377617721 0)
(-0.164050054489 0.00473833815958 0)
(-0.179087886235 0.00498147066997 0)
(-0.294927487474 0.00820364045557 0)
(-0.238711233252 0.0068948135931 0)
(-0.39349466193 0.0113654992559 0)
(-0.429343468462 0.0119425268814 0)
(-0.0355032531024 0.00103733089309 0)
(-0.127790257701 0.00369102867033 0)
(-0.0305520148859 0.000854654539967 0)
(-0.0831732426375 0.00232666780536 0)
(-0.112770313229 0.00325720024967 0)
(-0.0269642443922 0.000754291131783 0)
(-0.0402318898651 0.00117549178167 0)
(-0.00887085624817 0.000212769403423 0)
(0 0 0)
(-0.00789291558773 0.00019068510476 0)
(0 0 0)
(0 0 0)
(-0.00538550455738 0.000111286232568 0)
(-0.0100522334704 0.000241104991303 0)
(-0.0276502784466 0.000807883377683 0)
(-0.0603568003916 0.0017433150594 0)
(-0.0647842897695 0.00181225976672 0)
(-0.0130803105897 0.000316007483846 0)
(-0.0878243089642 0.00253667257716 0)
(-0.019002837048 0.000555223203613 0)
(-0.0210107425154 0.000587749336532 0)
(-0.00502329304481 9.77327291872e-05 0)
(0 0 0)
(0 0 0)
(0 0 0)
(0 0 0)
(0 0 0)
(-0.00419934160947 8.67753247636e-05 0)
(0 0 0)
(0 0 0)
(0 0 0)
(0 0 0)
(0 0 0)
(0 0 0)
(0 0 0)
(0 0 0)
(0 0 0)
(0 0 0)
(0 0 0)
(0 0 0)
(0 0 0)
(0 0 0)
(0 0 0)
(0 0 0)
(0 0 0)
(0 0 0)
(0 0 0)
(0 0 0)
(0 0 0)
(0 0 0)
(0 0 0)
(0 0 0)
(0 0 0)
(0 0 0)
(0 0 0)
(0 0 0)
(0 0 0)
(0 0 0)
(0 0 0)
(0 0 0)
(0 0 0)
(0 0 0)
(0 0 0)
(0 0 0)
(0 0 0)
(0 0 0)
(0 0 0)
(0 0 0)
(0 0 0)
(0 0 0)
(0 0 0)
(0 0 0)
(0 0 0)
(0 0 0)
(0 0 0)
(0 0 0)
(0 0 0)
(0 0 0)
(0 0 0)
(0 0 0)
(0 0 0)
(0 0 0)
(0 0 0)
(0 0 0)
(0 0 0)
(0 0 0)
(0 0 0)
(0 0 0)
(0 0 0)
(0 0 0)
(0 0 0)
(0 0 0)
(0 0 0)
(0 0 0)
(0 0 0)
(0 0 0)
(0 0 0)
(0 0 0)
(0 0 0)
(0 0 0)
(0 0 0)
(0 0 0)
(0 0 0)
(0 0 0)
(0 0 0)
(0 0 0)
(0 0 0)
(0 0 0)
(0 0 0)
(0 0 0)
(0 0 0)
(0 0 0)
(0 0 0)
(0 0 0)
(0 0 0)
(0 0 0)
(0 0 0)
(0 0 0)
(0 0 0)
(0 0 0)
(0 0 0)
(0 0 0)
(0 0 0)
(0 0 0)
(0 0 0)
(0 0 0)
(0 0 0)
(0 0 0)
(0 0 0)
(0 0 0)
(0 0 0)
(0 0 0)
(0 0 0)
(0 0 0)
(0 0 0)
(0 0 0)
(0 0 0)
(0 0 0)
(0 0 0)
(0 0 0)
(0 0 0)
(0 0 0)
(0 0 0)
(0 0 0)
(0 0 0)
(0 0 0)
(0 0 0)
(0 0 0)
(0 0 0)
(0 0 0)
(0 0 0)
(0 0 0)
(0 0 0)
(0 0 0)
(0 0 0)
(0 0 0)
(0 0 0)
(0 0 0)
(0 0 0)
(0 0 0)
(0 0 0)
(0 0 0)
(0 0 0)
(0 0 0)
(0 0 0)
(0 0 0)
(0 0 0)
(0 0 0)
(0 0 0)
(0 0 0)
(0 0 0)
(0 0 0)
(0 0 0)
(0 0 0)
(0 0 0)
(0 0 0)
(0 0 0)
(0 0 0)
(0 0 0)
(0 0 0)
(0 0 0)
(0 0 0)
(0 0 0)
(0 0 0)
(0 0 0)
(0 0 0)
(0 0 0)
(0 0 0)
(0 0 0)
(0 0 0)
(0 0 0)
(0 0 0)
(0 0 0)
(0 0 0)
(0 0 0)
(0 0 0)
(-1.21213453611 0.0350106761312 0)
(-1.55642072759 0.0449548630074 0)
(-1.72475401975 0.0479753920991 0)
(-0.634125386264 0.0176386972853 0)
(-2.26452685103 0.0654074393638 0)
(-0.921178833426 0.0256233151051 0)
(-0.833099927006 0.0240628336709 0)
(-1.55634948632 0.0449528053108 0)
(-3.29444090664 0.0951549520119 0)
(-2.21056543235 0.0614886193412 0)
(-1.33511614125 0.0371373074888 0)
(-2.90755845696 0.0839804365245 0)
(-1.76342802335 0.050933956229 0)
(-1.18099642033 0.0328503460111 0)
(-0.572510678035 0.0165361066228 0)
(-0.164020455538 0.00473748323857 0)
(-0.299147315899 0.00832101830827 0)
(-0.180889636293 0.00503158776754 0)
(-0.238636951474 0.00689266807607 0)
(-0.434609361656 0.0120890018499 0)
(-0.393486721367 0.0113652699047 0)
(-0.735085016048 0.0212318209398 0)
(-0.347145069445 0.0100267612503 0)
(-0.630165490618 0.0175285496676 0)
(-0.231875333861 0.00644979512016 0)
(-0.832868269568 0.0240561425956 0)
(-0.306395586907 0.0088497739662 0)
(-0.557171537307 0.0154981653399 0)
(-1.55583523907 0.0449379520553 0)
(-3.29414613045 0.0951464378465 0)
(-2.19281898861 0.060994988025 0)
(-1.33151499917 0.0370371388845 0)
(-2.90681387088 0.0839589302796 0)
(-1.76320414815 0.050927489932 0)
(-1.17222940177 0.0326064844818 0)
(-1.2116275909 0.034996033784 0)
(-1.55589075407 0.0449395555224 0)
(-1.70411170508 0.047401209851 0)
(-0.624911905059 0.0173824170457 0)
(-2.26382732511 0.0653872346137 0)
(-0.832736917583 0.0240523486918 0)
(-0.910983817744 0.0253397327107 0)
(-0.734827516722 0.0212243834605 0)
(-0.347096503193 0.0100253584875 0)
(-0.62827080288 0.0174758474353 0)
(-0.230070871533 0.00639960257867 0)
(-0.832756813694 0.0240529233609 0)
(-0.306289788244 0.00884671813153 0)
(-0.553111711317 0.015385238081 0)
(-0.572273600985 0.0165292590101 0)
(-0.16394633522 0.00473534238508 0)
(-0.294367758931 0.00818807116511 0)
(-0.178557457885 0.00496671638746 0)
(-0.39331885635 0.0113604213771 0)
(-0.238537382377 0.00688979217304 0)
(-0.429419136474 0.0119446316467 0)
(-0.270360997498 0.00780896925208 0)
(-0.94369733542 0.0272572728455 0)
(-0.378445297276 0.010526754144 0)
(-0.378531906584 0.0105291632502 0)
(-0.505137776145 0.0145901420637 0)
(-0.505085838195 0.0145886419144 0)
(-0.202349596179 0.0056285134614 0)
(-0.127718180618 0.00368894683261 0)
(-0.0994835860263 0.00287343319323 0)
(-0.178776511239 0.00497280952911 0)
(-0.0391816367149 0.00109605745568 0)
(-0.238625177003 0.00689232798827 0)
(-0.0516345104972 0.00150865253766 0)
(-0.0939921385651 0.00262931293553 0)
(-0.127696964976 0.0036883340508 0)
(-0.0994414903602 0.00287221732347 0)
(-0.178266188074 0.00495861448816 0)
(-0.0389504912799 0.00108959145021 0)
(-0.238561554321 0.00689049034316 0)
(-0.0516200174657 0.00150822908155 0)
(-0.0937446801379 0.00262239059443 0)
(-0.0603229806052 0.00174233822593 0)
(-0.00886612212882 0.000212655854548 0)
(-0.0184824254824 0.000517022818533 0)
(-0.0184089863558 0.000514968450492 0)
(-0.0243876345427 0.000712555738131 0)
(-0.0243855306312 0.000712494266233 0)
(-0.0443132576184 0.001239608155 0)
(0 0 0)
(-0.0354942349422 0.00103706740128 0)
(-0.00793835888889 0.000191782970378 0)
(-0.0130638209313 0.000315609109863 0)
(-0.0100501127725 0.000241054125906 0)
(-0.0189969244796 0.000555050450713 0)
(0 0 0)
(0 0 0)
(0 0 0)
(0 0 0)
(0 0 0)
(0 0 0)
(0 0 0)
(0 0 0)
(0 0 0)
(0 0 0)
(-0.00476343919416 9.84318546824e-05 0)
(0 0 0)
(-0.007825146989 0.000187687840944 0)
(0 0 0)
(0 0 0)
(0 0 0)
(0 0 0)
(0 0 0)
(0 0 0)
(0 0 0)
(0 0 0)
(0 0 0)
(0 0 0)
(0 0 0)
(0 0 0)
(0 0 0)
(0 0 0)
(0 0 0)
(0 0 0)
(0 0 0)
(0 0 0)
(0 0 0)
(0 0 0)
(0 0 0)
(0 0 0)
(0 0 0)
(0 0 0)
(0 0 0)
(0 0 0)
(0 0 0)
(0 0 0)
(0 0 0)
(0 0 0)
(0 0 0)
(0 0 0)
(0 0 0)
(0 0 0)
(0 0 0)
(0 0 0)
(0 0 0)
(0 0 0)
(0 0 0)
(0 0 0)
(0 0 0)
(0 0 0)
(0 0 0)
(0 0 0)
(0 0 0)
(0 0 0)
(0 0 0)
(0 0 0)
(0 0 0)
(0 0 0)
(0 0 0)
(0 0 0)
(0 0 0)
(0 0 0)
(0 0 0)
(0 0 0)
(0 0 0)
(0 0 0)
(0 0 0)
(0 0 0)
(0 0 0)
(0 0 0)
(0 0 0)
(0 0 0)
(0 0 0)
(0 0 0)
(0 0 0)
(0 0 0)
(0 0 0)
(0 0 0)
(0 0 0)
(0 0 0)
(0 0 0)
(0 0 0)
(0 0 0)
(0 0 0)
(0 0 0)
(0 0 0)
(0 0 0)
(0 0 0)
(0 0 0)
(0 0 0)
(0 0 0)
(0 0 0)
(0 0 0)
(0 0 0)
(0 0 0)
(0 0 0)
(0 0 0)
(0 0 0)
(0 0 0)
(0 0 0)
(0 0 0)
(0 0 0)
(0 0 0)
(0 0 0)
(0 0 0)
(0 0 0)
(0 0 0)
(0 0 0)
(0 0 0)
(0 0 0)
(0 0 0)
(0 0 0)
(0 0 0)
(0 0 0)
(0 0 0)
(0 0 0)
(0 0 0)
(0 0 0)
(0 0 0)
(0 0 0)
(0 0 0)
(0 0 0)
(0 0 0)
(0 0 0)
(0 0 0)
(0 0 0)
(0 0 0)
(0 0 0)
(0 0 0)
(0 0 0)
(0 0 0)
(0 0 0)
(0 0 0)
(0 0 0)
(0 0 0)
(0 0 0)
(0 0 0)
(0 0 0)
(0 0 0)
(0 0 0)
(0 0 0)
(0 0 0)
(0 0 0)
(0 0 0)
(0 0 0)
(0 0 0)
(0 0 0)
(0 0 0)
(0 0 0)
(0 0 0)
(0 0 0)
(0 0 0)
(0 0 0)
(0 0 0)
(0 0 0)
(0 0 0)
(0 0 0)
(0 0 0)
(0 0 0)
(0 0 0)
(0 0 0)
(0 0 0)
(0 0 0)
(0 0 0)
(0 0 0)
(0 0 0)
(0 0 0)
(0 0 0)
(0 0 0)
(0 0 0)
(0 0 0)
(0 0 0)
(0 0 0)
(0 0 0)
(0 0 0)
(0 0 0)
(0 0 0)
(0 0 0)
(0 0 0)
(0 0 0)
(0 0 0)
(0 0 0)
(0 0 0)
(0 0 0)
(0 0 0)
(-0.0276351662622 0.000807441831222 0)
(-0.0603332867241 0.00174263590261 0)
(-0.0654300720201 0.00183032472036 0)
(-0.0132457787807 0.000320005033167 0)
(-0.0877787082776 0.00253535547017 0)
(-0.0212244555359 0.000593727691931 0)
(-0.0189950454065 0.000554995548123 0)
(-0.0354807823537 0.00103667434475 0)
(-0.127692257698 0.00368819808819 0)
(-0.0838680602363 0.00234610446175 0)
(-0.0307552502548 0.000860339796125 0)
(-0.112702256036 0.0032552345204 0)
(-0.0401990126855 0.00117453117916 0)
(-0.0272014993706 0.000760928044117 0)
(-0.00502106818697 9.7689442557e-05 0)
(0 0 0)
(0 0 0)
(0 0 0)
(0 0 0)
(-0.00425280300071 8.78800526041e-05 0)
(0 0 0)
(-0.00886635777718 0.000212661506625 0)
(0 0 0)
(-0.00797017706731 0.000192551666383 0)
(0 0 0)
(-0.010045356005 0.000240940033809 0)
(0 0 0)
(-0.00544899369073 0.000112598173981 0)
(-0.0354673071519 0.0010362806275 0)
(-0.127678341796 0.00368779614836 0)
(-0.0831260160955 0.00232534670171 0)
(-0.0306340571564 0.000856949570237 0)
(-0.112667622403 0.00325423418019 0)
(-0.0401927014821 0.00117434677898 0)
(-0.0269248516496 0.000753189168904 0)
(-0.0276215417574 0.000807043751651 0)
(-0.0603063448808 0.00174185772814 0)
(-0.0644696106988 0.0018034570119 0)
(-0.0129548106429 0.000312975528134 0)
(-0.0877428578498 0.00253431998469 0)
(-0.0189844698679 0.000554686552977 0)
(-0.0208759354732 0.000583978277533 0)
(-0.00886215568654 0.000212560718573 0)
(0 0 0)
(-0.00793725041885 0.000191756190828 0)
(0 0 0)
(-0.0100435604414 0.000240896966829 0)
(0 0 0)
(-0.00539079660504 0.000111395587604 0)
(-0.00501793602416 9.76285034844e-05 0)
(0 0 0)
(0 0 0)
(0 0 0)
(0 0 0)
(0 0 0)
(-0.00418107113653 8.63977831463e-05 0)
(0 0 0)