/*--------------------------------*- C++ -*----------------------------------*\
| =========                 |                                                 |
| \\      /  F ield         | OpenFOAM: The Open Source CFD Toolbox           |
|  \\    /   O peration     | Version:  v1906                                 |
|   \\  /    A nd           | Web:      www.OpenFOAM.com                      |
|    \\/     M anipulation  |                                                 |
\*---------------------------------------------------------------------------*/
FoamFile
{
    version     2.0;
    format      ascii;
    class       volScalarField;
    location    "12";
    object      p;
}
// * * * * * * * * * * * * * * * * * * * * * * * * * * * * * * * * * * * * * //

dimensions      [1 -1 -2 0 0 0 0];


internalField   nonuniform List<scalar> 
28582
(
17096.3641093
17095.0340985
12197.8764508
12196.7806022
7298.18295229
7297.97007886
3622.89316657
3622.96940214
53.2339446091
53.8089234581
-27.0814155501
3622.30076121
648.752206692
650.075533963
3623.9774897
3624.57134183
651.278803379
1789.64765868
1790.20749703
17098.3364142
17094.3956857
17094.4055754
12200.0401673
12196.4656687
12196.6035648
7300.94795503
7297.96700107
3627.26955366
3624.81622325
54.715789335
-27.0899621316
-27.0186485461
3625.25580446
3624.63622388
651.329767128
651.091127229
1786.21636222
3625.27268309
3625.70627396
3626.45737396
1790.39887256
656.676014189
1791.18878818
1793.35155628
52.8971427215
52.2656685608
-22.9411949534
-22.8781423953
53.027256576
-22.9003112656
1784.8071564
1784.9758157
648.640541341
648.263741319
1784.67347128
647.866182692
1785.17083594
1785.33456937
1786.29032823
649.165984401
649.111209581
1785.84004905
648.184590955
1785.66671846
1787.67805894
1786.82697304
652.301655495
650.305405978
1786.66678573
651.521155411
1787.62384574
1789.17562253
654.292540698
654.068737235
1788.71661847
653.350012307
652.852923657
1788.436924
1790.59667077
653.683138393
653.10910269
1789.02810097
651.351619228
1789.19819224
652.139108863
53.6613459149
-22.8082780068
51.8748506781
53.1937282146
-22.8362043808
-22.8093355421
53.7454559057
-22.9642927633
-22.9134681913
55.3002104969
-22.9891569784
55.8074172651
-22.9376345393
1788.69022856
1790.63467725
651.208034684
651.243431146
1789.36304243
1790.20416158
651.015575356
1787.43378519
1787.29256706
651.189048226
650.682512453
1788.23973474
1786.48999392
650.886121254
650.221902162
649.802417447
1785.36422377
1786.7342716
650.351563851
1785.82937566
650.629299367
1789.64824635
655.028792931
655.106555184
1790.87710063
655.568482394
1789.95329147
655.917708714
1791.11746268
1790.15042745
656.126120285
657.318925675
1790.0971666
1791.18837356
656.664012708
1792.78964361
1791.84746864
655.034825128
654.831600746
656.308669075
1791.85545397
656.180575256
657.754470573
658.709465373
1793.47957351
1792.23061788
658.018131509
1792.3228518
657.225409368
7297.96699708
3625.25076155
56.9520906811
-27.0368131159
3623.23978696
649.278086691
3626.58746798
3625.98023946
657.262151092
659.424319936
659.732449956
3624.94319216
3623.89951204
659.58497859
659.602040835
54.327218615
56.8813257209
58.4493071664
-22.9389507705
-22.967806325
-22.9764354596
59.4133731975
60.0061551256
1785.73548358
1785.04737862
649.940876286
649.325625162
1785.44228762
650.065100205
1785.4229543
1790.87911471
1790.10729882
657.705020462
657.813254232
1789.95079802
1791.14896246
658.190086816
1791.82126928
1793.20987633
658.535687075
659.729403559
1792.21270063
658.872597872
1792.85293576
1791.18275715
1791.079873
659.150857868
659.813454739
1790.41346217
659.08881929
1792.16306625
1788.79724809
1790.03952458
659.131859903
659.564936351
1789.59719222
659.104278586
1789.21616936
1788.07573382
1787.93474679
658.904879539
659.599601708
1787.40669997
659.021384361
1788.54466879
3647.82132728
3644.47434405
3646.56458006
3644.19488872
44.0985232435
47.0679450596
41.9838164462
43.8914575409
42.5738668203
-27.1530678598
-27.1052465703
-27.0734523948
-27.1006415342
-27.0533289355
-27.0520697249
3642.95635533
3643.00592594
652.48191875
650.415536697
3649.8219465
655.486492285
3642.50423601
3642.00420615
649.656455589
648.687013437
3651.43732395
3646.02671015
3648.64946941
654.385064576
664.037199761
652.30778368
657.98255572
3648.9531447
3647.39982741
664.285621531
659.971380857
658.54913033
656.155451428
3646.33309682
3644.94244656
651.828675873
656.540520562
653.865258002
3645.36976071
3645.08136017
3643.92544488
656.9315651
655.214669409
654.18600859
653.975312754
653.723535
653.822948754
43.8840982354
41.5703251308
46.1448779521
-23.1746207501
-23.1304049657
-23.1549002391
-23.1281669384
-23.1252775654
-23.0484208251
-23.1549798803
-23.0748824467
39.7564031299
38.9208954584
47.1154105371
42.705113449
44.7609895605
-23.1452235419
-23.1357210296
-23.1442679371
-23.1442106876
45.4996647134
45.2922454984
44.4941703675
-23.1599861737
-23.0902881256
-23.1599999058
-23.0998676004
43.4731758581
42.5499869784
-23.1270762073
-23.1416812283
-23.1386558621
43.7027011487
43.0406087174
43.3457640316
-23.1550751827
-23.106571798
-23.1534793106
-23.1165074303
1802.39688708
1807.58717415
647.130715496
652.024039512
1807.6790072
646.571128017
1802.11152833
1802.79506959
1807.8724927
651.135499212
645.135679115
1807.75036028
1803.27308165
645.694339471
1817.16454369
1812.37143225
656.324254479
659.977587978
1812.61587111
1816.58714868
661.062989496
1803.99042494
1807.86059224
644.615695163
649.213002911
1803.60579533
1807.96000568
644.47180464
1804.30222828
1807.91040419
648.898640365
644.524491666
1807.97011365
1804.53035246
644.451166346
1814.79731542
1811.92648673
658.622441625
653.54667005
1815.77953077
1811.52359875
657.327185354
1817.20302512
1820.33513509
662.115104745
662.012199624
1818.53174966
1818.68702198
660.381455047
1813.80495972
1810.66979594
652.845976739
655.022408982
1811.06529062
1812.9136608
656.109909412
1815.79915158
1815.36518379
659.805154612
656.856660629
1816.94979545
1814.51996021
658.427982324
1818.34907107
1820.85448157
663.539255272
662.347799682
1820.35232114
1818.94061786
661.744421957
1816.99139392
1816.76208235
662.035408528
658.71260743
1818.93493794
660.457232393
1815.02870597
1816.40653366
1815.32421213
660.326111881
658.290717295
1817.08969426
1814.66798874
659.94644315
1815.14614348
1812.03897703
657.377810979
657.389823346
1813.56114038
658.87493986
1813.37054481
1811.41714081
1810.15882057
654.189174348
651.433474957
1812.06612576
1809.80295265
653.402425674
1812.49235646
1813.97232083
655.686146344
655.361797312
1813.38194931
1812.90426376
654.63669132
1811.77746178
1811.3610141
654.550022001
653.281240726
1812.04699973
1811.14165656
653.937383115
1812.25531849
1813.84675848
656.73487765
655.713887871
1813.28336868
1812.76046058
655.578869134
1811.37948681
1810.9899818
656.094853122
654.502784396
1812.33774649
655.108845811
1810.14189023
1811.40492135
1811.24335793
654.870237451
654.232148724
1811.8845221
1810.81147346
654.827935402
1810.58585821
1808.83763397
654.184694121
654.161432566
1810.00147566
654.608633852
1809.42737199
1809.80138582
1810.80019756
653.885708681
653.472361573
1810.26896212
1810.36931078
653.718596916
1808.18050553
653.944566247
1809.3740085
17095.9614314
17094.4357357
17093.8429733
17094.8432269
17095.6558629
17105.9425753
12197.6099286
12196.300719
12195.8953682
12196.6433765
12196.7758802
12207.6300321
18314.9681405
18317.1112442
17088.5740461
17092.4845428
17095.8110457
17098.5126523
17103.7087844
17081.9384127
18316.3385174
18317.677645
17093.5503944
17093.9853158
17094.2310772
17093.6295606
17092.6006467
17104.4904922
17095.9556711
17093.9126639
17093.3202617
17093.4869963
17093.8389205
17093.7245583
17093.4835953
17106.1285464
17097.7866032
17095.2643312
17093.9603572
17093.7478405
17093.9952559
17093.9427198
17094.0461753
17106.9841223
17093.8950719
17094.147277
17094.8651646
17106.5715457
13415.3453338
13417.2130801
12193.7383227
12195.5575181
12199.3427796
12205.3235347
12257.4079518
12098.3168345
13418.666181
13419.6503364
12198.2598965
12198.3452675
12197.2303063
12194.969037
12191.1147421
12190.48425
12197.578943
12196.7035361
12196.6080713
12196.2604262
12195.6836353
12194.6916693
12193.4562601
12203.4036456
12199.6628994
12197.2895469
12196.3140778
12196.1792343
12196.0243913
12195.1992433
12193.9691682
12206.8532726
12195.9027869
12195.6875551
12195.5937841
12207.9771275
8516.82054043
8519.50151145
7295.96346765
7296.15242326
7297.55451482
7296.23740551
7294.97128212
7224.11029885
8521.20746772
8523.38105141
7295.97434649
7296.71264761
7296.29522806
7291.29941471
7277.92354956
7266.74577487
7300.05524877
7298.86200547
7298.02256996
7297.50339857
7296.13103495
7292.36689478
7284.72883963
7300.6892184
7305.73032437
7301.16375131
7298.58441047
7297.47962759
7296.99465169
7296.00756893
7293.55395103
7288.79536613
7304.1012912
7298.26619375
7297.3160499
7296.73790542
7296.32644631
7294.76529683
7292.33532357
7306.71141136
7296.66090155
7294.33423006
7306.84988073
3624.92473266
3628.0199522
3623.64713968
3620.55161681
3623.86578705
3626.88226737
3624.88439628
3593.0592714
3630.29819609
3627.02675582
3628.49605802
3625.49437695
3623.33982615
3625.01379798
3624.4490712
3618.30927645
3603.51982372
3642.73656177
3634.36326079
3628.48449056
3627.32487468
3626.784155
3625.75015358
3625.38086573
3622.62118345
3618.446567
3618.95165959
3634.07888281
3628.53046923
3625.61847768
3625.17810222
3625.12706473
3624.02092095
3621.863527
3620.30501319
3624.06217927
3623.9956229
3623.44131614
3623.76957249
3623.52341229
3622.3456736
3621.54511965
3624.29579411
3624.02153378
3622.54910668
3624.17583918
40.6544047829
44.9897082446
49.9296464972
55.1994545644
61.4884402487
65.4856378721
66.2520127497
65.3921096376
43.4724275915
41.219895373
41.9335174495
44.385762778
48.3803797239
51.750648884
55.1413581055
58.8377578202
60.5953412882
60.4227233489
43.7839678228
45.2543407829
46.5419581141
47.3305716472
48.6458862917
49.7953514811
52.7190283437
55.7193047864
56.8351374107
57.1512915622
48.172408893
50.4087667842
51.7367542417
52.1302521373
52.9272897785
54.1304920825
55.8881028373
56.813162527
58.3508797998
54.1694277338
54.9603892381
55.2879240001
56.0753649366
57.3328798979
58.7601593009
59.7807336112
58.8165736518
59.7351734164
59.8558303942
-27.0583553609
-27.1155915022
-27.1274802291
-27.1423641696
-27.2753206121
-26.9884105022
-27.0778556194
-27.0655263741
-27.1755231109
-27.5318679504
-27.1496829194
-27.1535138167
-27.1239703973
-27.1617375768
-27.0487521587
-27.2564068676
-26.9868223495
-27.1247343528
-27.1753283497
-27.4509412089
-27.2356728079
-27.1053817991
-27.1368259966
-27.1052136483
-27.0968280627
-27.0959848331
-27.197672716
-27.1050637933
-27.2094270685
-27.4824634373
-27.0997434759
-27.121810721
-27.0634578198
-27.0340024883
-27.042772265
-26.966237877
-27.1156146465
-27.2165581311
-27.5603210136
-27.0594082136
-26.9876855057
-27.265928733
-27.070884812
-27.1101573369
-27.2154342355
-27.5709961738
-27.080985264
-27.2173949035
-27.6117154385
18316.1641729
18315.0855315
18316.4022835
15865.2525018
15866.6442939
15865.8128615
15866.8468126
18317.5065307
18317.5786011
18318.2045574
15867.8286902
15864.3506465
15867.5939557
15866.5847107
18316.8700889
18318.2573014
18317.8020169
15867.2192622
15868.0500616
15869.0273129
15869.080885
18318.1574585
18317.9807767
18318.4607124
15868.753916
15868.5445991
15869.6460071
15870.2693343
13416.5443431
13416.5048465
13417.351826
10965.4704182
10967.0205839
10967.0186845
10968.2898902
13417.4054373
13417.6269058
13418.5413127
10967.6916107
10967.7211412
10968.8504726
10968.3418269
13419.2281079
13420.0593139
13420.3440159
10969.7027236
10970.5957916
10971.3166775
10971.3506714
13419.6191737
13420.7800824
13423.8997767
10970.974284
10967.4268033
10971.1769109
10973.7264319
8518.72071908
8518.9257962
8520.27113435
6069.96676557
6071.9479456
6072.0324425
6073.22518103
8519.10970714
8520.98338511
8520.89405041
6072.87082264
6072.13334265
6073.77784436
6074.68221866
8522.40579236
8522.79552181
8522.8296245
6073.75509716
6074.52839786
6074.71421101
6074.84226975
8519.32617205
8522.85113049
8524.34272822
6075.17931063
6074.01033866
6075.03990379
6076.23968175
3623.00442474
3625.92648174
640.196062085
641.705641189
3627.03790009
3626.40156784
3627.52091772
641.427986398
647.272411718
642.421728977
646.839349037
3626.38942164
3628.48820416
3627.45475723
649.128076079
649.788019371
648.493260566
649.122876724
3621.30877077
3624.21384942
3622.16345201
647.924909402
645.58063537
647.761734871
646.471303965
3621.75455404
3621.87533758
3622.87279261
646.289593056
655.644371075
647.541375762
653.714345419
3625.72932893
3624.46315369
3625.74325449
658.670410983
666.24958921
655.899649824
661.74668143
3627.24154207
3625.98178134
3625.87957275
668.488738084
670.787719811
663.40985252
664.03685345
3612.93049773
3624.00140559
3614.00630805
670.017857642
663.202142736
662.562583768
656.073711693
3580.40113778
3598.57610077
3604.43635822
665.523090762
552.040366112
655.534119932
626.928561231
3644.03731112
3638.60925096
657.260277521
648.630735725
654.55814429
651.211289228
3627.44634669
3633.26122822
3629.47080543
646.453748678
643.125585965
650.278464844
646.957899173
3627.75438564
3627.65027083
3627.52943776
643.442373033
646.720559601
646.368646455
647.177371019
3627.75853545
3628.09874078
3628.07805569
648.201417647
649.4587425
648.094770326
649.829298798
3623.73644452
3627.48039309
3626.29502429
648.199644947
646.754427131
649.582535975
648.537146748
3624.09220202
3625.65966114
3625.78129018
647.678183565
653.601956549
648.835262673
653.059102558
3625.27971774
3625.93475226
3625.43901626
655.46718986
660.262490534
654.870621729
657.413940032
3622.43678113
3623.75814627
3621.06749941
661.607258537
661.502896808
657.428695066
654.85822782
3611.54338254
3618.01263002
3614.60692367
659.883783821
654.373774063
653.811484686
652.491197539
3622.42348249
3611.9663775
3633.77487563
654.394429621
631.140165028
653.99541795
634.14867625
3638.81835695
3641.55787935
3638.22918691
654.114052258
651.976497409
653.633884217
652.79610532
3630.65276723
3634.29973808
3630.89555525
651.311413966
647.814521174
652.441274919
650.058528476
3627.45808182
3628.67444341
3627.18606442
647.15788325
648.119144043
649.894189861
650.893761363
3627.21036201
3626.43097148
3626.19753994
648.815335748
649.964570199
651.05453205
650.893722262
3626.15431756
3626.02971708
3625.89811142
649.837422114
649.502632623
650.914247396
651.857907632
3625.59812326
3625.8416819
3625.56959745
649.673420384
652.432223208
652.194481016
652.865329222
3624.48920882
3625.0282748
3623.84504572
654.112884969
656.830672974
653.53960158
654.126363205
3620.3604844
3622.12802369
3620.40094061
656.062563399
653.453740782
652.956683839
652.665752513
3617.61258011
3619.43041778
3619.90987988
652.947654213
652.941159211
653.233309303
655.315627206
3637.02725939
3622.44171534
3638.83998808
654.838581121
633.626452932
657.136770271
633.57147672
653.487910317
652.915252929
3630.8248782
3630.39373464
652.758984119
650.676239672
651.635896407
3626.76811025
3627.93658491
3626.03080115
650.592885887
651.381185912
651.361432022
651.478309946
3625.24832795
3624.78112402
3624.28690749
651.379398628
651.328003618
651.277778662
652.527707826
3625.20884692
3624.17847503
3624.1846689
651.569104319
652.6941303
653.353036307
654.329713274
3624.73701478
3624.12006252
3623.85139416
652.834872096
653.310961297
654.109754773
654.130063199
3623.02985341
3623.38786545
3622.80688464
653.474337179
653.244499181
654.320901142
654.583561898
3620.70127617
3622.05930174
3621.25525807
652.848864237
653.317174188
654.675171173
655.263191645
3621.25640164
3620.9657104
3621.80591867
653.697322827
655.870263299
655.590038573
657.088091707
3638.87299093
3624.24641207
3638.36225653
657.756616606
633.503271021
658.656595742
632.696764445
3623.44440753
3622.55324905
650.895056756
652.58690782
650.990966271
3623.68798502
3622.89290617
3623.58834392
653.594960142
654.155120997
652.074866891
654.217613299
3623.78482993
3624.08576024
3624.30516344
653.864971634
654.685166987
654.575827092
656.18733148
3623.00536418
3624.19162313
3623.72401865
655.131379679
655.568519545
656.807309793
657.544763215
3621.73224279
3623.02591652
3622.18054613
655.562088209
655.998295326
657.477507475
657.402162331
3622.16923246
3621.7974105
3622.23015614
656.234654905
657.357788971
657.457967243
657.484358675
3637.60770221
3623.92557452
3636.54159888
658.696377719
632.223908481
658.124968053
631.962768551
3624.80886833
657.996671281
3623.09399126
657.939064173
657.721626475
3622.72613858
657.659775591
657.137446178
3635.92495818
657.556621704
632.198585982
-23.0746137674
-23.0856560281
-23.0661480604
-23.0894172591
39.4946175874
39.7098083544
-23.0600141751
-23.0234918387
-23.0533970514
-23.0269943425
42.337904309
40.9768091726
42.4121309117
-23.002254339
-22.9748775822
-23.0178169091
-22.9918402055
47.6298017932
44.5179903054
46.8317884425
-22.9456217128
-22.9070864001
-22.967813023
-22.9244619499
52.5603744324
49.0170838634
51.25869378
-22.8829692875
-22.9079648762
-22.8834120657
-22.8421953873
58.6605443311
53.2295808338
55.781391275
-22.7694127656
-22.7803828611
-22.7104866504
-22.7764014943
63.7612855279
57.8988984516
60.4436166911
-22.8668546818
-22.9033656258
-22.9048286191
-22.9442984134
65.9651425083
62.2437887303
63.2508236889
-22.9116121844
-22.8969713028
-22.9374878836
-22.9253602764
66.287982472
63.6356005826
64.1090417651
-22.8737629702
-22.9066999913
-22.9213574051
-22.9547601507
69.1663326723
62.2098361518
68.4239758313
-23.0133562731
-22.8872083325
-23.0357230458
-22.9090643577
41.851314463
43.5788073091
43.2751507762
-23.0737117598
-23.0545478526
-23.0988398162
-23.0541892795
41.2107608324
43.3098657339
43.8070641592
-23.0396797721
-23.0408033868
-23.0434956453
-23.0556650109
42.9956412854
44.2271856748
44.5168785248
-23.0224135281
-22.9977921345
-23.0320524707
-23.0137907971
46.341753243
45.3370193484
46.6415104698
-22.9958604498
-22.9711389059
-23.0006980023
-22.9714620516
50.1098426185
48.1889518061
49.2195927255
-22.8803792315
-22.7444688536
-22.892330773
-22.8177749165
53.3541912423
50.1590322673
51.5815951353
-22.7927018858
-22.9054290247
-22.842472341
-22.8818964491
57.2042391806
53.5241184436
55.1073332812
-22.9459058453
-22.9858659448
-22.9218486666
-22.9862704287
60.03751787
56.6073708195
57.713053119
-22.9613733411
-22.9540949268
-22.9583962582
-22.9680331854
61.3559823461
58.3449711697
58.794727936
-22.9794137011
-23.0086186617
-23.0048336774
-23.0321042556
67.692850465
58.3887420105
65.3720165488
-23.0652966803
-22.955164359
-23.0867559431
-22.9910023015
44.303185953
44.371056531
45.571327873
-23.1092056616
-23.0590854188
-23.1191795889
-23.0416825764
46.0648698904
46.8571033671
47.9515432578
-23.0111695048
-23.0001059026
-22.9756170809
-22.9635091715
46.9380168375
48.6801599121
49.24873936
-22.984785189
-22.9710267452
-22.9514658175
-22.9350080622
47.952296635
49.5911218896
49.8429174534
-22.9619722358
-22.939251451
-22.925525721
-22.9106491738
49.2271219085
50.0730593558
50.182853887
-22.8971285756
-22.8783604755
-22.8868885378
-22.8766341662
50.8409526875
51.0024356973
51.4651629492
-22.8676060891
-22.8352437023
-22.8728163015
-22.8564623654
54.6708317101
52.6998472775
54.7500452615
-22.8860028729
-22.9682394461
-22.8467328131
-22.900675754
56.4077221972
55.6068632245
56.1897504206
-22.9406092422
-22.9790736061
-22.9225339848
-22.982482954
57.3760314878
56.4086118892
57.1644842529
-23.0227204836
-23.0504306468
-23.0322117531
-23.0596624599
63.9113897915
57.3987759351
63.6637398228
-23.1028566913
-23.0181258009
-23.1093989441
-23.0249980379
49.507462235
50.2825596051
-22.9431624518
-22.924913848
-22.8944999875
51.226608191
51.3896582748
52.4371861636
-22.8975792531
-22.870802094
-22.861851882
-22.8343922486
51.9802224023
53.2348993689
53.7285093634
-22.8496656711
-22.8433701783
-22.8190125728
-22.8289867999
52.416673137
54.0414327034
54.2196466397
-22.8320696505
-22.8121563612
-22.8213584748
-22.7806336159
53.4140348399
54.4491658699
54.8111054249
-22.8088601616
-22.7901811595
-22.7800625569
-22.7749455347
55.3140891192
55.2885871848
55.9547828376
-22.7494598096
-22.7899006631
-22.7639778431
-22.8215184085
56.4130117454
56.4546925519
57.1818970075
-22.908980172
-22.9749099385
-22.9156429298
-22.9771718698
57.8796507742
57.8063752533
59.0040784649
-23.0294062464
-23.0610828569
-23.0293020976
-23.056803949
64.2604435647
59.2030343874
64.6944156112
-23.1130435941
-23.0232374466
-23.1084029854
-23.0153794568
54.7624427087
54.7013541673
-22.7995383161
-22.8391260246
-22.8016406707
-22.8411785703
55.1043088813
54.7067222944
54.8353689881
-22.8394449282
-22.7646151894
-22.8515321177
-22.7826904452
55.5319621363
55.343280425
55.9428016864
-22.8360256452
-22.8679540685
-22.881084987
-22.9176946211
56.7446878415
56.7789155242
57.538212659
-22.8667013182
-22.9035193673
-22.9119292125
-22.9421813122
58.1309677267
58.2522192514
58.8862348483
-22.9339161332
-22.9810080492
-22.9479855928
-22.9863937141
59.8884782838
59.3308473587
60.5486740259
-23.0225900635
-23.0439739528
-23.0222055555
-23.0396762582
64.9087356485
60.0170992702
64.8958059137
-23.0962613578
-23.0023440394
-23.0924950354
-22.9956456844
58.036586045
-22.955626788
59.4050476113
-22.9587675371
-22.9885519167
-22.9659501674
-22.9894014802
60.884762666
-23.0196942488
-23.0358142144
-23.0153376376
-23.0293755582
64.6730784913
-23.0902834268
-22.9854644788
-23.0820717304
-22.9772222157
1789.08814613
1788.55846139
639.336262543
640.118512158
1789.51244747
639.351467095
1787.62251675
1790.35492441
1791.48115523
640.694109
641.63194647
1790.40077548
1791.83594131
640.209106822
1791.65157934
1789.68938075
643.347750089
641.446221284
1790.35740002
643.351788884
1791.29820635
1792.88012809
1793.88769731
645.335676414
647.059471029
1793.81510893
645.270508532
1792.85072229
1791.99466729
1791.67972655
641.79603868
643.729895831
1790.96495392
1792.37461293
643.470476161
1793.06428498
1793.89423742
646.993942889
645.150005125
1793.76451284
1793.20470533
645.17893802
1794.22652367
1794.33822151
650.375584199
648.787387713
1794.2232129
649.957051951
1794.2230015
1792.62853972
1789.67539955
650.667958187
649.315945607
1790.10218565
650.223971605
1792.47390495
1794.12544593
1794.34148945
648.669894682
649.441351927
1794.19570277
1794.33693662
649.611279958
1792.74294481
1791.19709895
649.07778945
649.839526647
1790.66534125
1793.28472778
649.881803799
1784.32876502
1786.47877419
646.423386369
647.533862485
1787.17303439
646.212567109
1783.33831033
1782.29935351
1779.94040082
645.554381652
645.809781316
1781.38360823
645.59488692
1781.01753865
1785.51486644
1788.84715463
647.521601347
646.693350193
1788.00493675
1786.56512032
646.35652983
1783.87995908
1784.29514176
646.110649395
646.071232012
1782.87972236
1785.0246506
645.734677332
1782.18679106
1779.80757749
649.132252624
646.803603913
1781.30777961
649.1603773
1780.59953131
1783.58151674
1784.39343359
652.39343128
654.88926217
1785.50514913
651.946989451
1782.17956079
1783.83457263
1784.59237234
647.160305788
649.354733383
1782.96833788
1785.47793399
649.275959849
1784.98460869
1787.89325385
654.195320896
651.49222008
1786.60100208
1786.51910954
651.666142774
1788.98171828
1786.42538595
661.30634426
657.722471922
1787.30794959
660.238263232
1788.33216249
1790.68763837
1792.38966967
663.827245158
664.916671386
1792.36678315
662.636826825
1790.36909443
1789.59028694
1789.12867584
656.635181803
657.975636835
1788.13902371
1790.31649074
658.988630893
1790.93531674
1792.18227622
663.3475851
659.915994814
1792.19862238
1791.35395708
661.255142991
1794.3897465
1794.06705218
669.806294084
667.027159278
1793.70405626
668.283400704
1795.1086372
1794.15354032
1795.122667
670.583580216
668.909967158
1793.10046593
669.001541427
1795.48803896
1793.30462025
1792.56549811
665.192964621
664.477193414
1793.08797396
1792.22460212
666.409757284
1792.64507201
1789.59469255
666.553374901
664.676981822
1791.29270054
1791.32356714
666.933089574
1788.26992747
1793.88074574
667.925691858
667.657180732
1791.36592729
665.285054996
1791.25626134
1784.10765936
1781.2540864
665.167408315
660.144206982
1778.9322856
662.528633931
1787.08686817
1786.04153342
1787.1591744
665.16733887
660.454936726
1789.26912569
1783.79136672
662.862113925
1781.84492421
1775.93363568
658.071601169
657.992803869
1777.17322138
1779.85756232
660.151549556
1764.46797116
1774.03971247
685.467127625
659.192393864
1772.26171203
665.78813649
1765.29957263
1752.124496
1743.80064386
754.218489464
623.015720549
679.827097124
1760.67626436
1749.37440699
1765.74520966
1771.79446628
657.669370526
661.904645722
1771.66746597
1767.79628888
664.889911603
1756.33596444
1778.19129094
620.210575395
672.35896663
1759.08146806
677.733419649
1769.85380616
1809.07930352
1813.84379125
654.313840035
656.230595359
1809.77741417
653.777298239
1812.49631186
1805.38038409
1800.70014007
651.400279619
649.503835762
1805.19569728
1801.65105656
651.580855197
1808.28274717
1810.07475906
655.280331328
653.180494199
1807.89456703
653.391263648
1811.06048185
1805.43057949
1803.10726425
650.453440117
652.210749446
1802.61229209
1805.6179072
651.901017262
1796.08993902
1797.1080263
644.689484335
647.650836364
1794.68802323
1798.49651329
646.107967706
1794.34643805
1792.2846449
643.516328241
644.365735749
1793.00478012
1793.12477816
644.964869642
1797.31331501
1800.40266015
649.059326896
649.281082987
1799.78793531
1797.83887963
647.890749423
1795.18420251
1793.63471951
645.839455726
648.050241589
1793.56971442
1795.5127971
646.756778523
1792.59715657
1792.19626886
644.249964954
644.430285311
1792.52106496
1792.52665002
644.805007132
1792.97936443
1793.73199568
645.30456828
646.628693874
1793.0655001
1793.66004943
645.511457285
1792.39837822
1792.53405357
645.447338882
646.230536259
1792.66831527
1792.11157981
645.444356049
1792.72271523
1792.81257945
646.848560675
646.50594216
1793.35454535
1792.2982916
645.93053398
1794.64943833
1794.4591473
649.145070627
648.003748223
1794.69623543
1794.32690779
649.131460642
1794.11130669
1791.97206267
649.928344063
649.687960348
1793.88675101
1792.62914665
649.895771295
1794.25710241
1793.37011641
647.889438755
648.969386799
1793.96979156
1793.66815341
648.990503383
1793.95739858
1792.85016697
649.848845483
649.645838085
1792.97292298
1793.50707964
649.701268914
1788.60315066
1789.65556185
647.03454143
648.82404262
1787.43327619
1790.63293567
647.814181675
1787.30421818
1785.60283844
646.332789511
647.161093425
1786.0766724
1786.91671943
646.990814452
1789.74541063
1791.75874518
649.295260851
649.134903338
1791.43243918
1790.51950469
648.493615869
1788.58374494
1789.2865424
647.715576825
648.61427897
1788.21975107
1789.61786061
647.749561905
1788.20501775
1785.95476714
649.428347688
647.921578064
1786.96674816
1787.26469157
649.466053049
1789.13418707
1789.17401529
651.602858341
653.388612544
1788.07903051
1790.0509818
651.507693533
1789.38607306
1789.51294645
648.253788228
649.718153878
1788.54352641
1790.06766133
649.533129414
1790.17324029
1791.20143776
653.267405717
651.208037747
1790.85971445
1790.65476047
651.360253741
1791.35397495
1790.02392746
657.173271769
655.084802681
1790.70577995
1790.83242505
656.576716027
1791.67548236
1791.74226068
658.729883975
658.904023305
1791.26225767
1791.77559382
657.680214773
1791.80476186
1791.77114225
654.960697135
656.050981313
1791.48567484
1792.23594526
656.229645433
1791.84241975
1791.2347792
657.980486788
656.92303414
1791.49971948
1792.04279612
657.144224609
1790.40150197
1791.76196831
662.320745109
660.077516826
1791.21464034
1791.42905358
660.521776105
1788.65123362
1787.79341106
662.405666525
659.074442017
1789.96286574
1786.15618807
660.235987161
1789.15441558
1789.78669469
658.637155885
656.846814528
1790.64567615
1787.8812447
658.515197393
1787.17461379
1783.5832489
656.760171353
655.782187608
1784.72386902
1785.78975364
657.850779805
1780.12162501
1784.93386483
657.933405426
657.428404573
1781.51212908
1783.23896887
655.77519476
1777.19811473
1774.93369289
655.743986454
653.167780752
1777.95372932
1775.05671335
654.113423701
1779.62838757
1781.54495101
655.375066573
652.93478979
1782.15442026
1779.69101591
654.101367223
1777.58651261
1777.47184714
652.706204371
652.302926014
1776.26744858
1778.37544815
652.969241137
1771.77633288
1772.34810001
661.312629285
653.578582386
1769.93657424
1773.42319705
660.332428656
1765.72578401
1786.03345506
672.310412259
633.384254669
1763.41689608
670.908165252
1790.42315871
1773.69159697
1776.46065758
653.967143334
660.004813457
1775.31145166
1774.36798086
660.587633871
1767.03464862
1792.52420843
634.007919082
668.199700284
1767.04988356
669.816258257
1792.18723737
1806.92991133
1809.31423978
653.237600726
653.754529876
1807.4342029
653.215441596
1808.6303298
1805.13608571
1803.2772631
652.606850575
652.48004004
1805.48511971
1803.07527152
652.792560867
1806.29348774
1807.38461432
653.702900357
653.271726082
1805.71159521
653.280447148
1807.97013375
1804.56648731
1802.05912272
652.674203622
652.971790789
1802.60295598
1803.98847948
652.94706278
1797.8072313
1800.68224988
650.276262801
651.995075759
1798.00304601
1800.54996378
650.966638727
1795.33539588
1793.59248773
648.877143492
648.6771558
1795.53988305
1793.42910106
649.623308621
1797.46803023
1799.71878117
652.22300709
651.693040139
1800.15990097
1797.11772423
651.366219646
1795.11155856
1793.17411209
649.394971114
650.588576942
1793.31579429
1794.85269274
650.093848889
1792.07778986
1792.47057434
647.05276484
648.072941872
1792.11786605
1792.40662942
648.041327872
1792.03576143
1792.51214301
647.538815949
649.084216817
1792.17787285
1792.21140309
648.560449847
1792.0391988
1792.28362374
649.033868429
650.030059491
1792.36832015
1791.89832944
649.118743324
1791.90125344
1791.46837503
650.10004821
650.551453504
1791.93259503
1791.6552879
649.661521377
1792.58943721
1792.92148339
649.434098874
649.590152477
1793.1770333
1792.44101549
649.982630744
1792.43626748
1792.55598495
649.839509853
650.271496815
1793.05306809
1792.05500946
650.179654521
1791.84508309
1791.23599906
650.410864938