/*--------------------------------*- C++ -*----------------------------------*\
| =========                 |                                                 |
| \\      /  F ield         | OpenFOAM: The Open Source CFD Toolbox           |
|  \\    /   O peration     | Version:  v1906                                 |
|   \\  /    A nd           | Web:      www.OpenFOAM.com                      |
|    \\/     M anipulation  |                                                 |
\*---------------------------------------------------------------------------*/
FoamFile
{
    version     2.0;
    format      ascii;
    class       volScalarField;
    location    "12";
    object      p_rgh;
}
// * * * * * * * * * * * * * * * * * * * * * * * * * * * * * * * * * * * * * //

dimensions      [1 -1 -2 0 0 0 0];


internalField   nonuniform List<scalar> 
28582
(
19545.3494647
19544.024875
19544.8378213
19543.7495537
19543.1603931
19542.9426179
19541.2061782
19541.2242857
1312.17788383
1330.0762536
-0.103915550145
19540.6007163
16801.8189506
16839.3044644
19542.1990776
19542.9418662
16866.2710274
19502.5741954
19507.9959899
19547.3236912
19543.3856716
19543.3903551
19547.0067949
19543.4333442
19543.5591792
19545.9271615
19542.931831
19545.5320861
19543.0257104
1349.44475299
-0.110978453718
-0.0411485460515
19543.4979891
19542.9388447
16985.219009
16880.6278089
19511.8750437
19543.4628613
19544.0403864
19544.7005071
19503.3727029
16862.6198993
19508.5523702
19513.2520411
1311.08842163
1307.9807415
4.2245321284
8.41988760787
1316.94240859
7.51631723076
19508.5594156
19508.5499279
16793.7252717
16825.8782218
19508.2809847
16815.3212355
19508.2965166
19508.4775434
19506.7814876
16812.0002779
16862.824786
19507.9153314
16835.1054243
19507.6642842
19505.2798999
19505.1746823
16885.9031481
16889.9921416
19507.2232454
16908.9127684
19502.5638183
19499.9372686
16913.6888459
16929.5938486
19502.9349828
16896.7730583
16916.4777924
19499.980723
19511.6252102
16971.7825907
16981.5220479
19509.1399604
16967.5555175
19512.2814932
16951.744116
1321.58875734
14.4041930919
1291.3941772
1313.37651671
11.3525982809
13.1057994414
1332.38645329
4.48273428358
7.42296655523
1360.26233521
5.57600184022
1368.69134489
7.00371909319
19513.9709452
19514.2444793
16950.5762001
16978.5196965
19514.0236477
19514.5423669
16931.3835587
19512.9010582
19511.5058341
16913.9573867
16845.3333548
19513.0078323
19511.3880026
16887.820354
16843.7098653
16806.4093361
19510.8430498
19512.5465423
16819.0464994
19511.1877627
16861.6803511
19500.4515533
16908.7720602
16928.9889592
19504.3662471
16894.9664264
19501.0851451
16925.3356738
19505.9491907
19503.4245828
16879.0815845
16907.0967849
19502.0992846
19508.0803194
16919.3483594
19512.7902218
19512.0424677
16972.0876965
16992.3816477
16995.9840673
19509.2988721
16968.8714133
16989.9536246
16978.4648568
19513.4452922
19510.1775592
16939.4426026
19511.7922732
16959.1828698
19542.9273821
19543.4292552
1389.57407164
-0.0593131158948
19541.4966092
16789.1020923
19544.7444719
19544.0642647
16844.852733
16959.6353406
16804.0014353
19543.0441044
19542.0553322
16766.6902656
16706.4971598
1331.53439956
1388.38924953
1416.91883402
6.45081262483
6.20580918647
6.21860388889
1433.96445031
1444.9123272
19506.9558225
19509.3019533
16799.5407667
16773.8596083
19509.142521
16773.6149096
19507.8075047
19511.6754982
19504.8763705
16828.585524
16883.4439308
19505.4154944
19510.1056097
16853.6943515
19511.7726991
19513.604421
16904.626659
16915.8760655
19512.3697651
16863.7414112
19512.9461688
19510.5445603
19508.8538191
16800.276011
16862.0918046
19508.9509727
16827.6115483
19511.2413832
19506.0185888
19506.9776104
16772.144297
16740.5798406
19507.1993596
16742.4993201
19505.3962209
19505.6773537
19503.5019689
16705.3404901
16720.1386742
19505.9150638
16721.4403092
19504.2618278
19566.3337891
19562.9353248
19565.0400339
19562.6205866
1165.57129034
1221.08538636
1125.46260908
1160.72184517
1136.21048889
-0.172914251174
-0.0799505719888
-0.0959523948105
-0.123141534214
-0.0758289355115
-0.0745697249046
19561.4278402
19561.4863175
17379.4293185
17511.4839328
19568.358765
17532.3641227
19560.9623482
19560.5043145
17544.1866098
17623.4449862
19569.9112733
19564.5895709
19567.3211381
17561.7278779
17625.2586769
17629.2927945
17638.1828781
19567.6647698
19566.1052719
17638.2430402
17659.4582909
17632.6385948
17587.3021204
19564.8143629
19563.418317
17626.301961
17626.5459379
17639.9380372
19563.8347133
19563.5680273
19562.4071311
17621.2773225
17576.2219557
17629.4541092
17560.3491866
17625.2415945
17534.6773983
1162.41524173
1119.30609751
1202.60745949
2.56319119394
1.96930931823
2.10298155619
1.70798422818
1.75404070792
1.76117634506
1.21277536622
1.33931187897
1087.70557022
1071.27297837
1219.64714168
1140.24355893
1176.38395046
1.89164419378
1.47436097095
2.37876127471
1.83964046219
1191.2524247
1188.032286
1173.0449212
0.803572786768
0.954963755952
1.17646984027
1.2192635743
1152.55996597
1134.61181857
2.75837843377
2.19508748479
2.44311226903
1157.74853172
1144.68714517
1150.66545977
1.76952130442
1.48632342586
2.15649642196
2.03808005524
19541.6536549
19546.4403446
17347.9325117
17415.5735443
19546.7607291
17389.5975327
19541.1053341
19543.219493
19548.9719969
17460.8663646
17496.7680033
19547.8811896
19544.7149743
17442.7761611
19556.8564773
19553.1753818
17490.7202863
17567.8817962
19552.570801
19557.0352871
17534.7061265
19547.198389
19550.4803422
17532.4221247
17581.6222797
19546.3404578
19550.9848492
17572.1501576
19548.341147
19552.2332417
17600.9359849
17617.3393694
19551.9046728
19548.9278458
17595.1279605
19556.069225
19553.8308529
17591.0974024
17590.5674232
19556.739614
19553.7690082
17614.0129377
19556.7009748
19559.1764408
17606.6790605
17640.5805747
19558.3295691
19556.8954566
17628.1053945
19556.5126829
19554.6529061
17606.496305
17639.5273839
19554.6549536
19556.1878433
17620.5369581
19557.3320204
19556.1565818
17635.4967597
17639.4888939
19556.595289
19556.8183931
17629.8680512
19555.4878875
19559.1482405
17652.8487258
17641.7865089
19558.5992858
19556.3778663
17645.7475083
19554.2936542
19555.269242
17662.0962416
17633.1184749
19557.433413
17643.6516533
19553.0917945
19553.0712044
19554.222568
17633.5868603
17621.8155547
19554.8697473
19551.9033688
17630.1424222
19551.8140401
19548.0450624
17610.9357404
17608.014823
19550.0754959
17624.3997401
19550.06535
19555.3877792
19554.3701543
17631.5689334
17636.7840101
19555.8949087
19553.9057654
17641.5840822
19555.9475444
19555.8091845
17630.677877
17635.2089136
19556.4575274
19555.4741726
17640.398194
19555.8969034
19555.7928419
17629.7356923
17647.567234
19555.4142306
19556.2180405
17637.6880126
19551.3753008
19553.9684342
17611.9734818
17627.3065015
19551.4626062
19553.9206817
17612.6568515
19548.6154033
19545.7444146
17597.6169517
17567.7114914
19548.8349018
17594.4678191
19545.4010849
19551.6357147
19554.3440325
17619.8124873
17613.2313895
19553.9404501
19551.9023254
17604.7369849
19549.1340225
19546.6370459
17560.248524
17592.6221073
19549.4479319
17587.1863072
19546.1544695
19551.376289
19554.2006463
17603.0168857
17625.1657471
19551.6850246
19553.9254815
17599.4921501
19546.3018288
17570.6030692
19549.0622041
19544.9510966
19543.4270417
19542.8335367
19543.8062225
19544.6203916
19554.9210986
19544.580891
19543.2754271
19542.8675994
19543.5445573
19543.6757126
19554.5688496
19539.4649965
19541.5461217
19537.5521865
19541.4647313
19544.7197566
19547.3490782
19552.6060983
19530.9090983
19540.8348389
19542.1746631
19542.532735
19542.9599816
19543.2063521
19542.5977769
19541.546072
19553.4345334
19544.9369316
19542.8956899
19542.30575
19542.4748928
19542.8235621
19542.6839407
19542.4435398
19555.107589
19546.7652792
19544.2539039
19542.9516698
19542.7370952
19542.9722537
19542.9007947
19543.0189018
19555.9704603
19542.8763955
19543.105457
19543.8342613
19555.5572424
19537.4614511
19538.9204815
19540.6371352
19541.9555643
19545.5794412
19551.7986914
19604.2645994
19445.2442648
19541.0469032
19541.492874
19545.0615247
19545.2344903
19543.7747075
19541.4285795
19537.7589387
19537.4049835
19544.4538538
19543.4541975
19543.4199157
19543.1891078
19542.5962089
19541.4999131
19540.2544918
19550.312483
19546.6290036
19544.2587664
19543.2835986
19543.1448739
19542.9774634
19542.1479806
19540.9207703
19553.8121397
19542.8556274
19542.6012002
19542.5169617
19554.9352696
19537.1566703
19537.1435619
19540.6273966
19540.5286572
19541.6490934
19540.7323523
19539.8545853
19469.0419436
19541.5281451
19540.109289
19540.4724701
19541.568955
19540.9732851
19535.8455747
19522.634989
19511.6683726
19545.0211983
19543.8256257
19542.9889066
19542.4692409
19541.089791
19537.3106219
19529.6704264
19545.641588
19550.7055004
19546.1402922
19543.5575736
19542.4498115
19541.962237
19540.9720753
19538.5180559
19533.7590701
19549.064677
19543.2511909
19542.2958946
19541.7103722
19541.2951002
19539.7344235
19537.3044194
19551.6811645
19541.6155052
19539.2907634
19551.8136361
19543.5586003
19542.0333619
19540.2337531
19538.9283967
19542.2440388
19545.2131757
19543.3611972
19511.4632661
19548.8679941
19545.3200796
19546.6791347
19543.666128
19541.6500384
19543.3503362
19542.7474443
19536.5354711
19521.4118458
19561.1860901
19552.7209114
19546.799787
19545.6451287
19545.1035941
19544.0097191
19543.6236915
19540.8523455
19536.7004547
19537.1472571
19552.4795493
19546.8630876
19543.8659815
19543.2789164
19543.2050684
19542.163017
19540.0882473
19538.5985655
19542.3468386
19542.2166322
19541.45706
19541.7116393
19541.4771247
19540.4093332
19539.7618198
19542.5157691
19542.2435784
19540.8274109
19542.4749668
1105.11922363
1179.94700835
1235.29207457
1331.12473603
1468.29864388
1541.80899043
1548.17269713
1542.36153841
1148.40423816
1108.74027631
1127.92064373
1171.89252248
1229.36736374
1260.15455494
1355.15124278
1424.31931462
1455.30438537
1458.1897564
1153.92932785
1187.86160324
1209.04907285
1221.69646576
1242.00644806
1259.60674102
1298.93631488
1367.09610787
1391.07247747
1397.67430968
1234.62678954
1271.30088689
1291.44748317
1297.36381458
1310.56897042
1320.33023176
1370.00228666
1390.95778582
1419.96577226
1329.4776225
1345.22855801
1326.86952631
1373.75979216
1396.25729
1423.7133324
1443.67487143
1422.82959706
1439.91267191
1441.6866877
-0.0418512701091
-0.116528709164
-0.148989307306
-0.0533617310291
0.908894152313
0.304835840522
-0.100355619373
-0.0880263741201
-0.198023110916
0.768008950281
0.304132827467
0.132188729969
-0.134616405695
-0.153042882636
-0.0712521587452
1.27768425365
-0.00932234947699
-0.147234352804
-0.197828349729
0.444296508133
0.494733962093
-0.0872905656432
-0.159325996642
-0.0562895739549
-0.0869435380437
-0.118455597967
0.98210967077
-0.127563793311
-0.231927068468
0.659608156561
-0.0881639247545
-0.144310720965
-0.0422332005773
-0.0565024883132
-0.0652722649972
0.194807320056
-0.138114646547
-0.239058131108
0.909563524931
-0.0819082135859
-0.0101855057155
1.03589798336
-0.0933848119871
-0.132657336934
-0.237934235526
0.942053694917
-0.103485264017
-0.239894903522
1.09692745517
19540.6360526
19539.5782277
19540.8946305
19538.6472903
19539.4459328
19539.2574109
19540.0510576
19541.9571787
19542.0701584
19542.6939119
19540.7288786
19537.6680437
19540.7342635
19539.8755402
19541.3666871
19542.742832
19542.2934869
19540.6860101
19541.5214335
19542.4982467
19542.5618888
19542.6534337
19542.4750675
19542.9543741
19542.218465
19542.0084261
19543.1285814
19543.7459044
19537.4065897
19538.8599937
19538.542781
19536.8252564
19536.0929952
19538.2261771
19537.1275744
19539.7436593
19538.9976719
19540.6940202
19537.4715882
19538.7831863
19538.5952023
19539.4008969
19541.1829509
19542.4175562
19542.7652429
19541.1030047
19540.7732889
19542.7982304
19542.673826
19541.6861919
19543.1954218
19546.2557659
19540.2808718
19537.7569534
19541.4090865
19543.9219087
19535.6964575
19539.1886082
19536.9536881
19537.824123
19536.0592014
19541.104142
19538.087386
19538.7490262
19538.4457362
19540.4686816
19536.7287223
19539.0007667
19537.6331401
19541.4615541
19539.8316964
19543.2480769
19542.9410469
19542.9241202
19542.5570546
19544.2000173
19544.3072741
19536.9573171
19542.3206834
19543.781183
19542.5117249
19541.6878318
19544.4964519
19545.6998197
19542.8282809
19544.8753083
17324.5186357
17365.7934101
19543.664433
19544.7384039
19544.5883272
17331.4979222
17370.1425673
17341.6828995
17345.4674648
19541.2164155
19544.7861808
19543.9846654
17351.1727605
17146.1587419
17338.1689782
17188.786133
19539.2021889
19541.4741536
19540.2726434
17039.1704135
16705.2717533
17104.1434449
16876.4441439
19540.1711685
19540.2533629
19541.2440655
16663.5259041
16602.780286
16872.8963912
16845.445861
19544.0690014
19542.8100216
19544.0671865
16593.2210327
16643.1614193
16840.4882691
16811.1180796
19545.6097286
19544.2507397
19544.1437694
16664.3258615
16715.3052585
16804.9455888
16726.1801383
19531.4954186
19542.2465639
19532.3478812
16677.6726151
16433.395805
16662.0892954
16388.4479646
19496.1709026
19516.8581867
19521.9530361
16584.49799
15521.8554558
16491.1013932
16382.9100057
19562.6944255
19557.1541265
17644.8447918
17538.8155049
17562.8116673
17470.8746121
19545.8866627
19551.6969239
19547.8141325
17489.6559894
17370.3283558
17415.1667562
17259.1986491
19545.9611174
19545.973747
19545.8847754
17342.9949067
17335.7966448
17230.0231305
17219.6455011
19545.9018802
19546.5163334
19546.5165536
17337.9204577
17222.5754248
17227.1310297
17196.5330457
19541.9622103
19545.9055398
19544.6628196
17119.3362131
16911.8067658
17146.7016186
17045.5735804
19542.4161571
19543.9978467
19544.0922445
16921.4972442
16930.1004165
17058.5916143
17062.5502137
19543.5875429
19544.2157487
19543.7026658
16905.0813061
16837.50255
17043.8189276
16979.0994956
19540.6935456
19541.9760712
19539.2684173
16824.1810088
16735.3443214
16926.1658759
16706.3869401
19529.6664721
19536.190323
19532.7585483
16668.4069197
16412.5713365
16648.51723
16573.7571872
19540.0033497
19529.9448132
19551.8071103
16501.8222467
16475.167337
16667.005774
16562.431881
19557.2428942
19560.0118918
19556.6772309
17551.0539803
17461.2283556
17517.5573534
17371.570568
19548.9640248
19552.7141223
19549.2287079
17399.0899547
17210.8746607
17299.8642907
17100.0392498
19545.776337
19546.9993524
19545.5041656
17181.2659583
17183.6639627
17078.6382894
17073.0201812
19545.53936
19544.7618055
19544.5252509
17195.088396
17166.9137404
17070.2428339
17035.9830096
19544.4506549
19544.3524848
19544.2067508
17139.6024838
17069.5934938
17028.5245712
17054.8110643
19543.8465132
19544.1359549
19543.8420614
17060.5407078
17037.8663468
17039.4172067
17027.734744
19542.7158443
19543.275687
19542.0936066
17042.1638259
16971.1878644
17047.5683114
16878.2922045
19538.587439
19540.3624179
19538.6458327
16894.8428507
16715.2928266
16788.3620177
16711.6664992
19535.8645935
19537.7198807
19538.2105058
16680.3666458
16636.0995659
16720.067937
16725.4716289
19555.2488614
19540.7015057
19557.1216861
16726.643599
16563.4232405
16796.9255431
16543.9797526
17490.2248978
17342.4681159
19549.1884917
19548.7560189
17274.9181569
17076.3406119
17036.6932616
19545.0653536
19546.2748624
19544.3171252
17055.8117396
17028.5753141
16996.7946958
16912.8997873
19543.4188613
19543.0069698
19542.4111994
17017.4854636
16996.1511749
16888.586428
16867.7755933
19543.2861248
19542.2674743
19542.2678209
17002.9349165
17013.4525117
16881.7628432
16911.5981618
19542.8216198
19542.2060659
19541.9767057
16996.8804686
16972.9949905
16895.6614833
16849.6740156
19541.2105995
19541.5725114
19541.0188569
16965.1817888
16830.5725381
16845.3507352
16804.3866278
19538.9719438
19540.3137117
19539.5371267
16781.9651694
16735.9995938
16781.7900848
16728.2487967
19539.5387544
19539.2783229
19540.1153105
16729.6972508
16710.3499929
16713.7675013
16651.5540521
19557.1892312
19542.525143
19556.6747058
16777.6277641
16535.4816654
16722.3006788
16488.6663893
19541.5773235
19540.7591098
16859.7528593
16853.2647686
16813.5273924
19541.6273538
19541.0673289
19541.7252504
16870.4624012
16884.6514672
16840.7795347
16899.4457031
19541.7323629
19542.1877324
19542.3842311
16894.4736526
16852.2589832
16914.3873087
16855.0461394
19541.0055465
19542.2744317
19541.8324135
16842.4890761
16800.7158663
16845.0787465
16793.1807999
19539.8911102
19541.1924272
19540.4262843
16771.2921844
16720.1118441
16760.9759624
16703.8663786
19540.3748769
19540.0823062
19540.5099459
16705.2154218
16635.8712504
16691.3277471
16592.3890828
19555.8912008
19542.1944229
19554.880852
16707.3547864
16472.4395935
16666.4091797
16466.4621875
19543.0053222
16787.8878728
19541.3546693
16761.20636
16693.8912746
19541.0063682
16677.548316
16570.3902249
19554.3005312
16648.7545787
16475.6991828
2.22582894257
2.94353266963
2.04380137285
1.20720759903
1082.2723977
1087.36840703
2.2610091757
0.491999993544
0.702096032832
0.596652189162
1134.96759256
1111.33182264
1136.61968163
0.565509498672
0.804280888777
0.901860555346
0.957827222004
1220.91506557
1172.38007309
1206.62432663
2.58329670009
8.59469673319
1.93398433258
7.86291298045
1278.01706192
1220.50104146
1255.72054904
23.6420153084
29.9573790491
22.4126669379
28.3276276002
1404.60064735
1297.29903366
1352.9724943
23.8546712052
17.6500258901
22.7569293998
15.3590548245
1510.3764438
1404.34366842
1451.3149165
8.67904073398
6.21099522205
7.05083892704
5.38589149112
1548.51631425
1483.74775037
1501.03477815
7.23986438866
8.39399182542
6.49433504147
7.93235481611
1551.14845164
1503.89231209
1515.09248836
11.1858005511
12.8815169382
9.68000199249
9.9172851998
1586.8784366
1483.87787661
1581.07661664
12.6597881367
26.0971362797
10.7413280461
16.3302757763
1117.4369607
1149.2530673
1142.518645
4.05887146397
5.1005863859
5.36801146968
6.97445242515
1110.09216293
1151.4850497
1160.57443961
4.25816847805
3.13378982657
2.17646208199
2.65109031696
1147.27108578
1170.27901956
1173.98975354
1.20425898221
0.850493267207
1.52211774394
1.2266125889
1205.58009121
1188.62447696
1209.81465284
0.822724866494
2.9510967125
1.40454913457
3.09990424226
1245.95698627
1230.25987314
1240.42941162
10.542697974
22.2046274275
6.68873235451
11.9722426335
1304.57306203
1243.65381722
1274.42852424
31.3928906299
17.7248208573
18.6828370749
15.2464673394
1393.03842274
1328.24789533
1356.19167195
6.59204278981
5.21008942197
6.26820169837
5.15872203814
1446.44594897
1384.69601009
1405.10781523
5.85247669801
6.21177312843
5.82679003022
5.60393761532
1472.65912052
1417.77588385
1428.35481807
6.75781225378
5.7756075034
4.61118685812
3.73139236471
1576.08301694
1421.68327814
1533.33965357
7.04610045538
12.5221164049
5.36456797395
13.0708761135
1162.51889605
1165.74643172
1181.68865783
5.1183228933
6.64566944793
5.45199551619
10.1787297571
1199.47314554
1213.29676569
1229.53406509
2.03903439263
3.71728035536
4.68638180675
6.73244462616
1217.01789696
1243.97702555
1254.43676817
3.1561295831
2.3281179759
5.89875211417
5.73212284606
1231.54918031
1259.25068111
1262.40945002
2.90992130831
4.12740540733
6.17052988025
6.85401152472
1251.2796822
1266.05386319
1267.7729746
5.41814078579
6.02808892252
6.81610057897
6.08157773793
1275.47247771
1281.23915353
1285.671798
6.43150350263
9.21781767337
6.9316397236
10.2988128684
1339.62618129
1287.35627581
1326.71804921
13.6903949574
11.5026240747
21.3669938008
22.193180356
1381.23473123
1365.31286759
1378.24215199
7.02845800556
5.15504202595
7.90009107295
4.89673181934
1403.1818975
1383.42677981
1399.87963683
3.88669293736
3.50868418751
3.71466185537
3.3313879881
1503.13014895
1402.13933924
1496.53931605
5.47796961388
15.9822352958
5.46873536295
20.0852089437
1254.97079305
1267.17131081
6.23371619672
8.32245423579
9.71602876424
1284.67258579
1286.38833957
1303.66166341
7.90541024743
8.77520750342
9.81580055821
11.3790093115
1295.25575102
1315.19472953
1324.1399543
9.95407610458
10.1509347553
12.7945657584
12.6497064858
1301.72205172
1328.79445549
1329.16402719
10.2174895468
10.4966521432
12.3016520871
14.5658188915
1316.29049676
1334.53508915
1340.64396745
10.2198561889
13.1463150685
14.9097381372
14.0864341658
1341.67492827
1342.7507876
1357.61656165
18.0816473627
18.417561426
16.7857494936
13.844305306
1381.73582163
1380.38480856
1396.13893055
7.77368325404
5.20652959563
6.9856989688
5.35070222144
1413.17155525
1410.04624197
1433.63090025
4.14100908253
3.53955869828
4.23922855192
3.86289111875
1503.17060199
1435.26331788
1508.20308555
5.80330411491
23.6687625126
6.12950956181
25.6776548321
1341.78187396
1340.84526695
13.2995421657
11.904975222
14.3359440482
11.8702999496
1341.93084796
1341.91378795
1339.01561305
10.5180070632
15.9395789153
9.61846036655
14.0268447097
1351.34873217
1332.79937256
1363.04889415
29.8234685058
15.1539503628
25.3649765062
11.7361434753
1384.85657588
1387.15377245
1400.33689174
8.30520881882
7.70744652589
6.77917060475
6.65827238518
1411.21058635
1412.64338358
1423.60935644
6.82269090113
6.41338547633
6.87522499981
7.2629815198
1446.6576195
1432.73546167
1456.96407372
5.73373564962
5.1639393839
6.44837106701
6.40299924217
1510.834275
1446.00695989
1509.41814147
7.29442219973
25.8108547423
8.95887292785
25.8633665899
1409.16366552
6.334847878
1433.02556145
6.50907003974
7.08118367377
6.155253446
6.02434077468
1462.51741822
6.6025530936
6.69917038016
5.33040306023
5.51944140504
1502.93043898
9.84899528872
26.9807372551
8.77893644547
28.3286086117
19523.4170362
19522.5320444
17301.7794015
17356.4761282
19524.9021132
17356.0753331
19521.0693636
19526.0046265
19526.5437217
17342.3686807
17388.3809051
19526.3377759
19526.8252158
17355.7762408
19529.333865
19525.216991
17343.4413559
17349.7927551
19526.8752581
17354.8421201
19529.5527072
19532.2397417
19536.5976117
17354.1171017
17367.9789439
19534.9126552
17358.7039538
19534.1696718
19528.5676907
19526.8856519
17337.4993132
17338.597461
19526.9585956
19528.1067646
17342.3794522
19531.1936712
19532.7352327
17359.7198205
17338.7148892
19534.0779073
19530.1993713
17347.5553983
19535.9931457
19537.0594212
17326.0889936
17349.450569
19536.2846726
17327.0224069
19536.6218165
19533.8289764
19530.1715432
17240.4173067
17153.1304079
19530.2240934
17246.3734472
19534.0916365
19536.0955556
19534.9925098
17351.6285553
17324.7231407
19535.9946877
19535.4641101
17335.3868164
19534.4434572
19531.8540597
17177.2826378
17263.5785564
19531.7773561
19534.3697951
17266.2369395
19520.8169739
19525.5107188
16913.2338335
17051.4212133
19525.7561472
16937.4383239
19519.7662606
19516.2876948
19509.8795877
16809.4340481
16768.0048613
19513.2906081
16844.2042794
19514.0849165
19523.9642492
19528.8117331
17083.5111037
17011.0597554
19528.1349867
19525.4237485
16980.7921889
19520.3392359
19520.6599128
16832.5767324
16939.5806842
19517.8246696
19522.6227678
16903.7536631
19509.7538245
19506.2224082
16609.8191809
16740.1951929
19511.3108934
16701.0510422
19504.3704692
19508.8161887
19502.6288981
16598.6860543
16693.6861
19508.1444422
16688.3985115
19502.9400808
19515.7852019
19519.7008054
16812.5366382
16861.6537217
19516.6190062
19519.209277
16775.545971
19514.7881151
19517.2585715
16757.0484128
16851.0935514
19513.6830381
19518.3011646
16758.9149852
19505.1673757
19501.7240047
16593.4282225
16688.4952164
19507.1168815
16675.3260221
19499.7312245
19502.3328944
19499.7425149
16608.2984847
16699.66592
19502.2065978
16680.4176538
19498.0808079
19509.2157314
19515.5809873
16753.0559569
16831.3608639
19511.9807035
19513.0256854
16740.1641371
19505.1982586
19505.0937909
16738.312157
16813.5157543
19503.5340821
19508.8676676
16731.789622
19504.5529984
19501.6506033
16682.6346495
16709.8508343
19503.4471549
16722.5179389
19503.6425714
19505.716377
19508.8903418
16691.4410815
16716.8439979
19507.4063056
16721.9401131
19505.8817522
19504.5623247
19504.226728
16739.1405974
16798.8839402
19504.1159035
19504.0593176
16742.4474862
19505.0119068
19504.2305885
16712.8166463
16766.8185971
19506.8879785
19503.6217731
16731.0266182
19508.5628783
19511.5584129
16617.3175253
16664.1967199
19508.6381362
16587.4523912
19512.9855998
19503.2963308
19499.0540459
16527.4189667
16386.3165374
19495.6762832
16490.9285871
19507.6831574
19505.4659817
19503.1446995
16658.5139644
16582.3601933
19507.0531301
19500.5117231
16590.8212114
19499.6970347
19489.1477033
16403.9327627
16490.6021374
19492.9477151
19494.9806617
16501.0225085
19454.2820229
19482.6700005
16526.357207
16487.4577186
19480.8155512
16481.5526771
19449.8919458
19390.3942989
19323.8083571
16155.1953808
16281.03809
16211.5985992
19369.8538094
19319.8679758
19459.3185532
19480.0129407
16518.3165755
16465.3558258
19481.7019032
19462.2307828
16467.4672684
19397.1688152
19447.7450422
16284.7150703
15867.6628131
19414.2547441
15798.5620943
19422.2020403
19547.3273402
19552.1963918
17618.9934038
17610.8527975
19547.7231305
17581.4205064
19551.0180784
19542.9210558
19536.3512985
17584.9594296
17511.5844813
19542.2167491
19537.7133493
17553.1687041
19544.6368477
19545.7152001
17587.6970777
17534.0481454
19542.6875593
17560.6221983
19547.6972224
19540.9825498
19534.3429181
17499.199839
17504.6205446
19536.2015645
19539.234575
17532.5333153
19527.7697925
19531.1722546
17442.3058342
17464.2502341
19527.1668658
19532.3071324
17422.2284301
19525.1758923
19524.5971966
17405.1580965
17352.6469202
19525.4711386
19523.9172792
17385.263795
19526.6525445
19529.1576806
17447.1474246
17370.5448088
19531.0040681
19525.3321142
17405.522454
19524.1936671
19521.2604815
17307.7224344
17311.2758219
19522.6398443
19522.9061084
17352.0768859
19524.1046962
19524.5443326
17326.8343708
17330.8325933
19525.3252219
19523.5075311
17309.4709078
19525.6932004
19529.3993428
17328.9725065
17301.9693112
19526.9834485
19527.7271394
17300.9013844
19522.1665809
19520.6966981
17281.4912231
17203.3157902
19521.858014
19521.2009835
17256.9846947
19523.4330988
19524.5450507
17279.08961
17212.6594935
19525.3994602
19522.81347
17269.2523528
19530.6740069
19531.7191937
17334.409564
17302.263888
19532.5710565
19529.934083
17300.6011229
19530.1064779
19528.6785731
17293.641437
17226.6518554
19531.5582324
19528.1877526
17267.6348934
19528.6431401
19526.1590788
17281.570731
17228.3249607
19527.5643626
19527.0490464
17280.333481
19528.2477892
19526.4121756
17235.9159094
17214.9448362
19526.877274
19527.2576178
17262.4598126
19522.2648696
19524.9467678
17014.9378984
17145.1765541
19521.363542
19525.2254412
17057.0824782
19519.7482748
19517.1145607
16956.2862776
16956.4781223
19518.6871636
19518.1654381
17002.6289976
19521.6511952
19524.6634223
17169.4391833
17099.3457502
19524.4172929
19522.3107414
17090.9319909
19519.0723833
19518.3540832
16999.1867987
17065.6516526
19517.316635
19519.8286989
17046.0119019
19516.5460308
19516.2958236
16937.2575934
16965.7577387
19515.7550301
19517.2247726
16985.971197
19515.2498037
19512.4769482
16940.2123288
16987.6276465
19514.7201493
19513.1962981
16991.960494
19515.1807171
19517.0601543
17010.8578859
17068.4284793
19516.1214241
19515.8453792
17034.5920141
19513.8948355
19513.1673865
17036.8623055
17068.3047656
19512.4110368
19514.6687369
17041.713934
19504.9751762
19508.9149169
16872.3473027
16970.6977084
19504.4184046
19509.7050353
16947.6871541
19499.2849339
19495.2270874
16847.6091793
16922.3766367
19498.5208769
19496.1712081
16931.0552697
19506.4272422
19511.0429971
17003.9690053
17021.6926165
19509.9858798
19508.2579534
16964.2591224
19502.9985068
19503.6958003
16937.2060141
17003.9852655
19501.3012556
19505.8357664
16949.4308475
19492.9379531
19494.9925139
16814.9718027
16897.3273661
19494.8521583
19494.5136124
16868.4671169
19491.2261558
19495.7812474
16779.0382775
16743.1140284
19494.8130747
19489.9791273
16813.3880412
19497.4477086
19501.1401986
16899.3064401
16852.1824382
19499.5892601
19497.7583721
16852.5132073
19495.5577088
19493.9911278
16733.4904687
16776.8051873
19494.2930232
19495.5917626
16794.1648064
19483.0795294
19492.9766976
16593.0394619
16669.2380858
19489.0040898
19486.9610382
16579.0511038
19477.4653827
19475.9067021
16510.4893711
16430.5571883
19482.1528412
19473.0444474
16505.1806865
19489.7393866
19492.4083732
16670.4856306
16604.9486736
19492.0874656
19491.4149782
16602.4661603
19486.7947181
19489.474534
16517.0363891
16590.041355
19484.6774195
19490.0142715
16559.1877824
19457.9577358
19468.8836817
16484.4275599
16522.7782201
19455.7620027
19468.2327944
16517.0471597
19429.3259141
19460.623797
15916.3352125
16504.3836372
19421.3081373
15996.110257
19469.3499193
19472.6758875
19487.5344603
16605.3448523
16656.2344705
19481.7115368
19478.9331502
16593.5061215
19447.2499159
19491.3323014
16543.282213
16113.7756334
19454.7965236
16056.1586734
19484.8658297
19539.2031955
19543.0538969
17522.6945633
17539.9815171
19540.0211801
17508.7121331
19542.4831946
19535.6735739
19532.3918955
17492.7850288
17439.1221322
19536.8391967
19530.9751397
17476.5973061
19540.136055
19543.8813781
17522.1458714
17464.8738246
19540.5587376
17481.1767113
19543.3364031
19536.7702416
19531.9666062
17404.815835
17421.3318235
19532.0823541
19536.8797973
17444.7467575
19521.6108609
19527.8647634
17341.456652
17372.4882941
19523.9082418
19525.66657
17303.6680496
19518.8664333
19519.4131393
17270.7039197
17163.9667974
19520.8845478
19517.4085993
17228.341227
19521.2678459
19526.4704175
17335.1576593
17225.1045802
19526.470232
19521.0725156
17263.8238448
19517.8916825
19516.2496953
17138.9953011
17155.6205129
19516.6155654
19517.3861908
17194.1546358
19520.2460818
19519.5319604
17165.2530052
17132.7877598
19521.2699349
19517.8765222
17118.1823975
19522.9044311
19525.9368075
17173.5487883
17142.4408962
19523.6547983
19524.8030749
17128.5122741
19519.233808
19516.718036
17110.2819914
17068.6161386
19517.0400772
19518.6902871
17099.5648652
19522.0927173
19521.3343252
17110.3737354
17071.2820192
19523.0897904
19520.9793729
17103.6453062
19525.6692549
19526.8388241
17195.4844779
17153.0442095
19526.9503436
19525.6732835
17159.7166759
19525.207301
19525.3531291
17183.2248407
17136.6119498
19526.4600063
19524.3575135
17148.8554447
19521.9334266
19520.7589423
17111.4538002
17062.2106551
19522.7436571
19519.5014035
17107.1302335
19520.8702813
19516.5067435
17088.3536271
17047.2860548
19519.818944
19517.9257416