/*--------------------------------*- C++ -*----------------------------------*\
| =========                 |                                                 |
| \\      /  F ield         | OpenFOAM: The Open Source CFD Toolbox           |
|  \\    /   O peration     | Version:  v1906                                 |
|   \\  /    A nd           | Web:      www.OpenFOAM.com                      |
|    \\/     M anipulation  |                                                 |
\*---------------------------------------------------------------------------*/
FoamFile
{
    version     2.0;
    format      ascii;
    class       surfaceScalarField;
    location    "12";
    object      phi;
}
// * * * * * * * * * * * * * * * * * * * * * * * * * * * * * * * * * * * * * //

dimensions      [0 3 -1 0 0 0 0];
oriented        oriented;


internalField   nonuniform List<scalar> 
92311
(
0.204172985717
-0.000131093746563
-0.00119702270345
-0.20385700183
0.0010121318898
-8.45590366602e-05
0.204314143565
-0.000973137381178
0.000916684237992
0.204292445168
-0.000218457670786
-0.00127183303784
-0.20400307329
0.00106999016801
-1.59950673074e-05
0.204316117548
-0.00100972908728
0.000917630394789
0.204435798962
-0.000104468139865
-7.58486238868e-05
-0.00133554922101
-0.204060919079
0.00106872617473
-8.75034852635e-05
-5.86373880949e-05
1.77952424012e-05
3.5462374987e-05
6.64398576657e-05
0.204377987542
-0.00110458485117
0.00100609178538
2.0598349602e-05
0.0513839683004
-2.72015044904e-05
-1.64902369895e-05
-2.99894943755e-05
-1.36931626782e-05
-0.000334973992202
-0.0513477393147
0.000281602121072
-0.0513576012644
0.0513560114617
2.06102621336e-05
1.02603690216e-05
1.54530062927e-05
1.15175573642e-05
-0.000357636310516
0.000319143594423
3.34502498689e-05
-0.0127642440005
1.2002017269e-05
3.73995967966e-05
1.60196133605e-05
0.000463305583484
0.00879545203216
0.000859934209003
0.00254672659127
-0.0206945259295
-0.000947087633609
-0.00135194430853
0.0194122033904
-2.1666165796e-05
-5.19141887683e-05
-3.08244517064e-05
-4.84889279692e-05
0.00373421680009
-0.0167388613034
0.00896728755802
0.0066502260712
0.00715810405031
-0.0230777374662
0.0393167818688
0.0537726114902
0.00829143833008
-8.97240653978e-06
4.72889831686e-06
7.6419574619e-06
-7.86291214152e-06
-0.00034663923425
0.000301548250958
1.9701278821e-05
0.0118633437498
5.2718585941e-05
-3.7816102493e-05
-0.0118645261774
0.011794443521
3.40982079345e-05
-9.7384884199e-06
-0.011826541619
-1.01255001195e-05
1.77939852513e-05
0.000318418240799
2.81336543431e-05
0.0513489965294
1.03225764303e-05
2.70297581505e-05
1.32101025209e-05
-0.000354706057349
4.39135097663e-05
0.0513277089861
4.88547981142e-05
4.04899223053e-05
4.17794897254e-05
-0.0513648719168
0.000246982667597
4.57423924541e-05
-1.21834592919e-05
0.0117534826668
-3.2363302237e-05
3.98224738113e-05
0.000100645058954
0.0128119275695
-0.000111821833287
4.05965619108e-05
-0.0128132181485
0.012810462271
9.06265103151e-05
6.07438884644e-05
-0.0128173206945
-0.000215400075057
0.204213972711
-0.00189251934117
0.00162033101686
-0.203726384575
0.204333738002
4.57901248893e-06
-0.00058079309014
0.000556912745121
-2.42729562992e-05
0.204396168607
-0.000449330324926
0.000411324856588
-0.00040288059627
0.204293766038
-0.00180498495023
0.00157349241886
-0.20387468524
0.204427858287
3.21776308956e-06
-0.000738933948881
0.000628782562254
-6.58122005193e-05
0.204607509806
-0.000562981307581
0.000425015175176
-9.86559199069e-05
-0.000139771778172
-0.000148026398707
-0.00184832792934
0.204255740248
0.001563622355
-0.203871390201
-0.000116054062941
-3.40115485242e-06
-5.32693151511e-05
3.03459403441e-05
-1.42125755806e-05
0.204545984161
-0.000735305127236
0.000611175961351
0.0513129260068
-3.97132072764e-05
-4.08608922188e-05
-3.67550968349e-05
-4.09729146475e-05
-0.000501249133944
-0.051178617443
0.000426568570776
0.0513370249893
0.000317743413582
2.24555071001e-05
1.70767479857e-07
1.70951912411e-05
-9.89953180107e-06
-0.000339043807264
-0.00506843509442
-0.000171644491651
-0.0209764944046
9.58997100436e-06
-1.81269889795e-05
1.13255083455e-05
-1.51544459792e-05
0.00553447483077
0.00306730488423
0.00389772225249
0.00435229768001
-0.0295441883016
0.005309550042
0.068617032211
0.0185545203729
0.00251780691004
0.00680857136856
0.00286217473019
0.00526436779543
0.00308630072321
-0.00391120133717
0.0352606541806
-0.00941499978526
0.000429722568429
-3.44594975758e-05
-3.50980283633e-05
-3.41872353954e-05
-3.44586003133e-05
0.0513592257812
-0.000477603399806
-3.76889157173e-05
-2.92855457909e-05
-3.1847700822e-05
-2.74112689354e-05
0.0513495369676
0.000353389618791
-0.0512949987581
-5.53654545114e-05
4.33838061133e-05
0.0118318226756
8.18209953454e-06
4.35279936125e-06
-0.0118323577109
-5.34595665222e-05
3.73378319984e-05
-0.0118547943607
1.10383983831e-05
-1.12857274204e-05
0.0118711050849
-3.71871905367e-05
0.0128399530579
-9.39684839872e-05
8.34123756462e-05
-0.0128299146015
0.00028293429417
4.34583791562e-06
-2.98327382672e-05
-2.06062271127e-05
-9.18634438757e-06
0.0513448116917
-0.000288745899838
0.0512782026671
3.80998350433e-05
4.2187737836e-05
4.67215754129e-05
3.03934319393e-05
0.000240162460566
3.24710675608e-05
2.04073349314e-05
1.89357192878e-05
-7.79227577948e-07
0.0512528996002
0.000223132922515
9.65766106673e-05
-0.00010963259057
3.70212245018e-05
0.0128103957034
-1.20125631879e-05
1.92544304138e-05
-0.0116026579044
-0.000162537000103
0.0115911271842
0.00016681575834
8.5794812887e-05
5.64338531373e-05
0.0128028503686
-0.0127890096728
4.86043006e-05
0.012787581361
-7.13560074919e-05
5.66554671478e-05
-0.0167725672891
-3.8760447463e-05
-3.85417564612e-05
-3.87171295037e-05
0.00177460468844
0.00279790028899
-0.000413985328482
-0.0042620741233
-8.94214788761e-05
-0.000111179448743
-0.000108439054316
-9.61933087144e-05
-0.00798939151487
0.00266192742091
0.00904755405211
-0.00938708141068
-0.00533174207056
0.00921349618151
0.0102102944762
0.00890769211318
-0.00440778171295
-0.00858548191558
-0.0016207550996
-5.17806881867e-05
-5.85040043939e-05
-6.77918548723e-05
0.00238007841792
0.00210422959936
-0.00592363797112
0.012181075169
0.00818875989702
8.15606825733e-05
0.0128480322328
-9.15604135484e-05
-0.0128455704899
-0.0128521522856
-1.80636851023e-06
-8.42416818123e-05
0.0128453015168
7.63958490116e-05
3.22664740518e-05
-2.38955472145e-06
0.0118664774962
-2.09661232355e-05
2.50794231061e-05
0.0118587863568
-0.0118570356795
6.32602404453e-05
-0.0128472525191
7.16800979917e-05
0.0118628347487
4.24325149653e-05
0.01283971401
-9.20539743881e-05
0.0128338878538
9.15353059926e-06
-9.16483816873e-05
8.48819988348e-05
9.80783466422e-05
-0.012825427418
0.0128208379615
-9.85265578108e-05
1.09302437244e-05
-9.67109379883e-06
-1.04619366405e-07
-1.76695340954e-05
-0.0118229051372
0.0117933176041
-1.37610620449e-06
0.0128293850062
9.26044111416e-05
2.1285537037e-05
-9.49159342218e-05
-0.0128246867218
3.10051635991e-05
-0.000106684214815
0.0128213145356
9.96567332191e-05
0.000104904200366
0.0128162100462
-0.000102244775696
-4.9171493917e-05
-9.80561034681e-06
0.0117029133431
5.77976932961e-05
-2.68982664738e-05
0.0117514049552
-2.20174362076e-05
9.80035864002e-05
0.01170210939
-3.66658381749e-05
0.012816377433
-0.000105274152989
7.81206147001e-06
-0.0128120608922
0.0128140995425
-0.000111404979852
-8.51031330482e-05
-0.0116793793208
0.011647529086
0.000103116092963
-0.0116767160427
-6.57952178939e-05
0.0116461240642
4.14188560484e-05
-0.000108307198029
0.000101917075553
-7.16303332754e-05
-1.82482456867e-05
8.25826205286e-05
-5.33503798542e-05
-0.000109077848284
7.63783444352e-05
-0.0128192046662
0.0128074855545
7.47775340073e-05
-6.32043947432e-05
-0.0116953075181
0.011664015795
-0.0116980702408
0.0116644469307
-6.441015912e-05
9.0022089666e-05
6.43444256544e-05
-0.0128293589534
-6.97716809233e-05
5.43948736317e-05
-0.0117362083085
-5.49022757079e-05
-0.012834354846
7.70139427033e-05
-0.011726206181
0.00148258825438
0.000430038480384
7.47036174696e-05
6.30947273892e-05
6.33476560674e-05
7.20088108229e-05
-0.006924085081
0.00402933126185
0.000709196604552
-0.00333286479523
-0.015288525759
0.0100084901158
0.01316479119
-0.00529095963415
0.00119287781952
5.2412384268e-05
7.15472335178e-05
6.74337215744e-05
-0.00216846674257
0.00183236662879
0.00418733638177
0.00128578545435
5.75291871263e-05
5.71783777459e-05
6.24370976656e-05
-0.00839955397712
0.00202242387826
-0.0143960422929
0.000743348935362
0.0132503258717
0.00549129681861
0.00357443382509
-0.015666848863
-0.00253120951587
-0.00979978257275
-4.92230994057e-05
-7.23486833087e-05
-6.81176665722e-05
-4.23989645523e-05
-0.000494841673303
0.0012483040969
-0.00423899905777
0.00193860193814
-0.0039472599522
0.00347972838253
-0.00079399107268
0.00781944445797
-2.86500620568e-05
-1.71034483098e-05
1.00208867059e-05
-4.88259990766e-06
-0.0128050433803
-0.00397930089021
0.00165093334404
-0.00400978749515
0.00259025228497
0.000251238386682
1.0780123419e-05
7.86606255002e-06
-3.8332921235e-06
-0.0202216915752
0.00678669944134
-0.00361242649218
0.00464993245577
-0.000106036589472
-0.0128175990644
-4.25721778002e-05
0.0128253594566
0.000101124776376
0.0128192696149
0.000102865222825
-0.000113637812029
-0.012805994531
3.63392121431e-05
9.47909447931e-06
0.0118375794688
8.2851259094e-07
5.31748846322e-05
0.0118347045019
-0.0118356861749
2.74726768576e-05
0.012826719047
-0.000113958344262
-0.012800408945
9.77812689525e-05
0.0118439547799
2.51165088134e-05
-0.000108770386903
0.0128335443599
-3.75763083987e-05
0.000103648075922
-0.0128322190261
0.000113653599853
-0.000114874235488
0.012835650296
3.59062100375e-05
1.05757036829e-05
-6.2339055923e-06
3.3163714784e-05
-0.0118597030277
1.61122200255e-05
0.0118785876662
-0.000112563758392
0.000108978528421
0.0128369365384
1.96744731924e-05
0.0118508161962
-4.65404918784e-05
7.66616477818e-05
-0.011843484942
2.16725963789e-05
-3.90854038724e-05
0.0118684439133
6.27696342949e-05
-9.97354142676e-05
0.0128446892894
8.74009948986e-05
0.0128378734281
-3.20373309143e-05
-0.0128279909869
2.21383703384e-05
-0.0118578072813
0.0118759810249
0.0128418322039
-0.0118447402531
-1.09758152204e-06
0.01281942119
-0.000113714108687
-0.000104784375399
0.0116347615692
0.000126009520899
0.0116439918283
-8.37685191265e-05
-0.000104737277405
2.83094086035e-05
0.0128119932647
9.19289346371e-05
1.0230990951e-05
-0.00012958405098
0.0116180792089
0.000147382108455
0.0128260134861
-0.000111007723104
0.0116314151941
-0.000103859831362
-9.57949068428e-05
0.0128137826143
1.57204138626e-05
8.26356368377e-05
-0.0128288579445
8.41856649862e-05
0.0128294031812
-9.53018180121e-05
1.5378514995e-05
-0.000147557872523
0.000158381334755
5.38494643912e-07
-0.0116218174004
-0.000146037041449
0.0116126737906
-0.00010392089319
7.13776424686e-05
0.0128179343372
-0.000126075423512
-0.0127928809282
6.13724920947e-05
-8.15169585228e-05
6.61720667466e-05
7.51255574872e-05
7.19035616956e-05
-7.52110196894e-05
0.0116626203195
0.0116625111949
-7.05270416733e-05
8.85624038962e-05
0.0116480503059
-8.08057694186e-05
4.26081120789e-05
0.0128009640294
0.0116475002611
0.0116564307213
0.000104431623354
-9.29243155451e-05
-3.15475993543e-05
0.000124191418955
0.0116595633576
-0.000112944294339
-6.00584954238e-05
0.012791461962
4.4998195832e-05
0.012800925921
3.01756052363e-05
-6.80335110083e-06
-0.0116511295748
0.0116460595984
0.012804603216
-0.00012390825634
-0.000117238825102
-0.000130788304103
-0.000388568382257
0.205069453888
-0.00010937484996
0.00028076123646
0.000221740471549
-3.30420582706e-05
-3.74851089423e-05
-4.25982687557e-05
-2.50942558013e-05
-0.000233278481576
0.0513706543703
1.41207910333e-05
-0.00802476082222
0.00012327035404
1.43638380667e-05
1.93243931258e-05
2.57708831528e-05
0.00642203489978
-0.018815676083
0.00454737515243
0.005026498913
0.00495393517253
0.0164572041457
0.0234000005606
0.00496941145379
0.0102466390181
-2.4914815886e-05
-3.03895763148e-05
-2.94642803024e-05
-1.94871241655e-05
0.00014198902838
-0.000392266498704
0.051369010636
-3.24489291548e-05
1.76834689273e-05
-1.97124634054e-05
0.0118651745701
0.0512741379774
-3.91941529701e-05
-5.73740602264e-06
-2.58245699267e-05
-2.47695226099e-05
0.000178812603265
0.0513247435718
-4.06577391161e-05
-4.64351526209e-05
-3.86683943816e-05
-3.76316659954e-05
-0.000151866099751
0.000133965937927
2.41211562041e-05
0.0115785417127
-0.000162700483997
0.000165265982206
-1.29213328074e-05
-9.21198327056e-06
0.000136821677899
0.011665770182
-0.000120915506341
0.0116495833582
-4.63363139361e-05
4.46024724127e-05
0.000135379481788
-0.0116531545725
-0.000130188809601
0.0513671903467
-3.25480324376e-05
-4.12962912305e-05
-3.41302864333e-05
-3.59982085927e-05
0.000110629493017
-8.94541927721e-05
8.03499710135e-05
-1.72030674718e-05
-1.72903477601e-05
-1.34142420132e-05
-1.97826570006e-05
5.68746924103e-05
2.22260724501e-05
0.0513555961383
1.70604077088e-07
-3.33753097297e-05
4.01364496298e-05
0.000116804734772
0.0116455940734
-0.000119530683383
-1.4891694048e-05
2.00501357792e-05
4.84113844811e-05
-0.0116423673979
0.0116396123444
-5.08806490123e-05
3.09700319159e-05
9.85451336305e-06
1.59063875912e-05
0.00403234084406
-0.0112009374322
0.000618472954039
-0.014344369864
-5.59612467059e-05
2.20326089321e-05
3.96829064149e-05
2.34560710086e-05
-0.00652776712803
-3.73621169514e-05
-0.0140243975126
2.46155119117e-05
4.08931436728e-05
2.18074586303e-05
0.00686768071933
-0.00728380982339
0.000398220032769
0.00223530609908
-0.00157459135118
-0.00173970390478
0.00310481631548
0.000253480818845
0.00115365979755
0.00177835795311
-0.012617843571
2.3593535e-05
2.69766310687e-05
2.4684712016e-05
0.0033764080106
-0.000404756606941
-0.00448685330893
2.08736367852e-05
1.56326626475e-05
2.40207962802e-05
-0.00310485324873
-0.000667934576598
-0.00968103338096
0.000760667116966
-0.0128407818128
-7.26638562553e-06
0.000103008351511
-0.000109865004948
0.012829980487
-0.000102720518866
0.0128430571698
2.07379779297e-05
0.0118722927598
-5.77467352894e-06
-8.70758067271e-06
-1.28100773051e-06
0.01186410972
-0.000110539509273
4.81374105645e-07
0.011871709953
0.012833143012
-5.8879220074e-05
-0.0128215200994
-2.53978748823e-05
4.86447581931e-05
0.0128241067904
0.0128312424347
7.0869697602e-05
-8.60797763572e-05
3.01265787855e-05
-0.000163893126643
0.000165800794721
0.0115608616925
1.68847556756e-05
0.0116030064383
-0.000150590633174
-7.40438822945e-05
0.0128339466117
5.9117339255e-05
-0.000151904282784
0.0115913603096
-0.0128077413801
-2.49244334788e-05
3.12893232958e-05
0.012810832319
-4.68827741531e-05
0.0127898601194
3.34949386084e-05
1.67445060716e-05
0.0116375451168
0.000150271144177
2.37183379117e-05
0.0116666547778
-0.000135253873108
0.0116344087186
0.0127955745362
2.45105688146e-05
0.0128173551296
-2.97114585284e-05
1.64140402e-05
-3.3890422878e-05
-5.28118327856e-06
-0.0128067596268
0.0128112543219
-1.0374511559e-06
3.14491067237e-05
-0.0116271767791
0.0116213175417
0.000134421882591
0.00014554745049
4.38832232732e-05
-0.000135255192165
0.0128221038764
-1.72277001797e-05
0.000144865283888
1.144588127e-05
-0.0128250252404
-3.12129383474e-05
-1.44045672393e-05
0.0128261698153
1.19247536019e-05
4.24414061457e-06
0.0128159586285
-1.01337539203e-05
2.97988939067e-05
0.0116158138389
0.000116104144485
9.53375955294e-05
3.16228695374e-05
0.0116445403627
-9.90262346656e-05
-2.97128454418e-06
0.0116088504638
9.57474161917e-05
0.0128161099887
-1.89719953901e-05
0.012829597339
-1.95972125225e-05
-2.41807279921e-05
2.31599247185e-05
3.59605561197e-05
-0.0128181193907
0.0128189539069
-3.40545558735e-05
1.47997665587e-05
-0.0116092555091
5.34509952393e-05
0.0116102521098
7.13109268423e-05
1.99860661234e-05
-7.36085802434e-05
3.65325593085e-05
0.0128304533447
7.52902584832e-05
-2.60253673292e-05
-0.000508528352779
-0.0498245308368
0.0495672821086
0.000548028793378
0.000169444607229
0.000167294127281
0.000185384009048
0.000161888839785
-0.000466254418146
-0.000618696129278
0.0500833336453
7.35313816064e-05
8.43612934601e-05
8.19495015775e-05
7.83007565463e-05
-0.000188138867015
-0.0501936201094
0.000599147360056
-0.000995537609184
-0.0500917390759
0.0501877818477
0.000861398184502
-1.51946699929e-05
1.95786120829e-05
-4.28349718731e-06
1.18112132048e-05
2.61818878345e-05
-0.000748046344366
-3.63082828111e-05
-1.55082496141e-05
-3.27714359932e-05
-2.04449817979e-05
0.00010521178973
0.0503671354567
0.000679238257748
-0.0502984923978
-0.000240594629444
-0.00108076004239
0.00853836846005
-0.00103200783437
0.0044010644061
-0.00993150820805
-0.000248563463341
-0.000209343154052
-0.000204658190724
-0.00017430672202
-0.0059099847329
0.0119324255066
0.00604396892309
-0.00956341345284
-0.000143017779432
-0.00012656342731
-9.64558251008e-05
-0.00198094039539
-0.000108132360641
-0.00478149830392
-0.0127663843876
-0.00449898922661
-9.23098666126e-05
-8.9502230944e-05
-7.66249597825e-05
0.0198036531666
0.00260987720717
-6.1861257032e-05
-0.00683915812736
0.00579430613888
0.000571414192724
0.00434773536834
-0.00369882356284
-4.95531092241e-05
-4.10108989225e-05
-2.29575932913e-05
8.65266586109e-06
-0.00101050490624
1.58399777287e-05
1.32059251545e-05
2.61032537969e-05
-0.00764755371259
-0.00225926651728
-0.000604935074656
0.0114584422328
0.0177524899501
-0.0236575042977
0.0167050559218
0.0171893049335
0.0170178864908
0.0176248471469
0.00958816191547
0.0169618881445
-0.0447768587823
0.0112222282271
0.00888349278353
0.0120199714164
0.00909466288877
-0.011742894494
0.0612030741371
0.022504704787
-0.0272998009681
0.0156260724077
0.0164621948069
0.0122897387786
0.0136869593416
0.00260812305552
-0.0256224019481
0.0128819652869
0.00950089829723
0.0100333239619
0.00721299540514
0.0278311210283
0.0416590855161
0.0110486999321
0.0111197282385
0.00955398375156
-0.0127126878468
-0.0130142949454
0.00925077615753
0.00882468768471
0.00655769305918
0.00691675397246
0.00471875267398
0.0668692622824
-0.0108597742716
0.000202438974633
0.000173408132975
0.000209590051385
0.000214149050999
0.00017020999846
0.0496163935656
-0.00036957145512
-0.00014906959805
-0.0500676993158
0.0496418611128
0.000330735172813
0.000160530502324
0.000195297742635
0.000201742302031
0.000153561531224
-0.000378457754284
-0.0501029320718
0.000291442199448
-0.000285517809948
-0.0119327233505
-7.06244982639e-06
0.011921541198
1.2347710123e-05
0.011932739305
5.74510130049e-06
0.00026183480063
-0.000244893804881
-7.03649483994e-06
-0.0119483863154
0.000222795481217
0.000198780709001
0.00020584704063
0.000216904864418
-0.000375985945942
0.0123340857256
0.012248964849
0.0123126589593
0.01233908187
-0.0005695951662
1.66860717324e-05
0.000256189475294
-0.00023643522697
-1.07630268741e-05
0.0119066405972
0.000419544618709
0.000134219055608
0.000174724203509
0.000134740889008
0.000168795810144
-0.000354034013182
-0.0501718554687
0.0500032349489
0.000116544149347
0.000135583816683
0.000142237970537
0.000114393964939
-0.000363168578872
-0.0502173493202
0.000488088613308
0.0119450157168
0.000233304855021
-0.000217278418024
-0.0119516803186
-3.5371024016e-06
0.0119618527087
0.000148623867869
-0.000148498650758
2.31726134999e-05
-0.0119566893183
-2.84419858502e-05
0.00082536816581
0.000154453006251
0.000173136319193
0.000171188644143
0.000151943513851
0.0493454923887
-0.000217667083922
-0.000169103488822
-0.000212564044456
-0.000179700449099
-0.000138847505609
-0.000105207932549
-0.000129083923292
-0.000101899509372
0.0497959385567
0.000125876375077
0.000118367543152
0.000123191852426
0.000116920073669
-0.000347499197071
0.049807199351
0.000788263121118
0.00010392777265
8.15597100538e-05
0.00010010758698
9.34597824048e-05
-0.000353167859898
-0.000205566428789
0.0119235775066
2.85043477013e-06
0.0118751922693
0.000218304195243
-0.000190508163549
-0.0118938380544
5.70305182878e-05
-6.62965100207e-05
-2.83096303946e-05
0.000139619168683
-0.000132541272539
2.02176727213e-05
0.0119628518534
0.0119652989658
6.48363272735e-06
9.58679452098e-05
-6.71664081848e-05
-3.05868378233e-05
-0.0119699560836
0.0499415727971
5.75964944281e-05
5.54878477458e-05
7.52729685883e-05
3.21843804686e-05
-0.00109873112982
-0.000251667790982
0.00118407852151
5.63883890587e-05
9.34232650695e-06
2.87674645847e-05
3.69450207805e-05
0.050491284732
-0.000332130699158
-0.00153307018065
-0.000165211006978
0.0118715564226
8.73856542873e-05
-9.28564971489e-05
0.000112885539763
-0.000125854670338
-0.0118987627023
0.000176901660333
0.0119216537754
-0.00018675112121
2.96710716926e-05
7.5807604774e-05
-3.99326800985e-05
-5.77232264096e-05
0.0119574860898
8.54419823805e-05
3.54791536782e-05
1.76097883094e-05
-0.00012651498555
-0.0119406159873
0.0119285792982
0.000725679147856
4.86863216789e-05
4.26450125987e-05
5.59030837265e-05
3.409553168e-05
-0.000127149321714
0.0502383487811
3.43156479228e-05
1.49497542906e-05
2.25139968355e-05
2.93392728103e-05
-6.50502978801e-05
-0.0502281203399
0.00067937141512
-0.000108731859863
0.0119594093933
-3.34758375341e-05
-0.0119538266818
0.0119789194821
6.43208697414e-05
-4.70438322537e-05
-0.0119772032091
-1.25421725783e-05
0.0119991711276
1.21522340556e-05
-1.2122096206e-05
3.15332493235e-05
-0.0119972231308
-3.35283175267e-05
0.000979252891671
-1.98707988886e-05
-3.23147421421e-05
-1.09530098543e-05
-4.25428122192e-05
0.0504784048684
1.98554079921e-05
0.0503209949007
-2.09789162343e-05
-8.61308463961e-07
4.86982401689e-06
-2.31617813747e-05
7.09103010322e-05
-2.93983362629e-05
-5.1069086779e-05
-3.26644752979e-05
-5.04983834287e-05
0.050507445675
0.00081717158635
0.000139185381921
-2.41224183427e-05
0.0119704338218
3.94827482775e-07
2.86590796436e-05
4.51580770672e-05
-0.0119432339546
3.36725126723e-05
0.0119211821375
-3.00145260866e-05
1.03473721785e-05
-2.76326166025e-06
2.68003832832e-05
0.0119948358915
-4.1683636607e-05
-2.71820849518e-05
6.60669591875e-05
3.05831922107e-05
-0.0119559561533
0.0119281732161
1.29584749054e-05
0.0119942372727
-2.77549195985e-05
-0.0120008446645
6.17597544759e-05
-0.0119540110521
0.0119280399114
-3.46501132384e-05
-4.2866836836e-05
-0.00235003570756
-0.000258070371078
-0.000288638329541
-0.00025201170294
-0.00541189163889
0.00520885165555
0.0145091056577
-0.0108670361369
-0.00621971798436
8.65802595769e-05
-0.000277651960238
-0.000217925605322
-0.000237178991438
0.0151913921024
-0.01041532807
-0.0111895894782
-0.000278936548656
-0.000269568848314
-0.000296925323872
0.00286371540445
0.00212595996838
-0.00821117003921
-0.00499462618865
0.010972298364
0.00300194449093
0.0159441351722
-0.000347261249495
0.000191135408572
0.0111607874924
-0.00202814916588
-0.00690928053988
-0.00743355395657
0.0151960459655
0.00164581017389
-0.00280684484585
0.0115398938252
0.00240361850351
-0.00791445388395
0.0107842634202
0.00617076585455
-0.0108922982296
0.000521979228383
0.00909545317252
0.0125704890212
0.00187208440455
-0.00752381391588
0.0113616236134
-0.00731977092029
-0.00188604050002
0.00931257551555
0.0023570655896
-0.000204190321141
-0.000216591036999
-0.000193196116089
-0.00986104686089
0.0169754974057
-0.0141205432597
-0.000172202613238
-0.000139782784454
-0.000164224170098
0.0218012591715
-0.00781727557858
0.00311765317729
0.00578911158418
-0.0101015511667
-0.000219884416387
-0.000162394075031
-0.000161795347249
-0.00185806979815
-0.00715285365245
-0.00675979224744
-0.000164579945811
-0.000128854799442
-0.000156892300492
-0.00712300513236
9.09516146465e-05
0.00615006153112
-0.000139221032771
-0.000106348502573
-0.000140984814557
-0.00570439072261
-0.00853967793047
0.012432745046
-0.00573652808281
0.00361570287161
-0.00364224607612
-0.00980331163577
0.0104661361695
0.00428971242724
-0.00712436781039
0.00475517135582
-0.00698302360027
-0.000110004978305
-6.89319478693e-05
-7.73562189328e-05
0.0155523077095
-0.00101144358192
0.00611354448617
-0.00646527576846
-0.000121290109495
-5.66900630015e-05
-9.74936044373e-05
-0.00461587069329
0.00625409427011
-6.90503301609e-05
-4.8141949913e-05
-7.62575366529e-05
0.00945728373633
0.00682830626135
-0.00739060637357
-0.00374805191601
0.00570714588063
0.00816556611641
-0.0076851411425
-0.00245529900399
0.00946655270141
0.00355213411467
-0.00413139217611
-7.66350776923e-05
-4.53733315841e-05
-5.63976088301e-05
-0.0020953866018
-0.00932609310133
-2.23754987448e-05
-2.06441034895e-05
-3.10709918867e-05
0.0146818191806
0.000378469568169
0.00215189613558
0.00230802323552
-0.00769977833063
-0.00605909221427
0.00806094835541
0.00905206633926
-0.00339293031881
-0.00426485117844
0.00493926936862
-0.00288443648597
-3.87826673608e-05
-7.05071671908e-06
-2.03641831453e-05
0.00486515984159
-0.00415017706715
-0.0017982098715
-2.38055440182e-05
2.01380287493e-06
-8.57556979428e-06
-0.000972384973347
1.08880882978e-05
1.05096611398e-05
4.84062544076e-07
-0.000163426433091
0.00187548253102
0.01172387641
-0.00622161537249
-0.00285236371314
0.0157863987912
0.0126622414173
-0.0047132292932
0.0173668019288
-0.00381151562087
0.0125281412192
0.000236161207755
-4.3312693143e-05
3.77309574205e-05
-0.0125853309897
5.2828488165e-05
-0.0125145342079
0.0124408781324
-5.52494214549e-05
-2.65707655258e-06
-0.000234710631408
8.02468629262e-06
-0.0119614223519
-0.000292015608611
-0.0119323466653
6.54841491608e-06
0.0119220011988
4.7039512136e-05
0.0124557503756
9.7231921998e-06
-0.0119607223643
-4.79360463529e-05
-0.012574632158
0.0125413125887
4.19126415035e-05
0.000209477967818
-0.0125945777632
-5.01746464102e-05
-0.0125511765975
0.0124898224799
6.17986383221e-05
-0.000263934351043
-0.0119444345913
0.0119301263548
-0.000189241894147
-9.14111604103e-06
7.49358089055e-06
-0.0119754841181
0.01247574959
5.43855647563e-05
-0.0125995612467
-0.0119715349382
-0.0124216898681
9.32611660903e-05
0.000273609113399
-8.95784866601e-05
0.0123671580651
-7.37366901177e-05
0.0124447524634
8.08951827063e-05
-0.00025728529408
0.0119006593995
-3.38699342237e-06
-0.000255750946867
-1.41875056568e-05
2.55188630188e-05
0.0118815067082
-7.11934687796e-05
0.000102344163785
0.0123967872102
-4.3488560878e-06
0.0118673256423
-6.29687562575e-05
0.0125680018702
0.000165339356453
7.22911028733e-05
-0.0126084632493
-0.0125609255215
6.84014378346e-05
0.012511672251
-0.000170700910772
-4.54913055171e-06
-0.0119732439473
-0.000199516549479
-0.0119572907822
-1.39093784659e-05
0.011950698383
-0.0126055814503
8.06432901458e-05
0.0125249183842
-1.75428061683e-05
-0.0119722736705
0.0125747507319
8.07206693819e-05
0.000143566109812
-0.0126102590133
-9.09061761506e-05
-0.0125834360263
0.0125553895105
0.000106028095428
-0.000164565146543
-0.011951819512
0.0119532239071
-0.000132597690581
2.77177110404e-05
-0.0119608754317
-3.07070599046e-05
0.0125421496926
-0.012612857045
9.19182878769e-05
-0.0119623333244
-0.000103533144831
-0.0124910285065
0.000185086412691
0.0124600806175
0.000118864912929
0.0124730320563
8.12368908073e-05
-0.0002227031415
1.74473315022e-05
0.0119051671341
-0.00018413102094
0.0119361866915
-8.27648370747e-06
0.0124346574329
9.2953057125e-05
0.0119257446951
7.95772541743e-06
-0.000123925080075
0.0124428163792
0.000157271583945
0.00013853769986
-0.0124082914549
0.000159327091443
0.0123955503689
-0.000164064984821
-0.00019825163855
2.97929660612e-05
-3.98383642556e-05
-0.000148616627183
-0.0119229498154
5.68272162184e-05
0.0119092480085
-0.000124699677189
0.000171332265162
0.0124339052287
2.82653417498e-05
-0.0125102625367
0.000123532244914
0.000144067936065
0.0124876573572
-0.000100025306895
0.0125259649352
0.000115284352329
-0.00014801966206
0.0119484299044
-0.000121122469743
6.00746699351e-06
0.0119673181016
-1.83722202774e-05
0.0125082483875
0.00013699782903
0.0119500331492
0.0124725267301
0.000139867380312
0.000117741206171
-0.000167371224026
-0.0124955216972
0.01249960876
0.000177686701312
-0.000106897822234
-0.0119467455362
0.0119407582527
-9.10102733008e-05
-8.15317715037e-06
-9.64465823495e-06
0.0124696771624
0.000154992262568
-0.000232624973368
-0.0124373378002
9.51740661697e-05
0.0124594895016
0.000239629207371
-0.000124317496063
0.0123943129313
0.000192365816648
-0.00015632797601
-0.000200017881363
-0.000139993042698
0.000115297413511
0.0118723748871
-0.000119233959915
-0.000125116050972
0.0119025047786
9.25535373473e-05
0.0124144097195
-0.000150593706002
-0.000242136752132
0.000199985835847
-0.000136270738326
0.011897991723
0.00011860092729
-0.000265804419277
9.25767716749e-05
0.0125053978415
0.000272928233436
-0.000145623488744
-0.0124629399
0.000304180807764
0.0125348203715
-0.000327763007517
-0.000174219991693
-0.000132181144086
0.000148690623865
-0.000152925840769
-0.0119146550716
-7.71142866492e-05
0.000173595042461
0.0119260298055
-0.00027555807336
-0.000171057383155
0.000147320578118
0.000305449363243
0.0125639367918
-0.000137113838884
-0.0124753068487
0.000223868540438
4.77564368598e-05
0.0125009189526
-0.000191678611759
0.0125077308435
0.000199094702547
-7.7886817755e-05
0.0119319375112
-9.43902263658e-06
-7.99007845423e-05
0.0119417055471
4.83240847485e-05
0.0125309310522
0.000223402304137
0.0119208767664
0.000250206204256
4.02320581778e-05
0.0125396930542
-0.0125627983943
-0.000272333273782
0.000257072038532
0.0126049906965
-0.0119282398451
-1.98443200312e-05
0.0119258408862
-5.18090070773e-06
-0.000103664593788
6.17986112324e-05
0.000241905900231
0.0125897507347
-0.000134853377086
-0.0125577050183
8.06570290984e-05
0.012546960412
0.000138473458465
0.0125432455922
0.000116097651664
-0.0125683829945
-9.75342078262e-05
-2.52547401418e-05
0.0119714342407
-9.5552219265e-05
0.0119673529638
-0.0119569092106
-3.78898551732e-05
0.0125298895787
-0.0125802966404
0.000121649027706
0.0119814561771
-3.54286556786e-05
-0.000150238823122
0.0125396961157
5.30365549439e-05
0.000153238197572
-0.0125194244838
0.000167815329582
0.0125249059173
-7.1182076706e-05
-2.07480644981e-05
-2.81345401014e-05
-0.0119894544352
-3.1133901119e-05
0.0119908373231
0.000167994784454
0.0125454869958
-3.20438309868e-05
0.0125570803162
0.000148493356567
4.57010873489e-05
-0.0125636826576
-0.000159233113462
-0.0125711846887
0.0125767154699
0.000156543447886
-2.57959274891e-05
-0.0119939422834
0.011997783925
-3.15170172498e-05
2.75126914762e-05
-0.0119876597427
-2.61830789061e-05
0.0125625786365
-0.0125749175345