/*--------------------------------*- C++ -*----------------------------------*\
| =========                 |                                                 |
| \\      /  F ield         | OpenFOAM: The Open Source CFD Toolbox           |
|  \\    /   O peration     | Version:  v1906                                 |
|   \\  /    A nd           | Web:      www.OpenFOAM.com                      |
|    \\/     M anipulation  |                                                 |
\*---------------------------------------------------------------------------*/
FoamFile
{
    version     2.0;
    format      ascii;
    class       volVectorField;
    location    "12";
    object      U;
}
// * * * * * * * * * * * * * * * * * * * * * * * * * * * * * * * * * * * * * //

dimensions      [0 1 -1 0 0 0 0];


internalField   nonuniform List<vector> 
28582
(
(0.815862871051 0.00437023232508 -0.00062773025532)
(0.817132032398 0.0038483069232 -0.000631247360456)
(0.81658016414 0.00468566121991 -0.000283806991703)
(0.817651489925 0.00397210498008 3.84040751796e-05)
(0.816894680102 0.00482847041106 -0.00133334423084)
(0.81847144906 0.00434020564883 -0.00020643329685)
(0.821858386908 0.00493957461632 -0.00132314592465)
(0.821961363226 0.00547713120807 0.000480000786756)
(-0.167551582105 0.0188913647769 0.000800946960196)
(-0.324836978001 -0.0424125644439 0.00265276197054)
(-0.0225578309099 0.0645518501566 -0.328315812657)
(0.821712444606 0.00512511262157 -0.00105340444789)
(0.759428338707 0.00291443928258 -0.00215505361571)
(0.756509953607 -0.00104322903454 -0.000576251037607)
(0.821774389497 0.00553447762348 0.000821536480741)
(0.821517263494 0.00466388662478 0.00146007268744)
(0.7532348835 -0.00243174662216 2.51836512818e-05)
(0.820311680582 0.00695786920242 0.00248385484466)
(0.820453790699 0.00615880856059 0.00378122294358)
(0.814765641563 0.00704705366219 -0.000891556534009)
(0.818388402876 0.00225407580884 -0.00046943883392)
(0.817941366818 0.00165523237851 -0.000686701720116)
(0.815053951609 0.00690669254289 -0.000737739510935)
(0.818719087599 0.00277341248525 0.000529665728257)
(0.818229855295 0.00184971838065 0.000557781110865)
(0.815011398653 0.0068742084686 -0.00238374484347)
(0.819148088106 0.0029805042992 -0.000569196857662)
(0.819505199976 0.00739365716937 -0.00082533584363)
(0.821836639692 0.00548078238494 0.000226586951514)
(-0.345009054241 -0.0973881823567 -0.00310546031365)
(0.122085915376 0.30354379563 -0.304771602409)
(-0.0904282861382 -0.204100929845 -0.221951444544)
(0.821149752238 0.00730207736533 -0.00166739271278)
(0.821003024455 0.00617136922871 -0.00165259377531)
(0.757189259332 -9.15899743114e-05 -0.00220600312603)
(0.75956026915 0.000514788196078 -0.00221895711911)
(0.821519556493 0.00554763888739 -0.00332955491312)
(0.821448921207 0.00488416772558 -0.00081802613855)
(0.821351512217 0.00460141099162 0.000820855871765)
(0.820609016507 0.00433574391798 -0.000180026802147)
(0.820139966184 0.00679827156473 0.00220075488323)
(0.74241653381 -0.0108523872345 -0.000371840816188)
(0.82007879464 0.00587303411569 0.00355300041489)
(0.818648592227 0.00415293942924 0.00335440925806)
(-0.245098230946 0.00922375881371 0.00982274376687)
(-0.121148081774 0.00748384951464 0.0101179105508)
(-0.0997517033078 0.142126081389 -0.10824907199)
(-0.0983586563054 0.163143541099 -0.0302250579498)
(-0.293525545621 -0.00214456900271 0.00990932343369)
(-0.157342461522 0.134429971238 -0.0447695118341)
(0.822060984856 0.00553791307645 -0.00180395610732)
(0.822046156125 0.00500530816453 -0.000221351000468)
(0.759302878207 0.00166642324763 -0.000595442436693)
(0.759030988029 0.00386790916846 -0.00239614318592)
(0.822203562439 0.00484802928753 -0.00227637437574)
(0.758804160967 0.00243817621678 -0.000827457686425)
(0.821729170531 0.00566321914483 5.33226846688e-05)
(0.821598297705 0.00552269159627 0.000293200431782)
(0.820431349909 0.00629648471348 0.00122528109328)
(0.757975258086 0.000287624135929 2.24372275184e-06)
(0.75630528634 -0.000350444310273 -0.000240651652995)
(0.820920500874 0.00604255221332 0.00159348780042)
(0.757832424417 0.0010686486634 0.000111847203683)
(0.821063373305 0.00602087017957 0.000426068315456)
(0.820772149745 0.00668631326978 0.00208979381308)
(0.820327165493 0.00664135967051 0.00101471149837)
(0.751137268813 -0.00354396440529 -0.000222734525165)
(0.753202541333 -0.00176046929671 0.00090599580159)
(0.820887286818 0.00649985853752 0.00162771823826)
(0.750957779933 -0.00258680050433 0.00111667218034)
(0.820397399872 0.00675970289778 0.00110972003535)
(0.820252733173 0.00715304812345 0.000577105709604)
(0.746450785133 -0.00616046350002 0.000632330798051)
(0.74652523944 -0.00470243552166 0.00263013618814)
(0.820502992472 0.00680446359731 0.00259736024615)
(0.748463338726 -0.00508338416944 0.000921832566958)
(0.74820310673 -0.00395571323933 0.00200735704525)
(0.820290700903 0.0069395612761 0.00106688706415)
(0.820513729874 0.00538771385205 0.00452493346331)
(0.747792369986 -0.00412392015198 0.00390930933118)
(0.748039652211 -0.00391895801403 0.00448009407485)
(0.820828648482 0.00612363152953 0.00369624636802)
(0.749607001123 -0.00347129086959 0.00373884806707)
(0.820987494545 0.00536880518386 0.00395834755906)
(0.749437807611 -0.00340711716885 0.00357919921134)
(-0.0725232046136 -0.00125648189415 -0.00838735885779)
(-0.240316320087 0.14335989809 0.0665504210064)
(-0.077060929673 0.0426749898544 -0.00746512762876)
(-0.0939766052988 -0.0107727669888 -0.0055630840027)
(-0.212261707173 0.0281197672475 0.0493554139743)
(-0.245243191421 -0.0216115427609 0.048136955799)
(-0.134584131665 -0.0607578226721 0.00162644195589)
(-0.0772527348277 -0.00810386593815 -0.0730799372805)
(-0.0616245450205 -0.039594555324 0.00860540117015)
(-0.187036643257 -0.121396537483 -0.0048338853533)
(-0.0739359299592 -0.00823233363029 -0.0183123114865)
(-0.3292672418 -0.128443922458 -0.00259550307085)
(-0.0712639599444 -0.0571671968024 0.0171606607162)
(0.820661098343 0.00661215532268 -0.00382211211735)
(0.820116228193 0.00695392722733 -0.00384731022225)
(0.757872991134 9.27972920327e-05 -0.00176371868767)
(0.757540832968 0.00114170158398 -0.0027727940624)
(0.820731245211 0.00708390830502 -0.0035070246559)
(0.819872667937 0.00644167919336 -0.00404214490115)
(0.758088776438 0.00111768394238 -0.00226230985361)
(0.82122728001 0.00679827446616 -0.00298482422571)
(0.821553363022 0.00735880074264 -0.00299433686217)
(0.758631742154 0.000355710426448 -0.00200332532967)
(0.760041697575 0.000813891557715 -0.00242745550683)
(0.821223724666 0.00713572033277 -0.00294871195709)
(0.821637369658 0.00709919700969 -0.00280433850838)
(0.759052640915 0.000922100373076 -0.00242800619742)
(0.758662113841 0.004035673012 -0.00246192675888)
(0.759156854552 0.00337850697286 -0.00174184467996)
(0.822192318373 0.00594606496354 -0.00229801096367)
(0.821427762722 0.00626672258827 -0.00280757341763)
(0.759733532217 0.00142684387679 -0.00174002760589)
(0.821974203165 0.00675109960313 -0.00217644467539)
(0.758960346775 0.00178037826112 -0.00202511051289)
(0.820380682874 0.00720811780336 -0.000103624839907)
(0.745012896198 -0.00752231031472 9.57890615254e-05)
(0.745106945474 -0.00598134037777 0.00269009178796)
(0.820120589893 0.00654593192374 0.00152346199484)
(0.743864608334 -0.00915700577009 -0.000154265699915)
(0.820618178744 0.00695286009616 -0.000970858607108)
(0.744505855503 -0.00726786276169 0.00261590185623)
(0.820221215403 0.00597773998601 0.000722862348542)
(0.820916677781 0.00594256609633 -0.00229264714439)
(0.743069988176 -0.0100608077398 -0.000338944345611)
(0.743574909137 -0.00991859525083 0.000835157261052)
(0.820813751725 0.00645368133301 -0.00154532834087)
(0.820337343706 0.00518848161406 -0.000706806622958)
(0.744130867342 -0.00860152821204 0.00181722013355)
(0.819302441339 0.00479979490158 0.00396109921011)
(0.819708893901 0.0050650319281 0.0046120977275)
(0.746511251562 -0.00499038244324 0.00393833334378)
(0.746451166459 -0.00450500652318 0.00492342074486)
(0.745989235404 -0.00524099405221 0.00487721061634)
(0.819768778043 0.00558270961454 0.00270834085383)
(0.745823545173 -0.0059552259691 0.00367747422909)
(0.745742920751 -0.00614532139461 0.00430189380556)
(0.745910497757 -0.00746947602758 0.00365266084709)
(0.818477383723 0.00333808660919 0.00172222996047)
(0.819454359684 0.00497493816502 0.00194476196302)
(0.745395999908 -0.00835352631834 0.00139794157866)
(0.819365425334 0.004250143047 -2.24824377945e-05)
(0.745793759848 -0.00702811324693 0.00288804316273)
(0.819452416708 0.00136148498973 -0.00127823452861)
(0.821687789999 0.00387407211233 -0.00211527394877)
(-0.310090852197 -0.12599065456 -0.00290752693499)
(0.0529342997433 -0.0402950595675 -0.290413259145)
(0.821696030754 0.00580006638894 -0.00191159255474)
(0.759523297509 0.00198615699889 -0.00201339248979)
(0.820087850414 0.00351280611927 -0.00220019297076)
(0.820333356311 0.00232359632814 -0.00221912164603)
(0.741215573558 -0.0107921201057 -0.000554300939423)
(0.7469436 -0.00814564116707 0.00173638829124)
(0.745590039919 -0.00902634890117 -0.00224870560251)
(0.82114588499 0.00133754224072 -0.00231320892428)
(0.821505792085 -0.00017544850067 -0.0010941892085)
(0.74547001905 -0.0080490590057 -0.00198778599656)
(0.745328323978 -0.00326825473143 -0.000633331550414)
(-0.146222085773 -0.0372573027056 0.00113146552333)
(-0.221347893056 -0.135835414983 -0.00506415425964)
(-0.225943285953 -0.128727541064 -0.00258854831808)
(-0.0315287664452 -0.0114885087158 0.011344975281)
(-0.0356882913013 0.021415237166 0.00539228694837)
(-0.030109925358 0.0119302740785 0.00419289766244)
(-0.218586489579 -0.0736926968536 -0.00137904614284)
(-0.185145136652 0.0228904896789 -0.00227150187012)
(0.821240921569 0.00691222985718 -0.000681756119622)
(0.821908725491 0.00622858556396 -0.00166242599378)
(0.759988394076 0.000402132292796 -0.00213763784186)
(0.759208235979 0.00113003897506 -0.000656246637669)
(0.821702587915 0.00691428107223 -0.00184978339805)
(0.759698626287 -8.59181670003e-05 -0.0012863208087)
(0.821361800732 0.00625115103248 -7.30423394956e-05)
(0.820467391055 0.0032978197912 -0.0023155977397)
(0.820963965678 0.00536879987913 -0.00253277744187)
(0.740528288347 -0.0107801760339 -0.000607336627621)
(0.742979004209 -0.0104277418737 4.91767257519e-06)
(0.821060234881 0.00466839136156 -0.00304613587643)
(0.820265254314 0.00418180304977 -0.00161842190782)
(0.742350104207 -0.0103912629394 -0.000406126640099)
(0.81950068919 0.00258068930409 -0.00232414160028)
(0.818416453854 0.00256028198153 0.000272315898357)
(0.745182169288 -0.0090619945283 -0.000271983952312)
(0.746129370308 -0.00943808339183 -0.000335525415024)
(0.819225737251 0.00330594299796 -0.00126210525533)
(0.74456448907 -0.00940188701743 -0.000540443145485)
(0.818571773715 0.00174849201105 -0.00172312993587)
(0.819675866659 0.00158707270539 -0.00269094081341)
(0.81939113989 0.00012710946417 -0.00342829027206)
(0.744079112267 -0.00834508056444 -0.00105236896304)
(0.746258976872 -0.00949500156559 -0.00178820142331)
(0.820227412512 0.000678731214884 -0.0027927650536)
(0.744286317223 -0.0091041909513 -0.00107588755203)
(0.818606823322 0.000851883623309 -0.00289117633885)
(0.821032862376 -0.000770610009511 -0.00229898459017)
(0.820148758555 -0.000552808206961 -0.00307768821227)
(0.743541170856 -0.00696919576049 -0.00115651928642)
(0.745384657092 -0.00653090212456 -0.00158375164468)
(0.820694446329 -9.74596427496e-07 -0.00243966597877)
(0.743295051881 -0.00561414028811 -0.0014071306994)
(0.820415436868 -0.00113467679829 -0.00249566130916)
(0.821386632474 -0.00138720253597 -0.00142301255892)
(0.820608645872 -0.00241156746533 -0.00147223914705)
(0.743217019256 -0.00294703134167 -0.000500844440218)
(0.745154533034 -0.00480551974982 -0.000644676435837)
(0.821468924461 -0.00223178357718 -0.00105542735136)
(0.742882906878 -0.00427576580602 -0.000758561727217)
(0.820633782852 -0.00172580389039 -0.00163732969462)
(0.797758696714 0.00813962244659 0.00912363406134)
(0.802996563796 0.0101288790485 0.00337300524074)
(0.802228116448 0.0153944727098 -0.000476732913177)
(0.805178536215 0.0115207464418 -0.0021018277863)
(-0.0670540073718 0.0460389666665 0.0247605598314)
(0.141907406217 0.069705091634 0.0121176114569)
(-0.256486031279 0.0679370186027 0.0106636360618)
(-0.0398666355965 0.103166219677 0.00923799054591)
(-0.154290090207 -0.00873363692696 -0.000389883635191)
(-0.0885371598131 -0.0212220559988 -0.34302317299)
(0.196507054699 -0.291337117489 -0.0978973993846)
(-0.0622338012787 -0.139771597293 -0.310374462508)
(0.210820884135 -0.109437931612 -0.243107100047)
(0.0555768166389 -0.0830107224068 -0.332066062366)
(0.301673036022 -0.0734608627038 -0.260754543546)
(0.797941044121 0.00287576128006 0.0084378698559)
(0.799329155489 0.00389607621408 0.00862561741755)
(0.763482881697 -0.00100987249322 0.0134037412772)
(0.764538567068 0.000490175754369 0.0115322570301)
(0.793942943936 0.00719192367417 0.0112934916491)
(0.76303300127 0.00124436191563 0.0114882789553)
(0.800682127123 0.00627595247121 0.00763087524612)
(0.80284953051 0.00743980446454 0.00737150678517)
(0.764873278815 0.000151582674772 0.0100495694028)
(0.765411285747 -0.0017021814103 0.00703182378661)
(0.793760485806 0.0133175511927 0.00950375778005)
(0.80056528812 0.00967666841984 0.00622568489577)
(0.798138521614 0.0133455772985 0.00552162710736)
(0.764059370871 0.000619350994865 0.0100891495827)
(0.761816660918 0.00400633724428 0.0103981875437)
(0.765672688138 -0.00162038674407 0.00659638225309)
(0.766805180998 0.00107212407471 0.00334857357026)
(0.799215051252 0.0173286913591 0.00354116675521)
(0.802350172054 0.0215900878874 0.003671423285)
(0.760534866348 0.00570830993217 0.00967435515452)
(0.761546405616 0.0116707719512 0.0079582990924)
(0.76563675151 0.00261609245 0.00208233325055)
(0.763479322885 0.0066852775024 -0.000649027576397)
(0.801659311576 0.0123675029553 0.0019226196739)
(0.803661591077 0.0115081459915 0.000668180816351)
(0.765247815433 -0.00202188549297 0.00561330259683)
(0.767190892101 -0.000195043457492 0.00275527242797)
(0.768293184689 -0.00212172340659 0.000808295468226)
(0.804244205044 0.0176591110886 -0.000993039466438)
(0.804326731236 0.0130231215625 -0.00133778454992)
(0.806000568319 0.0144046894915 -0.00260553507726)
(0.766467516175 0.00103247907647 0.00149076538641)
(0.763683310794 0.00396089502108 -0.00196890029945)
(0.767874122232 -0.00184014232944 0.000149740283436)
(0.764414161438 -0.00237677340395 -0.00291833056249)
(0.767916974076 -0.00181136359394 -0.000577556616722)
(0.764284216899 -0.00277969894188 -0.00246435242596)
(-0.155656688417 -0.0703367692303 0.0273322679594)
(-0.165183276113 -0.0179685564303 0.0260422614913)
(-0.0276691158041 -0.0150948064447 0.028446396683)
(-0.198633325428 -0.0712665301818 -0.315531720504)
(-0.0437876456874 0.0143177139242 -0.322831975425)
(-0.183603094737 -0.0883316794336 -0.322118655101)
(-0.0189085182041 -0.0186222202866 -0.33330305999)
(0.0426141165504 -0.12526839506 -0.293977388776)
(0.0583590116611 -0.221906019465 -0.232440223512)
(0.0515118593904 -0.135356647326 -0.311343436937)
(0.0303108083555 -0.145316169124 -0.238657874249)
(-0.198498775514 0.0202118009254 0.0223055255965)
(-0.285796347093 0.0565381794775 0.0170743876119)
(0.045618908775 0.0647258343882 0.0203561886671)
(-0.164977740383 0.0885342195337 0.0173627483876)
(-0.0509543822406 0.108472045332 0.0158978686745)
(-0.14892990721 -0.138625505782 -0.290086196599)
(-0.0219686478761 -0.0773190703795 -0.301225966027)
(-0.110652289266 -0.154307857224 -0.195858785474)
(-0.00417730503655 -0.11333383513 -0.218434588382)
(0.225927324034 0.050353772276 0.0041007340921)
(0.0564496513686 0.111781793834 0.0126812303925)
(0.128332628368 0.0939114579223 0.00701274268325)
(0.110620029951 -0.102153776811 -0.259871586371)
(0.148242862635 -0.0856865367723 -0.174871900348)
(0.116942579211 -0.128513218396 -0.177372785316)
(0.185457301241 -0.0382813773951 -0.111095893253)
(-0.1415406731 0.0882351634209 0.00931218150787)
(-0.187142315946 0.0302190601007 0.00240150091223)
(0.000474193628615 -0.140410474066 -0.136572782747)
(0.0628785515283 -0.103859634701 -0.132564013707)
(0.0777703221685 -0.0869485286314 -0.081968966634)
(0.0561459813253 0.100746152842 0.00775562491575)
(-0.110912880225 0.0396593792671 0.00295257764408)
(-0.0235120043948 0.0569272862671 0.00170475328835)
(0.168963994638 -0.11063386029 -0.113153875022)
(0.249209976716 -0.0365879912491 -0.0724213333648)
(0.187807054308 -0.0910361988341 -0.057441391521)
(0.256569268105 -0.0617116559402 -0.0180548700085)
(0.803717503045 0.0026084340012 0.0144560864985)
(0.799342795066 0.0035926127893 0.0182372372575)
(0.764733357455 -0.000730807804054 0.0107123587341)
(0.763459108204 0.000210147844424 0.013875288715)
(0.800225231932 0.00314770308807 0.0185774399194)
(0.764647046132 0.00054112764756 0.010959531886)
(0.803002923878 0.00292886351272 0.0142936880324)
(0.804203608367 0.00248956137472 0.0130061770087)
(0.802259209524 0.00346592782499 0.0161650831836)
(0.764107714771 0.000492224319945 0.0123738319823)
(0.765539071048 0.000738437962996 0.00838693333799)
(0.801422229434 0.00306564366118 0.0170651755711)
(0.804720353251 0.00307845949886 0.0121003691942)
(0.765346258278 0.000514739005128 0.00951067977311)
(0.794337636355 0.00573437327556 0.0179852839458)
(0.798179889338 0.00489377422232 0.015558735186)
(0.762887273048 0.000251399540545 0.0124547348193)
(0.761542875916 0.00154936739749 0.0130724135381)
(0.796984053567 0.00462845922019 0.0165545495939)
(0.795913739459 0.00610161837313 0.0172324573774)
(0.76099358248 0.000376207390087 0.0138528983498)
(0.805983999522 0.00449457672177 0.0105056640536)
(0.802525996435 0.00420054476778 0.0145412033416)
(0.765669156529 0.000128681997891 0.00764013238414)
(0.765174747371 -0.000494377759419 0.00920802884768)
(0.805471291 0.00382072636548 0.0107670246221)
(0.802981074905 0.00488238713019 0.013765177519)
(0.765951703079 -0.000631422422367 0.0076560692145)
(0.806469775714 0.00501491005552 0.00895025046019)
(0.804239647181 0.00630895454114 0.0105645653332)
(0.764998772713 -0.00120780449069 0.0077483827144)
(0.765452481442 -0.00192716260577 0.00630233175998)
(0.803458058258 0.00563948300078 0.0113404122423)
(0.806870208331 0.00554715534247 0.0085240870819)
(0.76542098681 -0.00149347826261 0.00678598957006)
(0.798494449113 0.00713550993829 0.0133163150087)
(0.800022783597 0.00516317047781 0.0134217728817)
(0.762873201207 0.00144496589771 0.011231303358)
(0.764469311521 -0.000211418598945 0.00888840441548)
(0.796931782113 0.00655847579073 0.0151362045944)
(0.800875735874 0.0056173493623 0.0126246242196)
(0.764038600082 0.000870192722247 0.00915826003892)
(0.7971103836 0.00841405382082 0.0116462481128)
(0.794056902199 0.0103587393651 0.0135019812474)
(0.762292668105 0.00217799018978 0.0103272254816)
(0.763787239131 0.00371050346763 0.00800334601088)
(0.795316253804 0.00799082413786 0.0135566502812)
(0.796211347586 0.0105530165283 0.0113332996295)
(0.763417146498 0.00195669575453 0.00782226146386)
(0.80000192016 0.00783839014962 0.0102706325491)
(0.802837260847 0.00697249170453 0.00943813335214)
(0.764940799885 -0.000926943418779 0.00737810425889)
(0.766020458123 -0.000834869084461 0.00598153143226)
(0.802079451916 0.006222711044 0.0100958112603)
(0.801290841214 0.00840589236945 0.00921156543238)
(0.764994422145 0.000104689477506 0.00722993853995)
(0.798974355305 0.0088818918152 0.00851185470511)
(0.799680813848 0.0110755209202 0.00608036660369)
(0.765354142844 0.00294167423953 0.00584180889883)
(0.766200661525 -0.000197932080009 0.00434982905597)
(0.798132789175 0.010882481872 0.00799968565997)
(0.800281574427 0.00949310673518 0.00728515310184)
(0.765078195136 0.00125769496433 0.00592996245707)
(0.796908066367 0.0151421989853 0.00863037310797)
(0.793894255317 0.0126165186524 0.012030587788)
(0.760808647538 0.00745552850732 0.00831394899431)
(0.762477372773 0.00597094680893 0.00762497136309)
(0.794518081222 0.0152586772016 0.0112966088118)
(0.79623669502 0.0125426841789 0.0099265500397)
(0.762648772599 0.00782241962899 0.00547113334259)
(0.79944496065 0.017260821842 0.0079156621385)
(0.798880630631 0.0202432888882 0.0106790670498)
(0.761221745331 0.00969635830604 0.00870741747181)
(0.762281279598 0.011608788604 0.00478802787477)
(0.796841395013 0.0173736009113 0.0104904746382)
(0.76252378974 0.00975309825426 0.00607014268566)
(0.801493151297 0.0195748485405 0.00701202344665)
(0.79920459432 0.0146857415113 0.00437271398588)
(0.800269473506 0.0124668518881 0.00419634307072)
(0.764206842364 0.00506478433441 0.00479537781035)
(0.765708421915 0.00409285858301 0.000131663165448)
(0.798440657102 0.012474395623 0.00636605974868)
(0.801105696825 0.0143964499967 0.00172760110983)
(0.764356743387 0.00650866024525 0.0031580500354)
(0.801596425747 0.0166580882218 0.0037082982224)
(0.804944020092 0.0170480669667 -0.000955394012087)
(0.762765461008 0.00982826761497 0.00188317026704)
(0.76448881657 0.00513932047798 0.000198160004793)
(0.803167776096 0.0158183045299 0.000994031815316)
(0.763437814678 0.00838563553787 0.00289738085563)
(0.803562235511 0.0183425715673 0.00171181341039)
(0.803499745303 0.00878644277324 0.00620429673024)
(0.803895727909 0.00741942130854 0.00747929840274)
(0.765916966618 -0.00146540391892 0.00502174522257)
(0.76558208519 -0.00236114790902 0.00494829376116)
(0.802485735603 0.0087572934579 0.00712551246806)
(0.804660189144 0.00762328503373 0.00674508482328)
(0.766486944522 -0.00200098176147 0.00416795817376)
(0.802829118852 0.00978459683592 0.00446124503689)
(0.801286114674 0.0111423711766 0.00386985645599)
(0.766469842927 -0.00106979377231 0.00370333207139)
(0.767927076782 -0.0014731061862 0.00139090597824)
(0.801697229881 0.00987214777894 0.00529463234782)
(0.802574449742 0.0108503557688 0.00293255572132)
(0.767197947608 -0.00173426537864 0.00264422271001)
(0.803939526877 0.00967173324957 0.00359290174862)
(0.804510850842 0.0101365451681 0.0014220222432)
(0.768139376116 -0.00214743744823 0.00173190691092)
(0.767720621708 -0.00183209644751 0.00190581370218)
(0.803670685898 0.0105559014457 0.0023094738415)
(0.804780383467 0.00960145368411 0.00297563058329)
(0.7674574011 -0.00195387226314 0.00274004202971)
(0.803701415818 0.0130144523837 -0.00107655312489)
(0.801773872198 0.0125719493024 0.00243537282926)
(0.766374917364 0.00184904900163 -0.000195200699618)
(0.767279117715 -0.000927115862724 0.000420848872131)
(0.802579326707 0.013844728866 -0.000134768118104)
(0.802944771197 0.0119688358255 0.00159210015008)
(0.766928409362 -0.000718014909478 -0.00155680086484)
(0.80511395825 0.0138944823767 -0.00148671949053)
(0.805718162106 0.0157594201893 -0.0027463623007)
(0.764858642302 0.00254835820636 -0.000848609882724)
(0.763987830546 0.000310170737241 -0.00326428118433)
(0.804300057691 0.0149907359218 -0.00062997363444)
(0.765545667797 -0.000390461871035 -0.00185391541333)
(0.806508074631 0.0146681361867 -0.00368571772176)
(0.804626919326 0.012315339062 -0.00127529581686)
(0.804906847686 0.0109279235698 0.000579595045928)
(0.767777142287 -0.0017289347726 0.000937680457283)
(0.767362969888 -0.00242441941147 -0.00131741748854)
(0.804002406027 0.0114722052134 0.0012525911135)
(0.805377042077 0.0114967552093 -0.00164575435257)
(0.767133101535 -0.00197389924092 -0.000742005778938)
(0.806024367932 0.0131327641592 -0.00175167582347)
(0.807674358869 0.0127117365384 -0.00404675943658)
(0.764239170147 -0.00151420973731 -0.00241235737766)
(0.765961343392 -0.00228731851869 -0.00163080725019)
(0.806767121012 0.0120569617812 -0.00216061366503)
(0.765760621685 -0.0018366859835 -0.00119956004744)
(0.807146111361 0.0137031906782 -0.0038059581517)
(0.80632627108 0.0105219431134 -0.00269672141042)
(0.805459256417 0.0105432316053 -0.000533886140935)
(0.767173599772 -0.00259657703404 -0.00152203613879)
(0.76777811351 -0.00178537945732 -0.000783660469684)
(0.805951359995 0.0108339873142 -0.00226980149683)
(0.805846637203 0.010254278001 -0.00107239156074)
(0.766912403935 -0.00243427370376 -0.00201766017987)
(0.808155624901 0.0118297442295 -0.00406463154084)
(0.765733764396 -0.00263078981872 -0.00158758866193)
(0.807289440837 0.0112792444606 -0.00252148195733)
(0.817336328026 0.00517978131604 -0.000787041301761)
(0.819103901933 0.00416584633116 -0.00083646867553)
(0.819895900512 0.00260148281118 -0.000834393584364)
(0.81742071117 0.000229204500257 -0.000255134127266)
(0.809657538903 -0.000929584999247 0.00042562050783)
(0.835428496466 -0.0502704242775 0.000666860304431)
(0.817825167712 0.00555896780122 -0.000630201150747)
(0.819262865334 0.00438024670147 -0.000389691116335)
(0.820261209521 0.00345068624006 9.07174655627e-05)
(0.818513546747 0.000276485403115 0.00219781532094)
(0.81081458472 -0.00156154866238 0.00537948399386)
(0.840184035393 -0.0573172950585 0.00670478010155)
(0.817467062482 0.0061141545877 0.000106041283841)
(0.812102299647 0.00625376707422 0.001013062698)
(0.78877566732 0.0109211002063 0.00216446088372)
(0.785140528086 0.0114254784326 0.00139192021552)
(0.78121824567 0.0120057526523 0.00272474933311)
(0.772260422619 0.0154132662067 -0.000167901835896)
(0.781580234576 0.0191047729909 -0.029485460707)
(0.712463983887 -0.0101704334908 0.0252399119093)
(0.826667563244 0.00526371443444 -0.000138298193195)
(0.823917611906 0.00313056076405 -8.09004703635e-05)
(0.81991754974 0.000862583821512 -0.00138392353632)
(0.818361710032 -0.000844833113815 -0.00352526891249)
(0.817234479964 0.000211362119139 -0.00384823946976)
(0.818178557474 0.00317347911472 -0.00311829723015)
(0.809668682268 0.010901703047 -0.000342386249428)
(0.840857060363 -0.084177489406 0.0107200941006)
(0.820526851017 0.00645503266923 -0.000702768840271)
(0.822502851626 0.00472969601754 -0.000850015684472)
(0.822681384765 0.00383854748498 -0.00141715488359)
(0.822201784667 0.00359565284834 -0.00225404606526)
(0.821023237088 0.00342006673115 -0.00224254482493)
(0.820930828763 0.00292843175442 -0.00116421884003)
(0.812309925781 0.0017414588084 0.000821645228763)
(0.84494667011 -0.0645940221117 0.00405591497876)
(0.81677530276 0.00755861876087 -0.00111766030812)
(0.819601180522 0.00480201796551 -0.000852003966924)
(0.820781879749 0.00309663804008 -0.000965898582121)
(0.820917490246 0.00192279289328 -0.00123630931588)
(0.820100790247 0.00143267569714 -0.00139479654764)
(0.820012825528 0.000626468477295 -0.000573566589034)
(0.811398310167 -0.000612702755147 0.00106297425197)
(0.840141917377 -0.0680007524543 0.00268734290497)
(0.819371618398 0.00216980497181 -0.000913156188666)
(0.818975566655 0.00096516818001 -0.00032903609398)
(0.810456378559 -0.00062970305398 0.000686271089549)
(0.838081001496 -0.0533276367127 0.00124324076547)
(0.639489421859 0.0425532755733 0.0120128373959)
(0.634823998834 0.040463223766 0.0148410138202)
(0.64504401511 0.0254909879966 0.0176678256659)
(0.642745494437 0.0222041939313 0.0162797308419)
(0.639004548363 0.0219826380393 0.0175727356681)
(0.597345306866 0.0240246472843 0.0209368157839)
(0.680555083182 0.0324779438634 0.0236673875453)
(0.168554113947 -0.03043572318 0.0621868618845)
(0.774497354276 0.0132295630856 0.00688882550419)
(0.769766136049 0.00967261835564 0.00852542372575)
(0.775164447088 0.00316014404406 0.0107642562219)
(0.77306496409 0.00195549937412 0.0126552023605)
(0.77180868123 0.00418282895732 0.0137571328692)
(0.772133380967 0.00810410178185 0.0187461895003)
(0.771931569949 0.0497240229377 0.0308175806074)
(0.806432969962 -0.180664357952 0.049250189361)
(0.822115948736 0.00725801568136 -0.00118946699955)
(0.821986760294 0.00594650642551 -0.000734824218753)
(0.821619435218 0.00612818157007 -0.000534366644773)
(0.821690086484 0.00691156914594 -0.00031616741187)
(0.821492074126 0.00751048312639 0.00108637893156)
(0.823665762194 0.00697944989857 0.00457413140804)
(0.816751167218 0.00473489077627 0.0132184400999)
(0.886060792869 -0.115591129145 0.0182648660304)
(0.81731619916 0.00687323096127 -0.000932448522296)
(0.81977978021 0.00480121751514 -0.000749699874518)
(0.820833852282 0.00398834894338 -0.000358420831489)
(0.820962628614 0.00337793857882 -0.000112458080228)
(0.820756735751 0.00276755471448 0.00091078583583)
(0.822601676191 0.00138365639444 0.0039849082711)
(0.814943875596 -0.000764060921031 0.00961557671412)
(0.856174206619 -0.085418022005 0.0131420568568)
(0.819928722333 0.00295455978427 0.000850400520486)
(0.820622421147 0.00128220834502 0.00310354411485)
(0.81223868879 -0.00141362052277 0.00690377935854)
(0.846634903684 -0.0663585391434 0.00856943120187)
(0.632909970397 -0.0146488145615 0.0181576802401)
(0.628265547685 -0.0148817637633 0.0211323990005)
(0.63418013041 -0.0189741211335 0.0219827526026)
(0.633861149669 -0.0182729544783 0.0233630699421)
(0.636302240648 -0.0142048278018 0.0259932804659)
(0.62912761332 -0.0025992460917 0.0287651271928)
(0.684836230207 0.0587487816865 0.0734617483655)
(0.566658851452 -0.409311044043 0.0163159969003)
(0.733557371802 0.00642522377218 0.0221967018214)
(0.731696198656 0.000967021806734 0.0245318369151)
(0.783559275358 0.00115658390267 0.00855338606703)
(0.782665135154 0.00077613429165 0.0102245931303)
(0.784193995122 0.00231858792998 0.0116170999583)
(0.793028370341 0.00150068321751 0.0114899827386)
(0.80463045275 0.0166117172282 0.0151259723331)
(0.909870682001 -0.206776613203 0.00957941505324)
(0.821737003836 0.00664881272323 -0.00175648640821)
(0.823095819391 0.00600652447959 -0.00199380134059)
(0.823323961338 0.0037698397253 -0.00243968344719)
(0.823715567844 0.00237468457607 -0.00268591667676)
(0.825094883303 0.00212326483659 -0.00225661562234)
(0.831875688419 -0.000434463700647 -0.00034694915603)
(0.825378526403 -0.00566478821304 0.00110704578221)
(0.919973239057 -0.187962267003 0.00293298203204)
(0.814239525213 0.0105363326505 -0.00226350271891)
(0.817400877454 0.00735078309128 -0.00212022337304)
(0.820002975156 0.00483388278578 -0.00195728802532)
(0.821757471111 0.00365768439573 -0.0021129659315)
(0.822661526561 0.00286098251569 -0.00257371920548)
(0.823588798556 0.00197792378667 -0.00167597685418)
(0.828185908833 -0.000951236161908 0.000550830424819)