/*--------------------------------*- C++ -*----------------------------------*\
| =========                 |                                                 |
| \\      /  F ield         | OpenFOAM: The Open Source CFD Toolbox           |
|  \\    /   O peration     | Version:  v1906                                 |
|   \\  /    A nd           | Web:      www.OpenFOAM.com                      |
|    \\/     M anipulation  |                                                 |
\*---------------------------------------------------------------------------*/
FoamFile
{
    version     2.0;
    format      ascii;
    class       volScalarField;
    location    "12.6";
    object      p;
}
// * * * * * * * * * * * * * * * * * * * * * * * * * * * * * * * * * * * * * //

dimensions      [1 -1 -2 0 0 0 0];


internalField   nonuniform List<scalar> 
28582
(
17094.0566142
17093.3799591
12195.9251786
12195.5030842
7297.18581195
7297.7847164
3622.23636889
3624.47020953
54.9487394134
55.4798160064
-27.09086942
3623.48721806
651.914884009
655.251436312
3625.11562405
3626.94445143
656.210909844
1792.1932337
1793.59839672
17094.6517901
17093.0661445
17093.2085973
12196.2981712
12195.2781745
12195.2908563
7297.11706995
7297.52024849
3622.29846096
3625.14196754
55.0627021602
-27.0882796238
-27.0528947858
3621.53754558
3621.29764496
648.322143094
649.159407023
1783.50269107
3624.34316137
3627.13751281
3626.02233951
1792.00641834
655.91436417
1793.45923643
1793.13255208
55.5451281303
54.3128295744
-22.9504794962
-22.9255903949
55.9187797578
-22.9593443568
1785.50691956
1786.98287697
653.018215484
652.1562901
1785.76692881
653.16799237
1786.72325162
1788.2784136
1789.08526501
654.208469422
655.291958643
1789.5980092
654.180156823
1787.96614766
1791.59789275
1789.98649229
656.594473458
656.433304091
1790.75270393
656.97492661
1790.56296165
1790.80553086
656.630210283
657.206095166
1792.02230712
656.590412617
657.171432144
1790.78815751
1794.64679196
657.804426231
658.04168545
1793.16682202
657.735040084
1794.01804384
657.593722295
53.554919103
-22.8830046045
51.4968287906
52.5834388104
-22.9267638105
-22.9021646903
54.0660431343
-22.967211932
-22.9357459638
54.5530220984
-22.9768487358
55.2247118148
-22.9437240017
1784.16172118
1785.49251242
648.283948259
648.109622959
1784.79867646
1784.70229792
648.135718837
1784.04875945
1784.51072367
648.446290204
649.458380597
1784.42474732
1784.3771925
648.561709701
648.951927655
650.105635743
1784.26772599
1783.72389967
649.80546613
1784.30074711
648.774148361
1790.64431541
656.456480437
656.95895662
1791.55770956
656.302338942
1790.30255414
656.760726963
1790.90511999
1789.02585798
656.151098647
656.125063687
1789.7882426
1789.97305382
656.462111747
1794.11722758
1794.63546642
657.522521168
657.945830957
657.890188622
1792.9267627
657.344542144
657.705364624
657.220679433
1791.72184667
1792.01790099
656.516974709
1790.78588807
656.984315018
7296.27408029
3623.22670515
55.9084588057
-27.0546756024
3621.73657016
651.580910101
3624.39111905
3622.96918687
655.701989054
656.438008958
655.11865909
3622.15216745
3621.94117694
655.178388943
657.376368687
54.8118640275
55.5930864223
57.0513066612
-22.9412680347
-22.9565860056
-22.9750027647
58.2230418054
59.0286983992
1786.21131534
1785.23775963
651.177962506
652.806790022
1785.13402961
652.435249734
1786.44059469
1787.91680524
1788.1982381
655.55179409
655.840343422
1787.39704737
1788.96561234
655.55099142
1788.09670327
1790.02837394
656.036382613
655.764806198
1789.48102672
655.569084225
1788.18598046
1786.86466616
1785.61234307
655.182364772
655.317997769
1785.94085055
655.272799988
1786.689317
1785.31873916
1785.02835834
655.235699963
655.554682717
1785.44744891
655.525522504
1784.89710722
1785.46904598
1785.6155191
656.855847009
656.384736882
1785.78085945
656.139150822
1785.14786598
3650.36801131
3644.87414338
3642.75885594
3637.95422832
40.2573816693
40.0480578831
38.7842922535
40.1260862153
41.8292206824
-27.1127486935
-27.12060082
-27.030153449
-27.0851526551
-27.0357729211
-27.0529479833
3651.037324
3650.49617198
659.98330549
655.902720508
3653.34123126
655.944836636
3648.6136938
3646.5642233
654.291740464
650.481574687
3651.98107351
3647.33939214
3647.44491068
654.325933693
654.775981929
650.625689892
650.922704337
3646.58015856
3643.62575174
654.813454355
654.585313329
651.079351958
651.110701794
3644.20413351
3641.67046726
650.15134254
650.472791855
648.86634258
3640.13666773
3639.97914399
3637.52628756
650.633730006
650.453739783
648.882921238
648.032464884
648.266815617
647.713018313
44.9577647498
42.6246968851
42.3008072362
-23.1150107402
-23.1051357162
-23.1134978171
-23.1201751505
-23.0877934007
-23.0036132719
-23.1351712973
-23.0468031157
40.3581013986
38.6610400223
40.2263205422
38.9456013497
39.2374416749
-23.1118443112
-23.1336793969
-23.1345806649
-23.157623392
40.0056984919
39.5870534092
40.2648910664
-23.1524711184
-23.056449023
-23.1628753802
-23.089040982
39.4410688952
40.4518375623
-23.151344617
-23.1661093852
-23.1700500854
41.1783295113
41.2635988577
42.1059897988
-23.1672431672
-23.1110685025
-23.1665211711
-23.1187979496
1816.31518634
1817.85847368
659.141706211
658.750387168
1817.64176551
657.975755746
1816.51092781
1816.05786101
1816.44210351
657.409301589
655.412099821
1817.20433684
1815.52712521
656.762273249
1819.07228063
1817.20436299
657.517421373
656.116498408
1818.18585246
1817.94829002
657.682447924
1813.74211224
1815.38283525
653.912829101
652.874498205
1814.67879432
1814.23373756
652.605217456
1812.62247823
1811.79981027
651.487330151
650.285190268
1812.99119116
1811.53472952
651.31911818
1815.02529531
1815.93159954
654.432384207
652.899986168
1816.49685099
1814.63036006
652.976989762
1815.44452566
1817.70034668
654.640460812
653.191247657
1817.17511198
1815.6729344
653.162953605
1813.45475099
1811.99818107
651.588368645
650.703979966
1813.2956182
1812.02230122
651.600870591
1813.5941143
1811.81068085
651.815101135
650.865007001
1813.60236174
1811.97589201
651.814612866
1815.26633004
1817.99785577
654.774456338
653.141213512
1817.83125062
1815.641308
653.187744015
1814.25621487
1814.13825446
654.577309535
653.113133304
1816.76026139
653.111805174
1812.17260701
1812.82345824
1811.50884956
651.926193528
651.194589961
1813.34668871
1810.9156342
652.118649625
1811.79361479
1808.24459913
652.030395304
651.231693058
1809.84488633
652.144829999
1810.15575421
1809.61777565
1810.85417661
650.237971336
649.478421587
1810.73881771
1809.87695911
649.692877556
1809.26677261
1810.18375653
650.456559014
649.881538129
1810.55613027
1808.72844112
649.892346014
1807.73872552
1805.39026664
649.486739871
648.93079241
1807.08455941
1806.16650285
649.464273214
1807.19856895
1809.77521289
650.674530211
649.988429852
1809.06963971
1808.08211601
650.067422588
1805.92181319
1806.26153749
650.71193477
649.659144747
1807.88017406
650.033745459
1804.23829021
1805.29563333
1804.54277686
649.530200074
648.776152957
1806.29375387
1803.50325232
649.486271486
1803.94773626
1800.56539896
648.799530555
648.475484393
1802.15677928
649.235273859
1802.29761288
1801.06805297
1803.132899
648.187959104
647.676388968
1802.12554126
1802.04115959
647.657296423
1799.40922559
648.002899769
1800.8620481
17092.907518
17091.9166367
17091.6390405
17093.9046703
17095.2001095
17106.2040637
12194.7617029
12193.9498085
12193.7640144
12195.598816
12196.4591758
12208.2621429
18308.5753792
18311.188371
17083.4701965
17088.1255731
17091.7976225
17094.6217245
17099.9217843
17078.9237075
18310.8039816
18312.2494142
17088.7974817
17089.740987
17090.4423
17090.2118059
17089.7491226
17102.7463267
17091.26421
17089.3632683
17089.0541103
17089.6265446
17090.4334535
17090.7227766
17090.6971102
17104.0971821
17093.5580996
17091.4094487
17090.5095001
17090.6310337
17091.2403118
17091.6689686
17092.312135
17105.8833437
17091.9735509
17092.5981367
17093.8200444
17106.1657026
13408.7708193
13410.9993048
12188.4628978
12191.2620429
12195.7918635
12201.9795131
12257.6103742
12087.6642982
13413.0740754
13413.9473077
12193.3678404
12194.1127714
12193.2334475
12191.4681603
12188.9224284
12191.0300165
12192.6018244
12191.8852236
12192.1683869
12192.3296672
12192.1772501
12191.616082
12190.7406317
12200.8037707
12195.2453614
12193.3755927
12192.8290077
12193.067294
12193.3205927
12193.0098514
12192.3919166
12206.0865794
12193.9811637
12194.2078481
12194.7595063
12208.0630465
8509.02398541
8512.32038957
7289.7475259
7291.8328741
7293.55201407
7290.54801055
7284.95775986
7219.16325391
8514.22393221
8516.4377935
7290.02903843
7292.23399247
7291.90932962
7286.40856741
7273.60848753
7264.32452067
7294.07031571
7293.08788248
7292.86553835
7292.87317364
7291.90757844
7288.18332522
7280.73265582
7297.8461858
7300.07944127
7296.39329979
7294.38422769
7293.92211626
7293.46542952
7292.7661255
7290.97796047
7286.52237237
7303.11156944
7295.83464193
7295.69157887
7295.03306181
7294.27301781
7293.12751512
7291.14443924
7307.00932342
7295.18433573
7293.94816268
7308.10924833
3614.25912162
3617.56361303
3616.42501994
3618.67030039
3620.86559289
3621.68826852
3617.05337698
3588.29030516
3619.84052752
3618.43096347
3619.78021744
3617.99180016
3619.87973818
3620.50292888
3617.70107091
3611.46008368
3598.58970998
3636.10443973
3626.62886096
3621.45040817
3620.23520457
3620.11778401
3620.69668564
3620.14035759
3616.98069729
3613.9972896
3615.03040662
3627.31675795
3622.71996613
3620.50244925
3620.43419661
3620.64434788
3620.25375315
3618.997494
3617.61196642
3622.07350517
3621.40778215
3622.0043156
3621.87938743
3621.30583573
3620.33550911
3620.49049592
3625.19918046
3621.8769785
3622.52256021
3627.10574044
47.5708027818
48.2703712511
52.4578567301
54.4151142346
55.20265796
57.3901788816
61.7026333403
66.5490145247
41.2731199955
43.0220500464
43.5350273895
46.1717216818
49.3880606208
52.591627363
54.3035132754
57.3384427584
60.6802134935
60.6486898029
42.2505191675
44.1797991487
46.5146435969
48.5971526354
50.4739812922
52.9303307776
54.6519947177
57.9697528488
59.9601875639
57.6731889875
46.6405400896
49.8924412281
51.7711932327
53.168332053
54.4336284671
55.8312425323
57.8062078234
58.458173982
56.2885544887
53.8436619397
55.7637387
56.3176727946
56.3794548664
57.3295319944
57.2230550879
56.5535735031
57.4770958088
58.1540737039
58.368397979
-27.0910258867
-27.241035543
-27.1425693109
-27.2957964166
-27.2908921188
-27.0455032213
-27.1018350828
-27.0546490391
-27.1537868182
-27.4863682164
-27.1725765997
-27.1967602645
-27.137070375
-27.2920634059
-27.0341232743
-27.298207765
-27.0386536364
-27.1193270032
-27.1538724625
-27.3981152022
-27.2581983399
-27.0869258809
-27.1335809038
-27.1174699114
-27.1082732188
-27.0915692423
-27.2708642912
-27.1028951904
-27.1935914861
-27.4074416518
-27.0894501109
-27.117169931
-27.0619975304
-27.0203223045
-27.0588564751
-26.9921881014
-27.1044758704
-27.1835237816
-27.4435397241
-27.0635351936
-27.0191291719
-27.2462224519
-27.0775649748
-27.1282713131
-27.1888084615
-27.4859483757
-27.0945905083
-27.2036534666
-27.5422794617
18310.1177908
18308.9609467
18310.495204
15858.8486311
15860.4886985
15859.7100995
15860.864937
18311.7111499
18311.8511799
18312.689842
15861.4354333
15858.5951609
15861.6233875
15860.924296
18311.3469333
18313.1892596
18312.6590853
15861.6262997
15862.4456289
15863.9177129
15863.8674077
18312.9338313
18312.9001495
18313.5516095
15863.2035428
15863.1675014
15864.4890368
15865.2252812
13410.180979
13410.3290588
13411.1738007
10958.4403587
10960.2354573
10960.4208637
10961.7617292
13411.4587161
13411.5835079
13412.8337428
10961.2215139
10961.4198256
10962.3897832
10962.3934712
13413.4739911
13414.8107908
13414.9627058
10963.6265532
10964.4284291
10965.5560928
10965.4990461
13414.1422506
13415.473381
13418.7592024
10964.9565789
10961.6514818
10965.578528
10968.2793066
8511.01029841
8511.48175123
8513.06299161
6060.89438946
6062.99064027
6063.40183791
6065.01443254
8512.46956016
8513.91079286
8514.21247957
6064.47824568
6064.38101697
6065.83543739
6066.81471351
8515.52204058
8516.28634455
8516.41328022
6065.71646238
6066.88014593
6067.42084705
6067.72941001
8512.98825173
8516.60284595
8518.11342664
6067.60524456
6066.50120118
6068.03929169
6069.36033264
3612.05533095
3615.31167583
640.899568184
639.648158298
3616.72546913
3617.06391327
3618.71099023
643.732137939
646.968587175
641.174006764
644.912206624
3616.62402683
3619.07277392
3617.71504868
646.092729156
642.154588662
644.915994324
641.935533617
3617.32176114
3616.840226
3617.78002093
642.353651633
648.484389285
641.672224047
647.523276523
3619.88664531
3619.32351305
3620.42564447
650.002146033
651.859807948
649.590613221
651.57842368
3621.57716008
3620.92748125
3620.81282572
653.145796841
656.56096995
652.221897864
654.533341464
3620.8287455
3620.40729535
3619.0090775
657.741966258
658.944248947
655.095329773
654.910630551
3605.67182148
3616.45863425
3607.47019837
658.247027619
657.56930315
654.205478414
652.804108714
3576.681456
3593.7002785
3598.28394654
663.199915937
556.985878491
653.959385878
623.961476068
3637.54905414
3630.43325774
654.260331892
645.661546484
650.871967445
647.350850493
3617.72161055
3624.45894184
3620.97807622
642.183747946
639.605342474
645.282537464
642.38678304
3619.59569073
3619.95567976
3620.0584724
640.676340377
644.616791209
642.952908065
645.779319968
3618.71517382
3620.16605499
3619.87640145
645.024689233
642.595292868
646.335499152
645.589468446
3618.57505887
3620.45622709
3620.86157289
642.060917781
647.234059527
645.35038845
648.136808434
3620.59027587
3621.32593667
3621.21005131
649.304184324
652.265785806
649.777452171
653.097052677
3619.43263699
3620.63395294
3619.20315049
652.261848551
654.000931692
653.054791949
652.994278538
3615.08742346
3616.94364162
3614.79156611
654.409077543
654.157440319
652.77555036
653.571444676
3605.70995965
3612.7701753
3610.19468719
653.471150749
652.380974877
653.708372358
653.43733903
3617.7368732
3608.13681406
3629.52964953
653.459570556
627.213761617
654.49180621
629.078167161
3631.2365255
3634.29795549
3630.71328374
649.886771387
647.007916372
647.488214348
646.651103706
3623.17435116
3627.22841106
3624.20962908
645.502095175
643.617583091
646.405425218
646.523145521
3620.74427331
3622.25243922
3620.99181323
644.222696439
646.400306975
647.183871703
647.718997006
3619.91242428
3620.14634911
3619.88154791
646.698198653
646.346464636
647.551526623
648.312742059
3620.46493643
3620.0964931
3620.39925992
646.426660956
648.657307947
649.110014437
650.635441325
3620.60543771
3620.54248777
3620.51587104
649.880725417
653.306442068
650.824881373
652.258834969
3618.96788135
3620.08971363
3619.28941136
653.833373577
652.781537782
652.961039454
653.667004255
3615.20240323
3618.00635049
3616.63203767
652.421146113
653.949541807
653.748069585
654.999182766
3613.60407943
3615.95796316
3616.61802768
654.342627544
653.863734791
655.359068385
654.406993002
3633.68567183
3619.35614496
3636.54451695
655.028968488
629.094362111
655.302983005
629.012340017
647.291455149
646.790497825
3624.72680393
3624.64600314
646.784077809
647.205940122
648.240327263
3621.41220154
3622.66299656
3621.54493078
647.763813584
648.043314467
648.41067493
648.834151018
3620.18453925
3620.95025345
3620.9293192
647.852520741
649.209939259
649.631258679
652.285749218
3620.65821078
3621.03995615
3621.04286696
650.046573654
651.280755669
652.930673423
653.325031235
3620.51012462
3620.96731931
3620.82709138
651.278725726
652.42903253
653.342757055
654.438504649
3619.76073232
3620.64589847
3620.26751465
653.141677448
654.325188621
654.898601452
655.406822081
3618.0300385
3619.73833008
3619.21746867
654.527093532
654.94102281
655.365744632
654.712971793
3618.75398245
3619.12061871
3620.48223558
654.799422418
654.254287248
654.59379602
654.561006276
3637.89428162
3623.72924144
3639.33384845
655.218700575
629.021970759
655.678160767
629.227764822
3621.82175513
3622.62437658
650.208021845
653.143120313
655.048671279
3621.92356699
3623.15974616
3623.34862442
653.770741227
653.834616143
655.727989554
655.90537272
3621.60047217
3623.30543615
3622.83602346
653.883216437
655.288759444
655.799921911
655.946513861
3620.87057144
3622.14108117
3621.50525046
655.386076381
655.402973917
655.744154801
655.360301985
3620.13638723
3621.13944568
3621.0390175
655.401381392
655.10570466
655.34170685
655.904320409
3621.98686492
3621.4502943
3623.05226033
654.961843435
655.086408242
656.029271072
656.875574104
3640.30509756
3626.2167698
3640.54956238
656.282763957
629.603492277
658.211952138
632.815338641
3622.29234134
655.406740525
3621.86714187
655.402312322
656.03324306
3624.13338965
656.344031075
657.463054764
3640.26505169
658.745775321
634.221775035
-22.9742193219
-22.9095551623
-23.0268699388
-22.982145069
47.8632866035
44.7734634675
-22.9206636132
-22.9068240593
-22.9675247684
-22.9573515035
47.2443045372
44.4041006647
44.6324897647
-22.9003872906
-22.8288372681
-22.9447774048
-22.8850904951
50.313173543
46.3393556125
48.5180475322
-22.7660009496
-22.8005512557
-22.8130961845
-22.8470128795
54.1437225698
50.2969475453
52.1496994776
-22.8896057003
-22.9854262382
-22.8772191079
-22.9802653038
54.3672403131
53.01446405
53.1760527986
-23.0242837094
-23.041407577
-22.9958535766
-23.0239821931
56.1540396013
53.9061939223
55.3335101158
-23.0536931742
-23.0399828301
-23.0453836156
-23.0450662508
59.1606874311
57.012828974
58.9117962811
-23.0306613216
-23.0255465
-23.0197469271
-23.015320282
64.2224368024
61.0462307543
62.9503242603
-23.0257936663
-23.0537329721
-23.0290531977
-23.0498660658
73.1395413872
63.1822076169
69.6451992554
-23.1040072194
-22.9731817653
-23.0885398341
-22.9720130279
42.3304482806
41.4245186596
42.5120304911
-23.0757933372
-23.0352639682
-23.1028201999
-23.0576356715
43.448171154
43.1105481128
43.7995617805
-22.9994489255
-22.9954806005
-23.0428092915
-23.0323040027
44.4381450304
44.5525413437
45.6834229244
-22.9841030373
-22.9454666022
-23.006174939
-22.9697146421
47.8372490008
47.1944813752
48.3354235828
-22.9189551364
-22.9395951092
-22.9384396807
-22.9272642623
51.1713367443
49.6076890195
50.9124752772
-22.846178298
-22.7653813601
-22.8274498619
-22.7646918537
53.5154559649
52.3003479929
53.6770979963
-22.9078144693
-23.0107856041
-22.8318394533
-22.8967541816
55.7840933419
54.3720458196
55.9255002426
-22.9998960948
-23.0328977494
-22.9261015636
-22.9707480468
59.2110426576
57.7721123585
59.4373569773
-22.9889061557
-22.9848839273
-22.9449568914
-22.9517551939
61.9437247177
60.397584687
60.7951426294
-23.0118092726
-23.0407477669
-22.9893032029
-23.0276523966
66.8651885417
58.8072003143
64.1460989319
-23.088150379
-22.9883652566
-23.0830186942
-22.9978042812
43.2478918272
43.1642790949
44.2429973618
-23.1096353966
-23.063579466
-23.1136797297
-23.0572902672
45.333087683
45.5509765446
47.1077216242
-23.0200421273
-22.9991692481
-23.0060132416
-22.9924486605
47.5757957338
48.554328906
49.568431087
-22.9763039368
-22.9362090333
-22.9692808211
-22.93387336
49.5435329088
50.3151135896
51.0049204391
-22.8931851008
-22.8698213213
-22.8969979181
-22.8712685357
51.5516793779
51.6903639433
52.5163199355
-22.8167322648
-22.7930006007
-22.8297778779
-22.8090328122
53.921062281
53.6979307803
54.325468223
-22.8114043724
-22.822924709
-22.8142616397
-22.8179892809
56.2344922672
55.1521296494
56.7833017059
-22.8660158482
-22.9188241495
-22.837828071
-22.8709482005
59.3454178015
58.008823875
59.0197705277
-22.9007804728
-22.931438612
-22.8891422022
-22.927477991
59.9364163165
59.3823465441
59.2213049838
-22.9769462661
-23.0251496961
-22.973096308
-23.0256062315
62.8656149654
56.929029913
62.0936428911
-23.0908053313
-23.0172053774
-23.0945768571
-23.0272228512
48.4614227671
49.2839476108
-22.9970337869
-22.9733594054
-22.9714482927
50.9796589829
50.7132555493
51.7301137086
-22.944356371
-22.9078437729
-22.9405848934
-22.9064297149
52.517570646
52.7833627509
53.8853105203
-22.8847431218
-22.8732240747
-22.8896523906
-22.8932033048
53.7482155533
54.6231563174
54.8492926923
-22.8475395575
-22.812010272
-22.8756935453
-22.8282999893
55.0570191662
55.184938263
55.7707211458
-22.81309819
-22.8118904762
-22.823760296
-22.8370200802
56.8615038708
56.3839069524
57.0653042159
-22.796621785
-22.8312407125
-22.8357783358
-22.8846584035
58.4837724657
57.6368247785
57.8616067931
-22.8946761773
-22.933056427
-22.9217538803
-22.9530529687
58.239447031
57.583967531
57.5761935079
-22.9824429499
-23.035145252
-23.0038116804
-23.0468210241
61.9386703753
56.0875540077
62.0837291322
-23.1010986886
-23.0237164262
-23.1005408111
-23.0156581399
54.9379379763
55.7757329005
-22.9120879209
-22.933648561
-22.9126809644
-22.9403921179
55.8050315104
56.2841977334
56.2187367318
-22.9215558063
-22.846943532
-22.9346179354
-22.8816873995
56.2763030613
56.3851613898
56.2073130793
-22.8569858467
-22.8934754509
-22.8960175596
-22.9177075277
57.0068904156
56.4710782805
56.9244700274
-22.9063034366
-22.9433707415
-22.917825631
-22.9513395482
57.439300988
57.2992986797
57.5111497211
-22.949700827
-22.9772954336
-22.9630897131
-22.9924611303
57.4966546043
57.432299192
57.982541969
-23.0190959819
-23.0539240499
-23.0312274302
-23.0609177754
62.6550312242
57.3554059155
63.7049076236
-23.1058865045
-23.0138761766
-23.1121093501
-23.0167236574
56.8006612527
-22.9615243797
57.925659698
-22.9716481084
-23.0001827972
-22.9767115456
-23.0025016537
58.9354558768
-23.0340618447
-23.0605622592
-23.0325540155
-23.0597321615
64.8313703011
-23.1129146269
-23.0125205038
-23.1114958118
-23.0126787687
1775.69380206
1776.55069447
638.834931387
640.232148946
1777.81192537
638.53660055
1774.07750238
1777.55760507
1780.69671676
639.726134347
639.055784737
1779.27034955
1779.77737405
638.614109653
1782.81755612
1779.3858809
645.896925101
642.831392475
1780.50995457
644.912666008
1781.65830079
1784.13190162
1782.64164511
646.835988208
646.185716572
1784.11942915
646.000707885
1782.79685745
1783.83126723
1782.50422452
641.868122075
642.895053322
1781.60898059
1784.42903917
643.865989413
1785.13662292
1785.81898892
645.526464378
644.200234886
1785.21363153
1785.62313623
645.126044493
1780.25834365
1781.2058019
644.613304063
645.469763362
1782.72962215
644.202864094
1778.82365236
1777.94079959
1774.99244066
642.891176828
641.846147216
1776.19413867
642.563974214
1776.56577365
1781.6030464
1784.85590859
645.116975714
644.108903123
1783.9864879
1782.74809321
644.024878772
1779.25364829
1778.64813223
641.736991236
642.741391778
1777.48581539
1780.46546694
642.488202581
1777.72951259
1775.42279166
644.288699715
641.871411944
1776.33931795
643.581496854
1776.93382209
1779.451195
1780.35458603
646.764379676
647.946030951
1781.27012735
646.053671688
1778.64514547
1778.53577084
1778.28975145
641.644639065
642.785734453
1777.35487756
1779.33642532
643.011249586
1780.22283863
1782.88859868
647.681487761
645.276429791
1782.05816414
1780.99468508
645.555753829
1783.52887264
1781.56681907
650.65023121
649.596886062
1782.59012011
650.332522557
1782.48661952
1784.32236548
1784.4623319
650.963121932
651.385164542
1785.20180208
650.61366482
1783.37364221
1784.36227667
1784.31537695
649.598320747
650.515230923
1783.40621308
1785.33602853
650.402502582
1785.1259601
1786.18213443
651.304956865
650.959102343
1785.72113834
1785.97296928
650.657867877
1786.83636151
1785.56476013
654.232979
652.536416204
1785.99751303
653.61795261
1786.64568147
1787.38508247
1788.15438903
655.366336908
655.962856613
1787.63795935
654.715093052
1787.47836313
1786.74496391
1786.29885643
652.277663991
652.881799829
1786.23324062
1786.51683004
653.239470218
1786.90053006
1785.98342074
655.35534352
653.749738487
1786.70766065
1786.480589
654.196205198
1786.35533789
1788.28191469
658.697929925
657.023771064
1787.38489859
657.736848285
1787.66014595
1784.89995417
1785.02797981
659.155640412
657.285510595
1782.903462
657.806391073
1786.50631059
1784.90088809
1785.04419217
656.071892194
655.416689121
1786.15255044
1783.47563428
656.529925077
1783.22931893
1779.24041456
655.95126215
655.271208147
1781.0725232
1781.52706825
656.424699482
1778.04993758
1783.19697154
657.480313839
656.448787337
1780.59702869
655.544041721
1780.74137103
1775.17055074
1773.24578065
656.811244466
654.985427815
1771.22361395
654.874287182
1777.6278569
1776.42650046
1777.03269669
655.154965567
653.507704317
1778.84978094
1774.82333043
654.332131755
1773.5334039
1769.67620903
653.684362366
652.897031624
1769.95847161
1772.49623768
653.617176021
1758.85858579
1767.72211428
686.941327671
656.478704107
1765.64689632
664.149915947
1760.74284423
1746.50985238
1741.93199684
759.566152674
618.260652273
677.716407311
1757.3352354
1744.67984478
1760.16913001
1766.22892439
655.285482961
660.769595636
1765.27670276
1762.5499657
663.411944108
1750.06954061
1773.09111387
617.178863896
670.661308326
1752.21629555
675.87648427
1765.290467
1804.35853846
1809.79968668
652.250836812
652.886536442
1804.15613291
651.640139547
1808.86950593
1799.30580089
1791.69768791
649.279989123
646.722008376
1797.98241507
1794.002181
649.487163665
1804.16863674
1806.00512866
651.915881318
650.172818426
1803.11400721
651.017552161
1807.62010076
1799.92294917
1795.73735348
647.243218283
648.990452912
1795.39689815
1799.55778304
649.39264845
1785.56524096
1786.52288913
640.104499443
643.796276791
1782.95540167
1789.24233432
641.562777447
1783.59492363
1781.84664705
639.324717478
640.15167753
1781.58132448
1783.06203114
640.290833988
1787.48239522
1791.96183669
644.708519179
643.583738714
1791.07302488
1788.63392646
642.688310215
1785.27408609
1785.34383415
641.168986876
642.462736831
1784.34664566
1786.43097522
641.405684635
1784.8267212
1783.08098418
642.184233712
640.868935221
1784.63296269
1783.67074734
642.180768871
1785.76508422
1785.96345281
643.642664792
644.683364148
1785.75428866
1786.03971236
643.65412019
1785.26801038
1785.2019046
641.813335155
643.835983857
1784.51886247
1785.62213604
642.887441336
1785.93760241
1786.17335098
645.191838962
644.968926473
1786.21191719
1786.01227495
644.224322658
1784.15091561
1785.19138868
644.511936413
645.242934833
1783.47827651
1785.52391838
645.074272187
1782.39499744
1779.52140188
643.404638374
643.497219125
1781.39874125
1780.69866059
644.232478081
1784.81684041
1785.89047177
645.864241162
646.329961567
1785.88789783
1785.07989321
645.83476657
1783.3352609
1782.92760079
644.564855895
645.920855893
1781.88433241
1784.01339521
645.164973846
1780.48837678
1778.87825758
642.987012252
642.891853381
1779.65882596
1779.91844306
643.590751214
1781.87343117
1783.16620427
645.061778565
647.308916375
1781.20987613
1783.7729753
645.418379528
1781.44774252
1782.33490018
644.085016456
645.839765083
1781.15338049
1782.42042638
644.698295271
1782.57526257
1784.3393786
647.679689282
646.886471954
1784.14608402
1783.16049557
646.061768643
1786.44534486
1784.74760442
650.856919255
649.377075947
1785.92148254
1785.33996246
651.225281189
1786.94784543
1786.31158666
652.019064214
652.714595893
1786.34346665
1786.64619447
652.46463402
1786.75146735
1785.61096032
649.535058576
651.364012882
1785.57777897
1786.71092424
651.320469906
1787.13264672
1786.79675283
653.003502392
652.676950603
1786.79873824
1787.07996781
652.693520098
1785.24377502
1785.98452851
652.683073994
652.484325307
1785.57833336
1786.01866227
652.654556911
1784.51039591
1784.537375
653.407508388
653.443858376
1785.17720117
1783.50616715
653.117977925
1785.10289336
1786.10712413
652.821366523
653.296093226
1786.06967353
1785.17070776
652.952043933
1784.0076608
1782.13641798
653.193961534
653.288322968
1782.6666237
1783.86167615
653.123585097
1780.52341558
1783.49680491
654.663205745
653.638302781
1781.89042776
1782.17950867
653.851741427
1778.7155888
1777.67449192
654.510482571
653.648274337
1779.92221959
1776.81531717
653.789434751
1779.69070169
1780.55031547
653.272313811
653.001023595
1781.22689219
1779.1954027
653.441213996
1778.20899171
1777.32675374
653.482677223
653.288729589
1776.78785668
1778.18919757
653.434457063
1773.47269845
1775.47852499
652.971346257
653.269535192
1773.47386482
1775.01465456
652.808456692
1772.12221775
1769.89620581
652.499904605
652.522607547
1771.67470379
1771.15827965
652.547774976
1774.41864701
1776.48559391
653.358552305
653.674976082
1775.49431164
1775.77861943
653.149822536
1773.45358804
1774.55251826
653.006563676
653.537549673
1772.9256825
1775.08212018
652.990842971
1767.68154488
1767.98081216
660.230408556
653.482649796
1765.41014485
1769.93757131
659.713520426
1760.38308284
1781.22756425
670.039315943
628.342590571
1757.66014702
668.967463956
1785.55230629
1769.92148044
1773.60088263
654.216093624
659.322034421
1772.17499018
1770.73423021
659.805178894
1762.04150438
1787.94401119
629.00747487
666.18058859
1761.72494448
667.529715586
1787.63875013
1799.85946661
1804.16233818
649.127980021
648.997479146
1801.57348455
648.280211753
1802.20827492
1797.29915751
1795.37399468
648.180551332
646.690156604
1798.55469055
1794.6570527
647.565849344
1798.4249057
1798.8714292
648.217037874
647.15629923
1797.15623296
647.652067144
1800.45134112
1796.27724777
1793.56279883
646.673053452
646.87863211
1794.06561321
1795.38669247
647.175945968
1789.52468132
1792.20610064
644.2827024
645.682151772
1789.29169654
1792.01876716
644.989255679
1787.73537614
1786.24321936
643.530870391
644.713888891
1787.27483106
1786.78490262
644.544039527
1789.75128076
1791.72281888
646.044512055
646.303393676
1791.87841313
1789.8872143
645.679034759
1788.1358103
1787.50088443
645.706373168
646.254535767
1787.19007706
1788.45046114
645.4856327
1786.26025649
1785.92293484
644.979558046
645.379299068
1786.08211481
1786.33005315
646.009884579
1786.12044978
1786.04680314
645.849206141
647.013299643
1786.19102309
1785.69798974
646.718000941
1786.26725012
1786.81579274
646.385064663
647.611226907
1786.61465131
1786.24473664
646.868959341
1785.86574934
1784.88470455
647.328720474
647.76213907
1785.25100143
1785.6268831
647.233046063
1784.6136419
1785.64614447
646.640047137
647.092226259
1784.98836475
1785.1622993
646.897587072
1784.1068672
1783.52273553
646.441208122
646.932563168
1784.22419708
1783.77980789
646.774253959
1784.25016555
1784.31738031
647.267739344
647.496930468