/*--------------------------------*- C++ -*----------------------------------*\
| =========                 |                                                 |
| \\      /  F ield         | OpenFOAM: The Open Source CFD Toolbox           |
|  \\    /   O peration     | Version:  v1906                                 |
|   \\  /    A nd           | Web:      www.OpenFOAM.com                      |
|    \\/     M anipulation  |                                                 |
\*---------------------------------------------------------------------------*/
FoamFile
{
    version     2.0;
    format      ascii;
    class       surfaceScalarField;
    location    "8.6";
    object      alphaPhi0.water;
}
// * * * * * * * * * * * * * * * * * * * * * * * * * * * * * * * * * * * * * //

dimensions      [0 3 -1 0 0 0 0];
oriented        oriented;


internalField   nonuniform List<scalar> 
92311
(
0.203954669178
0.000119629096592
-0.000996291259084
-0.203870958112
0.000793770390939
0.000120739849659
0.203908454356
-0.000579223891378
0.000505019472871
0.203954455436
0.000454678085247
-0.00103125896741
-0.20403291851
0.000774921476748
0.000349697198884
0.20384215756
-0.000599523802016
0.00048306099991
0.203865480299
0.000300783020193
0.000348936800787
-0.00107025922903
-0.204332987833
0.000678792511831
0.000318649664464
0.000345346134973
0.000222309079145
0.000132570982788
0.000164052670804
0.203643172523
-0.000576475841155
0.000392631918434
0.000236976486926
0.0511329463642
0.000128042045732
0.000160266835094
0.000138769552574
0.000152387743827
-0.000405207130991
-0.0513023018645
0.000295784020522
-0.0509994893549
0.0508981369115
8.74614285434e-05
9.96545534607e-05
0.000112593915796
7.62143447153e-05
-0.000276570224932
0.000224208491559
-0.000143334358094
-5.38175714789e-05
-0.000149107513611
-0.000142617552146
-0.000152193011046
0.000321432972837
0.000362310830474
-2.90231740425e-05
-8.48912322757e-05
-0.000214274765353
-0.000106310191626
-4.51319065814e-07
-3.8710883702e-06
1.75311307507e-06
-9.3072266669e-07
-1.62432126601e-05
-1.51263225749e-05
0.00034919840589
3.02607011327e-25
-1.65297050409e-07
-6.84630397415e-07
5.14373477822e-08
-1.28931442785e-06
3.99001425059e-06
5.24280559895e-08
3.51644525143e-07
0.000146390273064
0.000133253784175
0.000144703736143
0.000135733601848
-0.000308335480029
0.00023056213424
-0.00018360743594
0.0103247557209
-5.53517805293e-06
1.16595783419e-05
-0.0103324106935
0.0103500186417
0.000111412132539
-0.000167269536974
-0.0103363430865
-3.19369689803e-05
4.11467778944e-05
0.000165086482059
4.24061973115e-05
0.0508793381638
2.76941547636e-05
6.74763272537e-05
5.58848162716e-05
-0.000207190138141
5.70248099771e-05
0.0508489463137
6.44577179397e-05
7.84810370608e-05
8.49592265789e-05
-0.0508787106912
7.39677724181e-05
7.00394441939e-05
-0.000132797899339
0.0103730229137
-4.06003149317e-05
5.03715641427e-05
5.30807289684e-05
0.0126466122656
-6.23083045722e-05
4.39258492595e-05
-0.0126395878111
0.0126415849972
4.0249722448e-05
6.47473158638e-05
-0.0126376465519
-0.000163480271873
0.204297681489
-0.00186575151487
0.00156756270614
-0.203836430731
0.203914810007
5.18292108226e-05
-5.34349878967e-05
-4.89547082089e-06
-3.46738992385e-05
0.203993727759
8.65604601434e-05
-0.000130882473038
-0.000200096357902
0.204467541796
-0.00190838908885
0.00165822994309
-0.20418067287
0.203916532994
0.000125253475119
-0.000191770859995
4.39221857625e-05
-4.12649985229e-05
0.204058861883
5.32868494703e-05
-0.000189399327268
-6.94506811546e-05
0.000132090104281
0.000160816046306
-0.00203094671742
0.204867651496
0.00174521337908
-0.204969281962
-3.62120270469e-05
3.01223418985e-05
-3.96088234112e-05
5.22543021001e-05
-2.2852157198e-05
0.20390073563
-0.000163302490361
1.09821729611e-05
0.0516005687187
-9.65391631611e-06
-8.3909089188e-05
-2.07483735485e-05
-7.57907617508e-05
-0.000599814983156
-0.0515064268205
0.000626389413585
0.050924255821
0.000132938791666
2.70722179203e-05
7.73895168645e-06
8.09351018369e-07
-1.14353972658e-05
-0.000171844403573
-0.000168615824328
2.99751563008e-06
-0.000363475424528
6.11068742549e-06
3.90752467679e-06
6.44896762983e-06
5.66771368408e-06
0.000251212001937
8.54818109582e-07
1.6780773316e-07
1.15363711194e-06
-1.39367515637e-07
7.38931300067e-07
4.78726940106e-06
-6.06023199069e-07
1.71198846359e-07
0
0
0
0
1.51991611605e-28
0
3.98674481475e-27
0.000529033995812
3.35968584242e-05
7.85369471741e-05
2.68190662094e-05
7.86871607512e-05
0.0514703243408
-0.000484358254484
6.89878572235e-05
0.000110958462987
5.20152288728e-05
9.66173511901e-05
0.0513865692628
0.00048340884293
-0.0515088527825
-3.38014323072e-06
8.6711984062e-05
0.0103006813356
5.55596675345e-06
-2.53756543568e-05
-0.0103658792844
9.70999145066e-05
-0.000104110678026
-0.0102145379181
5.86285337628e-06
-2.6407813749e-05
0.0102218303819
9.96338388384e-05
0.0128486259265
-0.000146925801995
0.000136902664775
-0.0128697308505
8.34920943529e-05
-6.37320208639e-06
-2.72486967958e-05
-1.64354011011e-05
-1.85831086355e-05
0.0510084666185
-0.000138546281144
0.0508559929355
3.94082941931e-05
2.75610367903e-05
4.81884509693e-05
1.28630008654e-05
5.01619383911e-05
8.44606991456e-06
-1.8943833783e-05
8.92325964578e-07
-1.78356056497e-05
0.0509347481957
9.314503557e-06
4.35090048778e-05
-5.72549579597e-05
2.63820828324e-05
0.0126607343855
-7.60759139389e-06
1.70873188239e-05
-0.0103467499037
-0.000121521520363
0.0103231228702
0.000146368734598
3.11566248559e-05
4.34112256314e-05
0.0126491493782
-0.0126537213388
8.87953729285e-06
0.0126666554761
-1.38656026871e-05
4.28117693559e-07
0.000119146763584
-0.000126472832052
-0.000117425662239
-0.000130746749987
0.000418455877571
-0.000112851261689
-2.14318622842e-05
-1.92229979888e-06
-2.86374720549e-05
-3.19256708601e-05
-4.04592894685e-05
-4.16940276658e-05
0.000470941412384
7.65038147538e-05
-0.000468536656278
-2.47966354961e-06
-2.77999019395e-06
3.80450497877e-06
7.26480179471e-07
6.36609170195e-06
-5.54742051336e-06
-3.95044336335e-06
-5.87092025103e-06
-4.57170098565e-05
-6.55114242479e-05
-4.46489883259e-05
0.000417623627624
-9.95820791897e-05
-5.93519920049e-06
6.90038174921e-06
6.06608882807e-06
9.74863964657e-05
0.0127762215244
-0.000115715530724
-0.0128142566416
-0.0127699659507
0.000214912126036
-8.33355976757e-05
0.0127349002577
6.30131214751e-05
-1.35062669234e-05
-0.00020638910004
0.01032674329
1.88502776324e-05
-0.000193935955638
0.0103649974686
-0.0103670047
1.07596305854e-05
-0.0128031933271
7.47648382599e-05
0.0103705437653
8.06251180672e-08
0.0127385504429
-0.000100307716625
0.012699390074
0.000201464531516
-7.93240992467e-05
5.89448167568e-05
7.53603417932e-05
-0.0127013149591
0.0126762828242
-8.56694386471e-05
-2.09471119022e-05
-0.000188209509635
2.79028262548e-05
-0.000184508767052
-0.0103769015678
0.0103800141326
-1.25682424688e-05
0.0126743400903
5.94312440657e-05
-7.11209498317e-06
-9.54342850883e-05
-0.0126489344705
9.7604387711e-05
-7.02150392763e-05
0.0126449291828
6.2960617137e-05
6.68374767331e-05
0.012649775617
-7.47059229385e-05
-4.26833107436e-05
-8.65862992201e-05
0.0103741551618
5.86311028076e-05
-0.000147483673497
0.0104057832574
-1.32874761518e-05
5.59573212338e-05
0.0104096002468
-1.43000446502e-05
0.0126435153934
-7.51491944916e-05
2.18752041065e-05
-0.0126389918714
0.0126472654702
-6.54132158302e-05
-5.99575433327e-05
-0.010387698528
0.0103884466491
8.12850646422e-05
-0.0104211146504
-2.65503348972e-05
0.010414776536
7.97487075558e-05
-6.18924357025e-05
5.41228190803e-05
-5.49756427261e-05
-6.36207101693e-05
7.16385275531e-05
-2.29890357885e-05
-6.58447201279e-05
7.82172763901e-05
-0.0126347358552
0.0126372596736
2.28660803563e-05
-4.82118952189e-07
-0.0104501229808
0.010437339954
-0.0104874038693
0.0104740944478
3.50364510732e-05
3.87958558421e-05
0.000101703266546
-0.0126466229382
-0.000111406510601
-2.76211962896e-06
-0.0104758518368
3.86312246155e-05
-0.0126463663183
2.28819064791e-05
-0.010441778641
-1.59601858685e-05
0.000273619144052
-9.08087940602e-05
-0.000111448272327
-0.000103209895972
-9.03070269862e-05
-0.000608016224901
0.000890095461067
-0.000196188174269
-1.26458912269e-05
-1.9850161251e-06
1.69608752459e-05
1.65520787528e-06
-0.00109076463031
-3.10894444203e-06
-2.43167322547e-05
2.60491302409e-06
-2.59363686782e-05
0.000216790186098
-0.000151457212926
0.00100526538211
-9.48075702334e-06
-7.27954168462e-05
-8.70068068489e-05
-7.19292726191e-05
-0.000924561272149
0.000330107111281
-2.67676084824e-06
-7.61131433714e-06
3.8529349463e-06
1.21751474313e-05
-7.39882188554e-06
-1.60323596667e-06
-1.47558596869e-07
0.000342011225554
1.9051698886e-07
-1.82304464576e-05
1.52030148166e-07
2.98345356922e-06
-1.18222989834e-05
-1.06559016294e-07
-4.99689224914e-06
4.19411576279e-07
-6.47052265648e-06
1.51620138296e-06
1.5680704431e-06
0.0002404781118
7.96858072531e-06
1.13904628636e-05
9.39052198202e-06
8.78118258126e-06
0.00014699420108
-8.38210306529e-05
1.11755789001e-07
-6.93111733825e-06
8.51912005318e-07
2.60322189417e-06
7.65421664807e-06
8.79524894937e-06
7.94890671917e-06
-0.000419934960135
0.000235286153868
-6.24463239153e-06
1.84268225098e-06
-0.000145017706689
-0.01289734062
-5.9229940688e-06
0.0128789005899
0.000159573773393
0.0129109692958
0.000149161115609
-0.000135639092892
-0.012920827991
1.33506899974e-05
7.1082008688e-06
0.010259720975
-2.5066811603e-05
7.90283493906e-05
0.0103163909672
-0.0103783374504
-1.28224108478e-05
0.0128908555555
-0.000132593248696
-0.0129060446647
0.000161843459383
0.0102756229084
-8.1243160077e-06
-0.000131659449951
0.0128592022089
3.69330769151e-05
0.000147311345931
-0.0128737021222
0.000122145209446
-0.000108923708516
0.0128345796749
-2.98268452218e-05
4.57236461042e-06
-2.57726598147e-05
-9.83082906771e-05
-0.0102270842542
-7.06759893681e-06
0.010228019616
-0.000117997206781
0.000136767730565
0.0128244265825
-1.02005973608e-05
0.0102854798813
1.79838925638e-05
-1.07607276607e-05
-0.0103179354571
-0.000151575141286
1.22966384343e-05
0.0102886601177
-7.37194227226e-06
-0.000136039373241
0.0128169059452
0.000126369972963
0.0128563019084
7.32702420578e-05
-0.0128779988896
-0.000129665863521
-0.0102505053679
0.0102513512532
0.0128233504817
-0.0102959553795
4.37796354577e-06
0.0126625719969
-6.92844149891e-05
-7.57091133084e-05
0.0103862622607
9.57766335747e-05
0.0104077889363
-4.28828557601e-05
-5.29647717356e-05
3.67215857113e-06
0.012672996782
3.78218308465e-05
1.24481899603e-05
-8.90964937419e-05
0.0103666341041
0.000110864765372
0.0126773822027
-6.63999058307e-05
0.0103854971535
-5.50500544617e-05
-4.736473137e-05
0.012688552569
-1.86651648277e-06
2.76959790694e-05
-0.0126956159553
4.21416852287e-05
0.012709768823
-6.52331180902e-05
1.25738455403e-05
-0.00010738906171
0.000130690311962
1.03781146389e-05
-0.0103638699737
-8.93472997147e-05
0.0103352356371
-6.85746611206e-05
2.02141730512e-05
0.0127032924206
-7.60648453861e-05
-0.0126391204132
2.78388550911e-05
-2.5171783396e-05
9.8875406143e-06
6.13098410458e-05
1.52663726252e-05
-1.30642795018e-05
0.0104367813391
0.0104623517276
1.99616009719e-05
2.48852592632e-05
0.0104425382027
8.78410012734e-06
1.16052400183e-05
0.0126628375055
0.0104139381736
0.0104268396638
4.45529475975e-05
-1.48557298512e-05
2.08484505758e-05
6.14066349102e-05
0.0103948116388
-3.38219095804e-05
-2.10779392627e-06
0.012682424048
-1.11998549809e-05
0.0126760154549
1.47373541054e-06
1.52601233392e-05
-0.0103887144539
0.0103534152021
0.0126918913722
-8.58705772957e-05
-6.57749490889e-05
-8.68444587551e-05
0.000159009234687
0.204348178171
-9.96126313016e-05
-0.000309679050628
5.56435795823e-05
-1.90829470476e-05
-2.76850655708e-05
-2.90184628721e-05
-1.5829319106e-05
-0.000116558015103
0.0510751837298
8.12660966147e-06
-0.000294699433234
1.514810689e-06
8.04115408599e-06
7.8231097305e-06
7.51145155339e-06
0.000250001388578
-0.000418416271513
0
0
0
0
3.15395364489e-29
0
1.74364195465e-27
0.00012278013752
0.000113634959353
9.92042604721e-05
0.000138882779396
-0.000250745570782
-0.000444944379815
0.0512024209256
0.000127205974525
-0.000162717473555
1.19305393291e-05
0.0102843389588
0.0510296870594
-1.75958270835e-05
-1.94251067012e-05
-1.63543110938e-05
-2.50459405102e-05
-2.66091497002e-05
0.051062731826
-1.21079320807e-05
-1.4349711592e-05
-5.92747265747e-06
-2.10289988932e-05
6.32580962839e-06
-7.28725524516e-05
1.54740189966e-05
0.0103018505694
-0.00012798700964
0.000152591166347
-1.22248390877e-05
2.78879123152e-05
7.47933143317e-05
0.010359941214
-4.88970912112e-05
0.0102772939717
-8.08898904011e-06
4.37630429849e-06
8.1688563431e-05
-0.0102994208586
-5.8911923484e-05
0.0510506924485
1.59696800581e-05
-2.41969498154e-06
3.55187986878e-06
1.20595917785e-05
3.47632786439e-05
3.88492293807e-05
-9.0903202424e-05
3.08111736812e-05
3.34110823864e-05
3.42247003307e-05
2.82117570355e-05
-2.94183178128e-05
9.27049651209e-05
0.0509805821775
-0.000120011230542
-1.93977976209e-07
-6.7455526301e-06
7.93366699476e-05
0.0102498982517
-6.25581788576e-05
2.26905385868e-05
-4.79612407018e-05
9.23093977022e-05
-0.0102173826959
0.010224424775
-8.54331826671e-05
-0.000110813803651
-0.000137187831944
-0.000114494921093
0.00046798095147
-0.000313349055974
-1.27630333648e-05
-1.02710563671e-05
1.70341518598e-06
8.00138533315e-06
1.29447825467e-05
7.86682274113e-06
-0.000180450188579
4.12296122143e-07
-0.000111139511814
6.58190528795e-06
9.27884325316e-06
7.48897799392e-06
0.000381192788344
-0.000296095188868
-6.41935396241e-09
1.14475761926e-06
-4.21744541238e-06
-5.12817407017e-06
6.82906357497e-07
1.11201784205e-06
-2.8949631068e-06
7.53520060573e-09
-0.000182359915265
1.44773192349e-06
-6.04211701622e-06
-2.47484176759e-06
0.000403488853779
-9.03251249151e-07
-0.000297262128508
-1.267369667e-05
-2.54802701261e-05
-1.38290254973e-05
0.000288456027341
-1.05456794774e-06
-0.000204136051569
-0.000221611378772
-0.012782605109
0.000157234575405
0.000111572319954
-0.000110582919861
0.0127466980815
-0.000125670990649
0.0127771696303
-0.000139872138675
0.0102554843449
6.65919394124e-06
1.61196370593e-05
-0.000187546005715
0.0102896004227
-0.000125953336258
1.00703592986e-05
0.0102670277204
0.0127390612919
-2.71413559076e-05
-0.0127155681516
-8.79179087952e-07
2.48389147477e-06
0.012722567315
0.012722245464
3.36315452644e-05
-5.68611643418e-05
1.08684209529e-05
-0.000132254806024
0.000155012503589
0.0102853701294
2.60841372239e-06
0.0103135331689
-9.64474049738e-05
-4.92988849344e-05
0.0127270165945
9.5805561193e-06
-0.000103418728273
0.01029534242
-0.0127070938235
-9.49515536228e-06
-1.37289778595e-05
0.0127155919239
8.58605267108e-06
0.0127040698663
-2.07638507855e-05
1.25141802411e-05
0.0103291210651
8.49569471569e-05
2.67766267088e-05
0.0103290613158
-6.12882599794e-05
0.0103124644965
0.0127169491907
-2.41518779722e-05
0.0127247529885
-7.43260213379e-06
-1.3271550457e-05
-5.07226924837e-07
9.97166576567e-06
-0.0127264757797
0.0127263848416
-2.04637965123e-05
9.24588478177e-08
-0.0102923338487
0.0102756871191
0.000103649144285
8.39081075628e-05
1.9630308948e-05
-6.29159216628e-05
0.0127274708884
7.46069514048e-07
0.000104682191332
-2.40758761823e-05
-0.0127257435593
2.63724552412e-05
-9.67662326503e-06
0.0127139608754
8.33971188045e-06
7.99251801315e-06
0.0127229462568
-1.52957009391e-05
-8.0897630825e-06
0.0102550750663
9.80268512226e-05
8.00605831792e-05
-2.67100402992e-05
0.0102292075503
-6.56687811359e-05
3.47588077592e-06
0.0102408951538
9.76339249602e-05
0.0127114107392
-1.54440779631e-05
0.0126968988955
3.92497859325e-05
-1.18826654907e-05
1.69187092247e-05
1.49145232117e-05
-0.0126917268171
0.0126745336115
-1.67649248871e-05
-3.85330766396e-05
-0.0102361858663
0.000101634218113
0.0102460833772
8.64505903663e-05
-4.75892872005e-05
-7.70088798756e-05
2.37858754553e-05
0.0126792894842
9.93281133322e-05
-1.52462026509e-05
-0.000529345329684
-0.049579248868
0.0493744118656
0.00060513370629
8.28735550626e-05
7.73045666898e-05
8.89808280825e-05
7.05170468641e-05
-0.000190865451603
-0.000596564103551
0.0498381298441
1.9315012098e-05
2.77047600825e-05
2.93120975674e-05
1.85692913622e-05
1.47091795941e-05
-0.04990247194
0.000551293216067
-0.000939899648016
-0.0498673371629
0.0499448715421
0.000816434209897
-3.84821557536e-05
-2.61042328914e-05
-3.3462010406e-05
-3.40182754027e-05
0.000177924414645
-0.000715946151394
-5.7457645892e-05
-4.66576413857e-05
-5.30131339319e-05
-5.01593938136e-05
0.00026045946521
0.0501054590673
0.00064479508893
-0.0500875679443
-6.20076596979e-05
-0.000107015678956
-0.000288587639892
0.000432796057176
0.00019165935148
-4.32933817028e-07
-6.23515027227e-05
-5.69487430898e-05
-5.57515522864e-05
-5.94985548474e-05
-0.000562466103189
0.000596448367943
0.000344522250887
-1.92175936976e-07
-5.28685150204e-05
-4.23195334983e-05
-3.27517809928e-05
-0.000212141797768
-3.25497189209e-05
-0.000231650615503
0.000289377221672
-6.44705373564e-08
-2.48437368062e-05
-1.26901055739e-05
-8.43138708135e-06
-0.000203497901125
0.000190698182419
-1.68963377383e-05
-0.000311599308756
-0.000378552079603
0.000421146671725
0.000175402742379
2.41799319633e-06
-5.35681472469e-06
-5.05008491288e-06
2.08796765832e-07
-3.25426902918e-06
-4.03425957419e-05
-1.51507032124e-06
2.26873961795e-08
5.97422603464e-07
0.000296360374363
-9.45559865407e-05
2.96822537273e-06
-0.000274328734997
0
7.96887837784e-30
0
0
0
0
-1.75422456879e-28
-7.5279170821e-29
-7.38519665812e-08
3.3226001494e-08
-3.78550361918e-07
-2.65249718327e-09
-3.38382124886e-07
4.3536321178e-07
6.0025328946e-08
0
1.93494113291e-28
0
0
0
0
-4.38021525068e-28
-1.7914594932e-08
5.58035874166e-08
-1.14661322117e-07
-2.12644557548e-09
-2.43626281802e-07
2.64237377064e-07
0
0
3.50270181707e-12
4.14155876328e-13
4.45825827579e-28
-3.9168576934e-12
0
-2.33081767497e-08
-2.00233925089e-07
-1.6961153464e-08
-1.46297473672e-07
6.06838707852e-08
-7.70395462391e-09
0.00018538993965
6.1165772547e-05
7.01593437054e-05
7.45082573924e-05
5.39290922445e-05
0.0492773542963
-6.73033541056e-05
-4.77420277958e-05
-0.0496075870796
0.0492434868793
0.000342068685606
6.21434268491e-05
8.38604396188e-05
7.63743193631e-05
5.97941598454e-05
-7.51587555098e-05
-0.0496072919514
5.20558290239e-05
-8.55625649902e-05
-0.0114832346575
4.63968171286e-06
0.0114855509413
1.36557613693e-05
0.0114987221906
5.84569445129e-05
5.6232765058e-05
-9.59384278758e-05
-4.01272989631e-05
-0.0114904816908
0.000109300287393
9.40826246512e-05
9.98412415753e-05
0.00010970875996
-0.00031166199805
0.0122867968906
0.012214464772
0.0121800589118
0.0121636841649
-0.000232263971227
7.01014854701e-05
6.06940304718e-05
-0.000100684048205
-4.83576665015e-05
0.0115046120236
0.000412379712486
5.49124825973e-05
7.76105210079e-05
5.86889989165e-05
7.23465498806e-05
-0.000167115350803
-0.0497460491296
0.0497315121739
4.72551610449e-05
5.36258817699e-05
6.19799763272e-05
4.0863559547e-05
-0.00015414820666
-0.0498350664825
0.000466334083223
0.0115007436616
5.6923621848e-05
-9.24047799199e-05
-0.0114889896857
7.01543169724e-05
0.0115278669772
3.40736504933e-05
-5.96524141028e-05
-8.22810678695e-05
-0.0115166661504
8.67566474087e-05
0.00083109308638
8.09231855898e-05
0.000100528181773
8.96509379277e-05
8.82303647175e-05
0.0491446098245
-0.000196518430451
-0.000156318141497
-0.000184688190952
-0.000150288105232
-8.4843356961e-05
-6.02416161901e-05
-7.06244626795e-05
-5.72144585287e-05
0.0495753946977
6.83310323511e-05
4.93556530877e-05
6.06149064748e-05
5.52988704593e-05
-6.90395609878e-05
0.0495845956546
0.000758344724356
5.33353004697e-05
3.8483970495e-05
5.14967887624e-05
4.17290008012e-05
-0.000121591894548
-9.77992591974e-05
0.011510943732
8.44420978214e-05
0.011530545654
7.06429557754e-05
-0.000112904182837
-0.0115272951388
0.000145157528572
-0.000124098156458
0.000103755309793
3.35602183089e-05
-6.2459952622e-05
-9.93871475676e-05
0.0115427133658
0.011585868536
0.000154877737112
2.37732632375e-05
-4.12569367334e-05
-0.00015846392202
-0.0115724977074
0.0496707599771
1.16212788266e-05
5.23229930692e-06
1.7605309679e-05
-2.63850815803e-06
-0.00103256731457
-2.5334290519e-05
0.00116331853208
-2.55034544321e-05
-5.20813581456e-05
-4.22147214135e-05
-3.67226536295e-05
0.0502209214914
-7.36584463091e-05
-0.00148314987467
-9.16414630627e-05
0.0115248735962
0.000163044243955
-0.000142383694205
4.9677097694e-06
-1.94568925513e-05
-0.0115097921163
0.000227703185504
0.011507846149
-0.000227751993504
0.000165247444123
2.34932761736e-05
-1.09644686041e-05
-0.000174682206187
0.0115764595224
0.000168387583103
-3.13307800111e-06
8.31475105922e-05
-0.000199092337476
-0.011540357714
0.0114945166885
0.000680735805926
6.4078218275e-06
1.0456155712e-05
1.534594369e-05
1.19284499451e-06
1.49630527984e-05
0.0500078888286
-5.23883731085e-06
-1.38190175017e-05
-1.06555994188e-05
-1.19246939915e-05
6.42187837386e-05
-0.0499729814309
0.00062320256365
-5.09807243186e-05
0.0115615203998
9.9233933848e-05
-0.0115457614509
0.0116018000922
1.60365747677e-05
-1.91773721564e-05
-0.0115924131355
0.000143191236058
0.0116300766945
5.81715075144e-06
1.05397509768e-05
-0.000116172780697
-0.0116359987276
9.92005528361e-05
0.000937227265816
-7.61390717908e-05
-8.59038120651e-05
-7.36575641447e-05
-8.61297647634e-05
0.0502122964016
0.000280485449509
0.0500624817106
-4.19974282569e-05
-3.73516808301e-05
-3.70612232937e-05
-4.26346713443e-05
0.000204920163914
-8.03462205096e-05
-9.89754543579e-05
-8.11787804942e-05
-9.66394721907e-05
0.050239140001
0.000763384284921
0.000354279734186
7.88588528557e-06
0.0115890207109
0.00014857350563
-3.37536380129e-06
9.08676781162e-05
-0.0115385698093
0.000144802365576
0.0114825829773
9.54110644477e-05
1.00105206115e-05
2.05221857369e-05
-0.000114912008843
0.0116082055651
9.01362392389e-05
-2.29205632964e-06
9.37219449704e-05
-0.000108783966728
-0.0115340474317
0.0114654891829
2.81540593694e-05
0.0116005192034
7.43949259916e-05
-0.0116231429037
0.000110204695922
-0.0115152912299
0.0114385811828
-4.13678467712e-06
7.90508780081e-05
-1.98301995349e-05
-3.8834404186e-05
-6.63118289773e-05
-4.96241173176e-05
0.000304334697449
9.0500634454e-05
-0.000161735356763
-6.64525019195e-07
0.000312622621991
5.30687961174e-05
-5.36784940634e-05
-4.67922380892e-05
-4.31002468863e-05
-0.00018050038544
-6.05593832913e-07
-4.81590137017e-07
-6.82043128255e-05
-6.84030699597e-05
-6.9841308228e-05
-2.83047408587e-07
0.000472761979622
1.740150529e-07
-4.30510295988e-08
5.12563746428e-07
4.41874603782e-08
-2.29562327698e-07
-4.81643179928e-10
1.5664205292e-07
2.81457858332e-07
-9.78053947187e-09
1.96831340286e-07
-5.90201597807e-08
-2.3728293987e-07
1.96039792451e-07
-1.4753466056e-08
2.98686268967e-07
2.72952507917e-07
1.94324905943e-08
4.04584178425e-07
-5.27731618828e-08
2.97978373923e-07
5.92864198798e-07
8.44516125404e-07
-1.47037744478e-06
3.98377136848e-07
-4.78916729227e-08
3.59180034426e-07
-6.73747283834e-08
1.33428830193e-06
2.47274231354e-07
0.000128752979925
-5.4506614807e-05
-4.73953419953e-05
-3.98268944042e-05
-5.4902764865e-07
-0.000170639760205
0.00022901101738
-5.464255042e-05
-2.99387113688e-05
-4.60531950583e-05
-0.00012466242616
-3.81483289852e-07
0.000172411387837
0.000277980213493
-2.49820849346e-07
-7.42288070066e-05
-5.72869665451e-05
-5.49928861821e-05
-0.000164023571421
0.000347472654531
-2.57881210555e-07
-5.81864721012e-05
-3.10962576511e-05
-5.20966239048e-05
-7.68699841092e-08
0.000447393159776
0.000283453717099
-3.67338406305e-05
-3.64924550449e-05
-5.23201739062e-05
1.8415599536e-07
-6.0932792773e-08
-2.1679704092e-07
-1.75114176778e-08
1.77281708655e-07
1.40138564642e-07
-4.74816695066e-08
-1.77314326456e-07
1.20028185411e-07
-2.17915679364e-08
0.000350039070018
2.12336726768e-06
-2.78958769104e-05
1.51309912306e-06
-1.47202659965e-05
0.000441088825933
-0.000242239595946
0.000477519412908
4.81284808977e-07
-3.61872946772e-05
-3.72671830168e-06
-2.13559738314e-05
4.67955253794e-06
0.000278269488935
2.25269136427e-06
1.19528606391e-06
5.11993616475e-07
0.000374729731045
3.05964343001e-07
-3.1019458203e-08
-1.16336088383e-07
1.3814551018e-06
2.11255716183e-07
-7.61147306518e-08
-2.44814665924e-07
1.68534313867e-06
0.000188406027306
2.68630833488e-07
-2.60504503357e-05
-1.44458218564e-06
-1.03042185702e-05
1.20030107812e-06
0.000351855826865
-8.08640127451e-06
-7.63327802843e-06
-1.16523379249e-05
-0.000275579882111
6.57494810441e-05
1.0160930049e-07
-1.27095523137e-07
-4.7455889137e-08
-2.85746290583e-08
1.02355342411e-07
1.48474950005e-07
-1.24868842511e-07
-4.39945227155e-08
0.000125583726964
5.79004884092e-06
1.5147292129e-06
3.09643974939e-06
1.24509211755e-06
0.000363100432209
0.000403504398474
2.42889113299e-06
-6.14640522631e-06
-6.34155236613e-06
-3.83582830599e-06
5.94310401005e-06
2.19578777885e-06
1.49586343387e-07
4.4621169471e-07
0.00034704694786
-2.83592636292e-05
5.14919755425e-07
-6.76538302939e-08
-2.30892852738e-07
1.64113661818e-06
3.9396118969e-07
-8.18837099599e-08
1.46514241783e-06
-2.40449659827e-07
0.0124555548021
7.40611832095e-05
-3.24453797764e-05
4.43273501075e-05
-0.0124803019986
4.10398541213e-05
-0.0124507340532
0.0124103474526
-1.61484118833e-05
1.66584861298e-06
-6.29013343911e-05
1.44067497167e-05
-0.0114864822719
-9.62945426489e-05
-0.0114920283595
1.95410602334e-05
0.0114905418432
5.84999239224e-05
0.0124162675919
1.50532948706e-05
-0.0114919920202
-1.37166246623e-05
-0.012478420482
0.0124588784012
6.28249471791e-05
6.98361208488e-05
-0.0124850788267
-7.74883876622e-05
-0.0124668258765
0.0124401490184
9.19926111275e-05
-9.07093180271e-05
-0.0114930375997
0.0114946282503
-6.94311050438e-05
-3.15114478684e-05
4.56851240869e-05
-0.0114953539908
0.0124254740483
7.70940431271e-05
-0.0124907194746
-0.0114939144182
-0.0123953960018
0.000107991285821
0.000118385110837
-8.42920026559e-05
0.0123623732739
-8.58692056382e-05
0.0124121301652
0.000107117170249
-0.000108024064636
0.0114984464147
-2.82135371573e-05
-0.000116395814377
-6.44816679284e-05
8.71935129208e-05
0.011515346551
-6.41673714057e-05
0.000127667309155
0.0123855876608
-3.78026208473e-05
0.0115050222717
-8.37152105476e-05
0.0124956185358
6.12679092876e-05
9.16883631815e-05
-0.0125098850183
-0.0124813161092
9.84795540755e-05
0.0124599587409
-7.05074056564e-05
5.5499487195e-05
-0.0114960441958
-8.21520129716e-05
-0.0114983243887
8.20049619198e-05
0.0115103266878
-0.0124998093874
0.000105284996972
0.0124789939283
6.6991604757e-05
-0.0114981875801
0.0125108185742
9.24042706347e-05
5.67290350519e-05
-0.0125210041288
-0.000105314560722
-0.0125246343634
0.0125114338246
0.000112451214421
-7.68687579355e-05
-0.0115047404204
0.0115149864326
-4.30988617059e-05
-6.71688634576e-05
-0.011516357256
7.12297608274e-05
0.0124958457156
-0.0125334431841
9.90457873943e-05
-0.0115039608727
-0.000134517899563
-0.0124523832064
9.80847002853e-05
0.0124295767386
0.000141932819048
0.01243280699
0.00011368702742
-0.000108879877361
0.000103467658605
0.0115279574403
-8.97246739113e-05
0.011517733825
9.65676661547e-05
0.0124059058864
0.000121016261595
0.0115338387688
0.000115467937833
-0.000154229543237
0.0124119130848
9.16302426778e-05
0.000160851103098
-0.012381385046
0.000183521711964
0.012362229088
-0.000177175745438
-0.00010513736907
0.000121883407127
-0.000106867798645
-9.19537517958e-05
-0.0115432612579
0.000159786243722
0.0115508245434
-0.00014547328039
0.000189788605497
0.0124015309881
0.000136328629693
-0.012473158861
0.00014034091871
8.75318670465e-05
0.0124551829826
-0.000119847699261
0.0124920158359
0.000126011468868
-8.4294166194e-05
0.0115244336969
-6.60319279494e-05
-0.000118874988859
0.0115645069452
0.000122692946176
0.0124782346209
0.000143039017088
0.0115430289656
0.0124378472063
0.000158045849781
7.31194255313e-05
-0.000184082624567
-0.0124649112344
0.0124643798707
0.000181606254483
-6.06895110848e-05
-0.0115516426657
0.0115682858784
-5.34686456771e-05
-0.000138121589282
0.000138363648423
0.0124341097817
0.000159154570154
-0.00024200985392
-0.0123947021653
5.81450393334e-05
0.0124005839996
0.000247385495306
-7.01970343038e-05
0.0123543700503
0.000207504154485
-8.38845773166e-05
-0.000208104091284
-8.27099808287e-05
0.000185234068143
0.0115192966153
-0.000166161706624
-7.10700026001e-05
0.0115481603454
0.00018082710764
0.0123656664814
-8.7554106232e-05
-0.000249492698287
0.000212877022829
-7.01256925908e-05
0.0115435212241
0.000200004234499
-0.000270516987472
2.06678694413e-05
0.0124370685582
0.000277222241956
-6.48293482267e-05
-0.0124140197412
0.000301096587844
0.0124855307573
-0.000307134884454
-8.52808392843e-05
-4.43463742838e-05
0.000206453770568
-0.000196511153388
-0.0115243613553
4.08664794419e-06
0.000232123186591
0.0115121666714
-0.000278587193882
-8.54044861153e-05
0.00021584338719
0.000304660243727
0.0124969248963
-6.00722461937e-05
-0.0124282767311
0.000232959974611
1.29582978072e-05
0.0124409519017
-0.000203407214362
0.0124574999489
0.000204498474216
-3.26241491825e-05
0.0115623720724
1.11358401895e-05
-0.000188145542029
0.0115703273432
0.000174202708289
0.0124692089804
0.000229677097112
0.0115560732933
0.000259406533896
-3.08699139551e-05
0.0124634761695
-0.0124847902747
-0.000281119710688
0.000272898287133
0.0125239158833
-0.0115387594927
6.55145841779e-05
0.0115070566953
5.48558789984e-05
-0.00019529403784
0.000170173539522
0.000256409413486
0.0125152426477
-0.000135512321074
-0.0125236392582
2.96012149718e-05
0.0125144297571
0.000134278316573
0.0125091966486
0.00012049358261
-0.0125270506351
-4.88761783161e-05
0.000118009307874
0.0115840698769
-3.36069755347e-05
0.0115865526685
-0.0115702010257
0.000100579282439
0.0124968875512
-0.0125393366699
0.000121141870612
0.0116057585744
0.000115776283036
-0.000151496516022
0.0125083530642
1.43625589014e-05
0.0001492295254
-0.0124872135221
0.000170112318222
0.0124897635786
-3.22276730993e-05
0.000130323816593
-1.02133856768e-06
-0.0116100702167
0.000132871707324
0.0116168319653
0.000166773644016
0.0125113842415
0.000125789032617
0.0125261696026
0.000144879499345
3.93538428226e-06
-0.0125313389672
-0.000160006555626
-0.012540196915
0.0125413140661
0.000155596149848
5.80523664912e-06
-0.0116290569326
0.0116264725925
5.37621123189e-06
-0.000113234977242
-0.0116366819466
9.84954695453e-05