/*--------------------------------*- C++ -*----------------------------------*\
| =========                 |                                                 |
| \\      /  F ield         | OpenFOAM: The Open Source CFD Toolbox           |
|  \\    /   O peration     | Version:  v1906                                 |
|   \\  /    A nd           | Web:      www.OpenFOAM.com                      |
|    \\/     M anipulation  |                                                 |
\*---------------------------------------------------------------------------*/
FoamFile
{
    version     2.0;
    format      ascii;
    class       volScalarField;
    location    "8.6";
    object      alpha.water;
}
// * * * * * * * * * * * * * * * * * * * * * * * * * * * * * * * * * * * * * //

dimensions      [0 0 0 0 0 0 0];


internalField   nonuniform List<scalar> 
28582
(
0.999994582079
0.999997183451
0.999996674163
0.999997284296
1.00000090347
1.00000079222
0.99999807747
0.999994670997
0.053536263351
0.0580651449661
1.54257261277e-05
0.999996995615
0.863216713309
0.866461135169
0.999993397861
0.999994712468
0.867478338593
0.998545551072
0.998684727101
0.999994510601
0.999996622053
0.999996093678
0.999997332242
0.999997289512
0.999997084016
1.00000090552
0.999999998184
0.999984118911
0.999992506035
0.0582507900442
1.9436193016e-05
-2.40810297703e-24
0.999986525726
0.999992943878
0.85849758072
0.855286982923
0.998391023195
0.999994352934
0.999994305306
0.999992911581
0.998509128098
0.861594064232
0.998620801051
0.998606591573
0.0565145367691
0.0560889203373
0.000226373578219
0.000554164570283
0.0577855444733
0.000683126372012
0.998683616813
0.998788075438
0.864451410774
0.865706608754
0.998790289676
0.867694339138
0.998704434219
0.998782739055
0.998672363811
0.865220729715
0.869336108931
0.998763715664
0.868658163586
0.99870272913
0.998642863987
0.998615257459
0.867552624558
0.86979068609
0.998707034747
0.870400466165
0.998572829425
0.99848170543
0.866961129725
0.86957122935
0.998591973627
0.867297906016
0.870139389107
0.99853271183
0.998712844955
0.871450982976
0.874301957443
0.998753941993
0.874608797572
0.998774328766
0.871909263725
0.0526014566048
0.000805860605765
0.0495254476893
0.0538487869362
0.00082244732698
0.000702533194199
0.0566199880429
0.000146697965649
0.000364947328032
0.057117734572
0.00032701178272
0.0584529409397
0.000453389786918
0.998011535724
0.998074595741
0.856059995056
0.860098636811
0.998045925402
0.998036904362
0.857892983464
0.997980572703
0.99803989317
0.854504418429
0.856339851239
0.99802699912
0.99798417274
0.855937868683
0.858946133681
0.85965228039
0.998389814414
0.998216360919
0.857449301097
0.998219269362
0.857052997526
0.998456294565
0.866066791607
0.868467395648
0.998504238764
0.864899369274
0.998452481455
0.86718684771
0.998514742811
0.998521956462
0.863214420695
0.862958935872
0.998476858789
0.998553462791
0.865306114221
0.998615683188
0.998656768829
0.870866067755
0.873646263619
0.873076251945
0.998590187857
0.869991017611
0.871149846267
0.86820448582
0.99859975318
0.998589353314
0.864624042807
0.99858435964
0.867710471697
0.99999940781
0.999994988623
0.0586920224896
-3.33975218614e-27
0.999993641916
0.860805348718
0.99999367344
0.999994745674
0.859848409642
0.864739326207
0.854123735757
0.999993320089
0.999991822016
0.852379695323
0.848206566128
0.0554396017789
0.0578488608337
0.058856114995
0.000467949622307
0.00041851229248
0.000452465146192
0.0599648004288
0.0617270091487
0.998266506188
0.998396336685
0.858558945964
0.861838995968
0.998239626217
0.859710011178
0.998417151011
0.998734612539
0.998594756416
0.858020738137
0.860718517121
0.998672762507
0.998649643432
0.858628199221
0.998640353533
0.998616101175
0.861808874296
0.860805107374
0.998609865462
0.859453266681
0.998616694537
0.998636663507
0.998561881337
0.85460542235
0.857589633168
0.998609976591
0.857085340062
0.998599533416
0.998380572687
0.998481659345
0.853075853895
0.850486661594
0.998535573506
0.851590158347
0.998345918493
0.998165618994
0.997832749351
0.849817138638
0.84881766986
0.997873377103
0.850242795333
0.998131987919
1.00000351028
1.00000172411
0.999999181753
0.999999912906
0.0256339141965
0.0283760280957
0.0245743268978
0.0269426151699
0.0269134054261
-1.31122044783e-27
1.05989641332e-05
-8.11535578193e-28
1.15560446445e-06
1.70104348162e-29
4.51438991057e-07
1.00000552005
1.00000584672
0.95126972352
0.950670876864
1.00000517705
0.950370779403
1.00000307277
1.00000340248
0.95000979761
0.94909551537
1.00000157607
1.00000281695
1.0000017088
0.949821795085
0.948787151401
0.948746651559
0.947834899364
1.00000060184
1.00000030538
0.948175787901
0.946050401085
0.947523654098
0.944387617417
1.00000067389
1.00000070672
0.948703241038
0.948112134549
0.949661461021
0.999999115655
1.00000102356
1.00000097655
0.947824613798
0.94470868288
0.948993402635
0.945586356328
0.948621162749
0.944210424576
0.0245230933177
0.0245570822899
0.0258841503547
1.88654856376e-05
9.12698178997e-06
1.87297031388e-05
1.05259551569e-05
1.80910277856e-05
0.000149956154399
1.98409887289e-05
0.000114921875968
0.024578387017
0.0243114068498
0.0268471756538
0.025284444275
0.0263809526687
1.91016823348e-05
1.11156714336e-05
1.6183787983e-05
8.23090901014e-06
0.0305354864793
0.0277309450014
0.029875290308
1.53858551526e-05
6.31221069487e-05
1.15804753345e-05
7.74203402266e-05
0.0255403207609
0.0247843196792
1.38390680843e-05
8.50335580945e-06
1.30698125358e-05
0.0295359328604
0.0265537533566
0.0295774742446
2.62999774874e-05
7.70721895736e-05
2.24892159804e-05
6.65172393533e-05
1.00000586051
1.00000867831
0.951689364626
0.951360309427
1.00001254972
0.951811525321
1.00001085679
1.00000661573
1.00000422431
0.951221044059
0.951098987285
1.00000679844
1.00000613106
0.951666728886
0.999996323034
1.00000011462
0.950746485123
0.950111942108
1.00000684722
0.999997882205
0.950315053724
0.999989705811
0.999997396157
0.950391631775
0.949696659362
0.999998393995
0.999995271821
0.949967777807
0.999992160861
0.999992645541
0.94919429704
0.949455032475
0.999992757389
0.999991201026
0.949466248943
0.999991632073
0.999994963721
0.949625332667
0.949375398523
0.999994662895
0.999996092901
0.948980487342
0.999975104795
0.999970478697
0.949279456521
0.948331808332
0.99999021886
0.999955989357
0.948596059112
0.999975562566
0.999989306129
0.948836431188
0.948412623462
0.999992432947
0.999973668292
0.948360217855
0.999952546164
0.999911052991
0.947850960479
0.948144370214
0.999931438858
0.999939696019
0.948066215024
0.999887701773
0.999929904356
0.947565466421
0.947907957249
0.999865915809
0.999932894223
0.947273514773
0.999825010706
0.999775814976
0.946784619962
0.945258594769
0.999804346069
0.946413729411
0.999777794569
0.999894547079
0.999901152006
0.947591174572
0.947219171535
0.999915480786
0.999897476319
0.947184133701
0.999851600469
0.999864548833
0.944836159284
0.946297118082
0.999888462372
0.946375603752
0.999804489366
0.999977667529
0.999983604457
0.948525201276
0.949287573208
0.999968276377
0.999985492919
0.949157538962
0.999956382112
0.999907829445
0.948354799192
0.948721839419
0.999934129177
0.999908640188
0.948957166911
0.999931469068
0.999946432602
0.949379276112
0.94998302112
0.999916666528
0.999951392547
0.949672472443
0.999886325766
0.999895487636
0.947547783906
0.948482534826
0.999896458609
0.999891315161
0.948073465898
0.999883008352
0.999882728112
0.94653748892
0.945425054752
0.999894648908
0.947131594155
0.99989082108
0.999918924995
0.999938752277
0.948904116202
0.948021942562
0.99992258606
0.999927755119
0.948236227908
0.999909673448
0.999916345844
0.945973035667
0.947002608797
0.99992788189
0.947319883307
0.99991728665
0.999929471692
0.999947720776
0.94753807134
0.947819464496
0.999933258292
0.99994371675
0.946757086012
0.999883070397
0.946024831847
0.999899333259
0.999994242694
0.999997139205
0.999999025054
0.999996085799
0.999992971712
0.999981521304
0.999997383439
0.999997592732
0.999998095415
0.999994235651
0.999987787174
0.999986517332
0.999970741704
0.999968258935
0.999976760537
0.99998363199
0.999997223792
0.999999816986
0.999998050271
0.999969469783
0.999995754243
0.999994234582
0.999978090588
0.999980243194
0.999990164054
0.99999765202
0.999992512979
0.999978905797
0.999991301534
0.999993339714
0.999996592342
0.999998317513
0.999999224857
0.999998504648
0.999991955903
0.999989006829
0.999992294177
0.999994916964
0.999998614606
0.999999034585
0.999998558175
0.999992414884
0.999986980708
0.999992786178
0.999998591776
0.999993059829
0.999986983762
0.999990211632
0.999785113034
0.999970291676
0.999998849932
1.00000228414
1.00000194566
0.999991798189
0.999865769898
0.999830717038
0.999944107966
0.999894482528
0.999991881318
0.999998194393
0.999999947226
0.999999627615
0.999990026217
0.999961860576
0.999981618686
0.999983823008
0.999992676125
0.999998509804
0.999999314456
0.999998929563
0.999996457257
0.999993897003
0.999998305778
0.999999041332
0.999999178486
0.999999043788
0.999998500014
0.999997275513
0.999995964798
0.99999696877
0.99999756454
0.999995362915
0.999993645696
0.999995285707
0.999783994595
0.999983814547
1.00000585631
1.00001321051
1.00001130698
1.00000160422
0.999929760254
0.999904609918
0.999891780011
0.999933244233
1.00000107672
1.00000691502
1.00001168622
1.00001230755
1.0000075883
1.00000153566
0.999995666807
0.999999110551
1.00000121573
1.00000265011
1.00000349824
1.00000359831
1.00000336179
1.00000284231
0.999999935425
1.00000133373
1.00000191571
1.00000187028
1.00000137252
1.00000085012
1.00000084145
1.00000113507
1.00000147682
1.00000187354
1.00000150357
1.00000132094
1.00000157323
1.00000175676
1.00000207363
1.00000219355
1.00000026471
1.00000084155
1.00000174071
0.999958694149
0.99999539977
1.00000370444
1.00000013343
1.00002036674
1.00003059305
1.00001582364
0.999988856854
0.999999921414
0.99999827734
0.999999908078
1.00000048733
0.999998241464
1.00000007604
0.999999903667
0.99998920721
0.999971624927
0.999999585994
0.999996595523
0.999992469231
0.999996483154
1.0000002041
0.999999922749
0.999997748741
0.999995023512
0.999989287299
0.999988589066
0.999993698737
0.999989812238
0.999996744679
0.999998198756
0.999997332863
0.999994598523
0.999991418117
0.999991770451
0.999990745668
0.999991701967
0.999990425261
0.999988823713
0.999987584209
0.999988487114
0.999988827382
0.999989493488
0.999997107464
0.999990018225
0.999989673128
0.0458771538146
0.0525864159427
0.0598543273961
0.0587302712602
0.0557626375944
0.0570524643638
0.0617845753444
0.0636180982984
0.0334643312461
0.039853874765
0.0446930728473
0.0523853366072
0.0578716419534
0.0564130754685
0.0555663296464
0.0568713559967
0.0621979063864
0.0627756719495
0.0338594910178
0.0413863206048
0.0465977532549
0.0525245887124
0.0553955726911
0.0545710735375
0.0550747381895
0.0581570662746
0.0618139581321
0.0605870629744
0.0432500267075
0.0495555183522
0.0551730257485
0.0568511451779
0.0566851668223
0.0578616210072
0.0597477398635
0.0601622474942
0.0592098475062
0.0565761601892
0.059654021274
0.0592909237792
0.0591610360535
0.0599777638329
0.0599453142684
0.0595563596581
0.0599061193013
0.0612950268526
0.0607728820891
3.92887534242e-05
1.2715862179e-05
1.53197234717e-05
3.14957628613e-06
7.07087893398e-06
9.75443402551e-07
7.18627824615e-10
7.34431447656e-07
-8.88792794355e-26
7.57840946925e-05
4.89395257515e-05
5.39314540247e-05
7.94496369123e-05
-3.52424326027e-24
-8.86070880671e-27
1.16509890402e-05
1.12114933051e-05
1.59002991401e-07
-2.40796073292e-26
4.52191602321e-05
3.42246479147e-05
1.43435134691e-05
4.26345984838e-06
3.30872245021e-25
-1.51311480405e-26
-5.13254376506e-28
4.06165948195e-05
1.40097922448e-06
-7.40953976615e-28
3.01601487965e-05
1.39468025515e-05
8.8546917952e-07
-1.03397576571e-26
-3.78279887242e-28
4.91693497232e-07
6.47128812983e-05
-5.16709202052e-24
-5.57655850842e-28
2.93517736354e-05
7.4347828108e-06
1.82222035428e-05
7.75636687738e-05
1.22203224215e-05
-8.98194288509e-27
-7.88916616824e-27
4.82865156797e-05
-2.5470616182e-27
-4.25191942422e-26
8.31727125902e-05
0.999949760841
0.999995417204
0.999994479423
0.999840137296
0.999904254079
0.999925228429
0.999940218289
0.999988717558
0.999995715991
0.999995786549
0.999971445385
0.999984333481
0.999970953044
0.999979180835
0.999992888613
0.999995526708
0.999994668909
0.999985857097
0.999983503277
0.999992887789
0.999992332623
0.99999572388
0.999978761901
0.999963887494
0.999987178562
0.999989848803
0.9999749313
0.999961671775
0.999882587333
0.99978525587
0.999847991107
0.999784771472
0.999857198131
0.999785113034
0.999825547231
0.99999459941
0.999952464968
0.999984601719
0.999968579681
0.999997087272
0.999946571298
0.999992145952
0.999867871634
0.999990705472
0.999977868837
0.999851549765
0.999828067626
0.999972251066
0.999925598986
0.999962573451
0.999944141531
0.999960273623
0.999892221896
0.999977170953
0.999934115488
0.999974651726
0.999886502793
0.999804143039
0.999886164821
0.999860020686
0.999953613253
0.999879513947
0.999952899185
1
0.999974297195
0.999998903594
0.999999316918
1
0.999997675958
1.00000353269
0.999874950479
0.999975886037
0.999968627777
0.999963339698
0.999965991877
0.999998943603
0.999998811164
0.999987996066
0.999972423549
0.999989467508
0.999986232929
0.999999067024
1.00000020492
1.00000295611
1.00000114345
1.00000052092
0.874644776084
0.875044181397
0.999972375547
0.999988245874
0.999992460029
0.866712064243
0.846411137099
0.867315115047
0.852071012982
1.00000268996
1.00000346947
1.00000724318
0.845751602146
0.850665277749
0.849989747112
0.855925471597
1.00000113021
1.00000186538
0.99999929687
0.853447395462
0.863679182478
0.858503541775
0.867683114817
1.00000839919
1.00000539834
1.00001671503
0.865529999322
0.874852909849
0.86932321803
0.875578471609
1.0000283024
1.00002750438
1.00003484008
0.876249340161
0.880091396673
0.87627002557
0.879273959921
1.00002887866
1.00003649279
1.00003175395
0.878902951959
0.866413054818
0.878212351401
0.86471069174
1.00000288833
1.00002266603
1.00001024614
0.86378549093
0.860232425874
0.859959018598
0.846577756657
0.999939115907
1
0.999962171398
0.863053101982
0.824131280006
0.850481244976
0.84263506643
1.00000098273
1.00000023986
0.942891488369
0.916401396815
0.940456862197
0.917734739888
1
0.999998049447
0.999994262563
0.904434774355
0.875557639493
0.906104578052
0.871219261995
0.999999782911
0.999992607541
0.99998905633
0.867289572716
0.854112457745
0.86382465161
0.855794405591
1.00000244943
0.999993692413
0.999995618309
0.852319737604
0.858189570059
0.856446798802
0.865535164944
0.999998230274
0.999999160894
1.00000116558
0.860449442679
0.869182396062
0.868264134299
0.876282283451
0.999999821217
1.00000170143
1.00000316059
0.870477515065
0.876187100522
0.877536118022
0.879567080605
1.00000116105
1.00000467309
1.00000399798
0.876752491572
0.87883201327
0.879695186275
0.875361091072
0.999996032619
1
0.999998023858
0.877339175784
0.862033064396
0.870599226787
0.853932602192
0.999981510619
0.999993722691
0.999985911114
0.85689424607
0.844668720306
0.850986855161
0.845373549926
0.999975030142
0.99998105331
0.999988234831
0.849839588844
0.846847071528
0.851620956932
0.851743845451
0.999998100918
1.00000088155
0.999999774411
0.94045314787
0.916006347728
0.94142955072
0.908946504622
0.999992616229
0.99999233695
0.999985515926
0.904069431979
0.868826244402
0.89359228451
0.859276547258
0.999996453593
0.999992696227
0.999995542626
0.8622168985
0.857496578658
0.855409379388
0.857251254013
1.00000032159
1.00000250365
1.00000352666
0.858627401996
0.866883214307
0.860030064002
0.868499527943
1.00000108791
1.00000401539
1.00000483843
0.869808975455
0.877323607522
0.87119585234
0.877364826451
1.00000002706
1.00000374027
1.0000032718
0.878652518362
0.880106855297
0.878325927212
0.878529352622
0.999996830258
1.00000019239
0.999998905887
0.880066392076
0.87320660985
0.876081019438
0.862067993395
0.999993452311
0.9999965986
0.999992986353
0.867771439458
0.852683569496
0.857797311085
0.851932328707
0.999990116505
0.999993994219
0.999992367746
0.850769157475
0.84737012961
0.852008649002
0.854107973121
0.999996545503
0.999994113158
0.999999507754
0.85429345932
0.852876640277
0.860064360782
0.856261500516
0.939454812933
0.905847416164
0.999989214377
0.999983439637
0.890698905927
0.857905346038
0.860421390252
0.99999654814
0.999988980584
0.99999299062
0.854879761698
0.856755523209
0.856672523033
0.855128787482
0.999998187108
0.999995952663
0.999998409562
0.859474997241
0.867424820262
0.856543273161
0.862172924531
0.999997680547
0.99999711582
0.999999099099
0.869936069391
0.875667537723
0.863650073935
0.868162527507
0.999996325394
0.999995923998
0.999994699654
0.876669218973
0.874702033891
0.867058437789
0.860239402635
0.999991240166
0.999991976645
0.999990508621
0.871505313247
0.859375317037
0.858239761009
0.854945952917
0.999993104693
0.999991684672
0.999993108825
0.856385333214
0.852118727266
0.854082502219
0.852092968562
0.999992738276
0.999995638135
0.999993501231
0.852382994326
0.855067201128
0.852536657521
0.855009765638
0.999996065231
0.999994110183
0.999998689217
0.86058375872
0.856731553652
0.860670526819
0.855815043503
0.999990199766
0.999992426666
0.85643471038
0.8613860073
0.864271427491
0.99998804676
0.99998844683
0.999989486341
0.862607510226
0.866015248887
0.865609882184
0.867315796641
0.999986286826
0.999988479427
0.999988825283
0.864960104794
0.859217901973
0.867084275292
0.8623173441
0.999987586022
0.999989784024
0.999991347444
0.858174064688
0.854152225107
0.859845149756
0.85449959441
0.999990007786
0.999993403545
0.999993732174
0.853585954488
0.851723340607
0.853169136348
0.850061954756
0.999989839482
0.999993882337
0.999992722641
0.852289276821
0.854619038537
0.850781563557
0.853688528443
0.999995201668
0.999994420769
0.999999635618
0.859864775285
0.856327831964
0.858025176255
0.85351872924
0.999997307273
0.854591534472
0.999995669913
0.853248920404
0.850472627241
0.999989337482
0.850972227021
0.852750621322
0.999997083845
0.856962401598
0.853036393213
0.000532234566651
0.000727522757687
0.000501924942141
0.00077255673195
0.0431650748071
0.0425117681681
0.000563036593455
0.000464385156158
0.000551337899848
0.000506010216694
0.0485358864246
0.0452081495303
0.0480776580435
0.000568250880647
0.000702804975696
0.000658153555798
0.000741335848354
0.0563029000816
0.0522683167587
0.0556069835789
0.000633798478075
0.000461818365716
0.000551682123701
0.000365095865783
0.0593609291661
0.0590359061855
0.0583489760142
0.000404966061114
0.000266278235447
0.000235783783231
0.000159121264542
0.056402933354
0.0577992067518
0.0560819771164
4.55814490394e-05
1.48216830756e-05
0.000131631191078
4.98836806691e-05
0.0556346360844
0.0557306837102
0.0555130834269
8.57375905796e-06
2.48118591864e-05
1.08665313953e-05
1.70738542687e-05
0.0595769300346
0.0568453672501
0.0594616959966
0.000225071419386
0.000575215820712
0.000134135603496
0.000528705421501
0.0632780703155
0.061891536508
0.0641452176556
0.000532841163872
0.000508469757104
0.000550003312944
0.000593369637419
0.0649128264756
0.063034664828
0.0662764876685
0.000745893692889
0.00183810207013
0.000833651830879
0.0010763294152
0.0368615780473
0.033502061322
0.0371076762341
0.000378979200369
0.00082879050357
0.0002864426785
0.000770752704996
0.0421372045993
0.0403491023341
0.042780438417
0.000721409006994
0.000801595473879
0.000742437771161
0.000848744306327
0.0479820898751
0.045468300242
0.0487825484699
0.00112325860348
0.00103720375071
0.000998317751517
0.000861169994989
0.0550102934984
0.0523324559385
0.0542970213494
0.000371652524003
0.000184037697658
0.000318546184934
0.000155206620952
0.0570806726657
0.0564328776576
0.0558535479777
0.000105804704286
5.10604540182e-05
9.03034002928e-05
3.94251839393e-05
0.0554969709212
0.0552231006877
0.0548691253054
0.000134752692959
0.000179519320629
7.12648944362e-05
0.000115672246677
0.0556240869133
0.0549842748059
0.0560532596766
9.76934738072e-05
5.64148265824e-05
0.000227005245004
0.000277467897724
0.0596946447142
0.0574050458437
0.0600831643551
0.000237760573535
0.000551127760671
0.000455045146694
0.000609416629694
0.0644579150687
0.0622969501434
0.0640721702503
0.000601848237302
0.000638874125907
0.000603429362647
0.000632338714353
0.0658746975071
0.061861707843
0.0646150227095
0.000754098846867
0.000670991740872
0.00060141188155
0.000614444826533
0.0381589977724
0.034672374215
0.0393436025674
0.000249343573073
0.000681397203661
0.000231482655194
0.000613767204892
0.0438013870151
0.0424726031365
0.0450313961327
0.000621596267286
0.000683062398656
0.000667192781385
0.000729604927678
0.0498907397677
0.0479017093075
0.0514911995582
0.000630026227288
0.000547310305258
0.000622164528702
0.000506592562771
0.0542754768491
0.0534921044264
0.0550592907392
0.000323712754066
0.000179565503157
0.000321911413037
0.000204437983616
0.0550957219501
0.0554823487148
0.0552395140417
9.23720489068e-05
3.66526744615e-05
0.000127278870806
5.92356151436e-05
0.0547826369315
0.0550285265297
0.0554043763571
2.83980535105e-05
2.62240578221e-05
4.41837874795e-05
5.00634456838e-05
0.0563081503009
0.0563080321535
0.057425392992
0.000155982587082
0.00062028632745
0.000320393172713
0.000903840927214
0.0602616767766
0.0590317358784
0.0601877811783
0.000574513344088
0.00063561080498
0.000657472266803
0.000630112188337
0.0628082969753
0.060881550586
0.061064552984
0.00059129284062
0.000580184080584
0.000558348622885
0.000473191167888
0.063483080732
0.059746569724
0.0621604305862
0.000430292022882
0.000472536536535
0.000348700349806
0.000425573550118
0.0461400565173
0.0466302949006
0.000686797797783
0.000738484473425
0.000699853176885
0.0533847669161
0.0502550528137
0.0542708028715
0.000632545165341
0.000503734578635
0.000616503997177
0.000503643068552
0.0563908518411
0.0566153109035
0.0580143216228
0.000335623671447
0.000225749340007
0.000374386522235
0.000280563984789
0.0566897387643
0.0587977473912
0.0587422220911
0.00015313635383
7.96124536432e-05
0.000229756062313
0.000232443406985
0.0572685941684
0.0590600790302
0.0592606695429
0.000123711079999
0.000226377102209
0.000345509232529
0.00043520932097
0.0585166649335
0.0591932495936
0.0592510819983
0.000601586036844
0.00110414188287
0.000955440114464
0.00117796736426
0.0601138953959
0.0598755954701
0.0599332974752
0.000675681068825
0.000601001924452
0.000658852475929
0.000578357563627
0.0601310449985
0.0598236443391
0.0599097602933
0.000525709425255
0.000444260171873
0.00051671408611
0.000464820486987
0.0614934256395
0.0592465520068
0.061156841572
0.000349171070197
0.000398938191655
0.000443740500978
0.000489533232306
0.0586508033774
0.0582689883402
0.00052895547849
0.000464725922202
0.000591885851006
0.000546748127193
0.0596762669255
0.0590638247131
0.0590880247266
0.000445968677198
0.000503085648803
0.000598074819268
0.000811616235389
0.0591539497965
0.0577677625933
0.0577577829526
0.000767469027466
0.00100668966404
0.00143009591022
0.00147494132515
0.0598033396838
0.0587624371932
0.0595682656847
0.00113798360371
0.000842510858897
0.000914268293422
0.000676517501198
0.0601057776073
0.0600566718826
0.0604242418212
0.000563561909409
0.000521466819709
0.000518680869888
0.000501947873169
0.0601337318354
0.0605041064936
0.0607315478375
0.000486878640824
0.000456488888367
0.00049468848037
0.000490417132541
0.0608496553725
0.0601984817341
0.0608279797563
0.000502673636403
0.000701723558946
0.000581200847002
0.00116079961496
0.0594166479602
0.000472775646021
0.0608183287288
0.000487678380795
0.000507824324323
0.000479685671687
0.000492251843666
0.061731948881
0.000505749337876
0.000549872156996
0.000504566772137
0.000584905228599
0.0609999517719
0.000727998099908
0.00157677517687
0.000844414095959
0.00178101653254
0.999258557369
0.999112891965
0.881191546059
0.874971335965
0.999123233848
0.882224755387
0.999237886429
0.999204879951
0.999043997224
0.875758749036
0.883379857804
0.999092389712
0.999194707305
0.88238446376
0.99882643281
0.998968662921
0.858434923362
0.867227979191
0.998970496579
0.859259171631
0.998797685436
0.998700148679
0.99869633252
0.852421917817
0.848004281866
0.99873041949
0.853527314274
0.998675704675
0.998853226472
0.998882260362
0.868479612239
0.860824305213
0.998977019711
0.998780597958
0.860757164834
0.998745492568
0.998781762251
0.850031990555
0.856630319072
0.99879076076
0.998702457195
0.855164299602
0.998790876518
0.998679181764
0.846972030826
0.846823478552
0.998785846308
0.84794401075
0.998700246846
0.998790033589
0.998749353982
0.848503125482
0.85164673678
0.998787203472
0.849404235607
0.998750742051
0.998791738345
0.998764891444
0.848978666174
0.851203465956
0.998793408273
0.998770475263
0.849763054451
0.998806903808
0.998816945533
0.85337340726
0.853405999663
0.998814391499
0.998796786049
0.851150203418
0.998522307846
0.998663652157
0.857592356673
0.854507863319
0.998695110986
0.858530520705
0.998464690636
0.998409630801
0.998340992262
0.861333668791
0.864725615962
0.998387354887
0.862110634827
0.998348119547
0.99864530154
0.998787824991
0.856046392476
0.862135543777
0.998765593382
0.998675147014
0.859790146758
0.998511327308
0.998555802646
0.865851744513
0.865430553658
0.998478016325
0.998571391397
0.863266255982
0.998464066983
0.998348418243
0.868195471744
0.866704359597
0.998387916982
0.868959498558
0.99841497401
0.998644430639
0.998939765791
0.871924201781
0.875188125898
0.998909519085
0.872327784911
0.99864236224
0.998509749764
0.998556459427
0.867461969559
0.871053850862
0.998474767098
0.998570373914
0.869354796669
0.998649706028
0.998869869495
0.875038738422
0.873461360372
0.998892210385
0.998661258004
0.872268242178
0.999057353378
0.999026816555
0.877515304214
0.876398388203
0.999041511963
0.877244949685
0.999016979139
0.999053473549
0.999000211833
0.87898107907
0.879753188623
0.999043248408
0.878518372999
0.999004108127
0.999111364829
0.999064060371
0.876058185097
0.876829072668
0.999053627919
0.999108993503
0.876739241845
0.99913818363
0.999147547672
0.879493786627
0.878150655667
0.999148863988
0.99912400483
0.877979512797
0.998932751627
0.998975978262
0.876042842865
0.878543437809
0.999022405174
0.876113916403
0.998853154006
0.998741135394
0.998377178342
0.870993137316
0.8663479513
0.998435366659
0.871393023505
0.998603922972
0.999070718742
0.999139664756
0.878720655271
0.875674576685
0.999141480743
0.999069166827
0.876354777576
0.998866212963
0.998530908439
0.865834822944
0.870720686731
0.998543560002
0.998865742931
0.871434411472
0.998365626363
0.998381918717
0.862532434825
0.86301142661
0.998350686579
0.861058687517
0.998417210641
0.998403987651
0.998561121066
0.861219031101
0.856653295172
0.998480955096
0.858772081725
0.998485812293
0.997993732829
0.998117416901
0.861603842437
0.85566303398
0.998138483592
0.997809023192
0.858620301177
0.997998132078
0.997653805776
0.851037683278
0.850361658639
0.99804982958
0.997658454595
0.854463208631
0.998098680373
0.99857355842
0.857308151526
0.859188989426
0.998436882275
0.853967248126
0.998280903594
0.99659649818
0.996851612757
0.825239777652
0.830690078351
0.824151304172
0.996924940297
0.996528135717
0.997429641293
0.997541988885
0.854317773548
0.847387103459
0.997943038267
0.99707166751
0.849625859324
0.995757472676
0.996195814639
0.839759467307
0.820944144336
0.995593383992
0.819967221256
0.996280710541
0.999680712607
0.999767438158
0.937293802705
0.942083879543
0.999746408657
0.936342936934
0.999736473743
0.999632026944
0.999557449961
0.927972240535
0.917492870652
0.999674589041
0.999526574642
0.927709599628
0.999670770146
0.99980486338
0.941159517517
0.935177092216
0.999726109453
0.935777042552
0.99974458606
0.999587014686
0.999519293111
0.917807321771
0.927435048508
0.99946191289
0.999633900956
0.927505759313
0.999221558143
0.999415119994
0.893376066369
0.906519974124
0.999220915421
0.999390379187
0.894726085089
0.999009049459
0.998843227074
0.884778308516
0.874206248637
0.999033706139
0.998783978516
0.883704730939
0.999136270764
0.999381322336
0.90690036226
0.893488434543
0.999326170232
0.999159275249
0.894615841793
0.998934090641
0.998655664396
0.872883084167
0.882051294956
0.998679480053
0.998912532002
0.883266534426
0.998441322364
0.998627828524
0.861516243397
0.867628407027
0.998510276869
0.998586226678
0.861537258982
0.998282789864
0.998465660787
0.857844004973
0.854508911527
0.998399491817
0.998335598067
0.857006579229
0.998324749154
0.998435529056
0.86603479598
0.858730293703
0.998461959698
0.998316331358
0.860495312069
0.998176652344
0.998277995789
0.855419828952
0.856504929062
0.998241604253
0.998213819635
0.857272076179
0.998386256801
0.998464358696
0.853258806018
0.85384758085
0.998462463178
0.998366644969
0.854849755376
0.998407748095
0.998558259079
0.855563916096
0.860661223116
0.998479031638
0.998486692255
0.857224510873
0.998389821012
0.998378937279
0.855843836639
0.858441110395
0.998317767205
0.998460971687
0.857111965179
0.998452975553
0.99860967776
0.863145879546
0.86162390231
0.998548841094
0.998522609599
0.859610819905
0.998553497066
0.998572768379
0.86384053698
0.863474067931
0.998544796168
0.998548482327
0.866485378732
0.998531231318
0.998513577975
0.867155435447
0.871605937268
0.998516471836
0.998517419181
0.869275968227
0.998669075813
0.998691223263
0.865852439111
0.870963711641
0.998630986743
0.998724384647
0.868536417647
0.998689489655
0.998794616341
0.874003608187
0.873655816189
0.998717545282
0.998748083662
0.871329170937
0.998516932426
0.998507912207
0.871975781725
0.872943195244
0.998507254703
0.998513650216
0.873910643121
0.99854005741
0.998673944222
0.874081442107
0.877123796934
0.998543233725
0.998614883813
0.875265105671
0.998714217883
0.998811826825
0.875215300371
0.878076099431
0.998726501437
0.998795553926
0.875904535908
0.998698403997
0.998732709078
0.878547645736
0.878714728944
0.998704321018
0.998746134388
0.876879216832
0.998828502665
0.998847101801
0.877156192879
0.87791955772
0.998914579772
0.998734092851
0.878147770846
0.998855396167
0.998945850724
0.878202133405
0.878573619616
0.998937655069
0.998854813318
0.878502416044
0.998758816011
0.998742207606
0.878970131113
0.879583948199
0.998746357879
0.998750367146
0.878886022014
0.998759114631
0.998697153679
0.876760255212
0.878189939133
0.998746899906
0.998735226558