/*--------------------------------*- C++ -*----------------------------------*\
| =========                 |                                                 |
| \\      /  F ield         | OpenFOAM: The Open Source CFD Toolbox           |
|  \\    /   O peration     | Version:  v1906                                 |
|   \\  /    A nd           | Web:      www.OpenFOAM.com                      |
|    \\/     M anipulation  |                                                 |
\*---------------------------------------------------------------------------*/
FoamFile
{
    version     2.0;
    format      ascii;
    class       surfaceScalarField;
    location    "12.75";
    object      alphaPhi0.water;
}
// * * * * * * * * * * * * * * * * * * * * * * * * * * * * * * * * * * * * * //

dimensions      [0 3 -1 0 0 0 0];
oriented        oriented;


internalField   nonuniform List<scalar> 
92311
(
0.204050586023
1.67205111934e-05
-0.00129145166302
-0.203825546044
0.00105055347034
-7.22907942556e-05
0.204210216812
-0.000974711565697
0.000888583206236
0.204092410379
9.59578369047e-05
-0.0013512361551
-0.203900353604
0.00108049755439
-2.99697370566e-05
0.204178906501
-0.000984962952812
0.000856767091874
0.203836871149
0.00014658222029
0.000115037721209
-0.00143371846902
-0.20391155388
0.00107702022452
0.000139520794368
0.000126367008652
-1.5675123244e-05
-7.8604046835e-05
-7.75078589988e-05
0.204092212939
-0.000983487736877
0.000863150177324
6.91375034266e-06
0.0512470235704
5.65281489973e-05
5.73719451328e-05
5.19430797046e-05
6.3998333531e-05
-0.000390637322372
-0.0512407250718
0.000301106788549
-0.051246637522
0.0512111243949
1.56805555838e-05
3.23799473954e-05
2.77924748341e-05
1.5432447299e-05
-0.000273649024508
0.000202190602642
-3.149346233e-05
-0.000673445292013
-3.39559907122e-05
-3.0975856392e-05
-3.04280863151e-05
-1.37279834964e-05
0.000535600664338
-1.3827612007e-06
0.000254210759286
-0.00122649003468
1.23980039501e-06
-3.4647996756e-07
0.00107994906985
2.99292874323e-06
2.27592698926e-06
-3.71267561867e-06
-7.31377121389e-06
0.000172966784342
-5.2692448068e-28
0
0
0
6.93440040356e-29
-5.5118809578e-29
0
0
4.72837760885e-05
5.17429716394e-05
4.6722549397e-05
5.45433625202e-05
-0.000334079815812
0.00024922936003
-7.18907595329e-05
0.010058867668
9.91639103786e-05
-8.0288639645e-05
-0.0100488864543
0.0100938950909
3.38994483822e-05
-6.9722935883e-05
-0.0100851309461
9.51065490602e-05
-7.43471185751e-05
0.000130728677326
-2.50102973709e-05
0.0512395286303
-2.15687868904e-05
-9.66025839296e-07
1.04876111518e-06
-0.000191261509515
-3.62629554767e-05
0.0511812488511
-4.08348292627e-05
-5.99651424031e-06
-1.32089510373e-05
-0.0511550734428
0.000123477517705
1.32972009264e-05
-5.78924162661e-05
0.0101078622111
8.32064165838e-05
-5.74218329458e-05
2.99621388925e-05
0.0127418399611
-3.74582488022e-05
-2.4957944915e-05
-0.0127349792867
0.012734681763
3.08082446611e-05
-4.73870293421e-05
-0.0127242968982
-0.000123284115031
0.20425474229
-0.00210286501223
0.0017822423706
-0.203808959359
0.204294116448
-4.49811361587e-05
-0.000558379343186
0.000519641838592
-6.14959591655e-05
0.204392208948
-0.000401068166688
0.000364523337473
-0.000108138672109
0.204335840693
-0.00212616399626
0.00178702684784
-0.204011585745
0.204385312665
-0.00012989492272
-0.000678076026945
0.000556893133442
-0.000127470896572
0.204602673194
-0.000489650893827
0.000338297501035
1.27177929881e-05
0.000100261451121
0.000125901972278
-0.00227964744491
0.204344196479
0.00186630399653
-0.204298984759
2.1283528467e-05
-0.000131141857964
-0.000121654014815
-0.000160705133627
-0.000172243080168
0.204570494156
-0.000549095119385
0.0005266630666
0.0513434197456
1.17034689166e-05
-8.37428298266e-06
7.50624376439e-06
-9.5155079769e-06
-0.000647926436112
-0.0512587134355
0.00057458204783
0.0513067076946
9.11361382735e-05
-3.47702127722e-05
-2.96373536216e-05
-4.31506130221e-05
-4.08329991992e-05
-0.000141095109963
-0.000235701921902
5.44422969301e-07
-0.00126759383243
4.17219154114e-06
5.25776784358e-06
4.04500655439e-06
5.77481502347e-06
0.000262895898252
0
0
0
4.6045934287e-33
-1.24765273183e-31
0
0
0
1.73683380662e-09
0
1.11207575733e-09
0
5.36732331292e-30
0
-2.84890956394e-09
0.000533920987747
2.81458176048e-05
3.69274860824e-05
2.33135634452e-05
4.44326850912e-05
0.0513814594301
-0.000604643792006
4.5247865883e-05
5.97755379119e-05
4.31215920771e-05
5.60542020058e-05
0.0513152450538
0.000426735988568
-0.0512863693842
-4.82608858288e-06
1.72238018775e-05
0.0100761751534
-4.22273504906e-06
2.00812193213e-05
-0.010100324572
1.23283631014e-05
-4.38577500015e-05
-0.01005205339
1.03081708283e-05
6.32018792175e-06
0.0100561526045
6.74457041678e-05
0.0127980136872
-0.000129427895828
0.000102318083448
-0.0127930025871
7.13552672455e-05
-3.87225730089e-05
-4.31947171731e-05
-3.74603255053e-05
-4.31555539762e-05
0.0514004347927
-0.000124167512496
0.051265845667
-5.50841438846e-05
-7.56901899669e-05
-5.84177920244e-05
-7.32548512373e-05
0.000108417939405
-7.22309406602e-05
-8.19655970678e-05
-6.97146351597e-05
-7.40304333381e-05
0.051377214574
8.5758613217e-05
2.10469679999e-05
-2.74438621654e-05
-3.96260334467e-05
0.0127524708611
-3.89674120228e-06
3.65822390378e-05
-0.00994910466867
-9.43607411258e-05
0.00991528116776
0.000102177196486
2.37187821456e-05
-6.82999081845e-05
0.0127458040776
-0.012759243784
-9.89206170094e-05
0.0127816367619
-1.17408783438e-05
1.75204574428e-05
-0.00085249197654
-3.84143455868e-05
-3.38828548013e-05
-3.5252678303e-05
-2.06256816213e-06
0.000307265569875
-1.20559488709e-06
-7.79298533302e-08
3.9254643421e-06
3.96159772998e-06
-1.16677961398e-05
-1.7400135468e-05
-0.000379879809502
0.000210108055694
0.000182346539836
-3.38204789015e-06
-5.04261554309e-07
9.71047044423e-07
1.48612237512e-06
2.01741381523e-06
-8.01702235793e-07
-4.3315714208e-06
-7.72441773789e-07
-4.01946782875e-06
-1.75412536325e-05
-1.17327030279e-05
3.59925933427e-05
0.000270875249328
-1.92104689048e-06
2.13674320142e-06
2.25605066073e-06
8.01853816836e-05
0.0127826208791
-9.19959687093e-05
-0.0127850159587
-0.0127739714141
6.91993003249e-05
-7.715180183e-05
0.0127731523442
6.79181288476e-05
0.000100271127508
-8.12336345482e-05
0.0100733641883
-8.12886619944e-05
-6.52981332172e-05
0.0100680908042
-0.0100600048888
0.000114318152757
-0.0127747861811
6.88950488521e-05
0.0100794356138
0.000116384931144
0.0127805199489
-9.0630141308e-05
0.0127627714499
6.99395048298e-05
-7.63898790417e-05
6.58787830018e-05
7.24361842701e-05
-0.012770300784
0.0127654357515
-8.50445252237e-05
9.74093652047e-05
-7.96868554214e-05
-7.88802091197e-05
-6.46102190188e-05
-0.0100866862629
0.0100951101592
0.0001140813324
0.012756614235
6.18773457903e-05
0.000117099276389
-8.96155797717e-05
-0.0127412208402
2.92659909585e-05
-5.86282853078e-05
0.0127393837574
4.6686670817e-05
6.74104433894e-05
0.0127514429461
-7.91696543804e-05
6.85507867552e-05
-2.91088315889e-05
0.0101011537444
-4.13148256754e-05
-5.50693005566e-05
0.0101117950929
0.000102909268789
5.55110567288e-05
0.0101087207166
8.94032846801e-05
0.0127483831619
-6.96612822685e-05
-1.41776618303e-05
-0.0127438459649
0.012745749475
-4.81238819945e-05
1.68851980088e-05
-0.0100844838508
0.0100571571178
6.92402392654e-06
-0.0100994485817
3.1691978137e-05
0.0100750101531
1.27259430856e-05
-4.81107919154e-05
3.84100917472e-05
4.57950246099e-05
-1.49745507819e-05
-2.13111182583e-05
6.28914531574e-05
-5.83816333143e-05
-5.73888852415e-05
-0.0127199476931
0.0127315675506
3.59995298467e-05
3.82213889035e-05
-0.0101447698734
0.0101169679608
-0.0101477693561
0.010117693122
3.87478912367e-05
3.32613075305e-05
8.61530861723e-06
-0.0127337334746
3.09164551231e-06
-6.29913034294e-05
-0.0101549060655
6.53919796063e-05
-0.012730428805
3.37245588367e-05
-0.010147840613
-1.98367255092e-06
0.000185646664971
-3.09987098204e-05
-3.69522293401e-05
-2.40870974253e-05
-1.88226371398e-05
-0.000510690125822
0.000429626117894
2.37560402779e-06
-1.95533699932e-06
-2.91723623203e-06
4.52744433899e-06
4.52483118527e-06
-0.000538667614828
-1.13423181006e-06
2.50729820235e-06
4.73773391939e-06
1.2181168628e-06
9.83761141878e-05
-4.36738320621e-05
0.000533560912726
-1.47565084936e-06
-3.12837306943e-06
-2.0285010484e-05
-6.7454472742e-06
-0.000653151400129
0.000371852226589
-4.21030296529e-06
5.63454337615e-07
5.0630073737e-06
1.99475309166e-06
8.25549849958e-07
-3.26565662834e-06
2.64147960889e-06
-0.000675521728065
8.79862824803e-06
8.15304289401e-06
9.8148460746e-06
1.06110033547e-05
-9.4933912542e-07
-3.96164005589e-07
-6.61509014298e-07
5.00705493956e-07
-6.73566731368e-07
-1.27764978451e-06
1.32266893024e-06
0.000390198165981
1.3790240947e-05
1.53105920016e-05
1.17286920738e-05
1.27172762876e-05
-0.000901017438494
-0.000212347101717
-2.83536966719e-07
-8.06957531312e-07
6.29207737447e-07
6.46032806819e-07
4.07504940866e-06
8.24778041903e-06
6.85602316197e-06
-0.00124431304069
0.00034813139346
-4.40244902396e-07
-1.81904194993e-07
-0.00016043283848
-0.0128045333832
1.64866610406e-05
0.0128072140188
0.000152992321661
0.0128079022938
0.000159295386795
-0.000164927791301
-0.0127937246508
-6.00702296717e-06
3.47283444393e-06
0.0100619479448
1.37821526316e-05
1.42060894099e-05
0.010048183251
-0.0100720325647
1.41537688732e-05
0.0128137966759
-0.000164882423476
-0.0127912522586
0.000150516012348
0.0100399826123
2.34078845614e-05
-0.000157773503177
0.0128144747868
3.00887049289e-05
0.000148840372592
-0.0128226937611
0.000152861248104
-0.00015727834308
0.0128204808372
-1.89588585437e-05
5.52075426333e-06
9.41732856909e-06
-5.72782164774e-05
-0.0100364497186
2.82812603379e-05
0.0100425757072
-0.00016228808235
0.00014237461187
0.0128125778657
2.47004952745e-05
0.0100208455452
-5.30898956743e-05
7.8106406112e-05
-0.0100218446831
-8.76528625716e-05
-5.69736539668e-05
0.0100370872713
8.01903281446e-05
-0.000124283961676
0.0127973254309
9.77107953865e-05
0.0128074366549
5.71360352666e-05
-0.0128018950371
-7.59251379123e-05
-0.0100328148185
0.0100450048629
0.0128062173067
-0.0100321595049
-2.67706990873e-05
0.0127550365991
-4.12053976719e-05
-8.29591001388e-06
0.010024480001
3.17647150014e-05
0.0100427210082
5.59563271283e-06
-2.20967942898e-05
-4.91168178974e-05
0.012763627741
1.60604969042e-05
3.60967864462e-05
-3.9894918477e-05
0.00998345411352
6.26336641793e-05
0.0127662843014
-3.98414665576e-05
0.0100032588542
-2.43372314909e-05
-2.15657050016e-05
0.0127802671109
-4.81227408891e-05
1.32385695219e-05
-0.0127832749275
2.22558791462e-05
0.0127976419045
-4.38515980751e-05
3.51608749026e-05
-6.78267813149e-05
8.23631750955e-05
5.08634600573e-05
-0.00996671780722
-7.97485245585e-05
0.00992725760768
-4.24608468137e-05
1.32202851473e-05
0.0127968715315
-5.31071220557e-05
-0.0127413380294
-9.85508885568e-05
-1.85463047242e-05
2.49750930896e-05
-7.4694621923e-05
3.10981210927e-05
1.28942424842e-05
0.0100749988294
0.0100821963887
8.98428061462e-06
1.89427310492e-05
0.0100293507364
-2.24245591138e-05
-9.22439035376e-05
0.0127632010122
0.0100178029578
0.00998255095484
5.00463339734e-05
-5.55678181167e-05
0.000105666546892
8.13044602597e-05
0.00992562009193
-8.25028079274e-05
-6.62150567079e-06
0.0128030933231
9.96821344142e-06
0.0127837895448
-8.81509128886e-05
8.4791382245e-05
-0.00996857358144
0.00992413688038
0.0128016380238
-0.000149834395415
-0.000185353407072
-0.000175230073457
-0.000283108088684
0.205175311669
-0.000146749443496
0.000207995103094
7.48947209806e-05
-4.25557544622e-05
-3.84784795733e-05
-3.92700735868e-05
-3.93780369398e-05
-0.000118991360149
0.051454374655
4.54647217994e-06
-0.000436689318059
-9.21763555426e-09
3.77973126582e-06
9.23602324546e-06
8.6806104079e-06
0.000321832381784
-0.00114987249477
0
0
0
-1.24719359554e-29
-3.59326708976e-29
0
-1.05611722382e-29
6.24684905146e-05
5.95117985305e-05
5.73717187288e-05
6.54343298923e-05
-0.000126844928532
-0.000501737759944
0.0513083591426
3.58744362476e-05
-9.05803057573e-05
-5.52310834024e-05
0.0100536724558
0.0514611926804
-6.19261153493e-05
-7.21516981406e-05
-6.3792901172e-05
-7.00248134709e-05
7.34302572038e-05
0.0514620766429
-4.5578854318e-05
-4.10935707915e-05
-3.62284756217e-05
-5.23742504662e-05
-6.76308009374e-05
6.65170975551e-05
3.1506448998e-05
0.00988357073214
-0.000114636634223
0.000122379034652
-1.74544795875e-05
9.71696650619e-05
0.000103208198235
0.00987431644418
-0.000100838689437
0.00978106672547
-9.60214061688e-06
2.95211752553e-05
0.000147875508234
-0.00979737714511
-0.000136639333775
0.0514379796751
-1.31592825616e-05
-2.52726817379e-05
-2.4063301834e-05
-1.42156914251e-05
0.000103645948096
-8.21835953058e-05
7.91321566277e-05
-3.14244754713e-06
2.47359608937e-06
-2.454121877e-06
6.55628719598e-07
4.5765530829e-05
-4.93085520256e-05
0.051390664318
5.32429315444e-05
-4.72020913574e-06
1.38830810796e-05
0.000151620408742
0.00977004157466
-0.000141868657887
5.68479106992e-06
-1.14909561968e-05
0.000157691150437
-0.00977329815504
0.00977898846092
-0.000155024375472
-3.01545992139e-05
-3.62150530787e-05
-3.02522656513e-05
0.00033672355017
-0.000716805438477
-2.07061345242e-06
-0.00099367501792
1.53921383145e-06
1.23953045637e-05
1.69099445183e-05
1.11972564698e-05
-0.000409578317484
9.46893643921e-07
-0.000959077711411
6.49705483642e-06
1.34272091656e-05
9.02524179938e-06
0.000409258031277
-0.000494303525905
4.5557502787e-07
-3.95032525679e-07
1.02993058566e-07
-1.76728558743e-07
4.0088634059e-07
-3.42841429372e-08
4.85691006643e-07
-4.60025436645e-08
-0.000801410587598
3.52656418085e-06
1.30174216385e-06
1.84944683623e-07
0.000157783731681
6.21107661047e-07
-0.000347077934969
-5.6235906711e-06
-5.36188879811e-06
-4.99165603014e-06
-0.000217917013784
8.43977349619e-07
-0.000562221892616
-3.80782779147e-05
-0.0128002484066
8.55607875482e-05
0.000114417959505
-0.000132161067635
0.0127961362943
-0.000117870453918
0.0127932276481
-8.32831032964e-05
0.0100546584584
-2.72473132662e-05
-5.09177414469e-05
-9.38657781716e-05
0.0100642588436
-0.000136815935276
-2.24384552862e-05
0.0100649317738
0.0127899987693
-2.28807691231e-05
-0.012817061067
-4.41657927681e-05
1.33144393155e-05
0.0128293397857
0.0128125985654
2.52144283454e-05
-4.65948627225e-05
2.86169295834e-05
-0.000135327136315
0.00014163724747
0.0098530365701
4.81702856451e-05
0.00989102819569
-0.000101902884773
-4.28048732578e-05
0.0128227404267
1.45068334156e-05
-0.000123580157413
0.009854414965
-0.0128244568503
-6.27401998038e-05
5.97176606802e-06
0.012834278917
-4.4565986926e-06
0.0128253727532
8.36307131195e-06
7.55474496509e-05
0.00988650641367
0.000121313524311
8.05617970302e-05
0.00983213477684
-0.000113481605224
0.00985166449605
0.0128358186633
7.72805408643e-06
0.0128430571138
-4.55398986407e-05
1.23851995507e-05
-1.95418920691e-05
-1.2271056796e-05
-0.0128488631188
0.0128396786376
1.10849825931e-05
2.37224311003e-05
-0.0098230941955
0.00980841307033
0.000154011576646
0.000136814319372
6.14665487661e-05
-0.000124773757225
0.0128389648726
-1.92102664123e-05
0.000142857726006
1.02215404704e-05
-0.0128340955887
2.33955633949e-06
1.46740256688e-05
0.0128232283038
-1.86635901884e-05
-1.59687229912e-05
0.012830065858
1.47260501844e-05
1.17821808976e-05
0.009797670646
0.000159510797733
0.000154855150303
-8.91410516266e-07
0.00976648226633
-0.000147264525683
-2.21604460511e-05
0.00979215363402
0.000161298305718
0.0128155164563
1.4091260432e-05
0.0128157776293
5.75191772216e-06
1.43415290797e-05
-1.57993290557e-05
-4.65892320098e-06
-0.0128060066123
0.0127974833806
4.159469326e-06
-3.90732390336e-06
-0.00978948784829
0.000156887818408
0.00978889253101
0.000157316342931
-1.24343415489e-05
-0.000152515877321
-5.4020924646e-06
0.0128100991861
0.000160061949831
1.20938708421e-05
-0.000456235775321
-0.0496560541365
0.0495010101831
0.000556507242464
4.10361797731e-05
4.66143153402e-05
5.43716242212e-05
3.86872097805e-05
-0.000125556717565
-0.000621606143505
0.0500804710495
-2.60030994339e-05
-1.75239776313e-05
-1.81777834899e-05
-2.44453646242e-05
7.53527659998e-05
-0.0500671076463
0.000619045383332
-0.00106866087932
-0.0501413504495
0.0502496842934
0.000938002631676
-5.93596958264e-05
-2.83777007058e-05
-4.79279587681e-05
-3.95939394887e-05
0.00019773017355
-0.00083750241009
-5.3893942816e-05
-4.29878803083e-05
-5.3895449615e-05
-4.40078511835e-05
0.000205916885282
0.050479637387
0.000747256119634
-0.0504003881
-5.04830828753e-05
-0.000335535782863
-0.000197274510877
0.000478868837095
0.000398576593842
-3.91870024985e-07
-5.22667460571e-05
-3.39244147744e-05
-3.26990201972e-05
-4.52342391521e-05
-0.000717597667848
0.00090169235481
0.000393664210053
-1.64514143317e-07
-4.36944435065e-05
-3.28387821944e-05
-2.71351370488e-05
-0.000317856338624
2.18155727302e-06
-0.00034356380011
-0.000330828680655
-3.29589521493e-07
1.82223859782e-06
4.76110556339e-06
5.2181806784e-06
0.000582951518075
0.000175958803523
4.26803732923e-06
-0.000367224814085
9.9985841643e-05
8.17037764457e-05
0.000205668595764
-6.7800787296e-08
6.16397412192e-06
7.57307374055e-06
9.88689807142e-06
9.70280848401e-06
-2.34884419375e-05
1.01383338099e-05
8.59344331975e-06
8.96950743452e-06
-0.000490518288567
-0.000102875385601
-5.6975487875e-08
0.000607354469916
-3.88858234097e-09
4.33985613992e-26
1.85861604755e-09
0
2.02996629342e-09
0
-1.89787007986e-28
-3.83108346592e-27
1.62444108767e-26
6.0947907077e-08
-1.0773672129e-08
6.27207468819e-09
1.66937377166e-09
-1.01208551825e-07
7.44695823869e-08
-3.78095135248e-26
1.26064544059e-28
0
0
0
0
-2.28286591698e-27
1.06913972714e-28
0
0
0
0
0
-2.09652313653e-28
0
0
0
8.90961233931e-36
3.39638483914e-30
0
0
0
0
0
0
1.80393273763e-29
9.1661334704e-05
7.38117823747e-05
9.6759321663e-05
8.39663134726e-05
8.70876544325e-05
0.0494219630182
-0.000170622117063
-1.03692207578e-05
-0.0496741876774
0.0494364133273
0.00027753976652
5.64523618508e-05
5.52049255539e-05
6.44655041705e-05
4.66016377659e-05
-0.000149681567469
-0.049695097651
7.67368457666e-05
-0.000128318040935
-0.0105142557675
8.40649737215e-05
0.0105273016915
-6.61167382009e-05
0.0105991071509
8.98136335905e-05
4.09083894937e-05
-4.88590620341e-05
-9.51063850826e-05
-0.0105924981659
0.000103303440283
7.55821629071e-05
9.27050630601e-05
9.19583528764e-05
-0.000233486373004
0.012315072334
0.0122238823718
0.0122477974552
0.0123063722763
-0.000243343885474
0.000101812054326
5.07255451771e-05
-6.72501081396e-05
-0.000108885198708
0.010614160316
0.000381489458216
2.20863342331e-05
3.59792151989e-05
2.79672281171e-05
2.53050350009e-05
-9.36381518152e-05
-0.0497775688626
0.0498788883517
1.92394024743e-06
-5.86895594748e-06
6.67571041167e-06
-6.95900433442e-06
-5.56488763295e-05
-0.0499004301681
0.000463079721947
0.0106171288385
4.23361703899e-05
-3.56812051768e-05
-0.0106117510771
6.97663494451e-05
0.0106463510855
3.24004236816e-06
1.93567136475e-05
-3.191043172e-05
-0.0106546312884
1.1188518547e-05
0.000815011775259
5.85852090218e-05
7.45176018022e-05
7.08766797681e-05
5.46145976253e-05
0.0493298560997
-0.000196477185708
-0.000143883650207
-0.000197486225715
-0.000158028723679
-6.65881463788e-05
-4.68562740868e-05
-5.09391164329e-05
-4.20019031344e-05
0.0497815894183
1.44283629417e-05
1.49886621709e-06
1.22404212621e-05
2.80510714533e-06
1.45436805077e-06
0.049819135464
0.000813807619789
2.78090487048e-05
6.72358533549e-06
1.93294153298e-05
1.60089061179e-05
-0.000105661948695
-4.83369483018e-05
0.0106264803164
8.16992915137e-05
0.0106900324409
5.63166781462e-05
-7.26356561827e-05
-0.010664203754
0.000128895367976
-0.000149025528093
1.64802568173e-05
8.01833439522e-06
5.74755152607e-06
-4.10704259389e-05
0.0106512671482
0.0106917714613
4.50430501004e-05
4.70673877989e-06
2.45652512823e-06
-7.40630406881e-05
-0.0106769092309
0.0499144686886
1.11493976607e-06
7.228182905e-07
1.74936172233e-05
-1.87371879054e-05
-0.00112604411975
-3.79454111942e-05
0.00131030337553
-6.25246354635e-06
-4.72503724068e-05
-2.30679755918e-05
-2.9189207873e-05
0.0504524939714
-0.000103753009899
-0.00163820352341
-7.37308900083e-05
0.0107251607658
0.00015172718333
-0.000167174849933
1.87924352599e-05
-2.02286718609e-05
-0.0107767408263
0.00020474637477
0.0107844263063
-0.000227382892333
5.56934552203e-05
-4.10068118968e-07
4.98635528984e-06
-8.89631209138e-05
0.0107157332714
9.56806554863e-05
-7.6772634069e-06
8.44021699947e-05
-0.000142495716323
-0.010721739429
0.0107046420223
0.000766365611134
-2.06514963542e-05
-1.66485936522e-05
-9.50983615455e-06
-2.8525506051e-05
6.20128192197e-05
0.0503054092116
-2.68418300973e-05
-3.93827667994e-05
-3.32161586541e-05
-3.22188985768e-05
9.82735874507e-05
-0.0502371740636
0.000731674319911
1.86625425106e-05
0.0106349624748
1.98743643756e-06
-0.0106319854954
0.0106664182036
-2.85371384392e-06
1.4952611333e-05
-0.0106557875191
2.78096350273e-05
0.0105387776112
-1.01211998028e-05
4.19845586541e-05
-7.70820065722e-06
-0.0105326037617
4.98956099866e-06
0.00111829902214
-6.68105868317e-05
-8.02472601615e-05
-5.56185898388e-05
-8.87821177141e-05
0.0505099484484
0.000223347489171
0.0504056908995
-5.54683655865e-05
-4.5961986066e-05
-4.0002388904e-05
-5.97724401544e-05
0.000201576742422
-6.00329678686e-05
-7.91284345783e-05
-6.37819364572e-05
-7.94135140056e-05
0.0505945225395
0.000959957208621
0.000252108101853
1.9347277667e-05
0.0106827929113
3.63905555091e-05
-1.15621263375e-05
9.48560694869e-05
-0.0106777078615
6.51218602703e-05
0.0106543158258
1.08937423908e-05
-1.03164583177e-05
4.19966158274e-05
-1.47693762941e-05
0.0105476527179
1.25215954604e-05
-1.16108285528e-05
7.69850824252e-05
-2.5012408177e-05
-0.0105433405969
0.010524528715
3.48038453978e-05
0.0105254840771
9.81066428229e-06
-0.0105133004322
7.09649709652e-05
-0.0105203106588
0.0105013387686
-1.07409052209e-05
3.5467776607e-06
0.000221012502309
-7.78656821012e-05
-6.36833672137e-05
-6.38801771167e-05
0.000472426954186
-4.43392091796e-05
-0.000112489822586
-1.69514093112e-06
0.000348747646163
0.000306426230749
-5.44106117949e-05
-4.25972141329e-05
-5.78604060077e-05
-1.32399492668e-05
-1.34085669933e-06
-3.68779977353e-07
-6.16041902922e-05
-5.51858759095e-05
-6.99724974272e-05
-0.000207495848547
0.000666320931475
-1.61241661592e-07
-3.3127946481e-08
4.58774811028e-07
1.99560162501e-09
2.23320048139e-07
2.46695839649e-08
-7.38059283026e-08
4.20072783738e-07
-1.33832047585e-07
-1.03457049046e-07
-9.26760416694e-08
2.22297302467e-07
-1.6517978744e-08
-3.46334331603e-08
3.11700597506e-07
-6.93327765389e-08
-7.24430553133e-08
4.43960527681e-07
5.28352579424e-08
-1.42433709238e-07
-1.20348235705e-06
2.0170415313e-07
2.16686450565e-07
-2.80753820597e-08
-8.06716731894e-08
2.61177448489e-07
-6.59875322168e-08
-4.10327334912e-07
2.05270377218e-07
0.000335918153498
-4.37710317882e-05
-2.55122302761e-05
-2.70188648776e-05
-1.19915310777e-06
0.000103473604337
-0.000153496734945
-2.23468268241e-05
-3.78320599024e-06
-1.8494584557e-05
0.000409637952604
-8.8076564187e-07
0.000285419778111
0.000424255978383
-2.88378363281e-07
-5.95190878213e-05
-2.9513995532e-05
-3.57911068099e-05
-0.000340495177258
0.000115704288409
-4.82632878199e-07
-2.42099512037e-05
-1.00044892844e-05
-2.90660188576e-05
-3.40591272498e-07
0.000355376835887
0.000376277170955
-2.75107594872e-05
-1.36016041338e-05
-3.19042478672e-05
-5.16422613055e-08
-1.99693388814e-07
1.4268720732e-07
-1.24094752366e-07
3.4560478422e-08
-3.08943609107e-08
-3.7370749607e-07
1.70492730581e-07
8.19292669304e-08
-2.79725151903e-07
0.000313185652348
-7.90861460824e-08
-3.51426981084e-05
1.01503536539e-06
-1.79331733516e-05
0.000930197739005
-0.000239177927938
0.000503388084598
-1.85364215613e-07
-2.56817298207e-05
2.44954356471e-06
-1.8445196324e-05
-1.99308488094e-08
0.000298292694904
4.56952964781e-06
5.44597201795e-06
1.94536436016e-06
0.000537488785054
3.85382653029e-08
-1.30057626681e-07
-5.17783572865e-08
3.23972739811e-08
1.28300097512e-07
-3.18647528578e-07
-1.00711266961e-07
1.83473935602e-07
0.00020219114968
-1.87718104022e-07
2.3419985931e-06
6.99760491392e-06
6.29207648414e-06
-1.20934496911e-07
-0.000429014442749
8.99829847018e-06
9.95500958253e-06
8.05374457049e-06
0.000627763266488
1.47800388044e-05
2.4024189528e-07
-1.17997998444e-07
-3.92704417307e-07
-3.31947195112e-07
3.74558475599e-07
4.71036180042e-07
-2.86077944263e-07
-3.3710228805e-07
0.000190845877888
-1.554535819e-09
9.26408142135e-06
1.39269157139e-05
1.22872613815e-05
0.000182427251716
-0.000254841433419
-3.67944552691e-08
9.54902591716e-06
1.1427803739e-05
1.11367082802e-05
6.4167370782e-07
1.26783801794e-05
1.16312033935e-05
1.19300076615e-05
-0.000141121181858
4.50010801792e-05
4.40455451648e-07
-4.22980490126e-07
-2.65230621525e-07
5.59872255588e-07
6.37860297842e-07
-4.64083702437e-07
1.03573607534e-06
-4.64315689893e-07
0.01242164804
9.30139701623e-05
6.80851854598e-06
5.63351471942e-07
-0.0124479761397
-1.32016490294e-06
-0.0124113043708
0.0123786623745
2.31721777951e-06
7.72264682323e-05
-0.0001182882161
-6.53377629552e-05
-0.0105066385642
-0.000104220979818
-0.0105326300274
9.74608840198e-05
0.0105450186718
7.9014074609e-06
0.0123921445537
8.71030302837e-05
-0.0105301304604
5.51655389127e-06
-0.0124408781298
0.0124331923415
1.51933824774e-05
6.21381549921e-05
-0.0124530483048
-2.81909079262e-05
-0.0124468826671
0.0124264007639
5.50846771442e-05
-7.05267024963e-05
-0.0105620499241
0.0105702751776
-4.09627036816e-05
-7.98451536715e-05
7.28187496919e-05
-0.010595477025
0.0124068853649
3.65443204796e-05
-0.0124622709285
-0.0105627182545
-0.0123875253225
6.77467639334e-05
0.000108116280154
-4.37312439635e-05
0.0123583750195
-4.17446862803e-05
0.012407781229
6.86969325636e-05
-9.46866795463e-05
0.010594278769
-0.000109414072729
-8.30219337231e-05
-0.000118222530197
0.000115907502061
0.010632054975
-2.45003806634e-05
9.921887235e-05
0.0123850399966
-0.000116431913587
0.0106178941247
-4.75757713675e-05
0.0124826658953
1.45835796389e-05
6.22966439124e-05
-0.0124897617164
-0.0124653048824
6.80191799434e-05
0.0124527202776
-2.76070315231e-05
5.5076198522e-05
-0.0106186588878
-1.82404383909e-05
-0.0106412151634
5.50219570369e-05
0.0106418883088
-0.0124757940439
8.38316931234e-05
0.0124739368941
4.3672238481e-05
-0.0106495832666
0.0125007462531
7.16996356351e-05
-5.33176793068e-06
-0.0125026183309
-9.24392091708e-05
-0.012516531733
0.0125174631067
0.000105276438995
-2.43916065782e-06
-0.010646103614
0.0106420776639
2.30054500348e-05
-2.39482263579e-05
-0.0106707086928
6.0526781826e-06
0.0124964169143
-0.012516134401
8.78454432204e-05
-0.0106573660081
-0.000109743763834
-0.0124612999975
3.48525035576e-05
0.0124484859667
0.000128652361551
0.0124364913097
8.31980364769e-05
-5.85253424829e-05
9.46439089925e-05
0.0106426870291
-3.31066070045e-05
0.0106471218932
6.71870578709e-05
0.0124216846658
0.000101382069973
0.0106579669289
7.69363962515e-05
-0.000138781158422
0.0124393656398
4.69771398436e-05
0.000159372119747
-0.0124025410116
0.000173993920078
0.0123902448089
-0.000160009688316
-7.28458378914e-05
0.000112601040973
-0.000133060116313
-3.93469237716e-05
-0.0106804051537
0.000109722419035
0.0107010930374
-0.000121768255255
0.000194294364617
0.0124341173776
9.40696616351e-05
-0.0124878712199
0.000134689889261
1.7386149183e-05
0.0124788530888
-0.0001107716523
0.0125115577774
0.00012403173703
-1.13609839346e-05
0.0106470967163
2.17647938114e-06
-4.708446344e-05
0.0106584062408
2.12889910597e-05
0.0125060832646
0.000145158994091
0.0106568432783
0.012474216187
0.00016326775437
2.84978344008e-05
-0.000191727028174
-0.012504364406
0.0125070972102
0.000198094759955
-2.05622784171e-05
-0.010677495139
0.0106966399571
-8.01757092828e-06
-6.19507435269e-05
3.11913182308e-05
0.0124754363976
0.000172932836092
-0.000256276955733
-0.0124303852319
3.24387521668e-05
0.0124381122349
0.000269446867285
-5.41304134116e-05
0.0123807684677
0.000212762004848
-7.9228383568e-05
-0.000198079768172
-6.18189071719e-05
0.000167261677323
0.0107532123766
-0.000185487455411
-4.46256456497e-05
0.0107275000855
0.00012678716164
0.0123880205584
-7.6175395581e-05
-0.000249687365174
0.000232876870763
-6.14089508864e-05
0.010745641136
0.000142237737103
-0.000300469688469
2.53238747831e-05
0.0124795886107
0.000310136208063
-7.75556278424e-05
-0.0124379619985
0.00033413994282
0.0125191201921
-0.000342022916987
-9.45280102133e-05
-5.17292238008e-05
0.000189289977275
-0.00021046051242
-0.0107634728819
3.54597588921e-06
0.000186385289268
0.0107671884801
-0.000295620160946
-0.000107402456936
0.000164489233662
0.000339575266602
0.0125421991554
-6.57761514609e-05
-0.0124754885299
0.000254619586933
4.10876779594e-06
0.0124867486968
-0.000226708874949
0.0125075253764
0.000231840665509
-2.33372368581e-05
0.0107206210363
3.56234837393e-05
-0.000104831804593
0.0107188658246
6.88640462056e-05
0.0125184887769
0.000260210846333
0.0107316677013
0.000288016256961
-1.4102678088e-05
0.0125158642498
-0.0125447341052
-0.000318307562567
0.000314064503594
0.0125855385057
-0.0107520691398
5.96599569953e-05
0.0107449707277
5.14277801555e-05
-0.000127717587728
8.45883456773e-05
0.000289662238823
0.0125665064284
-0.000144713797021
-0.0125500270579
-3.56626943261e-05
0.0125506708875
0.000153995821008
0.0125316105724
0.000128023014618
-0.0125342477158
1.63528272136e-05
6.28228750861e-06
0.0106399186815
3.45076806427e-05
0.010610683087
-0.0106152214442
-8.48837611629e-06
0.0125304519145
-0.0125493591902
0.000137873590022
0.0106108285568
-6.69412857452e-06
-0.000169343328379
0.0125541057179
-3.07561253984e-05
0.000176396570034
-0.0125301070645
0.000190866359259
0.0125358115942
5.41726523404e-06
1.67542380918e-05
3.83045546723e-05
-0.0106241602632
1.09222258072e-05
0.0106334569599
0.000195287879719
0.0125599407648
2.81445489995e-06
0.012572456428
0.000176547523098
-3.093702629e-05
-0.012567902457
-0.000193214008694
-0.0125891739889
0.0125948056247
0.000190997563095
3.78823368316e-05
-0.0105739118074
0.0105811226693
3.84043010801e-05
-9.82287758137e-07
-0.0105255193811
2.39242526019e-06
0.012579766327
-0.0125832217914
0.00017758716968
-0.0105641492912
-0.000247360948072
-0.0125618995103
-6.8079443172e-05
0.0125734422214
0.000244971178377
0.0125382624128
0.000220534787849
4.73348049326e-05
4.5677558455e-05
0.0106824237495