/*--------------------------------*- C++ -*----------------------------------*\
| =========                 |                                                 |
| \\      /  F ield         | OpenFOAM: The Open Source CFD Toolbox           |
|  \\    /   O peration     | Version:  v1906                                 |
|   \\  /    A nd           | Web:      www.OpenFOAM.com                      |
|    \\/     M anipulation  |                                                 |
\*---------------------------------------------------------------------------*/
FoamFile
{
    version     2.0;
    format      ascii;
    class       volVectorField;
    location    "7.1";
    object      force.turbine;
}
// * * * * * * * * * * * * * * * * * * * * * * * * * * * * * * * * * * * * * //

dimensions      [1 -2 -2 0 0 0 0];


internalField   nonuniform List<vector> 
28582
(
(0 0 0)
(0 0 0)
(0 0 0)
(0 0 0)
(0 0 0)
(0 0 0)
(0 0 0)
(0 0 0)
(0 0 0)
(0 0 0)
(0 0 0)
(0 0 0)
(0 0 0)
(0 0 0)
(0 0 0)
(0 0 0)
(0 0 0)
(0 0 0)
(0 0 0)
(0 0 0)
(0 0 0)
(0 0 0)
(0 0 0)
(0 0 0)
(0 0 0)
(0 0 0)
(0 0 0)
(0 0 0)
(0 0 0)
(0 0 0)
(0 0 0)
(0 0 0)
(0 0 0)
(0 0 0)
(0 0 0)
(0 0 0)
(0 0 0)
(0 0 0)
(0 0 0)
(0 0 0)
(0 0 0)
(0 0 0)
(0 0 0)
(0 0 0)
(0 0 0)
(0 0 0)
(0 0 0)
(0 0 0)
(0 0 0)
(0 0 0)
(0 0 0)
(0 0 0)
(0 0 0)
(0 0 0)
(0 0 0)
(0 0 0)
(0 0 0)
(0 0 0)
(0 0 0)
(0 0 0)
(0 0 0)
(0 0 0)
(0 0 0)
(0 0 0)
(0 0 0)
(0 0 0)
(0 0 0)
(0 0 0)
(0 0 0)
(0 0 0)
(0 0 0)
(0 0 0)
(0 0 0)
(0 0 0)
(0 0 0)
(0 0 0)
(0 0 0)
(0 0 0)
(0 0 0)
(0 0 0)
(0 0 0)
(0 0 0)
(0 0 0)
(0 0 0)
(0 0 0)
(0 0 0)
(0 0 0)
(0 0 0)
(0 0 0)
(0 0 0)
(0 0 0)
(0 0 0)
(0 0 0)
(0 0 0)
(0 0 0)
(0 0 0)
(0 0 0)
(0 0 0)
(0 0 0)
(0 0 0)
(0 0 0)
(0 0 0)
(0 0 0)
(0 0 0)
(0 0 0)
(0 0 0)
(0 0 0)
(0 0 0)
(0 0 0)
(0 0 0)
(0 0 0)
(0 0 0)
(0 0 0)
(0 0 0)
(0 0 0)
(0 0 0)
(0 0 0)
(0 0 0)
(0 0 0)
(0 0 0)
(0 0 0)
(0 0 0)
(0 0 0)
(0 0 0)
(0 0 0)
(0 0 0)
(0 0 0)
(0 0 0)
(0 0 0)
(0 0 0)
(0 0 0)
(0 0 0)
(0 0 0)
(0 0 0)
(0 0 0)
(0 0 0)
(0 0 0)
(0 0 0)
(0 0 0)
(0 0 0)
(0 0 0)
(0 0 0)
(0 0 0)
(0 0 0)
(0 0 0)
(0 0 0)
(0 0 0)
(0 0 0)
(0 0 0)
(0 0 0)
(0 0 0)
(0 0 0)
(0 0 0)
(0 0 0)
(0 0 0)
(0 0 0)
(0 0 0)
(0 0 0)
(0 0 0)
(0 0 0)
(0 0 0)
(0 0 0)
(0 0 0)
(0 0 0)
(0 0 0)
(0 0 0)
(0 0 0)
(0 0 0)
(0 0 0)
(0 0 0)
(0 0 0)
(0 0 0)
(0 0 0)
(0 0 0)
(0 0 0)
(0 0 0)
(0 0 0)
(0 0 0)
(0 0 0)
(0 0 0)
(0 0 0)
(0 0 0)
(0 0 0)
(0 0 0)
(0 0 0)
(0 0 0)
(0 0 0)
(0 0 0)
(0 0 0)
(0 0 0)
(0 0 0)
(0 0 0)
(0 0 0)
(0 0 0)
(0 0 0)
(0 0 0)
(0 0 0)
(0 0 0)
(0 0 0)
(0 0 0)
(0 0 0)
(0 0 0)
(0 0 0)
(0 0 0)
(0 0 0)
(0 0 0)
(0 0 0)
(0 0 0)
(0 0 0)
(0 0 0)
(0 0 0)
(0 0 0)
(0 0 0)
(0 0 0)
(0 0 0)
(0 0 0)
(0 0 0)
(-0.0021049673034 3.60430458845e-05 0)
(0 0 0)
(0 0 0)
(0 0 0)
(0 0 0)
(-2.57633617098e-05 2.48055495343e-07 0)
(0 0 0)
(-2.58765168173e-06 2.43045341912e-08 0)
(0 0 0)
(0 0 0)
(0 0 0)
(0 0 0)
(0 0 0)
(0 0 0)
(0 0 0)
(0 0 0)
(0 0 0)
(0 0 0)
(0 0 0)
(0 0 0)
(-0.016084857547 0.00045792857282 0)
(0 0 0)
(0 0 0)
(0 0 0)
(-0.0296589101823 0.000611214864504 0)
(0 0 0)
(0 0 0)
(-0.049499952072 -0.00280034070891 0.00220342707206)
(-0.594978168872 -0.0868157902766 0.0554124030832)
(-0.130703316331 -0.00728470210599 0.00548508877229)
(-2.46798697026 -0.311094146514 0.200501868621)
(-0.00604541682738 5.962699593e-05 0)
(-0.0805304428997 0.00165958234618 0)
(0 0 0)
(0 0 0)
(0 0 0)
(0 0 0)
(0 0 0)
(-0.016084925242 0.000457930500068 0)
(0 0 0)
(0 0 0)
(0 0 0)
(-0.0296085883975 0.000610177826302 0)
(0 0 0)
(0 0 0)
(0 0 0)
(0 0 0)
(0 0 0)
(0 0 0)
(0 0 0)
(0 0 0)
(-1.72091082185e-05 1.67406187558e-07 0)
(0 0 0)
(-1.02091093061e-05 9.9311832176e-08 0)
(-0.000146574676369 2.03698859065e-06 0)
(-0.000733530111076 1.01940697e-05 0)
(-8.94416401412e-05 1.24299507261e-06 0)
(-0.000452985143396 6.29525912448e-06 0)
(0 0 0)
(0 0 0)
(-0.000226597023198 2.22147263228e-06 0)
(0 0 0)
(0 0 0)
(0 0 0)
(0 0 0)
(0 0 0)
(0 0 0)
(-0.00940317388408 0.000161009164948 0)
(-0.00043197176996 6.177264198e-06 0)
(-0.00202699062832 3.4707862733e-05 0)
(-2.9330884277e-05 3.68089329839e-07 0)
(-0.000144838617747 2.0128621065e-06 0)
(-3.60419549025e-06 3.38524281081e-08 0)
(-2.80482132238e-05 3.51992388338e-07 0)
(0 0 0)
(0 0 0)
(0 0 0)
(0 0 0)
(0 0 0)
(-0.00021504967013 2.10826669315e-06 0)
(0 0 0)
(0 0 0)
(0 0 0)
(0 0 0)
(0 0 0)
(0 0 0)
(0 0 0)
(0 0 0)
(0 0 0)
(0 0 0)
(0 0 0)
(0 0 0)
(0 0 0)
(0 0 0)
(0 0 0)
(0 0 0)
(0 0 0)
(0 0 0)
(0 0 0)
(0 0 0)
(-0.0052242499479 5.17365349879e-05 0)
(0 0 0)
(0 0 0)
(0 0 0)
(0 0 0)
(0 0 0)
(-0.00469331668533 4.62909974424e-05 0)
(0 0 0)
(0 0 0)
(0 0 0)
(0 0 0)
(0 0 0)
(0 0 0)
(0 0 0)
(0 0 0)
(0 0 0)
(0 0 0)
(0 0 0)
(0 0 0)
(0 0 0)
(0 0 0)
(0 0 0)
(0 0 0)
(0 0 0)
(0 0 0)
(0 0 0)
(0 0 0)
(0 0 0)
(0 0 0)
(-0.0572065451935 -0.00273399331839 0.00219886557389)
(-0.00875816530819 0.000140118668675 0)
(-0.01444774843 0.000231144218466 0)
(-0.010322646759 0.000178589709085 0)
(-0.0194329911681 0.000456093139682 0)
(0 0 0)
(0 0 0)
(0 0 0)
(0 0 0)
(0 0 0)
(0 0 0)
(0 0 0)
(0 0 0)
(0 0 0)
(0 0 0)
(-0.00533557289691 5.26256819824e-05 0)
(0 0 0)
(-0.00803960704954 0.000139091370426 0)
(0 0 0)
(0 0 0)
(-0.655658216467 -0.0977675938578 0.061816090268)
(-0.569928085467 -0.0882757704407 0.0555827692774)
(-0.549328196347 -0.0627994073609 0.0409829855998)
(-0.0431705909123 0.000889665423068 0)
(-2.4663916772 -0.431350597757 0.26798078493)
(-0.121810255134 -0.0110920690015 0.00756151585502)
(-0.163348423856 -0.00852370435349 0.00653440163325)
(-1.75951119993 -0.28146401824 0.17653964812)
(-11.0025015951 -1.95624937144 1.21331471102)
(-1.43390600709 -0.187291554443 0.120073220436)
(-0.815680534521 -0.0670258085553 0.0463218616322)
(-6.59631551658 -1.18563145865 0.734380731945)
(-0.451240229414 -0.0379979817396 0.0261024279269)
(-2.97601465019 -0.466161602234 0.293224136063)
(-0.111597175466 -0.00746312126251 0.00545856140875)
(-0.00911033622467 0.000157615806684 0)
(-0.020383503615 0.000420066021429 0)
(-0.020383543615 0.000420066845753 0)
(-0.0249528586726 0.00058564466775 0)
(-0.0249532348132 0.000585653495784 0)
(-0.0488773880499 0.0010072718765 0)
(-0.326108113955 -0.0334033635297 0.0223499556286)
(-0.101695639993 0.00237266210668 0)
(-0.224177622108 -0.000759595642365 0.00294025684614)
(-0.0431194795671 0.000888612113497 0)
(-0.0528255699345 0.00123981840153 0)
(-0.108233729387 0.0014127924995 0.000440914373568)
(-0.589999212069 -0.0596548078241 0.0400684229105)
(0 0 0)
(0 0 0)
(0 0 0)
(0 0 0)
(0 0 0)
(0 0 0)
(0 0 0)
(0 0 0)
(0 0 0)
(0 0 0)
(0 0 0)
(0 0 0)
(0 0 0)
(0 0 0)
(0 0 0)
(0 0 0)
(0 0 0)
(0 0 0)
(0 0 0)
(0 0 0)
(0 0 0)
(0 0 0)
(0 0 0)
(-0.00532959324339 5.25667036213e-05 0)
(0 0 0)
(-0.00804019353667 0.000139101517104 0)
(0 0 0)
(0 0 0)
(0 0 0)
(-0.0363064686541 0.000852114383007 0)
(-0.0144211825934 0.000230719201408 0)
(-0.00874278389175 0.000139872587045 0)
(-0.0194339821195 0.000456116397353 0)
(0 0 0)
(-0.0103233894621 0.000178602558418 0)
(0 0 0)
(0 0 0)
(0 0 0)
(0 0 0)
(0 0 0)
(0 0 0)
(0 0 0)
(0 0 0)
(0 0 0)
(0 0 0)
(0 0 0)
(0 0 0)
(0 0 0)
(0 0 0)
(0 0 0)
(0 0 0)
(0 0 0)
(0 0 0)
(0 0 0)
(0 0 0)
(0 0 0)
(0 0 0)
(0 0 0)
(0 0 0)
(0 0 0)
(0 0 0)
(0 0 0)
(0 0 0)
(0 0 0)
(0 0 0)
(0 0 0)
(0 0 0)
(0 0 0)
(0 0 0)
(0 0 0)
(0 0 0)
(-0.0150281258227 0.000282008871738 0)
(0 0 0)
(0 0 0)
(0 0 0)
(0 0 0)
(0 0 0)
(0 0 0)
(0 0 0)
(-0.0033532483971 6.29250651932e-05 0)
(0 0 0)
(0 0 0)
(0 0 0)
(0 0 0)
(0 0 0)
(0 0 0)
(0 0 0)
(0 0 0)
(0 0 0)
(0 0 0)
(0 0 0)
(0 0 0)
(0 0 0)
(0 0 0)
(0 0 0)
(0 0 0)
(0 0 0)
(0 0 0)
(0 0 0)
(0 0 0)
(0 0 0)
(0 0 0)
(0 0 0)
(0 0 0)
(0 0 0)
(0 0 0)
(0 0 0)
(-0.321284966871 0.00842498232343 0)
(-0.00771583206162 0.000144790715748 0)
(0 0 0)
(0 0 0)
(0 0 0)
(0 0 0)
(0 0 0)
(0 0 0)
(-0.0705499367706 0.00186810875834 0)
(0 0 0)
(0 0 0)
(0 0 0)
(0 0 0)
(0 0 0)
(0 0 0)
(0 0 0)
(0 0 0)
(0 0 0)
(0 0 0)
(0 0 0)
(0 0 0)
(0 0 0)
(0 0 0)
(0 0 0)
(0 0 0)
(0 0 0)
(0 0 0)
(0 0 0)
(0 0 0)
(0 0 0)
(0 0 0)
(0 0 0)
(0 0 0)
(0 0 0)
(0 0 0)
(0 0 0)
(-1.51057666913 0.0512772913191 0)
(-0.0430448006075 0.00148807163886 0)
(0 0 0)
(0 0 0)
(0 0 0)
(0 0 0)
(0 0 0)
(0 0 0)
(-0.331350895652 0.0111200764973 0)
(-0.00654410314838 0.000247329322043 0)
(0 0 0)
(0 0 0)
(0 0 0)
(0 0 0)
(0 0 0)
(0 0 0)
(0 0 0)
(0 0 0)
(0 0 0)
(0 0 0)
(0 0 0)
(0 0 0)
(0 0 0)
(0 0 0)
(0 0 0)
(0 0 0)
(0 0 0)
(0 0 0)
(0 0 0)
(0 0 0)
(0 0 0)
(0 0 0)
(0 0 0)
(0 0 0)
(0 0 0)
(0 0 0)
(0 0 0)
(0 0 0)
(0 0 0)
(0 0 0)
(0 0 0)
(0 0 0)
(0 0 0)
(-2.57038736923 0.0714010352433 0)
(-0.0776173612592 0.00215607966842 0)
(0 0 0)
(0 0 0)
(0 0 0)
(0 0 0)
(0 0 0)
(0 0 0)
(-2.57030458871 0.0713987357397 0)
(-0.573514153664 0.0159312579841 0)
(-0.016085076824 0.000457934815539 0)
(0 0 0)
(0 0 0)
(0 0 0)
(0 0 0)
(0 0 0)
(0 0 0)
(-0.0470766811893 0.00130771097499 0)
(-0.0776164520043 0.00215605441084 0)
(-0.0160849629241 0.000457931572861 0)
(0 0 0)
(0 0 0)
(0 0 0)
(0 0 0)
(0 0 0)
(0 0 0)
(0 0 0)
(0 0 0)
(0 0 0)
(0 0 0)
(0 0 0)
(0 0 0)
(0 0 0)
(0 0 0)
(0 0 0)
(0 0 0)
(0 0 0)
(0 0 0)
(0 0 0)
(0 0 0)
(0 0 0)
(0 0 0)
(0 0 0)
(0 0 0)
(0 0 0)
(0 0 0)
(-0.0457115375434 0.000783138262801 0)
(-0.00158429276826 2.71276123142e-05 0)
(0 0 0)
(0 0 0)
(0 0 0)
(0 0 0)
(0 0 0)
(0 0 0)
(-0.0256133610262 0.000438812696675 0)
(-0.0429732044564 0.000736224649039 0)
(-0.0102499830579 0.000175508954022 0)
(-0.000288712419433 2.8304287908e-06 0)
(0 0 0)
(0 0 0)
(0 0 0)
(0 0 0)
(0 0 0)
(0 0 0)
(-0.000685202954368 9.7985099322e-06 0)
(-0.00120405540637 2.06168638293e-05 0)
(-0.00024739334467 2.42535200523e-06 0)
(0 0 0)
(0 0 0)
(0 0 0)
(0 0 0)
(0 0 0)
(0 0 0)
(0 0 0)
(0 0 0)
(0 0 0)
(0 0 0)
(0 0 0)
(0 0 0)
(0 0 0)
(0 0 0)
(0 0 0)
(0 0 0)
(0 0 0)
(0 0 0)
(0 0 0)
(0 0 0)
(0 0 0)
(0 0 0)
(0 0 0)
(0 0 0)
(0 0 0)
(0 0 0)
(-0.000199468468484 2.17605104532e-06 0)
(-0.000195370681226 2.13134726675e-06 0)
(-2.52012958261e-05 2.42643797414e-07 0)
(0 0 0)
(0 0 0)
(0 0 0)
(0 0 0)
(0 0 0)
(0 0 0)
(0 0 0)
(-2.56945828391e-05 2.47393276761e-07 0)
(-2.53198409145e-05 2.43785176437e-07 0)
(-2.58452401217e-06 2.42751575358e-08 0)
(0 0 0)
(0 0 0)
(0 0 0)
(0 0 0)
(0 0 0)
(0 0 0)
(0 0 0)
(0 0 0)
(0 0 0)
(0 0 0)
(0 0 0)
(0 0 0)
(0 0 0)
(0 0 0)
(0 0 0)
(0 0 0)
(0 0 0)
(0 0 0)
(0 0 0)
(0 0 0)
(0 0 0)
(0 0 0)
(0 0 0)
(0 0 0)
(0 0 0)
(0 0 0)
(0 0 0)
(0 0 0)
(0 0 0)
(0 0 0)
(0 0 0)
(0 0 0)
(0 0 0)
(0 0 0)
(0 0 0)
(0 0 0)
(-0.00335323392642 6.29247936452e-05 0)
(-0.00911506333827 0.000171047857742 0)
(-0.00203384548645 3.81659348407e-05 0)
(-0.0865843679712 0.00196327855003 0)
(-0.0177532552505 0.000333147029906 0)
(-0.0525168954522 0.00119080726431 0)
(-0.0107679812014 0.000202065531347 0)
(0 0 0)
(0 0 0)
(0 0 0)
(-0.00240269576355 4.508755978e-05 0)
(0 0 0)
(0 0 0)
(0 0 0)
(0 0 0)
(0 0 0)
(0 0 0)
(-0.0177536254452 0.000333153976759 0)
(-0.00396138177951 7.43369345817e-05 0)
(-0.00396137776712 7.43368592875e-05 0)
(0 0 0)
(0 0 0)
(0 0 0)
(0 0 0)
(0 0 0)
(0 0 0)
(0 0 0)
(0 0 0)
(-0.0705495998969 0.00186809983818 0)
(-0.194870694742 0.00511004973108 0)
(-0.0427901134488 0.00113304971433 0)
(-0.800274585348 0.024346087082 0)
(-0.176440857795 0.0054124257553 0)
(-0.485393056445 0.0147667086242 0)
(-0.107016524386 0.00328279401988 0)
(0 0 0)
(-0.00467981575478 8.78186392982e-05 0)
(0 0 0)
(-0.0227386965459 0.00072069363862 0)
(0 0 0)
(-0.0121662440365 0.000375416162363 0)
(0 0 0)
(-0.0149072472176 0.000385149650421 0)
(-0.0149073099354 0.000385151270823 0)
(-0.0028384684994 5.32650117804e-05 0)
(-0.176440493889 0.00541241459227 0)
(-0.0374894368443 0.00118821228801 0)
(-0.0374895209145 0.00118821495258 0)
(-0.0073791810802 0.000227700828143 0)
(0 0 0)
(0 0 0)
(0 0 0)
(-0.00335324518302 6.29250048797e-05 0)
(0 0 0)
(0 0 0)
(0 0 0)
(-0.331356220426 0.0111202551958 0)
(-0.90070932691 0.0302276431075 0)
(-0.200976302511 0.00674472858652 0)
(-2.22293154785 0.0731350644381 0)
(-0.490297320497 0.0159971609249 0)
(-1.33276920377 0.0434848866946 0)
(-0.297378276893 0.0097027006923 0)
(0 0 0)
(-0.0261078713397 0.000902556925425 0)
(0 0 0)
(-0.0663551392166 0.00216500028833 0)
(0 0 0)
(-0.0402462556225 0.00131313348228 0)
(0 0 0)
(-0.0739343629194 0.00248122392978 0)
(-0.0739352784769 0.00248125465573 0)
(-0.0139553425659 0.000527963758769 0)
(-0.490295802064 0.0159971113823 0)
(-0.109400541837 0.00356946285421 0)
(-0.109401310948 0.00356948794837 0)
(-0.0244108308352 0.000796463641257 0)
(0 0 0)
(0 0 0)
(0 0 0)
(-0.0132824041634 0.000468769237385 0)
(0 0 0)
(0 0 0)
(0 0 0)
(-7.17589403603 0.20473080807 0)
(-4.26332281974 0.119158253961 0)
(-4.31916654041 0.0888855066738 0)
(-2.04570333404 0.0420991817863 0)
(-0.57352121703 0.0159314541925 0)
(-1.55898450746 0.0433059658996 0)
(-0.347856219664 0.00966286035214 0)
(-2.62929524136 0.0541091058974 0)
(-0.279144058277 0.00574459466259 0)
(-1.24394669935 0.0255995761248 0)
(-0.13176614002 0.00271165744793 0)
(0 0 0)
(-0.047077412508 0.0013077312898 0)
(0 0 0)
(-0.100625085509 0.00207369548063 0)
(0 0 0)
(-0.0475028242075 0.000978944677439 0)
(0 0 0)
(0 0 0)
(0 0 0)
(0 0 0)
(0 0 0)
(0 0 0)
(0 0 0)
(0 0 0)
(0 0 0)
(0 0 0)
(0 0 0)
(0 0 0)
(0 0 0)
(0 0 0)
(0 0 0)
(0 0 0)
(0 0 0)
(0 0 0)
(0 0 0)
(0 0 0)
(0 0 0)
(0 0 0)
(0 0 0)
(0 0 0)
(0 0 0)
(0 0 0)
(0 0 0)
(0 0 0)
(0 0 0)
(0 0 0)
(0 0 0)
(0 0 0)
(0 0 0)
(0 0 0)
(0 0 0)
(0 0 0)
(0 0 0)
(0 0 0)
(0 0 0)
(0 0 0)
(0 0 0)
(0 0 0)
(0 0 0)
(-0.814862060907 -0.0807077341858 0.0554123754009)
(-0.59445735258 0.012337658008 0.00220342745441)
(-2.95920721055 -0.299772149434 0.199829794652)
(-2.69697450619 0.0457572487772 0.00535745129518)
(-0.134758003718 0.0027732279658 0)
(-0.282857963511 0.00582102430368 0)
(-1.5589674516 0.0433054921165 0)
(-0.573511026236 0.0159311711094 0)
(-0.34785353464 0.0096627857667 0)
(-2.63886590192 0.0543060635754 0)
(-1.24424818344 0.0256057804621 0)
(-0.281983309254 0.00580302451459 0)
(-0.132299730983 0.00272263838664 0)
(-0.1279684607 0.00355474847172 0)
(-0.127968147158 0.00355473976202 0)
(-0.0285535967261 0.000793170862325 0)
(-0.755560942591 0.0155489297708 0)
(-0.0785964791394 0.00161972695734 0)
(-0.0788953830338 0.00162588680955 0)
(-0.00586765549276 5.78737050192e-05 0)
(0 0 0)
(0 0 0)
(0 0 0)
(-0.0287927697994 0.000593365325411 0)
(0 0 0)
(0 0 0)
(0 0 0)
(0 0 0)
(0 0 0)
(0 0 0)
(0 0 0)
(0 0 0)
(0 0 0)
(0 0 0)
(0 0 0)
(0 0 0)
(0 0 0)
(0 0 0)
(0 0 0)
(0 0 0)
(0 0 0)
(0 0 0)
(0 0 0)
(0 0 0)
(0 0 0)
(0 0 0)
(0 0 0)
(0 0 0)
(0 0 0)
(0 0 0)
(0 0 0)
(0 0 0)
(0 0 0)
(0 0 0)
(0 0 0)
(0 0 0)
(0 0 0)
(0 0 0)
(0 0 0)
(0 0 0)
(0 0 0)
(0 0 0)
(0 0 0)
(0 0 0)
(0 0 0)
(0 0 0)
(0 0 0)
(0 0 0)
(0 0 0)
(-0.0776163262845 0.00215605091856 0)
(0 0 0)
(0 0 0)
(-0.0488008691281 0.00100569496413 0)
(-0.102918979741 0.00212096836568 0)
(0 0 0)
(0 0 0)
(-0.0470767760371 0.00130771360971 0)
(0 0 0)
(0 0 0)
(-0.102566449448 0.00211370337334 0)
(-0.0480521888896 0.000990266059704 0)
(0 0 0)
(0 0 0)
(0 0 0)
(0 0 0)
(0 0 0)
(-0.0290862706386 0.000599413830719 0)
(0 0 0)
(0 0 0)
(0 0 0)
(0 0 0)
(0 0 0)
(0 0 0)
(0 0 0)
(0 0 0)
(0 0 0)
(0 0 0)
(0 0 0)
(0 0 0)
(0 0 0)
(0 0 0)
(0 0 0)
(0 0 0)
(0 0 0)
(0 0 0)
(0 0 0)
(0 0 0)
(0 0 0)
(0 0 0)
(0 0 0)
(0 0 0)
(0 0 0)
(0 0 0)
(0 0 0)
(0 0 0)
(0 0 0)
(0 0 0)
(0 0 0)
(0 0 0)
(0 0 0)
(0 0 0)
(0 0 0)
(0 0 0)
(0 0 0)
(0 0 0)
(0 0 0)
(0 0 0)
(0 0 0)
(0 0 0)
(0 0 0)
(0 0 0)
(0 0 0)
(0 0 0)
(0 0 0)
(0 0 0)
(0 0 0)
(0 0 0)
(0 0 0)
(0 0 0)
(0 0 0)
(0 0 0)
(0 0 0)
(0 0 0)
(0 0 0)
(0 0 0)
(0 0 0)
(0 0 0)
(0 0 0)
(0 0 0)
(0 0 0)
(0 0 0)
(0 0 0)
(0 0 0)
(0 0 0)
(0 0 0)
(0 0 0)
(0 0 0)
(0 0 0)
(0 0 0)
(0 0 0)
(0 0 0)
(0 0 0)
(0 0 0)
(0 0 0)
(0 0 0)
(0 0 0)
(0 0 0)
(0 0 0)
(0 0 0)
(0 0 0)
(0 0 0)
(0 0 0)
(0 0 0)
(0 0 0)
(0 0 0)
(0 0 0)
(0 0 0)
(0 0 0)
(0 0 0)
(0 0 0)
(0 0 0)
(0 0 0)
(0 0 0)
(0 0 0)
(0 0 0)
(0 0 0)
(0 0 0)
(0 0 0)
(0 0 0)
(0 0 0)
(0 0 0)
(0 0 0)
(0 0 0)
(0 0 0)
(0 0 0)
(0 0 0)
(0 0 0)
(0 0 0)
(0 0 0)
(0 0 0)
(0 0 0)
(0 0 0)
(0 0 0)
(0 0 0)
(0 0 0)
(0 0 0)
(0 0 0)
(0 0 0)
(0 0 0)
(0 0 0)
(0 0 0)
(0 0 0)
(0 0 0)
(0 0 0)
(0 0 0)
(0 0 0)
(0 0 0)
(0 0 0)
(0 0 0)
(0 0 0)
(0 0 0)
(0 0 0)
(0 0 0)
(0 0 0)
(0 0 0)
(0 0 0)
(0 0 0)
(0 0 0)
(0 0 0)
(0 0 0)
(0 0 0)
(0 0 0)
(0 0 0)
(0 0 0)
(0 0 0)
(0 0 0)
(0 0 0)
(0 0 0)
(0 0 0)
(0 0 0)
(0 0 0)
(0 0 0)
(0 0 0)
(0 0 0)
(0 0 0)
(0 0 0)
(0 0 0)
(0 0 0)
(0 0 0)
(0 0 0)
(0 0 0)
(0 0 0)
(0 0 0)
(0 0 0)
(0 0 0)
(0 0 0)
(0 0 0)
(0 0 0)
(0 0 0)
(0 0 0)
(-0.0022131988186 3.07720097663e-05 0)
(-0.00363362621324 5.05214354811e-05 0)
(-0.00137491051061 1.91075095143e-05 0)
(-0.00223081802891 3.10169848254e-05 0)
(-0.122541921798 0.00209941019083 0)
(-0.0736865210819 0.00126241070008 0)
(-0.00327473764397 4.55314985329e-05 0)
(-0.00167385845709 2.32730960978e-05 0)
(-0.00194150288132 2.6994387094e-05 0)
(-0.00103481932149 1.43811687222e-05 0)
(-0.0105280441589 0.000180270153403 0)
(-0.0279201762618 0.000478333469182 0)
(-0.0064749882416 0.000110870272387 0)
(-0.000584156410452 8.11818229942e-06 0)
(-0.000136049453315 1.89071667106e-06 0)
(-0.00035793616576 4.97433734049e-06 0)
(-8.23524317496e-05 1.14447439381e-06 0)
(0 0 0)
(-0.00091315345596 1.30582379291e-05 0)
(0 0 0)
(-2.01650946903e-05 1.96161333928e-07 0)
(0 0 0)
(-1.18017203276e-05 1.14804380424e-07 0)
(0 0 0)
(0 0 0)
(0 0 0)
(0 0 0)
(0 0 0)
(0 0 0)
(0 0 0)
(0 0 0)
(0 0 0)
(0 0 0)
(0 0 0)
(0 0 0)
(0 0 0)
(0 0 0)
(0 0 0)
(0 0 0)
(0 0 0)
(0 0 0)
(0 0 0)
(0 0 0)
(0 0 0)
(0 0 0)
(0 0 0)
(0 0 0)
(0 0 0)
(0 0 0)
(0 0 0)
(0 0 0)
(0 0 0)
(0 0 0)
(0 0 0)
(0 0 0)
(0 0 0)
(0 0 0)
(0 0 0)
(0 0 0)
(0 0 0)
(0 0 0)
(0 0 0)
(0 0 0)
(0 0 0)
(0 0 0)
(0 0 0)
(-0.0423032230966 0.000724746408176 0)
(-0.00544994312125 9.33185753858e-05 0)
(-0.0090366568764 0.000154733348073 0)
(-0.000462099293518 6.42192097544e-06 0)
(-0.000768145275971 1.06751261669e-05 0)
(-8.73146443997e-05 1.21343562779e-06 0)
(-0.000160745099834 2.23391886289e-06 0)
(-0.0266305836235 0.000456239936721 0)
(-0.00924401249514 0.000158283867869 0)
(-0.00581996324695 9.96543756367e-05 0)
(-0.000696781221746 9.68336027772e-06 0)
(-0.000394422595149 5.48139928474e-06 0)
(-0.00015528963523 2.15810277086e-06 0)
(-9.0671819267e-05 1.26009121026e-06 0)
(-0.00245961566923 4.21156377493e-05 0)
(-0.00229019570373 3.92146845705e-05 0)
(-0.000535721530894 7.66090208441e-06 0)
(-0.000139689487808 1.94130323155e-06 0)
(-3.07248554114e-05 3.85583037011e-07 0)
(-3.21035072107e-05 4.02884493459e-07 0)
(-4.35918024559e-06 4.09436270239e-08 0)
(0 0 0)
(0 0 0)
(0 0 0)
(0 0 0)
(0 0 0)
(0 0 0)
(0 0 0)
(0 0 0)
(0 0 0)
(0 0 0)
(0 0 0)
(0 0 0)
(0 0 0)
(0 0 0)
(0 0 0)
(0 0 0)
(0 0 0)
(0 0 0)
(0 0 0)
(0 0 0)
(0 0 0)
(0 0 0)
(0 0 0)
(0 0 0)
(0 0 0)
(0 0 0)
(0 0 0)
(0 0 0)
(0 0 0)
(0 0 0)
(0 0 0)
(0 0 0)
(0 0 0)
(0 0 0)
(0 0 0)
(0 0 0)
(0 0 0)
(0 0 0)
(0 0 0)
(0 0 0)
(0 0 0)
(0 0 0)
(0 0 0)
(0 0 0)
(0 0 0)
(0 0 0)
(0 0 0)
(0 0 0)
(0 0 0)
(-0.00117685862454 2.01511773296e-05 0)
(0 0 0)
(0 0 0)
(-9.38013070663e-06 9.12477218723e-08 0)
(-1.77001079807e-05 1.72182518629e-07 0)
(0 0 0)
(0 0 0)
(-0.000731256374898 1.04570810834e-05 0)
(0 0 0)
(0 0 0)
(-1.73766633156e-05 1.6903612443e-07 0)
(-1.0655575381e-05 1.03654949932e-07 0)
(0 0 0)
(0 0 0)
(0 0 0)
(0 0 0)
(0 0 0)
(0 0 0)
(0 0 0)
(0 0 0)
(0 0 0)
(0 0 0)
(0 0 0)
(0 0 0)
(0 0 0)
(0 0 0)
(0 0 0)
(0 0 0)
(0 0 0)
(0 0 0)
(0 0 0)
(0 0 0)
(0 0 0)
(0 0 0)
(0 0 0)
(0 0 0)
(0 0 0)
(0 0 0)
(0 0 0)
(0 0 0)
(0 0 0)
(0 0 0)
(0 0 0)
(0 0 0)
(0 0 0)
(0 0 0)
(0 0 0)
(0 0 0)
(0 0 0)
(0 0 0)
(0 0 0)
(0 0 0)
(0 0 0)
(0 0 0)
(0 0 0)
(0 0 0)
(0 0 0)
(0 0 0)
(0 0 0)
(0 0 0)
(0 0 0)
(0 0 0)
(0 0 0)
(0 0 0)
(0 0 0)
(0 0 0)
(0 0 0)
(0 0 0)
(0 0 0)
(0 0 0)
(0 0 0)
(0 0 0)
(0 0 0)
(0 0 0)
(0 0 0)
(0 0 0)
(0 0 0)
(0 0 0)
(0 0 0)
(0 0 0)
(0 0 0)
(0 0 0)
(0 0 0)
(0 0 0)
(0 0 0)
(0 0 0)
(0 0 0)
(0 0 0)
(0 0 0)
(0 0 0)
(0 0 0)
(0 0 0)
(0 0 0)
(0 0 0)
(0 0 0)
(0 0 0)
(0 0 0)
(0 0 0)
(0 0 0)
(0 0 0)
(0 0 0)
(0 0 0)
(0 0 0)
(0 0 0)
(0 0 0)
(0 0 0)
(0 0 0)
(0 0 0)
(0 0 0)
(0 0 0)
(0 0 0)
(0 0 0)
(0 0 0)
(0 0 0)
(0 0 0)
(0 0 0)
(0 0 0)
(0 0 0)
(0 0 0)
(0 0 0)
(0 0 0)
(0 0 0)
(0 0 0)
(0 0 0)
(0 0 0)
(0 0 0)
(0 0 0)
(0 0 0)
(0 0 0)
(0 0 0)
(0 0 0)
(0 0 0)
(0 0 0)
(0 0 0)
(0 0 0)
(0 0 0)
(0 0 0)
(0 0 0)
(0 0 0)
(0 0 0)
(0 0 0)
(0 0 0)
(0 0 0)
(0 0 0)
(0 0 0)
(0 0 0)
(0 0 0)
(0 0 0)
(0 0 0)
(0 0 0)
(0 0 0)
(0 0 0)
(0 0 0)
(0 0 0)
(0 0 0)
(0 0 0)
(0 0 0)
(0 0 0)
(0 0 0)
(0 0 0)
(0 0 0)
(0 0 0)
(0 0 0)
(0 0 0)
(0 0 0)
(0 0 0)
(0 0 0)
(0 0 0)
(0 0 0)
(0 0 0)
(0 0 0)
(0 0 0)
(0 0 0)
(0 0 0)
(0 0 0)
(0 0 0)
(0 0 0)
(0 0 0)
(0 0 0)
(0 0 0)
(0 0 0)
(0 0 0)
(0 0 0)
(0 0 0)
(0 0 0)
(0 0 0)
(0 0 0)
(0 0 0)
(0 0 0)
(0 0 0)
(0 0 0)
(0 0 0)
(0 0 0)
(0 0 0)
(0 0 0)
(0 0 0)
(-7.14605396349 0.167269452455 0)
(-5.55245674045 0.129544429909 0)
(-6.26062442401 0.128839388066 0)
(-3.81476654935 0.0785052982811 0)
(-4.90017013384 0.114325923842 0)
(-5.53464059917 0.113899135241 0)
(-8.10578993152 0.190014450612 0)
(-5.55233701904 0.129541636687 0)
(-2.62285842949 0.0611939391627 0)
(-2.9733529648 0.0611895795921 0)
(-2.97197309603 0.0611611828323 0)
(-3.81618560093 0.0890354686595 0)
(-3.81613802839 0.0890343587442 0)
(-4.31409906344 0.0887812214478 0)
(-1.59096111289 0.0371187314031 0)
(-3.36782882036 0.07857485163 0)
(-1.41337021719 0.0290861967691 0)
(-2.32211046812 0.0477874524125 0)
(-2.9721799961 0.0693439645149 0)
(-1.24793542474 0.0256816613776 0)
(-1.80276038511 0.0420602225767 0)
(-0.751523029511 0.0175337921522 0)
(-0.355005868315 0.00828264585838 0)
(-0.669703107088 0.0137820339729 0)
(-0.246309833416 0.00506888867032 0)
(-0.313288023953 0.00730932636801 0)
(-0.590970953687 0.0121617798611 0)
(-0.85162111532 0.0198691817045 0)
(-1.23900564962 0.0289072545788 0)
(-1.5908434879 0.0371159870931 0)
(-1.8085468087 0.0372186619642 0)
(-0.667765848507 0.0137421665103 0)
(-2.31469507608 0.0540041765403 0)
(-0.851513989976 0.0198666823619 0)
(-0.971547184449 0.0199937795728 0)
(-0.585289844716 0.0136554038706 0)
(-0.167681226778 0.00391217256517 0)
(-0.19181670359 0.00394745716045 0)
(-0.315913052455 0.00650127552842 0)
(-0.243983458662 0.0056923807851 0)
(-0.402236695293 0.00938458880741 0)
(-0.460232022732 0.00947126167637 0)
(-0.036306080841 0.000852105281017 0)
(-0.130594648465 0.00304690519446 0)
(-0.0323927370488 0.000667553941278 0)
(-0.0887808523215 0.00182960790834 0)
(-0.115248095716 0.00268885460174 0)
(-0.0285780376004 0.00058894009498 0)
(-0.0411409032551 0.000965578771309 0)
(-0.00910865438235 0.000157586709521 0)
(0 0 0)
(-0.00833120330284 0.000133287860434 0)
(0 0 0)
(0 0 0)
(-0.00574566895267 5.66705305918e-05 0)
(-0.0103214224185 0.000178568527055 0)
(-0.0282745844518 0.000663605714852 0)
(-0.0616853633044 0.00143918189668 0)
(-0.0691372220466 0.00142478929757 0)
(-0.0139085886095 0.000222518398607 0)
(-0.0897529270481 0.00209402653826 0)
(-0.0194327208176 0.000456086794543 0)
(-0.0222543516966 0.000458620713752 0)
(-0.00522346772308 5.17287884976e-05 0)
(0 0 0)
(0 0 0)
(0 0 0)
(0 0 0)
(0 0 0)
(-0.0044749348568 4.41370595465e-05 0)
(0 0 0)
(0 0 0)
(0 0 0)
(0 0 0)
(0 0 0)
(0 0 0)
(0 0 0)
(0 0 0)
(0 0 0)
(0 0 0)
(0 0 0)
(0 0 0)
(0 0 0)
(0 0 0)
(0 0 0)
(0 0 0)
(0 0 0)
(0 0 0)
(0 0 0)
(0 0 0)
(0 0 0)
(0 0 0)
(0 0 0)
(0 0 0)
(0 0 0)
(0 0 0)
(0 0 0)
(0 0 0)
(0 0 0)
(0 0 0)
(0 0 0)
(0 0 0)
(0 0 0)
(0 0 0)
(0 0 0)
(0 0 0)
(0 0 0)
(0 0 0)
(0 0 0)
(0 0 0)
(0 0 0)
(0 0 0)
(0 0 0)
(0 0 0)
(0 0 0)
(0 0 0)
(0 0 0)
(0 0 0)
(0 0 0)
(0 0 0)
(0 0 0)
(0 0 0)
(0 0 0)
(0 0 0)
(0 0 0)
(0 0 0)
(0 0 0)
(0 0 0)
(0 0 0)
(0 0 0)
(0 0 0)
(0 0 0)
(0 0 0)
(0 0 0)
(0 0 0)
(0 0 0)
(0 0 0)
(0 0 0)
(0 0 0)
(0 0 0)
(0 0 0)
(0 0 0)
(0 0 0)
(0 0 0)
(0 0 0)
(0 0 0)
(0 0 0)
(0 0 0)
(0 0 0)
(0 0 0)
(0 0 0)
(0 0 0)
(0 0 0)
(0 0 0)
(0 0 0)
(0 0 0)
(0 0 0)
(0 0 0)
(0 0 0)
(0 0 0)
(0 0 0)
(0 0 0)
(0 0 0)
(0 0 0)
(0 0 0)
(0 0 0)
(0 0 0)
(0 0 0)
(0 0 0)
(0 0 0)
(0 0 0)
(0 0 0)
(0 0 0)
(0 0 0)
(0 0 0)
(0 0 0)
(0 0 0)
(0 0 0)
(0 0 0)
(0 0 0)
(0 0 0)
(0 0 0)
(0 0 0)
(0 0 0)
(0 0 0)
(0 0 0)
(0 0 0)
(0 0 0)
(0 0 0)
(0 0 0)
(0 0 0)
(0 0 0)
(0 0 0)
(0 0 0)
(0 0 0)
(0 0 0)
(0 0 0)
(0 0 0)
(0 0 0)
(0 0 0)
(0 0 0)
(0 0 0)
(0 0 0)
(0 0 0)
(0 0 0)
(0 0 0)
(0 0 0)
(0 0 0)
(0 0 0)
(0 0 0)
(0 0 0)
(0 0 0)
(0 0 0)
(0 0 0)
(0 0 0)
(0 0 0)
(0 0 0)
(0 0 0)
(0 0 0)
(0 0 0)
(0 0 0)
(0 0 0)
(0 0 0)
(0 0 0)
(0 0 0)
(0 0 0)
(0 0 0)
(0 0 0)
(0 0 0)
(0 0 0)
(0 0 0)
(0 0 0)
(0 0 0)
(0 0 0)
(0 0 0)
(0 0 0)
(0 0 0)
(0 0 0)
(-2.72197410256 -0.25900961076 0.176540099818)
(-11.6284408973 -1.94164854904 1.21331634183)
(-2.84706835425 -0.155919897274 0.118805066464)
(-1.08097585416 -0.0613145866325 0.0461827915912)
(-8.39450268905 -1.1436912351 0.734388024244)
(-1.21378409967 -0.0218837994291 0.0258697192541)
(-3.31102933705 -0.458342526343 0.293222578769)
(-2.11585080592 -0.0637002402572 0.0618163176697)
(-3.83585958022 -0.0120791309613 0.0555832314136)
(-2.69461266633 -0.0173216312081 0.0402478321888)
(-1.42363710378 0.0292974823047 0)
(-5.1943726876 -0.367703001014 0.267980214059)
(-1.8715484023 0.0297238442617 0.00756146302898)
(-1.32106132967 0.0154735857077 0.00643803172967)
(-0.780719716765 -0.022795531729 0.0223492561977)
(-0.167667033117 0.00391184141272 0)
(-0.350520589436 0.0018537699253 0.00293297144698)
(-0.195643901828 0.00402621829442 0)
(-0.243952522557 0.00569165901451 0)
(-0.472396157521 0.00890982793408 0.000437785515779)
(-0.748247734138 -0.055961899606 0.040067980755)
(-0.80131703095 0.00862915448697 0.00545833684936)
(-0.354952468556 0.008281399988 0)
(-0.675245771926 0.0138960982415 0)
(-0.250391222331 0.00515288087535 0)
(-0.851446254394 0.0198651020223 0)
(-0.313237520807 0.00730814807855 0)
(-0.598237470973 0.0123113198394 0)
(-1.59077485251 0.0371143857601 0)
(-3.38844064029 0.0749820541224 0.00219884653465)
(-2.32267848237 0.0477991417589 0)
(-1.41834397314 0.0291885532801 0)
(-2.9718482164 0.069336223759 0)
(-1.80253836859 0.0420550427067 0)
(-1.24999093226 0.0257239623228 0)
(-1.23888505792 0.0289044410525 0)
(-1.59075776915 0.0371139871879 0)
(-1.80874065165 0.0372226511201 0)
(-0.667723958201 0.0137413044363 0)
(-2.31450156749 0.0539996617891 0)
(-0.851477555934 0.0198658323188 0)
(-0.972745529914 0.0200184407066 0)
(-0.751432453316 0.017531678918 0)
(-0.354958321841 0.00828153655106 0)
(-0.672847562249 0.0138467447192 0)
(-0.248065330936 0.00510501561405 0)
(-0.851454356775 0.019865291059 0)
(-0.313256016672 0.00730857960576 0)
(-0.592713842094 0.0121976473179 0)
(-0.585228711057 0.0136539775605 0)
(-0.167669598369 0.00391190126264 0)
(-0.316325980037 0.00650977329691 0)
(-0.192780736136 0.00396729629387 0)
(-0.402219857958 0.00938419597535 0)
(-0.243962327734 0.0056918877792 0)
(-0.460991064149 0.00948688223193 0)
(-0.276418431508 0.00644912149698 0)
(-0.964835824213 0.0225105953357 0)
(-0.404898557945 0.00833253664514 0)
(-0.405155347326 0.00833782119576 0)
(-0.516424527107 0.0120487063803 0)
(-0.516437864225 0.0120490175487 0)
(-0.216940578387 0.00446448939804 0)
(-0.130565713959 0.00304623012318 0)
(-0.101692501308 0.002372588878 0)
(-0.191422057133 0.00393933560505 0)
(-0.0420249902039 0.000866056727486 0)
(-0.243940635491 0.00569138167724 0)
(-0.0528190097115 0.00123966443281 0)
(-0.100924017925 0.0020798559206 0)
(-0.130575027982 0.00304644742877 0)
(-0.101694128322 0.00237262683786 0)
(-0.191666334389 0.00394436266466 0)
(-0.0421714413039 0.000869074811721 0)
(-0.243954828833 0.00569171282224 0)
(-0.0528237457751 0.00123977558842 0)
(-0.100984747208 0.00208110743794 0)
(-0.0616765322681 0.00143897585968 0)
(-0.00910885103431 0.000157590111751 0)
(-0.0198200441266 0.000408454171473 0)
(-0.0198729565714 0.000409544598349 0)
(-0.0249498398468 0.000585573815777 0)
(-0.0249511916446 0.000585605542531 0)
(-0.047647516348 0.000981926512795 0)
(0 0 0)
(-0.036305207001 0.000852084771954 0)
(-0.00843116130019 0.000134887051705 0)
(-0.0139906753731 0.000223831674576 0)
(-0.0103220312662 0.000178579060587 0)
(-0.0194302429291 0.000456028638393 0)
(0 0 0)
(0 0 0)
(0 0 0)
(0 0 0)
(0 0 0)
(0 0 0)
(0 0 0)
(0 0 0)
(0 0 0)
(0 0 0)
(-0.00515425402576 5.0837302471e-05 0)
(0 0 0)
(-0.00803802239267 0.000139063954647 0)
(0 0 0)
(0 0 0)
(0 0 0)
(0 0 0)
(0 0 0)
(0 0 0)
(0 0 0)
(0 0 0)
(0 0 0)
(0 0 0)
(0 0 0)
(0 0 0)
(0 0 0)
(0 0 0)
(0 0 0)
(0 0 0)
(0 0 0)
(0 0 0)
(0 0 0)
(0 0 0)
(0 0 0)
(0 0 0)
(0 0 0)
(0 0 0)
(0 0 0)
(0 0 0)
(0 0 0)
(0 0 0)
(0 0 0)
(0 0 0)
(0 0 0)
(0 0 0)
(0 0 0)
(0 0 0)
(0 0 0)
(0 0 0)
(0 0 0)
(0 0 0)
(0 0 0)
(0 0 0)
(0 0 0)
(0 0 0)
(0 0 0)
(0 0 0)
(0 0 0)
(0 0 0)
(0 0 0)
(0 0 0)
(0 0 0)
(0 0 0)
(0 0 0)
(0 0 0)
(0 0 0)
(0 0 0)
(0 0 0)
(0 0 0)
(0 0 0)
(0 0 0)
(0 0 0)
(0 0 0)
(0 0 0)
(0 0 0)
(0 0 0)
(0 0 0)
(0 0 0)
(0 0 0)
(0 0 0)
(0 0 0)
(0 0 0)
(0 0 0)
(0 0 0)
(0 0 0)
(0 0 0)
(0 0 0)
(0 0 0)
(0 0 0)
(0 0 0)
(0 0 0)
(0 0 0)
(0 0 0)
(0 0 0)
(0 0 0)
(0 0 0)
(0 0 0)
(0 0 0)
(0 0 0)
(0 0 0)
(0 0 0)
(0 0 0)
(0 0 0)
(0 0 0)
(0 0 0)
(0 0 0)
(0 0 0)
(0 0 0)
(0 0 0)
(0 0 0)
(0 0 0)
(0 0 0)
(0 0 0)
(0 0 0)
(0 0 0)
(0 0 0)
(0 0 0)
(0 0 0)
(0 0 0)
(0 0 0)
(0 0 0)
(0 0 0)
(0 0 0)
(0 0 0)
(0 0 0)
(0 0 0)
(0 0 0)
(0 0 0)
(0 0 0)
(0 0 0)
(0 0 0)
(0 0 0)
(0 0 0)
(0 0 0)
(0 0 0)
(0 0 0)
(0 0 0)
(0 0 0)
(0 0 0)
(0 0 0)
(0 0 0)
(0 0 0)
(0 0 0)
(0 0 0)
(0 0 0)
(0 0 0)
(0 0 0)
(0 0 0)
(0 0 0)
(0 0 0)
(0 0 0)
(0 0 0)
(0 0 0)
(0 0 0)
(0 0 0)
(0 0 0)
(0 0 0)
(0 0 0)
(0 0 0)
(0 0 0)
(0 0 0)
(0 0 0)
(0 0 0)
(0 0 0)
(0 0 0)
(0 0 0)
(0 0 0)
(0 0 0)
(0 0 0)
(0 0 0)
(0 0 0)
(0 0 0)
(0 0 0)
(0 0 0)
(0 0 0)
(0 0 0)
(0 0 0)
(0 0 0)
(0 0 0)
(0 0 0)
(0 0 0)
(0 0 0)
(0 0 0)
(0 0 0)
(0 0 0)
(0 0 0)
(0 0 0)
(0 0 0)
(0 0 0)
(0 0 0)
(-0.028275413435 0.000663625171123 0)
(-0.0616811377494 0.00143908331021 0)
(-0.0709899122185 0.00146296978922 0)
(-0.0144094771658 0.000230531930573 0)
(-0.0897460036589 0.0020938650086 0)
(-0.0230430242636 0.000474873785533 0)
(-0.0194335308451 0.000456105805924 0)
(-0.0363064484313 0.000852113908377 0)
(-0.130584191596 0.00304666122515 0)
(-0.0910489776491 0.00187634974431 0)
(-0.0335079943875 0.00069053731656 0)
(-0.115237322529 0.00268860325241 0)
(-0.04114081948 0.000965576805104 0)
(-0.0295822426667 0.000609634889891 0)
(-0.00522456947809 5.17396993436e-05 0)
(0 0 0)
(0 0 0)
(0 0 0)
(0 0 0)
(-0.00469334925162 4.62913186494e-05 0)
(0 0 0)
(-0.00911039379856 0.000157616802756 0)
(0 0 0)
(-0.00873309183626 0.00013971752741 0)
(0 0 0)
(-0.0103235684992 0.000178605655897 0)
(0 0 0)
(-0.00602466581193 5.94223250613e-05 0)
(-0.0363082811958 0.00085215692344 0)
(-0.130586902454 0.0030467244722 0)
(-0.0902185338651 0.00185923584559 0)
(-0.0334427565461 0.000689192886232 0)
(-0.115243678441 0.00268875154225 0)