/*--------------------------------*- C++ -*----------------------------------*\
| =========                 |                                                 |
| \\      /  F ield         | OpenFOAM: The Open Source CFD Toolbox           |
|  \\    /   O peration     | Version:  v1906                                 |
|   \\  /    A nd           | Web:      www.OpenFOAM.com                      |
|    \\/     M anipulation  |                                                 |
\*---------------------------------------------------------------------------*/
FoamFile
{
    version     2.0;
    format      ascii;
    class       volVectorField;
    location    "14.1";
    object      force.turbine;
}
// * * * * * * * * * * * * * * * * * * * * * * * * * * * * * * * * * * * * * //

dimensions      [1 -2 -2 0 0 0 0];


internalField   nonuniform List<vector> 
28582
(
(0 0 0)
(0 0 0)
(0 0 0)
(0 0 0)
(0 0 0)
(0 0 0)
(0 0 0)
(0 0 0)
(0 0 0)
(0 0 0)
(0 0 0)
(0 0 0)
(0 0 0)
(0 0 0)
(0 0 0)
(0 0 0)
(0 0 0)
(0 0 0)
(0 0 0)
(0 0 0)
(0 0 0)
(0 0 0)
(0 0 0)
(0 0 0)
(0 0 0)
(0 0 0)
(0 0 0)
(0 0 0)
(0 0 0)
(0 0 0)
(0 0 0)
(0 0 0)
(0 0 0)
(0 0 0)
(0 0 0)
(0 0 0)
(0 0 0)
(0 0 0)
(0 0 0)
(0 0 0)
(0 0 0)
(0 0 0)
(0 0 0)
(0 0 0)
(0 0 0)
(0 0 0)
(0 0 0)
(0 0 0)
(0 0 0)
(0 0 0)
(0 0 0)
(0 0 0)
(0 0 0)
(0 0 0)
(0 0 0)
(0 0 0)
(0 0 0)
(0 0 0)
(0 0 0)
(0 0 0)
(0 0 0)
(0 0 0)
(0 0 0)
(0 0 0)
(0 0 0)
(0 0 0)
(0 0 0)
(0 0 0)
(0 0 0)
(0 0 0)
(0 0 0)
(0 0 0)
(0 0 0)
(0 0 0)
(0 0 0)
(0 0 0)
(0 0 0)
(0 0 0)
(0 0 0)
(0 0 0)
(0 0 0)
(0 0 0)
(0 0 0)
(0 0 0)
(0 0 0)
(0 0 0)
(0 0 0)
(0 0 0)
(0 0 0)
(0 0 0)
(0 0 0)
(0 0 0)
(0 0 0)
(0 0 0)
(0 0 0)
(0 0 0)
(0 0 0)
(0 0 0)
(0 0 0)
(0 0 0)
(0 0 0)
(0 0 0)
(0 0 0)
(0 0 0)
(0 0 0)
(0 0 0)
(0 0 0)
(0 0 0)
(0 0 0)
(0 0 0)
(0 0 0)
(0 0 0)
(0 0 0)
(0 0 0)
(0 0 0)
(0 0 0)
(0 0 0)
(0 0 0)
(0 0 0)
(0 0 0)
(0 0 0)
(0 0 0)
(0 0 0)
(0 0 0)
(0 0 0)
(0 0 0)
(0 0 0)
(0 0 0)
(0 0 0)
(0 0 0)
(0 0 0)
(0 0 0)
(0 0 0)
(0 0 0)
(0 0 0)
(0 0 0)
(0 0 0)
(0 0 0)
(0 0 0)
(0 0 0)
(0 0 0)
(0 0 0)
(0 0 0)
(0 0 0)
(0 0 0)
(0 0 0)
(0 0 0)
(0 0 0)
(0 0 0)
(0 0 0)
(0 0 0)
(0 0 0)
(0 0 0)
(0 0 0)
(0 0 0)
(0 0 0)
(0 0 0)
(0 0 0)
(0 0 0)
(0 0 0)
(0 0 0)
(0 0 0)
(0 0 0)
(0 0 0)
(0 0 0)
(0 0 0)
(0 0 0)
(0 0 0)
(0 0 0)
(0 0 0)
(0 0 0)
(0 0 0)
(0 0 0)
(0 0 0)
(0 0 0)
(0 0 0)
(0 0 0)
(0 0 0)
(0 0 0)
(0 0 0)
(0 0 0)
(0 0 0)
(0 0 0)
(0 0 0)
(0 0 0)
(0 0 0)
(0 0 0)
(0 0 0)
(0 0 0)
(0 0 0)
(0 0 0)
(0 0 0)
(0 0 0)
(0 0 0)
(0 0 0)
(0 0 0)
(0 0 0)
(0 0 0)
(0 0 0)
(0 0 0)
(0 0 0)
(0 0 0)
(0 0 0)
(0 0 0)
(0 0 0)
(0 0 0)
(0 0 0)
(0 0 0)
(0 0 0)
(0 0 0)
(0 0 0)
(0 0 0)
(0 0 0)
(0 0 0)
(0 0 0)
(0 0 0)
(0 0 0)
(-0.00314711108993 6.58598984734e-05 0)
(0 0 0)
(0 0 0)
(0 0 0)
(0 0 0)
(-2.25115589757e-05 3.10606348879e-07 0)
(0 0 0)
(-2.16656160898e-06 3.09113379338e-08 0)
(0 0 0)
(0 0 0)
(0 0 0)
(0 0 0)
(0 0 0)
(0 0 0)
(0 0 0)
(0 0 0)
(0 0 0)
(0 0 0)
(0 0 0)
(0 0 0)
(-0.0156849973536 0.000495323200157 0)
(0 0 0)
(0 0 0)
(0 0 0)
(-0.0266934104339 0.000646041892892 0)
(0 0 0)
(0 0 0)
(-0.050758441671 -0.00305899946842 0.00246351686396)
(-0.631509176421 -0.0938811392002 0.0614576744142)
(-0.119241280539 -0.00665311216021 0.0052815118943)
(-2.22515249661 -0.282361659393 0.187789596906)
(-0.00521047172178 6.96828231176e-05 0)
(-0.070080117442 0.00169609993591 0)
(0 0 0)
(0 0 0)
(0 0 0)
(0 0 0)
(0 0 0)
(-0.0156850321511 0.000495324299043 0)
(0 0 0)
(0 0 0)
(0 0 0)
(-0.0258404555042 0.000625398422896 0)
(0 0 0)
(0 0 0)
(0 0 0)
(0 0 0)
(0 0 0)
(0 0 0)
(0 0 0)
(0 0 0)
(-1.50874562385e-05 2.0538509738e-07 0)
(0 0 0)
(-8.61385153149e-06 1.17260107181e-07 0)
(-0.000153386314159 2.74704383436e-06 0)
(-0.000836234918952 1.49763946723e-05 0)
(-9.48266883479e-05 1.69828104278e-06 0)
(-0.000529865492597 9.48952807462e-06 0)
(0 0 0)
(0 0 0)
(-0.00031166849165 4.2004340876e-06 0)
(0 0 0)
(0 0 0)
(0 0 0)
(0 0 0)
(0 0 0)
(0 0 0)
(-0.0148405667345 0.000310569976874 0)
(-0.000665344223639 1.19673579394e-05 0)
(-0.00331662520395 6.94073367493e-05 0)
(-3.30405957617e-05 5.44458868396e-07 0)
(-0.000198018647135 3.54637834987e-06 0)
(-3.73484092329e-06 5.32867052708e-08 0)
(-3.82480528642e-05 6.30269857449e-07 0)
(0 0 0)
(0 0 0)
(0 0 0)
(0 0 0)
(0 0 0)
(-0.000347151353594 4.67864547831e-06 0)
(0 0 0)
(0 0 0)
(0 0 0)
(0 0 0)
(0 0 0)
(0 0 0)
(0 0 0)
(0 0 0)
(0 0 0)
(0 0 0)
(0 0 0)
(0 0 0)
(0 0 0)
(0 0 0)
(0 0 0)
(0 0 0)
(0 0 0)
(0 0 0)
(0 0 0)
(0 0 0)
(-0.00485961375766 6.46591646826e-05 0)
(0 0 0)
(0 0 0)
(0 0 0)
(0 0 0)
(0 0 0)
(-0.00415664737703 5.5589386029e-05 0)
(0 0 0)
(0 0 0)
(0 0 0)
(0 0 0)
(0 0 0)
(0 0 0)
(0 0 0)
(0 0 0)
(0 0 0)
(0 0 0)
(0 0 0)
(0 0 0)
(0 0 0)
(0 0 0)
(0 0 0)
(0 0 0)
(0 0 0)
(0 0 0)
(0 0 0)
(0 0 0)
(0 0 0)
(0 0 0)
(-0.0559427816429 -0.00268301197091 0.00227607082689)
(-0.0078568295231 0.000152958470676 0)
(-0.0128524246122 0.000250213805376 0)
(-0.00982917724572 0.000202570429115 0)
(-0.0186336400625 0.000501061761026 0)
(0 0 0)
(0 0 0)
(0 0 0)
(0 0 0)
(0 0 0)
(0 0 0)
(0 0 0)
(0 0 0)
(0 0 0)
(0 0 0)
(-0.00463074335028 6.19297612597e-05 0)
(0 0 0)
(-0.00765241788308 0.000157709392718 0)
(0 0 0)
(0 0 0)
(-0.66638290258 -0.100275230947 0.0651637442558)
(-0.57042384021 -0.0887010113684 0.0574201993183)
(-0.503718234686 -0.0580128243555 0.0391288958003)
(-0.0384066215068 0.000929528526122 0)
(-2.47778313779 -0.433829238632 0.276751711606)
(-0.142977912959 -0.0155861441085 0.0106580688551)
(-0.148190071297 -0.00787925698879 0.00634651268427)
(-1.79294289689 -0.28869363728 0.186003419463)
(-11.0568841642 -1.96745502328 1.25280931867)
(-1.30633550433 -0.171693099061 0.113508715369)
(-0.735002313799 -0.0616363447779 0.0442294637345)
(-6.63299341367 -1.19274014845 0.758394492135)
(-0.410245056021 -0.0352500710135 0.0251250111581)
(-3.02874680389 -0.477977512364 0.308903959374)
(-0.111841016337 -0.00779072569732 0.00589325112135)
(-0.00867106087587 0.000178702701009 0)
(-0.0181087253552 0.000438272780291 0)
(-0.0179765186962 0.000435073075238 0)
(-0.0239239318387 0.00064331860965 0)
(-0.0239224170207 0.000643277875938 0)
(-0.043161297717 0.00104460262003 0)
(-0.331189377472 -0.0349454223245 0.0240799334907)
(-0.097603524853 0.00260553855923 0)
(-0.197415988069 -0.000453981657612 0.00287564340219)
(-0.037783595115 0.000914449855284 0)
(-0.050640983246 0.00136174468113 0)
(-0.0952285447928 0.00150122785269 0.0004351641112)
(-0.598232414172 -0.0623427809037 0.0431355180299)
(0 0 0)
(0 0 0)
(0 0 0)
(0 0 0)
(0 0 0)
(0 0 0)
(0 0 0)
(0 0 0)
(0 0 0)
(0 0 0)
(0 0 0)
(0 0 0)
(0 0 0)
(0 0 0)
(0 0 0)
(0 0 0)
(0 0 0)
(0 0 0)
(0 0 0)
(0 0 0)
(0 0 0)
(0 0 0)
(0 0 0)
(-0.00457693971379 6.12102123426e-05 0)
(0 0 0)
(-0.00765332945898 0.000157728179471 0)
(0 0 0)
(0 0 0)
(0 0 0)
(-0.0348109294392 0.000936071832945 0)
(-0.0125860096867 0.000245027181504 0)
(-0.00759978848523 0.000147954339692 0)
(-0.0186339592182 0.000501070343177 0)
(0 0 0)
(-0.00982809208444 0.000202548064925 0)
(0 0 0)
(0 0 0)
(0 0 0)
(0 0 0)
(0 0 0)
(0 0 0)
(0 0 0)
(0 0 0)
(0 0 0)
(0 0 0)
(0 0 0)
(0 0 0)
(0 0 0)
(0 0 0)
(0 0 0)
(0 0 0)
(0 0 0)
(0 0 0)
(0 0 0)
(0 0 0)
(0 0 0)
(0 0 0)
(0 0 0)
(0 0 0)
(0 0 0)
(0 0 0)
(0 0 0)
(0 0 0)
(0 0 0)
(0 0 0)
(0 0 0)
(0 0 0)
(0 0 0)
(0 0 0)
(0 0 0)
(0 0 0)
(-0.0150250344361 0.000308658967097 0)
(0 0 0)
(0 0 0)
(0 0 0)
(0 0 0)
(0 0 0)
(0 0 0)
(0 0 0)
(-0.00335297364501 6.88800672222e-05 0)
(0 0 0)
(0 0 0)
(0 0 0)
(0 0 0)
(0 0 0)
(0 0 0)
(0 0 0)
(0 0 0)
(0 0 0)
(0 0 0)
(0 0 0)
(0 0 0)
(0 0 0)
(0 0 0)
(0 0 0)
(0 0 0)
(0 0 0)
(0 0 0)
(0 0 0)
(0 0 0)
(0 0 0)
(0 0 0)
(0 0 0)
(0 0 0)
(0 0 0)
(0 0 0)
(0 0 0)
(-0.321993185091 0.0090289690349 0)
(-0.00771518979152 0.000158492981972 0)
(0 0 0)
(0 0 0)
(0 0 0)
(0 0 0)
(0 0 0)
(0 0 0)
(-0.0706849047061 0.00199991757837 0)
(0 0 0)
(0 0 0)
(0 0 0)
(0 0 0)
(0 0 0)
(0 0 0)
(0 0 0)
(0 0 0)
(0 0 0)
(0 0 0)
(0 0 0)
(0 0 0)
(0 0 0)
(0 0 0)
(0 0 0)
(0 0 0)
(0 0 0)
(0 0 0)
(0 0 0)
(0 0 0)
(0 0 0)
(0 0 0)
(0 0 0)
(0 0 0)
(0 0 0)
(0 0 0)
(0 0 0)
(-1.51133518169 0.0544127633634 0)
(-0.0433645021325 0.00157684119008 0)
(0 0 0)
(0 0 0)
(0 0 0)
(0 0 0)
(0 0 0)
(0 0 0)
(-0.33148556945 0.0118078966728 0)
(-0.00656848203024 0.00026057984648 0)
(0 0 0)
(0 0 0)
(0 0 0)
(0 0 0)
(0 0 0)
(0 0 0)
(0 0 0)
(0 0 0)
(0 0 0)
(0 0 0)
(0 0 0)
(0 0 0)
(0 0 0)
(0 0 0)
(0 0 0)
(0 0 0)
(0 0 0)
(0 0 0)
(0 0 0)
(0 0 0)
(0 0 0)
(0 0 0)
(0 0 0)
(0 0 0)
(0 0 0)
(0 0 0)
(0 0 0)
(0 0 0)
(0 0 0)
(0 0 0)
(0 0 0)
(0 0 0)
(0 0 0)
(-2.51061217316 0.077263558026 0)
(-0.075826002467 0.00233352917034 0)
(0 0 0)
(0 0 0)
(0 0 0)
(0 0 0)
(0 0 0)
(0 0 0)
(-2.51087507816 0.0772716488717 0)
(-0.560256376284 0.0172417713501 0)
(-0.0156849086816 0.000495320399946 0)
(0 0 0)
(0 0 0)
(0 0 0)
(0 0 0)
(0 0 0)
(0 0 0)
(-0.0459892544172 0.00141530956682 0)
(-0.0758232015924 0.00233344297402 0)
(-0.0156847783574 0.000495316284384 0)
(0 0 0)
(0 0 0)
(0 0 0)
(0 0 0)
(0 0 0)
(0 0 0)
(0 0 0)
(0 0 0)
(0 0 0)
(0 0 0)
(0 0 0)
(0 0 0)
(0 0 0)
(0 0 0)
(0 0 0)
(0 0 0)
(0 0 0)
(0 0 0)
(0 0 0)
(0 0 0)
(0 0 0)
(0 0 0)
(0 0 0)
(0 0 0)
(0 0 0)
(0 0 0)
(-0.0759849620305 0.00158996721346 0)
(-0.0023862563192 4.99374170224e-05 0)
(0 0 0)
(0 0 0)
(0 0 0)
(0 0 0)
(0 0 0)
(0 0 0)
(-0.0421701918999 0.000882401210906 0)
(-0.0751698158884 0.00157291047479 0)
(-0.0172942977396 0.000361919443181 0)
(-0.000430773279888 5.80563905991e-06 0)
(0 0 0)
(0 0 0)
(0 0 0)
(0 0 0)
(0 0 0)
(0 0 0)
(-0.00118677287617 2.13461472984e-05 0)
(-0.00228054020004 4.77250855618e-05 0)
(-0.0004155982837 5.60112184699e-06 0)
(0 0 0)
(0 0 0)
(0 0 0)
(0 0 0)
(0 0 0)
(0 0 0)
(0 0 0)
(0 0 0)
(0 0 0)
(0 0 0)
(0 0 0)
(0 0 0)
(0 0 0)
(0 0 0)
(0 0 0)
(0 0 0)
(0 0 0)
(0 0 0)
(0 0 0)
(0 0 0)
(0 0 0)
(0 0 0)
(0 0 0)
(0 0 0)
(0 0 0)
(0 0 0)
(-0.000172512659059 2.60831053472e-06 0)
(-0.000177860820909 2.68917223478e-06 0)
(-2.36018954014e-05 3.25650416534e-07 0)
(0 0 0)
(0 0 0)
(0 0 0)
(0 0 0)
(0 0 0)
(0 0 0)
(0 0 0)
(-2.33796475164e-05 3.22583920598e-07 0)
(-2.36639065156e-05 3.2650602346e-07 0)
(-2.28931497379e-06 3.26627170436e-08 0)
(0 0 0)
(0 0 0)
(0 0 0)
(0 0 0)
(0 0 0)
(0 0 0)
(0 0 0)
(0 0 0)
(0 0 0)
(0 0 0)
(0 0 0)
(0 0 0)
(0 0 0)
(0 0 0)
(0 0 0)
(0 0 0)
(0 0 0)
(0 0 0)
(0 0 0)
(0 0 0)
(0 0 0)
(0 0 0)
(0 0 0)
(0 0 0)
(0 0 0)
(0 0 0)
(0 0 0)
(0 0 0)
(0 0 0)
(0 0 0)
(0 0 0)
(0 0 0)
(0 0 0)
(0 0 0)
(0 0 0)
(0 0 0)
(-0.00335287181548 6.88779753402e-05 0)
(-0.00911421566355 0.000187233141101 0)
(-0.00203367891317 4.17778232333e-05 0)
(-0.0866257573238 0.00212099395014 0)
(-0.0177517503258 0.000364673834395 0)
(-0.0525442804828 0.00128652382919 0)
(-0.0107665625392 0.000221177268291 0)
(0 0 0)
(0 0 0)
(0 0 0)
(-0.00240252921922 4.93551073297e-05 0)
(0 0 0)
(0 0 0)
(0 0 0)
(0 0 0)
(0 0 0)
(0 0 0)
(-0.0177518517853 0.000364675918675 0)
(-0.00396101997554 8.13711502294e-05 0)
(-0.00396107142092 8.13722070708e-05 0)
(0 0 0)
(0 0 0)
(0 0 0)
(0 0 0)
(0 0 0)
(0 0 0)
(0 0 0)
(0 0 0)
(-0.0706968914926 0.00200025672554 0)
(-0.195277981448 0.00547576448611 0)
(-0.0428784970838 0.0012131792553 0)
(-0.802089801605 0.0259173293452 0)
(-0.177218521408 0.00575842189368 0)
(-0.486458876206 0.0157185827351 0)
(-0.107484606132 0.00349253398725 0)
(0 0 0)
(-0.00467945455971 9.61299368145e-05 0)
(0 0 0)
(-0.0228276853709 0.000764753279174 0)
(0 0 0)
(-0.0121945276727 0.000398940298132 0)
(0 0 0)
(-0.0149254358258 0.000412954275269 0)
(-0.0149266509403 0.000412987894839 0)
(-0.00283816001125 5.83042615479e-05 0)
(-0.177173720766 0.00575696617116 0)
(-0.0376330273044 0.00126074897952 0)
(-0.0376314890999 0.00126069744793 0)
(-0.00739601375567 0.000241958361313 0)
(0 0 0)
(0 0 0)
(0 0 0)
(-0.00335295017167 6.88795850098e-05 0)
(0 0 0)
(0 0 0)
(0 0 0)
(-0.331541173834 0.0118098773648 0)
(-0.901054462999 0.0320965947727 0)
(-0.201090517058 0.0071630751566 0)
(-2.20640924718 0.0780020077336 0)
(-0.486642382559 0.0170736423038 0)
(-1.32261446585 0.0464033695072 0)
(-0.295163373015 0.0103556821861 0)
(0 0 0)
(-0.0263018295515 0.00095639996245 0)
(0 0 0)
(-0.0658623777673 0.00231075368604 0)
(0 0 0)
(-0.0399479941261 0.00140155848917 0)
(0 0 0)
(-0.0739767306912 0.00263513610454 0)
(-0.0739713895421 0.00263494584667 0)
(-0.0140452665381 0.000556029606777 0)
(-0.486602955127 0.0170722590091 0)
(-0.108584208934 0.00380963107538 0)
(-0.108581157059 0.00380952400163 0)
(-0.0242282476416 0.000850037827998 0)
(0 0 0)
(0 0 0)
(0 0 0)
(-0.0134211244091 0.000497403473237 0)
(0 0 0)
(0 0 0)
(0 0 0)
(-7.01209325411 0.220979200081 0)
(-4.1647142559 0.128869888951 0)
(-3.7711219171 0.0910428161367 0)
(-1.7669169201 0.0426570913967 0)
(-0.560271449663 0.0172422352302 0)
(-1.52284512855 0.0468652363802 0)
(-0.339822726349 0.0104579724485 0)
(-2.28466236415 0.0551565555625 0)
(-0.23945480114 0.00578094262464 0)
(-1.07219362351 0.0258850095739 0)
(-0.112762530619 0.00272232470017 0)
(0 0 0)
(-0.0459905982346 0.00141535092251 0)
(0 0 0)
(-0.0866177358973 0.00209634831771 0)
(0 0 0)
(-0.0407232118602 0.000985595337842 0)
(0 0 0)
(0 0 0)
(0 0 0)
(0 0 0)
(0 0 0)
(0 0 0)
(0 0 0)
(0 0 0)
(0 0 0)
(0 0 0)
(0 0 0)
(0 0 0)
(0 0 0)
(0 0 0)
(0 0 0)
(0 0 0)
(0 0 0)
(0 0 0)
(0 0 0)
(0 0 0)
(0 0 0)
(0 0 0)
(0 0 0)
(0 0 0)
(0 0 0)
(0 0 0)
(0 0 0)
(0 0 0)
(0 0 0)
(0 0 0)
(0 0 0)
(0 0 0)
(0 0 0)
(0 0 0)
(0 0 0)
(0 0 0)
(0 0 0)
(0 0 0)
(0 0 0)
(0 0 0)
(0 0 0)
(0 0 0)
(0 0 0)
(-0.846307373264 -0.0872704430837 0.061457497014)
(-0.583115900694 0.0133242237391 0.0024634981367)
(-2.63587615913 -0.269151679956 0.185948897169)
(-2.32442437755 0.0471614025096 0.00495967784273)
(-0.116703445628 0.00281746667873 0)
(-0.242815678741 0.00586208127998 0)
(-1.52292189388 0.0468675988169 0)
(-0.560250902037 0.0172416028813 0)
(-0.339810395196 0.0104575929599 0)
(-2.27758823453 0.0549857711922 0)
(-1.07129893833 0.0258634099914 0)
(-0.241900708418 0.00583999197161 0)
(-0.113269196113 0.00273455667103 0)
(-0.12501046141 0.00384717047987 0)
(-0.125008698436 0.00384711622473 0)
(-0.0278930064751 0.000858401368139 0)
(-0.649774830374 0.0156869312932 0)
(-0.0670335834796 0.00162236681093 0)
(-0.067385976926 0.00163089554238 0)
(-0.00488277036804 6.5300272614e-05 0)
(0 0 0)
(0 0 0)
(0 0 0)
(-0.0246149748647 0.000595738974397 0)
(0 0 0)
(0 0 0)
(0 0 0)
(0 0 0)
(0 0 0)
(0 0 0)
(0 0 0)
(0 0 0)
(0 0 0)
(0 0 0)
(0 0 0)
(0 0 0)
(0 0 0)
(0 0 0)
(0 0 0)
(0 0 0)
(0 0 0)
(0 0 0)
(0 0 0)
(0 0 0)
(0 0 0)
(0 0 0)
(0 0 0)
(0 0 0)
(0 0 0)
(0 0 0)
(0 0 0)
(0 0 0)
(0 0 0)
(0 0 0)
(0 0 0)
(0 0 0)
(0 0 0)
(0 0 0)
(0 0 0)
(0 0 0)
(0 0 0)
(0 0 0)
(0 0 0)
(0 0 0)
(0 0 0)
(0 0 0)
(0 0 0)
(0 0 0)
(0 0 0)
(-0.0758232534063 0.00233344456858 0)
(0 0 0)
(0 0 0)
(-0.042332126897 0.00102453478016 0)
(-0.088086554843 0.00213189711258 0)
(0 0 0)
(0 0 0)
(-0.0459888416683 0.00141529686455 0)
(0 0 0)
(0 0 0)
(-0.0877224300994 0.00212308445677 0)
(-0.0410795807379 0.000994220283872 0)
(0 0 0)
(0 0 0)
(0 0 0)
(0 0 0)
(0 0 0)
(-0.0248522650634 0.000601481942668 0)
(0 0 0)
(0 0 0)
(0 0 0)
(0 0 0)
(0 0 0)
(0 0 0)
(0 0 0)
(0 0 0)
(0 0 0)
(0 0 0)
(0 0 0)
(0 0 0)
(0 0 0)
(0 0 0)
(0 0 0)
(0 0 0)
(0 0 0)
(0 0 0)
(0 0 0)
(0 0 0)
(0 0 0)
(0 0 0)
(0 0 0)
(0 0 0)
(0 0 0)
(0 0 0)
(0 0 0)
(0 0 0)
(0 0 0)
(0 0 0)
(0 0 0)
(0 0 0)
(0 0 0)
(0 0 0)
(0 0 0)
(0 0 0)
(0 0 0)
(0 0 0)
(0 0 0)
(0 0 0)
(0 0 0)
(0 0 0)
(0 0 0)
(0 0 0)
(0 0 0)
(0 0 0)
(0 0 0)
(0 0 0)
(0 0 0)
(0 0 0)
(0 0 0)
(0 0 0)
(0 0 0)
(0 0 0)
(0 0 0)
(0 0 0)
(0 0 0)
(0 0 0)
(0 0 0)
(0 0 0)
(0 0 0)
(0 0 0)
(0 0 0)
(0 0 0)
(0 0 0)
(0 0 0)
(0 0 0)
(0 0 0)
(0 0 0)
(0 0 0)
(0 0 0)
(0 0 0)
(0 0 0)
(0 0 0)
(0 0 0)
(0 0 0)
(0 0 0)
(0 0 0)
(0 0 0)
(0 0 0)
(0 0 0)
(0 0 0)
(0 0 0)
(0 0 0)
(0 0 0)
(0 0 0)
(0 0 0)
(0 0 0)
(0 0 0)
(0 0 0)
(0 0 0)
(0 0 0)
(0 0 0)
(0 0 0)
(0 0 0)
(0 0 0)
(0 0 0)
(0 0 0)
(0 0 0)
(0 0 0)
(0 0 0)
(0 0 0)
(0 0 0)
(0 0 0)
(0 0 0)
(0 0 0)
(0 0 0)
(0 0 0)
(0 0 0)
(0 0 0)
(0 0 0)
(0 0 0)
(0 0 0)
(0 0 0)
(0 0 0)
(0 0 0)
(0 0 0)
(0 0 0)
(0 0 0)
(0 0 0)
(0 0 0)
(0 0 0)
(0 0 0)
(0 0 0)
(0 0 0)
(0 0 0)
(0 0 0)
(0 0 0)
(0 0 0)
(0 0 0)
(0 0 0)
(0 0 0)
(0 0 0)
(0 0 0)
(0 0 0)
(0 0 0)
(0 0 0)
(0 0 0)
(0 0 0)
(0 0 0)
(0 0 0)
(0 0 0)
(0 0 0)
(0 0 0)
(0 0 0)
(0 0 0)
(0 0 0)
(0 0 0)
(0 0 0)
(0 0 0)
(0 0 0)
(0 0 0)
(0 0 0)
(0 0 0)
(0 0 0)
(0 0 0)
(0 0 0)
(0 0 0)
(0 0 0)
(0 0 0)
(0 0 0)
(0 0 0)
(0 0 0)
(0 0 0)
(0 0 0)
(0 0 0)
(0 0 0)
(0 0 0)
(0 0 0)
(0 0 0)
(0 0 0)
(0 0 0)
(0 0 0)
(-0.00198305082073 3.55228213493e-05 0)
(-0.00310830001448 5.56796552866e-05 0)
(-0.00132181501769 2.36728016733e-05 0)
(-0.00211858790764 3.7950726713e-05 0)
(-0.2025478241 0.00423826492599 0)
(-0.126174693073 0.00264017536883 0)
(-0.00344402754358 6.16936156519e-05 0)
(-0.00202238663346 3.62274523317e-05 0)
(-0.0026610368049 4.76677319795e-05 0)
(-0.00159930263438 2.86424148407e-05 0)
(-0.017248761682 0.000360966505695 0)
(-0.0466544779336 0.000976233826976 0)
(-0.0105216457517 0.000220187499321 0)
(-0.000829453973954 1.48549525916e-05 0)
(-0.000205414165359 3.67882701616e-06 0)
(-0.000689793342317 1.23537263306e-05 0)
(-0.00017042361123 3.05217015628e-06 0)
(0 0 0)
(-0.00138774840944 2.49610372431e-05 0)
(0 0 0)
(-2.99180138158e-05 4.07273040851e-07 0)
(0 0 0)
(-1.96017555941e-05 2.6683812154e-07 0)
(0 0 0)
(0 0 0)
(0 0 0)
(0 0 0)
(0 0 0)
(0 0 0)
(0 0 0)
(0 0 0)
(0 0 0)
(0 0 0)
(0 0 0)
(0 0 0)
(0 0 0)
(0 0 0)
(0 0 0)
(0 0 0)
(0 0 0)
(0 0 0)
(0 0 0)
(0 0 0)
(0 0 0)
(0 0 0)
(0 0 0)
(0 0 0)
(0 0 0)
(0 0 0)
(0 0 0)
(0 0 0)
(0 0 0)
(0 0 0)
(0 0 0)
(0 0 0)
(0 0 0)
(0 0 0)
(0 0 0)
(0 0 0)
(0 0 0)
(0 0 0)
(0 0 0)
(0 0 0)
(0 0 0)
(0 0 0)
(0 0 0)
(-0.0721946192066 0.0015106551936 0)
(-0.00934269299682 0.000195515440878 0)
(-0.0161617560281 0.000338218633135 0)
(-0.000659195166263 1.18057339538e-05 0)
(-0.00113211781157 2.02754546328e-05 0)
(-0.000142578242958 2.55347868144e-06 0)
(-0.000230267815444 4.12393886725e-06 0)
(-0.0467947013741 0.000979167969036 0)
(-0.0168855151189 0.000353364809702 0)
(-0.010518860253 0.000220129206921 0)
(-0.00115960890418 2.07678012733e-05 0)
(-0.000689013798183 1.23397652291e-05 0)
(-0.000210284226296 3.7660464721e-06 0)
(-0.000130899239567 2.3443157295e-06 0)
(-0.00392282177948 8.20932711756e-05 0)
(-0.00393883912776 8.24284677738e-05 0)
(-0.000839891713928 1.51068941667e-05 0)
(-0.000267129740494 4.78411069866e-06 0)
(-6.01931604882e-05 9.91891922317e-07 0)
(-4.87678444713e-05 8.03620055959e-07 0)
(-5.94532942038e-06 8.48247684623e-08 0)
(0 0 0)
(0 0 0)
(0 0 0)
(0 0 0)
(0 0 0)
(0 0 0)
(0 0 0)
(0 0 0)
(0 0 0)
(0 0 0)
(0 0 0)
(0 0 0)
(0 0 0)
(0 0 0)
(0 0 0)
(0 0 0)
(0 0 0)
(0 0 0)
(0 0 0)
(0 0 0)
(0 0 0)
(0 0 0)
(0 0 0)
(0 0 0)
(0 0 0)
(0 0 0)
(0 0 0)
(0 0 0)
(0 0 0)
(0 0 0)
(0 0 0)
(0 0 0)
(0 0 0)
(0 0 0)
(0 0 0)
(0 0 0)
(0 0 0)
(0 0 0)
(0 0 0)
(0 0 0)
(0 0 0)
(0 0 0)
(0 0 0)
(0 0 0)
(0 0 0)
(0 0 0)
(0 0 0)
(0 0 0)
(0 0 0)
(-0.00218141839195 4.56507538871e-05 0)
(0 0 0)
(0 0 0)
(-1.47226698409e-05 2.00419270894e-07 0)
(-2.40359183114e-05 3.27200248005e-07 0)
(0 0 0)
(0 0 0)
(-0.00133956882286 2.40944446771e-05 0)
(0 0 0)
(0 0 0)
(-1.95874214995e-05 2.66642991933e-07 0)
(-1.23293199661e-05 1.67838669543e-07 0)
(0 0 0)
(0 0 0)
(0 0 0)
(0 0 0)
(0 0 0)
(0 0 0)
(0 0 0)
(0 0 0)
(0 0 0)
(0 0 0)
(0 0 0)
(0 0 0)
(0 0 0)
(0 0 0)
(0 0 0)
(0 0 0)
(0 0 0)
(0 0 0)
(0 0 0)
(0 0 0)
(0 0 0)
(0 0 0)
(0 0 0)
(0 0 0)
(0 0 0)
(0 0 0)
(0 0 0)
(0 0 0)
(0 0 0)
(0 0 0)
(0 0 0)
(0 0 0)
(0 0 0)
(0 0 0)
(0 0 0)
(0 0 0)
(0 0 0)
(0 0 0)
(0 0 0)
(0 0 0)
(0 0 0)
(0 0 0)
(0 0 0)
(0 0 0)
(0 0 0)
(0 0 0)
(0 0 0)
(0 0 0)
(0 0 0)
(0 0 0)
(0 0 0)
(0 0 0)
(0 0 0)
(0 0 0)
(0 0 0)
(0 0 0)
(0 0 0)
(0 0 0)
(0 0 0)
(0 0 0)
(0 0 0)
(0 0 0)
(0 0 0)
(0 0 0)
(0 0 0)
(0 0 0)
(0 0 0)
(0 0 0)
(0 0 0)
(0 0 0)
(0 0 0)
(0 0 0)
(0 0 0)
(0 0 0)
(0 0 0)
(0 0 0)
(0 0 0)
(0 0 0)
(0 0 0)
(0 0 0)
(0 0 0)
(0 0 0)
(0 0 0)
(0 0 0)
(0 0 0)
(0 0 0)
(0 0 0)
(0 0 0)
(0 0 0)
(0 0 0)
(0 0 0)
(0 0 0)
(0 0 0)
(0 0 0)
(0 0 0)
(0 0 0)
(0 0 0)
(0 0 0)
(0 0 0)
(0 0 0)
(0 0 0)
(0 0 0)
(0 0 0)
(0 0 0)
(0 0 0)
(0 0 0)
(0 0 0)
(0 0 0)
(0 0 0)
(0 0 0)
(0 0 0)
(0 0 0)
(0 0 0)
(0 0 0)
(0 0 0)
(0 0 0)
(0 0 0)
(0 0 0)
(0 0 0)
(0 0 0)
(0 0 0)
(0 0 0)
(0 0 0)
(0 0 0)
(0 0 0)
(0 0 0)
(0 0 0)
(0 0 0)
(0 0 0)
(0 0 0)
(0 0 0)
(0 0 0)
(0 0 0)
(0 0 0)
(0 0 0)
(0 0 0)
(0 0 0)
(0 0 0)
(0 0 0)
(0 0 0)
(0 0 0)
(0 0 0)
(0 0 0)
(0 0 0)
(0 0 0)
(0 0 0)
(0 0 0)
(0 0 0)
(0 0 0)
(0 0 0)
(0 0 0)
(0 0 0)
(0 0 0)
(0 0 0)
(0 0 0)
(0 0 0)
(0 0 0)
(0 0 0)
(0 0 0)
(0 0 0)
(0 0 0)
(0 0 0)
(0 0 0)
(0 0 0)
(0 0 0)
(0 0 0)
(0 0 0)
(0 0 0)
(0 0 0)
(0 0 0)
(0 0 0)
(0 0 0)
(0 0 0)
(0 0 0)
(0 0 0)
(0 0 0)
(0 0 0)
(0 0 0)
(0 0 0)
(0 0 0)
(0 0 0)
(0 0 0)
(0 0 0)
(0 0 0)
(-6.86179712868 0.183696448717 0)
(-5.33122741845 0.142317796696 0)
(-5.49216781056 0.132592484455 0)
(-3.31260375107 0.0799732230547 0)
(-4.703435586 0.125558813564 0)
(-4.82029757583 0.116372123619 0)
(-7.78594555611 0.208704195526 0)
(-5.32915073014 0.142262359236 0)
(-2.51657549438 0.0671803041713 0)
(-2.57475357915 0.0621599677383 0)
(-2.57103805167 0.0620702670887 0)
(-3.66214250446 0.0977613617862 0)
(-3.66189420405 0.0977547333751 0)
(-3.74462534311 0.0904031331016 0)
(-1.52636370971 0.0407464741364 0)
(-3.23280529219 0.0863001500814 0)
(-1.22071758334 0.029470690404 0)
(-2.0087562325 0.0484956011392 0)
(-2.85216616311 0.0761389399258 0)
(-1.07452116354 0.0259412012864 0)
(-1.729971717 0.0461818158904 0)
(-0.720831876207 0.0192426989805 0)
(-0.340495456981 0.00908956970298 0)
(-0.575729312708 0.0138993167322 0)
(-0.211032295227 0.00509476354135 0)
(-0.300445469567 0.00802043017486 0)
(-0.507050345988 0.0122412620002 0)
(-0.816944697801 0.0218084430259 0)
(-1.18881167979 0.0317354795948 0)
(-1.52636828877 0.0407465963752 0)
(-1.56307865983 0.0377360069927 0)
(-0.573931851403 0.0138559222351 0)
(-2.22109505589 0.0592924161352 0)
(-0.816999845244 0.0218099151939 0)
(-0.836505752376 0.0201950085638 0)
(-0.561507003134 0.0149895011491 0)
(-0.160853709122 0.00429401030488 0)
(-0.164148723024 0.00396289548253 0)
(-0.270982370693 0.00654208447609 0)
(-0.234046646267 0.00624790510821 0)
(-0.385908635807 0.0103018803107 0)
(-0.394724112993 0.00952947044248 0)
(-0.0347830255337 0.000935321492165 0)
(-0.125262472188 0.00334389769019 0)
(-0.0281451698413 0.000681177807724 0)
(-0.076283124778 0.00184622697236 0)
(-0.110529409212 0.00295059669274 0)
(-0.0247796549092 0.000599724610026 0)
(-0.0394194424073 0.00105999553308 0)
(-0.00866520618616 0.000178582041163 0)
(0 0 0)
(-0.00730533608186 0.000142221876085 0)
(0 0 0)
(0 0 0)
(-0.00491987626333 6.57965124319e-05 0)
(-0.00982002085777 0.000202381724263 0)
(-0.0270922036764 0.000728513980017 0)
(-0.0591659869242 0.00157944357602 0)
(-0.0593006359425 0.00143521170473 0)
(-0.0119516898574 0.000232678104726 0)
(-0.0860947077329 0.00229830921662 0)
(-0.0186170989055 0.000500616966491 0)
(-0.0192634370208 0.000466219456946 0)
(-0.0048533757662 6.45761656343e-05 0)
(0 0 0)
(0 0 0)
(0 0 0)
(0 0 0)
(0 0 0)
(-0.00382451777401 5.11476138413e-05 0)
(0 0 0)
(0 0 0)
(0 0 0)
(0 0 0)
(0 0 0)
(0 0 0)
(0 0 0)
(0 0 0)
(0 0 0)
(0 0 0)
(0 0 0)
(0 0 0)
(0 0 0)
(0 0 0)
(0 0 0)
(0 0 0)
(0 0 0)
(0 0 0)
(0 0 0)
(0 0 0)
(0 0 0)
(0 0 0)
(0 0 0)
(0 0 0)
(0 0 0)
(0 0 0)
(0 0 0)
(0 0 0)
(0 0 0)
(0 0 0)
(0 0 0)
(0 0 0)
(0 0 0)
(0 0 0)
(0 0 0)
(0 0 0)
(0 0 0)
(0 0 0)
(0 0 0)
(0 0 0)
(0 0 0)
(0 0 0)
(0 0 0)
(0 0 0)
(0 0 0)
(0 0 0)
(0 0 0)
(0 0 0)
(0 0 0)
(0 0 0)
(0 0 0)
(0 0 0)
(0 0 0)
(0 0 0)
(0 0 0)
(0 0 0)
(0 0 0)
(0 0 0)
(0 0 0)
(0 0 0)
(0 0 0)
(0 0 0)
(0 0 0)
(0 0 0)
(0 0 0)
(0 0 0)
(0 0 0)
(0 0 0)
(0 0 0)
(0 0 0)
(0 0 0)
(0 0 0)
(0 0 0)
(0 0 0)
(0 0 0)
(0 0 0)
(0 0 0)
(0 0 0)
(0 0 0)
(0 0 0)
(0 0 0)
(0 0 0)
(0 0 0)
(0 0 0)
(0 0 0)
(0 0 0)
(0 0 0)
(0 0 0)
(0 0 0)
(0 0 0)
(0 0 0)
(0 0 0)
(0 0 0)
(0 0 0)
(0 0 0)
(0 0 0)
(0 0 0)
(0 0 0)
(0 0 0)
(0 0 0)
(0 0 0)
(0 0 0)
(0 0 0)
(0 0 0)
(0 0 0)
(0 0 0)
(0 0 0)
(0 0 0)
(0 0 0)
(0 0 0)
(0 0 0)
(0 0 0)
(0 0 0)
(0 0 0)
(0 0 0)
(0 0 0)
(0 0 0)
(0 0 0)
(0 0 0)
(0 0 0)
(0 0 0)
(0 0 0)
(0 0 0)
(0 0 0)
(0 0 0)
(0 0 0)
(0 0 0)
(0 0 0)
(0 0 0)
(0 0 0)
(0 0 0)
(0 0 0)
(0 0 0)
(0 0 0)
(0 0 0)
(0 0 0)
(0 0 0)
(0 0 0)
(0 0 0)
(0 0 0)
(0 0 0)
(0 0 0)
(0 0 0)
(0 0 0)
(0 0 0)
(0 0 0)
(0 0 0)
(0 0 0)
(0 0 0)
(0 0 0)
(0 0 0)
(0 0 0)
(0 0 0)
(0 0 0)
(0 0 0)
(0 0 0)
(0 0 0)
(0 0 0)
(0 0 0)
(0 0 0)
(0 0 0)
(0 0 0)
(0 0 0)
(0 0 0)
(0 0 0)
(0 0 0)
(0 0 0)
(0 0 0)
(-2.71600872609 -0.263949703978 0.185946730756)
(-11.6556403995 -1.9510559073 1.25257939989)
(-2.50050347165 -0.13689185864 0.110173498053)
(-0.960319658807 -0.0555120178042 0.0438479665146)
(-8.35626318658 -1.14621127861 0.758103292655)
(-1.06022803931 -0.018385421087 0.0244724937412)
(-3.34982587539 -0.469323812879 0.308858382109)
(-2.06719241885 -0.0628260764165 0.0651337380292)
(-3.70386868508 -0.00497304745796 0.0573758594224)
(-2.33720398349 -0.0104296768151 0.0372782488523)
(-1.22450256074 0.0295620677207 0)
(-5.0943083187 -0.363680486106 0.276585497661)
(-1.82178233388 0.029231118386 0.0106518960677)
(-1.14049023056 0.0165411528575 0.00608644822158)
(-0.767316817553 -0.0232888567192 0.024072186006)
(-0.16090635622 0.00429541572589 0)
(-0.305597463193 0.00220000624692 0.00285236315843)
(-0.168726824967 0.00407342049409 0)
(-0.234103203858 0.00624941492031 0)
(-0.407457541558 0.00905301873165 0.000424664319217)
(-0.750011594568 -0.0582800197172 0.0431294609849)
(-0.773536044194 0.00987879917293 0.00589024792766)
(-0.340555851527 0.00909118194308 0)
(-0.579921756596 0.014000531147 0)
(-0.215397372968 0.00520014570056 0)
(-0.816850166536 0.0218059195017 0)
(-0.300560254406 0.0080234943708 0)
(-0.514256421985 0.0124152318337 0)
(-1.52595792061 0.0407356415448 0)
(-3.25227513333 0.082640127524 0.00227420417522)
(-2.00561862606 0.0484198527193 0)
(-1.22195888994 0.0295006581567 0)
(-2.85113666256 0.076111457277 0)
(-1.72935128265 0.0461652533163 0)
(-1.07682581055 0.0259968403135 0)
(-1.18830243234 0.0317218851692 0)
(-1.52575541554 0.0407302356461 0)
(-1.55850167962 0.0376255090622 0)
(-0.574430869216 0.0138679695748 0)
(-2.22017919492 0.0592679671095 0)
(-0.816616381833 0.0217996785892 0)
(-0.83685296027 0.0202033908927 0)
(-0.720698689316 0.0192391435394 0)
(-0.340521379835 0.00909026171688 0)
(-0.578137875628 0.0139574645078 0)
(-0.212806131174 0.00513758767262 0)
(-0.816767880626 0.0218037228688 0)
(-0.300467990093 0.00802103136317 0)
(-0.508908005865 0.0122861098175 0)
(-0.561205939941 0.0149814642287 0)
(-0.16076972125 0.00429176823792 0)
(-0.271169486912 0.00654660185524 0)
(-0.165263698419 0.00398981333406 0)
(-0.385640306756 0.0102947172324 0)
(-0.233968988103 0.00624583201359 0)
(-0.395301848394 0.00954341819041 0)
(-0.26505600377 0.00707570386643 0)
(-0.925378332961 0.0247030927627 0)
(-0.347560843558 0.00839084990408 0)
(-0.34780193459 0.00839667034877 0)
(-0.495285603778 0.0132217124373 0)
(-0.495257410352 0.0132209598102 0)
(-0.185801837304 0.00448564721147 0)
(-0.12518086885 0.00334171927866 0)
(-0.0974943794797 0.00260262490955 0)
(-0.163934059424 0.00395771305166 0)
(-0.0358264558324 0.000867082585753 0)
(-0.233923597556 0.00624462030713 0)
(-0.0505680248377 0.00135978281709 0)
(-0.0861618263643 0.00208531425901 0)
(-0.125139202308 0.00334060698501 0)
(-0.097486578983 0.0026024166743 0)
(-0.164159913363 0.00396316564085 0)
(-0.0359722406908 0.000870610914443 0)
(-0.233855684319 0.00624280735462 0)
(-0.0505603348318 0.00135957603151 0)
(-0.0862333805463 0.0020870460347 0)
(-0.0590925874289 0.00157748416712 0)
(-0.00865005992394 0.000178269890435 0)
(-0.0169113976584 0.00040929469772 0)
(-0.0169641925468 0.000410572455379 0)
(-0.0238687811679 0.000641835598701 0)
(-0.0238741261939 0.000641979327363 0)
(-0.040662736844 0.000984131703436 0)
(0 0 0)
(-0.0347561345574 0.000934598389223 0)
(-0.00722609084856 0.000140679112601 0)
(-0.0119034598846 0.000231739153096 0)
(-0.00980976212465 0.000202170301077 0)
(-0.0185986787867 0.000500121646354 0)
(0 0 0)
(0 0 0)
(0 0 0)
(0 0 0)
(0 0 0)
(0 0 0)
(0 0 0)
(0 0 0)
(0 0 0)
(0 0 0)
(-0.00430142745298 5.75256184783e-05 0)
(0 0 0)
(-0.00763214071658 0.000157291498706 0)
(0 0 0)
(0 0 0)
(0 0 0)
(0 0 0)
(0 0 0)
(0 0 0)
(0 0 0)
(0 0 0)
(0 0 0)
(0 0 0)
(0 0 0)
(0 0 0)
(0 0 0)
(0 0 0)
(0 0 0)
(0 0 0)
(0 0 0)
(0 0 0)
(0 0 0)
(0 0 0)
(0 0 0)
(0 0 0)
(0 0 0)
(0 0 0)
(0 0 0)
(0 0 0)
(0 0 0)
(0 0 0)
(0 0 0)
(0 0 0)
(0 0 0)
(0 0 0)
(0 0 0)
(0 0 0)
(0 0 0)
(0 0 0)
(0 0 0)
(0 0 0)
(0 0 0)
(0 0 0)
(0 0 0)
(0 0 0)
(0 0 0)
(0 0 0)
(0 0 0)
(0 0 0)
(0 0 0)
(0 0 0)
(0 0 0)
(0 0 0)
(0 0 0)
(0 0 0)
(0 0 0)
(0 0 0)
(0 0 0)
(0 0 0)
(0 0 0)
(0 0 0)
(0 0 0)
(0 0 0)
(0 0 0)
(0 0 0)
(0 0 0)
(0 0 0)
(0 0 0)
(0 0 0)
(0 0 0)
(0 0 0)
(0 0 0)
(0 0 0)
(0 0 0)
(0 0 0)
(0 0 0)
(0 0 0)
(0 0 0)
(0 0 0)
(0 0 0)
(0 0 0)
(0 0 0)
(0 0 0)
(0 0 0)
(0 0 0)
(0 0 0)
(0 0 0)
(0 0 0)
(0 0 0)
(0 0 0)
(0 0 0)
(0 0 0)
(0 0 0)
(0 0 0)
(0 0 0)
(0 0 0)
(0 0 0)
(0 0 0)
(0 0 0)
(0 0 0)
(0 0 0)
(0 0 0)
(0 0 0)
(0 0 0)
(0 0 0)
(0 0 0)
(0 0 0)
(0 0 0)
(0 0 0)
(0 0 0)
(0 0 0)
(0 0 0)
(0 0 0)
(0 0 0)
(0 0 0)
(0 0 0)
(0 0 0)
(0 0 0)
(0 0 0)
(0 0 0)
(0 0 0)
(0 0 0)
(0 0 0)
(0 0 0)
(0 0 0)
(0 0 0)
(0 0 0)
(0 0 0)
(0 0 0)
(0 0 0)
(0 0 0)
(0 0 0)
(0 0 0)
(0 0 0)
(0 0 0)
(0 0 0)
(0 0 0)
(0 0 0)
(0 0 0)
(0 0 0)
(0 0 0)
(0 0 0)
(0 0 0)
(0 0 0)
(0 0 0)
(0 0 0)
(0 0 0)
(0 0 0)
(0 0 0)
(0 0 0)
(0 0 0)
(0 0 0)
(0 0 0)
(0 0 0)
(0 0 0)
(0 0 0)
(0 0 0)
(0 0 0)
(0 0 0)
(0 0 0)
(0 0 0)
(0 0 0)
(0 0 0)
(0 0 0)
(0 0 0)
(0 0 0)
(0 0 0)
(0 0 0)
(0 0 0)
(0 0 0)
(0 0 0)
(0 0 0)
(0 0 0)
(0 0 0)
(0 0 0)
(0 0 0)
(0 0 0)
(0 0 0)
(0 0 0)
(0 0 0)
(-0.0271124824294 0.000729059279145 0)
(-0.0592077036645 0.00158055720973 0)
(-0.0612187899726 0.00148163544154 0)
(-0.012459537959 0.000242565002326 0)
(-0.0861404854506 0.00229953125863 0)
(-0.0199468790205 0.000482760324371 0)
(-0.0186351246768 0.000501101682558 0)
(-0.034809991067 0.000936046599954 0)
(-0.125310926724 0.00334519119021 0)
(-0.0781436754862 0.00189125657636 0)
(-0.0287151458851 0.000694972538192 0)
(-0.110594622188 0.00295233756145 0)
(-0.0394412139625 0.00106058097391 0)
(-0.0254688177707 0.000616403935459 0)
(-0.00485853703712 6.46448384719e-05 0)
(0 0 0)
(0 0 0)
(0 0 0)
(0 0 0)
(-0.00396299746028 5.29995873283e-05 0)
(0 0 0)
(-0.0086744950345 0.000178773475904 0)
(0 0 0)
(-0.00745841072861 0.000145201966693 0)
(0 0 0)
(-0.00982871110741 0.000202560822427 0)
(0 0 0)
(-0.00506156694582 6.76914285339e-05 0)
(-0.0347972415813 0.000935703764109 0)
(-0.125297804999 0.00334484090409 0)
(-0.0771704409145 0.00186770206254 0)
(-0.0285999852663 0.000692185386496 0)
(-0.110558506118 0.00295137343836 0)