/*--------------------------------*- C++ -*----------------------------------*\
| =========                 |                                                 |
| \\      /  F ield         | OpenFOAM: The Open Source CFD Toolbox           |
|  \\    /   O peration     | Version:  v1906                                 |
|   \\  /    A nd           | Web:      www.OpenFOAM.com                      |
|    \\/     M anipulation  |                                                 |
\*---------------------------------------------------------------------------*/
FoamFile
{
    version     2.0;
    format      ascii;
    class       volVectorField;
    location    "4.9";
    object      U;
}
// * * * * * * * * * * * * * * * * * * * * * * * * * * * * * * * * * * * * * //

dimensions      [0 1 -1 0 0 0 0];


internalField   nonuniform List<vector> 
28582
(
(0.809516576395 -0.000306509514096 -0.00027162116172)
(0.809962609485 -0.00256003616899 -0.000447038392663)
(0.809382568077 -0.000411863196839 -0.000750913202649)
(0.809798346727 -0.00267585112483 -0.00118235506347)
(0.808723398546 -0.000344860940587 -0.000913683650218)
(0.809320583125 -0.00290613557737 -0.00240051639981)
(0.808930057754 0.000410337830264 -0.000649422296111)
(0.807836902344 -0.00211343164371 -0.00249073775588)
(0.451017186574 -0.0114467423284 0.000782580833782)
(0.214988718163 0.0715685483168 -0.00583848343355)
(-0.0812260131015 -0.0233010732571 0.0568020343718)
(0.808307051901 -0.000896687185671 -0.00083531296057)
(0.795254782104 0.00249449891563 -0.000488303953042)
(0.793898215523 0.000321316220578 0.000328926063612)
(0.807565144658 -0.0032138532833 -0.00469573085814)
(0.806348021187 -0.00291103355693 -0.00382425128067)
(0.793323966038 -0.00034464962985 1.16755926216e-05)
(0.80481500541 -0.00421761013612 -0.00620629820921)
(0.804167669759 -0.0035318353262 -0.00610205669154)
(0.810159857722 0.00300564293959 -0.000342132477408)
(0.809371090109 -0.00422736958945 -0.000505589624389)
(0.808672723627 -0.00502398676218 -0.000377614984844)
(0.810756478644 0.00309726492449 -0.000659755939222)
(0.809443812913 -0.00413169617976 -0.00157521930309)
(0.809025521042 -0.00495643340441 -0.00109716575017)
(0.810701341727 0.00291377756224 -0.000878072361406)
(0.809507024137 -0.00480310096203 -0.00404089907642)
(0.811058726749 0.00369617120232 -0.00191289274275)
(0.808348405921 -0.00409333872381 -0.00589098547898)
(0.0955060866013 0.108595263489 -0.00956878452314)
(-0.000584550123814 0.0159665116052 0.080300095534)
(0.0276419960767 0.0519339546429 -0.206127092058)
(0.811771435412 0.00212089090812 -0.000924553465645)
(0.809956952982 0.00203393214894 -0.00038856163034)
(0.798370887462 0.00167994494793 -0.00357179866693)
(0.79693603447 -0.00120703692036 -0.00136214986005)
(0.810340962843 0.00267367526157 -0.00291989063603)
(0.810410942283 -0.00494433644552 -0.00743923740838)
(0.807129019872 -0.00396757376987 -0.00530792313011)
(0.809546967756 -0.00507830605701 -0.00684808130988)
(0.805681605203 -0.00492934321495 -0.00703713884338)
(0.785699956378 -0.000697692980925 -0.00676750387813)
(0.805110958255 -0.0043716914371 -0.00702736061067)
(0.807158297332 -0.00517692126288 -0.00989733729777)
(0.395654191959 0.00280103612257 -0.00103216500544)
(0.239969105102 0.0765582896037 -0.00348656953451)
(0.0149409725413 0.0889265740626 0.180647364807)
(0.00386190611065 0.0125806185336 0.191973848842)
(0.321784246691 0.0329251889346 -0.00300652093942)
(0.0848946389927 0.00572181302264 0.156584958255)
(0.809634695539 0.0012681130893 -0.00107760846248)
(0.808163060298 9.12041700052e-05 0.000166729467661)
(0.794933414521 0.00214110280262 0.00025037452946)
(0.794654292901 0.00217331722967 6.877923077e-05)
(0.808791048596 0.000977587321433 -0.000949914905623)
(0.794225484966 0.00196580331174 0.000797829077489)
(0.808960743892 0.000254777684846 -1.51088002995e-05)
(0.807805161148 -0.00065688256006 -0.000225940426599)
(0.807391425905 -0.00139322009333 -0.000133488954401)
(0.794650944076 0.00118005535347 0.000558212308425)
(0.793338351054 0.00132405060023 0.000874476997804)
(0.806708436576 -0.00152819235952 -0.000157759358156)
(0.79373395521 0.00162399203806 0.00109350321994)
(0.808573601033 -0.000425704553642 -0.00031322209245)
(0.805144429104 -0.0028367224028 -0.00245286398232)
(0.807004741429 -0.00190520380072 -0.00123820683647)
(0.792301633935 -0.00116516951353 -0.00086385231224)
(0.792501027789 0.000849133913737 0.00042714256783)
(0.806209713311 -0.0021029207817 -0.00142445615827)
(0.791785655982 0.000594458079102 -0.000746832923867)
(0.805884651011 -0.00263198898675 -0.00213040580422)
(0.80552397265 -0.00361172583966 -0.00580199073054)
(0.7901387036 -0.00156787867074 -0.00330899352533)
(0.789797243832 -0.000359728783598 -0.00333199633596)
(0.805002687733 -0.00353470421784 -0.00397345957654)
(0.791146503052 -0.00141224049287 -0.0017629135494)
(0.790611469553 -0.000241583129509 -0.001597594367)
(0.805748066609 -0.00315507337168 -0.00362481470975)
(0.803193136889 -0.00278194434357 -0.00556734851287)
(0.789111830893 0.000186179168356 -0.00421093037142)
(0.78869483543 3.45566901843e-05 -0.00306065520498)
(0.804318820954 -0.00271648918196 -0.00394253818134)
(0.789648498627 1.7676104079e-05 -0.00123353768663)
(0.80351524277 -0.00203292990006 -0.00320516448291)
(0.79005071502 0.0004597257493 -0.0025111897679)
(0.482146124588 0.0209740306901 -0.0061016403192)
(0.13828522789 0.0584377947326 0.126262387274)
(0.465495806869 0.0575028131982 -0.000965969027381)
(0.425351049609 0.0425034574948 -0.00389761575431)
(0.106628703825 0.0893894749866 0.0933035160177)
(0.0843271063268 0.0692142250571 0.0909329811136)
(0.110174497644 0.107200360802 -0.0111927898008)
(-0.0112394408525 0.148884970176 0.166951066688)
(-0.0387410127259 0.0100985955867 0.167920862132)
(0.0063533492099 0.120515150805 -0.013815497753)
(-0.0255475445994 0.161867959825 0.117014093531)
(-0.00329551414326 0.119169466957 -0.0122986474999)
(-0.0608968556855 0.0168242976868 0.103661791191)
(0.811124567296 0.00245257753551 -0.00407194589209)
(0.810972652524 0.00302242702057 -0.00425173151294)
(0.797345288031 0.000589078218128 -0.00295845179789)
(0.797583773067 0.000665630637151 -0.00328337543614)
(0.811821488266 0.0023358165927 -0.00377879070128)
(0.810286673074 0.0032533920341 -0.00431490966994)
(0.79666703954 -0.000111849277205 -0.00281531143724)
(0.811895464951 0.00176771706975 -0.00318569229981)
(0.812985532934 0.000911845996789 -0.00205934248925)
(0.796715093974 -0.000398950994858 -0.00194128163886)
(0.796322729536 -0.00102971685387 -0.00149690438079)
(0.812714231357 0.00160869807149 -0.00256895647465)
(0.81212457296 0.00100562719386 -0.00255473316598)
(0.796121714624 -0.000436173065796 -0.00197884067458)
(0.796232052073 0.00185236203133 -0.00200928861527)
(0.795713421861 0.00187642900896 -0.00108034986228)
(0.810606791769 0.00186283451073 -0.00170717595895)
(0.811117055232 0.00224364265341 -0.00287903007642)
(0.796033249183 0.000262917585677 -0.00147119445877)
(0.811371766462 0.0016042699338 -0.00221733453568)
(0.796157688993 0.000401568273241 -0.00218786532806)
(0.806194261832 -0.00410951490548 -0.00678029093528)
(0.78881168608 -0.0014945650662 -0.00429188935042)
(0.788514149194 -0.001224239898 -0.00417975415129)
(0.806694359016 -0.00530040439151 -0.00940750865501)
(0.788042569556 -0.00116648565538 -0.00561698730858)
(0.807264099803 -0.00444020204739 -0.0090190844328)
(0.787689047621 -0.00137448305747 -0.0058474486954)
(0.808138162613 -0.00587069144974 -0.00921112595922)
(0.810642736055 -0.00514280913051 -0.0100704188939)
(0.787181415414 -0.00113366306564 -0.00602476547065)
(0.785825450057 -0.0015224356122 -0.0070833952642)
(0.808628783731 -0.00478739615153 -0.00883507922747)
(0.810431380617 -0.00632555300307 -0.0105626603782)
(0.787025510898 -0.00163180963659 -0.00637335129859)
(0.805329237852 -0.0043921741253 -0.00999737307317)
(0.804142118512 -0.00369762743524 -0.0068098489118)
(0.78796869814 -0.000545086322051 -0.0050316462233)
(0.787438501389 -0.000823599890218 -0.00453882937026)
(0.787330580383 -0.000745436596733 -0.00649905525683)
(0.80619488982 -0.00491080760204 -0.00969947437454)
(0.787375471447 -0.000298322676986 -0.0066365819307)
(0.786865478702 -0.000912625967602 -0.00757837917268)
(0.786004440442 -0.000690309633465 -0.00887665665749)
(0.809743690279 -0.00553086961477 -0.0119048171773)
(0.807797508412 -0.00564617089032 -0.00946370760142)
(0.785805610192 -0.000231074026023 -0.00822114113089)
(0.810103657705 -0.00607340082334 -0.0109958644977)
(0.786905772901 -0.000540122411107 -0.00731689577793)
(0.810232704212 -0.00551103303587 -0.00304364299181)
(0.811802150884 -0.00559284923443 -0.00621947845679)
(-0.0699508278261 0.113016306175 -0.011211285614)
(0.0873279216239 0.0145930020071 -0.445044634498)
(0.810229594067 0.000462148380374 -0.000142344464068)
(0.795651095721 0.00152975472675 5.82703952589e-05)
(0.810915405868 -0.00576634345295 -0.00517527153767)
(0.812668859061 -0.00624969832287 -0.00253983738138)
(0.785117300129 -0.000495215342275 -0.00651160315998)
(0.785641130038 -0.000146997218161 -0.00905423746133)
(0.784853666569 0.0021954801606 -0.00434248114967)
(0.81231965799 -0.0064152329457 0.00044774020901)
(0.81141211804 -0.00672067233203 0.00169866765864)
(0.784327638739 0.00280266515016 -0.00274781833545)
(0.779071014393 0.00421682774184 0.00226239394897)
(0.434797287863 0.0113825839623 -0.00406046720421)
(-0.0733919958016 0.119026428605 -0.0133013649406)
(-0.115066996852 0.129438667012 -0.0040225464318)
(-0.0615410513922 -0.0504564532029 0.0518535334285)
(-0.0282792788898 0.162209223913 0.0725508837851)
(-0.0330838751627 0.135037700464 0.00424946684632)
(-0.15994699377 0.156374194734 0.00716603255459)
(-0.126842461213 0.168683030775 0.0110330522157)
(0.81094249706 -5.11170246228e-05 0.000400274256116)
(0.810690226911 0.00101059573143 -0.000537310723894)
(0.79622357551 -0.000216923987473 -0.00078621612871)
(0.795657762504 0.000952353673377 0.000979958087874)
(0.811609067014 0.000754286107864 -0.00118789372023)
(0.796496898105 -0.000772923724687 0.000320407301573)
(0.809999028134 3.92465839832e-05 0.000642833605797)
(0.813891715858 -0.00657842853779 -0.00891275730366)
(0.811889726973 -0.00532172325459 -0.00898794618136)
(0.784512259935 -0.000439677892994 -0.00608500751323)
(0.785242581944 -0.000978120135567 -0.00704024350341)
(0.814009425007 -0.00547252029031 -0.00860974041489)
(0.811500754358 -0.00646542435879 -0.00940700572966)
(0.784651048475 -0.0006641132214 -0.00649942045348)
(0.8138669248 -0.00625888943763 -0.00924557927041)
(0.811067726587 -0.00564641836284 -0.0107730995433)
(0.785355036633 0.000234790321088 -0.00822667588189)
(0.785179193784 0.00045474348501 -0.00840556268553)
(0.811206841768 -0.00617904643019 -0.00985354173039)
(0.784703360366 0.000594899939304 -0.00768682540135)
(0.813961631629 -0.0057028955953 -0.0101534443807)
(0.814517519775 -0.00608781092263 -0.00704292992553)
(0.815035282739 -0.00551131273367 -0.00403796014505)
(0.784554543109 0.00186584358336 -0.00417125835139)
(0.784926781203 0.00140908191345 -0.00713044344728)
(0.81500886486 -0.00616452275308 -0.0037811657314)
(0.784561749604 0.00132300392423 -0.00670445466577)
(0.814688694051 -0.00547043797146 -0.00759947699694)
(0.81308255956 -0.00631794811208 0.00190913927749)
(0.813981035452 -0.00546157701559 -0.00227636082416)
(0.784015160431 0.00254859631393 -0.00251732006064)
(0.782776598962 0.00346561696448 0.000143652447425)
(0.814113444933 -0.00615571725326 -0.00202398253255)
(0.782274447115 0.00304411626462 0.000575790938336)
(0.812950388423 -0.00567800529196 0.00159837856808)
(0.811665746272 -0.00643731942863 0.00263920560661)
(0.810264847596 -0.00606057167228 0.00376247984341)
(0.778555528563 0.00350768322352 0.00179715219397)
(0.780849298564 0.00377799124179 0.0016248269068)
(0.810417271014 -0.00669064635279 0.00353814343737)
(0.780427957974 0.00317773385248 0.00142256333115)
(0.811648476146 -0.00583049718969 0.0024867181736)
(0.787720635119 0.00822197094263 -0.000744888277665)
(0.794489825412 0.0102333327649 -0.00421225083387)
(0.799156616154 0.0160010703339 -0.00150511522893)
(0.80105130032 0.0111534922478 -0.00211087365115)
(0.567945476815 0.13448861622 -0.00745561014351)
(0.448130431203 0.0692936485013 -0.00508221538014)
(0.41811916552 0.106230070232 -0.0178013398629)
(0.371678834408 0.0753019442311 -0.00106535022002)
(0.392495059359 0.0416145050758 -0.00338298765915)
(0.316545345634 -0.0657881691278 -0.203771327113)
(0.243958441963 -0.0630059601227 0.526499527577)
(0.267992153848 -0.0695656272867 -0.324346563543)
(0.250253493041 -0.0805648667428 0.285376911099)
(0.303103080172 0.0147891146738 -0.27638406227)
(0.365678592598 -0.00148831473447 0.293705533087)
(0.784532684598 0.00217828071563 0.00114540004984)
(0.786022501951 0.00341961615797 0.00153447808825)
(0.782365119823 -0.00131066649364 0.00472879822041)
(0.782893738168 0.00525566825567 0.00469909122388)
(0.783160534332 0.00639611911272 0.00183312274633)
(0.782967722749 0.00552808477802 0.00390197214648)
(0.787766214968 0.00488673686537 0.000526725900184)
(0.790941113437 0.0062488635742 -0.00101171480815)
(0.783075571874 0.00626911737457 0.00353453093365)
(0.783653719 0.00614754302782 -0.00234719875112)
(0.786258800129 0.0133772312303 0.00155830316534)
(0.791007517615 0.00951383634656 -0.00210796602222)
(0.79283113087 0.0137120651403 -0.00109200158297)
(0.78320859641 0.00645371832436 0.00231521243638)
(0.786914643835 0.00926051207868 -0.00268482482225)
(0.784645238536 0.00658330776574 -0.00395184752614)
(0.788729865829 0.00915655269857 -0.00516614835486)
(0.795966612603 0.0188591403207 0.000804095863778)
(0.800054315736 0.0230625438898 0.00206487880168)
(0.788099076795 0.0101689921892 -0.00256109046296)
(0.792574362768 0.0130588694729 -0.00202148185066)
(0.790081124457 0.00994464712035 -0.00445893511707)
(0.79379031862 0.0120732777595 -0.00128613536131)
(0.796630568549 0.0132434192662 -0.00277009646565)
(0.798711676641 0.0119564400249 -0.00313826466168)
(0.785183861114 0.00625697401613 -0.00464640862113)
(0.789596055528 0.00851649125398 -0.00478794393463)
(0.791182531325 0.00786667331537 -0.00443909751437)
(0.802164424473 0.0178393382829 -0.000674650365859)
(0.800591396172 0.0131498524429 -0.00127720920833)
(0.802961511948 0.0139185475909 -0.000684617561196)
(0.791027373703 0.00947212061588 -0.00409385256574)
(0.793859613412 0.0108555051511 0.000252557155293)
(0.792177994759 0.00803805867006 -0.00332554868079)
(0.794319998652 0.00882917418374 0.000105880556634)
(0.792389492815 0.00718283521922 -0.00290320193549)
(0.794812600079 0.00804670529818 -0.00133498357446)
(0.605776670484 -0.0380012883861 -0.00196594070319)
(0.623373476809 0.0512248083541 -0.00189349450211)
(0.62006266511 0.0618142521705 -0.00564325131966)
(0.237903738583 0.00687166695269 -0.156307302125)
(0.348264058952 0.00883628331656 0.00692591501674)
(0.291355247567 -0.00946583779597 -0.0770929976272)
(0.375452352394 -0.0187237379392 0.0307601694069)
(0.335685330309 0.00813964239835 -0.00423263731845)
(0.189273341689 0.0101481258265 0.00658042130684)
(0.354737196294 -0.0187607116243 -0.00638029775146)
(0.198560862902 -0.0167187224549 0.0113216733057)
(0.590301244138 0.136599503146 -0.00168448755863)
(0.510697754674 0.173709600163 -0.0037300983025)
(0.522731695694 0.104139479137 -0.0106981870093)
(0.485161051954 0.147007215702 -0.0111899507068)
(0.436547641055 0.102658499468 -0.0117661884408)
(0.298798363491 -0.028965435257 0.0363893219437)
(0.380760313218 -0.0132634616513 0.0572507336988)
(0.279170856738 0.0205469688125 0.114015069076)
(0.369508413876 0.0471156827363 0.0789304162118)
(0.426848837563 0.0365268943029 -0.00313555499309)
(0.395525802718 0.0758637720119 -0.00433327167338)
(0.387995321174 0.0355893502277 -0.00236595525796)
(0.370094773711 -0.00773365226808 0.0131668858331)
(0.231495984361 -0.0030041079598 0.00817440764285)
(0.370278145177 0.0525339258207 0.00909611535825)
(0.250723427827 0.0664612703977 -0.0216229829919)
(0.389806919874 0.0810472797689 -0.0143122039046)
(0.380662200922 0.0449834357072 -0.0134969072378)
(0.258713737862 0.0102724023856 0.145667358835)
(0.355524944795 0.0348615691649 0.0908908263371)
(0.372333254809 0.00469239267077 0.0950868508351)
(0.373377752751 0.0413721072636 0.000455289805118)
(0.370662607632 0.062802039181 -4.51024379607e-05)
(0.38213940075 0.0504767376595 0.000825730225229)
(0.373045596605 0.0380722775093 -0.00298418399192)
(0.278212508793 0.0604366801987 -0.0465621958574)
(0.412885014631 0.0171839092016 0.00480330292529)
(0.351874851868 0.0292196144521 -0.0247486176177)
(0.78558229948 0.00233039786746 0.00513096904814)
(0.783806104696 0.00216822321372 0.00470835399113)
(0.782639290408 -0.00134899534432 0.00479028033072)
(0.782558566913 0.0012331338497 0.00519027753714)
(0.783893109928 0.00278983012586 0.0050203885323)
(0.782666557368 0.00114446915467 0.00533684134863)
(0.785419034494 0.00199875783307 0.00434191110899)
(0.785950471445 0.00255030580194 0.00525688251883)
(0.785610815212 0.00377430010109 0.00418173840034)
(0.782659607011 0.00310679085603 0.0051285161251)
(0.782866811501 0.00512784830928 0.00497841803269)
(0.784631364115 0.00342536022459 0.00480809088251)
(0.786601493504 0.00278106564605 0.0046881191662)
(0.782700438965 0.00307412235538 0.00532271150809)
(0.782343042041 0.00524670660257 0.00344358555749)
(0.784230198462 0.00489593028252 0.00368044924699)
(0.782677352909 0.00332799620769 0.00467223828685)
(0.783331393063 0.00574700106025 0.00195992626089)
(0.783397230798 0.00388516724658 0.00465505662555)
(0.783954801017 0.00654034268047 0.00182635535933)
(0.782471545497 0.00358983085609 0.00356209955365)
(0.78855805616 0.00324070184306 0.00179185091879)
(0.786771537904 0.00416688288542 0.00226640351763)
(0.783062887553 0.00619866076826 0.00398734782061)
(0.783126523392 0.00668565628075 0.00168295338118)
(0.787525829571 0.00300706555895 0.00345724278415)
(0.787941224827 0.00453002757788 9.91557096894e-05)
(0.782977298921 0.00643733396388 0.00261374366287)
(0.78959557279 0.00394833238043 -0.000237735805858)
(0.790778832572 0.00594397418586 -0.00457795889967)
(0.783708077748 0.00662769996779 -0.000542006762147)
(0.783217547715 0.00578888290425 -0.0006458999713)
(0.789357113306 0.00495648578785 -0.00265368641017)
(0.790786338366 0.00476892193376 -0.00192609499958)
(0.783160745183 0.00645627665369 0.000886592604876)
(0.788055009546 0.00784427518343 -0.0033549190375)
(0.785783535746 0.0056393392715 0.0011970139693)
(0.784228801226 0.00701901973939 -0.0003151154054)
(0.783643114566 0.00718293012043 0.000118070444304)
(0.785923802951 0.00746434251652 -0.00147118804193)
(0.787514017795 0.00582827701393 -0.00127476385952)
(0.784956680603 0.00793150910755 -0.00252593468841)
(0.789139257502 0.0104500173766 -0.00496674007879)
(0.787521053562 0.0123522975175 -0.00204425810515)
(0.78558832924 0.00796985692863 -0.00206679579553)
(0.787754460035 0.0097021531805 -0.00420674400635)
(0.786504904567 0.00968473441181 -0.0032365496869)
(0.790512751731 0.0131673778395 -0.00361645100561)
(0.786340616084 0.00865456997959 -0.0036565766021)
(0.790497663533 0.00868569939409 -0.00560298155472)
(0.791303664636 0.00754311000742 -0.00548455057678)
(0.784338953292 0.00717171994844 -0.00207075404216)
(0.786232164291 0.00724923638373 -0.00576025630303)
(0.789387928867 0.00662732964101 -0.00357498618624)
(0.792815273568 0.00955846314814 -0.00729433536424)
(0.785723495546 0.00788589626835 -0.00422185471635)
(0.791834335469 0.0111617264265 -0.00621741029242)
(0.796031552279 0.014381159913 -0.00528273639885)
(0.788415649199 0.00947869934828 -0.00497248279746)
(0.787823189089 0.00835828666043 -0.00596696443029)
(0.793547719125 0.0140342400176 -0.00492970580185)
(0.794478507005 0.0120348770683 -0.00745312384876)
(0.78714239473 0.00868802420828 -0.00490352267537)
(0.794117656357 0.0194718681638 -0.000297717320121)
(0.789284245747 0.0157083095563 -0.00238288190116)
(0.788955008831 0.0113080678886 -0.00199006451052)
(0.788932302253 0.010480094178 -0.00327035421455)
(0.791067073478 0.0191204109757 0.000265037849386)
(0.792560375114 0.016320707505 -0.00339338770886)
(0.789715640732 0.01162951273 -0.00224161366645)
(0.796082983317 0.0219648280855 -0.000232880022709)
(0.797203877894 0.0240418825665 0.000810079020213)
(0.790496804087 0.0120594735709 -0.00137875498371)
(0.793053952592 0.0128505968583 -0.00223306018292)
(0.793645497653 0.0219831139591 0.000529076742302)
(0.791127474008 0.0122959621879 -0.00175913083668)
(0.79921320036 0.0239430630417 -0.000200196261529)
(0.796824462787 0.0189437185019 -0.00199114012221)
(0.797483565812 0.0166067321843 -0.00486873132072)
(0.789850172116 0.0100854103395 -0.00386750109937)
(0.791015720796 0.010821708 -0.00353920189529)
(0.795470948833 0.0166736648369 -0.00429724107817)
(0.798697301325 0.0183455279552 -0.00272767031996)
(0.790583114108 0.010961576343 -0.00261229328294)
(0.798368646041 0.0212594925444 -0.00117741566871)
(0.802400357194 0.0213918980647 -0.000983930564567)
(0.793478471107 0.0123497938392 -0.00202358665237)
(0.79232408671 0.0114460322879 -0.00173668995941)
(0.80025377536 0.020102112637 -0.00173181482552)
(0.791651491558 0.0117349015807 -0.0017727223043)
(0.801064670285 0.0229886932543 -0.00141266323154)
(0.796442514507 0.0105004967026 -0.00955566066784)
(0.793086617327 0.00848632109932 -0.00677614891982)
(0.787124742509 0.006743111731 -0.00645978589408)
(0.78576091924 0.00610471376156 -0.00575702996391)
(0.794867177904 0.0102081757455 -0.00878625484439)
(0.794638791239 0.00903278368555 -0.00776008990929)
(0.787518444045 0.00679665383557 -0.00727765453411)
(0.798357124401 0.0119656593918 -0.00838741067699)
(0.798225005969 0.0140378531332 -0.0055360501857)
(0.788772138274 0.00747665248014 -0.00613334326101)
(0.790309531272 0.00836146828507 -0.00566043071648)
(0.796586280868 0.0121480970206 -0.00786434184339)
(0.799731201685 0.0132277453733 -0.00626689856748)
(0.789462479722 0.00742741141261 -0.0069587773304)
(0.799436280825 0.0118816302595 -0.00805552958646)
(0.80106778735 0.0119546285639 -0.00539375181941)
(0.790912607015 0.0080658616914 -0.00542914735836)
(0.790377397532 0.00761295840001 -0.00604711857479)
(0.80067897878 0.0126716279241 -0.00593466658368)
(0.799920137411 0.0116569196009 -0.00759550998714)
(0.790173369893 0.00766284939088 -0.00677394125527)
(0.801277787433 0.0154875989195 -0.00148399675503)
(0.79920338273 0.0158138279342 -0.00468812613525)
(0.791638134327 0.0102078544703 -0.00251954465094)
(0.791604012719 0.00922002915989 -0.00386343015991)
(0.800223064221 0.0172185800341 -0.00237184583291)
(0.800539685058 0.0145364420826 -0.00488680874895)
(0.791973276546 0.00977738698085 -0.00145817423435)
(0.8021382167 0.0162260905554 -0.00065285381619)
(0.803154995477 0.0191575912362 8.53839110383e-05)
(0.792686405503 0.0105461659472 -0.00030764902634)
(0.79357954838 0.0102183320048 0.00015466309834)
(0.801515106735 0.0184411586318 -0.000828475631217)
(0.792522757143 0.0100438680898 -0.000112199614095)
(0.803555333089 0.0166539159698 5.51289589432e-05)
(0.801947037709 0.0136803605935 -0.000961484422156)
(0.801615298952 0.0120689933003 -0.00396596474173)
(0.792011137756 0.00843085940672 -0.00371406793264)
(0.792435462882 0.00811534073562 -0.00200628438582)
(0.801371790577 0.0131913831306 -0.00437833597653)
(0.802124602421 0.0121659521419 -0.00177881279274)
(0.792390098269 0.00867633149832 -0.00114361793485)
(0.802611640557 0.0141337065196 3.25987818916e-05)
(0.803934543449 0.0124491754251 0.000254299120689)
(0.793684088769 0.00931757208872 0.000370095405412)
(0.793226069138 0.00832672340311 -0.000616626738197)
(0.802851082105 0.0124457051092 -0.00099551387963)
(0.792828299198 0.00898941406954 0.000276391453264)
(0.803800911328 0.0143673279209 0.000528013280916)
(0.802326708526 0.00975945936077 -0.00275074004396)
(0.801761982295 0.0107325850282 -0.00379335844854)
(0.792914244576 0.00746332839937 -0.00235774365544)
(0.792538190837 0.00689394912756 -0.00322510477543)
(0.802200589353 0.0108446906446 -0.00253075508697)
(0.801415228457 0.00984132115751 -0.00422625694172)
(0.793644098283 0.00719704113385 -0.00228393132355)
(0.803839748169 0.0107064293174 -0.00141668268909)
(0.793815585437 0.00800433202912 -0.00172808804803)
(0.802987683193 0.0109758848242 -0.00205197976037)
(0.812035978748 -0.000315751839688 -0.000171112346631)
(0.811974581502 -0.00379850859541 -0.000338292125356)
(0.81049689894 -0.00567728790926 -0.000715810348263)
(0.808018294884 -0.00544438914535 -0.000168593078711)
(0.805838917922 -0.00529303542372 -1.56346500102e-05)
(0.807660611014 -0.0225415440823 2.53399041063e-05)
(0.812080927885 -0.000133276588083 -0.000692471270257)
(0.811505972843 -0.00370405477227 -0.000904250916482)
(0.810376800134 -0.00583823734402 -0.00136885383672)
(0.808508064286 -0.00548672906305 3.88740997324e-05)
(0.806002615639 -0.00555923558965 0.0014659571766)
(0.808001419183 -0.0229677743249 0.00202165497649)
(0.816441083936 0.00547049295755 -0.00115686128653)
(0.814963038935 0.00491571526814 0.000600203819486)
(0.794510448977 0.00384391845678 0.00728825543266)
(0.790698416376 0.00160183148821 0.00989525618742)
(0.788009111741 -0.00378126715403 0.0133487253973)
(0.787956384037 -0.00555862837919 0.0129148258406)
(0.792544108525 -0.00443246130607 0.00952423978204)
(0.779326545788 -0.0119542209263 0.0069777844092)
(0.82639420629 0.00353368623527 0.000108729060033)
(0.822664682089 0.000450046208675 0.000250407010732)
(0.820055439621 -0.0088531068482 0.000147390161203)
(0.814657547188 -0.0173917087492 0.00144873743633)
(0.81051515908 -0.0178973702116 0.00310874237959)
(0.804670407419 -0.015969770028 0.00341831612355)
(0.802989147412 -0.0090902364241 0.00229020155686)
(0.794403834289 -0.0269373157756 0.00220743916248)
(0.818620111219 0.00307772156434 -0.000923170198712)
(0.819979192787 -0.00052695670791 -0.000633083499301)
(0.81865006471 -0.00639314000597 -0.000599960042127)
(0.814493935325 -0.00935675497867 -8.74600222945e-05)
(0.810966639785 -0.00980998762387 0.00087200023701)
(0.806905023917 -0.00954434609436 0.00139942704107)
(0.80429713803 -0.00676566535443 0.00137921956439)
(0.79993089661 -0.0259484745544 0.00132740292905)
(0.813794034458 0.00335190954887 -0.00041266685559)
(0.816152201548 -0.000612836129821 -0.00059422027724)
(0.815359138457 -0.00468853397961 -0.000446277519486)
(0.812020425782 -0.00760748724885 -0.000420905207615)
(0.80994004383 -0.00899245379604 -6.82519107616e-06)
(0.807798580805 -0.00954112343869 0.000333490367434)
(0.805179109876 -0.00758720968367 0.000567801915019)
(0.803986934318 -0.0286048150089 0.000591701548277)
(0.809416164451 -0.0064543687889 -0.000549669901936)
(0.80833048835 -0.00688466989035 -0.00034918534476)
(0.805762704609 -0.0061127955646 1.08840772016e-05)
(0.806605419334 -0.0251367943088 8.90826042246e-05)
(0.639470401652 0.0409195252812 0.00883962485112)
(0.639955339302 0.0394989187351 0.01453489377)
(0.65452240049 0.020545576549 0.0274011140206)
(0.667526680821 0.00881555959654 0.0289236057097)
(0.7061703407 -0.00380736964942 0.0239261072324)
(0.732269719981 -0.00897340439499 0.0174461500547)
(0.773036237455 -0.00578934917787 0.0108349378662)
(0.757022758773 -0.0168092296371 0.0092363371766)
(0.774175814707 0.0115523485594 0.00596040658865)
(0.773288269666 0.00382127282745 0.0084686497073)
(0.782165170202 -0.00728211554793 0.0131841727936)
(0.78623094417 -0.0199638281082 0.013471200445)
(0.793395019432 -0.0244690518834 0.0110207383785)
(0.794212292622 -0.0232866574091 0.00937696480238)
(0.79813377735 -0.0149529429399 0.00755714856161)
(0.790176532972 -0.0355569097276 0.00679078516079)
(0.819720811858 0.00438452782268 0.000152035454125)
(0.819387480292 0.00127001823136 -0.000407748023944)
(0.818445863294 -0.00532123408142 -0.000592024908882)
(0.815489597651 -0.00959991619171 -0.000813170764074)
(0.812612267725 -0.0116481037733 0.000344184337782)
(0.808117578976 -0.0116918363538 0.00161301461546)
(0.80481359221 -0.00819523957707 0.00358125603223)
(0.800301720878 -0.0293075698331 0.00393906442914)
(0.814113318625 0.00303175109918 -0.000403769692678)
(0.815992635173 -0.00159991756152 -0.000843960008152)
(0.81520359257 -0.00470374520055 -0.000987512205611)
(0.812508561552 -0.00688077204257 -0.00109222918784)
(0.810501606476 -0.00832216893017 -0.000270206581691)
(0.808605784571 -0.00880213317261 0.000841129516543)
(0.805507424532 -0.00757500117533 0.00280982774858)
(0.80441527279 -0.0296860482594 0.00319364183514)
(0.809656198012 -0.0068297729095 -0.000807133955682)
(0.808889463185 -0.00723381553998 0.000376881442019)
(0.806160049343 -0.00666658250632 0.00201145548053)
(0.807455447921 -0.0265632682799 0.00251094539966)
(0.634999787202 -0.0157403763465 0.0157102241784)
(0.629833006128 -0.0173163450183 0.0209487895667)
(0.643798202535 -0.0279088516803 0.0278809208334)
(0.656840350877 -0.0335605064685 0.0166468403917)
(0.699267743041 -0.0310566945242 0.003012059059)
(0.730291962845 -0.023916502703 -0.000739385997199)
(0.773122285152 -0.0110010891893 0.00198659061337)
(0.761074038586 -0.0216217918511 -0.00115900820674)
(0.735678442587 0.00351205283934 0.019907643369)
(0.735390267753 -0.00434114182332 0.0210467267084)
(0.787428748665 -0.00960504187624 0.0069501717164)
(0.78909704914 -0.0202707603604 0.00151035206317)
(0.79412722739 -0.02358692908 -0.000185730539124)
(0.794687506774 -0.0229014396672 0.00130931205798)
(0.798390098631 -0.0153020584193 0.00271487171078)
(0.793817446849 -0.0377608332744 0.000446072041265)
(0.819407716652 0.00346885705161 -0.000553017973038)
(0.819015018678 0.00089801464607 -0.00100243534101)
(0.818946312263 -0.00713045394084 -0.00154053293952)
(0.816567974166 -0.0135431961313 -0.0051742079911)
(0.81354433539 -0.0142143324467 -0.00548275603734)
(0.810630496285 -0.0132382795729 -0.00297365539927)
(0.806047708386 -0.00930357531584 0.00135537575183)
(0.805911436079 -0.0329189030391 0.000119196556233)
(0.810173612172 0.00781998838769 -0.00112509485503)
(0.814085689008 0.00279219802117 -0.000550045878943)
(0.815476790887 -0.0013588815245 -0.000443423947724)
(0.814966036538 -0.00501569344355 -0.00229802501359)