/*--------------------------------*- C++ -*----------------------------------*\
| =========                 |                                                 |
| \\      /  F ield         | OpenFOAM: The Open Source CFD Toolbox           |
|  \\    /   O peration     | Version:  v1906                                 |
|   \\  /    A nd           | Web:      www.OpenFOAM.com                      |
|    \\/     M anipulation  |                                                 |
\*---------------------------------------------------------------------------*/
FoamFile
{
    version     2.0;
    format      ascii;
    class       surfaceScalarField;
    location    "2.35";
    object      alphaPhi0.water;
}
// * * * * * * * * * * * * * * * * * * * * * * * * * * * * * * * * * * * * * //

dimensions      [0 3 -1 0 0 0 0];
oriented        oriented;


internalField   nonuniform List<scalar> 
92311
(
0.20126894399
6.86063951193e-05
0.000877055252917
-0.20166202472
-0.000552603246825
8.01594038061e-05
0.200882714773
0.000993401977719
-0.000687417394498
0.20128862378
0.000101966179243
0.00092368061333
-0.201712779248
-0.000532982690421
0.000171360725218
0.200843155528
0.00103591063637
-0.000681788367593
0.201320911629
-1.08693331078e-05
1.18766107544e-05
0.00100367844925
-0.201825638679
-0.00056545396356
7.68909603794e-05
9.04108079792e-05
3.12005365124e-05
4.59265794007e-05
0.000121112220328
0.200774764218
0.00110438303905
-0.000700087522706
0.000114791164458
0.0504795654887
-3.6567114927e-06
8.57120595997e-06
8.67969989533e-06
9.65448063641e-06
0.00018327176842
-0.050556545354
-0.000140518506612
-0.0503796827705
0.0502873817228
2.67345254708e-05
2.18130454883e-05
2.10082827864e-05
2.18476473976e-05
0.000243200569422
-0.000211209883192
1.01620556841e-06
0.00060020949717
-3.58372582872e-05
-5.26391894036e-05
-6.63055325151e-06
-8.07559990486e-05
-0.000565135799714
5.20369154172e-07
2.56602667124e-05
0.000781698747994
0.000108253655045
-6.82134745147e-11
-0.000719164650543
-5.43118112202e-05
-4.36851496558e-05
-5.03288095799e-05
-5.22099262281e-05
-0.00010552030164
-5.59532541206e-10
-5.11553387732e-09
1.40619621498e-10
1.77333295798e-10
1.03216903311e-12
3.50491106409e-11
-1.08714407333e-09
-5.46025330748e-11
1.61653844295e-05
1.7947484093e-05
2.11054133408e-05
1.4856479464e-05
0.000223947907452
-0.000182388659007
3.60123010977e-06
0.0118610606371
5.39392573751e-06
2.24098111477e-06
-0.0118247543469
0.0118548981122
2.49502830586e-05
-3.15439319511e-05
-0.0118445888866
-5.6492947983e-06
5.19156783053e-06
-0.000232660708533
2.4671752776e-05
0.0501990247334
2.95780705826e-05
2.7245973904e-05
2.62259621371e-05
0.000259136025835
3.71567445191e-05
0.0501909086588
3.55756342608e-05
4.02621607228e-05
3.60505439768e-05
-0.0502716943306
-0.000179948691686
3.98959217417e-05
-3.79894686454e-05
0.0118533961998
-7.19724437038e-06
4.19561031788e-06
-6.75570740471e-05
0.012544331969
6.5670867933e-05
3.76504460103e-05
-0.0125554492561
0.0125412498106
-5.37151468626e-05
3.44423720627e-05
-0.0125524077798
4.92501069688e-06
0.20197252025
0.00085089854931
-0.000445488467669
-0.202382757047
0.20058866851
5.58403738651e-05
0.000923110679218
-0.000685041016265
-1.79288176274e-05
0.20041782656
0.000853104093757
-0.000664373740561
8.15256586898e-05
0.201992893435
0.000787212615528
-0.000475906111807
-0.202380815078
0.200505499874
0.000121660105629
0.000959241854857
-0.000687561223437
-2.69121937406e-05
0.200300119625
0.000874371915073
-0.000660079260056
-5.72401291824e-05
-4.61017009038e-05
9.21944855641e-05
0.00104572106143
0.202122399782
-0.000547615343654
-0.202594510847
6.65764145685e-05
2.66798006481e-05
3.56139531618e-05
9.59397502095e-05
8.61551307882e-05
0.200317991829
0.00102421122871
-0.000690367805118
0.0507548973863
-2.40525346965e-05
-4.02886117106e-05
-2.93551258903e-05
-2.5740338124e-05
0.000173128383521
-0.0507569214973
-0.000109023126359
0.0501067600371
-0.000241168064117
2.33725363335e-05
2.37901466885e-05
2.53807229573e-05
2.07739563498e-05
0.000266735649846
0.000122063155299
-1.25710556993e-10
0.000824738054049
-5.31111321497e-05
-4.81355347528e-05
-4.2279689754e-05
-5.65502677595e-05
-0.000111709148371
-2.84669954372e-08
-5.00723204409e-08
-3.84193561872e-08
7.36356846392e-09
5.12547086735e-09
-1.07648455419e-09
-2.68208360239e-09
-4.86882006606e-08
-2.13180853019e-08
2.52962910922e-09
-8.29524313095e-08
1.98531928332e-09
1.66717390112e-09
3.81431155402e-10
-5.64307688288e-09
-0.000196593448859
-2.22573033758e-05
-1.05822488531e-05
-7.52316168193e-06
-5.36641564918e-06
0.0506719756864
0.000279092864469
2.4389482988e-05
2.45760320204e-05
4.76499712247e-06
2.07899131847e-05
0.0506038362631
-0.000123013671008
-0.050659765664
-5.60720957486e-06
7.04704837511e-05
0.011856140537
4.50008054701e-05
-1.98767415897e-05
-0.0117719418985
-6.81186704353e-08
-1.26036660896e-06
-0.0117678615279
1.16153247057e-06
-2.39685018687e-06
0.0117736921091
3.12000194409e-05
0.0126593368522
2.58581335746e-05
-2.17781622951e-05
-0.0126702764503
-0.000242247081318
1.86471679379e-05
2.44059476324e-05
2.24011777831e-05
1.17645739782e-05
0.0500391222867
0.000268221908969
0.0501142533791
2.94579037648e-05
2.51155536837e-05
3.19166015871e-05
3.06259493699e-05
-0.000185829573022
1.69030038389e-05
1.67787951333e-05
2.47097517511e-05
1.75262659366e-05
0.0500619881688
-0.000179874035541
-6.87473715013e-05
6.80212234977e-05
3.72884577678e-05
0.0125311217548
6.04100540291e-05
-4.21485111244e-05
-0.0118131511198
-3.52836962388e-06
0.0117956261828
-4.54131055601e-06
-5.39204673224e-05
2.61827883825e-05
0.0125296770717
-0.0125195101095
2.82321623333e-06
0.0125145142229
5.60777596212e-05
-3.70373605933e-05
0.000655305727309
-4.12014504931e-05
-3.75507073236e-05
-1.62982400053e-05
-9.19252552604e-05
5.39412330408e-05
2.33005597756e-07
7.49688380831e-07
-3.40973859586e-05
-3.66848230794e-05
-3.67489529168e-05
-4.54691951258e-05
0.000802578525234
6.59995648736e-05
-0.000771593276429
-1.03666783568e-10
9.8070969042e-08
-1.06163253426e-08
3.90152251363e-08
-8.79643614483e-11
1.02467785411e-10
-5.67148410712e-11
-6.63237159912e-11
-4.09516640055e-05
-4.01474977797e-05
-4.53562526857e-05
-9.30444778146e-05
7.70286129493e-05
-2.75169096158e-11
-2.41630197123e-09
1.0314751734e-10
-3.0193368536e-05
0.0126426975462
3.3879639322e-05
-0.0126463297285
-0.0126316878524
1.81520898883e-05
4.3267003539e-05
0.0126219652401
-4.31297913937e-05
-1.17819143797e-05
-2.81779760085e-05
0.011856273561
4.139555261e-06
-2.82228584726e-05
0.0118436849157
-0.0118840550154
-1.06949915571e-05
-0.0126449911717
-3.66010257011e-05
0.0118566889571
-9.64718230357e-06
0.0126265799831
4.06866465076e-05
0.012610671268
2.5326535025e-05
4.87828323235e-05
-4.65915941411e-05
-5.08389443945e-05
-0.0126117726384
0.0126001692108
4.88678615799e-05
-1.4278139185e-05
-3.25930664765e-05
5.21159802287e-06
-3.76161125087e-05
-0.0118665513901
0.0118601507759
-9.62914525134e-06
0.0125961342412
-5.28390573358e-05
-9.68861994036e-06
4.57965300295e-05
-0.0125824563428
4.2603653831e-05
5.82436556595e-05
0.0125691081181
-6.08026444077e-05
-5.51062023251e-05
0.0125864529908
5.26316220381e-05
-7.32432737139e-06
-3.94176818544e-05
0.0118504266807
3.85263763192e-06
-3.72250246406e-05
0.0118558870183
-1.08165694326e-05
-5.7672902536e-05
0.0118555790847
-1.18136371287e-05
0.0125720796648
5.49219701149e-05
4.84657601851e-05
-0.012559035787
0.0125455508394
6.02298557235e-05
-8.02226553128e-06
-0.0118438913727
0.0118389562305
3.31368632245e-06
-0.0118488443533
-1.16495294446e-05
0.0118450319981
4.37515255241e-05
6.19665373934e-05
-6.4845720532e-05
-5.39706560123e-06
-4.39172946163e-05
2.95836241463e-06
-1.09563642531e-05
5.72656801176e-05
3.13603620681e-05
-0.0125501024387
0.0125406323737
-3.99667462235e-05
-8.40423636506e-06
-0.0118444142976
0.0118409015922
-0.0118347503424
0.0118409765168
-1.05114077342e-05
-5.19607955662e-05
4.10630594292e-05
-0.0125661020597
-3.53708569959e-05
1.01763488655e-05
-0.0118343412149
-9.69924856874e-06
-0.0125621326095
-3.92752144258e-05
-0.0118500528932
6.5816346189e-07
-0.000120241577144
-7.60971177332e-05
2.17640479168e-07
-2.2195081505e-05
3.54091252746e-06
0.000584271738735
-0.000566849078392
6.28581797655e-05
1.13181555691e-08
2.91064497091e-07
4.51900395018e-08
-3.09686779586e-07
0.000597998777418
1.1360176174e-06
-6.17221354132e-06
-7.48676087115e-05
1.54112438446e-06
-0.000191836654927
0.000114864031935
-0.000604185433682
6.30911680734e-07
-7.533645871e-05
-2.06380763774e-05
3.68696800651e-06
0.000624434429135
-0.000179799636338
1.66327976977e-07
-4.77686133735e-08
-1.86153506208e-07
5.9161643766e-08
2.04000481841e-08
1.73400426946e-07
1.37703637262e-06
0.00081839566542
-2.6364742149e-05
-4.19708130682e-05
-2.44947837449e-05
-3.25445899466e-05
6.9838934681e-05
-8.72023272243e-10
3.60211030969e-07
1.1173765731e-07
1.45794668904e-09
-5.97690985574e-10
2.44702804872e-06
-0.000135920648361
-9.23843828867e-06
-2.04160184564e-05
-1.82744369064e-05
-3.37139632336e-05
0.000805352842722
5.72310008931e-05
-6.03086724545e-08
1.02980489454e-06
8.19997060282e-08
3.90897328424e-07
-5.34960279506e-05
-2.76141526395e-05
-4.58803683598e-05
0.000858586235896
-0.000131661472796
9.96581039368e-08
-1.74038538696e-10
4.17465710814e-05
-0.0126768663659
-2.77556237669e-05
0.0126793715956
-4.04158175277e-05
0.0127001757078
-1.98154409265e-05
3.18220392382e-05
-0.0126811063159
2.32372353562e-05
-1.7192267078e-06
0.0118520633206
-1.48642597986e-05
9.21065421581e-06
0.0117741769637
-0.0118826191891
1.97362532261e-06
0.0126959837509
3.97975629779e-05
-0.0126799769835
-3.3237559384e-05
0.0117803259921
-2.57383951654e-06
6.03261710759e-05
0.012685299881
-3.88545665285e-05
-4.91916805999e-05
-0.012682568853
-5.69992016786e-05
5.57951951353e-05
0.0126719373593
-1.5580417048e-05
-2.59192885876e-05
-7.60279809617e-06
-7.29110117281e-06
-0.0118460156513
-7.77295779494e-06
0.0118435000729
5.04369865332e-05
-5.75141705483e-05
0.0126730716621
-4.91447703826e-06
0.011803588505
-2.6027730549e-05
4.76423993076e-06
-0.0118815277884
-1.31210495143e-05
8.31570776321e-06
0.0118138597385
2.51971869136e-07
4.42055877711e-05
0.01265412687
-2.75477234405e-05
0.0126754548559
-2.41262046409e-05
-0.0126692255953
-1.83644867057e-05
-0.011855025996
0.0118527543094
0.0126641507762
-0.0117886063866
4.28648024687e-05
0.0125314859543
6.2928135189e-05
-6.2230276967e-06
0.0118288606402
1.94489982769e-06
0.0118410423768
-1.14230632766e-05
6.8687204013e-05
4.07388007346e-05
0.0125177820286
-7.07282705891e-05
-3.67310224504e-05
-1.55770764254e-06
0.0118249295561
4.00027021642e-07
0.0125199067042
6.42731985221e-05
0.011828906808
-1.03248208509e-05
7.12550597787e-05
0.0125068977702
2.8900162412e-05
-7.06283474091e-05
-0.0125079626964
-7.25657230708e-05
0.0124961089325
6.66235465854e-05
-4.00694898296e-05
-2.93037202841e-06
-1.63031199951e-06
-1.31449616034e-05
-0.0118142265918
-8.03913761738e-06
0.0118071356588
6.55101060757e-05
-6.80723292896e-05
0.0125010475196
-9.41004347568e-06
-0.0125278829678
1.55805212526e-05
5.69840481879e-05
-3.91160194214e-05
3.08102394703e-05
-4.00770897589e-05
-6.08657136634e-06
0.0118410552002
0.0118334858334
-9.59116698867e-06
9.00169922927e-06
0.0118277565473
-9.75711747462e-06
2.80956440311e-05
0.0125184638183
0.011834608742
0.0118252179542
1.07867395358e-05
-7.85816521372e-06
-6.40478299857e-06
5.99545905738e-06
0.011810888401
-8.01151768628e-06
5.151430983e-05
0.0125090967277
-3.57564643553e-05
0.0125086468979
2.00140103618e-05
-6.45768838746e-06
-0.011819854088
0.0118076993365
0.012503205054
-3.38950740974e-05
2.15657832839e-05
1.4519419425e-05
0.000937966273462
0.200044019462
-4.30855979375e-05
-0.000650181728162
-0.000224493632826
5.19572535598e-06
1.00562344347e-05
2.67658151222e-06
3.5694180449e-06
0.00026025599342
0.0499479067509
-4.03504727024e-05
0.000121630630727
1.10218972786e-06
-2.30834135622e-05
-2.53872373383e-05
-3.52449148078e-05
-0.000149636994732
0.000886444999986
-2.22306687443e-08
-1.37142259083e-07
-1.61158747435e-07
8.43604625735e-09
4.57468381953e-08
-1.24328813751e-07
-3.73229469791e-09
3.66814333511e-05
2.86777927971e-05
3.68158129978e-05
4.07910483399e-05
-0.000132980049949
0.000261817800872
0.0505151370518
-1.01852212929e-06
-9.77689281611e-06
2.37326658919e-05
0.0118526453197
0.0499841212877
1.11343979548e-05
1.1945712807e-05
8.77656756373e-06
7.76326343476e-06
-0.000164816273477
0.0499337119921
4.89302386764e-06
2.47099135855e-06
2.39969797305e-06
2.37392685574e-07
0.000196116606065
-0.000141336981063
-2.41819971888e-05
0.0117807756184
-5.90465786867e-07
-6.2260083841e-06
2.93304009692e-05
-8.48115678583e-06
4.04327751665e-06
0.0117803966816
-7.57443382017e-06
0.01173478192
4.12344131339e-06
1.01462616852e-06
7.23297947267e-06
-0.0117488993127
-4.42134568737e-06
0.0498713504734
-2.69076572369e-05
-1.12525518764e-05
-1.94195612433e-05
-1.59170042907e-05
8.9258203791e-05
0.000169061167668
-0.000122608841625
-5.47631534262e-05
-6.22375789795e-05
-7.04990103914e-05
-4.66278442977e-05
0.000172402480421
0.000141017958172
0.0498999682059
-0.000108070450125
1.97360888963e-06
4.51310867196e-06
8.02369031229e-06
0.0117110674745
-3.06339232363e-06
-2.07848067257e-06
6.54387820303e-05
7.52365776904e-07
-0.0116730331649
0.0116287904303
-2.45710465673e-06
-7.11459768463e-05
-3.99593268841e-05
-1.59882420317e-05
-0.000121779132482
0.00061916768402
2.88107485439e-07
0.000815595166452
2.41659871698e-06
-6.79752923243e-06
-1.23450891452e-05
-2.25740800767e-05
4.77539091018e-05
2.53676885952e-06
0.000822260097278
-8.768678195e-06
1.94913421047e-07
-2.45481860881e-05
-0.000103562132585
2.7637230989e-05
-1.0091954349e-07
-3.16320901895e-09
6.12494043563e-07
1.71797775912e-06
-1.50530547344e-07
3.39667905051e-07
1.80765223899e-06
-1.66803493956e-07
0.000786789409306
6.84981141885e-07
4.23533463047e-07
1.38098186083e-06
-7.84688500377e-05
3.30481934969e-06
7.56219069323e-06
3.34505500913e-06
9.63727577006e-07
1.47431794381e-06
-5.58713964094e-05
4.70158585516e-06
0.000681308179658
1.44152145211e-06
-0.012645855355
3.18508020237e-05
-5.58141146409e-05
7.23112786856e-05
0.0126341654257
5.76031099965e-05
0.0126493471164
-4.68004675025e-05
0.011805488389
1.11118672068e-05
5.52237018821e-06
-4.24280279054e-05
0.0118478648225
6.56112963382e-05
1.3405418245e-05
0.01181701306
0.0126325546342
6.23646292442e-05
-0.0124909162085
1.29483818657e-05
-5.90913887194e-05
0.0124798647099
0.0124838284611
-6.90192983444e-05
6.71069988613e-05
-8.87935285239e-06
3.2577870423e-06
-6.43666543537e-06
0.01177073789
-8.8374858386e-06
0.0117964904606
-7.39948148844e-06
6.53294638428e-05
0.0124746414549
-6.41600352143e-05
-6.60584644288e-06
0.0117754784949
-0.0124950613289
7.70844540853e-06
-4.74589117617e-05
0.0124868384485
4.81913977784e-05
0.0124981594449
-3.38827602244e-05
-9.63390655372e-07
0.0117981598124
8.32994868413e-06
2.53145502808e-07
0.0117600457262
-6.67183460247e-06
0.01177615198
0.012489787004
-3.11530179055e-05
0.0124740920587
5.84410011965e-06
-4.32182573102e-05
5.49267127394e-05
3.44837339411e-05
-0.0124815341683
0.0124740763972
-2.34981122821e-05
6.05203026707e-07
-0.0117446538035
0.0117303746158
7.7742126872e-06
1.04022541052e-05
7.02616820853e-06
-4.96478451635e-06
0.012464348028
4.7178035986e-05
6.64644939635e-06
-2.77085892446e-05
-0.0124512497899
-3.10647346307e-05
-2.24980848899e-05
0.012442259191
3.5689717215e-05
3.01608123158e-05
0.0124574697417
-2.03077293797e-05
1.75815590925e-05
0.011719789143
7.92179379116e-06
5.2826953156e-06
1.08095829515e-05
0.0116993987394
-3.36104767405e-06
4.14236060304e-05
0.0117006942906
6.09158579885e-06
0.0124470156514
-1.71937785969e-05
0.0124241444154
-4.61419411678e-05
-2.09224864706e-05
3.04994687746e-05
2.04010471979e-05
-0.0124289713223
0.0124287209635
-1.69135380568e-05
8.10820109951e-05
-0.0116734672489
-2.98023740093e-06
0.0116213815301
6.72859247883e-06
3.3226680259e-05
-4.27652133626e-06
2.82120026923e-05
0.0124270675126
2.09264094462e-06
-1.62872527769e-05
-0.000464467779965
-0.0495067958946
0.0494041691967
0.000576561789336
-1.35142294929e-05
1.92444103796e-06
-2.12533737428e-06
-4.9868120722e-06
8.9575039475e-06
-0.000586575972435
0.0499162386636
-3.29544440295e-05
-2.26572922917e-05
-2.10755760716e-05
-2.33545716308e-05
0.000108203608982
-0.0498426880627
0.000504721814584
-0.000907128310668
-0.050072359011
0.0503600531423
0.000740689574477
-6.64190872922e-05
-4.65150506158e-05
-4.69944967907e-05
-5.27566089456e-05
9.14168380701e-05
-0.000543035825195
-5.68116983198e-05
-4.33648950873e-05
-3.45564976974e-05
-4.64278037554e-05
0.000156392126986
0.0504455530516
0.000384807117643
-0.0502625947613
-8.08689462042e-06
3.51958780779e-05
-0.000526366836567
0.000485586938983
-4.2653330881e-05
3.55298057605e-07
1.01106935928e-08
-1.12268685091e-05
6.15611578755e-07
-6.549415011e-05
-0.000421808982491
0.000348328305897
-3.68673664051e-05
1.15216854225e-06
3.79898319193e-06
4.8722836758e-06
1.31946929598e-06
3.95859477055e-05
5.92555815091e-07
4.22458514412e-05
0.000562469388574
2.16492240689e-07
5.77257531711e-08
-2.44168224222e-05
9.29858423487e-07
-0.000585831693401
-2.93262713312e-05
-4.91043316647e-06
4.19855699363e-05
-0.000516416181358
0.000446633386346
-2.85214573448e-05
1.15371748168e-06
2.41993233917e-06
2.52049641714e-06
2.09794835664e-06
1.58143768518e-06
-2.13882335115e-06
1.07385427707e-07
-2.00846301461e-05
2.98102503221e-06
0.00046939010293
3.58508227872e-05
8.08424062749e-07
-0.000531799478387
-3.27947602491e-10
-3.104894825e-11
-4.91414174364e-10
-9.41309007151e-09
-2.46159758018e-09
-1.10059941627e-08
-2.3770592904e-11
9.88799341909e-12
-1.57287453439e-10
-3.25829040594e-08
-7.33445946339e-08
-3.39047378336e-08
-4.72242335306e-08
3.74744682821e-09
-3.75464916567e-10
6.35163093073e-11
3.09495345488e-10
-3.0010390263e-09
-1.9246938767e-08
-3.28431397267e-09
-2.65395159403e-08
1.57615845116e-10
3.90027698372e-09
-5.28064299473e-08
-4.11096344222e-08
-7.52064747536e-08
-5.76084857804e-08
8.26926229595e-09
2.51457273507e-08
-2.29123954726e-09
-3.18077919168e-08
-3.10221878081e-08
3.75405603153e-10
-3.04821332941e-10
-1.3176422586e-09
-1.09996488382e-07
-1.18152259468e-07
-1.23739931921e-07
-1.69813272188e-07
8.4291475392e-08
1.61771371709e-08
0.000210778578485
-2.07817987026e-06
-4.28041097711e-06
4.24296938629e-06
-3.35802538424e-06
0.0492869315443
3.40960034224e-05
-2.899567608e-05
-0.0494975189492
0.0493741546097
0.000335551272843
7.48193128856e-06
4.87460179943e-07
1.25079752448e-05
4.90408519812e-06
1.04337363623e-05
-0.049534957741
-4.66043199478e-07
7.89350705855e-06
-0.0121298849709
2.13728201896e-06
0.0121707516578
1.37267964684e-05
0.0121829550211
2.88035567856e-05
-4.85701535203e-07
4.10454295442e-06
-9.50135968277e-06
-0.0121355875108
2.05818268216e-05
1.68480259921e-05
2.29694475467e-05
1.77382946328e-05
-0.000270204993057
0.0123209908192
0.0122978213081
0.0122503769621
0.0123125345477
-8.00792953698e-05
4.13144420908e-05
1.23438029937e-05
-7.06308575232e-06
-2.56333770886e-05
0.0121952653
0.000414428505089
-5.52884918939e-06
-4.62180313803e-06
-1.09355833421e-06
8.27219286752e-07
3.32463252002e-05
-0.0496085741559
0.0496720876948
-5.55918131619e-06
-1.11874196514e-05
1.0347774675e-06
-5.49509911017e-06
3.75797120232e-05
-0.04971108158
0.000436951055025
0.0121812668869
-3.90259421321e-07
6.00336772103e-06
-0.0121320107921
3.98480524449e-05
0.0121439112553
-7.11108187741e-07
1.32891433299e-05
-3.0642950448e-05
-0.0121085467795
3.6642581952e-05
0.000804366474824
6.42239166295e-07
-8.45939423594e-06
-5.05230189397e-09
-1.09029708537e-05
0.049447868356
-0.000195261479914
-0.000172475891669
-0.000196011440237
-0.000165404323904
-3.65582853161e-05
-1.21505296173e-05
-3.06672337996e-05
-2.09576499009e-05
0.0496718110778
-1.20931719999e-05
-7.30929010096e-06
-2.96828649434e-06
-9.48888647044e-06
2.20304535494e-05
0.0498533800554
0.000728194914669
-9.15207439041e-06
-3.10857615107e-05
-1.78893287487e-05
-1.91414638729e-05
-2.82920579273e-05
2.28908786142e-06
0.012189369322
4.97938899009e-05
0.0121991102947
-3.46838410682e-07
3.5216598145e-05
-0.012179965671
7.48109917084e-05
-8.3391525785e-05
4.60570406212e-05
-2.51833708054e-07
1.8488439378e-05
-4.1693024718e-05
0.0121534096082
0.0121431816961
7.91195958455e-05
-8.41548675663e-07
5.53889965845e-05
-9.86171711471e-05
-0.0121195790228
0.0501712274787
-4.31524499332e-05
-2.42053980869e-05
-3.14017382186e-05
-3.12840985908e-05
-0.00101916675525
-7.55702595794e-05
0.00108511392086
-1.15349896767e-05
-5.50545174929e-05
-4.76741556141e-05
-2.03880100444e-05
0.0508003427761
-0.000163099208224
-0.00141641341927
1.59545268277e-05
0.0121173352844
7.65588260053e-05
-0.000102691931353
-2.94040111033e-06
9.62376063372e-05
-0.0120800087714
0.000150491282765
0.0121605029549
-0.000166792142909
9.19470116761e-05
3.92078965849e-05
4.27311759776e-05
-0.000131829300531
0.0120874017622
0.000117998403977
-3.43874284781e-06
0.000114746848634
-0.000144975342245
-0.0119863970209
0.0120600793376
0.00061507061957
-3.69102489581e-05
-4.44179843018e-05
-3.08450414669e-05
-3.67279202915e-05
0.000105931896262
0.0501983616183
-2.38033736694e-05
-3.60173866831e-05
-2.20496895217e-05
-2.50213399635e-05
7.48598773386e-05
-0.0500367928389
0.000485502557878
2.15227599848e-05
0.0121427001797
5.69445010137e-05
-0.0121281219857
0.0121224559344
-1.00459652099e-06
5.53179653292e-05
-0.0121000125936
6.56779768392e-05
0.0120614719381
-1.58344269099e-06
4.68661705577e-05
-5.35504310632e-05
-0.012034079206
5.40578805657e-05
0.000801820126383
-5.28921681625e-05
-7.1645600082e-05
-6.17057788324e-05
-4.54508363744e-05
0.0507466451752
0.000128412738928
0.0503949267785
-4.65688433558e-05
-3.39010422913e-05
-3.51082779379e-05
-2.88180709991e-05
0.000145611918104
-2.72060565773e-05
-3.86581259138e-05
-3.06991717001e-05
-2.16503363013e-05
0.0506612121442
0.000581584643114
7.22417594895e-05
4.69222577062e-05
0.0120861400962
7.25026585481e-05
-3.52738301271e-06
0.000105456503988
-0.0119728258648
0.000101990190015
0.0120364886206
5.80714450923e-05
-1.126638963e-06
4.72551885347e-05
-5.82339315234e-05
0.0120556194747
6.40043937182e-05
-2.7519211516e-06
5.53216002332e-05
-6.42561813674e-05
-0.0119172150572
0.0119678180543
5.22046897195e-05
0.0120504501396
7.13539053825e-05
-0.0120506783288
5.04789844834e-05
-0.0119169893631
0.0119640647621
-2.98416360218e-06
6.96705836482e-05
-4.97677064419e-05
-4.45068264113e-05
-3.07699973395e-05
3.41574497684e-07
0.000494318307991
2.73086435402e-05
-0.00051096334037
2.63023786432e-07
0.000506446760537
-5.01715525331e-05
-2.98534242013e-05
-2.79662028023e-05
-2.34753871541e-07
-0.000516186819846
2.76306100332e-08
3.04900117826e-07
-2.56973450765e-05
-3.28982873262e-06
1.7642885909e-07
3.04226134974e-05
0.000462875029384
1.00481483828e-09
2.44198392328e-09
-2.03253767086e-07
1.09181653976e-09
-3.18553335815e-09
8.04990865903e-09
1.63951476315e-08
-6.29526048633e-07
1.46209591948e-09
8.76884856959e-09
1.123820374e-08
-4.36723435217e-10
2.65246214564e-08
2.16241162514e-08
-6.42015120171e-07
6.88932104351e-08
1.29960501105e-08
-1.08193449784e-06
-4.52427346216e-09
1.93974767409e-08
1.5855603768e-07
-1.42029835938e-06
-1.14586709729e-08
7.75014071415e-08
2.9526326103e-08
-1.04376676552e-06
4.39702790835e-08
8.97734486059e-08
-9.60467900957e-07
-4.78650813667e-05
-3.38646294621e-05
-1.82901761486e-05
4.20959421949e-07
-7.52578920602e-12
-0.000533048171971
0.000559372371189
-1.93687704014e-05
-4.06485696947e-05
6.29581667859e-07
-0.000561935462478
-4.07116308691e-10
-4.12418613983e-05
-3.99910835356e-05
7.60506240162e-07
1.20192946896e-06
1.76746440939e-06
-3.36546958964e-05
3.47115666831e-05
0.00053024689807
2.8383196056e-07
-1.55447967694e-05
2.83169426696e-07
5.74938904475e-07
8.21007376168e-07
0.000477352114396
-4.99577958638e-05
1.44478134824e-06
1.47845317108e-06
-1.88696851813e-05
2.31965361129e-08
2.5076063551e-08
-3.01574014217e-11
6.36995199065e-08
6.68386944988e-08
7.32073054489e-08
5.32727503642e-08
-1.72164483507e-09
1.43510729428e-07
1.1461529444e-07
-2.6961754614e-05
8.70583030243e-07
8.59891654798e-06
6.20480110438e-06
-8.75148769404e-05
0.000301747765022
3.9421942988e-05
0.000405593096078
1.32843988276e-06
3.98875448716e-06
3.65130082432e-06
1.42499780101e-06
1.07515111032e-06
-2.06854550069e-05
4.26123488902e-06
7.10366338348e-06
-5.02682115313e-05
0.000342578628268
1.0903807652e-07
8.93545457607e-08
8.79433570782e-08
8.60188243923e-08
1.94617970336e-07
1.79701950385e-07
1.59243540444e-07
1.81402842948e-07
-3.99143923157e-05
7.40781162915e-07
7.34555473921e-07
1.2696615572e-06
1.88001536276e-07
6.21206208895e-07
0.000525406001962
6.04926675743e-07
-1.08537073697e-05
7.44066144674e-07
-0.000572282752367
-1.28423716083e-05
1.67178117733e-07
-3.0882745419e-08
6.90458577255e-08
1.61596182825e-07
3.78136141683e-07
7.88947611153e-07
-4.04869616376e-07
1.7546973611e-07
8.00441972983e-06
8.42856323953e-07
5.18616783248e-06
2.20841736656e-06
2.4311018755e-07
0.000384339190038
0.000472399982814
8.33332308559e-07
1.10008365766e-06
9.78061908975e-07
2.31970800903e-06
6.38205057377e-07
8.92801935044e-07
4.36240597264e-07
9.81212026241e-07
0.000402526130356
5.84257033131e-05
5.41308528716e-07
2.49578385016e-07
2.40086686237e-07
4.83113209719e-07
1.18083143334e-06
2.67275291981e-07
1.08357977155e-06
2.97097257662e-07
0.0123669407281
-7.53264882887e-06
-2.1149176524e-05
4.43433596546e-05
-0.0123846946147
3.30825186171e-05
-0.0123571477021
0.0123314481487
-3.74645555532e-06
-1.95801892725e-05
-6.62453587463e-06
1.14339607713e-05
-0.0121607634403
-1.4020289388e-05
-0.0121909925937
3.67793904139e-06
0.0121793754236
5.28160781854e-05
0.0123373119875
1.89601853233e-06
-0.0121692091784
-4.72170062833e-06
-0.0123836658239
0.0123743195278
6.43090195743e-05
3.64012328331e-06
-0.0123904868331
-6.88957192583e-05
-0.0123778070989
0.0123625377998
8.88174002195e-05
-2.17102334647e-05
-0.0121853920442
0.0121750588133
-1.17065625102e-05
-2.25639108602e-05
2.14669886428e-05
-0.0121517816684
0.0123488351071
7.69487206147e-05
-0.0123973866004
-0.0121763595299
-0.0123260134141
0.000102353688633
7.28660516415e-06
-7.51024444338e-05
0.0123120459222
-8.15678569771e-05
0.0123463819323
0.00010731792015
-2.48370057569e-05
0.0121781190072
-1.11397158246e-05
-2.98318841226e-06
-3.58964202343e-05
5.07539291027e-05
0.0121837003985
-6.05276558939e-05
0.000128977903868
0.0123343314865
-1.52152951209e-05
0.0122187170476
-8.14024604597e-05
0.0124112468618
-1.30599021952e-05
9.47567195697e-05
-0.0124170674591
-0.0123904663498
0.000101096046243
0.0123796727731
-1.07217001471e-05
1.22625134946e-05
-0.0121503108092
-3.70799335901e-06
-0.0121728593192
3.61044037033e-05
0.0121612424662
-0.0124068286869
0.000109552876158
0.0123998406897
2.55230278244e-05
-0.0121568433861
0.0124269850323
0.000105590964574
-1.32517875218e-05
-0.0124301554557
-0.000112572033011
-0.0124366635456
0.0124352946771
0.000116108032642
-5.20687180671e-06
-0.0121648529161
0.0121551826996
-6.81337807381e-06
-4.63193942362e-05
-0.0121504879388
2.99701475509e-05
0.0124195792753
-0.0124463331133
0.000102772166841
-0.0121440114556
-0.000139039039893
-0.0123891890036
-2.43577140395e-05
0.0123908920084
0.000148223932699
0.0123698066475
0.000121650670325
6.18731033967e-06
5.64470776093e-05
0.0121774682769
-9.01521400595e-07
0.0121519752032
4.76237469731e-05
0.0123637525896
0.000126188072348
0.0121940076352
5.86380571564e-05
-0.000167955325853
0.0123999549983
-1.75120697289e-05
0.000177116165684
-0.0123743830916
0.000194263867471
0.0123957765359
-0.000188783629456
2.33230825468e-05
8.83485043052e-05
-6.83102855767e-05
4.60757948105e-05
-0.0121611586104
8.96527369865e-05
0.0121134904451
-0.00015529330811
0.00020340634101
0.0124260200075
7.3967822999e-05
-0.0124134821065
0.000152368369358
-2.38096226662e-05
0.0124210866549
-0.000128121864951
0.0124370227706
0.00013757439874
-1.2627192345e-06
0.0121399360876
1.81477679887e-05
-5.92949594785e-05
0.0121315439809
5.77212570657e-05
0.0124434304388
0.000154465357472
0.0121792217769
0.0124311656856
0.000178215556006
-2.03860425157e-05
-0.000202145500355
-0.0124594134542
0.0124875308623
0.000198477083818
4.30334806732e-05
-0.0121523408997
0.012099892797
3.42284876201e-05
-6.63867806988e-05
7.02227065071e-05
0.0124575559604
0.000177401004781
-0.000268175418064
-0.0124658126519
-7.7318968674e-05
0.0125167704498
0.00026733246828
2.70526873617e-05
0.0124199915723
0.000223102820183
-7.60544629642e-06
-0.000223797505272
5.98134666571e-05
0.000152900121078
0.0120316296881
-0.000120639324828
7.02453755651e-05
0.0121319890246
0.000111578221289
0.0124715440954
9.00781580569e-06
-0.000268951623981
0.000234007032022
1.95903249103e-05
0.0121670439605
0.000125310516677
-0.00030310192701
-3.16384360846e-05
0.0125882971091
0.000292586772123
-2.96641108536e-05
-0.012568953781
0.000333803274031
0.0126894436931
-0.000353522297012
-4.19270453146e-06
9.43191697269e-05
0.000208211918777
-0.000151061189758
-0.0120314274395
5.44968584192e-05
0.000158774989821
0.0118802692478
-0.000305623231821
-4.32169666008e-07
0.000145862989567
0.000319474702094
0.0126766624406
-1.95697660536e-05
-0.0124988503073
0.000250615489116
-8.00017133472e-05
0.0125523929158
-0.000232628943713
0.0125159995403
0.000222715751212
7.13363421397e-05
0.0121091846579
6.64824267121e-05
-0.000102742801143
0.0119799515799
0.000105567440281
0.0125611823267
0.000240597598996
0.0121483765576
0.000265589417511
-4.15839379225e-05
0.0126090857185
-0.0126199910781
-0.00028144169437
0.000268426642025
0.0126931695504
-0.0120405131444
5.61790331952e-05
0.0118878033209
9.41757274781e-05
-0.000100065646931
0.000117085910931
0.000253659444404
0.012682136699
-0.000140950760986
-0.0124737004091
-3.2487967247e-05
0.0124854660844
0.000128729713185
0.0124605282403
0.000131894659476
-0.0124560008875
1.46644657852e-05
4.91197172209e-05
0.0121212583981
5.04972089563e-06
0.0120911652588
-0.0121338325078
3.97334020223e-05
0.0124674301342
-0.0124747444597
0.000114596814565
0.0121178981645
4.49030728482e-05
-0.000161380027267
0.0125009425391
-3.72698481258e-05
0.000146206355292
-0.0124820081671
0.00017886738318
0.0125127018566
2.95126225579e-05
6.21793607542e-05