/*--------------------------------*- C++ -*----------------------------------*\
| =========                 |                                                 |
| \\      /  F ield         | OpenFOAM: The Open Source CFD Toolbox           |
|  \\    /   O peration     | Version:  v1906                                 |
|   \\  /    A nd           | Web:      www.OpenFOAM.com                      |
|    \\/     M anipulation  |                                                 |
\*---------------------------------------------------------------------------*/
FoamFile
{
    version     2.0;
    format      ascii;
    class       volScalarField;
    location    "2.35";
    object      p;
}
// * * * * * * * * * * * * * * * * * * * * * * * * * * * * * * * * * * * * * //

dimensions      [1 -1 -2 0 0 0 0];


internalField   nonuniform List<scalar> 
28582
(
17108.0803662
17109.8460568
12209.7917147
12211.8878343
7310.89280408
7313.80930537
3635.32768811
3638.73710294
0.74765995724
3.89181015081
-26.9565238324
3636.88840038
603.895639399
606.566392477
3640.90101436
3641.12806058
607.683817201
1804.97369033
1805.12159105
17105.9444975
17111.7347307
17113.1505775
12207.3084651
12214.185559
12216.0048617
7307.8178903
7317.25304229
3631.83394162
3643.26778872
5.16646533578
-26.9698720678
-26.9706282944
3632.72819397
3633.46361024
602.813618789
603.81248143
1795.63287805
3645.84555652
3643.52706939
3646.14402482
1806.40954269
617.722255022
1806.59158408
1809.78227881
1.64576779226
4.16678874356
-23.3054461794
-23.2985191725
2.7108077384
-23.2901644597
1797.21958856
1798.27514477
604.283488836
603.268210091
1797.55595556
604.566418755
1798.08525041
1799.20952735
1799.94721431
605.145966984
606.429452857
1800.10057562
605.650280241
1798.92745326
1802.33852963
1801.06712728
608.64420665
607.472223396
1801.12628628
608.884193694
1802.18910319
1804.80965453
611.335530927
611.444321964
1803.63859421
609.968784381
610.134030511
1803.44531703
1805.16320192
611.734967023
612.002782393
1803.75244036
610.432116988
1803.64356024
610.421869261
1.06212453258
-23.2780528413
1.50277404159
1.79582502563
-23.2999187846
-23.2834699393
5.37474780779
-23.3045777518
-23.3038510555
6.85347536878
-23.298366874
6.71472331967
-23.304686008
1794.14974042
1793.35717108
602.429302848
602.014037935
1794.16103485
1794.02507648
603.297008586
1794.62497201
1795.06421778
602.746692853
603.357793522
1794.49602308
1795.60023155
603.368734409
602.443286369
603.539391901
1796.1627855
1795.03681934
603.243155725
1795.97677337
603.242227657
1806.19039211
612.684396184
612.953141083
1807.94577046
614.230353321
1807.70798498
614.43370919
1809.51119299
1810.84732158
616.065286053
617.907804672
1809.33990106
1811.07657513
616.102721036
1808.21354414
1806.66982449
613.224411278
613.499939537
615.016551158
1808.16163412
614.757631951
616.668896602
618.468050176
1811.3351672
1809.67691984
618.176936992
1811.21426282
616.316854189
7320.1868853
3648.25984005
8.52823873386
-27.006254783
3634.67005084
604.040737283
3648.51471279
3650.4977572
619.419476424
620.357574064
625.504561457
3651.79434154
3651.89050354
627.23088797
632.843262975
1.53500644976
8.86165824796
11.0126292342
-23.2929829481
-23.2799449238
-23.261769254
13.1056312656
15.4384052343
1797.33146104
1796.88096719
603.704443548
604.512436636
1796.51571768
605.091672732
1797.7527786
1813.90621916
1812.25528929
621.322295966
619.824275272
1813.73129651
1812.47388033
621.586217187
1814.02718761
1812.75378277
620.023279111
622.166096077
1812.59281961
621.943958276
1814.05925867
1815.3193306
1816.49541282
625.497527369
623.814254793
1816.57696926
623.698268353
1815.3544223
1818.75394227
1817.58941717
627.177699166
628.857740302
1817.75016618
628.915533868
1818.54061533
1819.50490014
1819.64255002
633.20348107
630.723239783
1819.63165282
631.016066193
1819.3218272
3650.60696136
3644.60736651
3641.94294837
3638.82518794
-8.45268485503
-6.11175752851
-7.18752028419
-4.50840830414
-3.945199994
-26.8396270574
-26.845208757
-26.8833628423
-26.9224308704
-26.948628249
-26.9951606334
3652.45256922
3651.30012991
604.106177556
603.066395077
3653.93556905
604.958346277
3649.19312766
3646.84302306
602.59538504
601.664644033
3650.9681353
3647.27093228
3646.87227225
604.560873796
606.089414196
603.13898631
604.435427011
3644.61272169
3640.60436945
607.96034686
606.479841794
606.653799572
604.936929105
3643.8144908
3641.61883442
602.554114457
603.888469752
602.752365891
3639.02025104
3640.03592598
3637.86574026
605.973939588
604.471712656
604.685537069
603.850927385
604.189869193
603.448405637
-8.37416921907
-8.59391360502
-8.76376541635
-23.3588287632
-23.3211110368
-23.3729095233
-23.3176535902
-23.2816683442
-23.2683441748
-23.2841298975
-23.2759305067
-8.46119856059
-7.9459855934
-7.7629439173
-7.83745630561
-6.99017600939
-23.3755295386
-23.3231384285
-23.3726114641
-23.3337442899
-3.8358661462
-5.24057180736
-3.22856404459
-23.292098871
-23.2832539661
-23.3049061214
-23.2868586306
-6.20979148624
-5.69411328354
-23.3574132222
-23.332592293
-23.3263019317
-2.65903794277
-4.0777959204
-2.44236548901
-23.3104562328
-23.2899500223
-23.3034653161
-23.2719211713
1814.19918365
1815.6988533
601.602087358
603.154757204
1815.58505882
604.375335115
1814.04658759
1813.8149771
1813.99273094
602.774930566
600.506584175
1814.9442109
1812.50849592
604.186811288
1818.45593463
1815.87025928
603.44297412
604.657583946
1816.56462546
1816.95831663
605.408700331
1811.12726874
1812.90730106
599.912671737
601.071268413
1811.7314516
1811.67473097
602.869456904
1810.01039944
1809.28267763
600.617791029
598.920170979
1810.45894247
1808.8604868
602.45814467
1813.6970999
1814.34106252
603.847806009
601.412858283
1815.2039109
1812.685113
603.927667845
1814.33535211
1816.30104031
604.054155264
604.961716821
1815.69568618
1813.50648279
605.7217117
1811.90463233
1809.92981079
600.865155162
601.552502838
1811.25839106
1809.66742611
603.407931333
1812.29576551
1809.93767495
603.942123509
601.114919931
1811.33672835
1809.40412189
605.086583093
1811.47442193
1815.82297356
606.876977672
603.969490392
1812.89160807
1812.00486137
606.670573825
1809.06187105
1805.79964347
603.606695926
603.347739177
1808.73644108
609.51770949
1803.16222492
1809.38268229
1809.32600173
602.886635794
603.413861084
1809.78023917
1806.42462219
606.00067362
1807.33079821
1802.22482003
602.645437256
600.133034465
1803.1102622
608.518087853
1801.99355535
1807.13572432
1808.44448054
600.847873024
598.893023915
1808.14983279
1806.90108471
602.084836617
1807.12276378
1808.13026363
600.60310537
601.27134731
1807.68531654
1805.84612827
603.707836185
1805.82577971
1804.21205119
600.54598184
598.028542538
1804.60167947
1804.129535
603.144667075
1804.49105818
1807.5991137
602.751403607
599.968826784
1804.92788921
1804.35241967
604.603313883
1803.27865562
1801.37785315
599.768550205
601.097675686
1801.85014686
606.613802899
1799.69177016
1803.34805639
1803.63855997
599.497095046
600.429964675
1803.13901959
1801.64326412
604.150256791
1802.43473377
1799.78423257
601.052746758
598.660193956
1800.11301144
605.921157014
1799.39656607
1801.05210046
1802.82116738
600.014530502
597.230119053
1801.10398105
1800.83803967
603.123248566
1799.47610114
598.525419798
1799.91417381
17107.1545805
17109.2584408
17111.3826951
17113.8641914
17113.495201
17111.7898467
12208.837525
12211.3020352
12213.8301102
12216.8642108
12216.2295994
12214.0123341
18318.5870045
18325.8526059
17106.0208936
17109.7542073
17112.067062
17113.1207504
17113.3233896
17111.6071909
18321.0906601
18327.2681998
17107.8561037
17110.5772997
17112.354001
17113.3209569
17113.4666996
17111.6615633
17101.8251601
17104.4111142
17107.9114204
17110.5977105
17112.4378715
17113.4612798
17113.5603793
17111.7225926
17104.212056
17105.9792767
17108.6750846
17111.0490381
17112.7238581
17113.6292303
17113.5571888
17111.8124768
17112.9680353
17113.7627016
17113.5455906
17111.8106845
13417.1907621
13425.4691091
12206.6291564
12211.4859717
12214.7678089
12216.0966315
12216.1051298
12213.9932805
13421.3670281
13427.6031767
12210.4684106
12213.2317636
12215.2449624
12216.3360251
12216.3034149
12214.1048835
12203.2338841
12206.1425418
12209.7082259
12212.930642
12215.2580229
12216.4854682
12216.4775545
12214.1980615
12205.6465977
12207.6578975
12210.7355213
12213.5242281
12215.5680581
12216.6702271
12216.4895933
12214.2510021
12215.745924
12216.7844276
12216.3658073
12214.1250604
8517.02885946
8526.59355506
7310.17819266
7315.21536788
7318.9511589
7320.76175676
7320.25365488
7316.37650997
8520.99484806
8528.66982602
7312.05379281
7316.0009468
7319.19798844
7320.94860249
7320.53470965
7316.55199311
7304.15499449
7307.55211546
7311.87546735
7316.10237876
7319.36973275
7321.16805099
7320.83469791
7316.84385497
7306.4625362
7306.36712663
7308.94700268
7312.81626696
7316.63115847
7319.64868686
7321.26978237
7320.78325899
7316.84000384
7309.90871236
7313.21046088
7316.85228607
7319.91415424
7321.30918585
7320.33394177
7316.26773453
7321.31268577
7320.00483628
7315.92300898
3618.20469386
3627.93436533
3635.08181221
3641.40001315
3646.63147304
3650.37205054
3650.85615381
3645.35773471
3618.93422776
3622.65812617
3630.02216512
3636.13705636
3641.87832323
3646.96650157
3650.75036527
3650.74690147
3644.9063774
3635.50525313
3628.07796744
3627.62077617
3632.1305049
3637.03129836
3642.24292182
3647.05328518
3650.94993051
3651.52815888
3645.73667016
3631.06952459
3630.35475665
3633.39999539
3637.83950732
3642.7434778
3647.33881926
3651.06438365
3651.88948709
3646.16203191
3634.07015262
3637.97725351
3642.77040211
3647.63051684
3651.402361
3651.07117791
3644.35919859
3651.88181266
3650.14895247
3643.03058084
4.64138879505
5.08037667711
6.50033585939
8.38693786106
12.7122050262
16.1335252134
21.3246985546
27.9863419401
-1.84018288463
1.49945044883
3.85251550419
4.83672129539
6.55973182362
8.90253555413
12.5451471821
15.9687559157
22.3443137194
28.24196551
-1.23040279449
1.16125540235
2.6155633466
3.56463955384
5.10455140159
7.9929941847
11.5911857573
14.6472908059
20.5659042548
27.1997484365
0.944438026538
1.90996614018
2.3694776872
4.02792236274
6.79297502198
10.2347365594
13.1480225753
18.4540657185
25.6054584569
2.28741994252
3.90376452424
5.98935430034
8.98713689446
12.4654604293
19.2034898254
24.8951391673
12.7802254715
19.7493481384
23.5463864441
-26.9724473834
-27.022202072
-27.011514005
-27.0348189487
-26.997403837
-27.0079591335
-27.0473753951
-27.1068915992
-27.2684268337
-27.5891543293
-26.9847708996
-27.0084646221
-27.0152968888
-27.029749191
-27.0110837548
-27.0130483448
-27.0468297749
-27.0950296875
-27.283251538
-27.583343713
-27.0218438837
-27.024792941
-27.0167635161
-27.0006113363
-26.9776099934
-26.9946049206
-27.0184984647
-27.0591177205
-27.1440670223
-27.4921739713
-27.0185622912
-26.9947399559
-26.9793746671
-26.9637496749
-26.9788249663
-27.0041463497
-27.0469318391
-27.117635805
-27.4567343088
-26.9738874397
-26.9554909103
-26.9787873781
-27.0110038335
-27.0624790397
-27.2537527748
-27.496527687
-27.0596724833
-27.2666768344
-27.5225127412
18322.0689861
18319.202224
18323.2529162
15867.904843
15872.2062869
15868.8075074
15873.0476475
18328.0776131
18326.5752028
18328.7621384
15875.9802117
15878.2110295
15876.4768784
15879.1890054
18324.4816321
18322.9442078
18325.3260474
15871.3146822
15874.6867065
15873.3585033
15876.0640999
18329.0900778
18327.7756642
18329.7743904
15877.660343
15879.6739063
15878.4329989
15880.4345885
13422.2041842
13418.0503533
13422.6098072
10966.9234601
10972.7461959
10968.0326078
10973.107248
13428.2376436
13425.8705528
13429.3874879
10976.1695221
10978.2209762
10976.6981646
10979.5482986
13424.581191
13423.9013739
13426.5062314
10970.9375237
10974.7642635
10974.4237863
10976.7903858
13430.3535255
13428.8350484
13431.3253102
10978.2108892
10980.7542953
10979.3210188
10981.7935751
8522.73526728
8518.58464655
8523.6885712
6067.4333174
6073.17175415
6068.90730782
6074.13583354
8529.17651792
8527.07240636
8530.62157262
6077.52835468
6080.4334439
6077.89868963
6081.86265731
8525.1592267
8524.63341599
8527.30721285
6071.92589387
6075.98099254
6074.78336015
6078.10543464
8531.43368766
8529.83126252
8532.31729648
6079.55243519
6082.9660866
6081.08597705
6083.93621596
3614.53458553
3617.10487187
597.745589165
599.073838725
3623.10362511
3620.39522525
3624.26165581
600.173806296
603.5800897
601.129066933
603.855085607
3631.53686023
3628.5942508
3632.23035491
604.847573297
608.899824889
604.943172362
608.899201401
3638.43419387
3635.33978784
3638.52195939
609.652308204
613.308604811
610.024445006
614.021994469
3644.21610825
3641.46538435
3644.30131952
614.770525617
620.50710084
615.506475124
620.985308989
3648.76415274
3646.80264333
3648.899462
622.402709934
627.65501379
622.892937671
628.143163189
3651.52094869
3650.47833825
3651.55451232
629.082077055
634.650397388
629.53129233
635.647241652
3648.42390171
3650.70634933
3647.95712444
637.186522964
638.034207592
637.962852598
636.598960684
3641.89778949
3644.93302752
3641.92596183
635.219793543
619.997666464
634.783346171
623.816121003
3635.70049778
3629.40513252
609.12645092
596.569524924
606.816555857
600.295478874
3619.27702759
3624.07697496
3623.02094745
599.815719072
599.350207439
602.046468735
600.923910178
3626.31645876
3625.24415905
3628.34912862
601.273479743
604.04892614
602.204576069
604.659328019
3633.22191449
3631.2131602
3633.88348425
605.206247034
608.98346611
605.74175288
608.501646328
3639.12177603
3636.58265822
3639.39394976
609.972169961
614.139719963
609.748325124
613.833951959
3644.5344239
3641.99566021
3644.62270626
615.645311594
621.035416611
615.428239137
620.607281206
3649.11971493
3647.0051954
3649.19498308
622.854400842
628.019277403
622.286350802
627.126381563
3651.67341733
3650.85213436
3651.94537976
629.447081063
635.78063376
628.61019787
635.085353771
3647.85855629
3651.14666837
3648.31186016
638.05857255
636.362692379
637.676637285
636.543798308
3642.15361148
3645.20580159
3642.23198962
634.656158418
624.669629029
634.464522247
624.936164484
3631.46319095
3635.27052983
3632.34672008
606.237481161
600.855241999
604.974315642
602.335629641
3626.56434636
3630.14731538
3628.98210907
602.822551619
601.576825662
603.303988582
602.631763065
3629.82441789
3629.3633341
3630.82541354
602.639006506
604.674820779
603.429937036
604.440670996
3634.55319305
3632.86880969
3635.13433041
605.585955165
608.265543532
605.313457749
607.661475032
3639.6854541
3637.53409142
3640.09745425
609.443608882
613.60477851
608.949420947
613.057299201
3644.68076387
3642.60817653
3645.04006855
615.149724806
620.339856445
614.602799222
619.594357335
3649.19490804
3647.2655656
3649.30108534
621.932464596
626.693709059
621.130355334
625.504967102
3652.14000778
3650.94933867
3652.27719156
628.089086861
634.517518956
626.838934757
632.756060517
3648.97013314
3651.86713516
3649.54895217
637.338998121
636.973825384
635.555190431
637.514116573
3642.2585599
3646.18237021
3642.26836898
634.656501767
624.347032676
635.150553794
622.60897073
604.642907967
602.402037575
3630.15974894
3630.94866797
603.792103863
602.458696407
602.855161851
3631.6346765
3631.20691736
3632.1673944
603.737456132
604.197586256
602.994009518
603.875722534
3635.55044644
3633.68687385
3635.6818446
605.280856888
607.491008195
604.394129347
607.305885405
3640.3091966
3637.88314553
3640.29183897
608.849343814
612.856359201
608.661986549
612.293147931
3645.09693645
3642.75364204
3645.26470533
614.395707202
619.324899335
613.716327018
618.439608728
3649.35357975
3647.50367942
3649.54103738
620.818077651
625.141688354
619.978573495
624.535366459
3652.31985093
3651.19337951
3652.30080406
626.449424981
632.337967157
625.969938138
632.351504654
3649.58295898
3651.6166712
3648.99765532
635.189076111
637.438982931
635.14886388
635.38915197
3642.17754828
3645.44579522
3641.89130993
635.070053174
622.102367459
632.907218996
621.199324033
3635.89478471
3636.37936806
604.393370949
607.162020261
606.740656443
3640.31447401
3638.34607527
3640.62029547
608.510865544
611.980702809
607.806848835
611.357582629
3645.34529636
3643.00372535
3645.59013741
613.351824095
618.006059113
612.707587891
617.650291031
3649.75353623
3647.9860176
3650.12891755
619.623541505
624.457721076
619.398557668
624.827765436
3652.20884228
3651.72552544
3652.12785367
625.980704414
632.756266394
626.684488942
633.721170953
3647.93682418
3650.47596955
3646.89282121
635.366993405
634.206179995
635.253908011
631.181653698
3641.47992284
3643.38552489
3641.19085037
631.813585384
621.155189066
629.722890315
620.032098066
3650.4173266
625.115674674
3651.99176483
626.87209741
633.585521233
3646.50479732
634.953170875
630.732796754
3641.18710372
629.320913712
619.534394919
-23.2568660068
-23.272918845
-23.2809320788
-23.2738755599
3.80876375956
3.48627578822
-23.2809712033
-23.2655122744
-23.2635199413
-23.2668214121
4.70876020109
4.40250851366
4.56853866092
-23.2642546308
-23.257392969
-23.2655947372
-23.2566358902
6.04317304227
5.02552542539
5.91494894251
-23.2563028184
-23.27857471
-23.2553715836
-23.2691665156
6.96077403595
6.76134894059
7.49817945461
-23.2923434188
-23.2833641489
-23.284610203
-23.2854390404
10.4457771346
8.79145577118
10.6164372864
-23.2719543238
-23.278511272
-23.2805383221
-23.2843577696
14.5727780385
12.6984980047
14.6223341811
-23.2884877799
-23.2885425338
-23.2901140458
-23.2934990174
18.0885054083
16.2035112252
18.2478960681
-23.2852063497
-23.2869908823
-23.2941052114
-23.2952448804
25.8198295094
22.2398696366
26.6798637741
-23.2958679244
-23.3096299632
-23.3020731229
-23.3143594841
27.7401197125
28.2554949414
27.5339038541
-23.362656641
-23.3719659111
-23.372409913
-23.3744001704
-0.160263424578
-1.60167879984
-0.0565535760804
-23.2743363873
-23.2636695255
-23.2664351118
-23.2599717113
3.08847690954
1.28039049246
2.53174039429
-23.2617845209
-23.268168237
-23.2598100482
-23.2655684455
4.29170109154
3.22097100596
3.71559914617
-23.2602786382
-23.2552929279
-23.2593705481
-23.2643441445
5.78160432871
4.33850213327
5.00055780661
-23.2600829697
-23.2799204297
-23.274358282
-23.2889565008
7.57667983837
5.94969100603
7.13599731844
-23.2875333775
-23.2914857432
-23.2939835611
-23.2931773581
10.6604015452
8.68610489996
10.3742942086
-23.2891200711
-23.2924624294
-23.2918835107
-23.2923089977
14.332768093
12.1815494586
13.8023650502
-23.2958252646
-23.2971909487
-23.2960152617
-23.2973649375
18.2094980139
15.4042267024
17.591463655
-23.2966705011
-23.2987294487
-23.2947913847
-23.2915688701
26.8687361084
21.727681042
26.3000447099
-23.302312769
-23.3135939803
-23.2928887101
-23.2937399019
27.4875537294
27.8681540849
27.3907899379
-23.3689357108
-23.3699122502
-23.3472074717
-23.3597306998
0.0524564764103
-1.07844144981
0.0530714268168
-23.2644108244
-23.2548507948
-23.2409857938
-23.2436234647
2.05060374874
0.987733529779
1.69094306781
-23.2572001127
-23.2619194303
-23.2485964577
-23.2664254051
3.07649326262
2.0836376446
2.46001928469
-23.2637978856
-23.2746629629
-23.2697137018
-23.295743484
4.14699470877
2.59947224143
3.24969920267
-23.2931928194
-23.3069812503
-23.307320076
-23.3190484065
6.41684290623
4.19770742119
5.5838121844
-23.3105783808
-23.2967398892
-23.2990286334
-23.28070324
9.84039395645
7.14320252752
9.00887139988
-23.2878544671
-23.2866196225
-23.2744472238
-23.2812986316
13.1754460969
10.8072881002
12.3169777312
-23.291915558
-23.2938262588
-23.2877574146
-23.2878102495
16.7152848627
13.7647844979
15.7831638401
-23.29064325
-23.2804464316
-23.2820278068
-23.2710846013
25.2318790851
19.289552593
24.0671887695
-23.2621554771
-23.2550182849
-23.2506299127
-23.2437039087
26.957065838
26.3546193947
26.2455357406
-23.3091456382
-23.326290774
-23.2990136499
-23.3141130979
1.33404810996
1.55773779126
-23.2675964224
-23.2774316234
-23.3118684859
1.9667551295
1.69831083905
2.0296181064
-23.2996643089
-23.3064771109
-23.3072631657
-23.2978767065
3.04042408029
2.46794566858
3.19739098787
-23.3101783562
-23.2987263401
-23.2845549679
-23.2809451342
5.3307743426
4.09873738125
5.21939152074
-23.2852343019
-23.2781746982
-23.2796236464
-23.2828660049
8.52281840038
6.4195439043
7.94843096679
-23.2788345854
-23.284219096
-23.2853624417
-23.290554299
11.7228964043
9.57230673487
11.1095752793
-23.2887985729
-23.2884757722
-23.2928964177
-23.2900051547
15.1413990622
12.6551847302
14.7999042664
-23.2846583785
-23.2765156468
-23.2849016301
-23.2768361469
23.2359125195
18.503908994
23.1225862631
-23.2517387534
-23.2450069379
-23.2610582408
-23.2525007079
25.5365705719
25.1890544114
25.0709393288
-23.2926845473
-23.3003582774
-23.3003585704
-23.3108164788
3.03316226138
2.29998436065
-23.2750855187
-23.2795534784
-23.2705269406
-23.2795875775
4.85189961789
3.12902983991
4.12661024599
-23.2876569681
-23.294499037
-23.2971097883
-23.2939848579
7.3741264364
5.36675955596
6.87087435038
-23.2949479912
-23.2975452512
-23.2924291156
-23.2971042495
10.6943508753
8.59699096117
10.3678517424
-23.2962839975
-23.2900933375
-23.2982933753
-23.294473662
15.0305679404
12.4673069548
15.747553628
-23.2820787745
-23.2783280694
-23.275732679
-23.2768742219
23.3404749262
19.9007415458
23.3363035428
-23.2837755238
-23.2862015138
-23.2908738499
-23.2930776036
24.735606659
24.4322383633
24.2452371041
-23.3238563899
-23.3344836807
-23.3387205249
-23.34928105
10.5924064481
-23.2769964246
16.0243725132
-23.2566367459
-23.2692168793
-23.2523554011
-23.2667325785
22.6657373726
-23.2973521569
-23.3033898056
-23.3029992914
-23.315771945
23.5015151252
-23.3574348463
-23.360062867
-23.3644105279
-23.3645563239
1777.69774048
1778.62150467
593.354848992
597.540077851
1779.06882012
597.539611192
1775.51396509
1778.9879677
1781.68641628
598.055273213
594.505882158
1780.16445899
1779.24385545
598.180257583
1783.49101409
1781.05751482
600.983755077
599.288252537
1781.02280322
601.261701569
1783.06833671
1785.82610472
1788.08635383
602.127511909
603.478092861
1788.10746733
602.322034848
1785.41043346
1784.36995378
1783.78244172
599.740515566
601.713184414
1782.02386915
1785.24023121
601.721469333
1786.58757162
1789.3632468
603.688421328
602.645140365
1788.63791897
1787.0998097
602.684850094
1792.29882225
1790.29625783
606.310875797
604.76922164
1790.18023946
606.120716602
1792.54806066
1794.07092464
1796.04723994
607.941511597
608.767568014
1795.88004741
607.496161962
1794.39529916
1792.6501854
1791.10684575
604.926665571
606.368344552
1790.61029378
1792.9792855
606.208482408
1794.42238465
1796.40841952
608.841783305
607.913195946
1796.16988009
1794.76796421
607.497701101
1799.34708309
1797.52016417
610.940386736
609.986634812
1797.57786057
611.052764808
1799.26765813
1801.00859701
1802.65035705
612.046294428
613.563965419
1802.6815868
612.240359397
1801.03123824
1799.45709831
1797.90491469
610.198971281
611.360725652
1797.78308237
1799.56368839
611.305705168
1801.07287552
1802.78403808
613.827891179
612.649688674
1802.70418835
1801.22312034
612.466779001
1805.98261194
1804.25911857
616.580053547
615.146605722
1804.41720646
616.843852303
1806.0827913
1807.59721729
1809.13481428
618.762854845
620.704595583
1809.23922712
618.711244532
1807.75150964
1806.05541865
1804.40812116
615.379390709
617.304798027
1804.41663942
1806.20107355
617.069623028
1807.69309222
1809.41657626
620.882027817
619.223290346
1809.36181041
1807.8988931
618.870131285
1812.19603175
1810.55758208
624.38494852
622.86791483
1810.80509274
624.619475082
1812.00445962
1813.57929358
1814.69042451
626.165256424
627.957915771
1814.88886727
626.331848972
1813.4378004
1812.38053999
1810.95462137
622.964231101
624.778509269
1810.94854379
1812.51187753
624.718797623
1813.72677469
1815.21300894
628.116412796
626.640688601
1815.06959622
1813.95550413
626.476875839
1817.13995884
1815.85628067
630.682490822
629.443719092
1816.09051238
630.958864782
1817.00170076
1818.14287385
1819.05809632
632.500321893
635.151315692
1819.26140044
632.78595156
1817.99259164
1817.3101648
1816.32921022
629.597133655
631.322726827
1816.27851645
1817.48056063
631.156683383
1818.29835081
1819.26994212
635.521040344
633.422560001
1819.30752997
1818.4808257
633.033055555
1817.89973476
1819.41129934
639.253871437
637.775274535
1819.39358555
639.316576443
1818.32693161
1814.41436683
1810.62476513
639.950420683
637.609102335
1809.92529957
639.358216069
1815.06112203
1817.28396653
1818.81100583
638.148414065
639.198465756
1819.13962903
1816.70435562
639.302018671
1813.65769074
1808.90447855
637.189423731
638.685679649
1809.28563332
1812.97887825
638.962432365
1802.71885935
1806.09994485
633.845122843
634.865469049
1805.7035674
633.816224817
1802.09683047
1800.66428162
1800.7435336
633.939597719
620.804373319
634.041885158
1801.5585863
1799.66724075
1803.08828383
1805.82772076
634.588495435
634.057040547
1805.51593035
1803.26423488
633.7876413
1801.6184694
1804.09829929
623.157716673
634.1812642
1802.06346411
633.63200005
1803.36434875
1794.63099165
1801.2246385
598.673382586
596.916939738
1792.98119245
602.576092759
1797.4310684
1791.077967
1783.29885075
590.225260912
595.310340911
1785.58868362
1785.8153031
604.122272704
1795.22592959
1799.54558474
596.62665284
599.007271152
1794.730701
602.394311999
1796.73959962
1792.56732269
1789.73115854
596.733967707
594.963618702
1787.88295001
1790.66747992
604.568130357
1782.75092024
1782.76885335
594.92990381
591.761521881
1780.35501817
1783.70980934
597.45876808
1783.96809442
1782.89886339
595.28735386
599.208080137
1780.88838127
1784.34047889
600.253243286
1784.99060754
1789.16779033
593.398205414
598.401572593
1785.98207048
1787.05838154
598.4856308
1785.87426626
1787.58641447
599.969221865
598.647650614
1785.95547929
1786.78093679
601.076468656
1787.42456444
1784.85557733
601.794733225
600.328870325
1786.17736477
1785.61358493
602.184178211
1789.10753557
1790.08572268
602.753924621
604.378300788
1787.92361928
1790.83335066
603.295220698
1788.6077305
1788.801158
600.806745956
602.621866276
1786.96483486
1789.71929479
602.485166296
1790.17981677
1792.47378961
604.584734898
603.518808883
1791.6619575
1790.92761753
603.665668522
1794.0159205
1791.78798704
606.481497072
605.6228123
1793.4596002
1792.43730456
606.600621155
1795.50206613
1796.70293392
608.014756667
609.046321783
1795.14663595
1796.96167288
607.826800251
1794.60212952
1793.80754878
605.650023941
606.626255977
1793.11160617
1795.0058331
606.600414381
1795.91276481
1797.67490062
608.759054052
607.497231606
1797.27313031
1796.24950216
607.579770859
1799.96811193
1798.17274663
611.334105776
610.199008365
1799.73647214
1798.45053926
611.286372692
1801.50317919
1802.96600644
612.787138509
614.1514705
1801.38418145
1803.0896212
612.58833702
1800.25768202
1799.07381183
610.017371649
611.037755941
1798.7415769
1800.47778069
611.133143273
1801.71910758
1803.46560177
613.965378918
612.348357271
1803.2375136
1801.93818872
612.398688582
1806.34720168
1804.56325395
617.395583715
615.7962491
1806.29590831
1804.73347184
617.403782861
1807.93914804
1809.51926528
619.262965042
620.967620373
1807.98632665
1809.54902244
619.129545565
1806.43300104
1804.95952169
615.680952415
617.141684315
1804.82723831
1806.53087936
617.318478583
1807.99197184
1809.60536105
620.73890346
618.914775738
1809.53796917
1808.11641085
618.971845588
1812.55692655
1811.01795075
624.695263311
622.888216955
1812.56517427
1811.10902963
624.556632361
1813.94577689
1815.31649457
626.496146727
627.85737992
1814.03895746
1815.3596738
626.194730955
1812.49488428
1811.00307866
622.611833033
623.975569156
1811.05800126
1812.46434948
624.268152932
1813.882252
1815.24121363
627.463252247
625.642573679
1815.29090667
1813.92893772
625.810623832
1817.70084327
1816.44596557
631.307081902
629.44312489
1817.60875877
1816.61468296
631.117588126
1818.75303014
1819.36572116
633.562684101
635.809001878
1818.61591424
1819.5781128
633.250561648
1817.71640523
1816.43039383
629.1049513
630.444009037
1816.59880182
1817.65589851
630.78222278
1818.87053488
1819.88220538
635.581939994
632.7741947
1819.78285256
1818.99680938
632.862317226
1816.66503453
1818.75760788
639.104211461
638.346032794
1816.45996657
1819.01087227
638.968511089
1812.82077822
1808.62967933
638.391560323
636.347541172
1812.66317413
1808.48395218
638.233306749
1817.06547535
1819.58530306
638.294231026
639.167507823
1819.31342769
1817.62128992
639.112667025
1813.21233485
1809.64244809
636.361433619
638.683372631
1808.80322881
1813.86335876
638.403995334
1803.82067739
1805.74854299
634.112381981
634.003075983
1803.55276157
1805.25555605
633.866146594
1803.46382609
1804.91864331
634.78155659
625.245736777
1802.7656257
634.95501344
1805.42414854
1803.85472374
1806.42746817
633.89080546
633.740567545
1805.448132
1803.87033563
633.671431111
1803.46666589
1805.25540346
625.355608344
634.327701389
1802.95236438
634.754068272
1805.48817878
1796.19662114
1799.69929135
599.623579801
597.789901689
1795.21261229
602.820418272
1796.71280163
1794.7965191
1791.304061
596.017352391
599.87173124
1791.64964302
1792.44956394
604.191818024
1796.44375403
1798.63159093
598.215900263
600.895125342
1796.45273818
602.873771447
1796.76313837
1795.51393855
1794.19358943
600.666638334
599.265733477
1793.17781791
1795.02015385
604.433068766
1790.57446677
1790.72448298
599.694452625
598.621438161
1788.89891976
1791.00481833
601.349346021
1790.61427857
1789.16479513
599.494806738
601.602716126
1788.57801864
1790.37989471
602.391143504
1791.69615478
1793.64347529
599.419233981
601.396734976
1791.82575911
1792.42634548
601.693304102
1791.72704818
1792.30176717
602.131298807
601.251813704
1791.47849742
1791.96495557
602.811295401
1791.83206808
1790.10567703
602.893985598
602.154137057
1790.77376842
1790.81169678
603.340424557
1792.84698699
1793.19371266
603.670676626
604.655014364
1791.81443796
1793.71696936
604.144118738
1792.54768879
1792.74490244
602.406367901
603.092926283
1791.72360626
1792.96423109
603.488135463
1793.45886585
1794.58470826
604.594299165
603.423168745
1794.2210428
1793.52287999
604.265211997
1796.00993982
1794.38313576
606.449194372
605.389798803
1795.46742229
1794.72302704
606.336230239
1797.18257517
1798.05763735
607.280241421
608.164929682
1796.65598533
1798.3289408
607.185925487
1796.37305222
1795.67954358