/*--------------------------------*- C++ -*----------------------------------*\
| =========                 |                                                 |
| \\      /  F ield         | OpenFOAM: The Open Source CFD Toolbox           |
|  \\    /   O peration     | Version:  v1906                                 |
|   \\  /    A nd           | Web:      www.OpenFOAM.com                      |
|    \\/     M anipulation  |                                                 |
\*---------------------------------------------------------------------------*/
FoamFile
{
    version     2.0;
    format      ascii;
    class       volScalarField;
    location    "10.2";
    object      p;
}
// * * * * * * * * * * * * * * * * * * * * * * * * * * * * * * * * * * * * * //

dimensions      [1 -1 -2 0 0 0 0];


internalField   nonuniform List<scalar> 
28582
(
17099.6662157
17098.6629159
12202.1185324
12200.963072
7305.28417845
7303.58352114
3634.15799068
3631.60291403
43.3465921689
49.2776804509
-27.129434885
3633.08545132
648.708164756
650.066553415
3630.06435913
3630.27418148
650.018231971
1793.39060765
1792.96976259
17098.926127
17097.9141356
17097.7657558
12201.1621105
12200.1116968
12199.8273566
7304.221008
7301.94412228
3631.89019797
3629.11924039
50.7593004351
-27.1348586405
-27.0744011714
3631.84001593
3633.25029982
646.555842433
646.612527464
1799.17237039
3628.66238701
3628.80219011
3628.45731841
1792.9007207
654.731906684
1792.23419391
1790.75275387
45.3453275625
50.4301029227
-22.8296951738
-22.8414237157
47.5988839092
-22.8759490177
1799.74987418
1800.26645201
649.352567685
649.235300166
1800.58007685
649.919779646
1799.41786609
1799.44202515
1797.32660354
649.907400134
650.824980466
1798.23002711
650.530109279
1798.56056478
1795.415914
1795.98213652
650.056630749
650.900749979
1796.83548379
650.93524285
1794.74579196
1793.50215886
650.835422022
651.341226074
1794.25809747
650.236548346
651.036214228
1793.91913372
1792.46894587
651.645846037
652.009355399
1794.26494115
652.367309196
1794.29334658
651.681138705
41.8629570276
-23.0646371426
41.7782307057
42.0690433724
-23.1900332546
-23.1056671429
51.5695973996
-22.8270220796
-22.8395609519
52.5480065257
-22.8456460152
52.3105240564
-22.8601639814
1797.82895535
1797.17518815
646.584913203
646.560488847
1797.09298747
1797.84156347
646.658671662
1797.58110007
1796.48072971
646.446712042
646.889310172
1796.77593701
1797.37655288
646.612269171
647.34830157
647.62997181
1799.1080325
1798.43473352
647.31139875
1798.28803559
647.072219144
1793.30844471
651.684322446
651.863288393
1792.7336848
652.658219614
1793.31092393
652.584210795
1792.74851064
1793.11342064
653.891602173
654.388373152
1793.23918838
1792.85448174
653.483223334
1790.67282185
1791.24299221
651.842513724
651.756464116
651.929121643
1791.97986722
652.333542032
652.484331164
653.669011426
1791.32801656
1792.03602995
654.113783703
1792.38879756
653.105305078
7301.26061267
3628.35721106
53.7740942908
-27.0664871878
3632.72781161
648.283591221
3628.51581525
3628.78917337
655.167477981
655.253103997
659.408432958
3628.70128158
3628.29761006
660.384328289
661.367101081
42.9310925255
54.3326881258
56.3389579059
-22.8761243711
-22.8559321846
-22.8775344455
58.0078000195
59.0797415211
1797.88463445
1799.03504095
647.971373233
648.970020895
1798.16186757
648.761467275
1798.7451647
1793.0300265
1792.91163121
655.528008904
655.299826497
1792.68902204
1792.99621835
656.020439058
1793.21103777
1792.03768078
655.356751234
656.725976032
1792.87809322
656.428447025
1792.84174685
1793.34195578
1793.78543421
658.366602606
658.192551541
1793.36494671
657.425000531
1793.44839336
1793.1770776
1793.90941721
659.157765101
661.046103928
1793.31084501
659.747603528
1793.8681693
1792.91361537
1793.03910693
660.280059877
661.35346425
1792.44135308
660.144722742
1793.57907515
3656.12354006
3644.36034529
3626.69987417
3624.24972911
26.1054422196
33.5846632154
27.9689192929
33.607205579
32.8855436855
-27.108600111
-27.3399993367
-27.0980569233
-27.249991883
-27.079428786
-27.1535227751
3662.74863723
3662.23042527
642.927221646
643.993485311
3660.74075339
648.063605644
3659.92507725
3655.92774996
644.697216084
643.317218503
3648.45791583
3649.9612207
3640.79496352
648.095366994
645.315424084
642.962211493
635.261670753
3629.76496585
3620.51690979
639.211128911
618.480656013
631.160706877
619.207071977
3635.33702747
3631.84187839
640.065950964
633.467843372
630.213611128
3620.3890883
3625.21575088
3620.86491954
629.910984012
620.285920411
627.356778767
623.353376232
626.679276702
624.222891208
19.0280116047
19.0426730613
24.8790984141
-23.1042031221
-23.0703877541
-23.0808436007
-23.0348097577
-22.9954127849
-23.0107425273
-22.9556261133
-22.9679138806
20.3193692431
22.5427117799
30.5541750514
26.9644228245
30.6623154242
-23.036700741
-22.9768136286
-22.9992692799
-22.945222644
35.4107331712
33.7182701524
35.1502155181
-22.8914816789
-22.808797971
-22.8840218628
-22.8257600084
31.2492042042
31.7383672384
-22.9404419949
-22.9113362197
-22.8975880681
34.8180437914
33.2743437045
34.321354561
-22.889145945
-22.8363860643
-22.8877211129
-22.8551103843
1830.37922959
1831.34193871
639.532251372
643.078650847
1831.90010323
639.3993062
1830.02121798
1830.53780444
1831.59320731
643.435777977
640.167041228
1831.97495762
1830.52920078
639.600522382
1831.39597062
1831.44651114
647.786051703
650.891995426
1832.47999691
1829.3657438
651.12272856
1829.20167055
1830.52663595
641.018424311
645.041573808
1830.05586927
1828.65288855
641.937004979
1827.41511999
1821.80740804
644.562705341
642.513238115
1825.65732456
1824.71491753
642.61211292
1821.44751058
1829.36870299
649.64968338
647.414241074
1825.92413658
1826.22326248
647.689710901
1814.48718687
1810.98681249
648.849601997
641.742264209
1819.73967642
1805.44414853
645.756786949
1816.43925339
1817.38922423
645.367682363
641.174388741
1822.05118745
1811.45226597
644.413494324
1809.3118079
1796.51657849
638.196820439
638.452376097
1800.61731002
1804.42103901
641.871243804
1784.23701912
1800.36864858
632.345460189
635.73210036
1788.36903254
1795.19047568
629.647661834
1775.0308498
1769.54057853
624.349018292
617.852659354
1777.67554641
623.063879803
1769.05318103
1781.57617396
1788.20632903
633.144763438
626.913195625
1791.16957355
1779.89821486
627.974745914
1773.80151388
1770.44967539
618.230027656
622.386038883
1773.49990316
622.551608783
1769.35758153
1803.83712995
1813.14204709
638.440971534
637.968483205
1807.29578348
1809.38100138
636.526958301
1797.74831359
1793.5971156
636.146797295
632.248797389
1800.69891745
1791.29453411
634.602017384
1795.50429476
1787.98453714
631.127412273
632.53487668
1789.48654751
1793.66119875
633.444743318
1778.80936505
1786.27067271
626.307894961
629.028530726
1779.11405089
1784.8311307
625.948906053
1774.9256591
1771.89772855
622.661940119
621.355574595
1773.98613027
622.900200417
1773.59398401
1778.65160717
1782.85638923
628.135904299
625.059835326
1783.73145476
1778.70723915
625.468028248
1775.92656352
1776.62165501
622.334628703
623.033664315
1776.91636296
622.939828651
1775.26867257
1778.95047427
1782.12766047
624.722094422
625.962857837
1778.90539857
1781.36636429
624.249486817
1778.00577359
623.24941647
1777.79147281
17097.8159
17096.8388614
17096.3911706
17097.9732226
17098.4102778
17107.4858656
12200.1647822
12199.2282621
12198.7579337
12199.7512905
12199.6834599
12208.7605443
18310.41972
18315.0443482
17088.2828066
17093.3936653
17097.4099868
17100.2623175
17105.2991785
17087.1126716
18312.0216614
18315.5481397
17093.2247472
17094.4132973
17095.000347
17094.5936296
17093.1271321
17103.4777586
17093.5010214
17092.8817632
17093.2817256
17094.0175882
17094.6560641
17094.6521912
17094.4921099
17106.1500507
17096.7639851
17095.5563901
17095.1591572
17095.4274479
17095.7474074
17095.5237803
17095.2243396
17106.7891893
17096.4439368
17096.5803564
17096.7994221
17107.1315537
13410.1373989
13414.8008552
12194.0275796
12196.7916969
12199.744698
12204.2234851
12242.8090089
12125.6263571
13413.7861469
13417.2464395
12198.1823696
12198.810374
12197.553365
12195.1433192
12189.8226673
12184.0958359
12194.7639404
12195.3799222
12196.4942069
12196.8490435
12196.0888707
12194.9291701
12193.0488537
12202.5147625
12198.6851137
12197.912046
12197.8319949
12197.9525008
12197.6654377
12196.5200764
12194.5563133
12205.0813318
12198.4847966
12197.99923
12197.2777195
12207.5737723
8509.59328395
8516.32758403
7297.7346678
7299.27441137
7300.09987484
7299.46324295
7307.1285409
7225.50507965
8514.10110772
8519.84428482
7295.77639085
7297.01252551
7295.72324061
7290.99736325
7278.98015553
7266.13820963
7296.92832476
7297.7972258
7297.91132909
7297.13030058
7295.72491969
7292.96045584
7286.27958455
7298.67379119
7301.40463001
7301.33629253
7300.32787921
7299.63643726
7299.11397722
7298.26704551
7295.85492342
7290.90598142
7302.09390413
7302.99444824
7301.61790163
7300.63416789
7299.77599688
7298.35071388
7295.27397224
7306.28077898
7300.35576516
7298.39140013
7308.36845197
3613.98728106
3621.39352761
3626.12269455
3629.12820684
3628.69500378
3627.3760135
3627.05827771
3600.87599728
3606.28246989
3616.47353569
3622.44816715
3625.38943603
3626.24302627
3624.02223067
3621.16363797
3617.13634482
3604.96057026
3617.09076893
3618.56546911
3622.37393369
3624.85898036
3625.9322604
3624.29484172
3621.30024367
3619.86402648
3617.80694539
3617.10622264
3625.38037975
3628.16320818
3628.07839994
3627.25213926
3625.96926909
3624.58737714
3623.02795725
3620.40289477
3620.64593293
3631.19390637
3629.42949557
3628.1087906
3627.2042145
3625.70790725
3623.85091252
3623.78345026
3627.67469971
3626.65954008
3627.03232757
51.1688808969
47.9706787201
45.6828271565
45.3427829159
48.5621221711
55.1173950186
61.5879163614
62.0186732364
37.3126093423
46.9832335723
52.9529216098
50.1463195138
48.5319849681
49.6052255908
54.0468787325
60.143549726
62.8950744003
61.0438849483
37.1794093938
44.8641508522
48.8011236804
47.9777123261
48.779958513
53.1206364558
58.7795850052
62.090206259
62.1380003582
61.0678677514
42.252396024
44.3005361609
45.0502142465
47.4036316129
51.7253437747
55.969740459
59.2001866405
60.3880988075
61.0158452846
43.3943221804
46.7025170221
50.4145416989
53.5820503757
56.1800846019
58.3529255079
60.4545527047
56.8088584337
58.4517149853
60.0457192381
-27.398156002
-27.1223376351
-27.0482507147
-27.0648747408
-27.0996017517
-27.124184095
-27.0974981827
-27.069811749
-27.2428087326
-27.8126472316
-27.7365817641
-27.489443545
-27.2625102776
-27.2190198256
-27.2248141729
-27.3821684123
-27.2252409217
-27.1228329397
-27.2370284282
-27.6751602106
-27.7112767242
-27.0173468644
-27.0974605636
-27.0522351941
-27.1534885713
-27.1160213228
-27.5558294801
-27.1204382291
-27.2921733354
-27.7157468209
-27.023516196
-27.1476845787
-27.1009194922
-27.205865258
-27.0732407809
-27.2381912994
-27.1136152122
-27.276980666
-27.7187452638
-27.1153846222
-27.1326767439
-27.2203559198
-27.1124460853
-27.1149409452
-27.2621979707
-27.7346663915
-27.1000975028
-27.2739683005
-27.8082737755
18312.9543741
18310.43852
18313.0306913
15860.629629
15863.3955528
15861.0350686
15863.4438652
18316.2574278
18315.3577869
18316.9225992
15865.4723635
15862.8745452
15865.1861898
15865.0704024
18313.6905416
18314.574048
18314.989053
15862.7205499
15864.753199
15865.0679711
15866.0984013
18316.9123178
18316.0463552
18317.3277965
15866.5513454
15867.1556696
15867.5833348
15868.937051
13412.926183
13411.3165987
13413.5678225
10959.4452074
10962.7938198
10961.0005195
10963.9414919
13415.9994344
13415.0134144
13417.1231991
10965.1057505
10966.5027185
10965.9141715
10966.8549116
13415.7098443
13415.6960924
13417.0586376
10963.9998628
10966.5379924
10966.2304428
10967.4773083
13418.2309205
13418.4835872
13422.5509673
10968.116003
10965.7443504
10968.5307916
10972.1648217
8513.5455506
8511.31787077
8514.90069874
6060.99281374
6065.509722
6062.48516054
6066.50281429
8518.15935553
8517.54176987
8519.23397461
6068.77264599
6071.04698591
6069.48420168
6072.6815832
8517.36134798
8516.70295437
8518.39371494
6064.8533531
6068.40735266
6067.20720712
6069.65906083
8517.27036004
8519.81523153
8522.52099107
6070.94028011
6071.59752492
6071.69242986
6074.34968361
3607.76936248
3609.17635374
642.097053489
645.175605206
3618.4418034
3615.09778807
3619.21188566
645.849410509
648.008467956
648.982636277
650.453772734
3624.05125359
3621.92623426
3624.1160355
647.679596247
646.746942754
649.985855179
648.623098694
3627.88703496
3625.65860869
3627.02328825
647.027059608
648.230617802
648.826095513
649.755795191
3629.34843208
3627.76512667
3627.40850133
649.038945367
651.030964201
650.394500222
651.730510176
3627.64060892
3626.33503888
3625.16837481
651.314100645
651.597082316
651.228909572
652.103008025
3627.80712975
3624.50386321
3624.24486255
652.471063483
659.525696154
653.61936321
659.636323048
3618.2690738
3623.2363815
3614.96367744
661.697196626
661.903471978
660.928917749
658.388450357
3578.62514505
3598.62438478
3599.90307769
661.319491666
618.808240377
656.883895334
638.47507296
3614.10994834
3612.30491886
614.854187553
627.200390071
619.079535381
633.24637533
3611.48374459
3613.24720858
3616.08176985
632.226209085
645.568098281
638.018659811
648.031103478
3620.01677916
3619.00032807
3621.33284251
649.250214315
650.701575386
649.855672694
650.148684698
3624.25545551
3623.45118849
3625.13222493
650.239432392
649.322229119
649.694889327
650.071602161
3626.00167829
3626.28256793
3626.37086574
649.766083122
650.606723037
650.569917469
651.067330979
3625.43416136
3625.56165194
3623.81121963
651.110096604
651.437261796
651.240519933
651.601267243
3622.41851732
3621.92572964
3620.41254496
650.877147422
652.658545376
651.685864291
655.895927578
3619.6516539
3619.4619511
3618.48191107
654.48436462
659.7318464
657.755635931
659.884107977
3612.52055769
3616.78562722
3614.138671
660.562082709
657.765107454
659.782375096
656.953796488
3621.90621134
3611.24835489
3629.92194588
656.293547824
640.926117072
655.987349096
641.561673788
3617.08127196
3619.25169605
3620.50648084
620.864360973
634.485890042
625.751726545
637.573377103
3620.87774313
3622.70083454
3624.68582371
639.127132684
648.592708769
641.348321661
648.237584123
3623.6950167
3625.58882898
3626.30664864
649.781876369
649.571903608
648.91197114
648.039278805
3625.59809374
3626.40886013
3626.38784562
649.110249735
649.697797179
647.498516639
648.063963544
3625.45775676
3626.33874872
3625.74030307
649.993396495
650.672496065
648.50682612
650.074786622
3622.71674786
3624.74644093
3623.64443663
650.970738187
651.756352339
650.812529306
653.154701431
3620.36254929
3622.73486858
3622.08724896
652.12115597
657.053626736
654.075786235
658.449403092
3619.03559128
3621.48675013
3620.25412545
658.731040814
659.539992485
659.42836772
658.397553855
3616.74677857
3618.93952869
3618.25298196
659.179250289
656.839914853
657.897400315
656.894631684
3632.39209655
3619.01699443
3632.38480876
656.212716565
641.076783512
656.778002546
637.66385831
627.094891443
638.347720343
3627.32524212
3629.37777008
641.92742049
647.823272977
646.791035736
3628.4548962
3630.22084506
3630.18866776
648.348792739
647.381093111
646.868362634
646.543297795
3627.59364999
3629.64998287
3628.95533239
647.137676756
648.106604632
647.047743347
648.725649727
3626.67566971
3628.40575617
3627.73913589
648.518378929
650.147720366
649.079557749
649.672958619
3625.22183154
3627.18436922
3626.62870941
650.961423754
652.912665654
650.559588268
653.616167185
3623.86059774
3626.27529489
3625.89482014
653.967960918
658.355809434
654.548315105
657.218571824
3621.67882129
3624.95041569
3623.41005645
658.947501864
658.043737809
657.233871411
657.68004253
3619.92461228
3622.16941687
3621.77388135
657.715276956
657.091789851
657.807008613
657.851171004
3632.53683284
3622.25232468
3632.81845955
657.264742633
636.162022549
658.242591684
633.832955048
3630.34182463
3631.78377026
647.289794693
648.881917461
649.674247437
3628.58034302
3630.62198943
3629.47441565
648.92218361
649.360416912
649.320249143
649.985496634
3627.63037573
3628.89303968
3628.55287983
650.479182938
654.561898469
651.047659335
654.955945675
3626.41053402
3627.9765311
3627.32003158
655.078787666
656.191746441
654.901462375
656.01193667
3624.78133176
3626.68607863
3625.98277144
656.880991483
658.034484008
656.882226758
658.759876542
3623.54569934
3625.27614215
3625.10810523
658.104990883
658.267222063
658.854918706
659.413560855
3633.62359118
3625.32912443
3634.84197202
658.767227168
634.102103544
659.829887106
635.632521846
3628.057145
656.704957839
3627.18292202
657.407913031
658.837998196
3626.57265875
659.051182388
659.47039626
3636.29628375
659.9045959
636.103308492
-23.0676219624
-23.0519536511
-22.9803791933
-23.0069876275
49.6972922763
51.0971205819
-23.0985349393
-23.1295428312
-23.0453076491
-23.0778999311
49.7695967051
52.7803964104
51.2646931744
-23.1091444292
-23.058477796
-23.090780636
-23.0384783577
46.3683614879
49.3479257314
47.7278677759
-23.055482901
-23.0427499845
-23.0429995349
-23.0417810797
44.8872479837
47.0464065839
46.4380156479
-23.0277597134
-22.9516396943
-23.0373539885
-22.9681914392
46.6420357997
47.2156092123
48.8895145713
-22.953728296
-22.9388868254
-22.9397205064
-22.9091507615
51.7067147171
50.9384542677
54.1314246936
-22.7693876969
-22.7198092326
-22.7490328358
-22.6967113477
58.8232504898
57.2685560736
60.74410754
-22.6879024566
-22.755670268
-22.6861946583
-22.7436109975
62.6240347014
62.3588004311
63.2739287729
-22.8105780245
-22.8315939479
-22.7969091129
-22.8362448455
65.661212721
61.1106188774
67.2805030198
-22.9272072521
-22.8021848268
-22.9414742972
-22.7697719865
42.2416325454
37.4442364407
42.2384569034
-22.9443420453
-23.0167645091
-22.9313343823
-23.0139781151
50.7654614039
46.2838169295
49.6435617454
-23.0457934297
-23.0614866455
-23.0969213504
-23.148588121
51.928646572
51.3194931655
50.8384866208
-23.0492500321
-23.0341497036
-23.1100243849
-23.0542626043
49.0721080907
49.6587403023
49.1031716615
-23.0402167233
-23.0409750348
-23.0615135761
-23.0460380538
48.512412136
49.0796394582
49.9686961048
-23.035857675
-22.9457856451
-23.0320697067
-22.9584592056
51.5336095291
52.0241506494
54.4757807493
-22.9192339511
-22.8381928017
-22.9185773866
-22.814771748
57.1678602802
57.1353166384
59.8839798241
-22.7463052346
-22.7477853806
-22.7213491686
-22.7481435503
62.5509198699
62.1844219178
63.1851586065
-22.7349394161
-22.7574098259
-22.7589860683
-22.7784393917
63.3858115186
62.7348767543
63.0844370684
-22.7907911067
-22.8239312105
-22.7952304604
-22.8127910859
67.0635605144
60.8508995573
65.6413731755
-22.9338094409
-22.7864306131
-22.9271271643
-22.7907560917
41.3705377485
36.9428204737
40.3754361954
-22.9565973417
-23.0863108604
-22.9603858063
-23.1198587597
48.1965847189
43.3904125218
45.7864698551
-23.1062412347
-23.1668317206
-23.1671210376
-23.2238422236
48.4480711588
46.2411316197
46.2603457591
-23.1553232549
-23.0970144827
-23.2158078036
-23.1494740137
48.0068881212
46.5068251329
46.8802523291
-23.0868616495
-23.0481745064
-23.1094176881
-23.049017317
50.541602743
48.093841669
50.0760156091
-23.0111026284
-22.9504018418
-23.0069292015
-22.9744012906
55.8189421876
52.8687457912
55.4702624851
-22.9033513625
-22.789703085
-22.934210013
-22.8196524219
61.2060923277
58.5045927121
60.159176728
-22.7920952915
-22.8361328971
-22.822471091
-22.87088231
62.6263783455
60.9785012318
61.6820202292
-22.7821230329
-22.807735518
-22.8098475273
-22.8414257748
62.8576900471
61.4528612942
62.3109637887
-22.8205058589
-22.8114393261
-22.8526992136
-22.8298492966
64.648061185
61.1388344353
63.794186781
-22.9128190787
-22.7985282982
-22.9165043142
-22.8197083474
43.9118485303
42.5352375423
-23.1627870094
-23.200707097
-23.1763500508
44.4018240852
42.7442723381
42.9254494552
-23.201373243
-23.1324143716
-23.1804345563
-23.1085082344
46.0465021483
44.0672492389
45.3689788744
-23.089549385
-23.0378325378
-23.0695187444
-23.0154288981
49.1325139896
46.980068104
48.532081101
-22.9924416419
-22.9606476027
-22.9708595114
-22.9327507058
53.4135447741
50.3925427954
52.2016378257
-22.9244365172
-22.8606645131
-22.8964730602
-22.8300275062
57.9670823781
54.1724388076
55.9428644089
-22.8161909941
-22.8552833837
-22.8408579323
-22.8772760962
60.2161852466
57.2471827577
58.7068105703
-22.8375140587
-22.8801993398
-22.8621492698
-22.9096789202
61.4067961882
59.2880355683
60.5102064879
-22.8922815316
-22.8718407464
-22.92774311
-22.9104814794
63.3431115682
60.6289375587
63.4709990015
-22.94189258
-22.8489491388
-22.9713176172
-22.881863451
44.9807546778
44.8359903659
-23.057365536
-22.9997038934
-23.0175573426
-22.9680844981
48.1501943818
46.9611557517
48.4935740086
-22.9369192865
-22.8688437319
-22.9078035937
-22.8347656172
52.3768253074
50.4494819411
52.3028015304
-22.8643483169
-22.8822810015
-22.8609080847
-22.9111275121
54.9636568957
53.4489508082
54.7459880797
-22.8864443155
-22.8980196148
-22.9109570901
-22.9216742289
57.6670406264
56.013683441
57.5510437428
-22.8902551259
-22.9274971838
-22.8931787051
-22.9239966696
59.9804161843
58.1065592224
59.9068820908
-22.9492940774
-22.9428786505
-22.9547218374
-22.9597560088
64.0397706017
60.3580031975
64.5834035494
-22.9973233496
-22.9152143454
-23.0173463822
-22.9431260657
55.4259728328
-22.8912916164
58.0579234363
-22.8719903042
-22.9040107617
-22.8628792754
-22.8900685303
60.0025945501
-22.9499072566
-22.9686001495
-22.9394808793
-22.9720036822
64.2102451247
-23.0425978115
-22.9432085444
-23.0552058549
-22.9474838963
1769.94055987
1775.28851174
636.842844152
643.030098658
1775.3016692
637.833624443
1770.00721953
1770.85661619
1777.44707208
644.260512498
640.407764935
1775.97909248
1772.76368785
639.115324633
1783.11137167
1779.62724137
647.572799139
646.953982595
1779.75993763
648.64678535
1782.91371513
1785.29985049
1786.5094642
648.106099742
648.791573212
1786.74000713
649.011388188
1785.10910188
1783.67374956
1781.23465352
648.261461444
650.528656278
1780.31005456
1784.14937149
649.868168428
1785.89210356
1787.55084047
649.806650044
650.742501565
1787.1981887
1786.20517322
650.121344157
1788.38823393
1787.53368544
647.221893303
648.446704766
1787.69612549
647.852163865
1788.38383203
1789.12596871
1790.17853199
646.761073925
647.243782976
1790.08694244
647.229102954
1789.22650475
1788.55103522
1788.25731205
649.385137294
649.299325304
1788.01551557
1788.6696078
648.646952872
1789.15724893
1789.99137781
647.90604384
648.663490521
1790.02247226
1789.2350104
647.921335949
1791.86006272
1791.17172535
647.375830278
647.58223384
1791.06219287
647.940727241
1792.04877378
1792.56929864
1793.57399198
647.595316198
648.714930301
1793.23216082
648.119973668
1792.84418593
1791.70315594
1790.80758028
648.192929007
649.222022451
1790.93579774
1791.55515069
648.586737827
1792.4245177
1792.72613113
649.240882431
649.416927532
1793.15340358
1792.19132359
648.785982686
1794.64805372
1794.20893458
649.795588957
649.436495011
1793.84519696
650.019738638
1794.78315737
1794.85824235
1795.48729544
650.524708313
651.366615491
1794.45853221
650.879855479
1795.50355829
1794.01549093
1793.06807358
649.849019537
651.002573896
1793.62843905
1792.94369392
650.58150883
1793.81011869
1791.10418715
651.618695536
651.699358357
1792.96603632
1792.30581403
651.436625508
1791.48117672
1794.51007089
651.335756262
651.416323539
1793.23801221
651.279601973
1792.88825637
1789.77216408
1789.66728836
651.214239029
651.680388437
1788.44211471
651.098385608
1791.17931812
1789.67506719
1789.42532885
651.300266333
650.992975117
1791.48062393
1787.63010778
651.138964039
1788.0162428
1785.36523659
651.789559938
651.106872289
1786.98543815
1786.12677794
651.03899715
1788.66804856
1789.21158053
654.389897233
652.751615857
1788.13645018
654.651266209
1789.70642491
1789.42586129
1791.82127944
656.953187076
659.593319001
1790.14950562
657.186274241
1790.65369522
1787.49376222
1785.60132431
653.1121177
655.589932493
1786.97702105
1786.04459683
655.026511611
1788.07243468
1786.74027206
659.620436429
657.900653823
1788.56175151
1786.39562561
657.567205044
1789.62971001
1792.37199816
662.762494534
661.443297762
1790.29964184
662.150200762
1792.13572926
1787.3346325
1785.3135258
662.81568514
660.274873116
1782.4897427
661.815838891
1790.31221145
1787.66448227
1786.71067685
661.136847434
661.296663105
1788.54097118
1785.74316721
661.703927749
1785.07772366
1779.23539178
659.072096
660.50096746
1780.44421921
1783.26602516
661.108986376
1768.46889741
1777.53643726
664.635965325
659.006079891
1775.74111064
661.230216269
1767.82882891
1759.17464777
1762.22062284
672.693207107
628.532206652
666.240578065
1770.63758442
1754.89555647
1769.4637015
1774.84133244
657.561650689
660.17801805
1774.84852457
1770.78313826
660.438602698
1761.6590765
1786.28929847
634.605489215
667.50451669
1764.39539142
668.13900969
1779.7038103
1764.92437341
1765.25748891
617.557289732
615.221060317
1762.60067369
619.081576299
1766.49518048
1765.77882286
1764.30774896
622.334773844
629.543685304
1762.43704522
1768.15218303
624.494445998
1767.50658641
1769.98395773
616.920559202
622.769581595
1770.16933081
621.04720244
1767.85922829
1769.10539244
1775.30447246
631.584487585
628.310748952
1771.9118919
1772.17570691
626.616987318
1774.29546902
1767.03868026
636.837390504
634.463715374
1770.83071199
1770.89969115
638.753913355
1777.54942353
1778.79321473
641.42292938
646.446006892
1774.86861521
1780.76692377
642.866704717
1777.48808907
1777.91016901
636.311509937
641.903455419
1774.4871471
1780.63916164
640.46398798
1780.31924229
1785.24821089
647.274107723
645.398890735
1782.92365393
1783.12671727
644.254907835
1785.30863965
1782.09455984
650.718926617
649.559249654
1784.53586187
1783.46920958
650.79897763
1786.66438931
1787.50619859
650.892702418
650.819685507
1786.30328676
1787.61855729
650.915126535
1786.18593771
1786.74022965
649.668126038
650.451096239
1784.90947706
1787.58699356
650.673041255
1787.15493701
1788.59340338
650.508274614
650.368761198
1787.91973959
1788.13054865
650.671757388
1788.78258218
1788.19418122
649.64913485
650.347920161
1788.60931936
1788.31766464
649.867790322
1789.29845619
1789.87715732
649.214013729
649.86813761
1789.14335731
1789.95343454
649.645673512
1789.03522928
1789.07033945
650.109380579
649.558070276
1788.55476481
1789.50664757
649.81527483
1789.61314284
1790.42879553
650.156659846
649.688034067
1790.19098016
1789.97784552
649.778631877
1791.26806478
1790.6181771
650.28296902
650.255564595
1791.33007838
1790.65702635
650.770468231
1791.45068631
1792.07661994
650.482431395
651.121544675
1791.78000239
1791.30639611
650.995616476
1791.05173334
1790.71680808
650.704042828
650.893465276
1790.71474575
1790.68821307
651.091456231
1790.87998006
1789.23806289
651.300042842
650.998986997
1790.220146
1790.17248754
651.257556452
1789.77559471
1792.05977097
651.416255247
651.436127889
1791.44089218
1790.84107126
651.542134326
1788.37016466
1788.90947726
651.620481449
651.083163354
1790.39334456
1786.7285237
651.420821653
1788.21554226
1788.2273004
651.504821334
651.374936895
1789.40088947
1787.00432791
651.484813796
1786.79596472
1784.24383229
651.347826352
651.495309579
1785.24717434
1785.5877308
651.443289662
1783.75976685
1787.21608878
650.830280968
650.642178397
1785.56666864
1785.06382049
651.04273606
1783.28943276
1784.14103622
651.264498015
653.435649888
1784.43407688
1783.37044433
651.874705756
1783.13834158
1783.5758131
651.147844117
652.460547575
1783.91539772
1783.34217028
651.719036848
1783.05406863
1783.45909302
654.595995471
653.977065152
1783.39798482
1783.38971262
652.688458085
1783.7712663
1784.39720686
656.436745518
655.232330813
1784.75504579
1783.54548315
657.111585244
1783.93730594
1785.06502883
658.37237832
659.864973185
1784.96521406
1783.97203045
658.872187055
1783.6251986
1783.60639567
656.511851112
658.995530184
1783.53915165
1783.76443213
658.153469784
1783.78330993
1783.39926182
659.960299523
659.665778229
1783.576447
1783.74975831
659.340614784
1782.25994937
1784.73740549
660.721130869
660.304816021
1783.52773706
1783.49509231
660.233800618
1780.32000765
1778.08863832
659.774640394
657.488790174
1781.20956743
1777.9405581
659.327959825
1781.59912597
1782.61320344
660.084412158
659.350120737
1782.88678899
1781.38538069
659.725419479
1779.9190754
1778.12168332
657.195836148
658.519735881
1778.03050717
1779.82359429
658.855241325
1773.63970343
1775.0710833
660.63740991
656.154607939
1772.3857835
1775.76350383
660.692031838
1768.9499542
1790.82917509
669.088812981
641.798457929
1767.58355074
668.891678548
1792.77516356
1774.37681362
1776.50633623
656.135523256
660.51853
1776.31924882
1774.68163751
660.686745392
1769.66300814
1792.69854561
641.81414201
667.745093523
1769.4141767
668.250432421
1793.28056733
1775.16405217
1771.91260916
624.551274693
622.632198404
1772.62179887
626.263470324
1773.94615684
1777.67588697
1778.05704948
629.804874465
635.664183776
1774.95762446
1780.68217822
631.228575891
1777.49022256
1776.98368733
624.355812678
629.389250654
1779.44050568
628.024224193
1775.90325315
1780.14648101
1785.23545458
636.70519504
633.894858168
1783.09566311
1782.39322147
632.671008768
1786.24557488
1780.76576671
642.949527661
640.112488301
1783.49500772
1783.43689076
643.77273717
1788.34941322
1787.54073871
646.387718599
648.743169496
1785.80370008
1789.75761547
646.931195733
1788.55999069
1787.85821782
640.749387752
644.584474592
1785.80886629
1790.49699039
644.264488979
1790.42948487
1792.92979296
648.503500757
646.884712684
1791.49053758
1792.14730865
646.953412978
1790.44936908
1788.59791735
650.094197333
649.651027739
1788.99391016
1790.34523362
649.810546165
1790.45094534
1789.4156506
649.902448892
649.070830118
1789.20125497
1790.40231303
649.475779492
1791.6963534
1793.09422304
649.235658077
649.061887685
1791.82105702
1792.7005214
649.394378395
1791.43509688
1792.26062225
648.534546176
648.712191791
1791.31931977
1792.33644226
649.112520663
1790.55132028
1789.71045802
649.12021631
648.584066049
1789.95233847
1790.4578489
648.617173781
1790.67058258
1790.54484766
649.366987034
649.082506388
1790.22844271
1790.71680693
648.797212632
1790.92610379
1791.89075795
648.00681855