/*--------------------------------*- C++ -*----------------------------------*\
| =========                 |                                                 |
| \\      /  F ield         | OpenFOAM: The Open Source CFD Toolbox           |
|  \\    /   O peration     | Version:  v1906                                 |
|   \\  /    A nd           | Web:      www.OpenFOAM.com                      |
|    \\/     M anipulation  |                                                 |
\*---------------------------------------------------------------------------*/
FoamFile
{
    version     2.0;
    format      ascii;
    class       volScalarField;
    location    "10.2";
    object      p_rgh;
}
// * * * * * * * * * * * * * * * * * * * * * * * * * * * * * * * * * * * * * //

dimensions      [1 -1 -2 0 0 0 0];


internalField   nonuniform List<scalar> 
28582
(
19548.6567327
19547.6443667
19549.0873115
19547.9100698
19550.2515576
19548.5514166
19552.5296884
19549.9847341
1145.22522205
1245.04821048
-0.112005773213
19551.4586236
17428.1707569
17314.40316
19548.4458729
19548.6781368
17244.954535
19525.2727818
19524.0535018
19547.9169683
19546.8872528
19546.7489713
19548.1347005
19547.0492391
19546.7801508
19549.1966557
19546.9177985
19550.2620206
19547.5087833
1276.72182844
-0.15735864049
-0.0969011714099
19550.1645578
19551.6562968
17423.9672383
17374.6982568
19531.6477429
19547.0555298
19547.2116402
19546.9279549
19525.0082011
17039.929683
19523.2914349
19519.3989733
1175.36173239
1266.05706344
11.2571746465
11.3532562233
1213.98122979
11.2643895603
19536.2059908
19538.1751068
17412.8550102
17444.2418442
19538.1539953
17422.8117837
19535.7265302
19537.106948
19532.0870079
17371.5729312
17323.7898596
19534.9807452
17379.5612974
19534.3471544
19529.2512549
19529.4672369
17175.9897901
17252.3149854
19532.2444682
17183.711674
19526.6075487
19524.7741138
17109.5033031
17094.6667295
19526.4138406
17134.5570274
17134.7870338
19524.9534141
19522.4761884
17064.2310036
17041.488486
19526.5819369
17112.4610782
19525.7580066
17115.8255644
1125.57812853
1.27275235179
1122.83783684
1128.30920132
0.857475308633
1.10172352888
1288.14213146
10.7112738694
8.95088237346
1304.5383348
10.2525971496
1303.25023568
8.34219828194
19531.1326244
19532.3492378
17410.5025176
17442.6562605
19530.3093951
19533.3151775
17432.9696372
19528.7221415
19525.7974955
17394.6047682
17401.305334
19528.1790295
19526.3065791
17419.7449515
17445.3424972
17435.971181
19531.5894986
19530.3909609
17416.5487042
19529.4048416
17432.5412654
19525.1768448
17084.2771492
17058.2965342
19525.5232676
17072.5594324
19526.2297494
17032.931286
19526.5935606
19527.4598066
17057.0244771
17013.7765497
19527.1167328
19527.7136115
17018.978787
19518.9832335
19519.5675754
17032.8410174
16999.4361258
16966.7579601
19523.2605527
17015.246278
16956.8111031
16950.7406813
19520.8764334
19524.0012876
17013.61601
19526.0425168
17014.6226104
19546.2382401
19546.747783
1328.83503911
-0.0889871877535
19551.1204644
17424.7550731
19547.0046127
19547.2802151
17009.8714771
16946.3999612
16906.4770183
19547.1668467
19546.7306757
16885.365877
16822.5171754
1143.58438948
1337.64234258
1373.95475856
7.74528715167
9.1817604273
9.19914560257
1403.45974879
1422.95186347
19526.8118346
19531.4707468
17401.9900271
17411.787686
19528.2929544
17389.3191519
19530.8432525
19528.1484779
19527.2427423
16969.5894999
16999.3921302
19526.802976
19528.2013705
16973.4690644
19527.4747484
19522.3719085
17003.1458187
16940.6844634
19527.2758644
16982.3102052
19523.27099
19526.9091594
19523.4257669
16918.0397642
16924.2495474
19525.8152698
16949.7956714
19523.6661338
19522.8735401
19522.677383
16889.2261783
16866.9475856
19524.4210724
16863.5975859
19521.5772734
19521.2303548
19518.6542224
16820.3835855
16844.5285896
19519.5953923
16843.5365016
19520.318092
19574.5336045
19562.8143578
19545.0233743
19542.6403306
837.538191675
963.805074587
865.687031124
964.29855519
951.695843799
-0.0210579146737
0.567903834717
0.0878523204022
0.041992987298
0.146997820806
0.0435740876931
19581.1532272
19580.6793266
18652.1207815
18680.733362
19579.1943818
18627.637894
19578.4324042
19574.4628525
18661.8343318
18447.2601222
19566.86292
19568.3168645
19558.9988229
18583.0515891
18069.8458378
18302.5194675
17684.335331
19547.9769002
19538.7146935
17778.4522188
16882.2515373
17454.2137864
16904.4279701
19553.6736554
19550.1443246
18167.0652882
17628.8968111
17496.0572227
19538.7044293
19543.5595622
19539.1625007
17436.0087124
16951.6914193
17361.1580658
17086.2852004
17357.7413731
17141.5402974
711.9562213
710.790443188
815.76523334
3.52942375459
6.50836229825
4.08718468755
7.1484636627
12.0662495229
28.426091623
11.20705566
23.436650608
733.624397501
774.659432626
913.081007638
850.556650625
913.337501496
5.26374012561
8.29068353153
6.77694091333
9.73546878491
995.157016
967.311341045
991.682333314
10.8972845519
19.337881946
12.0301447489
18.1898325563
923.466756415
931.25904449
8.71438284726
10.9496702831
11.6875107978
988.058961744
957.632599453
978.256442868
11.7091744698
14.3271631547
11.5868104523
12.9069780335
19583.272332
19582.8097123
18671.3395223
18669.4123653
19583.6554439
18687.2533984
19582.9866733
19583.8981353
19584.049233
18678.2044259
18707.112189
19584.0391048
19584.1820762
18698.6823453
19580.2064788
19582.1038605
18638.9364381
18557.7616132
19583.0361447
19579.1893175
18586.9732391
19582.9135323
19582.2675175
18698.2912205
18633.1817911
19583.6817386
19581.0151629
18683.4163502
19580.811109
19572.7676666
18548.4457092
18550.4724348
19577.3856774
19577.9640696
18628.1189116
19569.3593557
19579.7417003
18479.4961655
18533.2308445
19575.0975135
19576.7136146
18390.3925958
19560.5956786
19556.2611622
18300.656178
17922.2901947
19566.7635942
19548.0794258
18187.9761673
19563.7845567
19566.0769186
18426.5462573
18112.2008925
19571.1582891
19557.3029283
18255.6775859
19554.6178237
19536.6505321
17811.6714923
17902.3232591
19542.6039243
19547.8749967
18050.296018
19519.7667546
19543.2656888
17451.4185937
17625.0220235
19526.8427322
19534.2871999
17327.7349163
19506.5394968
19499.6107876
17150.0077463
16855.7965219
19511.3530795
17081.4457014
19497.8079515
19515.121596
19524.9315164
17545.9710931
17232.3427127
19529.1552749
19512.6319085
17288.2990315
19503.5942879
19499.6158707
16880.8301389
17066.296991
19503.2658335
17077.8829038
19496.9435134
19545.6987182
19559.8183211
17997.0958075
18043.5991874
19551.7356852
19553.9227836
17889.8830826
19537.6094235
19532.6927103
17815.5200229
17559.8910603
19543.0082176
19528.3926018
17726.4649772
19534.6364921
19524.3040937
17524.620151
17641.0990307
19525.9758926
19532.4442665
17681.3855262
19511.3511169
19522.505523
17238.8890661
17394.6819807
19512.2778461
19519.5863893
17237.8476925
19506.0812332
19502.6421901
17086.1298514
16989.5989083
19504.9805961
17116.0979933
19504.6051088
19512.1819083
19517.7051018
17381.3361358
17238.5553794
19518.4924667
19512.3276342
17242.7188497
19508.5707612
19510.8169941
17048.7762728
17157.8669039
19510.0032216
17138.6313468
19508.5271298
19513.0047914
19517.1960764
17253.8679557
17337.5291915
19513.414092
19515.7650476
17242.1681721
19513.0467743
17190.850127
19511.9821845
19546.805363
19545.8128161
19545.3642019
19546.9609674
19547.3970817
19556.4622898
19547.1269774
19546.1724509
19545.703018
19546.7200875
19546.6508015
19555.6905516
19534.9114957
19539.5398579
19537.1345832
19542.2665184
19546.3595441
19549.2383743
19554.2810834
19536.0864321
19536.5112899
19540.0396009
19542.2026438
19543.3668835
19543.9376432
19543.5309238
19542.0759359
19552.4565026
19542.4874716
19541.867349
19542.2507556
19542.9836871
19543.6326373
19543.6387253
19543.4826677
19555.1351406
19545.7536146
19544.5389882
19544.1277099
19544.4002226
19544.7345112
19544.5149084
19544.2117984
19555.768377
19545.4272999
19545.5714399
19545.7901036
19556.1112308
19532.6060157
19537.1416266
19539.8407251
19543.4920186
19546.7104794
19551.1956661
19589.63965
19472.2667851
19536.1271739
19539.6874874
19544.5871304
19545.2791121
19544.3864634
19542.1077588
19536.7856039
19531.0313466
19541.683935
19542.3029356
19543.3490154
19543.6671543
19542.9591252
19541.8785472
19540.0218246
19549.4841744
19545.6557659
19544.8717078
19544.7907272
19544.9145967
19544.6327976
19543.4915222
19541.5255375
19552.0396408
19545.4432285
19544.971984
19544.249078
19554.5208502
19529.8685002
19536.4770734
19541.4519981
19544.0688766
19545.0695242
19544.480841
19552.1102189
19470.338573
19533.574497
19540.1850553
19540.1964526
19541.6068308
19540.6330583
19535.9853494
19524.01102
19511.1597366
19541.9142563
19542.7624619
19542.8445169
19542.0654483
19540.6826186
19537.93719
19531.2740195
19543.6776629
19546.3736111
19546.2986272
19545.2922651
19544.6033006
19544.084817
19543.2429155
19540.8347531
19535.8891073
19547.0818894
19547.9634442
19546.5907443
19545.611269
19544.7565478
19543.3344957
19540.2598484
19551.2710225
19545.3281746
19543.3599005
19553.3441689
19532.1528524
19539.8648795
19544.4301132
19547.465455
19547.0968651
19545.7708024
19545.5820465
19519.4915034
19524.5612924
19534.6814733
19540.7934706
19543.767367
19544.5881827
19542.2906009
19539.2273603
19535.2137458
19522.9660726
19535.3808725
19536.9014567
19540.6807168
19543.1395558
19544.2320712
19542.5768244
19539.499428
19538.0243073
19535.9915606
19535.3192059
19543.7047415
19546.4515663
19546.3754906
19545.5890365
19544.3207917
19542.9408125
19541.3670426
19538.6648715
19538.8680951
19549.4511093
19547.6737705
19546.4153239
19545.5362211
19544.0079581
19542.0859554
19542.0272478
19546.023175
19545.0174508
19545.4586774
1291.11930187
1234.9005461
1196.08142651
1187.54351178
1226.20109129
1340.96184187
1464.21346122
1464.08136474
996.087655553
1198.43221516
1316.20568376
1277.46622682
1248.88920095
1255.71079163
1312.10333494
1437.82330157
1486.94033315
1456.92043925
1016.79475682
1179.21321704
1249.9050659
1234.82896642
1248.98545355
1316.47423579
1385.58642597
1474.18382595
1473.59873006
1455.17438068
1131.56460419
1167.86400827
1182.55147817
1224.40692385
1294.20383302
1346.52911933
1425.4054948
1446.52775388
1453.21546121
1152.46019294
1202.56252644
1245.46487972
1328.84562254
1373.41000194
1413.27493727
1444.64669072
1382.66617706
1415.07567863
1438.13539818
0.9367436308
-0.144837635137
-0.0707507146792
-0.0873747408281
-0.107661221416
0.0322835893993
-0.106783535085
-0.0923117490271
-0.265308732619
1.68321409989
2.01148280647
1.22757189011
0.024383329377
-0.241519825612
-0.244827108237
0.710309915069
0.55562512463
-0.145332939665
-0.25952842817
0.788461456741
1.08095139091
-0.0398468644212
-0.119960563609
-0.0747351941313
-0.175988571319
-0.0916890423723
2.15114678878
-0.142938229098
-0.314673335434
0.82810996891
-0.0286034232135
-0.170184578747
-0.123419492205
-0.228365258014
-0.0957407809349
0.694857340214
-0.136115212224
-0.299480666016
0.950821332602
-0.13788462221
0.0736020981428
0.933090310206
-0.134946085318
-0.137440945177
-0.284697970714
1.17550918315
-0.122597502771
-0.29646830054
1.66559598427
19537.4496357
19534.929962
19537.5231428
19534.1105222
19536.8820819
19534.5080889
19536.9303881
19540.7529369
19539.8519378
19541.4181089
19538.9476087
19536.1767041
19538.6687203
19538.5060354
19538.1798593
19539.0539906
19539.4681031
19536.1863147
19538.2299985
19538.5028461
19539.5352103
19541.4069593
19540.5298266
19541.8205605
19540.0288211
19540.6113387
19541.0492482
19542.4158013
19535.3920979
19533.7645632
19536.0426153
19530.86856
19534.2354721
19532.4258439
19535.3798732
19537.6341924
19537.4472403
19539.166016
19536.3521087
19536.941317
19537.0693237
19536.9506047
19538.1436481
19537.9667154
19539.380378
19535.0173127
19537.9381607
19537.2598612
19538.7624952
19540.6162243
19540.9277727
19545.0127746
19539.4851009
19536.7519328
19539.9543181
19543.6263711
19533.939378
19531.2461024
19535.2745531
19529.2611361
19534.7615862
19530.9551976
19535.7814657
19536.8932188
19537.6637961
19537.9129161
19537.8982879
19539.3849578
19538.728107
19541.3543568
19537.6715035
19536.8480345
19538.6986003
19533.6817148
19537.6617468
19536.5994159
19539.0376618
19537.1058158
19540.2212922
19542.975524
19540.3115575
19540.8547667
19541.1046958
19543.7908856
19524.6781907
19527.009085
16802.3806831
16787.0802102
19536.871752
19533.417918
19537.6658982
16873.0308813
17044.2259736
16846.135424
17003.1595707
19542.5058665
19540.4074979
19542.567899
17080.8398358
17173.33048
17037.2901704
17109.108431
19546.193125
19544.0882795
19545.4607639
17197.2254593
17292.9532463
17127.3726638
17201.0484864
19547.7141813
19546.1736754
19545.8047527
17301.5556369
17299.4695334
17197.7013357
17119.9921939
19546.0295742
19544.7455187
19543.5600863
17259.2948174
16964.5397535
17045.1237244
16744.8206515
19546.256288
19542.9224461
19542.6766205
16894.8138986
16795.9895651
16710.7192762
16636.6067907
19536.8880436
19541.7851539
19533.6550871
16762.7282086
16661.9784853
16638.8122489
16513.3769802
19496.5196423
19517.0918226
19517.843508
16689.9924736
16019.7952944
16573.3861091
16478.2649316
19532.4274614
19530.6883361
16804.4594293
16737.0708596
16908.3553213
16945.0635119
19529.6776728
19531.6222018
19534.4321009
16736.3430034
16822.1562
16967.0020477
16996.3738189
19538.2663949
19537.2655741
19539.5951258
16859.7493564
16976.711489
17006.4471878
17019.8600959
19542.6295366
19541.6845023
19543.3777937
17007.1726914
17080.8959062
17035.8423933
17085.1176425
19544.3639161
19544.5266138
19544.6269969
17105.3425493
17154.2677493
17101.9477832
17013.0151425
19543.738618
19543.8130001
19542.0229733
17146.5820137
17028.5841689
16956.0271629
16740.4330546
19540.5874596
19540.1245115
19538.5539725
16946.0802695
16692.1026213
16687.5178257
16578.5582964
19537.7304432
19537.5997498
19536.6235418
16654.757718
16593.4477347
16555.025626
16572.9979554
19530.5943571
19534.9494298
19532.3230704
16597.5888967
16478.9690836
16586.8141601
16470.1658432
19539.7519283
19529.3882299
19548.1288577
16550.4505198
16524.0414927
16560.7679742
16556.4808403
19535.4056332
19537.5900659
19538.8215596
16954.5824898
16996.5174283
17103.1691409
17200.9340902
19539.1894703
19541.0444637
19543.0564435
17031.6412398
17058.7373378
17225.8931382
17285.2711988
19541.9605344
19543.9017717
19544.6223894
17070.1831496
17063.7962731
17282.2045054
17230.9627532
19543.8856514
19544.6885634
19544.6750807
17073.5948477
17108.3091245
17200.2285416
17147.255164
19543.7541676
19544.6263612
19544.0236445
17094.7907639
16978.2607494
17113.30028
16980.602963
19540.9718294
19543.0289949
19541.8985615
16920.4056864
16706.0132701
16931.5204718
16794.1105938
19538.5613591
19540.9524051
19540.2825326
16683.270158
16609.7329003
16755.1863064
16762.1472258
19537.1926529
19539.6648048
19538.4443984
16596.0594573
16566.7015101
16741.0177464
16616.0817197
19534.9426851
19537.1372389
19536.4683311
16567.9794995
16464.4947066
16599.8183298
16482.9045588
19550.7133787
19537.2534655
19550.7313338
16557.4871179
16568.248584
16568.2364442
16525.0851391
17158.0683591
17255.200026
19545.592316
19547.7991754
17273.7890516
17320.8596147
17414.7184377
19546.7359975
19548.6072582
19548.5634953
17314.82247
17258.9147345
17401.0585181
17338.6254299
19545.915486
19548.0023571
19547.2960965
17231.4795296
17175.082649
17314.8362463
17245.0353741
19545.042659
19546.7466173
19546.0676185
17142.3017201
17031.279592
17202.4139745
17100.7651766
19543.5973863
19545.5197769
19544.9621627
16983.0275967
16861.595917
17081.1215405
17021.1399192
19542.2193407
19544.5980454
19544.2327038
16836.2262487
16802.9686254
17014.3900187
16938.5366998
19539.9801869
19543.2781757
19541.717459
16761.2168486
16641.5950036
16881.9361769
16757.1471273
19538.1636661
19540.4268384
19539.9801298
16629.6965833
16517.924872
16742.1329155
16618.8777253
19550.8386163
19540.4598955
19551.1155267
16589.5310675
16502.6223596
16668.4869766
16473.3237159
19548.5874009
19550.1712848
17354.1935137
17272.0622014
17312.385706
19546.8543708
19549.0050816
19547.8494906
17221.6860473
17124.0215129
17241.664974
17140.1872707
19545.9626328
19547.2822015
19546.9402992
17105.9526925
17059.6247285
17133.6283111
17068.5611837
19544.7381087
19546.3304974
19545.6233267
17012.4661193
16914.7805852
17013.298579
16918.2882071
19543.0591091
19544.9590256
19544.2356512
16903.8886528
16804.0453342
16907.7666364
16837.8463065
19541.7855433
19543.5146819
19543.3404303
16783.3692914
16645.9001389
16826.0080265
16690.1248408
19551.9389654
19543.5896178
19553.199104
16687.6723957
16457.171361
16723.0343905
16504.6295251
19546.4337891
16914.2631104
19545.5368462
16894.6252941
16823.4936434
19544.9707848
16819.739787
16696.976164
19554.7502962
16734.6932929
16542.2644183
29.2311651396
13.618389819
33.7754282596
16.8297559357
1264.74082085
1289.68318001
3.60538723526
2.68250935265
4.20816870604
3.26768163634
1265.18575825
1319.86095871
1291.68945304
2.7704960164
2.16434346488
3.65287076102
2.78895442382
1206.92718049
1259.12454053
1231.94229682
1.74151926279
1.05021324842
1.97338232383
1.07699534796
1179.60144804
1221.18723981
1207.31742172
1.13654589501
1.63709522693
1.13810326276
1.57493878125
1204.45617372
1217.65428365
1242.43550577
1.20281453449
5.33067404264
3.78458724401
8.21422475332
1278.52560906
1266.89255717
1321.6160543
11.6497458812
15.3027989624
14.5318404589
17.5626165552
1411.45176369
1380.14453323
1447.39034224
13.9632662133
12.18705266
14.8084443583
12.4561028975
1484.08598272
1476.89604241
1494.30556956
11.7221111062
12.715306764
11.9953818902
13.1504932676
1485.56591114
1454.34464105
1546.75896889
20.1057433427
57.2823599066
18.3091526137
29.568550147
1103.49054922
1003.63840551
1104.81101141
41.7515790257
33.8232671292
39.2602350333
29.3749045182
1264.7260727
1195.30343883
1259.56197554
19.8596961434
15.5395877366
10.5875014587
6.41647633467
1302.62092228
1294.60700821
1287.16129756
10.9164052179
5.48214528565
4.8821870916
3.24489801405
1258.52589756
1268.14590309
1258.60148541
1.26017850469
0.89845337271
1.69399444682
1.36329001356
1246.05857777
1257.14422505
1269.62124732
1.00404474443
2.55866594442
1.95332314019
4.64821612061
1278.77226664
1295.43436375
1326.66247068
7.18026087045
17.0927668396
11.8580485205
23.6386534122
1368.66942136
1363.87461888
1416.71295746
22.0944899672
23.6122557376
29.0975051195
27.4072546338
1481.38818379
1476.77110603
1493.00843042
14.7416152468
12.0328841187
14.2150729934
11.6061142235
1496.11670876
1483.83720222
1491.06354831
11.9708929036
13.0684069435
12.2990385628
12.991825922
1555.56648152
1453.24608122
1530.17687357
15.8426374235
20.8095413667
15.2233785321
19.8370499106
1106.9360562
1016.32201598
1090.35897422
28.9258054743
13.346313188
24.865033885
10.0684408416
1238.93895964
1151.16379058
1192.91337038
1.3557282402
0.999871305523
0.941731142893
0.701769988572
1244.64135832
1202.55857283
1203.70773689
1.35880474805
1.34199836121
0.947594760028
1.17287446727
1235.26969692
1208.41073028
1214.3183873
1.9286194023
1.95858052866
2.02363406068
2.20385175826
1277.67955741
1236.60635218
1270.09125693
2.66719311225
6.01909134293
2.83526381605
5.10347280725
1362.97866077
1313.2779022
1357.02025767
10.5508268106
15.71837467
9.04578052822
13.5511944446
1432.69845556
1382.90812154
1412.80116099
37.4096889199
36.3605227442
36.9226484331
32.265865453
1481.17274668
1455.35223662
1465.96316143
14.5748280589
12.265755791
13.087539575
11.2334628003
1487.90892348
1462.56621117
1479.87955197
12.2629075243
13.1915387879
11.4935104442
12.4421038884
1510.7224324
1455.25513285
1492.0027735
16.9844818572
20.6731069071
17.7033544429
22.5938964334
1158.01757405
1133.21115362
0.963728571251
0.70166209547
0.666567628461
1170.72362887
1140.09645142
1143.5921993
0.979409129416
1.3071877057
0.863148688851
1.15597745386
1199.7846493
1164.65861815
1187.43367418
2.12215582474
2.23977973296
1.85497932563
2.26991123587
1253.64172189
1216.31585255
1241.06809489
2.97079276473
4.41738401644
3.70704097366
6.26987697859
1320.8684528
1269.28598212
1298.75835495
7.40321387712
11.7113639309
8.52617203378
10.6289212171
1384.42464462
1320.96498825
1355.41640187
25.5298384639
23.8207846052
17.9581376008
15.813876149
1442.91990028
1390.81296608
1417.88269238
11.1604152876
9.58830311297
9.06366624763
7.84544045514
1466.41702446
1428.90106445
1452.22124001
9.64726985533
10.4374259573
7.79295780575
8.53846911344
1479.12927434
1446.47361508
1476.88519327
17.0293781756
25.3179894551
15.7467240979
30.5248542292
1179.47144818
1175.88948165
1.85263366355
2.77977479009
2.08557360962
3.6499096946
1218.2171116
1202.17154077
1214.16894201
7.613576673
15.7773185441
11.4188814653
22.8153057903
1288.85140201
1236.43977669
1290.56160443
23.0737464836
17.6452449064
29.3085983223
15.8203677448
1352.93151439
1325.52229023
1348.54715586
7.92496358712
7.18230896776
7.02240709276
6.54135246793
1400.51981496
1370.05794182
1398.68559041
7.20346482876
7.23487531605
6.96092018557
7.21757282387
1443.51106048
1409.59883768
1443.28929839
7.08003565782
7.66530496459
6.69716095538
7.17552572756
1481.87626275
1444.70311386
1488.28051187
14.7546874673
34.0774223816
13.944465195
39.1000764559
1358.50305426
8.09547268311
1405.2432906
8.43250669899
8.87273493748
9.75627707543
10.0345448197
1444.83657839
7.55677441075
7.82579377511
8.71722723771
8.4507925796
1472.30480425
14.2270543009
46.3415894219
13.3487134919
45.0987079221
19499.2623347
19505.8429434
16734.9714628
16768.5743209
19504.4317078
16688.0769776
19500.9175779
19498.8372777
19506.3197248
16756.7338981
16716.2271298
19503.7776331
19501.9108808
16683.2529778
19513.4558033
19510.3857164
16948.6732841
16848.4638054
19509.0586515
16921.1229149
19514.4969069
19516.6527359
19518.3671363
17004.8083435
17031.346849
19518.7013722
16979.9794254
19517.0435569
19513.0370557
19510.43367
16838.8529707
16900.7519703
19508.3968846
19514.0061595
16914.9403494
19516.6318513
19518.115925
17014.654034
16955.3816471
19518.0201107
19516.7788468
16968.9887559
19519.9877187
19519.2110533
17112.69738
17069.7666219
19519.5426582
17092.4971104
19519.6077265
19520.3841815
19521.3743844
17146.238384
17154.1643943
19521.3791926
17121.4891307
19520.3118329
19518.4647646
19518.67825
17055.6302736
17058.1743496
19518.5746772
19518.3503786
17076.6119489
19518.6047214
19518.5959795
17129.6152602
17087.3641357
19519.454879
19518.0059179
17101.3913687
19523.9477087
19522.7052099
17225.549592
17182.9029899
19522.6149032
17208.2519271
19524.0540882
19525.5825561
19528.0713042
17258.9941303
17266.2229512
19527.8497879
17234.6313086
19525.6589723
19522.2601346
19519.5798888
17158.9549837
17149.8189993
19520.6106469
19520.7107244
17185.7300818
19524.5770434
19525.1337676
17242.0969788
17171.0349105
19527.4943326
19522.222353
17209.8597106
19532.9852109
19531.0447142
17304.8823062
17275.1026235
19530.4947186
17278.9294931
19532.9000853
19534.2193919
19534.4986349
17306.0930705
17259.6613723
19533.2792732
17273.7195284
19534.4203999
19532.1838266
19528.6116069
17246.244841
17193.6693405
19530.399905
19530.1855606
17249.1742532
19532.4181844
19526.8581219
17189.7045448
17168.5350626
19530.6993776
19529.2982779
17226.5157837
19527.4613189
19533.1366673
17183.9486559
17213.3424291
19531.2358495
17125.4238703
19529.7788307
19522.3572051
19517.6381923
17077.3919304
16905.5269868
19515.5615487
17016.654177
19524.4711766
19523.5708754
19523.4707313
17128.3854223
16943.3644433
19527.7458224
19518.7227846
17040.5706958
19518.4272573
19508.2574435
16838.7526243
16846.1306152
19512.8676746
19513.4752852
16936.2695115
19505.2294456
19511.086
16839.8374631
16844.7136873
19509.3192374
16797.3810688
19507.1328317
19501.0898721
19502.8601218
16819.2026335
16747.0940021
19500.1762977
16768.6575363
19503.1151744
19503.7615961
19503.1521682
16795.3194498
16685.5739201
19507.9946555
19498.9644133
16761.1077234
19499.2151206
19493.32033
16702.7109072
16645.9585644
19497.8746037
19494.6378766
16727.3496774
19500.6854762
19503.6516716
16758.1547743
16720.6436049
19500.4099847
16713.7745094
19504.544114
19500.2858566
19504.2240193
16715.9655269
16596.124922
19499.8409766
16663.6712314
19504.7191871
19497.9233656
19493.4867277
16682.0624476
16650.0046998
19497.8426287
19494.0259666
16681.9969595
19496.7876578
19494.3489133
16542.7955754
16595.1527787
19496.4146743
19493.7197
16624.2717911
19476.862822
19494.940538
16581.2889797
16624.4788336
19491.9502692
16533.1176423
19476.4719699
19436.7047645
19434.8505373
16020.2529886
16325.4571836
16025.1224265
19456.1425186
19420.7400367
19475.9445731
19489.4171668
16596.4484434
16527.9193755
19489.9488467
19478.0281513
16526.2093133
19437.1425756
19476.6807437
16417.3861975
16025.5095226
19445.468427
15967.5011929
19465.2877169
19493.1647647
19492.6311905
16742.7245587
16797.6965251
19491.752766
16774.9697482
19492.8495339
19495.0189418
19493.6909179
16725.1451516
16814.5074867
19492.1231035
19498.0048973
16787.1475426
19495.3636407
19498.2043944
16860.7819606
16894.4485295
19499.7157269
16841.1155017
19494.3082607
19498.4417906
19505.762097
16886.0549133
16904.5147944
19501.711721
19502.5645389
16854.0036963
19503.5256501
19495.973925
16747.1244598
16819.8612652
19499.0937899
19500.6343689
16830.7621639
19505.7201362
19505.1944477
16770.5985451
16891.0859134
19501.7946244
19508.0348915
16851.02951
19505.8341311
19508.1423912
16890.0157403
16975.3858868
19503.9128879
19510.1713799
16896.0173841
19507.0721563
19511.7283182
16934.7951693
16978.6301919
19508.4760829
19511.1476922
16907.6080125
19510.0770417
19508.1171071
16895.064177
16908.8306676
19509.6123399
19509.5990632
16922.7402551
19509.6851431
19510.4061026
16935.0532168
16968.8661416
19510.0702
19508.9229737
16943.4811701
19508.3335514
19511.7559504
16941.8564903
17011.0258881
19508.9539962
19511.0162655
16945.6659376
19507.1263872
19508.6303366
16980.338583
17014.8641124
19506.3301799
19509.613372
16958.7593467
19507.8634095
19510.4604897
17023.0819331
16997.6039464
19509.82576
19508.4526515
17015.3724667
19507.7505923
19509.8378019
17050.0711143
17059.926184
19509.3289304
19507.7699587
17037.4868335
19506.5871962
19508.7653349
17004.5273942
17052.1917812
19506.4265985
19509.1103518
17021.1848363
19507.0289694
19509.6306795
17064.7479528
17068.9802862
19507.4176542
19509.5183773
17041.3557968
19508.8077545
19510.625824
17131.4427801
17084.599387
19511.6174811
19508.1221522
17124.3964232
19510.0416458
19516.0153161
17136.7973676
17118.3791329
19513.1336518
19511.5929187
17125.720665
19509.3869125
19509.9125707
17086.1033698
17098.4890837
19508.2165411
19510.2098099
17112.5808118
19510.3732441
19509.637035
17057.7621062
17066.4290773
19510.7770457
19510.2131371
17088.94355
19513.6653001
19520.1647613
17134.457919
17099.437538
19520.4904851
19513.7537848
17060.8831767
19511.9463274
19515.5351195
17092.3379339
16911.6324745
19518.9427114
19508.3067302
16999.4620595
19510.1126557
19508.7175465
17018.7386749
16887.8803087
19511.292246
19507.0519913
16970.7955576
19508.2555348
19501.8825048
16832.20256
16816.823272
19505.3019553
19504.6983478
16908.3330518
19498.5997749
19511.3300677
16847.0539105
16823.9778326
19506.1892057
19503.5546988
16733.1074349
19493.6714945
19496.4894041
16766.8449033
16617.8389659
19501.1025859
19490.0659058
16678.8820236
19498.5266454
19499.131308
16757.7737369
16629.0851236
19501.9911895
19496.9909023
16676.9142095
19494.9671756
19491.4266766
16600.2483783
16600.2661172
19492.1289685
19494.0994863
16637.9687811
19482.369697
19491.9825995
16630.4076278
16578.519732
19488.3021601
19485.8882864
16561.1555288
19481.6987665
19485.1556344
16599.8642725
16564.4206004
19485.3231015
19481.9316005
16560.393557
19486.4839296
19488.6327994
16559.108307
16555.9927062
19488.9552831
19487.3609381
16548.3342824
19485.1555234
19486.7200059
16553.6779941
16561.2896793
19484.7164642
19487.0662371
16550.7204025
19482.214979
19485.1673414
16615.1173026
16574.0053746
19485.7651086
19482.0157266
16605.7194398
19480.5883689
19481.4731735
16562.2856117
16480.7897474
19483.4987945
19479.6865874
16554.6296454
19483.1597685
19485.8271586
16559.4573046
16592.4498147
19483.9879454
19484.6615927
16579.1901655
19482.0476082
19483.3773464
16471.6285025
16539.6237955
19482.9852729
19483.0401798
16534.0882159
19468.7892738
19477.5997582
16531.5188635
16560.8866317
19468.2923918
19476.8647434
16551.2203471
19445.9057792
19478.1664916
16065.5502719
16538.5572444
19443.2590769
16109.5299751
19482.3194542
19475.0833926
19481.8238242
16557.2160743
16557.0577045
19481.4882764
19475.5521272
16551.6904021
19456.3641595
19493.2235615
16547.7457638
16155.7727185
19457.0986663
16142.9692529
19491.27495
19507.0693134
19502.228084
16946.1834214
17005.7263392
19503.8558864
17017.5806794
19505.5105024
19510.171252
19509.3632618
16957.546568
17062.5467859
19506.3063187
19512.9093103
17029.3092648
19511.5368455
19511.4658828
17068.8240758
17148.748731
19514.2212003
17095.9159729
19509.6749963
19514.0006305
19519.6606386
17133.8054753
17179.7250209
19516.6142602
19517.3596952
17110.884777
19517.2322146
19511.7492867
17044.3104707
17102.9856686
19513.9212832
19515.0853064
17133.5172684
19518.3914484
19514.6745697
17046.3205046
17145.3053696
19514.5729239
19518.7699849
17136.0992631
19520.478836
19521.0837533
17168.2268504
17269.6488867
19518.3613768
19523.5061015
17205.4647169
19521.6932677
19525.7133638
17206.677811
17282.648552
19522.2637276
19525.1312103
17205.7665246
19518.6659031
19514.8882013
17068.2368928
17153.4952755
19515.0414242
19518.569434
17156.4929955
19518.867838
19514.6573559
17064.9047338
17137.783737
19514.9884771
19518.8350269
17152.7551077
19522.1978687
19525.5184347
17211.1084786
17277.8479157
19522.2134058
19525.0986229
17210.7248331
19522.4420081
19524.7495819
17175.4865242
17263.7787425
19522.4031076
19525.0132735
17201.5396519
19518.5442244
19514.6939676
17086.2632777
17132.71651
19514.9516122
19518.7562529
17129.974754
19518.7826073
19515.6660056
17095.6845545
17128.2570153
19515.5364273
19518.542001
17134.3230828
19521.5943364
19524.1420539
17151.5003531
17173.5198826
19522.0432987
19523.2197008
17134.3175758
19521.3703774
19522.26168
17132.4641087
17164.7573903
19521.0068104
19522.8230397
17135.6263062
19517.5122786
19515.7900296
17073.6168214