/*--------------------------------*- C++ -*----------------------------------*\
| =========                 |                                                 |
| \\      /  F ield         | OpenFOAM: The Open Source CFD Toolbox           |
|  \\    /   O peration     | Version:  v1906                                 |
|   \\  /    A nd           | Web:      www.OpenFOAM.com                      |
|    \\/     M anipulation  |                                                 |
\*---------------------------------------------------------------------------*/
FoamFile
{
    version     2.0;
    format      ascii;
    class       volScalarField;
    location    "14.95";
    object      alpha.water;
}
// * * * * * * * * * * * * * * * * * * * * * * * * * * * * * * * * * * * * * //

dimensions      [0 0 0 0 0 0 0];


internalField   nonuniform List<scalar> 
28582
(
0.999992938034
0.999987048741
0.999978105242
0.999980995808
0.999992041024
0.999993161528
0.999974857586
0.999975687949
0.0541666297796
0.0574175009591
-1.14747885852e-27
0.999975157923
0.840615718487
0.841649331659
0.999977294163
0.999970870511
0.841048673879
0.997759937775
0.997587365988
0.999993779633
0.999957461114
0.999961030071
0.999979218951
0.999977527818
0.999972238867
0.999992362705
0.999993530354
0.999977817577
0.999980426354
0.0590446067684
8.06176383613e-08
-1.7493327542e-28
0.999973818487
0.999970933484
0.839746879981
0.829980179942
0.998244573347
0.999982093604
0.999971218083
0.999969519381
0.997765828431
0.832533195885
0.997495518812
0.997120535704
0.0548973311884
0.0563007963277
0.000223712517442
0.000285603356553
0.0559030556042
0.000167531562037
0.998238652274
0.998303514138
0.840263980356
0.843432231943
0.998325891699
0.842779731937
0.998208912676
0.9982530376
0.998028137832
0.841008307933
0.843687426573
0.998127792247
0.843292935468
0.998162823639
0.997820125933
0.997837560071
0.840311495779
0.843034896093
0.99796205876
0.841870385403
0.997757240639
0.997784549468
0.836590781431
0.837509255638
0.99775587083
0.838546895556
0.839743654947
0.997756459765
0.997526049188
0.839124853264
0.838921142659
0.99768932622
0.840059972869
0.997646972607
0.840674218405
0.0554490138883
0.000197757333062
0.0563451148129
0.0578389438254
0.000323741490479
0.000363004218991
0.0578783054265
0.000223900128052
0.000287688917435
0.0593569043837
0.000214047752995
0.0603867140569
0.000230912117317
0.998171871739
0.998375274306
0.836418076057
0.841535825965
0.998159472231
0.99835927226
0.838469322455
0.997925440545
0.997560632866
0.83316447291
0.832355246772
0.997857453494
0.997682938852
0.835242899021
0.840929091532
0.838546437435
0.998166919282
0.998142447189
0.835360099673
0.998013346832
0.838151796184
0.997828031715
0.834867568917
0.835815104601
0.997755530435
0.833947326947
0.997854650076
0.834741669594
0.997689049851
0.99779838802
0.833250766174
0.834289552132
0.997844754256
0.997563027434
0.834155368801
0.997291642726
0.997420388842
0.838057254733
0.838127429161
0.838049702756
0.997384262399
0.837404383014
0.837893805414
0.837854834678
0.997003790388
0.997223241795
0.836416619109
0.997083377312
0.836587995975
0.999994237944
0.999981690646
0.061505499875
-7.35748751775e-28
0.999969719005
0.837800221525
0.999967910508
0.999966169951
0.831627746192
0.837494280323
0.835143104491
0.999965187311
0.999963788239
0.833622299224
0.831066645905
0.0564420025763
0.06070245142
0.0618907220463
0.000203246029471
0.000200897080912
0.000174011682419
0.062958972883
0.0634902676985
0.997811468329
0.998095716935
0.834518259195
0.83779577302
0.997901927462
0.834459875811
0.998038798057
0.997434536426
0.997719418034
0.830868446536
0.834053828619
0.997633516219
0.997453041036
0.833607960145
0.997042820363
0.996981695846
0.83600502861
0.837055309707
0.997043479482
0.835491105438
0.996985176348
0.997062873683
0.99700835077
0.833343312663
0.836317441395
0.997054529235
0.834613932423
0.997017436894
0.996923317628
0.996963256812
0.831906029828
0.831646728443
0.997007776395
0.830453841475
0.996870419401
0.996810672235
0.996502884814
0.830036081732
0.830947510275
0.996654393113
0.829968822007
0.996723586947
0.999982210432
0.999982567581
0.999960204527
0.999960612562
0.0457686065678
0.0485676715658
0.0468239081784
0.0494408974173
0.0499983834567
1.18853160926e-05
1.41877158491e-05
3.80980392838e-06
-5.07832942677e-24
1.31234608757e-06
3.40529250146e-06
0.999984334348
0.999988379154
0.888728220409
0.882918370773
1
0.880199447293
0.999984110364
0.999989088676
0.881401329474
0.878359744996
0.99997412407
0.999985509537
0.99997403578
0.879090402072
0.866028460436
0.875988459398
0.864302809001
0.999954905023
0.999936137949
0.861296312208
0.852685652692
0.859424685712
0.847595054542
0.999971676291
0.999971503921
0.874431698414
0.862514687408
0.857828858518
0.999949798542
0.999958379939
0.999950159801
0.857651871415
0.844759843431
0.853615203347
0.84221140222
0.853365674462
0.843473033926
0.0437607970166
0.044611749464
0.0454164935982
0.000336131163819
0.000558345879241
0.000288905479861
0.00053013552309
0.000624907928759
0.000572236249252
0.000647267430802
0.000570090962915
0.0451741835457
0.0455569531704
0.0469927974724
0.0461458717703
0.0473343727108
0.0002669270422
0.00038676615277
0.000195445072729
0.000274316055159
0.0500181727288
0.048754030195
0.0501850361548
0.000496897231606
0.000626581474394
0.000407631496178
0.000669509037287
0.0480182650302
0.048396576236
0.000121859527594
0.000134253951026
0.000140717361168
0.050730057101
0.0498447407423
0.0513750692362
0.000266276167543
0.000647012148599
0.00016191657653
0.000355315957982
0.999222115329
0.99918747511
0.890970999298
0.88711296536
0.999177843598
0.889340763069
0.999222712256
0.999163425534
0.999106486613
0.88501494733
0.884869087222
0.999126325413
0.999146797102
0.887233501081
0.99882394083
0.998976727752
0.882276144504
0.875998959343
0.999002735052
0.99873388023
0.878040148917
0.999222076857
0.999148380287
0.883174874691
0.879928262086
0.999191193192
0.999180097169
0.881917172083
0.999080342644
0.999003242618
0.879201162227
0.88039455722
0.999044889331
0.999043902849
0.881269980209
0.998796788833
0.999027599192
0.87543509477
0.877615320793
0.998764735711
0.999058928447
0.874330372008
0.998438766081
0.997935321228
0.871249786645
0.865648103517
0.998408095201
0.997952545779
0.870522076743
0.998688034377
0.998884000811
0.876916532528
0.872919636844
0.998922495513
0.998651008261
0.873803425695
0.998361165547
0.997893733859
0.864980142599
0.869045213165
0.997892598425
0.998333226842
0.869896290105
0.996983135334
0.99742873931
0.857045117094
0.860832860669
0.997097197144
0.997381730025
0.856538145843
0.996593935746
0.996795805922
0.854532627251
0.85194561711
0.996792561175
0.853724535243
0.996568616998
0.996885401494
0.997361996765
0.860141141011
0.854547907096
0.997342195505
0.996893931276
0.855316153507
0.996521765654
0.996347660194
0.849415285065
0.850743194649
0.99652095368
0.851899004927
0.996344180131
0.99852525644
0.998807276542
0.871142227844
0.872557570745
0.998578911232
0.998766789828
0.869296264204
0.998205482821
0.997822505597
0.867254458503
0.860886340872
0.998267649666
0.997760869602
0.86548259026
0.998072037476
0.997538464005
0.859339312223
0.861948683596
0.997613364424
0.998003678309
0.863659883392
0.996829153756
0.997309862263
0.852619593829
0.856181606102
0.996848476203
0.997257201172
0.851346496036
0.996513578509
0.996401238035
0.848535399943
0.843578913607
0.996489935907
0.847133576438
0.996426383345
0.996766465295
0.997088229343
0.854854400252
0.849352527256
0.997145181672
0.99670386085
0.850250629702
0.996478220166
0.996453116695
0.842368125637
0.845688565361
0.996437956771
0.846178360706
0.996477144098
0.996317396719
0.99689300119
0.849640319624
0.852686182182
0.99646235535
0.996730857986
0.849493081184
0.996358397653
0.846385475933
0.996322615235
0.999984183203
0.999967435241
0.999967701528
0.99998215618
0.999993687672
0.999984660007
0.999982452935
0.999986799015
0.999985409438
0.999979602716
0.999991630404
0.999987175749
0.999903687351
0.999789869639
0.999980238299
0.99997849139
0.999925589942
0.999927610524
0.999963697452
0.999965252867
0.999961756041
0.999973197026
0.999930598959
0.999929626306
0.999945352194
0.999980857204
0.999989963315
0.999988259108
0.999982691255
0.999982813835
0.999966064997
0.999968128986
0.999982080759
0.999991635435
0.99999394594
0.999992336792
0.999993732296
0.999990019277
0.999967563756
0.999966360269
0.999979462112
0.999994883692
0.999996591828
0.999992940184
0.99998386101
0.999994779616
0.999996586282
0.999991087565
0.999177216094
0.999895588643
0.999990866214
0.999972087167
0.999882532355
0.999823362384
0.999879987192
0.999949407207
0.999678466887
0.999649690421
0.999974321477
0.999978911163
0.999939527304
0.999906139943
0.9999285815
0.999965487639
0.999918730102
0.999942992442
0.999981529975
0.999992688449
0.999984745856
0.99996190124
0.999962430578
0.999983423074
0.999985512492
0.999984499856
0.999985443098
0.999987842373
0.999992043933
0.99999358814
0.999993379715
0.999993341939
0.999986042287
0.999991155522
0.999996310719
0.999995810009
0.999092226268
0.999882599341
0.999996196757
0.999983043048
0.99985724205
0.999779042349
0.999887726831
0.999970511363
0.999139512054
0.999813401733
0.999994446948
0.999995551909
0.999977515386
0.999910614285
0.999910583357
0.999970306725
0.999969130779
0.999977824151
0.999989932584
0.999995445328
0.999996498732
0.999996721096
0.999996223648
0.999996883904
0.999995881002
0.999994786528
0.999995068131
0.999995972282
0.999997800895
0.999998287801
0.999998314831
0.999997815728
0.999998185383
0.999992692563
0.999994004147
0.999996157381
0.999998232598
0.999998622947
0.999998441399
0.999998938901
0.999994077266
0.999994173371
0.99999558842
0.999554104786
0.999744188422
0.999991988957
0.999991509718
0.999964322146
0.999817058138
0.999851868065
0.999926609089
0.999948147685
0.999934494331
0.999941809469
0.999963926822
0.999966086513
0.999949299493
0.999941171295
0.999948010964
0.999938214901
0.999950430232
0.999961025628
0.99996475588
0.999958255029
0.999935427999
0.999929785037
0.999945460283
0.999965912469
0.999962367232
0.999947315072
0.999966140482
0.999967683737
0.999955890425
0.999940242322
0.999949886507
0.999976559808
0.999978163301
0.999962224646
0.999935129261
0.999969955481
0.999967274769
0.999978769872
0.999979695927
0.999971699457
0.999954526202
0.999940904165
0.999973752022
0.999963122175
0.999963830267
0.053839875869
0.0562576318338
0.0585467760916
0.0610905461931
0.0636250397357
0.0667338371678
0.0671057258587
0.0675128579833
0.0515649888497
0.0522643568438
0.054949820852
0.0583648839775
0.0603993883689
0.0605164036226
0.0645523685377
0.0646877655704
0.0648582114985
0.0642349279138
0.0516906227859
0.0557462758165
0.0586793635809
0.0611466810271
0.0632894350671
0.0644485589922
0.0625539873755
0.0618184652501
0.0629722186054
0.0627093129105
0.0558083804114
0.0591154362578
0.062616669188
0.0644967906569
0.0641811768935
0.0618200511087
0.0614286401194
0.0624565409808
0.0622741743196
0.0590717470623
0.0605896158954
0.0605788677001
0.0621112088802
0.0624731067766
0.0628820091247
0.0628477617296
0.0630552367677
0.0633725702669
0.0622225361071
4.22867709753e-10
1.00830491366e-05
4.70727422063e-05
1.30608883373e-05
-3.79958431959e-26
2.53947694553e-28
-1.87645917706e-29
-7.99366273779e-29
-1.5968114083e-27
1.78700645175e-05
1.88051632899e-05
6.02675552622e-05
1.72316962298e-05
-4.96185465205e-26
8.40355333125e-25
4.44499982567e-05
-5.43583082551e-27
-3.96495496601e-26
-8.01174348706e-26
2.1691919792e-05
6.54259421023e-05
-3.91079842601e-25
-1.48063692312e-24
-3.73209110896e-27
-6.71464881324e-28
-4.10785691622e-26
2.951708e-05
-3.96930214514e-25
-2.16994528895e-24
2.71975916207e-05
-1.92316894241e-29
-1.23266018274e-28
-9.17951876267e-28
-5.9747796432e-27
-3.33474850182e-25
-2.46432280993e-24
-5.3775364801e-25
-1.54984597651e-24
3.07671114265e-05
-7.09989439575e-26
-2.27707694442e-26
3.80487906719e-05
-1.08128762174e-26
-3.88293453429e-26
-2.35823945748e-25
3.51359383683e-05
-6.57470095149e-28
-5.16080304635e-26
3.1775139213e-05
0.999795970432
0.99994772784
0.999947837788
0.999413536515
0.999462137424
0.999680680626
0.999620915143
0.999905009854
0.99994899544
0.999944832027
0.999780813788
0.999951165105
0.999724923976
0.999900413573
0.999972256527
0.999941919129
0.999941711679
0.999920824824
0.999926294306
0.999954226413
0.999982896418
0.99997319506
0.999959545634
0.999969313442
0.999936883701
0.999940887718
0.999983114976
0.99997320304
0.999599000469
0.999202435097
0.999380847865
0.999091950882
0.99941549316
0.999122267486
0.999471978474
0.999976961759
0.999747499871
0.999947588213
0.999784712325
0.99996504118
0.999768628133
0.999947065703
0.99957682372
0.999909817655
0.999925057161
0.999183275781
0.999339358534
0.999806275118
0.999668428695
0.99986591024
0.999922957717
0.99992247896
0.999712504592
0.999923987846
0.999751253831
0.999917543801
0.999558536596
0.999091950882
0.999548382077
0.999091950882
0.999556194864
0.999128538301
0.999554591007
0.999981010823
0.999874534384
0.999976432631
0.999907146119
0.999991756966
0.999908473528
0.999989637686
0.999444835886
0.999800466796
0.999792785314
0.99959986116
0.999656792637
0.999919165088
0.999919318172
0.999957272607
0.999841822075
0.999945401239
0.999856397783
0.999971774763
0.999934529628
0.999973378552
0.999642727634
0.999802730832
0.83158044042
0.837502192474
0.999614068608
0.999719820852
0.999740944045
0.831878935383
0.834122947522
0.836475363535
0.83778521166
0.999910020153
0.999834321513
0.999943738821
0.835721536283
0.84059352086
0.838605156484
0.840210257455
0.999994047473
0.999981290925
0.999988523024
0.84169958828
0.838692301065
0.839926424043
0.835642851429
0.999988314782
0.999993137454
0.999993601068
0.835834678498
0.829720778193
0.833554804356
0.828143700086
0.999885592093
0.99998010332
0.999937333464
0.827248616673
0.818707080046
0.82608352744
0.820909370545
0.999817047512
0.999880301938
0.999873076113
0.817601603692
0.820568412158
0.820504387863
0.821101885909
0.999925749844
0.999892388271
0.999938910021
0.820772527982
0.824497325441
0.820386417007
0.818879225752
0.99972063775
0.9999362652
0.999903096335
0.835684481003
0.820840335357
0.827514302059
0.811715279169
0.999931929891
0.999935129499
0.850181446755
0.844811278884
0.846127630928
0.842005125484
0.999939236381
0.999937189827
0.999942365839
0.84283318849
0.83720426366
0.839362838944
0.832661371481
0.999933694483
0.999946334145
0.999950614799
0.83567925285
0.83660857332
0.831661363785
0.83079226649
0.999952822595
0.999949959499
0.999949280238
0.836995515919
0.839058278192
0.831039095842
0.833116422282
0.999967023291
0.999941330539
0.999940723736
0.839081621865
0.834088432058
0.833110285108
0.82890658878
0.99996154063
0.999938968189
0.999940486585
0.834119598984
0.827670256322
0.828534186986
0.825973903925
0.999939752905
0.999939431898
0.999944743343
0.825048263056
0.821350577164
0.825874714077
0.827888006885
0.999942964716
0.999954592962
0.999963071551
0.821402240188
0.821573531448
0.827532871373
0.823955480778
0.999951284768
0.999967514669
0.999967832072
0.820909407606
0.818660545269
0.822780117584
0.821725825692
0.999946354553
0.999963444427
0.999968826045
0.826719536471
0.8186302087
0.830251397789
0.825137332871
0.999954013398
0.999952811041
0.999959244373
0.843843368696
0.839912661147
0.841439321115
0.837548161844
0.999964501192
0.999968183209
0.999970976832
0.837465717356
0.832318712342
0.835863368669
0.833585076441
0.999963412282
0.999970953846
0.999969202419
0.831044643943
0.829067787691
0.832343963312
0.82613125539
0.999946827261
0.999960335614
0.999948305459
0.829153235059
0.830135125522
0.824716236057
0.823216061984
0.999929739979
0.999929569999
0.999927774949
0.830329914933
0.82852659282
0.823494049768
0.823465513728
0.999933323247
0.999925846347
0.999935293739
0.826426890461
0.825297908114
0.822856454025
0.824958558731
0.999957838339
0.999950656627
0.999964910976
0.827999039123
0.831727403778
0.829111484638
0.835888266525
0.999964065921
0.999966607997
0.999964792678
0.830378820463
0.824947623989
0.834237560579
0.828754058941
0.99995873856
0.99995895968
0.999948364885
0.823967188889
0.822779643721
0.827924196372
0.826788361923
0.999957010247
0.999940114452
0.9999546695
0.831271919954
0.826542701487
0.834772870284
0.825453789179
0.842269194178
0.838212536841
0.999968236204
0.999977606974
0.836907534431
0.834579075127
0.841011594727
0.999963112541
0.999973999339
0.999966981631
0.833019013176
0.82541253059
0.838359546304
0.828491579135
0.999943826158
0.999954500472
0.999947311733
0.823842580229
0.822449290335
0.826738338238
0.826981165764
0.99993951012
0.999943136274
0.999947725877
0.822715228226
0.823278185752
0.82746237812
0.828200707335
0.999963616146
0.999957799371
0.999972465581
0.823378699511
0.826123449216
0.82846062698
0.828224798367
0.999979437593
0.999978764115
0.999979023846
0.82819966875
0.834155782945
0.828335219871
0.83015923582
0.999972568822
0.9999761381
0.999967729946
0.833781721564
0.829315612556
0.830935923761
0.830194437229
0.999948351243
0.999955029664
0.999938383651
0.828626023929
0.827504353738
0.830143732067
0.827416992605
0.999951390643
0.999937289547
0.999957643544
0.83510393218
0.824314380353
0.833716060825
0.822434794049
0.999966029271
0.999970606792
0.828638718199
0.830107656383
0.839064152004
0.999971566108
0.999971977839
0.999975702589
0.830347997059
0.830595961517
0.838511408494
0.83515365177
0.999981027841
0.999980034046
0.999981142603
0.830838660905
0.828581106531
0.834906768469
0.830210173562
0.999977220616
0.999980323706
0.999978807895
0.828270533556
0.829883835702
0.82934767525
0.829952233174
0.999965874112
0.999975156711
0.999972152296
0.830667639601
0.830259959758
0.829872538774
0.828835735956
0.999943032094
0.999965775085
0.999953004871
0.830403712953
0.826641048014
0.829454656515
0.826076821197
0.999964010628
0.999951226597
0.999970477448
0.833116848088
0.822270968224
0.833444771932
0.824688314805
0.999978944164
0.830087303101
0.99996854424
0.829635862739
0.828554503258
0.99996226735
0.829283557148
0.826008606755
0.999981641611
0.833588032473
0.82509084844
0.000224962672428
0.000188162153044
0.000248737523726
0.000224996377354
0.0530083153403
0.052333412764
0.000345050199134
0.000307977257219
0.000466173346561
0.000546075133033
0.0551469942966
0.0532480167198
0.0548807782314
0.000437808048436
0.000513602584227
0.000985848069601
0.000891470198222
0.0577475633636
0.0568389033476
0.0580872106996
0.000574294503617
0.000303843627681
0.000437798673016
0.000297341264953
0.0597616182227
0.0591351459581
0.0603040792094
0.000230332824049
0.000277213049316
0.000246181399994
0.00035292028188
0.0619070520883
0.0610824762102
0.062223677301
0.000228352761009
0.000352139513076
0.000399087121428
0.000400797856589
0.0656280411856
0.0640158807606
0.0652765229266
0.000405252746954
0.000485034434668
0.000393069481472
0.000412473770705
0.0670610323236
0.065685112332
0.0658419193303
0.000465588952491
0.000411118955573
0.000391050105923
0.000348001472366
0.0665929630467
0.0660396538385
0.0662408977723
0.000386614937147
0.000317321926886
0.000325853699012
0.000281408709891
0.075620872308
0.0648202086793
0.0695295309618
0.00018675757841
7.80553436266e-05
0.000192161652842
0.000405892978801
0.0520082321468
0.0517110128714
0.0528131873002
0.000747347713626
0.000815899597727
0.000948706709486
0.000810475602144
0.0528790235463
0.0537885932166
0.0551109120492
0.00111949805021
0.00107904805672
0.000783285769478
0.00070615484313
0.0568707337839
0.0567585792129
0.0582417630259
0.000813936771983
0.00051919780216
0.00052532429111
0.000391508749197
0.0594442860066
0.0597895523296
0.0609257536785
0.000207615510169
0.000158754261388
0.000234167023268
0.000214624420602
0.0613888788923
0.0618374229386
0.062527782184
0.000156035604095
0.000344708431388
0.00021234484649
0.000357027342217
0.0624240916157
0.0620403013023
0.0632262354678
0.00122463702565
0.00101424567906
0.00118344501448
0.00106448612713
0.0649232202163
0.0642037857905
0.0639042235634
0.000461638029628
0.000417142889444
0.000445258865033
0.000298706724782
0.0645925578984
0.0635145194609
0.0634096611578
0.0003490589485
0.00030979626865
0.000229571929973
0.000229759744596
0.0653970620457
0.0637205261203
0.0644872795438
0.000275609878006
0.000214439036218
0.000199441304842
0.000146125302956
0.0702698285016
0.0633311982759
0.0687358096371
0.000184294190674
0.000309737591139
0.000157919300063
0.00027677741444
0.0537254947963
0.0520890172425
0.0541016217378
0.00111746188901
0.000541349679875
0.000964607018037
0.000529374650398
0.0573468286319
0.0562172344398
0.0579419127644
0.000286331734004
0.000299193239821
0.0002602120409
0.000289999681363
0.0598542252057
0.0595853467665
0.0611369206465
0.000311628110266
0.000306434541941
0.000354350905273
0.000401030160239
0.0624626729423
0.0624782769643
0.0635010074751
0.000304484975736
0.000308953435304
0.000417233754877
0.000427932828552
0.0638562124232
0.0642757264908
0.0647159223748
0.000328716090546
0.00039603434431
0.00044355810984
0.000449164602136
0.064429820707
0.0648294269233
0.0639088172964
0.000489799929762
0.000460635487363
0.000461180127594
0.000466389829111
0.0615015280378
0.0613605535174
0.0598507908166
0.000734715153974
0.000619630191792
0.000855896705849
0.000985650573139
0.062403816361
0.0607829815968
0.0618435552199
0.000299710013872
0.000184906716906
0.000464533838633
0.000166307338791
0.0638866575985
0.0626374398112
0.063455736377
0.000143083108511
0.000122172520049
0.000107653558349
0.000103123985246
0.0675087646318
0.0623363006758
0.0667743123629
0.000157436849329
0.000299235284668
0.000145273268665
0.000346196152187
0.0572969391662
0.0559931968937
0.000252971701496
0.000321014351886
0.000277019350779
0.0610546484702
0.0577996961915
0.0597351014268
0.000404721792946
0.000491837301047
0.000384748520755
0.000457103394522
0.0638247959958
0.0612589050268
0.0623385517762
0.000529890074942
0.000540788519576
0.000484301724506
0.000492364127245
0.0646357132492
0.0628426776269
0.0629672063135
0.000549263523353
0.000533464596568
0.000487644434501
0.000487224904253
0.0628856214337
0.0626353235225
0.0621546318738
0.000492307029218
0.000420274194369
0.000450105753496
0.000363839158265
0.0612851658606
0.0619734261081
0.0618796509172
0.000330460994494
0.000262780006908
0.000262722143478
0.000197632517838
0.0620023746257
0.0620471297468
0.0623875265732
0.000233726338021
0.000173986894757
0.000174106533798
0.000175484245192
0.0632055023655
0.062554030716
0.063551330411
0.000132223880348
0.000114468034767
0.000160976359414
0.000158206569155
0.0666147841586
0.0626490111398
0.0666340274969
0.000155364191502
0.000396683259076
0.000214984379598
0.000465519736618
0.06001861159
0.0574261853456
0.000355014348053
0.000334963601521
0.000163748504761
0.000143588897847
0.0607669338241
0.0582872812035
0.0589365681318
0.000341370274644
0.000504545140473
0.000151114084378
0.000465273460696
0.0613535793879
0.0589510321214
0.0608358602708
0.000745461798634
0.000512921405091
0.00110251794064
0.000537167324128
0.0623097236457
0.0621704543649
0.0625720773017
0.000281248669329
0.000238607951675
0.000216964663986
0.000215247377843
0.062745630715
0.0628567785558
0.063167090061
0.00020856472459
0.000208487355831
0.000204522796699
0.000211141051637
0.0640795337378
0.0631961263241
0.0644461294382
0.000182935883746
0.000185338232756
0.000181076697134
0.000183726554686
0.0664071454423
0.062530184251
0.0660206829931
0.000264418361329
0.000519209520628
0.000258550684239
0.000509703564724
0.0624026670483
0.000200416295222
0.0634480701793
0.000200615303334
0.000209631914634
0.000164184352578
0.000165526997253
0.0645553024264
0.000177537582939
0.000177464874776
0.000139201955491
0.000129011353606
0.0655520563614
0.000234775982995
0.000473322513545
0.000166646960368
0.000437589928181
0.998903834803
0.998928853525
0.831321510502
0.834405662052
0.998946028108
0.834047767736
0.998834297403
0.998584568467
0.998396245468
0.836420492764
0.838859793569
0.998659388988
0.998351356496
0.836774901182
0.998914139487
0.998984452375
0.832239328138
0.835378020517
0.998950972667
0.836115829616
0.998977458685
0.998782631723
0.99871745766
0.832984897672
0.837446894957
0.998564742854
0.836765885725
0.998898731361
0.998632778109
0.998396371076
0.83685634808
0.836567907445
0.998670369742
0.99836825535
0.837528574888
0.998501711656
0.998081073807
0.838653480775
0.837004432817
0.998299182747
0.998255735529
0.838204981957
0.99805125863
0.998484626442
0.837567275216
0.838387005325
0.998307625126
0.839420574652
0.998249372644
0.997788593349
0.997750594682
0.839086424283
0.841500203695
0.99760595018
0.840235063473
0.997978129925
0.997968186637
0.997931375241
0.838979379311
0.839188878612
0.998093615162
0.997856105866
0.839309337634
0.99787718268
0.997821352324
0.841128387846
0.839516175117
0.997838063749
0.997833652581
0.839769543872
0.997552137166
0.99767066839
0.842918499005
0.842531702528
0.997559426833
0.842998616033
0.997647958822
0.997515806942
0.997437388544
0.84150446778
0.83841274672
0.997400715961
0.841332465194
0.997577562902
0.997803086131
0.997799918604
0.841429749663
0.839481215805
0.997814631313
0.997743746725
0.841308916314
0.99775393776
0.997556442104
0.837016175717
0.837828008729
0.99766759838
0.997648512972
0.839762553137
0.997074539748
0.997230783166
0.833223368754
0.835506686414
0.997246207987
0.832775634271
0.996928814661
0.996795890763
0.995920319693
0.831439366704
0.829226563128
0.996333337218
0.831161372426
0.996524377895
0.997443473686
0.997498136943
0.83429427096
0.831888615104
0.997579133918
0.997423578216
0.832074553081
0.997209731631
0.996894423549
0.828301376811
0.830320666411
0.99684933828
0.997246327464
0.830438671492
0.995155828802
0.99521943078
0.824006959563
0.826745345826
0.995757950036
0.824063222115
0.994647392455
0.994856847283
0.994515906991
0.821301601743
0.819738542797
0.994863679529
0.821469198367
0.994471302106
0.995801137978
0.996395610389
0.82590777555
0.823680586419
0.996348552418
0.995828345976
0.823203058492
0.995411040005
0.995375041481
0.820051812871
0.821814227164
0.995357768216
0.995413809586
0.821384277852
0.995432473214
0.994722008042
0.817728071494
0.819079117084
0.99498726539
0.819234927682
0.995276198218
0.996120603123
0.996631556452
0.818471852849
0.820666244947
0.996728925942
0.819603148979
0.996000966309
0.99577321359
0.995464785596
0.819464853639
0.820750542736
0.995428162288
0.995827494947
0.819569168203
0.996374742461
0.99703862801
0.820324275673
0.820980454556
0.99704956375
0.996396413845
0.819717244726
0.997195491821
0.996951574465
0.821612741242
0.819979021518
0.996984483012
0.819597279505
0.997167434432
0.997217558779
0.99723613649
0.822772215314
0.821034614586
0.997143072665
0.820101062457
0.997280814244
0.997414225911
0.997333759486
0.819907136045
0.819330832107
0.997305280656
0.997466700095
0.819517276918
0.997382747925
0.997387710029
0.820020217451
0.818494470371
0.997292986161
0.997455188307
0.819405777152
0.995370987315
0.996790406466
0.827774485833
0.83041736281
0.996673385
0.827180548401
0.99535622077
0.990895994155
0.988888995963
0.792101006637
0.815757213544
0.806573797781
0.989325216645
0.987865749599
0.995621215312
0.997033434496
0.829418174927
0.82243768358
0.996902117656
0.995857589577
0.823353570957
0.991396879688
0.993766963034
0.796533634336
0.771522719332
0.992367800927
0.768176324722
0.992749271016
0.996740934399
0.996875092481
0.847759540375
0.84962759908
0.997043665798
0.847303928801
0.99661324949
0.996931228947
0.997426524775
0.846266099654
0.844319925324
0.997238388888
0.99705745005
0.845736331166
0.996405784307
0.996350758462
0.847302533641
0.845368509759
0.996376958305
0.845743501202
0.996347895228
0.996513469977
0.996517438051
0.843173476183
0.844053630809
0.996624525854
0.996442732045
0.84447430482
0.997346297548
0.997587600647
0.840681549481
0.842704246527
0.997701881633
0.997221229109
0.840529814808
0.997414312709
0.997837372535
0.838801974494
0.836018479867
0.997787170441
0.997484703125
0.838016595848
0.996942834525
0.996642793735
0.84136382701
0.83670578413
0.996775125818
0.996796932909
0.839111562487
0.997107475333
0.997138482755
0.835228966163
0.834142399468
0.997251450269
0.996966242765
0.836846723474
0.997521051174
0.997844932388
0.835654140976
0.834488635384
0.997825207811
0.997524938566
0.83304846291
0.997470974624
0.997615555575
0.835966765339
0.833473619045
0.997735620123
0.997385261102
0.833040365506
0.997288838013
0.997225974675
0.833762456955
0.830967714758
0.99728727811
0.997233545183
0.832432323813
0.997258851249
0.997160966795
0.832735264058
0.830665675638
0.997195433836
0.997216309163
0.832437206264
0.997268404587
0.997502888638
0.837443318347
0.834086108881
0.997433403762
0.997313495651
0.835117833325
0.997220099848
0.997347069283
0.837969719316
0.837304274324
0.997395591974
0.99714493578
0.836233412873
0.996969577198
0.997047450435
0.83311520229
0.831593329201
0.997096039458
0.996892799875
0.83376887563
0.99680892688
0.996437052726
0.83579426332
0.832265545407
0.996601343013
0.996695083062
0.834642109757
0.996814480357
0.997268110261
0.839006202245
0.837095610992
0.997132030777
0.997008624737
0.836787189182
0.996614755685
0.996856196401
0.837134739382
0.832951109386
0.996973935671
0.996489838135
0.834971665996
0.99597929942
0.996070313819
0.835691188448
0.832911225391
0.996311540924
0.995682581318
0.835501070607
0.995747391448
0.995332833271
0.832220257703
0.831405921616
0.995715737239
0.995414159932
0.834126866056
0.996368789964
0.996758697629
0.833622879814
0.833178596339
0.996637897985
0.996441830677
0.832799071376
0.99626330455
0.99620297646
0.831484820533
0.827724899157
0.996462068401
0.996084018559
0.830907013962
0.995704341213
0.995296612714
0.832475394441
0.827996887532
0.995706601496
0.995282944345
0.832225757617
0.995686816539
0.995175198184
0.827908461751
0.826939398783
0.99560800129
0.99522149739
0.83089403064
0.9953078159
0.995861743541
0.822350474169
0.825073963068
0.995418918347
0.995751656241
0.822153710396
0.995080472363
0.995067642035
0.82132368518
0.822337734786
0.995091781905
0.995068141882
0.821891994821
0.995439789558
0.995195461053
0.825719606997