/*--------------------------------*- C++ -*----------------------------------*\
| =========                 |                                                 |
| \\      /  F ield         | OpenFOAM: The Open Source CFD Toolbox           |
|  \\    /   O peration     | Version:  v1906                                 |
|   \\  /    A nd           | Web:      www.OpenFOAM.com                      |
|    \\/     M anipulation  |                                                 |
\*---------------------------------------------------------------------------*/
FoamFile
{
    version     2.0;
    format      ascii;
    class       volVectorField;
    location    "14.95";
    object      force.turbine;
}
// * * * * * * * * * * * * * * * * * * * * * * * * * * * * * * * * * * * * * //

dimensions      [1 -2 -2 0 0 0 0];


internalField   nonuniform List<vector> 
28582
(
(0 0 0)
(0 0 0)
(0 0 0)
(0 0 0)
(0 0 0)
(0 0 0)
(0 0 0)
(0 0 0)
(0 0 0)
(0 0 0)
(0 0 0)
(0 0 0)
(0 0 0)
(0 0 0)
(0 0 0)
(0 0 0)
(0 0 0)
(0 0 0)
(0 0 0)
(0 0 0)
(0 0 0)
(0 0 0)
(0 0 0)
(0 0 0)
(0 0 0)
(0 0 0)
(0 0 0)
(0 0 0)
(0 0 0)
(0 0 0)
(0 0 0)
(0 0 0)
(0 0 0)
(0 0 0)
(0 0 0)
(0 0 0)
(0 0 0)
(0 0 0)
(0 0 0)
(0 0 0)
(0 0 0)
(0 0 0)
(0 0 0)
(0 0 0)
(0 0 0)
(0 0 0)
(0 0 0)
(0 0 0)
(0 0 0)
(0 0 0)
(0 0 0)
(0 0 0)
(0 0 0)
(0 0 0)
(0 0 0)
(0 0 0)
(0 0 0)
(0 0 0)
(0 0 0)
(0 0 0)
(0 0 0)
(0 0 0)
(0 0 0)
(0 0 0)
(0 0 0)
(0 0 0)
(0 0 0)
(0 0 0)
(0 0 0)
(0 0 0)
(0 0 0)
(0 0 0)
(0 0 0)
(0 0 0)
(0 0 0)
(0 0 0)
(0 0 0)
(0 0 0)
(0 0 0)
(0 0 0)
(0 0 0)
(0 0 0)
(0 0 0)
(0 0 0)
(0 0 0)
(0 0 0)
(0 0 0)
(0 0 0)
(0 0 0)
(0 0 0)
(0 0 0)
(0 0 0)
(0 0 0)
(0 0 0)
(0 0 0)
(0 0 0)
(0 0 0)
(0 0 0)
(0 0 0)
(0 0 0)
(0 0 0)
(0 0 0)
(0 0 0)
(0 0 0)
(0 0 0)
(0 0 0)
(0 0 0)
(0 0 0)
(0 0 0)
(0 0 0)
(0 0 0)
(0 0 0)
(0 0 0)
(0 0 0)
(0 0 0)
(0 0 0)
(0 0 0)
(0 0 0)
(0 0 0)
(0 0 0)
(0 0 0)
(0 0 0)
(0 0 0)
(0 0 0)
(0 0 0)
(0 0 0)
(0 0 0)
(0 0 0)
(0 0 0)
(0 0 0)
(0 0 0)
(0 0 0)
(0 0 0)
(0 0 0)
(0 0 0)
(0 0 0)
(0 0 0)
(0 0 0)
(0 0 0)
(0 0 0)
(0 0 0)
(0 0 0)
(0 0 0)
(0 0 0)
(0 0 0)
(0 0 0)
(0 0 0)
(0 0 0)
(0 0 0)
(0 0 0)
(0 0 0)
(0 0 0)
(0 0 0)
(0 0 0)
(0 0 0)
(0 0 0)
(0 0 0)
(0 0 0)
(0 0 0)
(0 0 0)
(0 0 0)
(0 0 0)
(0 0 0)
(0 0 0)
(0 0 0)
(0 0 0)
(0 0 0)
(0 0 0)
(0 0 0)
(0 0 0)
(0 0 0)
(0 0 0)
(0 0 0)
(0 0 0)
(0 0 0)
(0 0 0)
(0 0 0)
(0 0 0)
(0 0 0)
(0 0 0)
(0 0 0)
(0 0 0)
(0 0 0)
(0 0 0)
(0 0 0)
(0 0 0)
(0 0 0)
(0 0 0)
(0 0 0)
(0 0 0)
(0 0 0)
(0 0 0)
(0 0 0)
(0 0 0)
(0 0 0)
(0 0 0)
(0 0 0)
(0 0 0)
(0 0 0)
(0 0 0)
(0 0 0)
(0 0 0)
(0 0 0)
(0 0 0)
(0 0 0)
(0 0 0)
(0 0 0)
(0 0 0)
(0 0 0)
(0 0 0)
(0 0 0)
(0 0 0)
(0 0 0)
(0 0 0)
(0 0 0)
(0 0 0)
(0 0 0)
(-0.00303056105563 7.45711997359e-05 0)
(0 0 0)
(0 0 0)
(0 0 0)
(0 0 0)
(-2.15303677533e-05 4.97817819881e-07 0)
(0 0 0)
(-2.02771834512e-06 5.84907816108e-08 0)
(0 0 0)
(0 0 0)
(0 0 0)
(0 0 0)
(0 0 0)
(0 0 0)
(0 0 0)
(0 0 0)
(0 0 0)
(0 0 0)
(0 0 0)
(0 0 0)
(-0.0196676004018 4.85247850532e-05 0.000605143566436)
(0 0 0)
(0 0 0)
(0 0 0)
(-0.0253938918027 0.000666269539423 0)
(0 0 0)
(0 0 0)
(-0.266668901707 -0.029593816637 0.0426954836521)
(-2.18973312962 -0.268120291118 0.381499691701)
(-0.0686510096275 0.00180122357458 0)
(-0.954106791266 -0.0216482152046 0.0544105162557)
(-0.00496183371101 8.98537952733e-05 0)
(-0.0675601983815 0.00177260353036 0)
(0 0 0)
(0 0 0)
(0 0 0)
(0 0 0)
(0 0 0)
(-0.0154444266589 0.000479699472375 0)
(0 0 0)
(0 0 0)
(0 0 0)
(-0.0247709694117 0.000649925679341 0)
(0 0 0)
(0 0 0)
(0 0 0)
(0 0 0)
(0 0 0)
(0 0 0)
(0 0 0)
(0 0 0)
(-1.97937046613e-05 4.14106174009e-07 0)
(0 0 0)
(-1.17884954975e-05 2.46628352363e-07 0)
(-0.000177159103659 4.2012442845e-06 0)
(-0.000768273798899 1.82192494763e-05 0)
(-0.000108928811011 2.58319519136e-06 0)
(-0.000465346774651 1.10354784876e-05 0)
(0 0 0)
(0 0 0)
(-0.000307159852754 5.93466049286e-06 0)
(0 0 0)
(0 0 0)
(0 0 0)
(0 0 0)
(0 0 0)
(0 0 0)
(-0.0139794644967 0.000343984305232 0)
(-0.000638856669264 1.41612360826e-05 0)
(-0.00312944165897 7.7004295485e-05 0)
(-3.54024319893e-05 7.9888525027e-07 0)
(-0.000177341292472 4.20556480597e-06 0)
(-3.89859312699e-06 1.12457314266e-07 0)
(-3.94781623948e-05 8.90857488395e-07 0)
(0 0 0)
(0 0 0)
(0 0 0)
(0 0 0)
(0 0 0)
(-0.000331077563662 6.39677653027e-06 0)
(0 0 0)
(0 0 0)
(0 0 0)
(0 0 0)
(0 0 0)
(0 0 0)
(0 0 0)
(0 0 0)
(0 0 0)
(0 0 0)
(0 0 0)
(0 0 0)
(0 0 0)
(0 0 0)
(0 0 0)
(0 0 0)
(0 0 0)
(0 0 0)
(0 0 0)
(0 0 0)
(-0.00473822619739 8.20467353533e-05 0)
(0 0 0)
(0 0 0)
(0 0 0)
(0 0 0)
(0 0 0)
(-0.0039478842268 7.14921945673e-05 0)
(0 0 0)
(0 0 0)
(0 0 0)
(0 0 0)
(0 0 0)
(0 0 0)
(0 0 0)
(0 0 0)
(0 0 0)
(0 0 0)
(0 0 0)
(0 0 0)
(0 0 0)
(0 0 0)
(0 0 0)
(0 0 0)
(0 0 0)
(0 0 0)
(0 0 0)
(0 0 0)
(0 0 0)
(0 0 0)
(-0.0341555800481 0.000951463788948 0)
(-0.00748885711341 0.000166349947733 0)
(-0.0122677442147 0.00027250334437 0)
(-0.00963533407141 0.000216161479546 0)
(-0.0182824798054 0.000509290648336 0)
(0 0 0)
(0 0 0)
(0 0 0)
(0 0 0)
(0 0 0)
(0 0 0)
(0 0 0)
(0 0 0)
(0 0 0)
(0 0 0)
(-0.00440707517752 7.9807678737e-05 0)
(0 0 0)
(-0.00750013514763 0.000168259896159 0)
(0 0 0)
(0 0 0)
(-0.472884209728 -0.0419526425038 0.0636333987994)
(-0.244607820156 -0.0165070984365 0.0268718936704)
(-0.206365889981 -0.000481678999598 0.00678240678848)
(-0.0367264878304 0.000963607324214 0)
(-1.07346041027 -0.107437171273 0.159666822349)
(-0.0971132541698 -0.00438393184219 0.00809438314215)
(-0.0876632313312 0.0023000547225 0)
(-1.2858467618 -0.128049471719 0.18977291431)
(-4.76383389811 -0.497393601481 0.733193006405)
(-0.517083558641 -0.0119630060941 0.0296787404448)
(-0.466545077924 -0.00528704459831 0.0202704626931)
(-2.81659311035 -0.302004994756 0.442650011057)
(-0.243251318007 -0.00177465966511 0.00938330567961)
(-2.20262962877 -0.21402675834 0.319173736447)
(-0.124205153744 -0.00641176236723 0.0112446058774)
(-0.00849425209238 0.000190562162798 0)
(-0.017334440439 0.000454810540157 0)
(-0.017221851107 0.000451856489513 0)
(-0.0234608256857 0.000653542585644 0)
(-0.023450291599 0.00065324914012 0)
(-0.0413501704513 0.00108492070596 0)
(-0.379740262394 -0.0291372399331 0.045645569539)
(-0.151752552595 -0.00413085865634 0.00949858897037)
(-0.183354526704 0.00220112282845 0.00296296048192)
(-0.0362965240104 0.000952326194149 0)
(-0.0717783304534 -0.00118797011414 0.00360737288155)
(-0.0871889889548 0.00228761183851 0)
(-0.682812618109 -0.0517953682046 0.0815702638383)
(0 0 0)
(0 0 0)
(0 0 0)
(0 0 0)
(0 0 0)
(0 0 0)
(0 0 0)
(0 0 0)
(0 0 0)
(0 0 0)
(0 0 0)
(0 0 0)
(0 0 0)
(0 0 0)
(0 0 0)
(0 0 0)
(0 0 0)
(0 0 0)
(0 0 0)
(0 0 0)
(0 0 0)
(0 0 0)
(0 0 0)
(-0.00434417106256 7.8668548771e-05 0)
(0 0 0)
(-0.00749229542723 0.000168084017923 0)
(0 0 0)
(0 0 0)
(0 0 0)
(-0.0341031268287 0.000950002612216 0)
(-0.0120255078568 0.000267122549294 0)
(-0.00725128452945 0.000161072749046 0)
(-0.0182557116968 0.000508544975564 0)
(0 0 0)
(-0.00961622835342 0.00021573285712 0)
(0 0 0)
(0 0 0)
(0 0 0)
(0 0 0)
(0 0 0)
(0 0 0)
(0 0 0)
(0 0 0)
(0 0 0)
(0 0 0)
(0 0 0)
(0 0 0)
(0 0 0)
(0 0 0)
(0 0 0)
(0 0 0)
(0 0 0)
(0 0 0)
(0 0 0)
(0 0 0)
(0 0 0)
(0 0 0)
(0 0 0)
(0 0 0)
(0 0 0)
(0 0 0)
(0 0 0)
(0 0 0)
(0 0 0)
(0 0 0)
(0 0 0)
(0 0 0)
(0 0 0)
(0 0 0)
(0 0 0)
(0 0 0)
(-0.0149087877127 0.000275903873888 0)
(0 0 0)
(0 0 0)
(0 0 0)
(0 0 0)
(0 0 0)
(0 0 0)
(0 0 0)
(-0.00332679318639 6.15660471822e-05 0)
(0 0 0)
(0 0 0)
(0 0 0)
(0 0 0)
(0 0 0)
(0 0 0)
(0 0 0)
(0 0 0)
(0 0 0)
(0 0 0)
(0 0 0)
(0 0 0)
(0 0 0)
(0 0 0)
(0 0 0)
(0 0 0)
(0 0 0)
(0 0 0)
(0 0 0)
(0 0 0)
(0 0 0)
(0 0 0)
(0 0 0)
(0 0 0)
(0 0 0)
(0 0 0)
(0 0 0)
(-0.319158739507 0.00812089996282 0)
(-0.00765436490077 0.000141652625886 0)
(0 0 0)
(0 0 0)
(0 0 0)
(0 0 0)
(0 0 0)
(0 0 0)
(-0.0700960799098 0.00180209034821 0)
(0 0 0)
(0 0 0)
(0 0 0)
(0 0 0)
(0 0 0)
(0 0 0)
(0 0 0)
(0 0 0)
(0 0 0)
(0 0 0)
(0 0 0)
(0 0 0)
(0 0 0)
(0 0 0)
(0 0 0)
(0 0 0)
(0 0 0)
(0 0 0)
(0 0 0)
(0 0 0)
(0 0 0)
(0 0 0)
(0 0 0)
(0 0 0)
(0 0 0)
(0 0 0)
(0 0 0)
(-1.49598445366 0.0496061587871 0)
(-0.0430212513137 0.00141655094007 0)
(0 0 0)
(0 0 0)
(0 0 0)
(0 0 0)
(0 0 0)
(0 0 0)
(-0.328140756989 0.0107618032669 0)
(-0.00650648098139 0.000236811631894 0)
(0 0 0)
(0 0 0)
(0 0 0)
(0 0 0)
(0 0 0)
(0 0 0)
(0 0 0)
(0 0 0)
(0 0 0)
(0 0 0)
(0 0 0)
(0 0 0)
(0 0 0)
(0 0 0)
(0 0 0)
(0 0 0)
(0 0 0)
(0 0 0)
(0 0 0)
(0 0 0)
(0 0 0)
(0 0 0)
(0 0 0)
(0 0 0)
(0 0 0)
(0 0 0)
(0 0 0)
(0 0 0)
(0 0 0)
(0 0 0)
(0 0 0)
(0 0 0)
(0 0 0)
(-2.47281280234 0.0745255933317 0)
(-0.0746866624444 0.00225090545769 0)
(0 0 0)
(0 0 0)
(0 0 0)
(0 0 0)
(0 0 0)
(0 0 0)
(-2.47800934349 0.0741237681227 0.000605127862329)
(-0.551968883258 0.0166352295194 0)
(-0.0154443033896 0.000479695643666 0)
(0 0 0)
(0 0 0)
(0 0 0)
(0 0 0)
(0 0 0)
(0 0 0)
(-0.0453090863764 0.00136552453236 0)
(-0.0747028452091 0.0022513931736 0)
(-0.0154446574467 0.000479706640576 0)
(0 0 0)
(0 0 0)
(0 0 0)
(0 0 0)
(0 0 0)
(0 0 0)
(0 0 0)
(0 0 0)
(0 0 0)
(0 0 0)
(0 0 0)
(0 0 0)
(0 0 0)
(0 0 0)
(0 0 0)
(0 0 0)
(0 0 0)
(0 0 0)
(0 0 0)
(0 0 0)
(0 0 0)
(0 0 0)
(0 0 0)
(0 0 0)
(0 0 0)
(0 0 0)
(-0.0677639442269 0.00166486827061 0)
(-0.00212328256691 5.22463416794e-05 0)
(0 0 0)
(0 0 0)
(0 0 0)
(0 0 0)
(0 0 0)
(0 0 0)
(-0.0393960231293 0.000967906895689 0)
(-0.0658172104028 0.00161703965892 0)
(-0.015330718464 0.000377233801822 0)
(-0.000379938922041 7.34083080883e-06 0)
(0 0 0)
(0 0 0)
(0 0 0)
(0 0 0)
(0 0 0)
(0 0 0)
(-0.00111546142309 2.47259100724e-05 0)
(-0.00210432077801 5.17797603035e-05 0)
(-0.000381951528331 7.37971653864e-06 0)
(0 0 0)
(0 0 0)
(0 0 0)
(0 0 0)
(0 0 0)
(0 0 0)
(0 0 0)
(0 0 0)
(0 0 0)
(0 0 0)
(0 0 0)
(0 0 0)
(0 0 0)
(0 0 0)
(0 0 0)
(0 0 0)
(0 0 0)
(0 0 0)
(0 0 0)
(0 0 0)
(0 0 0)
(0 0 0)
(0 0 0)
(0 0 0)
(0 0 0)
(0 0 0)
(-0.000165753914725 3.94060037611e-06 0)
(-0.000167421087696 3.98023541247e-06 0)
(-2.2226816947e-05 5.13920880603e-07 0)
(0 0 0)
(0 0 0)
(0 0 0)
(0 0 0)
(0 0 0)
(0 0 0)
(0 0 0)
(-2.16281574741e-05 5.00078880453e-07 0)
(-2.25062607527e-05 5.20382084968e-07 0)
(-2.06257446499e-06 5.9496227806e-08 0)
(0 0 0)
(0 0 0)
(0 0 0)
(0 0 0)
(0 0 0)
(0 0 0)
(0 0 0)
(0 0 0)
(0 0 0)
(0 0 0)
(0 0 0)
(0 0 0)
(0 0 0)
(0 0 0)
(0 0 0)
(0 0 0)
(0 0 0)
(0 0 0)
(0 0 0)
(0 0 0)
(0 0 0)
(0 0 0)
(0 0 0)
(0 0 0)
(0 0 0)
(0 0 0)
(0 0 0)
(0 0 0)
(0 0 0)
(0 0 0)
(0 0 0)
(0 0 0)
(0 0 0)
(0 0 0)
(0 0 0)
(0 0 0)
(-0.00332624218323 6.15558502494e-05 0)
(-0.00904303472852 0.000167351521893 0)
(-0.00201777400884 3.73411759828e-05 0)
(-0.0858977741999 0.0019059215773 0)
(-0.0176048817829 0.000325798125028 0)
(-0.0521135459765 0.00115630856179 0)
(-0.0106795951873 0.000197637912654 0)
(0 0 0)
(0 0 0)
(0 0 0)
(-0.00238332057595 4.41060260762e-05 0)
(0 0 0)
(0 0 0)
(0 0 0)
(0 0 0)
(0 0 0)
(0 0 0)
(-0.0176129531706 0.000325947495129 0)
(-0.00393000253677 7.27291142097e-05 0)
(-0.00393011220817 7.27311438021e-05 0)
(0 0 0)
(0 0 0)
(0 0 0)
(0 0 0)
(0 0 0)
(0 0 0)
(0 0 0)
(0 0 0)
(-0.0700905134156 0.00180194723999 0)
(-0.193584441833 0.00492569900768 0)
(-0.0425027768026 0.00109269796466 0)
(-0.794622195149 0.0234400733213 0)
(-0.175683884167 0.00518348639569 0)
(-0.48197733434 0.0142175541095 0)
(-0.106563678593 0.00314412093563 0)
(0 0 0)
(-0.00464192009183 8.59039487512e-05 0)
(0 0 0)
(-0.0226313303379 0.000690930878085 0)
(0 0 0)
(-0.0120855537537 0.00036116318692 0)
(0 0 0)
(-0.0147966965444 0.000372338280364 0)
(-0.0148016209021 0.000372462194974 0)
(-0.00281596638768 5.211262311e-05 0)
(-0.175643104359 0.00518228320291 0)
(-0.0372961514052 0.00113864550845 0)
(-0.0373135596468 0.00113917697927 0)
(-0.0073295249693 0.000219034613595 0)
(0 0 0)
(0 0 0)
(0 0 0)
(-0.00332596477705 6.15507165362e-05 0)
(0 0 0)
(0 0 0)
(0 0 0)
(-0.328278236505 0.0107663120866 0)
(-0.891936639353 0.0292522231232 0)
(-0.199108794616 0.00653003209971 0)
(-2.17977840606 0.0723411374764 0)
(-0.480923439626 0.0158415041963 0)
(-1.30672668975 0.0430432676669 0)
(-0.291694343532 0.00960834258918 0)
(0 0 0)
(-0.0260934976824 0.000859174653064 0)
(0 0 0)
(-0.0651087391455 0.00214466644668 0)
(0 0 0)
(-0.0394904988793 0.0013008076799 0)
(0 0 0)
(-0.0732404517162 0.00240201595127 0)
(-0.07326648664 0.00240286980048 0)
(-0.0139231133715 0.000503206489699 0)
(-0.480944428046 0.0158421955499 0)
(-0.107319313074 0.00353507275447 0)
(-0.107347452155 0.00353599964914 0)
(-0.0239524578543 0.000788988288668 0)
(0 0 0)
(0 0 0)
(0 0 0)
(-0.0133243657737 0.000443825162084 0)
(0 0 0)
(0 0 0)
(0 0 0)
(-6.91039824457 0.212782672175 0)
(-4.10343935016 0.12428082468 0)
(-3.68041133004 0.0960899999055 0)
(-1.75086832999 0.0457125366098 0)
(-0.551792183784 0.0166299041535 0)
(-1.50008518915 0.0452095438295 0)
(-0.334721313621 0.0100878256837 0)
(-2.23308262277 0.0583024259435 0)
(-0.235999315527 0.00616158689157 0)
(-1.06065485762 0.0276921017867 0)
(-0.111967046905 0.00292329105683 0)
(0 0 0)
(-0.0453038306045 0.00136536613399 0)
(0 0 0)
(-0.0855352256156 0.00224422139852 0)
(0 0 0)
(-0.0405432247844 0.00106374855472 0)
(0 0 0)
(0 0 0)
(0 0 0)
(0 0 0)
(0 0 0)
(0 0 0)
(0 0 0)
(0 0 0)
(0 0 0)
(0 0 0)
(0 0 0)
(0 0 0)
(0 0 0)
(0 0 0)
(0 0 0)
(0 0 0)
(0 0 0)
(0 0 0)
(0 0 0)
(0 0 0)
(0 0 0)
(0 0 0)
(0 0 0)
(0 0 0)
(0 0 0)
(0 0 0)
(0 0 0)
(0 0 0)
(0 0 0)
(0 0 0)
(0 0 0)
(0 0 0)
(0 0 0)
(0 0 0)
(0 0 0)
(0 0 0)
(0 0 0)
(0 0 0)
(0 0 0)
(0 0 0)
(0 0 0)
(0 0 0)
(0 0 0)
(-2.40134852713 -0.261741224943 0.381498087834)
(-0.791151936789 -0.0137862117228 0.042694640134)
(-1.37547325278 -0.0105103965763 0.0542509086195)
(-2.267756218 0.0592077013227 0)
(-0.113080649439 0.00295236554274 0)
(-0.238226751839 0.00621974190083 0)
(-1.50041409358 0.0452194563461 0)
(-0.551970369695 0.0166352743176 0)
(-0.334788683707 0.0100898560823 0)
(-2.26245265445 0.0590692332615 0)
(-1.06157800025 0.0277162036513 0)
(-0.237480064183 0.00620024701008 0)
(-0.111283082072 0.00290543376457 0)
(-0.1231608069 0.00371181846066 0)
(-0.123162362155 0.00371186533291 0)
(-0.0274813551182 0.000828232648184 0)
(-0.642708147527 0.0167801422985 0)
(-0.0666855212121 0.00174965428101 0)
(-0.0662916543184 0.00173932024022 0)
(-0.00479671885194 8.68637320009e-05 0)
(0 0 0)
(0 0 0)
(0 0 0)
(-0.0245435651824 0.000643959185025 0)
(0 0 0)
(0 0 0)
(0 0 0)
(0 0 0)
(0 0 0)
(0 0 0)
(0 0 0)
(0 0 0)
(0 0 0)
(0 0 0)
(0 0 0)
(0 0 0)
(0 0 0)
(0 0 0)
(0 0 0)
(0 0 0)
(0 0 0)
(0 0 0)
(0 0 0)
(0 0 0)
(0 0 0)
(0 0 0)
(0 0 0)
(0 0 0)
(0 0 0)
(0 0 0)
(0 0 0)
(0 0 0)
(0 0 0)
(0 0 0)
(0 0 0)
(0 0 0)
(0 0 0)
(0 0 0)
(0 0 0)
(0 0 0)
(0 0 0)
(0 0 0)
(0 0 0)
(0 0 0)
(0 0 0)
(0 0 0)
(0 0 0)
(0 0 0)
(0 0 0)
(-0.0747023218798 0.00225137740151 0)
(0 0 0)
(0 0 0)
(-0.0407961691564 0.00107038515582 0)
(-0.0859636689526 0.00225546263508 0)
(0 0 0)
(0 0 0)
(-0.0453097233118 0.00136554372831 0)
(0 0 0)
(0 0 0)
(-0.0857135268553 0.00224889955836 0)
(-0.0402396630726 0.00105578388654 0)
(0 0 0)
(0 0 0)
(0 0 0)
(0 0 0)
(0 0 0)
(-0.0243692740473 0.000639386239877 0)
(0 0 0)
(0 0 0)
(0 0 0)
(0 0 0)
(0 0 0)
(0 0 0)
(0 0 0)
(0 0 0)
(0 0 0)
(0 0 0)
(0 0 0)
(0 0 0)
(0 0 0)
(0 0 0)
(0 0 0)
(0 0 0)
(0 0 0)
(0 0 0)
(0 0 0)
(0 0 0)
(0 0 0)
(0 0 0)
(0 0 0)
(0 0 0)
(0 0 0)
(0 0 0)
(0 0 0)
(0 0 0)
(0 0 0)
(0 0 0)
(0 0 0)
(0 0 0)
(0 0 0)
(0 0 0)
(0 0 0)
(0 0 0)
(0 0 0)
(0 0 0)
(0 0 0)
(0 0 0)
(0 0 0)
(0 0 0)
(0 0 0)
(0 0 0)
(0 0 0)
(0 0 0)
(0 0 0)
(0 0 0)
(0 0 0)
(0 0 0)
(0 0 0)
(0 0 0)
(0 0 0)
(0 0 0)
(0 0 0)
(0 0 0)
(0 0 0)
(0 0 0)
(0 0 0)
(0 0 0)
(0 0 0)
(0 0 0)
(0 0 0)
(0 0 0)
(0 0 0)
(0 0 0)
(0 0 0)
(0 0 0)
(0 0 0)
(0 0 0)
(0 0 0)
(0 0 0)
(0 0 0)
(0 0 0)
(0 0 0)
(0 0 0)
(0 0 0)
(0 0 0)
(0 0 0)
(0 0 0)
(0 0 0)
(0 0 0)
(0 0 0)
(0 0 0)
(0 0 0)
(0 0 0)
(0 0 0)
(0 0 0)
(0 0 0)
(0 0 0)
(0 0 0)
(0 0 0)
(0 0 0)
(0 0 0)
(0 0 0)
(0 0 0)
(0 0 0)
(0 0 0)
(0 0 0)
(0 0 0)
(0 0 0)
(0 0 0)
(0 0 0)
(0 0 0)
(0 0 0)
(0 0 0)
(0 0 0)
(0 0 0)
(0 0 0)
(0 0 0)
(0 0 0)
(0 0 0)
(0 0 0)
(0 0 0)
(0 0 0)
(0 0 0)
(0 0 0)
(0 0 0)
(0 0 0)
(0 0 0)
(0 0 0)
(0 0 0)
(0 0 0)
(0 0 0)
(0 0 0)
(0 0 0)
(0 0 0)
(0 0 0)
(0 0 0)
(0 0 0)
(0 0 0)
(0 0 0)
(0 0 0)
(0 0 0)
(0 0 0)
(0 0 0)
(0 0 0)
(0 0 0)
(0 0 0)
(0 0 0)
(0 0 0)
(0 0 0)
(0 0 0)
(0 0 0)
(0 0 0)
(0 0 0)
(0 0 0)
(0 0 0)
(0 0 0)
(0 0 0)
(0 0 0)
(0 0 0)
(0 0 0)
(0 0 0)
(0 0 0)
(0 0 0)
(0 0 0)
(0 0 0)
(0 0 0)
(0 0 0)
(0 0 0)
(0 0 0)
(0 0 0)
(0 0 0)
(0 0 0)
(0 0 0)
(0 0 0)
(0 0 0)
(0 0 0)
(0 0 0)
(0 0 0)
(0 0 0)
(0 0 0)
(-0.00163029273682 3.86487335984e-05 0)
(-0.00260730831147 6.18104724774e-05 0)
(-0.00100644635018 2.38673987903e-05 0)
(-0.0016303375054 3.86497949103e-05 0)
(-0.181408496058 0.00445696088903 0)
(-0.108654914355 0.00266950398799 0)
(-0.00295087976186 6.99553909686e-05 0)
(-0.00174055689676 4.12627243542e-05 0)
(-0.00195068092427 4.62440552393e-05 0)
(-0.00124562530121 2.9539414398e-05 0)
(-0.0153847432834 0.000378563158178 0)
(-0.0406573480884 0.000998895940487 0)
(-0.00928707678169 0.000228521532791 0)
(-0.000702687026881 1.66638902236e-05 0)
(-0.000165041962531 3.91389201835e-06 0)
(-0.000588378839046 1.39531256572e-05 0)
(-0.000125053356736 2.96558116062e-06 0)
(0 0 0)
(-0.0012244455759 2.71417106603e-05 0)
(0 0 0)
(-1.99959637861e-05 4.18337658402e-07 0)
(0 0 0)
(-1.10782430999e-05 2.31769087361e-07 0)
(0 0 0)
(0 0 0)
(0 0 0)
(0 0 0)
(0 0 0)
(0 0 0)
(0 0 0)
(0 0 0)
(0 0 0)
(0 0 0)
(0 0 0)
(0 0 0)
(0 0 0)
(0 0 0)
(0 0 0)
(0 0 0)
(0 0 0)
(0 0 0)
(0 0 0)
(0 0 0)
(0 0 0)
(0 0 0)
(0 0 0)
(0 0 0)
(0 0 0)
(0 0 0)
(0 0 0)
(0 0 0)
(0 0 0)
(0 0 0)
(0 0 0)
(0 0 0)
(0 0 0)
(0 0 0)
(0 0 0)
(0 0 0)
(0 0 0)
(0 0 0)
(0 0 0)
(0 0 0)
(0 0 0)
(0 0 0)
(0 0 0)
(-0.0655007390668 0.0016092643871 0)
(-0.00876030224436 0.000215559507437 0)
(-0.014745288504 0.000362828477635 0)
(-0.000517801113055 1.22794082935e-05 0)
(-0.000887155792323 2.10384796772e-05 0)
(-0.000128832645368 3.05520520161e-06 0)
(-0.000197360736352 4.68031644134e-06 0)
(-0.0403808106004 0.000992101789192 0)
(-0.0150125462404 0.000369404728592 0)
(-0.00932532208429 0.000229462612033 0)
(-0.00103527978987 2.45511701641e-05 0)
(-0.000615958853031 1.46071726338e-05 0)
(-0.000194400743362 4.61012160868e-06 0)
(-0.000112817107539 2.67540430299e-06 0)
(-0.00353818426399 8.70619798147e-05 0)
(-0.00353132748493 8.68932591615e-05 0)
(-0.000760676040062 1.68615489263e-05 0)
(-0.000197737533025 4.68925199606e-06 0)
(-3.59289957032e-05 8.10767597351e-07 0)
(-3.60736550861e-05 8.14031956346e-07 0)
(-3.85401651322e-06 1.11171474452e-07 0)
(0 0 0)
(0 0 0)
(0 0 0)
(0 0 0)
(0 0 0)
(0 0 0)
(0 0 0)
(0 0 0)
(0 0 0)
(0 0 0)
(0 0 0)
(0 0 0)
(0 0 0)
(0 0 0)
(0 0 0)
(0 0 0)
(0 0 0)
(0 0 0)
(0 0 0)
(0 0 0)
(0 0 0)
(0 0 0)
(0 0 0)
(0 0 0)
(0 0 0)
(0 0 0)
(0 0 0)
(0 0 0)
(0 0 0)
(0 0 0)
(0 0 0)
(0 0 0)
(0 0 0)
(0 0 0)
(0 0 0)
(0 0 0)
(0 0 0)
(0 0 0)
(0 0 0)
(0 0 0)
(0 0 0)
(0 0 0)
(0 0 0)
(0 0 0)
(0 0 0)
(0 0 0)
(0 0 0)
(0 0 0)
(0 0 0)
(-0.00202938742079 4.99359200884e-05 0)
(0 0 0)
(0 0 0)
(-1.63061930277e-05 3.41143576855e-07 0)
(-1.95781602777e-05 4.09596747324e-07 0)
(0 0 0)
(0 0 0)
(-0.00123519786613 2.73800516337e-05 0)
(0 0 0)
(0 0 0)
(-1.63440439466e-05 3.41935459905e-07 0)
(-1.00120940905e-05 2.09464071966e-07 0)
(0 0 0)
(0 0 0)
(0 0 0)
(0 0 0)
(0 0 0)
(0 0 0)
(0 0 0)
(0 0 0)
(0 0 0)
(0 0 0)
(0 0 0)
(0 0 0)
(0 0 0)
(0 0 0)
(0 0 0)
(0 0 0)
(0 0 0)
(0 0 0)
(0 0 0)
(0 0 0)
(0 0 0)
(0 0 0)
(0 0 0)
(0 0 0)
(0 0 0)
(0 0 0)
(0 0 0)
(0 0 0)
(0 0 0)
(0 0 0)
(0 0 0)
(0 0 0)
(0 0 0)
(0 0 0)
(0 0 0)
(0 0 0)
(0 0 0)
(0 0 0)
(0 0 0)
(0 0 0)
(0 0 0)
(0 0 0)
(0 0 0)
(0 0 0)
(0 0 0)
(0 0 0)
(0 0 0)
(0 0 0)
(0 0 0)
(0 0 0)
(0 0 0)
(0 0 0)
(0 0 0)
(0 0 0)
(0 0 0)
(0 0 0)
(0 0 0)
(0 0 0)
(0 0 0)
(0 0 0)
(0 0 0)
(0 0 0)
(0 0 0)
(0 0 0)
(0 0 0)
(0 0 0)
(0 0 0)
(0 0 0)
(0 0 0)
(0 0 0)
(0 0 0)
(0 0 0)
(0 0 0)
(0 0 0)
(0 0 0)
(0 0 0)
(0 0 0)
(0 0 0)
(0 0 0)
(0 0 0)
(0 0 0)
(0 0 0)
(0 0 0)
(0 0 0)
(0 0 0)
(0 0 0)
(0 0 0)
(0 0 0)
(0 0 0)
(0 0 0)
(0 0 0)
(0 0 0)
(0 0 0)
(0 0 0)
(0 0 0)
(0 0 0)
(0 0 0)
(0 0 0)
(0 0 0)
(0 0 0)
(0 0 0)
(0 0 0)
(0 0 0)
(0 0 0)
(0 0 0)
(0 0 0)
(0 0 0)
(0 0 0)
(0 0 0)
(0 0 0)
(0 0 0)
(0 0 0)
(0 0 0)
(0 0 0)
(0 0 0)
(0 0 0)
(0 0 0)
(0 0 0)
(0 0 0)
(0 0 0)
(0 0 0)
(0 0 0)
(0 0 0)
(0 0 0)
(0 0 0)
(0 0 0)
(0 0 0)
(0 0 0)
(0 0 0)
(0 0 0)
(0 0 0)
(0 0 0)
(0 0 0)
(0 0 0)
(0 0 0)
(0 0 0)
(0 0 0)
(0 0 0)
(0 0 0)
(0 0 0)
(0 0 0)
(0 0 0)
(0 0 0)
(0 0 0)
(0 0 0)
(0 0 0)
(0 0 0)
(0 0 0)
(0 0 0)
(0 0 0)
(0 0 0)
(0 0 0)
(0 0 0)
(0 0 0)
(0 0 0)
(0 0 0)
(0 0 0)
(0 0 0)
(0 0 0)
(0 0 0)
(0 0 0)
(0 0 0)
(0 0 0)
(0 0 0)
(0 0 0)
(0 0 0)
(0 0 0)
(0 0 0)
(0 0 0)
(0 0 0)
(0 0 0)
(0 0 0)
(0 0 0)
(0 0 0)
(0 0 0)
(0 0 0)
(0 0 0)
(0 0 0)
(0 0 0)
(0 0 0)
(0 0 0)
(0 0 0)
(0 0 0)
(0 0 0)
(-6.74046895627 0.186246685963 0)
(-5.2368293636 0.144360215613 0)
(-5.35330151436 0.139766644508 0)
(-3.25897294399 0.085086878014 0)
(-4.62156507028 0.127399631284 0)
(-4.73974624529 0.123747639984 0)
(-7.64588343666 0.211488850583 0)
(-5.2350262776 0.144310511133 0)
(-2.47238542907 0.0681546158639 0)
(-2.54421202803 0.0664255463887 0)
(-2.55162297683 0.0666190351066 0)
(-3.59824674856 0.0991904911133 0)
(-3.59713799669 0.0991599268832 0)
(-3.7033733111 0.0966895026678 0)
(-1.50035465489 0.0413592856361 0)
(-3.17647417933 0.0875637653207 0)
(-1.19580020077 0.0312205432696 0)
(-1.97896771627 0.0516678682402 0)
(-2.80313477189 0.0772721645041 0)
(-1.06019951254 0.0276802134121 0)
(-1.70023221575 0.046869178317 0)
(-0.708624146609 0.019534173732 0)
(-0.334708524896 0.00922668879715 0)
(-0.565361441469 0.0147607362291 0)
(-0.209097611263 0.00545922388688 0)
(-0.295334115068 0.00814128045217 0)
(-0.501191682527 0.0130853604144 0)
(-0.803069600842 0.0221376891781 0)
(-1.16814858828 0.0322015804534 0)
(-1.49957775383 0.0413378693179 0)
(-1.54394576256 0.0403100998435 0)
(-0.56779036993 0.0148241518951 0)
(-2.18247094723 0.0601627348606 0)
(-0.802643549575 0.0221259445043 0)
(-0.827077659402 0.0215937527323 0)
(-0.551721973618 0.0152089551788 0)
(-0.158004468347 0.00435560480107 0)
(-0.163079729012 0.00425776624951 0)
(-0.268344963046 0.00700608306016 0)
(-0.229945333099 0.00633875109551 0)
(-0.379099278742 0.0104503793839 0)
(-0.390998970736 0.0102083945766 0)
(-0.0341595441682 0.000951574216489 0)
(-0.123103707998 0.003393518596 0)
(-0.0278304784851 0.000730199223744 0)
(-0.0757250354233 0.00198682757516 0)
(-0.108619401954 0.00299423929963 0)
(-0.0246145911162 0.000645822720422 0)
(-0.0387155104598 0.00107848867509 0)
(-0.00849788164769 0.000190643589144 0)
(0 0 0)
(-0.00721271356366 0.000160215972365 0)
(0 0 0)
(0 0 0)
(-0.004851172724 8.7849836606e-05 0)
(-0.0096311887688 0.000216068482797 0)
(-0.0266012676501 0.000741025123086 0)
(-0.0581178860679 0.00160209737252 0)
(-0.0590163365279 0.0015484348623 0)
(-0.0118932045491 0.000264183696544 0)
(-0.0845747590814 0.00233141651346 0)
(-0.0182807148002 0.000509241481009 0)
(-0.0191673255446 0.000502900668467 0)
(-0.00473373946412 8.19690434488e-05 0)
(0 0 0)
(0 0 0)
(0 0 0)
(0 0 0)
(0 0 0)
(-0.00377600641268 6.83796610117e-05 0)
(0 0 0)
(0 0 0)
(0 0 0)
(0 0 0)
(0 0 0)
(0 0 0)
(0 0 0)
(0 0 0)
(0 0 0)
(0 0 0)
(0 0 0)
(0 0 0)
(0 0 0)
(0 0 0)
(0 0 0)
(0 0 0)
(0 0 0)
(0 0 0)
(0 0 0)
(0 0 0)
(0 0 0)
(0 0 0)
(0 0 0)
(0 0 0)
(0 0 0)
(0 0 0)
(0 0 0)
(0 0 0)
(0 0 0)
(0 0 0)
(0 0 0)
(0 0 0)
(0 0 0)
(0 0 0)
(0 0 0)
(0 0 0)
(0 0 0)
(0 0 0)
(0 0 0)
(0 0 0)
(0 0 0)
(0 0 0)
(0 0 0)
(0 0 0)
(0 0 0)
(0 0 0)
(0 0 0)
(0 0 0)
(0 0 0)
(0 0 0)
(0 0 0)
(0 0 0)
(0 0 0)
(0 0 0)
(0 0 0)
(0 0 0)
(0 0 0)
(0 0 0)
(0 0 0)
(0 0 0)
(0 0 0)
(0 0 0)
(0 0 0)
(0 0 0)
(0 0 0)
(0 0 0)
(0 0 0)
(0 0 0)
(0 0 0)
(0 0 0)
(0 0 0)
(0 0 0)
(0 0 0)
(0 0 0)
(0 0 0)
(0 0 0)
(0 0 0)
(0 0 0)
(0 0 0)
(0 0 0)
(0 0 0)
(0 0 0)
(0 0 0)
(0 0 0)
(0 0 0)
(0 0 0)
(0 0 0)
(0 0 0)
(0 0 0)
(0 0 0)
(0 0 0)
(0 0 0)
(0 0 0)
(0 0 0)
(0 0 0)
(0 0 0)
(0 0 0)
(0 0 0)
(0 0 0)
(0 0 0)
(0 0 0)
(0 0 0)
(0 0 0)
(0 0 0)
(0 0 0)
(0 0 0)
(0 0 0)
(0 0 0)
(0 0 0)
(0 0 0)
(0 0 0)
(0 0 0)
(0 0 0)
(0 0 0)
(0 0 0)
(0 0 0)
(0 0 0)
(0 0 0)
(0 0 0)
(0 0 0)
(0 0 0)
(0 0 0)
(0 0 0)
(0 0 0)
(0 0 0)
(0 0 0)
(0 0 0)
(0 0 0)
(0 0 0)
(0 0 0)
(0 0 0)
(0 0 0)
(0 0 0)
(0 0 0)
(0 0 0)
(0 0 0)
(0 0 0)
(0 0 0)
(0 0 0)
(0 0 0)
(0 0 0)
(0 0 0)
(0 0 0)
(0 0 0)
(0 0 0)
(0 0 0)
(0 0 0)
(0 0 0)
(0 0 0)
(0 0 0)
(0 0 0)
(0 0 0)
(0 0 0)
(0 0 0)
(0 0 0)
(0 0 0)
(0 0 0)
(0 0 0)
(0 0 0)
(0 0 0)
(0 0 0)
(0 0 0)
(0 0 0)
(0 0 0)
(0 0 0)
(0 0 0)
(0 0 0)
(0 0 0)
(-2.19181816811 -0.10309924798 0.189800877887)
(-5.35335215713 -0.481192699722 0.733251267032)
(-1.7280433878 0.0198549195544 0.0294437802473)
(-0.692168729692 0.000651120867232 0.0202153745809)
(-4.5100388156 -0.255418437769 0.442761408152)
(-0.891446182158 0.0152097709683 0.00931281941331)
(-2.51798919763 -0.205345741853 0.319188016652)
(-1.84732657122 -0.00406143787525 0.0636300891526)
(-3.3203609068 0.0682802066274 0.0268718340682)
(-2.0439453034 0.047568488696 0.00669720442318)
(-1.21313728247 0.0316731883763 0)
(-3.64224496964 -0.0366445684021 0.159689408909)
(-1.74439699831 0.0410135243086 0.0080917540476)
(-1.07238375397 0.0279983256155 0)
(-0.807413477579 -0.0173432500558 0.0456402623648)
(-0.2138152657 -0.00242004267064 0.00949861847773)
(-0.289782041519 0.00498620958886 0.00295559939475)
(-0.164383935992 0.0042918171306 0)
(-0.251652437842 0.00375654745389 0.00360685214688)
(-0.394511276755 0.0103000955999 0)
(-0.831694312434 -0.0476915079392 0.081570567686)
(-0.773139285817 0.0114806420943 0.0112404148018)
(-0.33397195326 0.00920638421342 0)
(-0.572268296288 0.0149410638119 0)
(-0.210745239371 0.0055022409767 0)
(-0.801243075012 0.0220873385472 0)
(-0.294707141516 0.00812399708645 0)
(-0.50580321466 0.0132057605769 0)
(-1.49800213968 0.0412944354034 0)
(-3.17203705771 0.0874414501201 0)
(-1.99151644637 0.051995496694 0)
(-1.21081859285 0.0316126508804 0)
(-2.79963323824 0.077175640039 0)
(-1.69724615761 0.0467868636248 0)
(-1.06578976799 0.0278261665672 0)
(-1.16672472024 0.0321623296236 0)
(-1.4987389878 0.0413147476086 0)
(-1.54753102265 0.0404037055877 0)
(-0.567417912034 0.0148144275801 0)
(-2.18054275952 0.0601095817838 0)
(-0.801933925508 0.0221063827664 0)
(-0.827559014567 0.0216063201911 0)
(-0.707320141616 0.0194982270878 0)
(-0.334013922631 0.00920754115537 0)
(-0.571041532015 0.0149090348433 0)
(-0.208912788521 0.00545439844331 0)
(-0.801364029219 0.0220906728119 0)
(-0.294811794411 0.00812688198366 0)
(-0.502594974645 0.0131219982593 0)
(-0.550952361189 0.0151877397814 0)
(-0.157855398127 0.0043514954808 0)
(-0.267776426497 0.00699123942664 0)
(-0.162203577362 0.00423489124874 0)
(-0.378718272283 0.0104398764305 0)
(-0.229638615565 0.00633029601587 0)
(-0.390366138306 0.0101918722744 0)
(-0.260359305121 0.00717715297075 0)
(-0.909038027129 0.0250588507828 0)
(-0.344006555963 0.00898149336195 0)
(-0.343527337158 0.0089689816803 0)
(-0.486563384457 0.0134127713953 0)
(-0.486417112955 0.0134087392254 0)
(-0.183559976517 0.00479247468406 0)
(-0.122978859661 0.00339007698437 0)
(-0.095789900767 0.00264057691557 0)
(-0.162557909518 0.004244142328 0)
(-0.0355605935365 0.000933017296492 0)
(-0.229815653939 0.00633517631576 0)
(-0.0496687108335 0.00138360934685 0)
(-0.0852611393518 0.00223703008928 0)
(-0.122956426462 0.0033894585832 0)
(-0.0957525312062 0.00263954677358 0)
(-0.162129784132 0.00423296461859 0)
(-0.0354538062377 0.000930215476081 0)
(-0.229712487736 0.00633233240119 0)
(-0.0496611631301 0.0013833990923 0)
(-0.0851989814776 0.00223539922866 0)
(-0.058078758678 0.00160101877361 0)
(-0.00849254169567 0.000190523791333 0)
(-0.016782772222 0.000440336203898 0)
(-0.0167411123198 0.000439243156637 0)
(-0.0234573768267 0.000653446511605 0)
(-0.0234578673911 0.000653460177142 0)
(-0.0402453849429 0.00105593401351 0)
(0 0 0)
(-0.0341407943562 0.00095105190748 0)
(-0.0071986064221 0.000159902610496 0)
(-0.0118209730428 0.000262579218437 0)
(-0.00962593705452 0.000215950664534 0)
(-0.0182707841622 0.000508964845612 0)
(0 0 0)
(0 0 0)
(0 0 0)
(0 0 0)
(0 0 0)
(0 0 0)
(0 0 0)
(0 0 0)
(0 0 0)
(0 0 0)
(-0.00424491119067 7.68710527791e-05 0)
(0 0 0)
(-0.00749415423902 0.000168125718968 0)
(0 0 0)
(0 0 0)
(0 0 0)
(0 0 0)
(0 0 0)
(0 0 0)
(0 0 0)
(0 0 0)
(0 0 0)
(0 0 0)
(0 0 0)
(0 0 0)
(0 0 0)
(0 0 0)
(0 0 0)
(0 0 0)
(0 0 0)
(0 0 0)
(0 0 0)
(0 0 0)
(0 0 0)
(0 0 0)
(0 0 0)
(0 0 0)
(0 0 0)
(0 0 0)
(0 0 0)
(0 0 0)
(0 0 0)
(0 0 0)
(0 0 0)
(0 0 0)
(0 0 0)
(0 0 0)
(0 0 0)
(0 0 0)
(0 0 0)
(0 0 0)
(0 0 0)
(0 0 0)
(0 0 0)
(0 0 0)
(0 0 0)
(0 0 0)
(0 0 0)
(0 0 0)
(0 0 0)
(0 0 0)
(0 0 0)
(0 0 0)
(0 0 0)
(0 0 0)
(0 0 0)
(0 0 0)
(0 0 0)
(0 0 0)
(0 0 0)
(0 0 0)
(0 0 0)
(0 0 0)
(0 0 0)
(0 0 0)
(0 0 0)
(0 0 0)
(0 0 0)
(0 0 0)
(0 0 0)
(0 0 0)
(0 0 0)
(0 0 0)
(0 0 0)
(0 0 0)
(0 0 0)
(0 0 0)
(0 0 0)
(0 0 0)
(0 0 0)
(0 0 0)
(0 0 0)
(0 0 0)
(0 0 0)
(0 0 0)
(0 0 0)
(0 0 0)
(0 0 0)
(0 0 0)
(0 0 0)
(0 0 0)
(0 0 0)
(0 0 0)
(0 0 0)
(0 0 0)
(0 0 0)
(0 0 0)
(0 0 0)
(0 0 0)
(0 0 0)
(0 0 0)
(0 0 0)
(0 0 0)
(0 0 0)
(0 0 0)
(0 0 0)
(0 0 0)
(0 0 0)
(0 0 0)
(0 0 0)
(0 0 0)
(0 0 0)
(0 0 0)
(0 0 0)
(0 0 0)
(0 0 0)
(0 0 0)
(0 0 0)
(0 0 0)
(0 0 0)
(0 0 0)
(0 0 0)
(0 0 0)
(0 0 0)
(0 0 0)
(0 0 0)
(0 0 0)
(0 0 0)
(0 0 0)
(0 0 0)
(0 0 0)
(0 0 0)
(0 0 0)
(0 0 0)
(0 0 0)
(0 0 0)
(0 0 0)
(0 0 0)
(0 0 0)
(0 0 0)
(0 0 0)
(0 0 0)
(0 0 0)
(0 0 0)
(0 0 0)
(0 0 0)
(0 0 0)
(0 0 0)
(0 0 0)
(0 0 0)
(0 0 0)
(0 0 0)
(0 0 0)
(0 0 0)
(0 0 0)
(0 0 0)
(0 0 0)
(0 0 0)
(0 0 0)
(0 0 0)
(0 0 0)
(0 0 0)
(0 0 0)
(0 0 0)
(0 0 0)
(0 0 0)
(0 0 0)
(0 0 0)
(0 0 0)
(0 0 0)
(0 0 0)
(0 0 0)
(0 0 0)
(0 0 0)
(0 0 0)
(0 0 0)
(0 0 0)
(0 0 0)
(0 0 0)
(0 0 0)
(-0.0265640006742 0.000739986985889 0)
(-0.0580304099255 0.00159968597549 0)
(-0.0593262091263 0.0015565651117 0)
(-0.0119445486488 0.000265324202789 0)
(-0.0844399862924 0.00232770132101 0)
(-0.0192358245642 0.000504697904221 0)
(-0.0182553666493 0.000508535363659 0)
(-0.0341135796838 0.000950293794888 0)
(-0.122885814567 0.00338751207171 0)
(-0.0760498681049 0.00199535033815 0)
(-0.0278555615966 0.000730857339219 0)
(-0.108434331521 0.00298913758526 0)
(-0.038662363946 0.00107700818542 0)
(-0.0246471829096 0.000646677844139 0)
(-0.00472804302315 8.18704043452e-05 0)
(0 0 0)
(0 0 0)
(0 0 0)
(0 0 0)
(-0.00378096689951 6.84694904165e-05 0)
(0 0 0)
(-0.00848999038786 0.000190466554659 0)
(0 0 0)
(-0.00720005271672 0.000159934737032 0)
(0 0 0)
(-0.00962269637147 0.000215877962245 0)
(0 0 0)
(-0.00484642887889 8.77639303641e-05 0)
(-0.0341308220779 0.00095077411212 0)
(-0.122903090298 0.00338798830038 0)
(-0.0754450802511 0.00197948228106 0)
(-0.027776045716 0.000728771049748 0)
(-0.108478624649 0.00299035858465 0)