/*--------------------------------*- C++ -*----------------------------------*\
| =========                 |                                                 |
| \\      /  F ield         | OpenFOAM: The Open Source CFD Toolbox           |
|  \\    /   O peration     | Version:  v1906                                 |
|   \\  /    A nd           | Web:      www.OpenFOAM.com                      |
|    \\/     M anipulation  |                                                 |
\*---------------------------------------------------------------------------*/
FoamFile
{
    version     2.0;
    format      ascii;
    class       volVectorField;
    location    "14.95";
    object      U;
}
// * * * * * * * * * * * * * * * * * * * * * * * * * * * * * * * * * * * * * //

dimensions      [0 1 -1 0 0 0 0];


internalField   nonuniform List<vector> 
28582
(
(0.809671009221 0.00443020467216 -0.000515383881661)
(0.811378052763 0.00356593387207 -0.000643766538623)
(0.810306479225 0.00478041391137 -0.00124343257462)
(0.811523217077 0.00350521485393 -0.000691273183457)
(0.81046344143 0.00442061692974 -0.00177796636896)
(0.812937643872 0.00345265871362 -0.000989279112158)
(0.815097889997 0.00531344853284 -0.00282659013144)
(0.815737374855 0.00460341673709 -0.00265202213777)
(-0.341717978817 0.0451509523976 -0.00305479293335)
(-0.417563160885 -0.107795549201 -0.00909500838793)
(-0.0280641657244 0.0717486110936 -0.200482021292)
(0.815407035012 0.00489489084775 -0.00290977104814)
(0.742158929553 0.0018720446612 -0.00256512694759)
(0.740764846492 0.000571495260482 -0.00103526621825)
(0.816345394998 0.00416282645426 -0.00154144275479)
(0.815571506961 0.00380949906408 -0.00136185396694)
(0.739315502845 0.000201570013166 -0.00110340807472)
(0.815028196998 0.00321351498185 -0.00192216670507)
(0.814226290894 0.00303807008094 -0.000785820859194)
(0.808605678893 0.00717852616287 -0.00106961538876)
(0.81252690723 0.00205121497539 -0.000414505152761)
(0.812495715927 0.00135589640603 -0.000601713652423)
(0.809238867459 0.00720467031909 -0.00152848037119)
(0.81294490569 0.00241688700547 0.000507430069876)
(0.812632173883 0.00153977961675 0.000899426455945)
(0.809140273527 0.0072834188812 -0.00290241137718)
(0.814089117124 0.00212236674259 -0.00054326443386)
(0.814957729471 0.00678148815727 -0.00439322157345)
(0.816841516646 0.0036253106748 -0.000121228803726)
(-0.406213830174 -0.116365828948 -0.00612536982607)
(0.0829268412066 0.170874754971 -0.177213847866)
(-0.0996745774469 -0.202894296763 -0.173971488244)
(0.815733181949 0.006075874766 -0.00396684308502)
(0.815260450837 0.00628248292147 -0.00377087752549)
(0.73245296594 0.00491890182399 -0.00492674714476)
(0.735551948258 0.00352418379493 -0.00600252441007)
(0.815101086152 0.00694028333844 -0.00581062833407)
(0.817156648646 0.00306874836003 0.000259644201208)
(0.815941086189 0.00374212499872 0.00073370979413)
(0.816079363244 0.00284290024304 0.00143590284392)
(0.815202982907 0.00288332141006 -0.0014622299576)
(0.736930144404 -0.00245755460115 0.000655989277362)
(0.814175824256 0.00257442244021 -0.000510137238748)
(0.813563978688 0.00296244658415 0.000677524916633)
(-0.392656528961 -0.041469140055 -0.00117689084667)
(-0.206836818532 -0.0712897252612 -0.001842151849)
(-0.100831955472 0.122088318014 -0.0177802083158)
(-0.087112613949 0.107939449129 -0.00751359970122)
(-0.422243229309 -0.0821571271434 -0.00594391026465)
(-0.117478051635 0.112082818183 -0.00194062257938)
(0.815925157991 0.00589744863705 -0.00287516602005)
(0.815038713199 0.00533056072295 -0.0012705419129)
(0.741946034141 0.00125700680482 -0.00131829446255)
(0.743960329332 0.00288029592077 -0.00178232419445)
(0.815542471296 0.0056134461545 -0.00250936380802)
(0.743751392777 0.00195380055917 -0.00082020719708)
(0.815423851669 0.00557120997363 -0.00145567198218)
(0.814548265279 0.00463146056721 -0.000766989290877)
(0.814492695038 0.00474833682205 -0.00123387537947)
(0.741169775654 0.000834040069687 -0.000523192419087)
(0.742515243052 0.0010636896883 -0.00079015408661)
(0.814287968436 0.00453390970953 -0.00108306253524)
(0.743040238714 0.00145201089338 -0.000296839376626)
(0.814902038873 0.00507664006049 -0.000852172475954)
(0.814650839971 0.00385543049802 -0.0021510310747)
(0.814583299763 0.00435519180627 -0.00156899335227)
(0.738652646381 -5.98593922697e-05 -0.00112444553093)
(0.741212934694 0.00109655360739 -0.000900464804156)
(0.814391995572 0.00426289773011 -0.00139331473502)
(0.740277654205 0.00120699352661 -0.00120666680016)
(0.814946624303 0.0039823661767 -0.00216782686159)
(0.815419620384 0.00334383830474 -0.00181207501087)
(0.736825269735 -0.000730815919246 -0.000842299463928)
(0.738001258011 0.00139122375171 -0.00072349602011)
(0.814949377849 0.00361420494128 -0.00223681023597)
(0.737416989686 -0.000316774232388 -0.0013399005705)
(0.739036702208 0.00122998503093 -0.00133520049669)
(0.815091723956 0.00368146064477 -0.00217003454762)
(0.813879312955 0.00368830703936 -0.000645094423035)
(0.740568330258 0.00324625632295 -0.00111593465148)
(0.741465869285 0.00355701022833 -0.00068814696192)
(0.814338907201 0.00331613190324 -0.00120654005053)
(0.74229720762 0.00342294625468 -0.00143380385523)
(0.814231167523 0.00379017721382 -0.00131730201867)
(0.74149036565 0.00293846497783 -0.00138092113497)
(-0.332248721565 0.00479146288782 -0.00994797322554)
(-0.152577155629 0.163007179003 0.0719770456915)
(-0.258744127909 -0.0431321440755 -0.0137065215475)
(-0.336791525429 -0.0567904619189 -0.00704817279657)
(-0.250128350801 0.152554817614 0.0865724262481)
(-0.237260951605 0.151406795791 0.0787532153526)
(-0.261429641466 -0.108004869013 -0.00055157463514)
(-0.0587517207789 -0.0257722063402 -0.0413216673791)
(-0.056815005404 -0.00998793418966 -0.0134631412963)
(-0.287230092726 -0.10911770975 -0.00207679348908)
(-0.0329975917805 -0.0338478817157 -0.0422528311651)
(-0.372821988701 -0.100958844925 -0.00653020223172)
(-0.00827069193821 -0.0132884981225 -0.0224720750256)
(0.814152390153 0.00639864415645 -0.00688790870839)
(0.813529812184 0.00575271272265 -0.00533714508189)
(0.734000184931 0.00451238818104 -0.00609296962387)
(0.733662462628 0.00433602149958 -0.00509381965263)
(0.814326934003 0.00566996518231 -0.00659701722409)
(0.813290922867 0.00632918054793 -0.0057078347284)
(0.734939957411 0.00366058060258 -0.00620661945855)
(0.815063556245 0.00656727459528 -0.00668646381301)
(0.81586187685 0.00581795571144 -0.00575517257983)
(0.735411155175 0.00395479531002 -0.00669883767857)
(0.736114345469 0.00202102646089 -0.0059731010956)
(0.814970649385 0.00564703968023 -0.00645306763742)
(0.816050217425 0.0066200419094 -0.00581168314781)
(0.736095271484 0.00264617236289 -0.0067825655912)
(0.738829386291 0.00287192448729 -0.00451568931835)
(0.738984742258 0.0020804534658 -0.00324030419521)
(0.816126471115 0.00666384911814 -0.00425784366344)
(0.815313863436 0.00715558169034 -0.00614130118339)
(0.737743806193 0.0019323914151 -0.00440111475865)
(0.816372620933 0.00701612170262 -0.00489321128339)
(0.737637687614 0.00251258594122 -0.00545925011629)
(0.815514376052 0.00328616206558 -0.00130524601563)
(0.73657591996 -0.00120359163998 -0.000351647860149)
(0.737898404218 0.00124711396178 -4.53971210528e-05)
(0.815047391487 0.00225681780706 -0.000640057901318)
(0.736619136139 -0.00149331999365 0.000589843206619)
(0.815649259661 0.00293392410359 -0.000357931987624)
(0.737441002337 0.000845632438512 0.000902643100918)
(0.815234819847 0.00220109658912 -6.29365667322e-06)
(0.81582655761 0.00247493470595 0.000591069305801)
(0.736806471418 -0.00180802881068 0.000752463541323)
(0.737821198151 -7.52066849596e-05 0.00198003294438)
(0.815618840399 0.00280886421229 0.000105118783557)
(0.815216856735 0.00160701038407 0.000716571376608)
(0.737422373953 0.000589148913572 0.00163153969502)
(0.813582537601 0.00320039913406 0.000519576622964)
(0.813743885692 0.00348400463783 -0.000299534327173)
(0.740261057396 0.00311196209003 -0.000873666851356)
(0.741040922132 0.0032525704686 -0.000187994484094)
(0.741118259609 0.00310537382554 0.000405165927566)
(0.814007156324 0.00207258653164 0.00010522995027)
(0.739916465416 0.00286705063492 -0.000593670757508)
(0.740968304378 0.00280349829795 0.000506940378557)
(0.741159971457 0.00250632656015 0.000547328210263)
(0.813491398131 0.00246608905817 0.000942738374415)
(0.814191709001 0.00176496264446 0.000521563143688)
(0.739872585488 0.00198721895066 -0.000260126177127)
(0.814120824201 0.00107336829613 0.00083256515898)
(0.739656120768 0.00237424792616 -0.000274849918135)
(0.814035520221 0.00116492059944 -0.000550270060923)
(0.817527133332 0.00264547499755 -0.000179815718146)
(-0.315685495336 -0.0518626640673 -0.00792568104164)
(0.0702281465204 -0.032370391531 -0.203768392546)
(0.815806415102 0.00589419978567 -0.00294160749159)
(0.739673761981 0.00113753275833 -0.00248196496063)
(0.816292211043 0.00222549001649 0.000969273428991)
(0.816428513767 0.00133513835485 -0.000711988612192)
(0.73721362535 -0.00384146724736 0.000499837022423)
(0.741167180605 0.00225882977409 0.000376147296445)
(0.741738513059 0.00137500124916 -0.0012294383349)
(0.816556760194 0.000105298570325 -0.002589393631)
(0.816880400892 -0.000987195600857 -0.0023227031597)
(0.741213325278 0.000966179885271 -0.00207965680706)
(0.737980173559 -0.000341674613518 -0.00224243167377)
(-0.431840680669 -0.0168839755176 -0.0026895471074)
(-0.296046057546 -0.089632190051 -0.00445959483035)
(-0.25766913135 -0.0314864630997 -0.00587669218215)
(0.0720401545421 0.046052734213 -0.0278419969886)
(0.0601851020283 0.0136734792879 -0.0333757986261)
(0.0925679968871 0.0197178190139 -0.0323285945837)
(-0.179714794338 0.0422349106995 -0.00401443289562)
(-0.116526457473 0.0863275045185 -0.000541381790378)
(0.81590314043 0.00673649813313 -0.00248786163157)
(0.816046067649 0.00641417821196 -0.00348733500007)
(0.738432092118 0.0007075907156 -0.00329149909289)
(0.739501871373 0.000397709264028 -0.00127316460818)
(0.816294883446 0.00688528130684 -0.00415367482746)
(0.738254379991 -9.68360414283e-05 -0.00189660310839)
(0.815813575671 0.00608590520237 -0.00183003564157)
(0.815434295782 0.000742610355592 0.000401134498283)
(0.816162108487 0.00201544420888 0.000556335246134)
(0.737569983549 -0.00474294806076 0.000608028176972)
(0.738015438519 -0.000839510489654 0.00166707943885)
(0.816342188934 0.00140949124849 0.000768832503269)
(0.815293557157 0.00119157132986 0.000648322581575)
(0.738256391245 -0.00152891674349 0.00099806692527)
(0.814336706708 0.000117277273021 8.92072520843e-05)
(0.813588827383 0.0020338195646 0.000707462982825)
(0.739779811037 0.00138962453905 -0.000395750386792)
(0.741457371807 0.00191576123334 -1.35369541325e-05)
(0.8142570893 0.000605108798933 0.000470260935437)
(0.740144786542 0.000733553940413 -0.000683136007058)
(0.813869309555 0.00138001008307 0.000135937137078)
(0.814637044365 -0.00038871592537 -0.000302149128017)
(0.814407615125 3.79922733558e-05 -0.00133996344999)
(0.740609769707 -0.000142489051387 -0.00160498130425)
(0.74134942856 0.00173985036006 -0.000535748170979)
(0.81498860031 -0.000870443434703 -0.00102803273801)
(0.740237728749 0.000236853641292 -0.000998618689454)
(0.814035910745 0.000691708076846 -0.00027799802219)
(0.815014403649 -0.00160959063482 -0.00196036497158)
(0.81463209776 -0.000509564580523 -0.00186607924574)
(0.740278860697 -0.000729439556819 -0.0022514278381)
(0.740593474895 0.000542295913394 -0.00216952691858)
(0.815129346171 -0.0012842867536 -0.00162784963768)
(0.739730799994 -0.000879862792521 -0.00250654614773)
(0.814684909822 -0.000999050819224 -0.00222474833925)
(0.814612124338 -0.00184611071147 -0.0019345439633)
(0.814091733446 -0.00157832112372 -0.00214890756057)
(0.737302821161 -0.00192312986215 -0.00251575488951)
(0.739097174052 6.45824221377e-05 -0.00213170322027)
(0.814284461917 -0.00211683190661 -0.00176492461853)
(0.738476946184 -0.00132502348371 -0.00222800446205)
(0.814341570889 -0.00131396848976 -0.00213974471824)
(0.789045753341 0.0112820831925 -0.00809968011713)
(0.794652993899 0.0126520533767 -0.00869977236486)
(0.801595468041 0.0176515570342 -0.00690374945367)
(0.803735072766 0.0138223567412 -0.00608948869499)
(-0.112536018395 0.0413385851283 -0.00983688400876)
(-0.168650498083 0.0670294698974 0.00714869016508)
(-0.349090956462 0.0423221035523 -0.0117275744462)
(-0.355125616693 0.0982515448351 -0.00710608536265)
(-0.469617848998 0.0440887814617 -0.00245863727119)
(0.0820378770266 0.122490096705 0.151862508439)
(0.120282297884 -0.30965676962 -0.060371785608)
(0.141620268319 -0.0758003082535 -0.0821215823492)
(0.286813878981 -0.0799384403328 -0.375499555429)
(0.131019743125 0.00620583736555 -0.0589274038108)
(0.484116638316 -0.0566602615198 -0.0524494665708)
(0.785743844855 0.00081184783784 -0.00727499248253)
(0.786670142427 0.00438801115142 -0.00691890907497)
(0.766663320044 -0.000442521720629 -0.00553443726092)
(0.768347793686 0.00227633607793 -0.00568891541624)
(0.784582916339 0.00790304866306 -0.0071170143491)
(0.767250060201 0.00311917590796 -0.00651639606891)
(0.788463151852 0.00760112409735 -0.0061460016225)
(0.791336361888 0.0093320811621 -0.0057255215069)
(0.768218910962 0.00227191756298 -0.00448461266727)
(0.770546115316 0.00387910902314 -0.0040798448528)
(0.788839703354 0.0163069022349 -0.00507360981869)
(0.792019038962 0.0125455423148 -0.00833328501464)
(0.79446080831 0.0161716489175 -0.00709025399398)
(0.767772253704 0.00307092974927 -0.00576342396457)
(0.759655663414 0.00727650250078 -0.00989497442394)
(0.769461181768 0.00454086142799 -0.00526521859031)
(0.761196900794 0.00690875867466 -0.00952567569084)
(0.799091350458 0.0209417449334 -0.00390173995161)
(0.804341659879 0.024345448068 -0.000253585053645)
(0.757180118396 0.00918905474556 -0.00942263479561)
(0.746138857036 0.0142485708863 -0.00356256724317)
(0.757696725051 0.00729138887376 -0.00982105289703)
(0.745255265545 0.00842563533185 -0.00605368631325)
(0.797875682399 0.0153165264079 -0.00879822231188)
(0.799749310467 0.0134084317052 -0.0088457660521)
(0.769801655671 0.00484927330344 -0.0055805773608)
(0.760387918592 0.00731653456342 -0.00933872175893)
(0.759832876281 0.00925593145063 -0.00970773275422)
(0.806227676489 0.019106771439 -0.00405803321835)
(0.803200009868 0.0152721358679 -0.00687498606202)
(0.807331486797 0.0158645942064 -0.0045998041615)
(0.756679652315 0.00752125692826 -0.00931840668743)
(0.743161521274 0.00779187545209 -0.00474647589381)
(0.755134641928 0.0099151787998 -0.00929147863489)
(0.740330527707 0.00956929726411 -0.00493672180533)
(0.755348427605 0.010447699558 -0.00952583681534)
(0.739453242119 0.0100688128273 -0.00537777257441)
(0.00302850595762 0.0470478062909 -0.0121711411617)
(-0.01703386418 0.0247137487105 -0.0110212835095)
(-0.0578336415095 0.0456556799899 -0.013148154334)
(-0.247787728712 0.12371613271 0.100063840753)
(-0.172043179939 0.11168585173 0.0447306429111)
(-0.263514405192 0.00289852116617 0.0926352630566)
(-0.228365472225 -0.0183884268987 0.039041101627)
(-0.135676630452 -0.119658768589 -0.0119718179097)
(-0.144857079571 -0.148205796455 -0.0595284457298)
(-0.194608760496 -0.0983160528767 -0.0418217928031)
(-0.18395457126 -0.105715084102 -0.112292455651)
(-0.0855156016317 -0.00114141768563 -0.0116788850698)
(-0.195359922898 -0.00451159412614 -0.0105373433079)
(-0.139338810636 0.0583071851115 -0.00547485181407)
(-0.219353177584 0.0313678218994 -0.00908469139756)
(-0.249626175725 0.0650356431953 -0.00778016601921)
(-0.220398292087 -0.0454327017635 0.0630281317382)
(-0.244692846405 -0.0355881323405 0.0321605450398)
(-0.224561001169 0.0228283363962 0.0627798665473)
(-0.266593371642 0.0301390906512 0.028227718642)
(-0.190608831163 0.047485501513 0.0166098174274)
(-0.270582001123 0.0892052532121 0.00152717488097)
(-0.284313942019 0.0889348435143 0.0117615664214)
(-0.204278505893 -0.0530632280148 -0.0300357832576)
(-0.111329615937 -0.0336393892958 -0.116368510291)
(-0.210000588852 0.0788887199543 -0.015911769925)
(-0.147074718747 0.121041362452 -0.069552302398)
(-0.356147211292 0.0740264850647 -0.0114564647835)
(-0.431158499598 0.0436740194038 -0.00986729132351)
(-0.184128934293 0.0166426376164 0.0906270138787)
(-0.20219751689 0.0338606548327 0.0504365633719)
(-0.191849024545 -0.000774399360472 0.0498684339015)
(-0.351272765299 0.101930955189 0.00326588640029)
(-0.418846700014 0.0748407606069 -0.00773629234835)
(-0.400507230857 0.0872732939377 -0.00087912892782)
(-0.212653200094 0.134999780717 0.0139369640787)
(-0.116814942001 0.201590303162 -0.0156218644039)
(-0.181349838599 0.0420976341705 0.0271087852296)
(-0.0808133980697 0.0858193573176 0.0204384896089)
(0.788617854428 0.00165941353739 -0.00643676880083)
(0.787283283498 -0.00106375913431 -0.00797641995629)
(0.766618153401 -0.00134299754812 -0.00316085841171)
(0.767448155165 0.000875964896682 -0.00608374455002)
(0.787312337878 0.00181707655495 -0.00863936698028)
(0.767377822818 -0.000300949032634 -0.003501428588)
(0.788706678589 -0.00085878371614 -0.00605422239363)
(0.789155379988 0.00368326229449 -0.00620742386439)
(0.788601788629 0.00712762515219 -0.00765277569022)
(0.76780807659 0.00169305418738 -0.00581649677273)
(0.767922213925 0.00114674464021 -0.00334112111539)
(0.787777895341 0.00472513284978 -0.00836579889284)
(0.790093861472 0.00538965834246 -0.00639677804318)
(0.76741090907 0.00051094662469 -0.00329873482402)
(0.786900251469 0.00630889242278 -0.0105536298511)
(0.788444054794 0.00750256290878 -0.00914168403073)
(0.766260115279 0.00225943645309 -0.00663269764449)
(0.76585003498 0.00517252467478 -0.00929022171565)
(0.78723340819 0.00503760065334 -0.00912984930515)
(0.787910136478 0.00927927947335 -0.0101540982172)
(0.764899447361 0.00425198734125 -0.00902660267781)
(0.792310457344 0.00805541473042 -0.00486433149748)
(0.789996337575 0.00833053958999 -0.00725662535609)
(0.768062527184 0.000938830897297 -0.0026337932506)
(0.768824789412 0.00318799983041 -0.00383328581811)
(0.791104125716 0.00750731959757 -0.00524755219678)
(0.791304868725 0.00887083146657 -0.0069085837221)
(0.769050817344 0.0020719082951 -0.00193684151236)
(0.793342203714 0.00856333996532 -0.00484759075063)
(0.793614233912 0.00978006927597 -0.00698868118964)
(0.769472458439 0.00373493248489 -0.00416213854525)
(0.770511302338 0.0027224609466 -0.00202956184316)
(0.792365877904 0.00925868865248 -0.00686830750158)
(0.794381654978 0.0089874429579 -0.00485617157201)
(0.769857314869 0.00266480579161 -0.00233878951044)
(0.791292911375 0.0119417815818 -0.0103077192494)
(0.789588683437 0.00982431903926 -0.00782573086505)
(0.765878637866 0.00504433674664 -0.00830397087675)
(0.768441959803 0.00403203778162 -0.00500465386857)
(0.789892320473 0.0114827046915 -0.0106705618055)
(0.790930418852 0.0104305587734 -0.0074605000438)
(0.766567832741 0.0056047512143 -0.00752025212993)
(0.792346047584 0.0133085000508 -0.00981206340356)
(0.792631364547 0.0144866205512 -0.010571384542)
(0.764054046075 0.00563568230174 -0.00905814202002)
(0.760591129778 0.00729925761126 -0.00934118748368)
(0.790692280053 0.0125744549912 -0.0101048712429)
(0.794521280286 0.0149851349842 -0.0107796803529)
(0.764697257982 0.00580980507222 -0.00836316727436)
(0.79269610354 0.0123396407917 -0.0104627843015)
(0.793633510609 0.0113686569181 -0.00769041861859)
(0.7690544161 0.00437336833482 -0.00551717959702)
(0.767581896529 0.00565237372068 -0.00764839861121)
(0.792282038035 0.0108732476419 -0.00747331895874)
(0.794123344331 0.0127102809109 -0.0107524248766)
(0.766966440756 0.00550685168886 -0.00763509199917)
(0.794051323074 0.0139079146268 -0.0100836850852)
(0.797982757914 0.015401169999 -0.0119352018766)
(0.760971860354 0.00691762315788 -0.00948227040298)
(0.764539484522 0.00616597494979 -0.00860071706971)
(0.796398849052 0.0153106449711 -0.0115514728745)
(0.795524726491 0.0141351347588 -0.010489322576)
(0.764545800864 0.00582499708494 -0.00872593175514)
(0.799864381416 0.0187457162416 -0.0054791043151)
(0.795190112417 0.0167434718156 -0.00955025765984)
(0.752289492559 0.0104756704418 -0.00674959709673)
(0.757880368337 0.00839098617494 -0.0094696907431)
(0.797629391879 0.0188008869597 -0.00457042615856)
(0.797128205749 0.0169685483734 -0.00974442510183)
(0.753129073259 0.00948678977548 -0.00720036420717)
(0.803058365471 0.0210222970407 -0.00523037489677)
(0.803552578052 0.0228170372192 -0.000375118501709)
(0.749755679093 0.0125539089707 -0.00609699104144)
(0.746141082146 0.0122393423948 -0.00488659746193)
(0.800946300772 0.0216068459478 -0.00424748328367)
(0.750243957094 0.0110150701824 -0.00657272695436)
(0.805263340359 0.022259305417 -0.00168607607213)
(0.801942102727 0.0186170815458 -0.00838853418299)
(0.80009362193 0.0167906447398 -0.0112115601757)
(0.757809974504 0.00742556331877 -0.0098084666199)
(0.753151012771 0.00788258647891 -0.0087933326703)
(0.798607295263 0.0169216436939 -0.0108912307248)
(0.803377285448 0.0183261020863 -0.00953019167037)
(0.752960401775 0.00841483135457 -0.00831912734542)
(0.804729752504 0.0202114488606 -0.00810715394297)
(0.807835452239 0.0207229566477 -0.00573593748377)
(0.745829926979 0.0101575995661 -0.0056742585135)
(0.749847664292 0.00805780765464 -0.0085109107944)
(0.805939530037 0.019315301435 -0.00910101912422)
(0.750251940453 0.00915251514674 -0.00778495209785)
(0.806686663219 0.0216449711187 -0.0047708734153)
(0.796494444196 0.0123200800227 -0.0115367294948)
(0.794825806651 0.0113751408674 -0.0083301221041)
(0.767360320978 0.00611870513602 -0.00776343131016)
(0.770240765151 0.00533582337858 -0.00595874597458)
(0.795409154926 0.0125892106676 -0.0112597293099)
(0.795853676099 0.0113230028347 -0.00876965792017)
(0.767689434208 0.00649252061735 -0.00808714956482)
(0.797985669228 0.0134822957636 -0.0112393054407)
(0.799230915962 0.0149956941463 -0.0125591292232)
(0.764181827855 0.00661545367345 -0.00845026696748)
(0.76025902398 0.00798415432498 -0.00964007771228)
(0.796850262308 0.0138940293166 -0.0109694267568)
(0.800453023264 0.0144831000963 -0.0129537063648)
(0.764273839338 0.00735689748515 -0.00869833036163)
(0.798872129216 0.0132040763214 -0.0113717196814)
(0.802013232249 0.0136550047057 -0.0130367940869)
(0.759745907773 0.00849189837722 -0.00974503324275)
(0.764634944371 0.00847062630226 -0.00897641289087)
(0.801247963218 0.014017349427 -0.0129154558379)
(0.799742469062 0.012966460619 -0.0116056004745)
(0.764303202174 0.00786428629598 -0.00898137818455)
(0.805574906642 0.0164511204702 -0.0109447470533)
(0.801536192078 0.0163040764944 -0.0114495301459)
(0.751597709542 0.00783897400268 -0.00835492949061)
(0.756175450084 0.008199934248 -0.00959920994378)
(0.804664816291 0.0175692149006 -0.0103082357593)
(0.80274276691 0.015504012783 -0.0116122770203)
(0.751160766201 0.00852904985272 -0.00878527220847)
(0.807778081091 0.0170505887289 -0.00953687992989)
(0.809062509908 0.0194547255603 -0.00622200123976)
(0.74849160454 0.00765456432582 -0.00785964362542)
(0.742613303121 0.00782705771013 -0.00542803115666)
(0.806911689879 0.0183301119986 -0.00950493677984)
(0.747604922964 0.00810647112798 -0.00810267717326)
(0.809763280105 0.0177056568957 -0.00677426439981)
(0.806207124272 0.0155525959462 -0.0109840027367)
(0.804107981792 0.0142465307622 -0.0114196158615)
(0.755395359346 0.00889004552278 -0.00940048988804)
(0.749736471443 0.0101891069769 -0.0082689342517)
(0.803533376421 0.0147470104686 -0.0112182368562)
(0.806625513805 0.0147201792358 -0.0110608285292)
(0.75011050173 0.0090130441833 -0.00837922843677)
(0.808371670638 0.0159166832538 -0.00918290898286)
(0.810404419107 0.0148686243844 -0.00712096737341)
(0.740977083465 0.00825768294089 -0.00501643759325)
(0.74548796741 0.00999550754963 -0.0073902836412)
(0.808528060252 0.0149330272868 -0.00937958222864)
(0.746307895909 0.00877342720934 -0.00764023916471)
(0.810314276503 0.0162935765344 -0.00702609840993)
(0.806522201451 0.0135403125952 -0.00993330693081)
(0.804280786312 0.0138528835892 -0.010894988781)
(0.749541853456 0.0107375003457 -0.00844638488982)
(0.755567255969 0.0108937801684 -0.00878393592213)
(0.806659488715 0.0141438780495 -0.0106060498417)
(0.804596932536 0.0135149396526 -0.0106747635113)
(0.749588795763 0.0113912886768 -0.00742015259541)
(0.810046398159 0.0137750609824 -0.00718301194929)
(0.744826531669 0.0105698951116 -0.00742228589379)
(0.808296216281 0.014084839129 -0.00914780985494)
(0.811468057048 0.00524568604565 -0.000673908986478)
(0.813060875463 0.00392683873341 -0.000771852746273)
(0.814158565869 0.00240786026244 -0.000660032622339)
(0.811876336848 0.000217321607526 -0.000575237111321)
(0.804003498411 -0.000534790334213 -0.000224202920984)
(0.832136078382 -0.047516185724 -0.000256059599387)
(0.812037837454 0.00543674636806 -0.00144295690679)
(0.813426194378 0.00420675108756 -0.00067068514618)
(0.814431845098 0.00330433307859 -9.2031321659e-06)
(0.812739993713 0.000347875983195 0.002495023025)
(0.804748756906 -0.000934454204183 0.00611247473281)
(0.837281963758 -0.0542637767456 0.00743596575745)
(0.811407254712 0.00567936638928 0.00120121199798)
(0.804374955664 0.0064500203715 0.000901637738407)
(0.782297530662 0.0109854715186 0.0014133388112)
(0.779381355573 0.0112627223897 0.000802820230542)
(0.777031451597 0.0116493681464 0.000706577453085)
(0.769180688559 0.0126595515689 -0.00215844086687)
(0.777607741927 0.0138845027481 -0.0433706498531)
(0.708918720655 -0.0110734018429 0.0281203724812)
(0.820776982506 0.00480814796921 -8.5007214203e-05)
(0.816356112926 0.00302639323987 -0.000413791741734)
(0.813611910926 0.00116389539192 -0.00155222300012)
(0.812888983078 -0.00131247792824 -0.00350516246012)
(0.811419178034 -0.000747177613981 -0.00439747987983)
(0.811760971468 0.00170832825853 -0.00458586100517)
(0.802438867587 0.00898328704114 -0.00608875933137)
(0.831550213672 -0.0905027270133 -0.00214649191404)
(0.81413729368 0.00634621625223 -0.000819019339137)
(0.816011353595 0.00494252185585 -0.000862912580154)
(0.81648040174 0.00351546917491 -0.00141884739349)
(0.816222756064 0.00287521813724 -0.00247809712963)
(0.815635636928 0.0028326018255 -0.00248941621245)
(0.815893769346 0.00269266450125 -0.00200044127073)
(0.807638507129 0.00243809777608 -0.000930251046846)
(0.843518197726 -0.0556835942466 0.00294248476968)
(0.810799166241 0.00709093436679 -0.00101306994587)
(0.813594695679 0.00451295878984 -0.00065034352522)
(0.814787236534 0.00287063335296 -0.000944366304994)
(0.815184969816 0.00155497184242 -0.00124219207598)
(0.814460701873 0.00114186743833 -0.00175268006954)
(0.814206902583 0.000190185495616 -0.0014008075003)
(0.805393661265 -0.0013948935237 -0.000478213741904)
(0.835861424793 -0.0673440711783 2.65220463497e-06)
(0.813835320899 0.00207506059505 -0.000942613790033)
(0.81342369609 0.00114472098179 -0.000771957176829)
(0.804942159399 9.32751957825e-05 -9.64349292967e-05)
(0.834364836081 -0.0490792543197 5.61356380868e-05)
(0.634426394327 0.0423123270089 0.0160485829949)
(0.628040044929 0.0398037154019 0.0152496902819)
(0.63859656463 0.024746563412 0.0162308785046)
(0.635562886433 0.0230003987922 0.0145512006054)
(0.632732439019 0.0201461575534 0.0187841156836)
(0.578228300523 0.0148423735432 0.0278498923257)
(0.684030613529 -0.000581028412668 0.0473779179545)
(0.0762736528999 0.138182947143 0.0780791336851)
(0.76912374751 0.0122467713689 0.00926046781206)
(0.762241494706 0.00986830590099 0.00886728103125)
(0.768487809461 0.00331177538155 0.010458051252)
(0.766265785085 0.00247294851387 0.0126333700107)
(0.765707342244 0.00477984075441 0.0141273421701)
(0.761411090564 0.00790007581036 0.0196264252478)
(0.7540281242 0.0587844693689 0.0332579720197)
(0.749222129219 -0.225588298349 0.0514001344849)
(0.816296139624 0.00741438409716 -0.00063528307982)
(0.815834151054 0.00568550921995 -0.000574349978517)
(0.815401523086 0.00596668493022 -0.000638292788032)
(0.815641093329 0.006825221747 -0.00060233770425)
(0.81549360497 0.00762992216741 0.000596995364731)
(0.818072204574 0.00791179398039 0.00408143192568)
(0.811325831914 0.0107578679655 0.014847397927)
(0.889085859303 -0.075505826234 0.0200109514284)
(0.811641043587 0.00725861288956 -0.00139173624749)
(0.814070654093 0.00486367136426 -0.00125154304357)
(0.81473984035 0.003554333434 -0.000813319145166)
(0.814958944833 0.00304855516083 -0.000270617633943)
(0.814527721295 0.00269219751975 0.000846350952862)
(0.81598807931 0.00169073608757 0.00391667900273)
(0.807176856323 -0.000375239800906 0.0106096293381)
(0.850909092835 -0.0879827808339 0.0136261554591)
(0.81401744796 0.00283222731593 0.000672538923229)
(0.814641182982 0.00186494652046 0.00265024403242)
(0.806147613176 0.00031334215864 0.00703565370355)
(0.842788249852 -0.0600066877648 0.00905792763985)
(0.629256370987 -0.0142775094072 0.026096128963)
(0.623196620839 -0.0161646091852 0.0218642005212)
(0.626858185732 -0.0194929024039 0.0189209983458)
(0.627599317226 -0.0170661538402 0.0201205769728)
(0.633163928281 -0.0145879885746 0.0254137155528)
(0.638062423024 -0.00461653344967 0.0293935458385)
(0.693969717805 0.0662420008502 0.0845106001485)
(0.721691563663 -0.390127955661 0.0205476000542)
(0.730337561958 0.00655926002392 0.0264084736988)
(0.726050436575 0.00207115779653 0.0250002585279)
(0.776558763196 0.00169142694401 0.00816740539907)
(0.775851274513 0.00173635078442 0.00916067898334)
(0.777688448747 0.0021758478271 0.011339809481)
(0.785906333244 -0.000750150725057 0.0115003016497)
(0.795726673123 0.00380683976964 0.0225799462988)
(0.915686006662 -0.246384847134 0.0240084633285)
(0.816757967324 0.00688443018401 -0.00114493437192)
(0.81771384518 0.00565051399083 -0.00114772034291)
(0.817317100282 0.00302643186308 -0.00200367458112)
(0.817827995567 0.00192438264675 -0.00226728605323)
(0.819430854799 0.00193099662215 -0.00219182189042)
(0.828545597252 -0.000318702351157 -0.000799191817233)
(0.822068698613 -0.00484784647397 3.21653385842e-05)
(0.927602627248 -0.18409916261 -0.00213010661781)
(0.808502247083 0.0109568170034 -0.00247867369884)
(0.811578253186 0.00701756942146 -0.00194963984557)
(0.814579552597 0.00419848490989 -0.00188603315692)
(0.816199054033 0.00254168508788 -0.00184037119088)
(0.816939561071 0.00153342659927 -0.00221733868792)