/*--------------------------------*- C++ -*----------------------------------*\
| =========                 |                                                 |
| \\      /  F ield         | OpenFOAM: The Open Source CFD Toolbox           |
|  \\    /   O peration     | Version:  v1906                                 |
|   \\  /    A nd           | Web:      www.OpenFOAM.com                      |
|    \\/     M anipulation  |                                                 |
\*---------------------------------------------------------------------------*/
FoamFile
{
    version     2.0;
    format      ascii;
    class       volVectorField;
    location    "9.05";
    object      U;
}
// * * * * * * * * * * * * * * * * * * * * * * * * * * * * * * * * * * * * * //

dimensions      [0 1 -1 0 0 0 0];


internalField   nonuniform List<vector> 
28582
(
(0.815894653546 0.00417082926186 -0.000250249213439)
(0.816484434452 0.00308758501025 -0.000235671476448)
(0.816322841343 0.00425000980968 0.00113839227007)
(0.816593863836 0.00303318233719 0.000604227051484)
(0.816029001773 0.00375675929172 0.00181754736401)
(0.816134385567 0.00266357187383 0.000643627259455)
(0.818013210281 0.00570252644903 0.00469836977604)
(0.816313298386 0.00378628784313 0.00117731666134)
(0.069588192269 0.0183718538898 0.00908008329574)
(-0.0448296255595 0.0295523659178 -0.0163416549688)
(-0.574841374978 -0.0801119944141 0.0180269837167)
(0.816382209371 0.00430347669864 0.00355778917772)
(0.75921319378 0.000377576705897 0.00889356105782)
(0.759610327207 0.00227056721288 0.00657298399182)
(0.815875963673 0.00302714559658 -0.000606566631941)
(0.815243803157 0.00200845473849 -0.00061826323328)
(0.760213154368 0.00195612639542 0.00587363197432)
(0.813214884463 0.00262073061962 -4.07335524289e-06)
(0.812674320667 0.00199859618398 0.00032517847884)
(0.81553531885 0.00755738152607 -0.000606493193655)
(0.817356644056 0.000863322359927 -0.000211242362885)
(0.816527249683 0.000236971810294 -0.000445596770475)
(0.816374868901 0.0077742863248 0.000350771698056)
(0.817234505087 0.00126945858845 0.000343562487561)
(0.816617826687 0.000204457253485 0.000330737288553)
(0.818166733123 0.00789828618454 0.000909463145995)
(0.817200962823 0.00107238908308 -0.000264873092331)
(0.823865953848 0.00958080245044 0.00350375646365)
(0.816084592133 0.00220637646725 -0.000732052874005)
(-0.107974605712 0.0213832214047 -0.0154986003205)
(0.222662909983 0.690827470497 -0.43040770665)
(-0.204480219388 -0.265851361183 -0.340799624436)
(0.821310928501 0.00760221832983 0.00647937648737)
(0.819919087582 0.00756786426542 0.00637137768052)
(0.763689495178 0.00234324101976 0.00223007832317)
(0.755747152816 0.00317659068443 0.00655046358948)
(0.820101412585 0.00785887845204 0.00930047926567)
(0.817327295593 0.00138054305705 -0.00103369134848)
(0.815311069337 0.00110837122756 -0.0011550756543)
(0.816832454925 0.000128613044509 -0.00167342689195)
(0.813546945043 0.00191921992278 -7.93006309181e-05)
(0.768430345865 -0.00606845698784 0.000528526393984)
(0.813011732864 0.0012146065913 -0.000216188277102)
(0.814065958217 -0.000870865114891 -0.0022956721224)
(0.0989947489524 0.0217557360481 0.00184078269283)
(0.130738263442 0.0955785077494 -0.0112069975455)
(-0.281634648113 0.126701795091 0.0083531498692)
(-0.179393672962 0.0766921377815 -0.00138928577662)
(0.0551745956379 0.0270683697826 -0.0110899558693)
(-0.13465639888 0.131211289423 -0.0447253908015)
(0.816203228962 0.00553052619251 0.00937347600737)
(0.814382898759 0.00437464932758 0.00876285602051)
(0.759097337763 0.00137036420701 0.00835884717937)
(0.760964408449 0.00115046357094 0.00866835333077)
(0.815783257237 0.00468814833222 0.00928325198995)
(0.760978688981 0.00225881774149 0.00823235736291)
(0.814655275931 0.00499978746072 0.00902100747831)
(0.814024149426 0.00369201825741 0.00796387107494)
(0.813544852841 0.00441717697619 0.00597161747015)
(0.759270882104 0.00171130295366 0.00770447608793)
(0.760755869229 0.00401545785367 0.00643984104902)
(0.81339384327 0.0038553112832 0.00602781400643)
(0.760903035827 0.00320863829575 0.00800158703486)
(0.814178784721 0.00433578671131 0.00766749426901)
(0.812693438806 0.00337368743982 0.00254355218731)
(0.812939862856 0.00382670976874 0.00498887554179)
(0.761500086234 0.001655741211 0.00375708647109)
(0.7611568826 0.00442757543842 0.00552295274951)
(0.812776520801 0.00340108671859 0.00492760188718)
(0.762081033347 0.00509724391576 0.00369950748336)
(0.812762162945 0.00371706815801 0.00236984530369)
(0.813498487546 0.00311254111848 -0.00039833689746)
(0.765375723396 0.00013005285736 0.00103268603545)
(0.765019870757 0.00384924278919 0.00145343923642)
(0.813086393278 0.00296494378328 0.00184875577167)
(0.763444627575 0.0009561274823 0.00224510684356)
(0.763810571239 0.00452117501943 0.00279003339206)
(0.813222946011 0.00353037922101 0.00153486353676)
(0.812142654533 0.00120027078229 0.000605467436236)
(0.765942127024 0.00562335461311 0.0023392134947)
(0.76568484835 0.0084530223155 0.00318766643565)
(0.812730925817 0.00232909722551 0.00280068963299)
(0.764929566589 0.00869627779737 0.00472767360697)
(0.812335086053 0.00152464552549 0.00275945156679)
(0.764589541215 0.00624213710901 0.00448594579583)
(-0.0765916807416 -0.0198172855272 0.0211575503904)
(0.0533273109826 0.455974017779 -0.255848164921)
(-0.318386566402 -0.0214934837583 0.0269204186162)
(-0.172223807547 -0.0584843863488 0.0244726188767)
(0.00798175039031 0.273509666953 -0.268942358665)
(0.0795050121089 0.309180442605 -0.258450694012)
(0.0855270258809 0.0627520266809 -0.0161688264631)
(-0.329567400412 0.0592049552083 0.0275731467641)
(-0.266927843051 0.0114225386215 0.0274520865769)
(0.0369763138197 0.00696502362752 -0.0147139915876)
(-0.307355641388 0.0432697744892 0.0326018854865)
(-0.120876014874 -0.00626680436674 -0.0104867094558)
(-0.235691718347 -0.00844980250623 0.0324001223486)
(0.823538758029 0.00906698403499 0.00710676973319)
(0.825966489176 0.00899895034879 0.00304130365663)
(0.760651436476 0.0024863748079 0.00379220297713)
(0.763731969884 -0.000604321422603 0.00253379788681)
(0.824305902247 0.00830865442155 0.00669377329346)
(0.825296163194 0.00982473250147 0.00341306157482)
(0.760469957653 -0.000632839297299 0.0038148234578)
(0.821104652853 0.00844104504634 0.00654800625897)
(0.819792134826 0.00686480831409 0.00852712972755)
(0.75737202036 0.00277165926372 0.00466964165357)
(0.755596853933 -0.000112221022783 0.00645480996148)
(0.82190754473 0.00765157882082 0.00620155120179)
(0.819054408095 0.00756320434274 0.00881502694967)
(0.757539930545 -0.000230926470738 0.00497069723529)
(0.760133670062 -0.00177784527917 0.0081165253575)
(0.758384058695 -0.001282520005 0.00919661527582)
(0.817715243042 0.00689743547577 0.0108967518987)
(0.820644419769 0.00859969960968 0.00786210770087)
(0.756808815975 -0.000489946857253 0.00807592985491)
(0.818355584585 0.0076493655059 0.00974886937879)
(0.758702954006 -0.000648334173915 0.00713210022449)
(0.813928525068 0.00282941714177 -0.00029665135098)
(0.767078106029 -0.00154417109599 0.000265557926307)
(0.76660402909 0.00225087622129 0.000406221480531)
(0.814057100658 0.00150370584072 -0.00101231110251)
(0.768010403073 -0.00314930176489 0.000281722171786)
(0.814250663336 0.00263660141367 -0.000792296503307)
(0.767567225083 0.000645526727702 0.000112525990683)
(0.814839667186 0.000997502149999 -0.000781079738977)
(0.815868206164 0.00237002015606 -0.00103386447603)
(0.768556352716 -0.0046611156821 0.000110245376204)
(0.768299807336 -0.00253111390603 -0.00016061087603)
(0.814945814698 0.00232781473969 -0.00057840142807)
(0.815963156613 0.000720808706406 -0.00125631056052)
(0.768208568144 -0.000834413899577 -0.000315371387781)
(0.813004537463 -0.000222469883951 -0.00226438093477)
(0.812500673892 0.000443058326001 -0.000113325490571)
(0.766760905506 0.00402282893596 0.000665574671556)
(0.766181718066 0.00711642071507 0.00142395134688)
(0.76729633762 0.0057885938208 -1.95949110644e-05)
(0.813629066204 0.000592693361771 -0.00189926004602)
(0.767789433383 0.00243564497351 -0.000452714167487)
(0.767911598782 0.00421735843831 -0.001404047702)
(0.768269201769 0.0023648329098 -0.00149426049876)
(0.815673374227 -0.00116568309995 -0.00312081075833)
(0.814359769175 8.55887910196e-05 -0.00159290591805)
(0.768413979952 -0.00065713662254 -0.0006841803171)
(0.815868618423 -0.000324681667521 -0.00192322103756)
(0.768375434501 0.000927151241221 -0.00125155265558)
(0.8175435628 5.99934923569e-06 -0.000401665670417)
(0.81802332948 0.00122165593075 -0.000579087752659)
(-0.133788202248 -0.0374282844116 -0.00762113720945)
(-0.0801280584945 -0.0985508235855 -0.413859350276)
(0.819542437985 0.00681470114855 0.00518857633096)
(0.757138469723 -0.000192798191396 0.00897198985197)
(0.817321206939 -8.55580565299e-05 -0.000610304460693)
(0.817897255968 -0.00026803247872 0.000202201981316)
(0.768364911495 -0.00708906061657 0.000434154769158)
(0.768891101083 0.00114631686892 -0.00153439962728)
(0.768099984714 -0.00176424715049 0.00148947729444)
(0.817876630229 -0.000396528289403 4.96401008774e-05)
(0.817436666775 -0.000731908008618 0.000107330975836)
(0.767863806599 -0.00262549785935 0.00225401192144)
(0.766159202879 -0.00506490250096 0.0022034117476)
(0.00117105343276 -0.0508646740425 0.0109458230163)
(-0.0207417081592 -0.0412649942725 -0.00717378115213)
(-0.0546687596223 -0.0798339400048 -0.00231888562054)
(-0.189379745708 0.040975378721 0.0399828423381)
(-0.21102750426 0.0123658707641 0.0344198103448)
(-0.138387509812 -0.0144693011838 0.0255931309538)
(-0.0728401142247 -0.086464335324 0.000895049938715)
(-0.0718734446074 -0.0760790857642 0.00102989809206)
(0.815611784982 0.00608032325834 0.00888277360303)
(0.816641898683 0.00622289871158 0.00972777281415)
(0.755540238656 0.000420791675855 0.00813097597464)
(0.757111199961 0.000580964670225 0.00822898715443)
(0.817415511065 0.00704463542775 0.00869410576002)
(0.755819543483 0.000647535849668 0.0077585356811)
(0.815000738094 0.00543940686028 0.00965639184961)
(0.817281682728 0.000712461375971 0.000127453986324)
(0.816494532625 0.00256883232041 -0.000877171887515)
(0.768010311584 -0.00784176805313 0.000811164117151)
(0.768435972841 -0.00366652888695 0.000160616626872)
(0.817229985949 0.00250062749606 -0.000763334448359)
(0.816585534199 0.000775716864153 -0.000632789450056)
(0.76830721851 -0.00444555602837 0.00111280898826)
(0.817142986458 -0.000194022407295 6.01907225138e-05)
(0.816485868232 -0.00130520073314 -0.0025334159094)
(0.768843686257 -0.00175348869635 -0.000450173674335)
(0.768681196812 4.13598837671e-05 -0.000260097674346)
(0.816495418183 -0.000364200313751 -0.0012038146985)
(0.768798930182 -0.00275680309455 0.000755462373989)
(0.817431803978 -0.00109893346914 -0.000952615712681)
(0.817233011696 -5.29211863094e-05 0.000607039226541)
(0.81720077726 -0.000501627267325 0.00137335116282)
(0.768060905052 -0.00398374672116 0.00167300048455)
(0.768749547874 -0.00124140428101 0.000620187086788)
(0.816917379111 8.38174771136e-05 0.00171277933072)
(0.768624659896 -0.00347053641478 0.0010288942066)
(0.817595038362 -0.000650872149817 -0.000131415633612)
(0.815911311404 0.000274652949505 0.00233055863968)
(0.816695865969 -0.000316538539078 0.00171527833614)
(0.767703777313 -0.00469645905559 0.00181795381481)
(0.76748276893 -0.00327053141139 0.0022660310231)
(0.816508830247 9.62736673405e-05 0.00191283407006)
(0.767376104864 -0.00515139696848 0.00165624611936)
(0.815928905949 -0.000119512761867 0.00244500118197)
(0.815456700723 -6.75947219921e-05 0.00218227870822)
(0.814677880507 -0.000198604039483 0.0024764105183)
(0.766144206676 -0.00646266766992 0.00106978463079)
(0.766801047975 -0.00400471333894 0.00182442221743)
(0.814887282139 -0.000193981554416 0.00241902980436)
(0.766746537885 -0.00568793970153 0.00103897288959)
(0.815196555681 -0.000252253556492 0.00220215713561)
(0.793248138381 0.00903949460951 0.00258531461802)
(0.79828234367 0.00908193922284 -0.000937329162784)
(0.798590490865 0.0136906602212 -0.00615876441801)
(0.802364682217 0.0117284695288 -0.00805926115082)
(0.229677433698 0.0743350565844 0.00388735671081)
(0.25387049948 0.133410265851 0.00055762778353)
(0.122666429573 0.139295051844 0.00233589512749)
(0.0285491173292 0.167566193864 -0.0054651848744)
(-0.0896012466006 -0.0447734876074 -0.0118060512569)
(0.21764620429 0.00134260747261 -0.201570292503)
(0.418970828374 -0.126250424661 0.379882393643)
(0.159503949247 -0.0894125882399 -0.183760899411)
(0.57532647958 -0.176459894746 -0.0779068301885)
(0.11632147973 -0.0848327973429 -0.13106583476)
(0.495578786328 -0.0934441891714 -0.0638612802499)
(0.790641551398 0.00209332105796 0.00185238685525)
(0.792076543708 0.00465361354411 0.00205223994039)
(0.769906498999 0.000171062703402 0.00156327854535)
(0.771483518445 0.00263299459375 0.00229551513792)
(0.78935066002 0.00687192090999 0.00389594956097)
(0.769582258939 0.00354907104501 0.00347479120724)
(0.794211465164 0.00646640238911 0.00299523578624)
(0.796336412533 0.00746050041154 0.00251968891843)
(0.772201701107 0.00340919717667 0.00235067643538)
(0.7742765825 0.00473940221226 0.00110013187277)
(0.791437044737 0.0127266001358 0.00326339066399)
(0.796411699635 0.00953313098205 0.00156278699611)
(0.794904175117 0.0126355159833 0.000785690555377)
(0.770387614022 0.00441844644414 0.00354459877236)
(0.769404691811 0.00808930964982 0.00535376141701)
(0.772809683384 0.00546353825059 0.00200599625627)
(0.772005954768 0.008902727323 0.00259133490778)
(0.795724570365 0.0161263343111 -0.00295485103874)
(0.799527962811 0.0209792027622 -0.00588189065628)
(0.769711740367 0.00943098401855 0.00467882635533)
(0.769219883105 0.0142220614404 -0.00572706356872)
(0.772590515477 0.00997982876165 0.00120674223533)
(0.772638194592 0.013742994888 -0.00988052489161)
(0.797740618349 0.0113118964915 -0.00240746644393)
(0.799374941065 0.0101684944121 -0.00406757402787)
(0.773600940026 0.00537008529996 0.0020189344847)
(0.772979204446 0.00857801576568 0.00163331307272)
(0.774922805355 0.00654580737577 -0.00301899071411)
(0.803104654466 0.0166794814764 -0.011719930589)
(0.800832273299 0.0122785256198 -0.00757805153348)
(0.80544077865 0.0142696733321 -0.0129902508365)
(0.773362085832 0.00921787478752 -0.000214266665638)
(0.77262509803 0.0113863885672 -0.0111513439423)
(0.774613098204 0.00691075926447 -0.00490097690932)
(0.77296289034 0.00818529356808 -0.0147264991512)
(0.774618245742 0.00590054468401 -0.00544910939741)
(0.773196308227 0.0072434958723 -0.013952785248)
(0.176392423614 -0.0101609803607 0.00889152464515)
(0.183633885693 0.0077103861632 0.0071907372953)
(0.235793588641 0.0332204949013 0.00454965780416)
(0.135259086006 -0.0410372486115 -0.143832787508)
(0.201105290801 0.00641888067325 -0.171297117808)
(0.143853822147 -0.0370570106108 -0.143831341365)
(0.228019982075 -0.0016420122375 -0.148710995498)
(0.204540624679 0.0445747404339 -0.0925113973739)
(0.0139499423778 0.106955150758 0.205764987946)
(0.243496551735 -0.00467039800175 -0.0512624660218)
(0.145003741641 0.0158713507868 0.20174931507)
(0.187164993985 0.0482065065321 0.00663029860665)
(0.155856307602 0.0905825379209 0.0067518134528)
(0.283496958976 0.103481910331 0.00296630837618)
(0.191245253314 0.115693139871 0.0040817063861)
(0.203544659125 0.153549052647 0.00167225435223)
(0.12548548922 -0.0662452832318 -0.141283618301)
(0.160911546586 -0.0401968107291 -0.100892201269)
(0.123738254402 -0.0619800153681 -0.0876180659382)
(0.161583376482 -0.0491669884326 -0.00735238290487)
(0.111513531709 0.152163690936 -0.015601437638)
(0.13991349243 0.185768907573 -0.00249306042832)
(0.00801513326348 0.174164351001 -0.0177702567211)
(0.231483479737 -0.0638620190742 0.0509802790558)
(0.199378650097 0.00977661703178 0.286148896878)
(0.190967342734 -0.017577786692 0.179455875103)
(0.159285544452 0.0285252684086 0.30057705342)
(0.0942970094855 0.166057850763 -0.00030179979244)
(0.0312645873873 0.0837062899223 -0.00239564277954)
(0.0944214743208 -0.0567795747586 0.0259574240085)
(0.102681757284 -0.0441449205986 0.157974236743)
(0.0867923054516 -0.0389423913908 0.259369780214)
(-0.0431631680438 0.120053468378 -0.0212660160643)
(-0.0220458250956 0.0523465096147 -0.00878579764254)
(-0.078176484046 0.00680392561803 -0.0284195820755)
(0.139124783278 -0.0252748233589 0.235209201268)
(0.14117945332 -0.0150640604488 0.259676273152)
(0.135031808413 -0.0290828959262 0.281434939349)
(0.138604915684 -0.0346294277925 0.253668364438)
(0.795671530692 0.00247084188784 0.000965809793855)
(0.794489076708 0.00158781927749 0.00229296680949)
(0.773269130419 -4.16538629025e-05 -0.000130910559062)
(0.770348501967 0.00085363441741 0.00189045578791)
(0.794819446808 0.00311119566272 0.00258755514181)
(0.773574435559 0.000473976510388 0.000287199200049)
(0.79547359419 0.00111210606519 0.000393032535076)
(0.796174430478 0.00348654022924 0.000754230643035)
(0.796311746851 0.00564350905972 0.00315007396746)
(0.770777890709 0.00156264905277 0.00181289651847)
(0.774288765347 0.00190144107925 0.000695586913486)
(0.795505309788 0.0045873070703 0.00245073541337)
(0.796802673298 0.00477344001164 0.00125197261142)
(0.773891080028 0.000961340370766 0.000230369607356)
(0.792532631578 0.00619680067249 0.00564546945159)
(0.795269988806 0.00636483036317 0.00405263144767)
(0.768739452042 0.00230374493341 0.00323702615597)
(0.768709239469 0.00448656126925 0.00487414943133)
(0.794124297028 0.00500655672125 0.00412553185052)
(0.793656476871 0.00773234667741 0.00617353300883)
(0.767704622177 0.0030859680944 0.00450968562067)
(0.798352426612 0.0060953789397 0.00127827595448)
(0.797283349852 0.00635585615727 0.0032225469744)
(0.77476478089 0.00266854681976 0.000958619694616)
(0.772823011753 0.00430669985391 0.00198014673702)
(0.797596728285 0.00551608964965 0.00132299366407)
(0.798167133143 0.00692184598859 0.00308367215857)
(0.775240123822 0.00338303870167 0.000992844156968)
(0.799153148013 0.00627731912336 0.00116831824655)
(0.799834548849 0.00729789908412 0.00189779394862)
(0.773624227199 0.00455169321296 0.00208213841753)
(0.776470334616 0.00393394152734 0.000244188679999)
(0.798897171375 0.00709136203387 0.00266327532898)
(0.799968637194 0.00642329102944 0.000507580011326)
(0.775945512049 0.00369446901729 0.00130944225043)
(0.79624803685 0.00914277215002 0.00500208654845)
(0.796220618189 0.00720171253699 0.00355214239192)
(0.769542927148 0.00542688442478 0.00490041982918)
(0.771204479091 0.00510796418559 0.00318545214414)
(0.795035770869 0.00860856029135 0.00568002693882)
(0.797187630045 0.00772187305837 0.00331306058748)
(0.77047382361 0.00645460093491 0.00407567264423)
(0.79465340218 0.00987063847286 0.00433332935917)
(0.791893193636 0.0118699702635 0.00588157469635)
(0.769397428457 0.00660870113111 0.00513817341904)
(0.77055596604 0.00884134141017 0.00455685982134)
(0.79318977784 0.00963926902813 0.00501570602087)
(0.793556063281 0.0120977572231 0.00489383053996)
(0.770492402432 0.00739093573012 0.00438563076931)
(0.797303118946 0.00918414612983 0.00395813125687)
(0.799178414084 0.00795537121946 0.00185961056175)
(0.772132039763 0.00554214711857 0.00311901338686)
(0.772138528843 0.00655273061597 0.00264191341325)
(0.798181202292 0.0078781112703 0.00268961819726)
(0.798296724498 0.00912180070798 0.0028798322585)
(0.771306113375 0.00673115545368 0.00382004267246)
(0.796124307138 0.00969642666571 0.00320924525135)
(0.796276511533 0.0112342568715 0.00166299630898)
(0.771280376485 0.00895701183849 0.00414472469889)
(0.772156597112 0.00752929718486 0.00288181875406)
(0.795023990459 0.0117297333249 0.00320408324937)
(0.797228210564 0.00952135600778 0.00209363338584)
(0.771322659037 0.0077725790788 0.00421286882419)
(0.792555068489 0.0156486947865 0.00117182702836)
(0.790284115359 0.0130995050513 0.00414448297574)
(0.769132524806 0.0107943585462 0.00310690281287)
(0.770839305684 0.0102060307936 0.0037026274626)
(0.790589686173 0.0159279464806 0.00282184748213)
(0.792207870474 0.0131344722517 0.00304279246191)
(0.770419279658 0.0116459159565 0.00172220730316)
(0.793693232022 0.017281045578 -0.00380734234102)
(0.794427966251 0.0200288954127 -0.00682535436521)
(0.768766298988 0.0123171388738 0.000191719989254)
(0.770838447897 0.0156800614845 -0.0069958756031)
(0.79146060627 0.0177503341319 -0.00173122242768)
(0.770665495214 0.0134082207661 -0.00137823204999)
(0.796646511438 0.0194482232374 -0.00904253826246)
(0.794221814195 0.0145494860695 -0.00195547472005)
(0.795442051559 0.0122209492447 -0.00111642673649)
(0.771567123548 0.00999994803645 0.0029531180745)
(0.772092826852 0.0113406701491 -0.00163305406944)
(0.79392669831 0.0128824187626 0.00069553154475)
(0.795957535452 0.0135012636888 -0.00401888708967)
(0.771316507556 0.011545706019 6.30869749832e-05)
(0.795982558188 0.016707023219 -0.00712694752781)
(0.80076502178 0.0172363618745 -0.0154271780356)
(0.771956662178 0.0148198261783 -0.0082182834505)
(0.772681939251 0.012309611111 -0.00513523519083)
(0.797719341467 0.0154535051619 -0.00913848568178)
(0.771705007942 0.0127246899459 -0.00307631174308)
(0.798869042929 0.0186371167299 -0.0132676224683)
(0.799765734968 0.00835291042253 0.000460589845967)
(0.800061447695 0.00770133955103 0.00112005656533)
(0.773055289803 0.00640441783797 0.00254411653049)
(0.774460010964 0.00491349136397 0.000873724283691)
(0.799127548302 0.00866638084376 0.00170785463231)
(0.800714326433 0.00745516818457 0.000100070224216)
(0.773926634344 0.00587795968858 0.00121657717902)
(0.798927410618 0.00877387464405 -0.000765698170807)
(0.797234204909 0.0104454350706 -0.000266417494715)
(0.773217458651 0.00727322472162 0.00236307390841)
(0.773802910641 0.00791945602206 -0.000209490316883)
(0.798164039265 0.00925192491492 0.000667519162106)
(0.798054304186 0.00973307037892 -0.00202765535086)
(0.774029468982 0.00671452834875 0.000915268171691)
(0.799586264044 0.0085248621419 -0.00233849515958)
(0.799639807023 0.00956612741439 -0.00515485179075)
(0.774566093605 0.00727198455179 -0.00170964794587)
(0.77539244309 0.00577127882687 -0.00165744559564)
(0.798799203627 0.00940240151978 -0.00381899926628)
(0.80035866768 0.00869698520876 -0.0036053364768)
(0.774866389904 0.00619020772692 -0.000306881429144)
(0.798393408786 0.0115242989745 -0.00912807633175)
(0.796655470262 0.0113731936414 -0.00341175912458)
(0.772675930506 0.0104673347751 -0.00341023489317)
(0.774025016198 0.0084330717141 -0.00213107156843)
(0.797186013939 0.0123289913685 -0.00687997791661)
(0.797751166986 0.0106221721773 -0.00536674789519)
(0.772945027459 0.00965886160076 -0.00542777051225)
(0.801110970045 0.0132232413202 -0.0125125611396)
(0.802539975637 0.0160373788496 -0.0179364925603)
(0.772936871699 0.0107333903961 -0.00661936627972)
(0.772592250952 0.0101055174734 -0.0128459003915)
(0.799401139576 0.0142122820674 -0.0110532558472)
(0.77323039661 0.00959848738668 -0.00830923570387)
(0.804279149822 0.0149822938118 -0.0198227418185)
(0.799487414026 0.0113501896963 -0.0114208853671)
(0.800006974186 0.0104931044582 -0.00830485605349)
(0.774457775168 0.00749647575319 -0.00368635213225)
(0.773364394119 0.00758402172802 -0.00809781979204)
(0.798863273219 0.010400962464 -0.00713909445924)
(0.800632919766 0.011603026513 -0.0127639063172)
(0.773289713808 0.00853116563297 -0.00703729504091)
(0.802594445631 0.0130457261278 -0.0140487967875)
(0.807191396112 0.0145011928475 -0.0222991686436)
(0.772759198053 0.00834205899792 -0.0139697209857)
(0.773089738604 0.00806767582683 -0.0102597778635)
(0.803935506626 0.0131430225477 -0.0150492572785)
(0.772979395447 0.00821692833541 -0.00936931181538)
(0.805869304742 0.0144620908325 -0.0213981323185)
(0.80291057839 0.0123995368549 -0.0133414826045)
(0.801086362773 0.0109460818703 -0.00904579912404)
(0.773692892518 0.00644941297852 -0.00851169975083)
(0.774955712551 0.00494582685848 -0.00562777175026)
(0.801875048283 0.0120991042791 -0.013328322066)
(0.802074070232 0.011295275216 -0.00920118622005)
(0.774187331965 0.00520701197162 -0.00865238486608)
(0.808437864266 0.0145186695331 -0.0214087367154)
(0.773408147578 0.0072545434992 -0.010330124501)
(0.805229236881 0.0134121969422 -0.0150901354381)
(0.81782597508 0.00500003645233 -0.000325273876739)
(0.818552644213 0.00344142895495 -0.000383389700112)
(0.818806365053 0.0014665824345 -0.000517830355696)
(0.816213839621 -0.0012186511989 -0.000168637590609)
(0.81042644081 -0.00235255535204 0.000212718359033)
(0.83077795764 -0.0474766063515 0.000475435547847)
(0.818369323554 0.00520338979697 0.00097465329244)
(0.818357281168 0.00348493688835 0.000754724877689)
(0.818812430912 0.00229650991455 0.000189896444553)
(0.816756191902 -0.00121974943186 0.00152733952943)
(0.811064436729 -0.00276087423358 0.00343243150559)
(0.833228826826 -0.0508911989209 0.00422349478733)
(0.818214840197 0.00581237852034 -3.12716028092e-05)
(0.813103478096 0.00594864191172 0.000993520165601)
(0.78857506146 0.0103026282303 0.00275108332832)
(0.784353896569 0.0104977685054 0.00218889130886)
(0.781428334492 0.012600563631 0.00109050204786)
(0.775121785441 0.0143721335328 0.00238080871941)
(0.782332428546 0.0165641964269 -0.00741549432795)
(0.72558537703 -0.0255275095122 0.0279555184618)
(0.827994609616 0.00544104643267 -1.85855527906e-06)
(0.82488433778 0.00300433488829 -2.07300276377e-05)
(0.81971335026 -3.89384650035e-05 -0.000807128747757)
(0.817387437988 -0.00176386324258 -0.00236402533134)
(0.816221065974 -0.000318954395763 -0.00311801879164)
(0.817459621113 0.00133622072293 -0.00240350682375)
(0.813099751351 0.00501429377856 0.000967698140839)
(0.832801699607 -0.0851983345814 0.0133996739472)
(0.821623028966 0.00699615964956 -0.00122517372463)
(0.823337089041 0.00489501204807 -0.000730803190786)
(0.82247863131 0.00322786007645 -0.00102304670468)
(0.820738347872 0.00263792445319 -0.00150552670486)
(0.819207651371 0.00216069684528 -0.00140518841728)
(0.819718744625 0.00145745705048 -0.000688312916143)
(0.814106571845 -0.000281102087781 0.00143749610987)
(0.837369187307 -0.0680097864392 0.00506629987157)
(0.817847177172 0.00796645136834 -0.000783165136008)
(0.820514807203 0.00460771251992 -0.000385085886018)
(0.820250454344 0.0024932382201 -0.000529325971048)
(0.819476640011 0.000840761933744 -0.000707697690951)
(0.818208935276 8.60152453735e-05 -0.000959746460762)
(0.818465102277 -0.00104848387006 -0.000476568388809)
(0.812639185179 -0.00249265755477 0.000604731750338)
(0.835117150649 -0.0688682206587 0.00218051410639)
(0.817699289702 0.00103072901213 -0.000651251327858)
(0.817515282222 -0.000266248336098 -0.000201936236829)
(0.811310970218 -0.00196090331322 0.000507760047774)
(0.833666215538 -0.0527699286649 0.00111170368355)
(0.641339022307 0.0408418606473 0.0115095374083)
(0.637061866077 0.0397921451498 0.0157517156694)
(0.645820616782 0.0241910060847 0.0206045937638)
(0.643092613744 0.020560541629 0.0158685630681)
(0.641950902947 0.0214808350197 0.0145964104901)
(0.627791871354 0.0244926377272 0.0159567260424)
(0.682481205844 0.0377097330784 0.0139468408756)
(0.394450799611 -0.0878662179802 0.057095584268)
(0.775591563401 0.0129710691552 0.00649097434684)
(0.770821883949 0.00934961745142 0.00912748344386)
(0.775859802064 0.00286302571252 0.0127341655165)
(0.772633005438 0.000921042575617 0.0127306996421)
(0.772835165963 0.00171887773352 0.0130195963226)
(0.775399016319 0.00329887813589 0.0152432471225)
(0.783586103456 0.0227464819335 0.0241455959285)
(0.804906807056 -0.161093717929 0.0387216614632)
(0.823544171049 0.00754721937536 0.000155906202127)
(0.823433189083 0.00586023636702 0.000977662925592)
(0.822008337645 0.00477886493446 0.000638617582279)
(0.820081637899 0.00529451742048 -0.000180442522769)
(0.820278390706 0.00532768397537 0.000493982486902)
(0.822765163949 0.00424586106884 0.00256947334063)
(0.819066437812 0.00174937148069 0.00742730592094)
(0.865083539823 -0.10753393657 0.0122805220952)
(0.819103167705 0.0083698305582 0.000151057276788)
(0.820845294958 0.00452042422309 0.000804834327816)
(0.81990842336 0.00294665706267 0.000553839664529)
(0.819004057223 0.00232079480076 0.000267055771044)
(0.818561621274 0.00110814664446 0.000829640093441)
(0.820295630968 -0.00113826413282 0.0026281775673)
(0.815146520964 -0.00361532781547 0.00582984972291)
(0.844979695262 -0.0855221686115 0.00851376193781)
(0.818006436823 0.00140340258227 0.000326497537481)
(0.818433612645 -3.46786653653e-05 0.0016133310342)
(0.812593486754 -0.00228994912016 0.00392435379024)
(0.838111559766 -0.061034403076 0.0050126780533)
(0.639278215824 -0.0163837756452 0.0186358150397)
(0.633265423898 -0.0172543114536 0.0236185961278)
(0.636352492458 -0.0213679090113 0.0265427776002)
(0.633420939925 -0.0203387311859 0.0224125177254)
(0.632542556603 -0.0181118016255 0.0188459223534)
(0.625502833218 -0.0107779543776 0.0209663866731)
(0.684246217755 0.0182294865531 0.0443061109042)
(0.472633980778 -0.277646862136 0.00957397475699)
(0.7395215596 0.00492364550594 0.0204873995502)
(0.734860365595 0.000324487457905 0.0254690315873)
(0.782701044649 -0.00111421722144 0.0109493348081)
(0.780969925844 -0.00224352420217 0.0100108696248)
(0.782657528602 -0.000985372701205 0.00877506483573)
(0.789959061542 0.000286035160737 0.00774685880622)
(0.804107584606 0.0169127889289 0.00823998695069)
(0.86231705589 -0.178364938055 6.79178379891e-05)
(0.826567453718 0.00764768100446 -0.00132204207265)
(0.824212774591 0.0060297240141 0.000931545821829)
(0.822384399044 0.00239170042166 -1.54890667396e-05)
(0.820637913756 0.000269734688132 -0.00181631626365)
(0.822075887523 -0.000300856437207 -0.00300099297826)
(0.826850319978 -0.00215647893263 -0.00200208201436)
(0.823193059711 -0.00598403622314 -0.00168134627208)
(0.888570846574 -0.144054509624 -0.00251368227021)
(0.818211198555 0.0122378287912 -0.00336908051247)
(0.821175289913 0.0085543556708 0.000386869184959)
(0.821576668961 0.00477380005655 0.00162944996732)
(0.819670348504 0.00225258087131 0.000184976146237)
(0.819588025128 0.00155093292785 -0.00135285407269)
(0.820205289217 0.000606430628149 -0.000816493949605)
(0.823520171683 -0.00230277720228 0.000404164639012)
(0.818522597755 -0.00555737506645 -6.81307951689e-05)