/*--------------------------------*- C++ -*----------------------------------*\
| =========                 |                                                 |
| \\      /  F ield         | OpenFOAM: The Open Source CFD Toolbox           |
|  \\    /   O peration     | Version:  v1906                                 |
|   \\  /    A nd           | Web:      www.OpenFOAM.com                      |
|    \\/     M anipulation  |                                                 |
\*---------------------------------------------------------------------------*/
FoamFile
{
    version     2.0;
    format      ascii;
    class       volScalarField;
    location    "5.2";
    object      alpha.water;
}
// * * * * * * * * * * * * * * * * * * * * * * * * * * * * * * * * * * * * * //

dimensions      [0 0 0 0 0 0 0];


internalField   nonuniform List<scalar> 
28582
(
0.9999984717
0.999998733614
0.999998547427
0.999998597393
1.00000039165
1.00000030859
1.00000601699
1.00000589204
0.0258189913784
0.0334012797716
9.46102128228e-06
1.00000617214
0.938163351985
0.936280749461
1.00000542575
1.00000747222
0.934126680567
0.999808869465
0.999794058079
0.999998795908
0.999998081115
0.999997776576
0.999999340565
0.999998161428
0.999997501855
1.00000119504
1.00000074007
1.00000613274
1.00000137804
0.0358491665997
2.973273127e-06
5.36490049867e-06
1.00000559846
1.00000801845
0.933413025611
0.933316593897
0.999880227443
0.999999806268
1.00000421397
1.00000378328
0.999749242412
0.902612199063
0.999727044946
0.999578684729
0.0275961520607
0.0332821944957
0.000279849991984
0.000310775995135
0.0303498916095
0.000250313344919
0.999868824441
0.99991990205
0.937924952956
0.939388505583
0.999884778619
0.938857867153
0.999891624019
0.999946508069
0.999937980852
0.937294507395
0.937284519
0.999947015775
0.938149085076
0.999929109383
0.999907996896
0.99993393613
0.93156090572
0.935284070091
0.999932722928
0.932495969047
0.999916632665
0.999820667491
0.923091974558
0.923103177679
0.999858824955
0.927699997129
0.928154108654
0.999884928202
0.999806600377
0.923912871815
0.926237905518
0.99984772073
0.931751436961
0.999853064261
0.929331382317
0.0253089068695
9.56967433633e-05
0.0252796741606
0.0256123235526
8.41214244397e-05
8.44391816273e-05
0.0359299048657
0.000338364934181
0.000341743322736
0.0376910003638
0.00040201832264
0.037274539028
0.000389501827683
0.999797754683
0.9997781801
0.933165483166
0.934880161157
0.999775445253
0.999794029393
0.93434202998
0.999815957408
0.999838970383
0.933098085968
0.933780384142
0.999789560573
0.999843808977
0.934036335942
0.936558900052
0.935964709004
0.999890693763
0.999835086442
0.934692685156
0.999849054097
0.934852735042
0.999751116344
0.917942025464
0.917589813424
0.999677087327
0.912374869612
0.999668573434
0.912040134202
0.999601298683
0.999506880597
0.907210588981
0.902028473557
0.999584649027
0.99950515931
0.90708938857
0.999657329711
0.999728675647
0.917860017593
0.91960611448
0.912366393043
0.999628188768
0.912102902711
0.905697467274
0.899339468342
0.999468454391
0.999547358807
0.900849361915
0.999473513765
0.906410202645
1.00000108097
0.999998919715
0.0382229180026
8.76121158101e-07
1.00000796671
0.936014638737
1.00000430321
1.00000604148
0.898379746799
0.893724976879
0.885794394856
1.00000672202
1.00000766497
0.885745249514
0.888027555232
0.0265071615084
0.0388438314239
0.0399077789258
0.000342959957206
0.000357127606044
0.000327731520383
0.0420928349013
0.0437289852699
0.999926579853
0.999907501993
0.934318993665
0.936172264111
0.999886030579
0.93433544249
0.999931862436
0.999328717324
0.999438104412
0.894158925578
0.897285645439
0.999368901921
0.999412347613
0.89289185924
0.999315925895
0.99936132716
0.89556497923
0.888586443301
0.9993954264
0.891089614204
0.999266676829
0.999223955831
0.999200462795
0.887361117381
0.886412568748
0.99921905384
0.888947298319
0.999172095159
0.999214461034
0.999192552152
0.887363689074
0.886227583326
0.99922585562
0.887952351629
0.999194300891
0.999210750196
0.999227483221
0.888434093407
0.887046670725
0.999217518469
0.888404095757
0.999205314873
1.00000582668
1.00000722955
1.00000434462
1.00000194375
0.0253118902279
0.0279894654532
0.0280114337268
0.029979270892
0.0288264225372
1.42178051162e-06
3.0598153635e-05
1.05850160154e-06
2.36051961016e-05
3.00007837291e-06
2.30761409208e-05
1.00000747387
1.0000072077
0.961899623199
0.961521204147
1.00000685225
0.96112665779
1.00000854198
1.00000825999
0.961599712793
0.954304620398
1.00000746688
1.00000354192
1.00000225423
0.959573705413
0.945448097535
0.948235849676
0.93117544486
1.00000500364
1.00000749927
0.943193507144
0.935664118207
0.931096702934
0.930128905646
1.00000443705
1.00000170126
0.943632052568
0.928446223211
0.927037652291
1.00000516177
1.00000248326
1.00000251783
0.929007357875
0.92953859521
0.927211338316
0.927404079349
0.929058999127
0.928458514733
0.0240893780289
0.023956239407
0.0245618409471
7.8697509809e-06
3.56498853504e-05
2.52600560066e-05
8.31464975738e-05
0.000189874426541
0.000392062643502
0.00026891889292
0.000394203332255
0.0239407911552
0.0249546449848
0.0269967638722
0.0267787851139
0.0283204828048
8.24716409684e-05
0.000139590152308
0.000148552203102
0.000181203608523
0.0281519999499
0.0289323392502
0.0288051232103
0.000271851935
0.000336912498206
0.000286881016446
0.000344675032008
0.029180790292
0.0292782906977
0.000189599335538
0.00020461133355
0.000201728486194
0.0297455098514
0.0303108424461
0.030174227744
0.000286595876669
0.000343522679444
0.000252535488407
0.000316626628487
0.999991356171
1.000006659
0.961879931203
0.96174845148
0.999994615086
0.961826356921
1.00000305242
0.999989243355
1.00001255585
0.961622351702
0.961704576467
0.999994279229
1.00000853513
0.961772860721
0.999983997351
1.00000967824
0.961519564924
0.959418363979
0.999992422597
1.00000736245
0.960971070025
1.00001532005
1.00001102143
0.961851854187
0.960465444262
1.00001657259
1
0.961839600093
1
0.999971157466
0.957552762704
0.958505924573
0.99999594723
0.999996245106
0.960687965829
0.999965967709
1
0.956067140784
0.95675540679
0.999992100633
0.99999453575
0.951441096487
0.999925601195
0.999939408094
0.950428211429
0.941201293162
0.999962350308
0.999865647084
0.94583704213
0.999942586276
0.999951595146
0.952280354689
0.94167747067
0.999960299524
0.999905723543
0.946398400373
0.999901698543
0.999828962668
0.936737013606
0.935611242154
0.999861094909
0.999862765922
0.941025533337
0.999851784956
0.999920486388
0.941346935387
0.937347863396
0.999922561281
0.999848259151
0.935860698622
0.99987420649
0.999922753623
0.938973795266
0.934247465744
0.999914695253
0.935149541549
0.999882338645
0.999815758966
0.999814499133
0.93354962705
0.930713763576
0.999812870574
0.99981193329
0.932645164896
0.99982789587
0.999848963443
0.93288136883
0.930145978652
0.999827740858
0.932883315794
0.999861701057
0.999852601231
0.999921780832
0.937315151392
0.939262764282
0.999887779178
0.999884161116
0.933174124569
0.999816403835
0.999815660689
0.931864675085
0.926168850961
0.999852510038
0.999790828976
0.929830771697
0.999789548723
0.999791157837
0.925925328368
0.929257436804
0.999776148804
0.99980406271
0.928745847206
0.999787933999
0.999794224321
0.928720684944
0.92576531896
0.99979808481
0.999793790127
0.926342993792
0.999794912238
0.999830487746
0.928665812816
0.927778202273
0.99981827534
0.927346027996
0.999799717979
0.999774074973
0.999791298715
0.925409856797
0.927216071843
0.999771939183
0.999798468867
0.92593823369
0.999778619659
0.999800672275
0.926980444918
0.927145151297
0.999807802768
0.926771276622
0.999789612415
0.999832916171
0.999851395434
0.92939790248
0.932762383686
0.999838923493
0.999837878665
0.93101409254
0.99982487712
0.928898345779
0.999830016684
0.999998137133
0.999997262975
0.999997978133
0.999997316799
0.999992766739
0.999991819025
0.999998179454
0.999998226145
0.999998918043
0.999997046378
0.999996460382
0.999994912735
1.00001860851
1.00001425253
0.9999821394
0.999917735043
0.999913708203
0.999958937604
0.999988603294
0.999996589406
0.999999087071
0.999995598783
0.999979358124
0.999988168845
0.999991186332
0.999985106333
0.999983593053
0.999990920357
0.999997028442
0.999995378263
0.999995580432
0.999996126895
0.999997121759
0.999998127702
0.999998023993
0.99999767759
0.999996558564
0.999995396483
0.999995545032
0.999997868351
0.999999496397
0.999999682269
0.999999499146
0.999998429756
0.999999075199
0.999998833122
0.999997764995
0.999997124
1.00009075007
1.0000456164
0.999785533644
0.999712151348
0.999849290678
0.999980844359
0.999999861009
0.999997071441
1.00003971384
1.00002168497
0.999959205233
0.999875768546
0.999912817
0.999979065068
0.999997763283
0.999998616601
1.00000297937
1.00000046614
0.999991543491
0.999985762842
0.999988434186
0.999994765723
0.999998568457
0.999999022774
0.999998926386
0.999998326932
0.99999890682
0.999999744719
0.999999802556
0.999999708108
0.999999073964
0.999998426379
0.999999548617
0.999999830325
0.999999625717
0.999999798347
1.00011495638
1.00005679688
0.999794275306
0.999785351951
0.999939529834
0.999999102454
1.00000323247
1.00000163286
1.00007697292
1.00005351434
0.999985681353
0.999953792589
0.999968052241
0.999994597089
1.00000075714
1.00000109528
1.00000744194
1.00000418169
1.00000084608
0.999997690729
0.999997447349
0.999999475258
1.00000032698
1.00000067484
1.00000095391
1.00000038768
1.00000032207
1.00000042921
1.00000060615
1.00000092647
1.00000115109
1.00000086652
1.00000071122
1.00000095042
1.00000082741
1.00000090906
1.00000155678
1.00000175753
1.00000171249
1.00000178862
1.00000235062
1.00000203732
1.00000179841
1.00011942253
1.00007979874
1.00000266897
0.999866122913
0.999986999222
0.999995485681
1.00000310502
1.00000656867
1.00001382812
1.00001355803
1.0000087291
1.00000896093
1.00000782322
0.99999998971
0.999994507524
0.99999890297
1.00000402079
1.00000537583
1.0000047175
1.00000215701
0.999999288392
0.999999474868
1
0.999998674017
0.999997951382
0.99999898419
0.999996270047
1.00000118849
1.000003321
1.00000533846
1.00000524046
1.00000201311
0.999998080517
0.999997773447
0.999999155369
0.99999688105
1.0000062932
1.00000592641
1.00000329091
0.999999970682
1.00000013515
1.0000001789
0.99999716578
1.00000003223
0.999998529425
0.99999689837
0.025939842093
0.0240618349791
0.0261464629171
0.0312653211932
0.0397544389072
0.0470225794931
0.0521391683587
0.0538270711565
0.0280205770607
0.0272537076931
0.0273811456755
0.027295869866
0.0277613450263
0.0336994540873
0.0399379738331
0.0471166966264
0.052340850078
0.0545050464788
0.0285831017445
0.0278102609491
0.0288367297053
0.02981303027
0.0309608151164
0.0361950809197
0.0405107176884
0.046696440614
0.0517107881372
0.0537542103513
0.0273576756877
0.027821558407
0.0277683053333
0.03029873443
0.0362585115879
0.0397894157135
0.0446581300348
0.0494046339047
0.0512592942927
0.0266005645428
0.0302301530078
0.0360569242986
0.0380982654998
0.0416586207141
0.0455172629348
0.047993126137
0.0412012509661
0.0449724441603
0.0459912497231
1.15806917503e-05
7.90709455441e-07
1.99666467619e-07
2.57535484296e-08
2.45054454264e-07
1.421009654e-05
4.78709769362e-05
2.52700151422e-06
9.06135897422e-26
7.96331081681e-05
8.7224905542e-06
2.60963949312e-06
6.72235235101e-07
1.19424666138e-06
4.22931507129e-06
2.09417772964e-05
6.13197691723e-05
1.35819545296e-06
-1.24565286773e-24
9.38365399527e-05
2.17694340003e-05
5.23987282828e-06
1.33424290834e-06
9.46570972542e-07
2.229766989e-06
9.18146087788e-06
4.81931193961e-05
-5.04870979341e-30
0
6.0566008479e-05
3.36957643326e-06
1.0900203695e-06
7.09298759342e-07
1.26884844985e-06
6.21847834544e-06
4.5210314515e-05
3.15600134951e-08
-1.02855755697e-36
5.08567568462e-05
3.83147150819e-06
1.14200309132e-05
2.60592406131e-05
4.41209565939e-05
1.29246970711e-27
-9.5064862774e-28
7.51362211863e-05
-3.29280853687e-25
-3.77584308156e-26
8.73482617145e-05
1.00001777884
1.00000031203
0.999999402655
1.00007637953
1.0000664943
1.00004178189
1.00003532576
1.00000833885
0.999997266357
0.999993773572
1.00004440784
1.00002061834
1.00002246987
1.00000790444
0.999998079453
0.999997627885
0.999996616613
1.00000097627
0.999999652228
0.999997606753
0.999996464743
0.999987948174
0.999994217072
0.99998607566
0.999996177701
0.999988603404
0.999994245008
0.999988364409
1.0000724966
1.00008947438
1.00007532396
1.00010386101
1.00008911436
1.00010123343
1.0000796878
1.00002086012
1.00004792456
1.00002156644
1.00005599244
1.00002061017
1.00004000913
1.00000374061
1.00003324576
0.999999598036
0.999994747155
1.0000643408
1.00005918938
1.0000185344
1.00001749928
1.00000907863
0.999994642159
0.999993957963
1.00004000876
1.00001408366
1.00001315016
1.00000813241
1.00009689665
1.00009231384
1.00007650869
1.0001167294
1.00009661628
1.00012276338
1.00010806476
1.00001611474
1.00004385037
1.00000941069
1.00005471295
1.00000815291
1.00007192813
1.00003452725
1.00007369513
1.00003093361
1.00002949131
1.00006322603
1.00005904554
1.00001122053
1.00001004602
1.00002324546
1.00002348463
1.0000142677
1.00004488664
1.00002524059
1.00000878391
1.00000533857
1.00009841479
1.00006407533
0.916283490869
0.916391428461
1.00011042059
1.00007391362
1.00006957609
0.920125641886
0.930655883356
0.919408526597
0.927919076129
1.0000422039
1.00005613263
1.00003717437
0.931777107769
0.933027809962
0.929973923279
0.933268335409
0.999895492768
1.00001756609
0.999999350915
0.933625330636
0.935866826642
0.934333377173
0.936444699705
0.999939586524
0.999976053386
0.999978724895
0.935583412879
0.909318332421
0.934342538454
0.906292503769
0.999990013559
0.999985353112
0.999984426072
0.893806172396
0.867483835396
0.892022531011
0.867672563109
1.00000187048
0.999989128064
0.999995291297
0.86795356842
0.875666828457
0.867922830215
0.87445334352
1.00000609277
1.00000573844
1.00001127782
0.877675033556
0.883244540431
0.876219151954
0.880753849939
1.00000661267
1.00001513318
1.00001350319
0.886171669907
0.869956721748
0.883444085898
0.864430923963
1.0000099142
1.00001260899
0.931387813974
0.917115942623
0.929116655886
0.923442458322
1.00001423957
1.00001511068
1.00001519547
0.914671179478
0.917241999254
0.921392444752
0.920284004461
1.00001144313
1.00001435325
1.00001145023
0.919242978689
0.925793230078
0.920417789808
0.921629095602
1.000007957
1.00000710581
1.00000292643
0.927669480598
0.932388749484
0.922594038692
0.927226790769
1.00001134654
1.00000266093
1.00000355162
0.933774716897
0.935044731845
0.928612345157
0.928528579336
1.00000234337
1.00000202938
0.99999949359
0.932067083979
0.904119829614
0.924492278619
0.899274817259
0.999996914149
0.99999793647
0.999993830895
0.891471276058
0.86902743608
0.888866352179
0.870500639429
0.999998459937
1.00000069494
0.999999642438
0.869138493644
0.874600841857
0.870756109184
0.875152784491
1.0000018415
1.00000106683
1.00000041771
0.876187456671
0.879837034437
0.876439184946
0.879644643102
1.00000425996
0.999999667848
0.999999197344
0.882515683063
0.863894083957
0.882312119881
0.865850790167
1.00000594924
1.00000382361
1.00000471118
0.929299096606
0.924898940254
0.928204113608
0.925928334264
1.00000436283
1.00000608122
1.00000460129
0.923033052289
0.920782146763
0.924844642579
0.923704000166
1.0000009596
1.00000349176
1.00000192484
0.920761927666
0.921806021484
0.923580143826
0.926394733278
0.999999810246
1.00000162473
1.00000179461
0.922517707407
0.92658795376
0.927162935759
0.92920009993
1.00000118432
1.00000276529
1.00000402094
0.92764489259
0.928259392461
0.929203599975
0.928182446389
0.999998514026
1.0000015755
0.999999453302
0.924380499352
0.898244385809
0.923320015497
0.895072293596
0.999999042136
0.999998614407
0.999996371163
0.887867487202
0.871001419835
0.886290030548
0.875106907204
1.00000133261
1.00000410802
1.00000312018
0.871271736233
0.875513137706
0.875065276683
0.879174186992
0.99999785226
1.00000321327
1.00000172763
0.876629769522
0.880173908249
0.8800929636
0.883725387255
0.999996481986
0.999999553088
0.9999994737
0.882913726623
0.868050147004
0.886286193035
0.873413384788
0.928510206327
0.926954513832
1.00000241239
1.00000660522
0.925780582949
0.925490296542
0.932815879947
1.00000443262
1.00000621399
1.00000593915
0.92546050431
0.928387430122
0.932890861964
0.933787493872
1.00000726024
1.0000074245
1.00000771534
0.929243766857
0.930879625941
0.934276722988
0.933797178183
1.00000611311
1.00000868146
1.00000732688
0.930699829704
0.927813691
0.932899245734
0.924481573575
0.999999424421
1.00000135843
0.99999895152
0.922256726845
0.895432561091
0.918627033492
0.898718314895
1.00000005238
0.999999417553
1.00000006143
0.887750488168
0.878376540456
0.893826890677
0.887286385898
1.00000066866
1.00000558238
1.00000450365
0.877561444978
0.88077353478
0.88658090772
0.887690304321
0.999997786059
1.00000387765
1.0000023995
0.881593424824
0.884661699305
0.887981511335
0.888296376809
0.999996869767
0.999999414452
0.999998850323
0.88697772577
0.873971852667
0.889558430316
0.874317133178
1.00000819931
1.00000862918
0.933728703326
0.933677883327
0.935662121043
1.00000602545
1.00000847497
1.00000665884
0.932647650527
0.924391985415
0.934145825828
0.923340012106
1.00000041796
1.00000321714
1.00000074503
0.918666793594
0.899964229149
0.918121352635
0.902617006254
1.0000007491
1.00000115426
1.00000062282
0.895746635
0.889178645576
0.898789138365
0.890608785848
1.00000147447
1.00000542895
1.00000394728
0.888379766923
0.889093237264
0.890157813209
0.890375624308
0.999998480492
1.00000302053
1.0000016123
0.889279453052
0.888866895618
0.890195645708
0.88866385945
0.999995723637
0.999999248286
0.999998181585
0.889736895155
0.876395811974
0.889164606152
0.876750260595
1
0.890075916248
0.999999818565
0.889632884936
0.889698076078
0.999996593646
0.889521475238
0.888475068142
0.999997946707
0.889208237443
0.878399720315
0.000320721929774
0.000177414950781
0.000304567852788
0.000155166338472
0.0265655033112
0.0270042683642
5.95586443096e-05
2.22364777198e-05
5.72323549203e-05
3.54813320858e-05
0.0239559811569
0.0265096993062
0.0254303924133
3.42997690775e-05
7.00444871297e-06
3.32388394176e-05
3.16634315228e-05
0.0249906274023
0.0247759241117
0.0253801567761
1.01456523956e-07
1.02488404987e-07
1.09333097203e-05
5.83624489024e-06
0.027917925227
0.0264419831152
0.0283635440072
4.47655202431e-07
2.64683938786e-05
1.39967196127e-05
5.36886273681e-05
0.036130169015
0.0321373788537
0.0364666252791
0.000162377417272
0.00047796129775
0.000214300184449
0.000518754310151
0.0422145270788
0.0398018616914
0.0424844436124
0.000710901917178
0.000744341652593
0.000771939216545
0.000781404767355
0.0502936579582
0.0472583424665
0.0504100432333
0.000446868215391
0.000300529662828
0.000451128299862
0.000309085763601
0.0533483447131
0.0524193321659
0.0538703845752
0.000208090723485
0.000151600951127
0.000222856889129
0.000177855938731
0.052721434179
0.0543324182943
0.0535641582351
0.000312897486603
0.00150423740361
0.000407997934266
0.00165772869898
0.0277572782526
0.0282603271721
0.027617014105
0.000268847726519
0.000155828927055
0.000281057446719
0.000183414146838
0.0273157172881
0.0272650389377
0.0278411999573
9.66362934177e-05
5.24422610112e-05
0.000133991089359
9.03080571789e-05
0.0271421825848
0.0281234816634
0.028592890668
2.04246961417e-05
2.70996012459e-05
4.8429930205e-05
3.37947666969e-05
0.0272572226044
0.0293395083161
0.0293019510057
5.69748622642e-05
7.28833471941e-05
5.24896172602e-05
9.51276460784e-05
0.0299374382428
0.0299246842623
0.0322634838441
9.14392861391e-05
0.00015808008641
0.000155354278151
0.000250525190897
0.0371920724676
0.0355185665654
0.0379937716463
0.000326803255526
0.000541461548595
0.000379091547666
0.000528080193338
0.0426273048214
0.040237438043
0.0426613080682
0.000809589600115
0.00080645984593
0.000787235739371
0.000788438325968
0.0501406499397
0.0469536087899
0.0498654498948
0.000437219837002
0.0002993497468
0.000414532069189
0.000291138870297
0.0541216364229
0.0521457910076
0.0538646904868
0.000228412821499
0.000205241915242
0.000228335869281
0.000206919063217
0.0537905737979
0.054248922983
0.0534420799429
0.000503467845106
0.00181864970318
0.000514506199897
0.00184975562681
0.0275142471659
0.0289808060646
0.0279252300019
0.00032954420618
0.000269399650398
0.000330918240455
0.000316304116477
0.028363146059
0.0280836111102
0.0284791124389
0.000186865503415
0.000122022321795
0.000241719116295
0.000159191478378
0.0294219038263
0.028907806647
0.0288889160703
7.10036271238e-05
4.35999742055e-05
0.000101014002473
6.25150609748e-05
0.0301999571865
0.0289748697556
0.0294931200436
3.85318955188e-05
6.33677484169e-05
3.7692060134e-05
4.69536317234e-05
0.0329495749949
0.0307581468706
0.0330065290852
0.000121182220898
0.000235899662927
8.36575416384e-05
0.000223851820459
0.0385085155629
0.0363240539195
0.0388061148735
0.000353521391927
0.000471849567157
0.000376469856946
0.00047637735337
0.0425607735483
0.0404551920535
0.0421597811714
0.000728700885706
0.000728590937554
0.000705795283873
0.000686872511907
0.0494691598192
0.0460112811414
0.0485050814002
0.000366779301263
0.000248425389044
0.000316399669567
0.000219930565781
0.0531183385174
0.0508950895432
0.0519212593279
0.000193414101864
0.000152455793343
0.000165437251344
0.000119903839813
0.0531402856247
0.0525419948783
0.0518398559667
0.000362450083371
0.00140497647302
0.000271834714406
0.00124041233114
0.0276912178602
0.0260593761021
0.000243405177296
0.000154900993345
0.000122922694604
0.0277581544628
0.0260547366129
0.0262604928752
9.86394449029e-05
6.58904868881e-05
9.60576898865e-05
7.32576326288e-05
0.0285548394507
0.026829318626
0.0279937666714
5.39785251445e-05
6.51421679102e-05
8.63601942242e-05
0.000102006043124
0.0329861535683
0.0300262327736
0.0333812031011
9.72784927617e-05
0.000236154259853
0.000141963014022
0.000266763134018
0.038620689293
0.0361747311333
0.0381046915602
0.000371548229247
0.000445694934005
0.000354828492185
0.000419603935857
0.0412812649232
0.0388437980203
0.0400393540527
0.000684841219915
0.000643833164398
0.000667713824243
0.000592727572482
0.0470400141029
0.0429684272587
0.0451185383738
0.0002585954796
0.000176665521025
0.000230651099468
0.000168513029109
0.0504257528188
0.0473295044801
0.0486239443117
0.000136127709751
9.30335184828e-05
0.000133261610827
9.64941222385e-05
0.0510345673203
0.0495534545425
0.0497383528773
0.000204140629361
0.00108995717322
0.000206866600833
0.00115090013227
0.02817806108
0.0280700453549
0.000103736656518
0.000128999555018
0.000119016028629
0.00016177569631
0.0334402261702
0.0305020974445
0.0333773094123
0.0001482833387
0.000292712998332
0.000233282830298
0.000310900510074
0.0376256581743
0.0358348569943
0.0372192240157
0.000412351602326
0.000534197003911
0.00041769284891
0.000547650862152
0.0390212982997
0.0378248548145
0.0387752946786
0.000705279639735
0.000581755415417
0.000642277602846
0.000548074887753
0.0435671140718
0.0410650892996
0.0429567642852
0.000224755603456
0.000148968771409
0.000243285174101
0.000170619871914
0.0469337654104
0.0448019121972
0.0459571009099
0.000123224994571
0.00011363204664
0.000152745010254
0.000164657884325
0.0479482079268
0.0467592246788
0.0466554420169
0.000255539555597
0.00143856080364
0.00039322958891
0.00166400837159
0.0391360549514
0.000313686433446
0.0432584339068
0.000245189311424
0.000184082319555
0.000253673512991
0.000182812866853
0.045726895009
0.000164212098749
0.00018493523071
0.000166878735768
0.00018869834594
0.0450451696588
0.000459837837955
0.00189858424653
0.000433696963403
0.00173819425812
0.999872305955
0.999884123461
0.913274828864
0.916752496839
0.999899487807
0.913991025312
0.999864479322
0.999846501979
0.999876749436
0.916850160496
0.914582139022
0.999877571813
0.999850381744
0.913658676655
0.999925876782
0.999899115372
0.923646864288
0.919640289716
0.999904259924
0.923316508525
0.999916880746
0.999932491672
0.999999701194
0.927602397572
0.930184489537
0.999962986309
0.927241843258
0.999974577147
0.999906988652
0.999883389112
0.919589156563
0.922408536358
0.999899675201
0.999883416818
0.922666903435
0.99995114124
0.999878822403
0.929132359151
0.925201113086
0.999946840684
0.999875991027
0.926148890643
1.00000889767
1.00004305851
0.932257457334
0.931725856434
0.999998958895
0.932457154085
1.00005888403
1.00002509905
1.00001600103
0.932594863603
0.933264581352
1.00001795277
0.932832437196
1.00004268827
0.999985376709
0.999854923747
0.931557576363
0.931317230964
0.999957610332
0.999842453464
0.932892272146
0.999998029154
0.999891281213
0.934066085286
0.932243239694
1.00001116427
0.999849335047
0.933576247215
0.999996401621
0.999992668204
0.934373246736
0.933872303072
1.00000754308
0.934678808749
0.999962888994
0.999987476298
0.999953622085
0.93519087623
0.936174423935
1.00002049231
0.935484889602
0.999944586964
1.00001971454
0.999968050108
0.934586844451
0.93531865545
1.00001585274
1
0.935226409274
1.00001154307
0.999995846811
0.936327049453
0.936000428906
1
0.999999990559
0.935863280931
0.999956398755
0.999974134626
0.933001203161
0.935750509014
1
0.933075978284
0.999954138598
0.99988885759
0.9996912621
0.92340401794
0.909275303135
0.999704332847
0.923411710972
0.999877095943
0.999953327836
0.999981411554
0.934951236272
0.929796339444
0.999983613741
0.999936611273
0.931326961144
0.999873915706
0.999648013599
0.908161180111
0.919542439102
0.999707569928
0.999838248893
0.921787388397
0.999191464247
0.999437194438
0.880286918011
0.893589935383
0.999432878657
0.879841084683
0.999169331289
0.998929157279
0.998861099886
0.87328085053
0.866658028583
0.998783652038
0.872723355671
0.998945816939
0.999203657562
0.999405436998
0.893167156871
0.879273731731
0.99946993571
0.999134570169
0.879727757263
0.998953578655
0.998843506829
0.867219470757
0.872981977804
0.998817577119
0.998936249342
0.872907108491
0.998529569973
0.998699861391
0.871275574209
0.867104249507
0.998621058287
0.870170565259
0.99870335626
0.998535095865
0.998835956673
0.873877795323
0.8742620684
0.998567196585
0.872448305493
0.99876814411
0.998668709045
0.998720292493
0.867515626263
0.870648531574
0.998673044618
0.9987222123
0.8703513889
0.9987128965
0.998791793109
0.874413899884
0.872874492142
0.998778133291
0.998771568426
0.872603142865
0.998662049376
0.998880140526
0.880922785776
0.876634399814
0.998596038335
0.879734669674
0.998937131476
0.998743375141
0.999033564258
0.882587938155
0.882160632288
0.998823774876
0.881134293453
0.999018897144
0.998825327521
0.998809374506
0.876488285778
0.879079590771
0.998788412604
0.998858402973
0.879322536954
0.998899296259
0.999006186733
0.881352545596
0.880280081852
0.998973380162
0.998966239016
0.880473256202
0.998820001983
0.999036683019
0.883987776354
0.885673523127
0.998915376446
0.88364446617
0.998926312873
0.998459719017
0.998748647751
0.864545203556
0.868052134804
0.864287241654
0.998696946624
0.998534495227
0.99890885051
0.999037924858
0.884628134137
0.880638666331
0.999029795102
0.998902841307
0.882031767633
0.998525524159
0.998690319268
0.867040070228
0.860766947451
0.998480713281
0.862077398182
0.998747403727
0.999832167955
0.999917373468
0.927408207166
0.931591118739
0.999879078636
0.926670121351
0.999854768335
0.999799158277
0.999813030942
0.923133814001
0.919883957535
0.999838015844
0.999808743723
0.921689469676
0.999809331079
0.999869131354
0.931504866812
0.928447191864
0.999851824181
0.927532193392
0.99985077861
0.999782540068
0.999841159937
0.92188977409
0.926983269409
0.999783392197
0.999831786741
0.92330143729
0.999781096565
0.999784525874
0.915202281068
0.918586917769
0.999768600833
0.99978932316
0.916878634286
0.999790969757
0.999819049583
0.916010612627
0.918758184686
0.999781579928
0.999798322953
0.917410293437
0.999768736307
0.999843108976
0.921031900691
0.921598327398
0.999782839316
0.999831728858
0.919246721378
0.99976662352
0.999811193862
0.919891854686
0.921116573356
0.999769497028
0.999822803292
0.919280700449
0.999806092108
0.99983915979
0.921618352107
0.919890677704
0.999840960071
0.999807619515
0.920940985989
0.999793340457
0.999805480076
0.923839872267
0.92387128761
0.999834834743
0.999769740943
0.922454745656
0.999749315396
0.999793230785
0.920338218658
0.920815629552
0.999761933848
0.999774709522
0.920809853396
0.999741517947
0.999735609661
0.922707520813
0.921191867529
0.999725749162
0.999758813149
0.92169856266
0.999622437901
0.999743994679
0.929093332567
0.925185148374
0.999646866513
0.999704135755
0.926729065721
0.999570748805
0.999639321178
0.930591947101
0.931027722381
0.999614858935
0.999572311157
0.928792295869
0.999654273251
0.999712201194
0.923696045831
0.924153091776
0.999687386789
0.99969029978
0.925002371067
0.999616805009
0.999665365679
0.928843328531
0.925771549897
0.999613297032
0.999676897893
0.926874039146
0.999711551278
0.999712213402
0.935177414219
0.93253010483
0.999827236727
0.999621105191
0.93370691588
0.999771319754
0.999949641309
0.935292447907
0.932290331641
0.999925084556
0.999824255007
0.933335084134
0.999645999494
0.999633913548
0.930392246484
0.929956624979
0.99962282695
0.999617029655
0.931335062458
0.999684780772
0.999636104723
0.92962597965
0.929566464802
0.999716702133
0.999610414566
0.930894247402
0.999751711486
0.999929515421
0.926393710779
0.928432662951
0.999862565775
0.999798953532
0.922449620814
0.999657675852
0.999578426858
0.916517625284
0.901968675178
0.999751061541
0.999492418238
0.9128964097
0.999640141361
0.999628306812
0.92573302383
0.918180922899
0.999694709317
0.999572793733
0.919414630166
0.999547188095
0.999360485834
0.900412405905
0.909356638723
0.999411498373
0.99948148357
0.910669813243
0.999092279516
0.999360272485
0.87978566591
0.890564218989
0.99912298939
0.999288887312
0.879722393847
0.998913888144
0.998836357216
0.873864742557
0.86942012816
0.998926463222
0.998851355215
0.87404465813
0.999087030519
0.999216633067
0.889938760235
0.87900650551
0.999257147809
0.999057153261
0.879672022513
0.998936985251
0.998942635728
0.870226409137
0.874021641664
0.998883669918
0.998943750735
0.874327522697
0.998848492852
0.998730644155
0.871418936862
0.869591729213
0.998743118432
0.998838834546
0.871900884391
0.998882583399
0.998827063783
0.873275828173
0.874897673656
0.998794283462
0.998939984923
0.873597595445
0.998845416021
0.998910681264
0.870364081589
0.872846301884
0.998834943196