/*--------------------------------*- C++ -*----------------------------------*\
| =========                 |                                                 |
| \\      /  F ield         | OpenFOAM: The Open Source CFD Toolbox           |
|  \\    /   O peration     | Version:  v1906                                 |
|   \\  /    A nd           | Web:      www.OpenFOAM.com                      |
|    \\/     M anipulation  |                                                 |
\*---------------------------------------------------------------------------*/
FoamFile
{
    version     2.0;
    format      ascii;
    class       volScalarField;
    location    "5.2";
    object      p_rgh;
}
// * * * * * * * * * * * * * * * * * * * * * * * * * * * * * * * * * * * * * //

dimensions      [1 -1 -2 0 0 0 0];


internalField   nonuniform List<scalar> 
28582
(
19554.739755
19552.659502
19555.2502409
19553.246184
19556.7368933
19554.4946056
19558.9984108
19558.7634509
568.89117103
735.965345076
0.0709282713034
19559.3373408
18425.1227727
18394.6509055
19556.5431429
19557.1861797
18355.9586228
19555.0577967
19555.3059352
19555.6546641
19550.7189647
19548.935511
19555.692384
19550.7464499
19548.4793132
19555.9514777
19550.6285557
19555.451143
19552.8873167
789.989292451
-0.0139305842547
0.056134599942
19555.9087941
19557.3055145
18331.6947829
18331.1656458
19554.7947427
19548.3343305
19553.247189
19548.2262514
19551.1902589
17758.7738599
19551.0738624
19540.7053132
608.139837011
733.309424095
6.62706955292
7.35961061895
668.763622049
5.93547132395
19556.8911858
19559.2101058
18421.9805299
18448.5765555
19557.901393
18439.821601
19558.1276037
19560.4133454
19560.5012857
18411.86499
18413.7848405
19561.1478551
18428.1742771
19559.5909737
19560.2705631
19560.6990104
18309.1144761
18378.0952979
19561.1412701
18327.041914
19560.0295482
19555.0882464
18150.5098426
18150.8646553
19558.0987478
18237.3494834
18246.0862513
19558.2672408
19556.4021018
18166.6145955
18211.5730127
19558.5612928
18315.5831702
19559.635095
18268.8799334
557.519440788
2.29429458609
556.819464946
564.235378894
2.01380233704
2.03722246317
791.80395942
8.0388432474
8.13149834599
830.726984343
9.52965151463
821.562717648
9.25765439181
19551.2020089
19550.313225
18327.1437001
18359.2751683
19550.3385337
19551.1502149
18349.227299
19551.7950458
19552.4939838
18326.1552822
18339.614684
19550.9090998
19552.9984466
18343.7793837
18392.1060894
18381.829321
19555.5620537
19552.8791994
18357.201562
19553.8581483
18359.4019606
19551.2158692
18052.8176485
18046.1220934
19546.5765546
17946.5342625
19546.5237844
17940.1467229
19541.7216216
19536.6739918
17847.2833233
17747.6316282
19541.5742047
19536.3354513
17845.0365825
19546.3940492
19551.6987413
18051.5355344
18085.3710379
17947.0632862
19545.7288639
17941.5068213
17818.8812448
17696.4859497
19534.4298971
19540.4840157
17725.183344
19535.2267936
17832.2289203
19546.3037925
19544.6413087
842.382771146
-0.236128781325
19557.8568514
18384.0592765
19544.2449684
19542.108982
17676.8679197
17587.9361103
17437.6101423
19541.9810565
19543.4109578
17439.3330259
17489.2811684
583.952342548
856.005218046
879.402764782
8.15990411031
8.47084567751
7.7838104838
927.252789506
963.322981567
19557.1989694
19556.6334249
18351.4751512
18388.5040245
19555.4133312
18353.4314997
19558.0340842
19527.7526914
19532.4463485
17595.6590164
17655.9543376
19528.908393
19531.5367649
17571.5332567
19526.9034818
19529.076899
17623.0568589
17489.2939882
19530.5436958
17537.0753516
19525.2155829
19524.6943086
19524.458617
17467.2103496
17447.6719856
19525.2616135
17495.9314092
19523.0859567
19527.2680661
19525.0281499
17469.7591311
17450.9384111
19526.0116814
17483.2768152
19526.5797437
19528.789115
19530.4842114
17496.8982359
17468.743039
19530.4391545
17494.2527984
19528.4521113
19578.2562241
19570.3669935
19562.9204541
19562.1961461
557.655860604
616.57379313
617.020025041
660.268843869
634.932850897
-0.044337108782
0.487797178002
-0.0396355501935
0.310777800233
-0.0251923421496
0.267086677355
19582.9198923
19581.8456759
18885.8221728
18878.2136174
19581.9719254
18871.2898804
19579.6554855
19576.8788489
18879.7996697
18740.7403838
19576.4943144
19573.8877022
19570.466442
18841.5859163
18571.4644397
18624.483606
18297.1612383
19566.5206244
19561.9684465
18528.3223215
18382.3367022
18295.6311283
18276.082576
19566.5760187
19564.782015
18536.21898
18244.5366612
18217.287772
19560.0059082
19561.8130093
19559.4902473
18255.5997649
18265.0885644
18221.2293899
18224.5179832
18255.7355574
18243.7209068
530.465727899
527.566590009
541.031629757
0.220409339481
0.850221586419
0.628112380837
1.95192090379
4.40224749352
9.15135362819
6.23750202949
9.19881793407
527.374079303
549.673818505
594.637474916
589.872195054
623.746993147
1.97543668478
3.28356329049
3.52304033405
4.2585735701
620.333385244
637.354743533
634.697313983
6.31631002449
7.87498284063
6.67219682474
8.05768134549
642.690525784
644.831675894
4.49376603006
4.81948362858
4.75324812521
655.276029569
667.380786592
664.533341352
6.66726211537
8.02407096127
5.86962990191
7.39328498555
19583.2138888
19583.7903423
18884.992811
18882.7589387
19583.3828321
18883.7482015
19583.5827798
19582.7824976
19582.2392708
18880.1982267
18881.0876484
19582.8262316
19582.5033619
18882.5125583
19581.6542583
19581.470406
18878.9086386
18838.9694555
19582.4448532
19580.3814769
18868.9051171
19581.0690395
19581.0666013
18883.9413902
18858.0907552
19581.809563
19579.5845818
18883.7512078
19579.6248137
19575.0772537
18802.6646632
18820.9417311
19577.6804313
19577.9698746
18862.1867525
19574.7180471
19579.8120122
18774.60155
18787.4797777
19577.9227417
19577.6056245
18685.984466
19571.7093627
19573.274877
18666.5348098
18489.5050931
19575.4910313
19568.6787522
18578.5714114
19571.3028211
19571.7220143
18701.8652678
18498.46344
19574.4862984
19567.6927073
18589.2866398
19568.0658251
19562.2933946
18403.6059028
18381.7997539
19565.4922514
19564.3111693
18486.1410138
19565.0540777
19571.4384046
18492.5956936
18415.8330513
19569.5190101
19567.0565974
18387.3859987
19562.9095522
19562.1253186
18446.7818125
18354.6286726
19566.4596
18373.3509462
19559.6866066
19561.8209066
19561.1073004
18342.5599688
18288.1631824
19563.4837302
19559.5504478
18325.3183326
19559.8074823
19556.521678
18328.3531209
18277.3270753
19558.1056646
18329.4958074
19557.8456652
19562.2042134
19568.6703291
18414.6739627
18452.2421345
19564.8167566
19565.7793665
18335.2434655
19559.9557154
19560.3228979
18309.6999449
18200.8753803
19561.9696072
19558.7078899
18270.6539219
19558.723777
19558.0218464
18196.1128421
18259.3006695
19557.8138133
19558.8722989
18249.6709767
19556.5636336
19559.0681541
18250.3208699
18193.7095794
19557.7700331
19557.6806376
18205.1529583
19555.7571433
19555.5377585
18249.2827307
18231.7998876
19556.8651684
18224.3890663
19554.5270416
19555.8647249
19557.1079055
18186.9721163
18221.552269
19556.5504943
19556.3091364
18197.5618815
19555.1617272
19554.3237868
18216.7805268
18220.2081726
19555.5451981
18213.5820953
19554.1444748
19557.5290262
19558.487899
18262.3237043
18325.9901083
19557.2971091
19558.6484334
18292.2614827
19554.8274079
18252.7628106
19556.0587866
19553.3616816
19551.7982017
19550.4378773
19547.6193955
19547.0060409
19548.7968012
19553.7651625
19552.3958784
19550.5277793
19547.035711
19546.7869239
19548.7390053
19543.5927672
19546.7400175
19542.0917755
19546.362151
19548.5671683
19549.5806308
19551.3781045
19548.2403439
19545.3763828
19548.034565
19548.9676258
19549.3070118
19549.5080746
19549.3669936
19549.1672525
19548.6693046
19550.5009969
19549.108377
19549.4163185
19549.3548969
19548.5735919
19548.2037739
19548.0396525
19548.5691594
19553.5257846
19551.4040315
19550.7647883
19550.1236093
19549.0364511
19548.2394065
19547.9994063
19549.1446742
19548.9933973
19547.8434802
19547.3693593
19548.9789094
19541.8240785
19544.7717791
19544.2381422
19545.0377565
19546.8698904
19547.9059328
19550.4599765
19543.7781799
19545.575783
19547.4676878
19550.4602943
19549.621493
19548.2272251
19548.0807337
19548.8568435
19546.1839689
19549.7500967
19549.8804395
19550.383828
19549.4229032
19547.6904927
19547.3473094
19547.294706
19547.2693817
19553.3785769
19551.951423
19551.5375595
19550.3307523
19548.6411425
19547.5439078
19547.6270316
19548.8122223
19548.5020629
19547.2229003
19547.0695061
19548.9394854
19539.9233704
19544.3652946
19546.2036377
19545.9097116
19544.9770372
19545.0942126
19549.2966525
19542.3336963
19544.1438441
19548.3690776
19548.6132069
19547.7012598
19544.9258427
19544.9793119
19547.4380741
19544.7571187
19549.2878282
19550.4531647
19551.4275792
19549.1627723
19545.1052644
19544.6890716
19545.867038
19546.6160234
19555.4306989
19553.3347007
19552.8599609
19552.5306581
19549.7874914
19545.667618
19545.0175834
19546.1949977
19548.1768118
19554.8257392
19553.4535829
19550.2492175
19546.3735525
19545.1758772
19545.6692425
19548.2671534
19544.7691042
19545.0512324
19547.8745042
19541.3254877
19548.4414449
19552.6738985
19550.6408018
19542.4343871
19540.6346542
19548.7773712
19555.8652415
19539.9490852
19542.3552122
19548.8619476
19553.574898
19552.402443
19542.7264007
19539.9916617
19547.3604577
19552.3956287
19556.3947249
19549.3519188
19547.1558127
19550.8979419
19555.0942699
19552.0668197
19541.9815857
19539.7590057
19546.4382949
19551.5496
19553.5737356
19552.0263098
19554.0478163
19556.4581383
19552.1995559
19542.6679419
19541.0507221
19546.3314936
19550.8567544
19556.6657668
19557.4665419
19552.4180478
19544.3458391
19542.7285012
19546.0330932
19549.0829408
19542.4366332
19544.9902865
19547.1964251
571.152008959
530.122176114
575.806508886
689.084718935
876.563935413
1035.75765495
1148.51822331
1185.83621513
617.334860278
600.251417567
602.831261514
601.061653955
611.6445191
742.675089533
880.767352007
1037.87857772
1153.04455842
1201.13108067
629.855879047
612.622422683
634.969519767
656.333749828
681.965252553
797.613766515
893.145374729
1028.53078074
1139.04084715
1184.23160805
602.745810021
612.657353269
611.648357223
667.532685879
799.074699575
877.09824237
983.560833668
1088.10074109
1129.02391445
586.060930574
666.057461827
794.537888487
840.061229859
917.58042233
1002.61831074
1057.26300098
907.722182543
990.661691577
1013.50333584
0.148081332115
-0.10520639397
-0.0240521218362
-0.0440779362473
-0.0777219603738
0.171389149329
0.674370859197
-0.12555372856
-0.406625082765
1.26081607105
0.0762570958648
-0.0734601132225
-0.106871129171
-0.0776846279138
-0.0413806860308
0.258526238799
0.866573008753
-0.175967491768
-0.433853263953
1.56878009363
0.307523971393
-0.0331830268857
-0.119268176464
-0.116621322292
-0.0928292525997
0.0824153823534
0.536918362973
-0.186717456839
-0.423104422794
0.825136531943
0.00208671308214
-0.0479864726279
-0.0194384961761
-0.0795875134081
0.0438493097018
0.532401752523
-0.169863466583
-0.384122434745
0.658877899728
-0.00929568289355
0.0407668399989
0.283291784285
0.545526542286
-0.18953131701
-0.377056261674
1.20512943867
-0.166825030858
-0.332540842255
1.52919495142
19545.4258774
19543.6110639
19545.7875027
19543.0869444
19545.0663068
19543.5975087
19545.2520885
19547.1943693
19547.4580106
19547.9511472
19546.5299502
19542.8714947
19546.4287217
19545.5492368
19546.6555681
19547.7586361
19547.6682644
19545.2364441
19546.6949168
19547.3892235
19547.8568338
19548.1986883
19548.5432428
19548.9922874
19547.8570562
19547.8128676
19548.8300839
19549.7824176
19543.5957052
19543.252492
19544.4564371
19540.5534036
19542.6882215
19542.1931219
19543.9155674
19545.0874634
19545.0942977
19546.536543
19544.085414
19544.1078141
19545.0327866
19545.3546864
19546.6923216
19547.0119435
19547.6630921
19544.9359344
19546.5681121
19546.5627089
19547.2406993
19547.5831164
19548.7223331
19551.9832095
19547.6472823
19544.4425645
19547.9645327
19550.8411259
19542.5880337
19541.5264243
19543.9195336
19540.2877387
19543.3000936
19542.080577
19544.7332158
19544.8430838
19545.7050089
19546.7883575
19545.8834478
19546.9375506
19546.9079057
19549.4014295
19546.4969154
19545.9036893
19547.0956021
19543.4554449
19546.2594337
19544.8922515
19546.959787
19545.7123268
19548.3057231
19550.5886629
19548.6060668
19549.1594802
19548.9017704
19551.5350122
19537.7579862
19538.7925248
17998.6609583
18002.3978059
19545.0591412
19542.0527078
19545.3450873
18072.9531044
18273.6164956
18060.8667701
18224.193008
19550.9242156
19548.7814721
19551.4463084
18295.851263
18323.5768002
18263.7558715
18330.0051936
19552.0564278
19553.0116174
19553.4853143
18336.6011208
18387.1864669
18351.9507869
18400.184756
19547.0472693
19551.7803836
19547.4614707
18385.5319686
17888.7057327
18363.9200804
17830.8437463
19540.3026941
19542.4277007
19540.0786385
17590.151647
17087.308651
17555.989904
17091.8171977
19544.3831845
19539.9712768
19543.7187362
17101.4595965
17263.2550086
17101.7791271
17240.4867127
19552.6892702
19548.1224132
19551.835227
17304.6937934
17417.4941887
17277.4772468
17370.9534382
19548.2718788
19554.2991525
19548.5479166
17475.2459104
17136.4376455
17423.9549285
17033.531944
19555.6740326
19549.5335348
18298.3741165
18018.7004987
18255.3878913
18142.0004803
19539.9389935
19545.4798211
19543.9082572
17969.9106189
18019.5472654
18101.4543352
18081.047244
19545.7034202
19544.6036285
19547.0027243
18058.513415
18185.143907
18083.9805615
18109.6801498
19551.7090329
19549.8888674
19552.9059482
18221.8432362
18314.8658451
18129.3923613
18220.7879659
19554.1035673
19555.0168759
19555.1024045
18342.7337318
18374.8603029
18248.7503324
18254.6482384
19547.7838471
19552.5186325
19547.2910671
18321.456912
17789.250721
18179.9325121
17696.7848619
19540.086702
19542.48503
19539.8442038
17545.5621867
17118.1815419
17496.0569817
17146.6296505
19543.5461373
19539.9564726
19543.2250958
17125.2904153
17243.1002729
17156.4140838
17252.8908465
19550.5848509
19546.8874037
19549.8385359
17276.7092589
17353.4307774
17280.7538074
17348.7859367
19548.887121
19551.6130627
19550.0732694
17406.0394204
17023.476424
17401.2211571
17061.281272
19552.612279
19556.8683106
19554.1769118
18259.0666163
18170.5537699
18238.5997739
18191.7148407
19547.4374743
19551.8080927
19550.2569871
18133.9774943
18091.5882622
18170.462525
18148.9367117
19548.6366675
19549.8202501
19550.7034246
18091.5944284
18114.0313184
18146.8984256
18201.7624993
19553.3792087
19552.336769
19554.4175526
18128.5708185
18209.3441702
18216.9529424
18258.9723152
19555.0183103
19555.8079038
19555.2694166
18231.0083677
18250.1432205
18260.8164826
18249.0325021
19546.8134868
19552.1392796
19546.762441
18178.4123252
17677.1817135
18158.2221911
17615.9574382
19539.5547077
19542.1659116
19539.8275845
17476.8502381
17156.0941238
17445.9914768
17234.4619154
19543.0636425
19540.3787052
19543.3012173
17166.1003028
17259.3825146
17237.9175361
17327.3139597
19549.364423
19546.3934857
19549.0770292
17283.9725358
17358.200335
17348.1527097
17423.2408523
19551.192062
19551.237456
19551.8241791
17412.1869392
17102.8596172
17473.7979102
17203.1394297
18243.7193825
18210.9861586
19552.401955
19554.3060735
18187.9644025
18182.8126568
18320.5265601
19552.7571772
19553.942918
19554.5994822
18182.507753
18239.4024918
18322.0978494
18340.6291179
19555.5970576
19555.6101672
19556.6578649
18256.2330583
18290.8243939
18351.0286772
18346.3138683
19555.451355
19557.0867069
19555.5567164
18289.3541418
18241.7877877
18331.2639985
18177.7743248
19546.9406769
19552.251651
19547.4153444
18137.4236253
17622.4539713
18066.8161384
17684.4621728
19540.6187869
19543.6273553
19541.8242597
17473.6362771
17296.8847841
17589.4768897
17466.1042203
19543.633348
19542.200231
19544.2078679
17285.1099658
17356.8056774
17455.6485629
17485.043805
19548.7402198
19546.3964698
19548.3528565
17375.7232904
17439.9243337
17493.3607837
17504.7229551
19552.0240807
19550.0381041
19551.8881615
17485.9007891
17213.0019422
17530.3821398
17216.746109
19557.4278648
19558.3579061
18340.1844499
18344.3108275
18382.9503066
19555.7122175
19558.104781
19556.1296055
18326.6904372
18176.0147869
18356.3944517
18155.2684772
19547.8910964
19552.7237436
19548.3039754
18067.4275399
17708.2380792
18056.2926339
17758.8049457
19542.5880014
19544.8244921
19542.9797073
17626.2085457
17501.8252185
17684.5321763
17528.4768715
19544.3256491
19542.9363806
19544.2135565
17489.4198092
17510.6280198
17522.3392748
17533.3342771
19547.6708201
19545.5779575
19546.9087235
17516.653371
17513.9280421
17532.0749927
17506.5848909
19551.4538691
19547.8238958
19550.8226511
17532.0891965
17255.1730604
17517.1255144
17259.5137428
19542.7050717
17518.2967982
19543.7180439
17512.3183415
17520.5499504
19546.2552604
17519.2867772
17502.4793697
19550.2298719
17517.1952331
17289.2739386
7.52460067124
4.17598123492
7.14619555216
3.65940518249
584.854122223
594.525542107
1.43248930597
0.567755047716
1.38661302076
0.880762436359
527.979909591
583.738896901
560.105986001
0.814738417625
0.229959614003
0.80708174474
0.782611120931
550.407492064
545.762647728
559.037992914
0.0884416153963
0.0848408231675
0.315057152791
0.193532189899
614.975678408
582.427942143
624.927102077
0.0906459829426
0.704769392101
0.389248157362
1.34271395267
796.427405281
708.272531663
803.906357735
3.93330464436
11.3344108804
5.12558315278
12.2692924764
930.686024148
877.70551011
936.624165782
16.7726856074
17.5303299943
18.1649598591
18.3486453112
1108.03456774
1040.98302066
1110.65320997
10.638902809
7.25133940216
10.7133575211
7.44507539993
1174.93424658
1154.74041503
1186.46905349
5.06553795015
3.74557121508
5.40692991211
4.35751658311
1163.67213036
1197.12913396
1182.29488168
7.43521746147
35.1496558904
9.63895218556
38.688652748
611.372006212
622.672757449
608.430939491
6.31362316529
3.67239668237
6.60334209416
4.32865041079
601.504296144
600.639158345
613.107201347
2.31055331314
1.28334353083
3.19157022049
2.17941607926
597.626517924
619.292286909
629.531726182
0.536264349949
0.693532441448
1.20450555334
0.864370202706
600.284819987
645.849930972
645.305163757
1.3846721259
1.74459244449
1.2968506401
2.28483597968
659.725664059
659.29733651
710.952371243
2.20874096969
3.79081243709
3.71298032442
5.95274125256
819.878389803
782.732701666
837.557084178
7.73649065382
12.7873275331
8.95714467214
12.4757017888
939.781090792
887.305769417
940.49399973
18.9861230409
18.8659247037
18.4423073667
18.4192748157
1104.7392437
1034.2599008
1098.66070366
10.3658526981
7.20323074259
9.81190429963
6.99009825542
1192.01254691
1148.71310912
1186.36223383
5.52598460328
4.99029312451
5.50201981868
5.01620631298
1187.54362467
1195.50105092
1179.94044836
11.8462622333
42.4111737321
12.0938871011
43.128009297
606.414583545
638.51648987
615.383964202
7.72038967036
6.33439985562
7.74702399734
7.43223696407
624.654972457
618.64464968
627.213180169
4.43799425352
2.93016497169
5.72345678029
3.797666382
647.721392759
636.466946148
636.089509465
1.74304523468
1.09927498509
2.43631141574
1.54060753425
664.878090499
637.998018001
649.503355934
0.982249277955
1.58278719961
0.970112639749
1.20633854024
726.051089283
677.559769997
727.318409484
2.94088441396
5.63480712231
2.0813806465
5.3622213316
848.837669191
800.514176509
855.348614756
8.41437954901
11.2172485105
8.9617764446
11.3203685847
938.147889669
891.79307507
929.209433023
17.0998888886
17.0448181774
16.5633171614
16.0752482597
1089.82980602
1013.37998033
1068.5874825
8.68715757891
5.97496781849
7.51661722063
5.3003184182
1169.86009851
1120.98668052
1143.47501946
4.67118747072
3.73605093903
4.00163014765
2.96547996433
1172.40908154
1157.41879953
1143.694908
8.5610788648
32.79606491
6.4498835072
28.9870242418
609.874236813
574.079605413
5.77932472839
3.69915783907
2.94721860268
611.284927009
573.949979031
578.492659508
2.37506478499
1.61863539679
2.31227679825
1.78692339631
629.042719358
591.110259991
616.791574988
1.35170188817
1.63456232655
2.11231195158
2.50207388615
726.886839766
661.596709657
735.439499009
2.40931367313
5.65366080876
3.45724177571
6.3504183654
851.157562441
797.162296926
839.736163586
8.84358966796
10.5945609303
8.4429476978
9.97680043122
909.792102964
856.33985582
882.499944405
16.0770097548
15.0786974363
15.6778565673
13.8900733797
1036.24684391
946.41779197
993.991370528
6.16733473303
4.27017023727
5.52035936053
4.08801953048
1110.50769656
1042.4593972
1070.83787259
3.30529273822
2.32738112716
3.23807355685
2.40567665447
1125.61119409
1091.5284978
1097.06869091
4.86553102247
25.4959027012
4.93189321327
26.9114239868
620.791617817
618.47998974
2.50152633178
3.11468730786
2.85150824936
3.86529699491
736.724362274
672.031749536
735.402317102
3.58551730629
6.92929833405
5.53678472257
7.35175176299
829.285964113
789.67784585
820.423325182
9.73475569724
12.5855906774
9.85532371908
12.8862339729
860.250693142
834.004871257
854.812703669
16.5493559831
13.6414754806
15.0639106824
12.8537221826
959.809673154
904.604005527
946.368872759
5.38637049284
3.62144945637
5.82206565916
4.12428025815
1033.62922323
986.873778409
1012.19314647
3.0008583081
2.80084488086
3.68530126359
3.98960230194
1058.30471951
1030.21991659
1030.05554667
6.05146359359
33.6105762802
9.25116520606
38.8666768954
862.507271903
7.47354104471
952.958473091
5.89487899157
4.45803377955
6.08615221365
4.43614133749
1007.18484948
3.97443584791
4.4654736732
4.04139633919
4.55401039146
995.215952346
10.804246757
44.3351150197
10.1948851947
40.6058845752
19532.8339137
19534.5730858
17940.2062818
18007.870162
19535.1245833
17954.5756662
19532.3893226
19532.83745
19536.1868672
18010.2769918
17966.9939609
19535.2961017
19534.0562463
17948.59867
19539.7276993
19536.9785802
18139.9520477
18063.7772046
19537.2829932
18134.0612307
19539.2641261
19541.8766035
19544.9566207
18214.9387383
18264.9682461
19544.5271667
18208.5093024
19542.3373101
19540.1262107
19538.4808185
18063.4696501
18118.522555
19537.9126056
19540.5676878
18122.5434866
19542.8231371
19544.0845592
18246.0343754
18172.0352958
19544.65595
19542.2427161
18188.9451997
19549.0273227
19547.6431628
18306.1569833
18295.1048278
19547.0894471
18310.1236095
19549.6899441
19550.9484278
19552.2338354
18313.8871494
18328.2681151
19552.489659
18318.5938299
19551.0262836
19548.9908274
19545.3906951
18292.6329166
18290.299751
19546.7179018
19546.9187756
18319.1262296
19550.9166872
19551.2320017
18344.1834309
18309.067603
19552.8167109
19548.7509536
18333.4376648
19555.6946993
19553.55244
18352.8095773
18341.5121004
19554.0480304
18358.8829614
19554.828602
19557.3476543
19558.0064299
18370.9415901
18393.4119369
19559.6183011
18376.875468
19556.2677667
19556.5183233
19554.4207363
18355.7652743
18372.6982555
19554.5667354
19556.9013714
18370.0166179
19558.2706446
19559.9702071
18396.9427292
18388.483216
19559.702987
19558.6543899
18384.775237
19557.5005065
19559.3614438
18339.3091554
18389.1897471
19560.0665525
18341.2162089
19557.3722794
19551.5466933
19541.0073359
18158.1616789
17888.0991171
19541.1528726
18158.6705565
19551.3764286
19557.1220889
19559.6789865
18374.6606547
18279.3952742
19559.7917873
19556.2925196
18308.193531
19550.7027915
19539.1859524
17866.7369588
18084.6665166
19540.8837134
19549.3402929
18127.4993903
19518.4370143
19529.175657
17330.4598573
17586.1083418
19528.8319291
17322.005353
19518.4629003
19511.4125786
19511.6921684
17195.3909034
17071.7812177
19509.934299
17184.8837994
19512.1564611
19518.4842477
19527.9485269
17577.9581591
17311.2987787
19529.3317184
19517.2667163
17319.8132174
19511.9409238
19511.5782736
17082.8186567
17190.3342775
19510.8426023
19511.8386537
17188.5589552
19512.0365918
19511.3978135
17170.5461701
17085.5208046
19509.6273663
17149.7835918
19515.6259222
19516.1326079
19525.5421937
17225.4147385
17236.8584011
19520.4537929
17198.4224303
19520.7942757
19514.2327905
19511.741767
17093.7440322
17159.1589044
19510.7494912
19515.071969
17153.4224067
19518.9671309
19523.8495487
17239.8007731
17206.5038065
19523.8969436
19519.7529982
17201.3896413
19528.358157
19529.3726169
17369.2549542
17285.3285986
19524.1639721
17347.1980493
19533.422689
19531.6036891
19537.2421244
17403.2013754
17397.2883769
19532.9968279
17375.9646182
19536.9032724
19531.001332
19527.4454332
17282.6629087
17334.8000212
19527.3707956
19531.2846394
17339.4600513
19534.1374228
19535.6969767
17382.1875515
17359.9902495
19535.522046
19535.0216198
17363.5500462
19528.6892931
19535.7088729
17435.6436187
17466.1734711
19533.3266655
17429.5970217
19530.759658
19516.8739964
19522.0686729
17069.1328659
17100.9871241
17064.9065811
19521.2371834
19518.3500759
19529.5548174
19534.6806425
17446.4701933
17372.2134061
19535.0554251
19528.6908259
17398.7349362
19517.2166868
19521.166128
17082.4976394
16997.4143905
19515.5599281
17022.1897698
19522.202414
19549.0800106
19556.0188392
18219.4355315
18302.5287335
19549.2122581
18206.2926926
19554.6636274
19543.6314535
19538.4404847
18135.5628876
18072.1095303
19543.1066391
19540.5442391
18108.5554582
19549.5583593
19554.2692857
18301.0136722
18240.9586018
19551.1394219
18223.2090547
19554.3686691
19545.1122039
19545.3416522
18111.2430523
18211.1686007
19542.330564
19547.9253627
18139.8698382
19536.5078467
19535.3465057
17979.3463153
18046.1138259
19534.0224813
19537.9819479
18012.8420617
19536.6092808
19536.3951867
17995.2403191
18049.4290871
19534.4595079
19537.6129243
18023.1453898
19538.736988
19543.3737406
18093.7932412
18105.2172667
19540.2919171
19542.1520932
18059.2313765
19538.3842984
19541.312862
18072.3618761
18096.5982448
19538.8504664
19541.5426207
18060.2386915
19540.6238923
19538.5577925
18104.3908687
18071.833583
19540.4620968
19539.1276905
18092.543514
19541.9566689
19543.2799308
18147.3401842
18149.931028
19542.0738119
19543.1927107
18122.0570489
19540.5351097
19541.4640179
18081.4073606
18092.2031864
19539.5644483
19542.0734563
18091.0844457
19541.8042354
19543.9535702
18129.1135377
18100.2436169
19543.0817222
19542.9982829
18108.8542709
19544.120505
19543.9778662
18249.8691296
18176.0954068
19543.9891625
19543.8102891
18206.5474611
19544.9434548
19547.4234342
18279.2693505
18290.418801
19545.1144173
19546.8457577
18246.6346754
19545.2581301
19545.0895616
18149.3130123
18160.1737307
19544.0794177
19546.368478
18175.2599993
19546.2953722
19549.4004328
18250.3910348
18191.9299993
19548.1001864
19547.8520967
18211.7533805
19552.8778771
19550.5293912
18371.4936867
18320.5607285
19554.4484866
19549.4981777
18345.1197593
19555.1740346
19559.1329893
18376.4913259
18323.707789
19557.6690277
19556.6852673
18340.7277272
19552.1755908
19550.6247907
18281.5038502
18276.6114984
19550.0720735
19552.055394
18301.7148723
19553.8425728
19553.4001058
18274.5430378
18271.8934306
19554.6927205
19552.811094
18296.0117556
19551.1134197
19558.2573724
18214.9166031
18252.9912818
19554.0352071
19555.2396086
18140.0876187
19544.1491386
19537.0606203
18026.7103425
17747.9918029
19546.7611743
19534.8290861
17957.6620385
19548.4902762
19551.6960896
18202.7042567
18060.0084469
19552.9811081
19546.9456827
18082.9234446
19541.5042404
19531.4207167
17718.4041814
17890.6489011
19532.8563396
19539.8546866
17915.3749124
19516.9039322
19526.9011503
17321.2642286
17528.3600637
19517.2641438
19525.3811782
17320.3301236
19512.1367257
19511.7468519
17207.6981041
17125.9298556
19512.0258317
19512.3531545
17211.4708914
19516.8175564
19523.3886389
17516.5408544
17306.7671091
19524.5435781
19516.0926727
17319.4923982
19512.7739878
19514.2745725
17141.3944378
17211.1690367
19513.2519327
19512.9256559
17217.0457204
19517.4776268
19512.2558394
17173.9488534
17134.0784547
19515.5675521
19514.4308712
17183.079138
19521.6035085
19524.3309694
17214.019058
17248.5606923
19520.1049449
19526.1867776
17219.9887484
19517.5009326
19515.4993447
17148.8904899
17200.9303688
19514.5612421
19518.8859659
17192.8882216
19521.7857913
19526.3296816
17250.1680219
17231.4823982
19525.9435873
19522.9833098
17226.2120278
19532.5041629
19527.8748302
17329.4155615
17280.5868242
19531.2480257
19529.5240111
17326.9974483
19534.5374847
19534.2201503
17345.6546158
17346.8689611
19534.0880474
19535.1055441
17337.6879181
19531.6301631
19529.1562448
17278.0782033
17329.8097973
19528.9031359
19531.9089072
17322.8562375
19533.4769014
19534.2484416
17342.7553875
17341.4111423
19533.8667979
19534.0198548
17334.0360836
19527.4067213
19533.0151936
17354.111931
17401.9334568
19526.7284991
19533.9272733
17346.8405175
19513.2990882
19519.6218736
16996.7162767
17001.9116719
19513.032284
16984.5492673
19520.4782333
19526.2621134
19532.9453392
17396.9429522
17350.238313
19532.6513493
19526.6440526
17345.2473488
19512.1983366
19521.4402015
17026.8228881
17007.5623261
19512.8886035
17002.179465
19520.2521444
19551.6440507
19553.7019582
18248.2095147
18234.9634718
19551.4376577
18231.8636483
19553.1170694
19549.7949861
19547.1110064
18229.6924269
18197.7063861
19549.2448721
19548.1980406
18212.6791939
19551.7134353
19553.1002817
18218.7000114
18238.7942581
19551.845804
18224.4953893
19553.0120329
19550.1647762
19549.505856
18210.8451819
18227.9947508
19548.8286365
19550.8455923
18220.175188
19545.4586752
19545.4744373
18132.0648729
18171.7221326
19544.0385616
19546.8285309
18126.0539994
19544.4075058
19542.5397398
18116.6477363
18112.0317207
19542.8274711
19543.8989406
18111.6940572
19546.2241525
19548.3706069
18186.4284229
18170.2199775
19547.5166535
19547.4318429
18139.7310751
19545.3945416
19546.3442408
18127.787816
18165.1217996
19545.0312048
19546.7777113
18125.8750719
19543.6367281
19542.571166
18097.7324099
18107.5042972
19542.647241
19543.6068166
18104.3292557
19544.2860731
19544.3451153
18105.5075672
18129.7905989
19543.1156177
19545.3225515
18109.8824739
19544.9996886
19546.1802562
18129.4079541
18158.4720118
19544.7331693
19546.4453435
18130.4918214
19545.7325269
19548.5896474
18161.8288421
18181.6175931
19546.8401309
19547.2443776
18138.1969049
19548.0447933
19545.7579883
18155.5612569
18152.7255252
19547.3193193
19546.6390109
18170.7561969
19549.4975603
19550.3773176
18184.9063317
18206.9927577
19548.8690061
19550.9350421
18187.3114856
19550.2686462
19550.3648089
18186.8249653
18235.6280252
19548.5388105
19551.8413227
18204.5529513
19551.6548088
19554.4487422
18229.4004823
18253.0726484
19553.1053613