/*--------------------------------*- C++ -*----------------------------------*\
| =========                 |                                                 |
| \\      /  F ield         | OpenFOAM: The Open Source CFD Toolbox           |
|  \\    /   O peration     | Version:  v1906                                 |
|   \\  /    A nd           | Web:      www.OpenFOAM.com                      |
|    \\/     M anipulation  |                                                 |
\*---------------------------------------------------------------------------*/
FoamFile
{
    version     2.0;
    format      ascii;
    class       surfaceScalarField;
    location    "5.2";
    object      phi;
}
// * * * * * * * * * * * * * * * * * * * * * * * * * * * * * * * * * * * * * //

dimensions      [0 3 -1 0 0 0 0];
oriented        oriented;


internalField   nonuniform List<scalar> 
92311
(
0.202502897017
-0.000159436224733
-4.65806854306e-05
-0.202304115144
7.23521331562e-06
-0.000248126703238
0.202581032042
0.000648325138777
-0.000478204128186
0.202433869558
-0.000291198232756
-4.75878366294e-05
-0.202249133805
-5.24001481418e-06
-0.000547595333893
0.202592887633
0.000655926005711
-0.000515314824924
0.202196261143
-0.000103189827261
-0.000119593224146
1.39610854297e-05
-0.202090306667
-4.80964484827e-05
-6.0965493835e-05
-7.91905051551e-05
-0.000226260919167
-0.000334545450818
-0.000312139550323
0.202575341879
0.00070428356344
-0.00056440488886
-0.00019361574334
0.0505217794766
-3.01789563243e-05
-2.41767046887e-05
-2.97582252915e-05
-2.30921560956e-05
-2.92520392541e-05
-0.0505473617413
5.8834558743e-05
-0.0505091869257
0.0505092529263
-7.41281762265e-05
-5.65034210732e-05
-5.65538247484e-05
-7.08441558988e-05
0.000139275396823
-0.000107564236815
8.6659696748e-06
0.0228931564947
7.25649782374e-06
3.98933669782e-06
4.65810525618e-06
-0.00028884740375
-0.0266712531426
0.00518869117352
-0.00114623006957
0.00376236558305
0.00455058190473
0.00561937932284
-0.0100793567778
0.000128006373459
0.00013821491793
0.000110056672984
0.00011603249495
-0.00434524276217
-0.00522835611174
-0.00801743183212
-0.00749849535732
-0.00805249113816
0.00176361220067
0.00835822047334
0.00482532452346
-0.00688700924593
-3.40061159728e-05
-3.45416007479e-05
-3.47987000912e-05
-3.39241469431e-05
6.12276969487e-05
-3.09599355555e-05
3.06512909612e-05
0.0124000313077
1.27373499996e-05
-1.00571138627e-05
-0.0124247566352
0.0123371563897
-2.64113347817e-05
3.66751834309e-05
-0.0123576235898
1.1979683435e-05
-1.79847750549e-06
-0.00018735697368
-0.000122839076394
0.0505931949421
-0.000116955419217
-9.70170272044e-05
-9.33009864514e-05
0.000198944092241
-0.000131992298315
0.0505228164146
-0.00012889303999
-0.000100744353942
-9.11544369737e-05
-0.050421429337
-0.000148065819211
-5.58456618511e-05
5.20866938683e-05
0.0123299191913
6.67750503246e-06
4.30789924798e-06
-6.49210510197e-05
0.0126217774903
6.09202041068e-05
-0.000136540751992
-0.0126040509331
0.0126141127633
-5.58644103598e-05
-0.000163027135838
-0.0125920139373
-0.000129305293452
0.202807327124
-0.000845999498522
0.00070154810634
-0.202533570518
0.202603360539
-0.000291286406777
0.00114643603002
-0.000877103780379
-0.000185073868998
0.202488387648
0.00139101293908
-0.00109066629695
-0.000183779601894
0.202800403188
-0.000877304109401
0.000710990906102
-0.202579490676
0.202723437962
-0.000697163794206
0.0011543750537
-0.000878844828648
-0.000437164698497
0.202629052306
0.00143401768547
-0.00108734361317
-9.56117744002e-05
-4.72831674276e-05
-3.15717264313e-05
-0.000709538580821
0.202636339585
0.00065585292698
-0.202514872229
-7.70129987363e-05
-0.000358316798528
-0.000401874987256
-0.000344026538821
-0.000387447541848
0.203065999322
0.001353064799
-0.00104936137177
0.0506737661436
-4.29427186307e-05
-3.37064293945e-05
-3.77529509487e-05
-4.0934054103e-05
-0.000175307260254
-0.0506286857425
0.000189968505806
0.05076335664
-0.000241871841199
-0.000124700510536
-0.000119890220348
-0.000145919321974
-0.00013920649109
0.000243246299756
0.00639287626877
0.00503483401488
-0.00190454922478
0.000145410363621
0.00015968218964
0.00015537091736
0.000165051190958
-0.00638600828744
-0.00896923207156
-0.00702738666805
-0.00772614487353
0.00210748343012
0.00864726780714
-0.00509958328958
0.0028588982467
-0.00808900515366
-0.00015131038155
0.000135488123198
0.0022189302026
0.00210127302388
0.0232486677586
-0.00328712688633
0.0419069233781
0.000111454477513
-3.37713419693e-05
-2.10547916339e-05
-2.96002226734e-05
-2.3583426003e-05
0.0507184384188
-9.53028675652e-05
-2.52128679707e-05
-1.57373031051e-05
-2.70757154571e-05
-1.66938463954e-05
0.0506303707044
0.000128590390868
-0.0505943368558
-1.00453542815e-05
4.22566277163e-05
0.0125012697435
4.0635957734e-05
-5.95094365416e-05
-0.0125145296926
-4.62519897937e-07
2.86430429234e-05
-0.0124603891483
9.43571134317e-06
-1.83876013562e-05
0.0124410756949
-3.01566481855e-05
0.0126515986796
-3.36830445047e-05
3.72391460085e-05
-0.0126502123091
-0.000290219666073
-0.00013625712022
-0.000136837968979
-0.000130395868648
-0.000140958865771
0.0508953620189
0.00030085956976
0.0507161125305
-0.000131873510478
-0.000157456120553
-0.000131091025431
-0.000151645194722
-0.000206988369284
-0.000143178972797
-0.000146351608669
-0.000137535913192
-0.000137719306679
0.0508640241717
-0.000260888158023
-7.60706846116e-05
6.92445469818e-05
-0.000145176218723
0.0126492278136
-0.000151429691685
0.000159963185044
-0.0123113337975
-2.14556554464e-05
0.0123033372939
2.0835695519e-05
-7.07131388599e-05
-0.000168512811236
0.0126456212511
-0.0126709247177
-0.000190383769676
0.0127102296426
7.73768230787e-05
-6.92921010558e-05
0.0168873048126
1.65717973163e-05
2.38313411567e-05
1.39921532991e-05
-0.000565948215728
-3.20520930045e-05
0.00652344570873
0.0062106794061
0.00015257257253
0.000159579933885
0.000115886492188
0.000124350904019
0.00408833052398
0.00524311628142
-0.0115433818499
-0.00383340427707
-0.00182010591246
-0.00229268364239
0.00614739842866
-0.0030066984915
-0.00287778765767
0.000172580061982
0.00674558435956
7.28969096472e-05
5.60181072544e-05
7.90195740925e-05
-0.00237082365997
0.00217006075987
0.00104968659791
-0.00789153422561
0.00253094504755
1.30373473006e-05
0.0126309439838
-6.07562823149e-06
-0.012637442595
-0.0126205180086
-2.64602589872e-05
4.28920842867e-07
0.0126152219568
7.14305559465e-06
1.46971613408e-05
2.58383641307e-05
0.0123767004507
-9.87619674054e-06
3.26587524221e-05
0.0123930082579
-0.0124200974284
1.11711111806e-05
-0.0126246575473
2.00639034228e-05
0.0123711762023
1.47019173759e-05
0.0126259357078
8.18863149966e-06
0.0126023515938
-2.80536078177e-05
8.41589161125e-06
-1.4956259216e-06
-2.25399182338e-05
-0.0126131602347
0.0126094417074
2.83844135411e-05
1.44555482866e-05
2.87854106123e-05
-7.62565645026e-06
3.61397231899e-05
-0.0123514708753
0.0123280527286
2.30762111093e-05
0.0125990261989
-1.79124799655e-05
1.99924736121e-05
1.60232169976e-05
-0.0125899615803
-8.43436995115e-05
4.33021983406e-05
0.0125985998303
-4.17306622271e-05
-3.29368166022e-05
0.0126017952844
3.61797788766e-05
2.43640250512e-06
7.7041074733e-05
0.0123116814084
1.1607208546e-05
5.27415595879e-05
0.0123195722046
1.8429581377e-05
-2.75823908582e-05
0.0123016468866
1.49930478763e-05
0.0126087681871
4.26117240151e-05
-0.000128213830091
-0.0126139975613
0.0126303783131
5.59556807919e-05
-1.40309094888e-05
-0.0123173961655
0.0123101632677
2.11176222292e-05
-0.0123078604754
-4.97922369459e-06
0.0123005025226
-0.000100478428287
5.40150910172e-05
-5.57302228389e-05
-9.66584715163e-06
9.46640661736e-05
1.94355178792e-05
-1.58006143607e-07
5.02299562388e-05
-0.000163851288656
-0.0125760253597
0.0126018766189
-4.66344533093e-05
-7.95181090353e-06
-0.0122955187934
0.0122881225408
-0.0122849599895
0.0122799369387
-7.17573531735e-06
-4.31128200359e-05
-0.000120879004565
-0.0125843333338
0.000109210031114
2.42712204102e-06
-0.0122772972303
-3.34409715181e-06
-0.0125671856881
-3.36389199973e-05
-0.012289779272
0.00603561678235
-0.00412847038515
6.51800100437e-06
4.70726744639e-07
5.00766870248e-06
2.50924938369e-05
0.026763946677
-0.0300440095403
0.00133568752592
-0.00463828600283
0.0086575671809
0.00174627103163
-0.00870364349132
0.0280675475739
0.00361877313016
1.19637952899e-05
3.04418711845e-05
2.72706380319e-05
-0.00777137006169
0.00594889076111
-0.0299432557637
0.0054192316294
5.92807542876e-06
2.34270092347e-06
1.74406851765e-05
0.0243681676391
-0.00587465625409
0.00592551616701
-0.00638055073589
-0.00765928844247
0.00470925276404
-0.00523843193741
0.00421850215798
0.00552694107011
-0.00205652471556
0.000177734893899
0.000188007941947
0.000204558727739
0.0001763092088
0.00626486142691
-0.00542955855036
-0.00248827491764
0.0114923631773
-0.00381308789802
0.000677009559047
0.00421911144624
-0.006414155211
0.000195746670187
0.000188473368482
0.000165591413179
0.000171687957022
-0.00678081896736
0.0061960445897
-0.0061765041825
-0.00212174849732
0.0122508612676
0.00429857860427
0.000148947530118
0.000154990046695
0.000156247446021
-0.00645361641804
-0.00677476922079
-0.00332368914454
-0.000273297249034
-2.74087803538e-05
-0.0126610844205
-5.70517416255e-05
0.0126666945735
3.59235813276e-05
0.0126653516585
3.31831264559e-05
-3.03431905922e-05
-0.0126595904216
4.92874759381e-05
2.96498664783e-05
0.0124808946742
-4.66118945894e-05
5.74312896286e-05
0.0124895731529
-0.0124995728496
2.35411779982e-05
0.0126715183925
-2.19215172622e-05
-0.0126532731728
4.1975694561e-05
0.0124729118971
1.67023576951e-05
-2.19440293521e-05
0.0126747810034
-4.69129756113e-05
2.70769932613e-05
-0.0126786470734
1.59271999862e-05
-1.25112093545e-05
0.0126827775627
4.15320446058e-05
1.72556775769e-05
-3.23428478338e-05
2.46462946641e-05
-0.012451629724
3.47528496408e-06
0.0124353288839
-1.7041828499e-05
1.6504116338e-05
0.0126753472472
8.84982498031e-06
0.0124434910291
-1.29430905114e-05
1.24264632788e-05
-0.0124664912161
1.69393238494e-05
-9.33580817365e-06
0.0124230725123
1.31449471217e-05
-1.92532494429e-05
0.0126513138197
2.06086513443e-05
0.0126652895768
-3.85731568639e-05
-0.0126604422625
1.83603674701e-05
-0.0124513133475
0.0124322014096
0.0126642507354
-0.0124690513253
-0.000136819470014
0.0126553326267
6.13580980061e-05
-2.15911659195e-05
0.0123163283371
2.40831881157e-05
0.0123113256673
-1.78471443353e-05
7.36320509219e-05
-0.000167784013179
0.0126783822471
-8.08711554318e-05
0.000158483573156
-2.13015783821e-05
0.0123142214345
2.02828495536e-05
0.0126819930458
6.63517861697e-05
0.0123083915517
-2.10146344214e-05
7.61370644221e-05
0.0127088303805
-0.000161156870632
-8.15968363551e-05
-0.0127112559839
-7.6856767955e-05
0.0127367667317
7.45790094742e-05
0.000152845884786
-2.13237942392e-05
2.0542548429e-05
0.000161804501391
-0.0123059257479
-2.25836015523e-05
0.0123003800547
6.95201988401e-05
-8.18249331075e-05
0.0127348281872
-2.36766214488e-05
-0.0126368935947
-0.000200436957851
7.60476257869e-05
-6.70044756952e-05
-0.000174971405524
-6.12846130149e-05
-2.36620517944e-05
0.0123032218412
0.0122938178702
-2.44638283489e-05
2.92173932465e-05
0.0122958597667
-2.72628103692e-05
-0.000187835825379
0.0126774254598
0.0122999805485
0.0123017682415
2.87275689508e-05
-2.84411627115e-05
0.000183254665329
2.476411832e-05
0.0123032359036
-2.04833138921e-05
7.60368589253e-05
0.0127401480353
-6.87326065751e-05
0.0127106626921
-0.000174699260835
0.000170390523962
-0.0123020415732
0.0122994795316
0.0127376276567
-0.000314010479012
-0.000271520271458
-0.000109592204164
0.00152011761208
0.203124640328
-0.00018881711462
-0.00113209786172
-0.000304180511319
-9.35385576926e-05
-0.00011118210869
-9.29405786386e-05
-0.00011231506421
0.000315823685373
0.0509796817713
0.000131308585055
0.00575880958639
0.0022056443544
9.69240038114e-05
0.000128752599299
9.7163160927e-05
-0.0062749259348
-0.0085968276841
0.00743914467069
0.00755949040258
0.0106031780129
0.036108400031
0.0213296233363
0.0105072843748
0.0573624741318
-1.77084336202e-06
-1.86264693628e-05
-1.84677777952e-05
-4.92604916804e-06
6.8307789178e-05
-2.29679169459e-05
0.0505995444925
-1.53962984134e-06
1.47904018723e-05
4.33138835627e-07
0.0123993028018
0.0509458003525
-8.1313375721e-05
-0.000112946554254
-0.000105143628618
-8.68726095877e-05
-0.000271417327466
0.0509057399236
-5.08635362374e-05
-7.9528410712e-07
-1.0990304733e-06
-5.74859229758e-05
0.000338800059339
-0.000298455710244
0.000141828458142
0.0122890308469
-1.57403278653e-05
1.95392621326e-05
-0.000145655818072
0.000151922029057
1.490738428e-05
0.0122940429398
-1.17698492379e-05
0.012232139412
2.99153606355e-05
-6.53939543538e-06
-1.86510040802e-05
-0.0122602556367
2.26554267294e-05
0.0508044180439
4.08920569419e-05
2.26368682107e-05
2.03611185954e-05
4.78098670823e-05
-6.5398550266e-05
0.000345117233944
-0.000310382414617
5.14715135811e-05
6.19897935578e-05
6.2914889412e-05
5.32749670997e-05
-0.000121738267363
0.000371749904531
0.050664004614
-0.000339398501339
7.18728291994e-05
-3.85447980706e-05
-2.4851889317e-05
0.0121965911783
2.69371842262e-05
9.34598842249e-05
-8.27359510661e-05
-4.43731456671e-05
-0.0121584868018
0.0121364409121
5.54951767245e-05
-1.13936252781e-05
-6.33075250089e-06
-1.36654060532e-05
-0.00221954455691
0.0221754769905
0.00654828335072
-0.00919329785767
0.00173740000241
0.000136035597718
9.39519621292e-05
8.99073696323e-05
0.0059683098042
-0.000255806205393
-0.0100120263885
-2.71951685694e-05
2.39701267652e-05
2.58216285343e-05
-0.00604620393043
0.00712778134842
0.00396436996727
0.00459066607085
-0.00222844789812
-0.00153403519949
0.0126729054323
-0.00246074278797
0.000146357070969
0.0111535353967
-0.00772845532924
-4.92322217578e-05
-9.15433334314e-05
-6.03846220155e-05
-0.0066274978718
-0.00403106202538
0.00864795709347
-8.56653340037e-05
-8.49421743558e-05
-8.19293361797e-05
-0.00750512148516
-0.00517873817688
-0.00446310865421
0.00976435813791
-0.0126553512317
7.09282923826e-06
-9.57939000573e-06
7.62352519137e-06
0.0126484325452
-4.02053266668e-06
0.0126453318884
9.12345636124e-06
0.0124046731842
7.48399622765e-06
3.76608094897e-06
-1.52858567703e-06
0.0123808571293
-4.54532389493e-06
1.49135733172e-05
0.0123868289573
0.0126373753383
7.60275353965e-05
-0.0127653392576
-9.54670515044e-05
-7.80233816831e-05
0.0127692612281
0.0127662240403
-7.74352950859e-05
7.87301372288e-05
0.000100834389844
-1.41106551668e-05
1.93171837483e-05
0.0122799783996
0.00014022428902
0.012288149265
-1.48931166177e-05
7.78747811286e-05
0.0127723724745
-8.00302178473e-05
-8.77233636952e-06
0.0122844626406
-0.0127682058324
-8.93124065935e-05
-6.88910328241e-05
0.0127671011098
7.21150271047e-05
0.0127713537751
-6.43366717934e-05
0.000143682259361
0.0122918321044
5.81068940738e-06
8.93281822327e-05
0.0122952150082
-2.24109608801e-06
0.0122893096853
0.0127666721143
-6.18802099339e-05
0.0127581312236
-5.36932138642e-05
-6.56341612731e-05
7.7391678728e-05
6.91868517244e-05
-0.0127559276727
0.0127404182596
-6.14385675936e-05
-5.54403776656e-06
-0.0122565596806
0.0122276439678
-1.13670568125e-05
-8.74746423025e-06
5.32934461319e-05
1.39663620807e-05
0.0127395917242
8.09156781494e-05
-3.9694759768e-06
-5.94095892392e-05
-0.0127236628835
5.53961948188e-05
-7.55514499818e-05
0.0126975441592
8.71479407591e-05
7.01188686821e-05
0.0127197182257
-6.54959970488e-05
-2.3626649077e-05
0.0121915421842
-1.44735366456e-05
-3.33666898796e-05
-7.22372830454e-05
0.0121755468221
3.51080149901e-05
8.26348898859e-05
0.0121737714702
-2.0635413983e-05
0.0126904480349
-7.0892888283e-05
0.0126693985246
7.02708821753e-05
-8.15997289435e-05
9.08857424489e-05
8.97030692865e-05
-0.0126624592606
0.0126358871351
-8.40399889678e-05
-8.26368104452e-05
-0.0121496817067
-2.75435519236e-05
0.0121298305065
-3.68809351733e-05
-7.56043222362e-05
4.4479620277e-05
9.76170386032e-05
0.0126416507746
-2.4564208706e-05
-7.61255622874e-05
-0.000504730358751
-0.0492701411391
0.0492270904602
0.000605970930854
-4.29293059143e-05
-1.43365668163e-05
-2.26367183439e-05
-3.73463319792e-05
5.91728967442e-05
-0.000670726300606
0.0498586544436
-8.25258617232e-05
-8.75149437013e-05
-7.9834213966e-05
-9.57289200545e-05
0.000232700033345
-0.0497209829972
0.000645968103645
-0.00109877379546
-0.0500115413186
0.050174127001
0.00088766997028
1.38403450718e-05
-1.25971875492e-05
8.85298549212e-06
4.07028935665e-06
3.43522886184e-05
-0.000694602054662
-1.16937077528e-05
-2.26999205502e-05
-1.78794660442e-06
-2.83950257041e-05
7.72341011068e-05
0.0502777735876
0.000573772696819
-0.0501696085744
5.60717949397e-05
-0.00402486519379
-0.0329637605231
0.0302067539802
0.00589622006297
0.000538330244384
8.2053610402e-05
9.33298948252e-05
0.000112036808983
5.388820918e-05
-0.0284146030612
0.028242424136
0.00240741158176
-0.0012720815163
3.28316310526e-05
1.59061853728e-05
2.55471899137e-05
-0.00108739109212
0.000156251290481
-0.00560107517217
0.0206896494461
0.00120948498725
0.000128286690357
0.000170522609703
0.000110357026147
-0.021192487974
0.00432919773643
-1.12900680628e-05
-0.00308268369393
-0.0220746503564
0.0242522934862
0.00419799962491
-0.00314275318524
-3.34658343691e-05
-5.52139679056e-05
-5.0371432792e-05
1.07091973611e-05
-0.00623475825257
-3.46060908724e-06
2.12920295965e-05
7.54357681776e-06
0.0245017947266
0.00585596715111
-0.00156642520414
-0.0225929641311
0.087133960058
-0.0153132305097
0.00900818227295
0.00330199600213
0.00713819156494
0.00292578631341
0.000979711757079
-0.0384335831615
-0.0167234595967
-0.00924668355162
-0.0085166098575
-0.00814341630523
-0.00786905436832
-0.000353572870183
-0.00463473277084
0.0816206320705
-0.00485865341749
0.00840929420871
0.00724895137828
0.00593983469654
0.0071109808974
-0.0318716095737
-0.00878344561258
-0.00335317385028
-0.00348804998341
-0.00277098439572
-0.00230657053907
0.00778035554161
0.102235484387
0.00400257988744
0.00714212382643
0.00691573884745
-0.043867018239
-0.000542316480608
0.00383347798457
-0.00186160356364
-0.000709873590122
-0.00133053761829
0.000364045327353
0.0404073987558
-0.018043485155
0.000185525563767
3.07611769372e-05
2.666653345e-05
3.33352143119e-05
2.60760678787e-05
0.0488823753212
4.76845093649e-05
-7.56744088311e-05
-0.0491566312284
0.0489744094681
0.000280582618371
3.26018509164e-05
2.54949360025e-05
3.25709777486e-05
2.58237868339e-05
3.51587876109e-05
-0.0492210410933
1.55578525612e-05
-4.14414179595e-05
-0.0122123263074
1.59067539588e-06
0.0122050290296
3.14007903197e-05
0.0121986980105
8.80660491653e-05
2.08374608313e-05
-2.99030795952e-05
-6.83275308872e-05
-0.0122098331933
3.5525220441e-05
2.84406240895e-05
4.29889959303e-05
2.1583815539e-05
-0.000309476587197
0.012240051779
0.0122012424901
0.0121017652524
0.0121689082012
-6.13533503907e-05
9.12161792343e-05
-1.18191445735e-05
-1.7569505992e-05
-6.78855072335e-05
0.0122047813634
0.000357248232193
-1.55220480185e-05
-6.92301896246e-06
4.89487514783e-06
-2.72663299876e-05
5.59182364971e-05
-0.0493579096171
0.0494916618065
-4.39226332825e-05
-8.09077655008e-05
-5.92351254719e-05
-6.26735020861e-05
0.000119942022498
-0.049488419892
0.0004806836215
0.0121995873354
-6.529424601e-08
-1.87054034064e-07
-0.0122081802299
9.70875296121e-05
0.0122264287345
-0.000127956570266
0.00012890295741
-9.10058476006e-05
-0.0122184715123
8.30583797607e-05
0.000930755769305
-3.61930715711e-05
-6.31088409213e-06
-2.10281692534e-05
-1.5924511207e-05
0.0492350620536
-0.000213021024618
-0.000174669655113
-0.000215445851263
-0.000178367131779
-3.2140388135e-05
-1.47178753882e-05
-1.91348934716e-05
-1.18709532469e-05
0.0495427347301
-6.22901411963e-05
-7.55253487078e-05
-5.82464536237e-05
-7.34344221475e-05
0.000153918261689
0.0497505451293
0.00087017291516
-5.15491881086e-05
-3.70088940926e-05
-3.09030675648e-05
-5.87838136949e-05
3.11159054662e-05
1.63622253818e-05
0.0122214540866
0.000108620374624
0.0122937269267
-6.8203397112e-05
2.80161101286e-05
-0.0122689733345
0.000159037824746
-0.000143797138706
0.000101737592056
-0.000150768465304
0.000123308981093
-0.000107901357496
0.0122596143696
0.012333817678
0.000159897308932
-5.35587416622e-05
3.22750882034e-05
-0.000166039947661
-0.0123066858577
0.0499482212657
-2.00101590757e-07
-1.71500042881e-05
-1.13891442338e-05
8.0179886628e-06
-0.00120388217614
-7.20093855621e-05
0.00126265291744
1.3683574552e-05
1.66590782454e-05
2.32688923448e-05
9.80223985661e-06
0.0504547478767
-0.000238862872826
-0.0015938268385
2.03062503699e-05
0.0123066657062
0.00018017263303
-0.000159865887706
-7.55613925262e-05
2.18317068351e-05
-0.0123523574058
0.000215858265458
0.0124017813808
-0.00021198356254
0.000167840759983
-2.24020050085e-05
1.55088384533e-05
-0.00016958353432
0.01234231226
0.000178523284226
-1.39878092537e-06
-2.16613580994e-06
-0.000198821922319
-0.012374499974
0.0123982438989
0.000776198691062
-6.34296994452e-05
-3.45565390841e-05
-5.87564065333e-05
-2.15865729586e-05
0.00011946505652
0.0501346912333
-5.75465842e-05
-2.30773374567e-05
-1.58824107546e-05
-5.29905113233e-05
0.00012897360293
-0.0499996651926
0.000661634580428
0.000125544810886
0.0122797466088
9.74056454545e-05
-0.012243518319
0.0123473619988
-2.52815044616e-05
1.64095802354e-05
-0.0123253675282
0.000146682037225
0.0123647359942
-4.1554374548e-06
2.16912530868e-06
-0.000119517539217
-0.0123473754846
0.000104259732391
0.000975827148525
2.51191808213e-05
1.45947528908e-05
2.16958276393e-05
2.66454895417e-05
0.050417403428
-4.45834787422e-05
0.0502586840668
1.92731783433e-05
2.37579343062e-06
1.1056300284e-05
1.95189058511e-05
1.65947871279e-05
3.33122673763e-05
2.88740108999e-05
2.92858020686e-05
3.80109973973e-05
0.0503992321935
0.000734912578298
-2.91554376305e-05
-2.46800473251e-06
0.0123493404253
0.000156431897441
4.86386473592e-06
-1.82897672118e-05
-0.0123766567338
0.000168799140108
0.0123995933139
0.000110781000847
3.44536533639e-05
-2.0170565454e-05
-0.00012418252244
0.0123635694838
0.000142891433573
2.31273081795e-05
-4.55257460348e-05
-0.000143663940952
-0.0123858654824
0.0124089875089
5.07706662316e-06
0.012371165389
0.00011234777189
-0.0123671809981
-3.04523397686e-05
-0.0124007176554
0.0124211053012
1.97369340766e-05
0.000133176647128
0.000460212174635
-1.72793694767e-05
-2.49704628676e-05
-2.63365126891e-05
0.0369834991773
0.00412477621658
-0.0361189250921
-0.0053666638825
0.0369252012867
0.00534976771053
-2.53258816381e-05
-2.24526233386e-05
-2.41742816217e-05
-0.0359440615841
-0.00577891446478
-0.00162253369327
-2.33719913045e-06
4.95831333613e-05
1.81707590677e-05
-0.000418325325046
0.034864618269
0.0178900654873
-0.000889595460335
0.00362475641646
-0.000769511127606
-0.0108392033406
-0.000549910624283
0.0229236422776
4.12503000315e-05
-0.00122789524426
0.0199236781064
-0.00264807506905
-0.0126352335982
0.0246177945078
-0.00210604517458
-0.000219613064275
0.0157226564408
-0.000338641550353
-0.000313245633431
-0.00139603679729
-0.000236438758555
0.00877849466328
0.000121086375985
-0.00145362086024
0.0171366176619
-0.00147907319122
0.000473026350087
-0.00127169975963
0.0097925146035
0.0004926409938
0.00805746770085
-1.3170070484e-05
4.572267922e-05
1.30732905661e-05
-0.00142759797579
-0.0342895726736
0.0257417295259
8.54856578681e-05
0.000100416533567
5.5851502642e-05
-0.0283554750497
0.00326373594796
0.00703732654085
0.00358083854746
1.63530250585e-06
9.1500340403e-05
7.44904917896e-05
0.000112828388383
-0.00213800425182
0.024115706638
0.00139203559032
0.000120131470343
0.000135467814202
0.000124128751295
-0.000948139528524
0.0243523631578
0.00397832971974
6.70846637654e-05
7.92849246898e-05
0.000114540669045
0.0201371317331
-0.00163344579312
-0.0121945338162
-0.000181000979462
0.0254626211493
0.0201086498107
-0.000333235709004
-0.0140654008048
0.025003478803
0.00109120486518
0.000938624732869
-0.000947378820208
2.43389238538e-05
6.24975186475e-05
5.85680670948e-05
0.0284996698517
-0.000481037821286
0.0254346862388
-0.00178819652648
-9.7273248012e-07
-6.01534828476e-06
1.28477985175e-05
-0.00181361123773
0.00145024227057
3.18294466814e-05
-2.04873586909e-05
3.04585295012e-05
0.0266914062042
0.018687585221
0.000670352837721
0.00124689809217
0.0117089771242
0.0189728090727
0.00212964189146
0.00342777430571
0.012676643563
0.0041500440769
-0.00171098567973
6.58826480423e-05
3.30750072514e-06
5.90310024797e-05
-0.00140890469519
0.0216301233826
-7.66269379987e-06
3.22757602754e-05
3.96633032466e-05
-0.0203006277073
0.00415824371781
0.0189585165354
-0.0138646495863
-0.000198217558135
0.000688569160473
0.0247751992665
0.0263824456174
-0.0191815251342
-0.00101753010545
0.00325020364684
-0.00417470017092
-3.36240251269e-05
-4.27668504495e-05
-4.42736493523e-05
0.0267517829219
0.0243419812151
-0.00454926672143
-6.0588684537e-05
-5.63473158061e-05
-5.08204789834e-05
-0.00602118306315
-5.50044864268e-05
-4.47873512107e-05
-4.40321368955e-05
0.0274886675495
0.00629090099338
0.0201118969856
0.001776759452
0.00292064043625
0.0157350042219
0.023213879288
-0.00094308497473
0.0214809287759
-0.000998892109525
0.0122844823315
5.56600799117e-05
-3.30319420646e-05
3.45922353629e-05
-0.012310930929
4.12506796164e-05
-0.0122801146617
0.0122513795544
-2.73509696499e-05
2.5375052151e-06
-4.6149209314e-05
3.07772227058e-05
-0.0122167480392
-5.17327655078e-05
-0.0122124865844
3.58735773768e-05
0.012204747794
5.00758859468e-05
0.012257179497
3.62763962945e-05
-0.0122168862519
-2.65528143905e-05
-0.0123066797464
0.0122931438729
3.86874945346e-05
5.37045694688e-05
-0.0123183410681
-5.76136867664e-05
-0.012308703116
0.0122961431285
6.56464104125e-05
-4.54621017717e-05
-0.0122113675338
0.01219896199
-3.93567951507e-05
-6.94993067494e-05
9.07916108874e-05
-0.0122141412238
0.0122725563213
4.52904020678e-05
-0.0123289280512
-0.0122149500191
-0.0122638716857
0.000103993804563
2.04529993267e-05
-8.0069664619e-05
0.01225503404
-7.40760482824e-05
0.0122911954862
8.97902772865e-05
-3.600984845e-05
0.0121983307762
-3.37763909127e-05
-4.64794998618e-06
-7.04956673702e-05
0.000103436332247
0.0122260816898
-5.84315489163e-05
0.00012302033225
0.0122890393007
-3.63960370593e-05
0.0122028264777
-4.64115167657e-05
0.0123530158611
-1.8496355787e-05
5.41881636502e-05
-0.0123578264948
-0.0123316369565
6.33985527506e-05
0.0123267334274
-1.28892567375e-05
9.57037330957e-05
-0.0122133260632
4.51818482921e-05
-0.0122043120048
9.85830752789e-05
0.0122033479172
-0.0123410370603
7.65484187941e-05
0.0123574550328
9.30671097247e-05
-0.0122068490136
0.0123792478802
6.94911463057e-05
-6.15186820691e-05
-0.0123771280546
-9.36092015785e-05
-0.0124074485201
0.0124264471066
0.000122923194808
8.89264657273e-05
-0.0122116556579
0.0122158773046
0.00010334716607
-8.34287019928e-05
-0.0122099509352
7.20867279244e-05
0.0123917861465
-0.0123948963763
9.75401554072e-05
-0.0122076231336
-0.000133608006479
-0.0123647024876
-7.6663907876e-05
0.0123796470914
0.000152774909097
0.0123245490192
9.39672914452e-05
4.0867441141e-05
0.000121346365983
0.012244327678
6.22994589943e-05
0.0122310589765
0.000112048872416
0.0123323586177
0.000111755937622
0.0122592688412
0.000130714910588
-0.000180965732027
0.0124041823194
-7.74467007853e-05
0.000197994886444
-0.0123479577755
0.000227900073372
0.0123540095542
-0.000212228586205
5.21952914964e-05
0.000134951132297
-0.000120063383066
3.44006836597e-05
-0.0122830752179
0.000166761852257
0.0123153114422
-0.000165189724309
0.000241678250622
0.012408941799
0.000147435568807
-0.0124091474818
0.000169031818295
-9.868660494e-05
0.0124294071064
-0.000128108288989
0.0124533942061
0.000148994306438
9.1409308853e-05
0.012249079802
0.000108667643394
-0.00012792644182
0.012291590344
0.000122904263555
0.0124750061892
0.000183074056637
0.012277338684
0.0124506492578
0.000212907208832
-8.73423288098e-05
-0.000245473812419
-0.0124868291614
0.0124845533164
0.000243018445233
3.59142743747e-05
-0.012300716565
0.0123316378178
7.40453502105e-05
-0.000151659052992
0.000141967236171
0.0124518036128
0.00021647598571
-0.000318050017266
-0.0124142511913
-5.56499453914e-06
0.0124334567814
0.000320547073999
-1.59600217875e-05
0.012365857169
0.000275060152398
-4.45700525734e-06
-0.000262326425545
4.36482975948e-06
0.000191614520918
0.0123287704761
-0.000184866631398
1.39489153855e-05
0.0123150707725
0.000181153220182
0.0123899140014
-2.26407474423e-05
-0.000314977778158
0.000282454121851
1.18665607604e-06
0.0123318672341
0.000195332424691
-0.000353355353749
-1.16953578094e-05
0.0124924989244
0.000356961601072
-5.06414403123e-05
-0.0124587232584
0.000378326465893
0.0125452018918
-0.000378682031137
-6.42779100799e-05
1.50618307206e-06
0.000198358668009
-0.000198771847111
-0.0123699404457
2.17998322881e-05
0.000216082152825
0.0124103868577
-0.000353260542438
-6.7077623799e-05
0.00020745475394
0.000382130984535
0.0125608917535
-5.00416555523e-05
-0.0124565245881
0.000306734421954
-7.6293485313e-06
0.0124779661047
-0.00027827459407
0.0124904813166
0.000270499028724
1.18719294316e-05
0.0123297003151
-3.98015968043e-06
-0.000186578764696
0.0123527549434
0.00017438511314
0.0125081462865
0.00029323248254
0.0123441108171
0.00033648147883
-4.87484880771e-06
0.0125173985511
-0.0125337722433
-0.000352769061262
0.000327362405269
0.0125736081105
-0.0123791625135
1.46611119234e-05
0.0124126402583
-2.00161250305e-05
-0.000199081624067
0.000176978747923
0.000314273304897
0.0125712453328
-0.000185483709849
-0.0125146728201
-8.75727313319e-05
0.012525816522
0.000179401754384
0.0124883208387
0.000156397382736
-0.0124573824173
0.000100306946921
0.000119916924848
0.0123108205623
0.000130389176112
0.0122973199476
-0.0122597241686
0.000100684785389
0.0125064988306
-0.01248476491
0.000161487158898
0.0123245608826
0.000115498056639
-0.000208652773176
0.0125326816161
-5.52180716917e-05
0.000193651417917
-0.0125133941372
0.000226468654244
0.0125116551601
5.79547275727e-05
0.000135670208902
-3.29009452313e-06
-0.012336343679
0.000133406299869
0.0123564472526
0.000203452070302
0.0125305724658
0.000127197135527
0.0125442806942
0.000172902396646
-4.19827309965e-05
-0.0125392182465
-0.000177874047637
-0.012549740964
0.0125494110563
0.000157091276425
-1.13563506222e-05
-0.012344835367
0.0123624635824
3.85151219289e-05
-0.000116385628108
-0.0123408008706
0.000103602773196