/*--------------------------------*- C++ -*----------------------------------*\
| =========                 |                                                 |
| \\      /  F ield         | OpenFOAM: The Open Source CFD Toolbox           |
|  \\    /   O peration     | Version:  v1906                                 |
|   \\  /    A nd           | Web:      www.OpenFOAM.com                      |
|    \\/     M anipulation  |                                                 |
\*---------------------------------------------------------------------------*/
FoamFile
{
    version     2.0;
    format      ascii;
    class       volScalarField;
    location    "5.25";
    object      p_rgh;
}
// * * * * * * * * * * * * * * * * * * * * * * * * * * * * * * * * * * * * * //

dimensions      [1 -1 -2 0 0 0 0];


internalField   nonuniform List<scalar> 
28582
(
19554.6459948
19552.5690358
19555.2358878
19553.1666794
19556.8561177
19554.4195072
19559.3923445
19558.8394882
576.234637619
745.267504928
0.078785752818
19559.649515
18423.1028315
18391.9131137
19556.2760845
19556.8822088
18348.7309141
19554.2248916
19554.3396129
19555.5957039
19550.6044175
19548.8382941
19555.6822247
19550.5870948
19548.3420696
19556.0746114
19550.3144496
19555.6974196
19552.3147272
799.14907941
-0.0141636850934
0.0443941269145
19556.3062867
19557.6655646
18328.4155847
18328.9368161
19555.2605978
19547.6698502
19552.5893772
19547.4756211
19549.9857398
17719.6704242
19549.7137655
19538.6513263
617.405598365
743.255376933
7.02507335567
7.71112284448
678.98117468
6.24526352374
19557.3935116
19559.5019012
18420.5848383
18450.0398273
19558.2484803
18441.0046643
19558.5290232
19560.790972
19560.9033768
18410.2779116
18410.5924217
19561.5554394
18427.3049244
19559.9483392
19560.2269821
19560.9127698
18295.9008931
18370.2238388
19561.3879873
18313.4865218
19559.9292607
19554.4035355
18125.0436236
18123.9273787
19557.6876844
18216.8950848
18226.5549743
19557.8566599
19555.4276383
18136.187399
18180.9824193
19558.0400137
18297.7006429
19559.1953376
18248.7603187
566.224982399
2.50972968799
562.904531621
573.244636689
2.16429146636
2.24717301034
801.658059394
8.33934885373
8.40382096742
838.026440902
9.66908527026
829.671760965
9.42140126897
19551.3735962
19550.5451092
18323.5500975
18347.5357297
19550.674715
19551.2048835
18340.3106842
19552.0504577
19552.8314183
18324.0988905
18339.6195636
19551.2964453
19553.4668989
18337.8103174
18391.9046587
18383.7213423
19556.1201427
19553.2978207
18355.9776623
19554.3741879
18351.1257765
19550.1720177
18022.2204703
18011.5664207
19545.0843904
17912.7114702
19545.1936325
17901.3602551
19540.0610825
19534.940469
17812.0864539
17710.4454687
19540.036559
19534.6610309
17805.90193
19544.4892508
19550.1979749
18012.0636426
18047.0391191
17903.1237962
19544.0044798
17899.2075594
17772.8825552
17651.8101355
19532.4796068
19538.5303573
17686.2052776
19533.3248699
17791.3109438
19546.0763651
19544.2016138
846.074542501
-0.244488470059
19558.3094225
18383.5954186
19543.7719923
19542.0605193
17643.3264161
17554.8393524
17440.2219465
19542.150296
19543.7088183
17445.728867
17494.8581105
595.263868508
858.537704976
882.473835081
8.10335880028
8.36140764688
7.50554614517
929.723318232
965.507523138
19557.7620884
19557.2277869
18354.3667776
18389.0232252
19555.9557185
18355.2707443
19558.6743451
19526.95352
19530.8339082
17573.9788482
17626.180895
19527.9546198
19530.1306615
17550.1300042
19526.2134986
19527.5374633
17592.4913651
17470.1830422
19529.0404441
17517.069704
19524.6853081
19524.4505068
19524.2743399
17471.9216889
17441.0073925
19525.146062
17491.3226927
19523.0233784
19527.7461666
19525.382703
17473.8925771
17456.6707295
19526.2547414
17485.8033206
19527.0521948
19529.3560166
19530.9821668
17507.1787468
17473.2339683
19531.0646294
17502.2348412
19528.942994
19577.6964672
19569.7158839
19562.9496397
19561.8319466
553.480708981
612.542518022
615.204921336
661.696008003
632.6267412
-0.046945758488
0.486695171172
-0.0432544903905
0.308783202446
-0.0285730322351
0.253967152565
19582.3782762
19581.3287533
18886.3750112
18880.5932325
19581.2579132
18870.3799397
19579.1772887
19576.2487711
18881.1812346
18713.5403099
19575.8985937
19573.3379573
19570.1182176
18836.0909473
18565.3980143
18596.9108058
18285.6515969
19566.5202247
19562.5538722
18515.2245001
18378.6302853
18285.6755352
18277.0692329
19566.1524305
19564.2520638
18504.6237136
18240.9444164
18220.5472084
19560.1655854
19561.7036438
19559.4444104
18252.2779526
18261.9914175
18221.8014367
18224.8137656
18252.1504312
18247.0414104
525.568078127
522.204134007
536.262154452
0.210130990315
0.777971282967
0.584703997001
1.80694398339
4.17831475278
9.17762874242
5.98014370879
9.26416504606
523.845302416
549.761714646
590.082649448
586.911814095
618.586308478
1.88985137893
3.1045324107
3.43474590815
4.08211679548
617.738981692
633.874234829
632.594520427
6.08314218003
7.86669454013
6.44312367452
7.98905341049
637.193807509
641.219327374
4.44472840494
4.64732021952
4.61509701187
654.813712612
668.204258525
662.078921404
6.39334515344
7.81667792903
5.60122503552
7.06217141849
19582.6991986
19583.179172
18885.8317435
18884.3375534
19582.8046967
18885.317396
19583.0635523
19582.2757631
19581.6229265
18882.1164895
18883.1800356
19582.2539731
19581.9542854
18884.4736654
19580.8265489
19580.771963
18880.4773942
18833.5451631
19581.7330736
19579.6315873
18867.2856539
19580.1609917
19580.4501614
18885.9820463
18850.3813413
19581.1636182
19578.8234377
18881.7324208
19578.8268119
19573.7727534
18787.7653739
18796.189913
19576.7135139
19576.8556236
18852.8107708
19573.7302471
19579.0406622
18764.9129441
18775.4579692
19577.0420052
19576.6595592
18670.785351
19570.8038226
19572.5299361
18662.1664475
18480.4124658
19574.6962415
19568.3016389
18559.9379742
19570.1817544
19570.42551
18684.4993623
18476.8552261
19573.342254
19566.6084681
18569.5351097
19567.1509036
19562.253345
18394.5108709
18378.1302729
19565.3004786
19563.8024431
18463.5011276
19564.5399006
19570.8125673
18489.0780437
18425.3889409
19568.8308607
19566.6268044
18384.4696292
19562.4952797
19561.8292073
18453.7498686
18337.0636253
19565.9839708
18355.4803941
19559.4430774
19561.3367178
19561.2731727
18353.1754146
18289.8507494
19563.5464878
19559.329337
18322.443072
19559.4202617
19556.3683258
18316.9703793
18282.1298233
19557.8922753
18316.5717401
19557.6107995
19561.3196989
19567.1964223
18393.0735086
18417.1598391
19563.7845962
19564.2209983
18315.4670382
19559.4415017
19560.4757859
18306.0672379
18211.0411645
19561.6529745
19558.5642211
18260.3214279
19558.410917
19557.6793342
18206.1120918
18256.8401693
19557.5171406
19558.508246
18244.0565478
19556.4658641
19559.2506074
18253.9337993
18196.5100884
19557.7563703
19557.310057
18203.8745495
19555.6907811
19555.5054696
18252.2046245
18233.7768054
19556.6962889
18222.4176647
19554.4763668
19555.6864668
19556.6914611
18190.7959703
18225.3745924
19556.2438883
19556.0795932
18196.9711894
19555.0266496
19554.2814703
18220.4798748
18224.1223213
19555.386375
18213.1849569
19554.0181135
19557.2189556
19558.0462236
18260.5424479
18318.2390669
19557.175746
19558.2413697
18299.7388367
19554.712443
18258.0530281
19555.9436634
19553.323848
19551.7469913
19550.3714844
19547.5930568
19547.0137307
19548.8496691
19553.7801735
19552.3593043
19550.4357091
19547.0104454
19546.830035
19548.8331445
19543.6010247
19546.7588268
19542.1094437
19546.3461661
19548.5698744
19549.641819
19551.6040906
19548.4199078
19545.4652759
19548.0838173
19549.0326169
19549.2924251
19549.5247324
19549.4534173
19549.3163005
19548.8590071
19550.4752554
19549.1115679
19549.4047071
19549.3496256
19548.5878026
19548.2846625
19548.1653176
19548.7313888
19553.4867767
19551.3997512
19550.7519545
19550.1002858
19549.0517963
19548.3030842
19548.1090567
19549.2952528
19548.9552081
19547.8631128
19547.42619
19549.0834834
19541.8339008
19544.8619723
19544.4527918
19544.9616914
19546.7247341
19547.9733909
19550.7248679
19543.6784188
19545.5623539
19547.5489609
19550.6195436
19549.6186661
19548.1574251
19548.1547371
19549.0463629
19546.2449166
19549.7219992
19549.919294
19550.3799498
19549.4071463
19547.6653618
19547.4336811
19547.4683527
19547.4099446
19553.3764013
19551.9956486
19551.5406027
19550.2804678
19548.6196761
19547.6378549
19547.7940565
19548.9968965
19548.4361954
19547.2712856
19547.1814036
19549.0946406
19539.9445443
19544.5664814
19546.5854932
19545.7270619
19544.6113877
19545.2871663
19549.6756644
19542.2542037
19544.0431668
19548.544416
19548.7428563
19547.5735439
19544.7620126
19545.1639677
19547.77074
19544.8169852
19549.451441
19550.6479579
19551.4795707
19549.0544506
19545.0441257
19544.9394738
19546.1541625
19546.7919659
19555.4299513
19553.5167275
19553.0566045
19552.5622548
19549.6475571
19545.616813
19545.2562461
19546.4972314
19548.3982948
19554.9493731
19553.4386664
19550.0363527
19546.2501475
19545.3319422
19545.9035662
19548.4871802
19544.8507482
19545.1992881
19548.0426958
19541.4907757
19548.9286027
19553.2390299
19550.5575382
19541.9834939
19540.7355188
19549.46936
19556.3578593
19540.6296455
19542.6626035
19549.2338998
19553.8698769
19552.0219031
19542.3216425
19540.2668573
19548.093019
19552.7656423
19556.5401612
19549.672809
19547.5911096
19551.3089617
19555.3770987
19551.592447
19541.6170534
19540.4395568
19547.1484463
19551.9134592
19553.8190213
19552.4638344
19554.5286662
19556.7690118
19551.8439034
19542.4718887
19541.6477953
19546.9702274
19551.3178873
19557.1613002
19557.687186
19552.0036892
19544.0504319
19543.105567
19546.5629049
19549.5984122
19542.661593
19545.3884471
19547.5864567
583.183476363
538.456440377
585.605733084
704.768869983
882.739191594
1053.01328457
1161.4117443
1191.27723647
615.664664782
603.583834556
611.61977008
611.077233063
627.013692233
759.698489536
889.099151587
1055.04901197
1164.68468601
1207.71617461
628.622669198
613.704691177
639.026126285
663.070313552
692.061832942
811.466394675
902.215647144
1041.709915
1149.82051696
1189.44204867
608.2485051
621.086306913
621.497779237
673.48322586
806.591996301
880.074912316
990.124245271
1093.29701317
1131.20765206
599.547776978
668.383092909
802.127437678
842.648158234
922.144194906
1006.54845327
1058.77439786
911.400733733
994.386443401
1014.34345308
0.1534752101
-0.109695240698
-0.0304165623015
-0.044835005691
-0.0761513198531
0.198404015672
0.694808066678
-0.164742839769
-0.407250779158
1.2749906618
0.0779903076848
-0.0716505660508
-0.110292011101
-0.0817941643349
-0.0306081183604
0.285690095758
0.927698316577
-0.212418927787
-0.434755949763
1.59151571225
0.314330623377
-0.0357043938592
-0.122401819707
-0.116921251739
-0.0873581252849
0.074574795783
0.565053324728
-0.193943693042
-0.425858341741
0.843082700438
-0.00332155782353
-0.0543542957392
-0.0169528005219
-0.0803833000924
0.0239098375283
0.544724352673
-0.174569244047
-0.390667767495
0.659909741897
-0.00639337229795
0.0528789214755
0.301346949878
0.560124420687
-0.19311650742
-0.373763280621
1.19633507663
-0.1675419921
-0.330971491843
1.52213620617
19545.4413541
19543.7187581
19545.8322618
19543.0955328
19545.1121606
19543.7011373
19545.3252509
19547.2430816
19547.4978185
19548.0116493
19546.6119922
19542.9197948
19546.4995263
19545.6002221
19546.6899711
19547.7918342
19547.6856333
19545.300757
19546.7437336
19547.3880328
19547.8715562
19548.2838513
19548.5651336
19549.054794
19547.9222206
19547.890792
19548.8714577
19549.8591371
19543.6596036
19543.3020115
19544.5307011
19540.551182
19542.7838193
19542.1674684
19544.0091401
19545.189151
19545.1746477
19546.6267863
19544.2208269
19544.2790848
19545.1647948
19545.4844901
19546.7339897
19546.9643853
19547.6723146
19544.8314275
19546.6156668
19546.458633
19547.2562397
19547.6845963
19548.7725397
19552.0690938
19547.7572796
19544.558521
19548.0365489
19550.941299
19542.7360142
19541.4951696
19544.0362623
19540.3982888
19543.5104443
19542.1619999
19544.9328171
19545.0808395
19545.8981436
19547.0104808
19546.1994529
19547.3026847
19547.200595
19549.7419619
19546.5773919
19545.8479845
19547.1699215
19543.5334067
19546.4513718
19545.0204001
19547.1622369
19545.9030144
19548.4326528
19550.7377729
19548.8624417
19549.4019018
19549.1329867
19551.7372411
19537.9079558
19539.0785762
17979.3468982
17991.6818971
19545.3009905
19542.3029388
19545.6224599
18051.178087
18261.5328723
18043.8204134
18210.1281885
19551.5234112
19549.1561889
19551.9368995
18294.9692195
18326.0023649
18253.4812047
18324.3349111
19552.8214928
19553.5308126
19553.7978374
18337.8744305
18388.8238116
18346.1141267
18392.7340449
19546.452814
19551.6953497
19546.9246924
18374.365968
17827.6583747
18342.0469547
17769.258215
19540.1878151
19542.08678
19539.9662153
17529.6476347
17096.9093487
17503.5081945
17100.8493575
19545.1264033
19540.0901742
19544.4227111
17105.9607763
17279.7793265
17107.840895
17255.351277
19553.2894541
19548.788354
19552.3846111
17315.1485691
17424.1319647
17288.0288159
17377.5499818
19547.9572133
19554.7353274
19548.4460591
17477.1207219
17111.2287125
17424.7574332
17004.6244646
19556.3696368
19549.8922866
18266.4496149
18023.5232093
18249.7358127
18159.8676435
19540.292855
19545.8213479
19544.2592893
17962.3617626
18013.1983165
18107.9880655
18088.8370287
19546.0451986
19544.9744698
19547.3992814
18047.853362
18175.5630098
18088.1365656
18113.2200199
19552.0436023
19550.2989324
19553.2264911
18212.7486554
18301.1924102
18128.0155569
18214.5041627
19554.1394408
19555.1773318
19554.9754073
18326.8198938
18353.3808501
18241.5610482
18220.9828339
19547.1116478
19552.0068568
19546.573483
18286.9181108
17729.7786265
18134.4685493
17633.214222
19540.0088421
19542.0711276
19539.843941
17495.14493
17126.1518482
17445.0275777
17153.0351563
19544.2578321
19540.5502226
19544.0174525
17130.3698547
17257.5221639
17161.5438083
17269.1815239
19551.1510399
19547.6065227
19550.4211554
17286.5536748
17360.233801
17291.697746
17354.6546125
19548.8781909
19551.9789005
19550.1325137
17405.6813602
16994.5058765
17399.4045834
17032.9537765
19552.7898172
19556.8738147
19554.3275588
18254.3790286
18192.4231527
18236.4036734
18208.8913066
19547.8350882
19552.1272513
19550.6729558
18142.0548099
18103.2509661
18177.8819808
18160.3815957
19549.0669568
19550.2822079
19551.15899
18097.0944883
18119.0834523
18152.6056397
18200.6236189
19553.7451919
19552.7820154
19554.8321294
18130.0985256
18205.6998518
18216.4967181
18261.8689491
19554.8927461
19556.1234134
19555.2346167
18227.026629
18223.7067188
18264.3183631
18239.8574961
19546.0942035
19551.7512346
19546.1576723
18139.0781352
17612.9920196
18129.4485008
17567.2547872
19539.6355337
19541.924056
19540.1933202
17424.2280737
17161.9023987
17409.0025464
17246.6888153
19543.8480205
19541.0243909
19544.0464326
17171.2003851
17275.7089175
17250.7091747
17344.0353364
19549.9224073
19547.0866863
19549.6186601
17295.8713141
17364.2725885
17364.6217427
17427.7090753
19551.3158529
19551.6476193
19552.0327493
17411.4633956
17075.8662411
17476.1983535
17184.6842513
18245.065074
18225.3494241
19552.7784332
19554.533544
18196.0882812
18190.8134094
18319.7011183
19553.2244038
19554.3066521
19555.076712
18187.6987496
18236.4566151
18322.5678521
18337.2084144
19556.0995829
19556.1153058
19557.1152589
18254.3549481
18294.0225006
18346.2332973
18346.5702535
19555.4279413
19557.3541314
19555.5097516
18293.7272176
18229.2492447
18333.3475738
18163.4483239
19546.444077
19551.8636591
19546.9408911
18110.1058997
17578.0894294
18041.1947921
17643.9012481
19540.9035807
19543.409528
19541.9831684
17443.267489
17308.2299375
17561.6346435
17471.4187199
19544.3025939
19542.7089107
19544.8124023
17298.5307122
17371.7748644
17468.4913757
17495.6090643
19549.2571128
19547.0035126
19548.9014485
17391.8080907
17446.3077282
17506.4026928
17511.9017589
19552.3039322
19550.5553053
19552.2453236
17490.2744796
17197.5505603
17534.7044845
17207.7772772
19557.8564434
19558.7454822
18337.9038975
18347.6587743
18382.1224996
19555.615144
19558.2434444
19555.9305644
18331.2755729
18163.9262595
18350.8072445
18130.7367096
19547.3709809
19552.2284705
19547.7045147
18042.9378262
17668.4124808
18026.1708664
17719.0756084
19542.653873
19544.4327168
19542.9083327
17596.0131302
17504.4851525
17650.4441492
17530.8142778
19544.8291546
19543.2021625
19544.6418725
17500.9978492
17520.0165892
17526.1446715
17541.3011192
19548.1956491
19546.039964
19547.3614976
17529.2943901
17522.2587698
17541.1161498
17514.0755597
19551.8859261
19548.308933
19551.2942482
17539.4281565
17250.9703883
17524.2419542
17263.2153433
19542.6001831
17521.260842
19544.0881848
17516.1840773
17529.2812436
19546.650075
17528.5843239
17508.6145457
19550.643033
17522.7382657
17292.4332724
7.65687512812
4.33077792824
7.31764346367
3.82288161447
594.142529375
602.668614556
1.57125697027
0.587485068616
1.51268042679
0.939626935055
543.150230792
595.067895379
574.895550692
0.958655937331
0.403906420917
0.903387263658
0.984918478937
557.036714826
556.802038669
568.835163983
0.0944515399815
0.089812156852
0.472781816417
0.301833616305
628.145482009
593.95095018
637.986170155
0.0954024796845
0.963956785779
0.560680220909
1.77193831852
806.499919685
725.86203053
815.334226936
4.62620082012
12.036569074
5.87691656553
12.9967437142
938.521419895
884.652170533
946.126140908
17.2413193404
17.5820404349
18.7645390113
18.5351439634
1117.66004569
1058.85051205
1120.62307577
9.95957396285
6.68824521663
10.0699369429
6.8831138494
1180.72707361
1167.4074201
1190.91387571
4.80773825981
3.62345909407
5.14146893689
4.2172252581
1171.80710344
1202.54227844
1190.35300589
7.38940471394
35.5115712728
9.5795631591
39.2121946534
611.709799312
620.888927207
607.577931419
6.41320561717
3.76565178447
6.62715056152
4.36601879597
608.920892819
604.89488915
615.622684431
2.39642673294
1.37156253868
3.23326587662
2.18231307066
606.812402687
624.740928108
634.77834724
0.545953515567
0.686333635369
1.19190935355
0.831494682858
613.732495185
652.682304377
656.357187909
1.44599365684
2.00813077137
1.2561020324
2.41067019842
678.508732396
673.84495676
729.95795034
2.63323617686
4.42008429607
4.10906543275
6.57967921161
831.790308933
799.630187947
850.222530809
8.42681762525
13.4665048047
9.63141006023
13.1002987868
950.85907272
896.859380404
952.550767463
19.7575160284
19.1645562156
19.2302987845
18.7131291886
1115.17906211
1049.56273146
1108.3708856
9.77669986358
6.67032564958
9.22143988792
6.46110365879
1195.673094
1160.18719422
1190.13705945
5.23834399046
4.82218712258
5.21528644512
4.85651805553
1194.68009869
1202.35675627
1187.9456449
11.8017551323
43.0521900435
12.0888002431
43.8118571534
605.326635466
637.729853716
615.702336282
7.65713782088
6.37087011747
7.60645943715
7.40035028226
628.016767161
622.132441726
632.170524352
4.42449768576
2.89784772237
5.6834906124
3.74427217703
652.945698791
642.295830427
644.253962212
1.69516859571
1.06625566573
2.38864619788
1.52252520831
671.634736905
645.856876073
656.421471885
0.954110553098
1.56194195569
0.96100250921
1.19827126092
742.159121709
685.663088987
737.819608067
3.13592962397
6.14507420218
2.12666605957
5.69686301193
860.329998038
810.562976743
864.812687687
8.89928161179
11.63270644
9.30057447212
11.6449650668
950.430724845
897.58907403
940.428336032
17.7148586878
17.2045299758
17.0416645673
16.059075065
1097.76496575
1022.82125701
1075.39978221
8.09045767348
5.42153513866
6.88232666285
4.75619104498
1173.26729911
1128.8900921
1147.79507405
4.40976552983
3.61130498536
3.75153054024
2.86257367584
1181.95471745
1160.88762589
1152.89134183
8.55812742214
33.3123913282
6.43766204267
29.3954982931
616.296972154
580.579171824
5.74926748148
3.66496804841
2.9995997605
621.445086551
582.72207891
589.682786506
2.36522168747
1.65813392286
2.41311838176
1.97661474805
636.430237044
602.268241061
625.442668843
1.45355135233
1.73286926272
2.34553463681
2.72785578804
735.939379272
666.693967475
742.67150535
2.50661956209
5.93271744586
3.61413007899
6.5920973026
858.064599929
804.842177018
846.173156351
9.08841729308
10.8216828464
8.67635469943
10.1657292456
917.625782909
858.634316313
888.244279035
16.4444629679
14.882629195
16.0071553866
13.6573245975
1041.62101799
951.38521588
999.3016694
5.59976251012
3.84587229086
5.05255403546
3.70902511147
1115.38661202
1046.18450008
1075.52815246
3.07756277929
2.23796029497
3.03851884604
2.3218563658
1132.6777013
1093.75537459
1103.47049766
4.81647807158
25.7176658591
4.9099524606
26.9780305513
628.824513373
628.730953372
2.77986918457
3.34481409951
3.09522628989
4.12650463011
742.957734936
680.706433022
743.415072162
3.73661426011
7.26881266799
5.85095429927
7.73106025462
836.188148588
798.027979864
828.188247217
10.1390961893
12.9908187218
10.2988772091
13.3321637398
864.130211692
837.584585107
857.157937622
16.8864840343
13.4944902758
15.3080867676
12.7053411852
964.159771793
909.761095088
949.212063874
5.02561031617
3.33648311961
5.53623078672
3.84012579348
1036.45034047
990.442975578
1013.70415674
2.82989809575
2.68079052786
3.50871500324
3.81169742559
1063.23733107
1030.71331448
1034.07244975
5.82561012591
33.4749584252
8.87069552812
38.7215783763
864.560499693
7.26053697471
954.166288455
5.60985194464
4.17024103394
5.73198410594
4.14696456764
1008.87550951
3.777571072
4.25479532262
3.85651618558
4.40262098203
998.956222727
10.3760935108
44.3428117263
9.971245862
40.7565232361
19532.93459
19534.6207403
17937.0058738
17994.3678482
19535.0779225
17933.8806003
19532.7282081
19532.8196133
19536.2789084
17993.361632
17963.6917921
19535.2026681
19534.2081055
17928.8067452
19539.8592814
19537.0342292
18119.8368296
18049.3214602
19537.3896119
18112.1651733
19539.2534795
19542.010348
19545.1917491
18193.8143592
18251.6437735
19544.566644
18187.110209
19542.176968
19540.3479854
19538.7395475
18051.4572729
18103.5342155
19538.0781759
19540.8707459
18106.7353164
19542.9537714
19544.4606574
18227.4903414
18158.5411427
19544.8952648
19542.5830056
18170.419695
19549.3935248
19547.80362
18308.4776045
18289.8212712
19547.4615335
18309.9554799
19550.2963725
19551.5121022
19553.0868167
18316.7106163
18329.3548628
19553.2649632
18319.746116
19551.8089459
19549.3148264
19545.8937202
18280.6293371
18284.1811974
19546.9843034
19547.3986821
18314.0056213
19551.3910058
19551.4938492
18343.8921666
18303.8710046
19553.3735665
19549.181461
18331.6906337
19556.5653927
19554.4700691
18352.7542391
18341.5905873
19554.9223674
18357.904128
19555.8047807
19558.2360178
19558.737245
18370.1787071
18396.3091287
19560.4050423
18376.3123988
19557.1000822
19557.3992432
19554.585232
18355.3089782
18368.8934075
19555.3208987
19557.5982652
18368.8592608
19558.8482319
19560.2723119
18398.0649008
18386.293606
19560.3005726
19559.2728398
18384.2097479
19556.7659334
19559.5303788
18312.2685305
18378.8753506
19560.280439
18312.8374401
19556.634347
19549.9032863
19538.7644209
18115.2932848
17824.2033468
19538.8437371
18112.9237151
19549.8304342
19556.0979562
19559.3931928
18360.9823581
18238.065598
19559.7217116
19555.1081611
18274.7029823
19548.9232388
19536.7749979
17804.1326191
18028.5663382
19538.4130043
19547.4077573
18077.7842618
19516.7110209
19526.6918564
17277.7837542
17523.3296416
19526.3532393
17268.1734856
19516.6167515
19511.3022814
19512.6430035
17177.8021969
17080.8014839
19511.0386624
17166.5568755
19511.9700275
19517.0017163
19525.8095448
17519.1841607
17268.431073
19527.0353029
19515.9673787
17270.4092658
19511.9663888
19512.5241519
17091.9190057
17173.6195705
19511.8876692
19511.8612487
17170.4436998
19513.3735482
19512.632157
17168.3373672
17088.9578393
19511.0099132
17148.4179834
19516.6807152
19517.4128489
19526.6280965
17236.0381197
17251.7371581
19521.7902197
17209.1568833
19521.5832449
19515.2552351
19512.8709
17098.6906532
17157.7547933
19511.7532739
19516.1361414
17152.0284452
19519.9625818
19525.2335025
17254.519534
17215.649136
19525.1708162
19520.8151326
17211.4850936
19528.9495661
19530.4840567
17370.5908342
17294.5742815
19525.2735766
17351.906436
19534.0657131
19531.7508197
19537.692932
17407.8401962
17401.1907284
19533.2155619
17381.1432866
19537.2768264
19531.8269908
19528.7960225
17292.5846198
17337.9081187
19528.6259446
19532.0021346
17344.9404586
19534.4047928
19535.9646449
17386.0355224
17365.4967146
19535.6397342
19535.195526
17368.7404256
19528.5844859
19536.1885039
17429.3216957
17465.1767607
19533.5613642
17421.0578161
19530.9681856
19516.1983044
19521.4413052
17051.3935887
17076.6621247
17048.078959
19520.4726697
19517.896576
19529.559231
19534.965481
17445.222176
17365.2358707
19535.2664595
19528.882979
17390.2954053
19516.630244
19520.4219609
17055.6576376
16977.7653997
19514.8933314
17004.036102
19521.498388
19549.6622263
19555.9669851
18183.9292896
18294.1835198
19549.7044492
18206.5808423
19554.9806848
19544.1453427
19539.1797337
18124.3044456
18049.5070137
19543.8478952
19540.8807778
18094.1310898
19550.0099587
19554.2456602
18297.8536781
18229.8342655
19551.3378435
18230.3373415
19554.4875424
19545.6091197
19545.7707502
18095.031809
18208.8654179
19542.7640183
19548.2834339
18138.8344102
19537.0557614
19536.0774472
17972.2229395
18048.009956
19534.5879813
19538.5823175
18020.004693
19537.0241313
19536.4509425
17990.7218438
18041.567672
19534.8247546
19537.9496261
18020.4454387
19539.4602935
19543.8933639
18097.1028347
18106.8946811
19540.8636876
19542.806096
18070.5643554
19538.8698805
19541.9483905
18070.5880805
18104.5940777
19539.3490928
19542.1903239
18061.7196938
19541.0920472
19538.7869179
18093.5316209
18068.4894741
19540.8899111
19539.5148091
18089.4509379
19542.5350334
19543.9337468
18137.5476672
18145.3361163
19542.5867004
19543.8696599
18116.6330538
19541.1389482
19542.144265
18082.8859552
18094.7231317
19540.1606709
19542.7879426
18092.6584652
19542.3953974
19544.7099884
18128.5756256
18104.3757711
19543.7690732
19543.7245305
18108.109438
19544.9840646
19544.8545704
18241.2766761
18171.3816794
19544.8255822
19544.7063585
18197.7825643
19545.3535327
19547.5085829
18269.4788101
18276.556715
19545.439032
19547.0209164
18232.9700887
19545.8064973
19545.7860184
18147.9914911
18154.3149585
19544.8252263
19546.9351475
18169.3152795
19546.7480348
19549.9894191
18237.9716512
18185.8396291
19548.4410557
19548.3794652
18200.4189854
19552.4448223
19550.2487865
18359.8027888
18309.4718422
19553.9963297
19549.3345378
18332.0428973
19554.6905334
19558.8142888
18359.7867571
18298.2334877
19557.33254
19555.9082825
18323.9637909
19552.1157811
19551.207696
18269.9258092
18265.0913695
19550.328875
19552.3213976
18287.2440904
19553.438297
19552.3482656
18241.725074
18249.9990818
19553.7124857
19552.4998306
18275.1066801
19549.1764565
19557.4062174
18167.1188611
18214.1422524
19552.4455192
19553.8905445
18086.5226145
19541.7675839
19534.667883
17970.6312627
17687.7709648
19544.6423804
19532.2681918
17895.8484132
19546.3316057
19550.0496314
18158.4503569
18000.6053633
19551.4330597
19544.6667206
18026.2817121
19538.8828568
19528.4646183
17657.539049
17825.3803405
19530.001342
19537.1041994
17852.9595364
19515.7495846
19524.7722496
17282.2129148
17479.8230778
19516.118717
19523.1709049
17285.1787564
19512.018442
19512.7308568
17192.5647456
17134.3091768
19512.1493147
19513.0895119
17199.3577562
19515.5749121
19520.8251872
17466.9952262
17271.1911225
19522.1173366
19514.7971756
17284.5365033
19512.7030167
19515.0122087
17148.8391309
17196.5903356
19514.0081675
19512.7804849
17204.0846872
19518.507358
19513.3445511
17172.8367187
17139.7002349
19516.6286723
19515.1477173
17182.9046732
19522.6486414
19525.6885585
17223.2521401
17263.0721109
19521.1523556
19527.4650315
17230.0545166
19518.5053918
19516.6032325
17154.2226351
17202.7031997
19515.0748999
19519.9532646
17193.1680786
19522.7918017
19527.8429034
17265.1099415
17243.8915838
19527.3653911
19524.2126066
17236.6216469
19533.5733878
19529.1986522
17333.9871371
17291.2586059
19532.1315478
19530.8554721
17334.3374701
19535.1579646
19534.643438
17352.6634898
17351.9864007
19534.5902946
19535.4443798
17344.6565902
19532.7418574
19530.6061409
17289.08877
17334.8976073
19530.3065822
19532.9698172
17329.6922449
19534.1405571
19534.6762537
17347.8719441
17348.1297241
19534.2516494
19534.5908436
17340.6659911
19527.3377928
19533.2751095
17345.7605012
17398.0710568
19526.678359
19534.0818139
17336.9237245
19512.5728018
19518.805225
16976.9390512
16973.3281059
19512.220396
16965.3963981
19519.7293172
19526.1489823
19533.1757058
17394.4327607
17340.8253049
19532.7758334
19526.637683
17335.5867792
19511.4597131
19520.8152978
16997.2767454
16987.5394263
19511.918743
16982.8096964
19519.5214501
19551.6687611
19553.6715933
18242.0510367
18237.5797399
19551.4999509
18234.7127329
19553.031334
19550.0692
19547.5694397
18231.9062794
18205.4487095
19549.5729814
19548.7421644
18221.5361888
19551.773039
19553.097546
18222.1411506
18240.8270485
19551.9423506
18226.0951437
19552.9139764
19550.5301603
19550.0604681
18217.4170557
18235.9332143
19549.3501896
19551.0678358
18223.9728329
19546.2193299
19545.9889958
18136.0136081
18185.7557595
19544.8498767
19547.4696156
18145.0221311
19545.2106855
19543.2330472
18128.4571278
18118.4504672
19543.6793876
19544.7564061
18118.3200863
19547.0562283
19549.0258133
18201.18856
18175.2726999
19548.2627502
19548.2674683
18159.4409411
19546.2227116
19547.2009171
18133.3176374
18173.4423011
19545.8748266
19547.6171849
18132.5949549
19544.4708942
19543.3018714
18101.6470418
18116.872358
19543.5859355
19544.4902409
18112.2325144
19545.0192889
19544.9852741
18110.4706443
18128.8208956
19543.9062575
19545.9557825
18114.3603278
19545.7485143
19546.994836
18135.6258893
18158.4192193
19545.6026691
19547.1620015
18136.4743315
19546.4415911
19549.0084508
18158.3943233
18177.7959532
19547.38823
19547.8372496
18140.6928523
19548.6306603
19546.3098839
18152.2346959
18151.6692228
19547.8767033
19547.2313466
18171.509017
19550.0973376
19550.9890088
18180.444927
18204.0979324
19549.4456808
19551.5603825
18186.9972931
19550.8203995
19550.7733098
18184.0474521
18233.690824
19548.9524654
19552.4143524
18205.1834636
19552.272414
19555.1789406
18229.9742924
18252.4548304
19553.8022706
19553.947287
18217.698583