/*--------------------------------*- C++ -*----------------------------------*\
| =========                 |                                                 |
| \\      /  F ield         | OpenFOAM: The Open Source CFD Toolbox           |
|  \\    /   O peration     | Version:  v1906                                 |
|   \\  /    A nd           | Web:      www.OpenFOAM.com                      |
|    \\/     M anipulation  |                                                 |
\*---------------------------------------------------------------------------*/
FoamFile
{
    version     2.0;
    format      ascii;
    class       volScalarField;
    location    "10.05";
    object      p_rgh;
}
// * * * * * * * * * * * * * * * * * * * * * * * * * * * * * * * * * * * * * //

dimensions      [1 -1 -2 0 0 0 0];


internalField   nonuniform List<scalar> 
28582
(
19548.4659467
19547.5470833
19548.8917929
19547.8400012
19550.1058692
19548.5588457
19552.2805661
19550.0680319
1142.11710635
1234.71989919
-0.0951239722061
19551.4319565
17424.0799836
17332.9434017
19548.6078595
19549.2440163
17262.8533962
19526.7877246
19525.9073323
19547.7163014
19546.9000194
19546.8491311
19547.8463711
19547.0816757
19546.8699945
19548.60022
19547.0307498
19548.9481909
19547.6784357
1272.57350489
-0.164857042529
-0.106632622931
19549.0516577
19550.7505543
17399.4591859
17347.5741247
19531.0394427
19547.1655268
19547.7528329
19547.2507332
19526.4908513
17047.3189721
19525.1892461
19521.9683188
1168.10991228
1250.40041241
10.4034676207
11.3440653702
1202.21431392
10.8900197886
19536.4928798
19539.0655051
17414.0305124
17445.6276273
19539.3870098
17430.1978939
19536.1293994
19538.0684648
19532.9063857
17381.8720403
17350.3955028
19536.0603207
17397.0058645
19535.0167029
19530.1361716
19530.0601385
17193.0083508
17286.2764084
19533.3145602
17216.670098
19527.1367591
19525.8156172
17117.5512172
17115.2605425
19527.8144887
17147.7745068
17163.1064629
19525.9744
19525.0239662
17090.4867287
17097.4336324
19528.3017352
17169.4278224
19528.5837564
17152.7627089
1135.3270363
1.4515854322
1133.48840495
1145.79478811
1.00569112092
1.25038892319
1275.34507826
10.0480834252
8.9802619431
1295.18636345
10.0857499257
1299.08088222
8.43845973713
19528.1913577
19529.7305334
17386.6056674
17422.8260026
19527.7392729
19530.4542771
17411.0384536
19525.9591808
19523.3124752
17368.1534939
17374.6134995
19525.5690392
19523.6953672
17392.9802203
17432.8253554
17422.311317
19530.9688373
19528.9035829
17395.2483673
19527.4912725
17408.921808
19526.3250935
17086.7497474
17072.8461472
19527.0954483
17070.7436891
19527.306541
17054.3601715
19527.9841958
19527.7928793
17056.6409319
17028.9652082
19527.9059599
19528.4166045
17042.4482945
19522.0506324
19522.6827011
17057.3998028
17050.6934415
17016.3457016
19525.381598
17043.3227005
16995.766194
16975.4745554
19522.6967804
19526.4847285
17028.9118875
19527.6272681
17037.4176394
19546.3482267
19546.8148886
1325.04665715
-0.0909405282104
19550.7011612
17411.5936939
19547.1378057
19547.3635857
17021.3667788
16967.7858283
16923.6771368
19547.3972245
19547.2428977
16912.1453009
16868.9772495
1150.14656377
1324.37040754
1360.10523003
7.87251115751
8.88889481997
8.85160261535
1390.90381462
1410.35290395
19526.2641855
19530.8675139
17384.31364
17400.2513985
19526.572698
17370.9511984
19530.6465466
19527.7162434
19527.2120845
16978.1372532
17004.2004049
19526.2517175
19528.2814765
16973.551304
19527.6020182
19523.3996804
17016.2321525
16956.0686515
19527.8219953
16998.3044677
19523.9012033
19526.8077895
19523.514614
16943.8903321
16934.5379627
19525.7152028
16970.5263316
19523.818068
19522.9684062
19523.1522823
16919.9444389
16900.2774839
19524.3140091
16894.1135565
19522.5173143
19521.9402625
19520.7433044
16852.1202537
16883.6768396
19521.0620437
16874.6922351
19521.7035725
19578.3996101
19568.1441982
19550.4272743
19545.8346248
789.156526987
948.371419267
846.036689098
957.082330392
946.285011197
-0.0506662209576
0.470112714013
0.0372752393051
0.0854178261517
0.149878288734
0.091510155798
19582.017826
19581.6304217
18658.9136051
18687.5006487
19581.6417019
18681.1338061
19580.1848651
19577.4781763
18688.114693
18595.771794
19572.2610892
19573.3821426
19565.515448
18662.3223552
18352.6036243
18491.2444118
17929.8414986
19554.5926475
19543.8487157
18097.3624143
17096.8685377
17681.3528928
17021.7243327
19559.703224
19555.4354871
18358.6764095
17844.9521771
17654.1912348
19542.1416174
19547.7590933
19541.5650292
17631.4234318
17044.4234552
17500.833744
17104.8019259
17481.4272436
17145.6192323
693.038633572
685.943828202
763.608435238
2.12916037137
4.5941300282
2.42717785439
5.18226826994
9.1365063155
26.2166107241
9.00554530418
20.4023844725
695.017359814
733.078849207
885.259120053
821.898656089
890.865034493
3.51177013737
6.57276984014
5.31045640831
8.23499953105
992.191797064
952.303813371
994.234982342
9.5050540124
17.0706892101
10.9687508699
17.167126347
901.770373467
914.215474308
7.69745817701
10.0009581915
11.0664799798
992.375350517
955.573025495
980.17830116
11.4563541185
14.5452666148
11.6514690323
13.4812361278
19581.0393867
19581.437003
18659.9153686
18673.1834589
19581.9176146
18674.3090071
19580.6371834
19581.4666948
19582.3574666
18681.5273811
18694.3465821
19581.9466476
19581.7331819
18685.0065553
19583.379035
19583.0348637
18678.3981508
18661.9626873
19582.9324857
19583.4608582
18666.30457
19581.7006369
19581.7062033
18700.24636
18682.7881641
19581.69585
19581.6211934
18704.2877326
19580.9878061
19577.8227202
18651.1962467
18651.5393221
19580.2400664
19580.2145032
18686.0592926
19577.7929013
19582.363449
18624.8413849
18642.9151866
19581.4560702
19580.7435415
18578.6417632
19572.4758177
19570.6024275
18511.2252976
18228.5280549
19577.2268962
19563.5595404
18436.9978535
19573.9502063
19574.1287172
18577.2643978
18350.0897133
19578.1607213
19568.3020668
18470.319121
19567.3655254
19550.818076
18081.0458695
18163.8900736
19557.4064543
19560.8268338
18300.9628888
19537.6800392
19559.7809355
17779.3295662
17953.7655726
19544.5172655
19551.905671
17627.9603332
19522.48811
19511.2541208
17429.9761243
17025.5177042
19527.7385056
17311.5664861
19507.0005106
19531.518838
19540.1330452
17825.8640179
17450.0907224
19545.3903271
19527.8051293
17550.7423673
19517.7106921
19506.2309114
17020.7429241
17233.5355401
19516.2684885
17276.5298733
19504.905776
19556.2921332
19568.9144172
18202.5321917
18237.5737989
19562.4069901
19562.7485493
18075.4484363
19549.2190565
19545.7571236
18035.9886314
17744.0468959
19554.9385916
19540.8704908
17908.6420469
19545.3459826
19535.5448226
17697.9192257
17800.6204755
19537.9018637
19542.8273874
17854.4968132
19523.1501652
19536.2257297
17421.4245109
17566.6940053
19525.6436657
19532.4236324
17390.5646504
19514.7921284
19507.5993686
17228.3579942
17065.8051056
19515.7871444
17223.8490383
19508.3188201
19522.6105961
19528.5524736
17534.6030878
17355.2314129
19530.5589963
19521.025242
17370.6838762
19515.540401
19512.5081338
17097.4469647
17227.7175816
19515.1494429
17226.5099938
19510.9165448
19518.8027385
19526.7516424
17347.1740348
17447.7760066
19520.2635924
19524.3769009
17321.5000377
19513.9712218
17242.4938719
19515.7065362
19546.6201498
19545.6754313
19545.3106197
19547.1396391
19547.6608335
19556.6993687
19546.9308558
19546.0021824
19545.6383815
19546.9099454
19546.9441694
19555.925641
19535.7076599
19539.7760733
19537.2879447
19542.4028125
19546.4337784
19549.2447664
19554.1867795
19536.5198895
19537.0014786
19540.2072592
19542.2600545
19543.4342587
19543.9929727
19543.5695497
19542.1073154
19552.3715261
19542.4306422
19541.8206865
19542.2189139
19543.0061614
19543.6558616
19543.6569135
19543.5008082
19555.0786399
19545.5991927
19544.3789542
19543.9961741
19544.323686
19544.7028728
19544.5435509
19544.2867172
19555.7316925
19545.4775693
19545.6698039
19545.9364507
19556.1686287
19533.0369775
19537.0224598
19540.161694
19543.6679959
19546.6206547
19550.8924379
19587.616656
19473.6356665
19536.1554776
19539.6931684
19544.5588227
19545.3942035
19544.4420313
19542.077122
19536.6869771
19530.6465359
19541.5482446
19542.2625017
19543.155068
19543.5461985
19542.9385027
19541.8884984
19539.9807718
19549.2682382
19545.3991373
19544.6175902
19544.5506906
19544.745587
19544.5555606
19543.54732
19541.6177474
19551.9008179
19545.4662328
19545.0817761
19544.394873
19554.4991971
19529.8295945
19536.1274824
19541.7953253
19544.3578577
19545.0971611
19544.4249265
19552.4751135
19470.2705005
19533.4596053
19540.099682
19540.3553568
19541.9519864
19540.673006
19535.7900129
19523.9674747
19511.2031474
19541.4866998
19542.6904617
19542.8051001
19542.0203836
19540.5691709
19537.9311365
19531.5134552
19543.538844
19545.6747756
19545.8521916
19545.1046979
19544.3809138
19543.8002263
19543.0977336
19540.9916876
19536.1509006
19547.0105016
19547.6159482
19546.3179394
19545.463757
19544.830133
19543.4956415
19540.4784793
19551.2553264
19545.5729698
19543.8100699
19553.7346149
19531.3490974
19540.1503257
19544.5837423
19547.4722067
19547.2143284
19545.3616846
19544.9621762
19520.457082
19524.1033929
19533.5936227
19541.0502392
19544.247664
19545.3394934
19542.7703561
19538.8944629
19534.6228745
19522.6646551
19536.4956878
19535.435319
19539.7921478
19543.2210715
19544.5408206
19542.6905549
19539.5149508
19537.9703325
19536.1680563
19535.4133242
19542.2216752
19545.4438267
19545.907947
19545.1499622
19543.7495299
19542.4872867
19541.5624112
19539.0279397
19539.0797843
19548.7819373
19547.3300318
19546.0035061
19545.3773827
19544.0590208
19542.3444178
19541.971065
19546.1917322
19545.4261637
19545.6891626
1295.09864499
1250.98127708
1193.30661639
1182.94253656
1215.03899884
1328.31593756
1449.73410432
1458.19315452
997.126683112
1167.59160843
1317.15662981
1291.35450344
1240.29881454
1242.33252548
1300.98594711
1420.30756711
1468.6628849
1442.63008976
997.718171763
1159.24792408
1255.96023873
1242.41439848
1252.09150406
1315.38826489
1387.06792117
1469.49422755
1465.27585681
1434.06729048
1110.70315395
1176.29386232
1190.74002935
1232.11907856
1304.8433549
1360.86569542
1431.83766229
1446.10338137
1444.33230424
1162.11253781
1207.04951659
1255.44465778
1337.64941502
1379.86722151
1417.49741361
1448.67293064
1380.78866057
1414.626201
1440.40423791
1.18371063736
-0.156822032052
-0.0784796100638
-0.0918987486014
-0.119042007609
-0.0257851899344
-0.0971414192562
-0.0885882744915
-0.265876656631
1.72973785194
2.1362219167
1.42183931857
0.0877888820014
-0.265866056021
-0.272374992472
0.560366370147
0.61678712368
-0.137603098956
-0.259974760183
0.778932092612
1.18980020352
-0.0701902168317
-0.137652136501
-0.0670188189332
-0.186400275664
-0.0498930318485
2.16604829625
-0.140707835271
-0.313451216604
0.783850973094
-0.0704309566179
-0.189954529292
-0.125570241698
-0.242977946253
-0.0972983853784
0.830061448451
-0.140860309375
-0.303711984437
0.91550914521
-0.134655620954
0.0889965451745
1.02440891796
-0.139028180127
-0.138901774152
-0.285601819206
1.15915139689
-0.12516035975
-0.300613978771
1.71782567423
19537.9013284
19535.7235037
19537.9859982
19534.7756394
19537.2027877
19535.133085
19537.2362762
19540.8491239
19540.0821956
19541.4748072
19539.0556203
19536.1740365
19538.782061
19538.5523661
19538.4661134
19539.2532412
19539.5981265
19536.515264
19538.4209266
19538.5632138
19539.5918068
19541.4955319
19540.6251911
19541.8815474
19540.1075747
19540.6395533
19541.0674083
19542.4192671
19535.5917775
19534.0716651
19536.1771307
19531.0364735
19534.2903541
19532.3747179
19535.3297949
19537.3708838
19537.4464809
19538.8880153
19536.0745588
19536.4511008
19536.6296303
19536.6272704
19538.176744
19537.7968116
19539.3293857
19534.8234169
19537.7945529
19536.9417775
19538.5879431
19540.5984388
19540.8908485
19544.9848704
19539.4155373
19536.5652938
19539.8797373
19543.5819487
19533.8540053
19531.2410246
19535.0944784
19529.0100059
19534.6555121
19530.7218198
19535.6117007
19536.4796694
19537.2961308
19537.5643803
19537.7574038
19539.3361895
19538.6139385
19541.2420508
19537.4724455
19536.3675756
19538.4635719
19533.2049975
19537.4347691
19535.8798896
19538.7444432
19536.98423
19540.1458824
19542.9043641
19540.2854369
19540.9421337
19541.1259207
19543.9786077
19523.5752722
19525.7606171
16748.9446007
16726.2098599
19536.67244
19532.433409
19537.4351592
16837.1158685
17025.9208851
16791.4598326
16990.4527907
19542.8093847
19540.6395452
19542.905632
17078.2567274
17166.4571498
17033.1433945
17114.1858599
19546.277508
19544.4195092
19545.7944983
17194.8437776
17287.6397623
17137.7242294
17220.0926383
19548.0158678
19546.5648269
19546.3820361
17294.4907459
17330.9942619
17225.9969812
17196.539245
19545.7768879
19545.1651913
19543.5161391
17292.1990678
17003.2441473
17122.8230702
16768.8635437
19545.5286189
19542.4507069
19541.8623437
16913.8925436
16755.8640834
16708.257649
16614.019725
19537.0065467
19541.0115786
19532.9576843
16733.2673556
16656.9359265
16621.8457955
16515.0919995
19495.9840254
19516.3142381
19516.5672179
16678.7570954
16008.3674044
16565.2557095
16464.6019187
19535.8921122
19530.9957802
16901.3812698
16652.4938577
16924.7371277
16894.0982878
19528.1157008
19530.3220649
19532.7756912
16644.5926952
16764.9099797
16890.5405349
16951.9567826
19538.0320438
19536.2035398
19539.3384292
16806.6500573
16966.6261146
16968.2859573
17024.5141813
19543.0568566
19541.8742175
19543.7793397
16998.8624248
17094.1342063
17046.9857217
17098.2067402
19545.0696765
19545.1025514
19545.3148603
17118.8367781
17197.4586775
17118.676592
17055.7588838
19544.337392
19544.5137917
19542.6848706
17196.4187395
17112.0638922
16998.6005842
16775.0954331
19540.8041056
19540.4800517
19538.6067279
17021.9288909
16692.2092607
16700.4718727
16544.5485739
19537.1036301
19537.4314046
19536.4327978
16640.3873194
16579.6178996
16534.1507396
16579.2336013
19530.1934167
19534.7729713
19532.2177308
16592.5123471
16491.0039347
16598.9389642
16511.3421394
19539.1898934
19529.3153859
19547.5758009
16553.7117167
16513.3929581
16600.3426512
16564.0550213
19534.4943017
19538.0272365
19537.6241836
16963.237657
16960.8650936
17121.5819544
17155.8988228
19537.7146139
19539.5400396
19541.7093601
16967.1303963
17024.7424698
17194.9263814
17252.9754557
19541.6172227
19543.0203567
19543.9887013
17039.2712876
17066.5909752
17264.1233896
17235.823979
19544.1834113
19544.5976414
19544.6997316
17080.4184731
17121.5364223
17207.4070428
17144.1917167
19543.9476749
19544.4476737
19543.7345968
17111.0904458
16998.2237873
17108.5789924
16937.1656608
19541.0208882
19542.6301706
19541.383834
16939.4989409
16719.0959158
16883.7151312
16729.4607524
19538.5418409
19540.4635984
19540.0403916
16669.9586341
16601.7248313
16706.839563
16743.3804739
19537.3322557
19539.6804775
19538.6996859
16586.575231
16589.4137823
16734.201975
16646.517631
19535.032508
19537.499192
19536.7071445
16591.1634232
16501.9372763
16627.192176
16514.905079
19550.2721946
19537.3445539
19550.2044685
16597.9015801
16574.323443
16606.7751194
16522.8440776
17174.6627933
17212.9189125
19544.3798814
19546.5590915
17244.45572
17295.8665285
17387.0287473
19545.8318318
19547.4387872
19547.5756321
17295.4696729
17247.9115552
17375.6182724
17310.2430995
19545.5922769
19547.3175157
19546.7815961
17221.3420147
17159.8135109
17286.53936
17215.8846055
19544.524893
19546.1923812
19545.505768
17124.5247883
16989.0783292
17178.1179398
17073.7884351
19543.0408065
19544.9086346
19544.4707695
16943.2877596
16820.1943797
17039.7175793
16989.6849717
19542.0948878
19544.290248
19543.9973651
16792.955932
16788.8658906
16981.4137014
16939.6844662
19540.312807
19543.2880936
19541.9975026
16758.9023216
16666.2352374
16889.7327546
16762.7417532
19538.4243844
19540.7412392
19540.197434
16651.5760439
16541.7600248
16748.3303669
16627.2349511
19550.2124994
19540.543727
19550.3607305
16620.3583859
16497.7482019
16677.9200458
16467.8213015
19548.1944217
19549.9044102
17328.2215772
17246.7721301
17324.3030246
19546.4709532
19548.8048543
19547.6571601
17198.9066234
17090.5850449
17253.0998783
17127.8718331
19545.6676135
19547.0972098
19546.7035279
17064.6332018
17032.3285185
17112.6962869
17071.8644863
19544.7337151
19546.3314315
19545.5954495
16989.9667785
16908.0661225
17018.0717633
16911.6924796
19543.2382958
19544.9715423
19544.3289911
16893.23091
16811.7275579
16891.5362787
16835.9046736
19541.9328489
19543.7442778
19543.4958369
16792.7094835
16649.1885121
16820.2213588
16674.3549636
19551.1632756
19543.5948233
19552.6727835
16689.6229772
16454.3545493
16708.7559483
16498.0278877
19546.4839375
16918.8373042
19545.8351783
16897.5341548
16827.2726815
19545.3464333
16818.2660593
16685.7234071
19554.6484915
16725.2334382
16537.8846929
30.5030430208
18.0042888248
34.1369117832
21.8342443335
1240.81560401
1260.35623914
5.57833996231
3.8758157112
6.5664502163
4.60343726924
1279.42551026
1318.90046103
1301.55396963
3.46169257891
2.46025583011
4.54988577909
3.20281314133
1212.59597508
1273.78652647
1233.6276244
1.87344869905
1.08762726845
2.11822274889
1.10946141355
1175.76869791
1215.05166805
1200.86182823
1.19599830193
1.73145584979
1.16937614536
1.37303950324
1187.53335211
1207.1257272
1223.4734169
0.82835496314
2.68329081624
2.61210419952
4.72174966603
1267.3452185
1252.47790073
1307.22367644
9.1454492559
14.3778824474
12.0272981619
16.8010122021
1402.15017071
1366.84683039
1435.00739819
14.077911447
13.6397606158
15.4294624708
14.238083072
1471.92523649
1462.93232103
1479.474831
12.8209120767
13.0048958161
13.1734461973
13.1836970152
1480.1777144
1445.59954056
1538.83802416
20.2027191226
58.5192526507
18.6315216459
30.8182464684
1059.59443222
993.882958438
1058.06641564
40.6899056937
39.0892045113
38.5188697579
34.640603714
1246.56288952
1166.39587828
1246.52584911
25.3440737833
19.4178982749
14.4430244503
8.39842509313
1310.04710628
1299.33166004
1294.72915235
13.6749938361
6.43946892426
6.02609802115
3.78206018799
1259.16575626
1277.81617544
1259.16234076
1.3826325082
0.932523378793
1.81991508102
1.37729732789
1233.07453798
1251.97402731
1263.09308587
0.976973068155
1.59219765944
1.56688620203
3.66472137969
1266.09519025
1285.64485769
1319.07324462
4.75047331485
13.0471322677
9.62992741215
20.7328973083
1356.98853859
1357.81157469
1407.97567139
19.8671935439
23.1619082927
27.9343851904
28.235872164
1465.75054814
1463.50328426
1480.33071799
16.263459438
13.8643726585
16.1331506044
13.1668639633
1478.68023209
1469.21205131
1475.01452436
12.8287574404
12.7757122649
12.5949444909
12.5618575595
1542.50505396
1434.32913164
1507.24119359
15.8593406073
21.1464796681
14.7389959164
19.4531202576
1068.9998296
991.278808606
1063.29502861
29.3558139201
17.241220283
25.9143984203
13.1029758506
1226.49196657
1127.56596673
1189.93517892
2.05482272888
1.34822398811
1.29624139207
0.903796854093
1254.82033306
1207.41561927
1213.37358394
1.63689448982
1.4950655668
1.0989652164
1.25591253645
1240.45537088
1214.6695095
1221.37109912
2.03025964029
1.99474324238
2.067969817
2.26032152072
1277.70261323
1241.77143992
1274.88818177
2.4897995393
5.58979758872
2.84343238615
5.22871625866
1363.00324409
1318.28566195
1367.89677923
10.3554245002
15.9113219707
9.608097859
14.6846923935
1427.53978292
1391.2373375
1417.38260591
35.4161693552
37.3716296316
37.6261472339
34.4814607216
1472.70147878
1458.85143905
1462.16319864
15.9170156825
13.0666717634
14.4257888213
12.0240782254
1477.00633861
1458.73127611
1474.43917634
12.6680102129
13.2791573579
12.1673906408
13.0440619795
1482.63039137
1438.52845251
1466.40133727
16.2401792629
19.5799156292
17.5227898992
21.2419766235
1162.17527269
1137.68967632
1.24730668458
0.872595804156
0.832143148709
1182.83888699
1151.95969196
1162.21025313
1.10348915292
1.38605606342
0.984040825965
1.26277807971
1206.50649778
1176.19464627
1197.41018963
2.2159007055
2.32420289093
1.99307085265
2.35805794133
1261.79548651
1222.06047397
1247.65178837
3.0218931362
4.48547366791
3.65188496689
6.03958074827
1337.24445676
1282.10721877
1308.7435502
7.73191539421
12.1186195793
8.83884532558
11.2793981069
1396.622842
1331.2963534
1360.9472158
28.1863311826
26.1979467523
19.6662695494
17.0242017988
1443.08724257
1398.43961667
1421.80463509
12.1913075367
10.2332396728
9.92863524846
8.50009007829
1466.26447271
1430.69911652
1455.02592972
10.3005438584
11.2591715146
8.51657568407
9.4060163499
1462.62080313
1446.4390065
1467.39931104
17.616109257
24.116334535
16.8540520906
29.5415753596
1186.76755133
1175.89362481
1.98277949831
2.76550242531
2.20497342056
3.3859522092
1223.23496036
1197.98563159
1213.39639709
7.11648776579
15.275139971
10.3193259626
22.7831011259
1295.56099156
1243.43974922
1291.43967904
24.5729170425
19.3708373312
31.9479917764
17.62730301
1357.73584992
1328.27522995
1351.19122983
8.73648909283
7.74769864132
7.55184804436
6.96385166211
1403.66915843
1379.83808193
1405.10095738
7.74816384071
7.76889329966
7.60999914323
7.79539979631
1449.7451023
1415.90585912
1448.55204329
7.70728764456
8.52378924876
7.29648800074
7.972717182
1472.69725542
1448.70884132
1479.25567209
16.0008442945
33.3059510972
15.3039427308
39.0299584355
1353.29147456
8.18194945754
1404.2897619
8.82489016686
9.2868217828
9.37684271542
9.50381990454
1444.16702847
7.91165877037
8.24958071172
8.16320102517
8.00767654961
1468.01300707
15.3532665098
47.405244356
13.856305317
47.1708591373
19493.221167
19501.6114235
16658.5728261
16719.2994017
19499.7682937
16620.6715556
19494.8593057
19492.2022543
19501.6440257
16705.7663663
16648.767106
19498.8547146
19495.6762812
16600.2046032
19512.2897227
19508.1812644
16912.9201668
16801.0968674
19506.5676975
16883.7517683
19512.8554759
19515.7498638
19517.6608894
16970.4608256
17014.7729019
19518.1243611
16957.0319448
19515.6470481
19511.7742106
19507.5027954
16793.5904228
16867.9393939
19505.7886185
19512.1016391
16870.3079727
19515.1164797
19517.4026318
17001.2681866
16938.0379547
19517.0270075
19515.5401724
16939.0402215
19520.0018368
19518.9697779
17113.8701424
17057.0219492
19519.3234849
17093.1874376
19519.6604587
19520.6741256
19521.6579769
17142.3695305
17157.3912794
19521.7193162
17130.3946234
19520.5197345
19518.1846879
19518.0330137
17045.3401178
17067.0591762
19517.9428117
19517.710802
17074.0036953
19518.7729939
19518.9417449
17138.7963234
17096.0201644
19519.8650075
19518.1019192
17108.1818697
19524.8849112
19523.0613647
17235.35269
17181.692854
19523.1384014
17215.1808472
19524.7387518
19527.0555955
19530.1819767
17269.2667996
17267.5345382
19529.8670986
17246.7024587
19527.2470268
19524.0623298
19520.5242965
17165.5737191
17174.7013622
19521.6235446
19522.7561747
17198.689298
19527.0411046
19529.9760125
17254.1277353
17201.4956142
19530.2565959
19526.0689871
17229.7697632
19533.7815626
19532.2922348
17306.6059175
17275.6520622
19532.2132728
17288.0014005
19533.3125763
19534.3591999
19535.391134
17331.7325242
17301.7280649
19534.7299328
17305.9225295
19534.6256149
19533.504376
19532.0747298
17262.7179703
17237.7433002
19532.4337779
19532.7447443
17275.2297975
19534.1444229
19530.4180216
17254.3381554
17227.1851186
19533.0301576
19532.3141443
17271.2078445
19528.1779972
19534.2889079
17217.0212899
17256.7470416
19532.9293331
17166.7277981
19530.0245016
19521.4680739
19515.3371626
17114.9856028
16946.3295077
19513.0084664
17060.0625734
19523.2191355
19525.0293888
19526.8097885
17191.0913454
17005.4561748
19530.1581354
19520.6849498
17090.9664351
19518.3831609
19505.2928185
16871.9670559
16884.9170542
19510.5953555
19513.2405739
16982.2354241
19500.7809618
19508.2919346
16834.3097288
16862.0619998
19506.1330351
16780.4202082
19503.1753217
19497.1224259
19500.6632877
16794.2692648
16710.4060675
19497.7464421
16737.0808204
19499.6234411
19498.3796257
19498.4820849
16797.902082
16651.8194109
19503.9190362
19493.3542577
16732.68928
19494.8872061
19491.0880783
16668.8723111
16609.1745272
19495.3734341
19490.499001
16688.1099084
19500.7092678
19502.3576782
16738.44652
16686.552642
19498.9117519
16687.5602714
19504.6714177
19501.2218624
19505.5301293
16704.9956737
16587.8771811
19501.0187704
16647.8075162
19505.8361272
19498.3597972
19492.7917767
16658.1558146
16634.7353907
19496.4238315
19495.5017003
16663.4225835
19498.2998525
19495.69244
16538.4272776
16588.5838457
19497.6014897
19496.1848905
16614.0347833
19479.3486007
19496.7051236
16573.2081683
16613.9643234
19493.5442235
16522.8036304
19479.2451052
19440.3302311
19439.1128425
16040.428198
16296.7614534
16014.9821311
19457.9210135
19425.434235
19476.4671509
19490.1922771
16584.9060987
16516.7222369
19490.9120625
19478.0726591
16512.9977396
19437.09683
19475.1999139
16398.8181215
16020.171789
19444.9194158
15961.0523646
19464.3484061
19496.2339396
19499.999527
16715.7517886
16869.3600604
19495.4935184
16753.3908514
19497.5725873
19493.7399556
19489.5715073
16687.9273516
16727.5334395
19490.9248923
19493.7652668
16750.0429529
19497.0123646
19500.1247803
16905.594902
16849.8594581
19500.1124442
16809.9706908
19497.4226984
19496.0487018
19500.6071182
16814.5425495
16870.4369338
19496.5919866
19499.2981791
16818.2837822
19497.5649315
19490.3229788
16670.3428003
16730.7403348
19492.4832412
19495.0634587
16758.4392411
19499.7637735
19500.3684462
16712.1376418
16831.8078567
19495.956352
19503.0666398
16795.0043849
19499.3392278
19502.1974871
16812.1408599
16900.1616956
19497.7575739
19503.715461
16830.5373385
19501.1331228
19507.107907
16879.5790911
16919.3962942
19503.5079863
19505.1516225
16854.85423
19506.5509506
19504.0048348
16864.4196453
16856.6693154
19506.1002968
19505.2386172
16892.8071103
19507.213195
19509.4222837
16923.188526
16971.9987102
19508.0873842
19507.7995386
16934.6255749
19504.8388533
19508.0601501
16894.2301678
16985.9702015
19504.4781169
19508.1357056
16920.5490421
19505.2340629
19508.6571959
16985.0515685
17004.045243
19506.0788535
19508.0631972
16956.5548025
19507.7504674
19509.7173541
17028.5166196
17003.2079013
19509.1900407
19507.9171556
17021.69937
19508.0708751
19510.4628019
17064.741372
17078.4551505
19509.5455464
19508.6286566
17047.1624516
19507.09103
19509.2914275
17007.0943664
17059.4670409
19506.6363571
19509.7080204
17026.7355689
19507.6832412
19511.0746076
17083.0672595
17075.5418557
19508.8253108
19510.2352126
17054.0076402
19512.62042
19512.1330967
17153.737334
17110.0747624
19514.6603713
19510.0617714
17150.297124
19515.2415105
19522.6202337
17175.1576905
17171.8575382
19518.2920208
19517.8864118
17162.1680377
19513.0618685
19512.5196339
17105.6364723
17131.0960896
19510.9715812
19513.8845066
17139.6010244
19514.4816299
19513.499502
17102.6956664
17105.487537
19515.1787699
19514.0255914
17121.4043525
19518.9620733
19525.0040565
17193.299174
17161.0244871
19524.491328
19519.8218371
17129.5484653
19516.829678
19519.4181528
17165.4882255
16994.123902
19522.7703328
19512.2737512
17075.7497515
19514.170927
19512.2934626
17071.2059654
16929.368127
19515.3905656
19510.1224846
17028.2162931
19511.8578313
19502.9586045
16885.949778
16858.2251491
19507.9453786
19507.1176809
16966.4486017
19499.7164727
19514.7930462
16907.4935132
16894.3683258
19508.1585487
19506.5272528
16781.7881776
19492.4155277
19493.4025998
16797.599629
16596.4420107
19500.639584
19486.8576718
16691.4508432
19497.4855938
19498.3793127
16796.6409223
16617.1228869
19503.2263246
19494.2595996
16697.8613928
19492.1184634
19488.0665947
16569.7369613
16580.6671887
19488.5046688
19490.0023214
16632.1709909
19479.9467636
19487.8979617
16602.6350769
16561.5577267
19484.2602445
19481.538262
16537.6373041
19480.2878064
19483.9488559
16574.6163859
16553.9283499
19483.1231618
19481.2655266
16539.7737935
19484.1954605
19485.9284816
16543.9878142
16543.5865768
19485.4186642
19486.0491298
16542.4545552
19484.0835332
19486.6821377
16555.9194967
16557.4927138
19484.4937406
19486.2990122
16546.1167408
19484.9881112
19485.4586093
16613.3566362
16578.1259591
19488.0159728
19482.6621904
16612.7621047
19484.5129511
19483.6485681
16567.3294843
16505.343029
19486.1845569
19482.7653448
16570.8096583
19486.4218263
19487.1277394
16571.9797139
16620.4949077
19485.2623732
19487.9495028
16599.9617309
19486.9187364
19487.8691338
16501.1319015
16573.0322226
19486.9195265
19487.8053067
16560.0540931
19470.1729555
19479.2688043
16529.5314051
16576.2119241
19468.9181384
19479.3451814
16560.5530412
19445.8502167
19476.5378105
16063.6439399
16537.8551857
19442.6721926
16116.0227271
19481.2645451
19476.6237063
19485.4985387
16581.4686601
16590.197205
19484.3562518
19477.8557019
16568.881331
19456.6898152
19494.3977907
16547.3497371
16177.0299051
19458.8309822
16152.3190841
19491.0210879
19505.7617608
19502.8570355
16904.9496352
17009.4143881
19503.1239015
16973.184842
19505.3008064
19505.9784083
19504.5903846
16924.2585768
17029.3938236
19502.6559563
19507.8138654
16987.5613109
19508.7852763
19511.3612049
17078.6474097
17118.8019631
19512.0624185
17059.0275135
19509.0306877
19509.965159
19514.6149617
17101.4414251
17128.0447632
19511.73754
19513.1512349
17069.7627806
19511.9944752
19506.388004
16974.5161659
17051.241063
19507.798852
19510.0473238
17064.8360084
19513.608677
19511.2559039
16990.1761518
17113.5937911
19508.7050867
19515.756354
17078.3373508
19516.139558
19517.2060452
17133.0283327
17232.7152319
19513.7031064
19520.2626074
17152.2591814
19518.1753194
19524.0675074
17179.5412185
17241.2349387
19520.186028
19522.496282
17159.6836943
19518.4117789
19512.9994105
17045.5995241
17132.9172556
19514.0651977
19517.2562263
17139.4387243
19518.8860913
19514.6957666
17054.0445375
17130.6793288
19514.4090789
19518.9207589
17136.2662332
19522.5089635
19524.8155679
17197.0032897
17263.7175006
19521.4239656
19525.3501567
17195.3119106
19522.8077371
19524.7824488
17169.2549452
17255.8624134
19522.550046
19525.3784124
17184.3950435
19519.3742477
19515.1453019
17088.4715822
17133.141601
19515.7158073
19519.0403572
17134.9685496
19520.0118109
19517.1822004
17098.4366178
17137.7202363
19516.5354159
19520.0379812
17138.8915892
19521.882699
19523.9723754
17155.4321875
17180.3841714
19522.1307448
19523.5099113
17142.6260712
19521.7210716
19522.4610684
17130.6551307
17166.8345908
19521.5624921
19523.1785509
17137.8790441
19519.3865914
19518.3356948