/*--------------------------------*- C++ -*----------------------------------*\
| =========                 |                                                 |
| \\      /  F ield         | OpenFOAM: The Open Source CFD Toolbox           |
|  \\    /   O peration     | Version:  v1906                                 |
|   \\  /    A nd           | Web:      www.OpenFOAM.com                      |
|    \\/     M anipulation  |                                                 |
\*---------------------------------------------------------------------------*/
FoamFile
{
    version     2.0;
    format      ascii;
    class       volVectorField;
    location    "10.05";
    object      U;
}
// * * * * * * * * * * * * * * * * * * * * * * * * * * * * * * * * * * * * * //

dimensions      [0 1 -1 0 0 0 0];


internalField   nonuniform List<vector> 
28582
(
(0.815444714142 0.00430324763494 -0.000497951029788)
(0.816453311349 0.00319590185439 -0.000593032403931)
(0.815641770872 0.00453205802691 -0.000123871285938)
(0.81676989228 0.00289609554585 -0.000297750679173)
(0.815345680644 0.00397828900615 -0.000935561759853)
(0.816926732573 0.00191711660836 -0.00185989413594)
(0.816947397683 0.00464974848806 -0.0017260823659)
(0.818307351351 0.00204536726898 -0.00223884609754)
(0.0822371117143 0.0784185901518 -0.00241304422958)
(-0.179511478244 0.0976725736595 -0.00572052199354)
(-0.26865587162 -0.0253701473233 -0.280320367913)
(0.81748195684 0.00310909346739 -0.00305124430447)
(0.755975050158 -0.00221063988913 0.000798060262883)
(0.756094203451 0.000502517378641 -0.0015621862622)
(0.819880117891 0.000739464405847 -0.00194681012963)
(0.818894153866 0.000478821313502 -0.00360274008696)
(0.756618345716 0.00115832488942 -0.00228198374649)
(0.819899569357 -0.00104579354639 -0.00294307493244)
(0.819552059407 -0.00154753630128 -0.00419151626347)
(0.815211638607 0.0075853018051 -0.000665652082378)
(0.817685203938 0.00102878732042 -0.000356365921097)
(0.817115882358 0.000326335917299 -0.000489690806185)
(0.8154891353 0.0074980056111 0.000153266081046)
(0.817981092824 0.00125881061525 4.37893042532e-05)
(0.817299219336 0.000278731594172 0.000168441527523)
(0.815806052239 0.00717771902034 8.96378913287e-05)
(0.818487143234 0.000244690802342 -0.00119346727885)
(0.818686631276 0.0075938799272 0.000767873931932)
(0.820287991565 -0.00014710587499 -0.00103658103426)
(-0.227023547566 0.100380632466 -0.00626617291517)
(0.152888761155 0.360752600537 -0.40788781858)
(-0.114260928179 -0.224950298634 -0.247167878881)
(0.819137770894 0.00625815973702 0.000899361025632)
(0.817850319617 0.00584948062794 0.000654057342283)
(0.754874788925 0.00293447939968 0.000902390345816)
(0.7531979095 0.00358013459678 0.000407948627216)
(0.81750272426 0.00576671948134 0.000572404675232)
(0.820103264729 -0.000467297941714 -0.00123635982406)
(0.819330633291 -0.000151113375965 -0.00229110999677)
(0.819563625278 -0.00058415509548 -0.00176215151509)
(0.819898784429 -0.00128351625585 -0.00229591604605)
(0.758011784464 0.0034745759353 0.00282553644071)
(0.819667057216 -0.00196995196074 -0.00358796893645)
(0.81957139557 -0.00164409869879 -0.00386030715946)
(0.0433955074117 0.0835919460913 -0.00871482362401)
(-0.0646307055045 0.146509554584 -0.0101376020319)
(-0.299125597948 0.123505839685 0.0949670157732)
(-0.210861347074 0.0365316083918 0.0461628414853)
(-0.0542356778393 0.0885396264901 -0.00974920332298)
(-0.225510848714 0.0249242844351 0.0467268960185)
(0.817102642887 0.00450090121347 -0.00141045563769)
(0.816217733608 0.0037293387279 -0.00285777873597)
(0.755963866412 -0.00136806808556 -4.78183466967e-05)
(0.757506213784 -0.00300512242776 0.00018682509021)
(0.816323464864 0.00435193117487 -0.00155743029887)
(0.757349153892 -0.0017434774388 -0.000772515207208)
(0.81698106109 0.00390541824178 -0.00263572551686)
(0.816559908894 0.00270470008382 -0.00317950733679)
(0.81776621828 0.00213123437499 -0.00449258941454)
(0.75569840977 -0.000500565947096 -0.000485732330216)
(0.757396887245 0.000221629967049 -0.00208073552441)
(0.816934439711 0.00157443203373 -0.0047837445337)
(0.757387380998 -0.000940663188644 -0.00112982928204)
(0.817442366679 0.00303790066467 -0.00296196818303)
(0.818674305664 -3.90998608212e-05 -0.00483862103976)
(0.818374750251 0.00153273569568 -0.004254242027)
(0.756591241859 0.00183134073427 -0.00185876857005)
(0.758013201145 0.000729058026818 -0.00288652261898)
(0.817567284721 0.000945843428165 -0.00444786872751)
(0.757887498669 0.00126052025795 -0.00273490638191)
(0.819400600321 0.000628553217494 -0.00398623026665)
(0.820064202683 -0.000128948386552 -0.00202465454508)
(0.757094746963 0.00210197603706 -0.000141165810786)
(0.758096289589 0.00283932160746 -0.00122402120227)
(0.819409903302 -0.000913353122434 -0.0038969408708)
(0.757269126545 0.00212887869289 -0.00117981965351)
(0.758444089108 0.00223628575342 -0.00224644662203)
(0.819816400397 -0.000158858331398 -0.00328385244958)
(0.818996167149 -0.00226982284962 -0.00594798804628)
(0.760118304108 0.00394781114686 -0.00171989940544)
(0.761424016165 0.00420213161029 -0.00361130105903)
(0.81864359663 -0.00106697279522 -0.00526675097199)
(0.761456807399 0.00311254201443 -0.00406676846306)
(0.817611919115 -0.00147346226448 -0.00615237603816)
(0.760351094912 0.00305441030843 -0.00299229594502)
(0.0572200795062 0.0610206926052 0.00237289257433)
(-0.0199104447261 0.363968757937 -0.0540654561866)
(-0.0468858151771 0.0401155331238 0.0103875463722)
(-0.000217222451527 0.0261715546017 0.0064882016906)
(0.0146496515635 0.249041656477 -0.143636692261)
(-0.0124397853768 0.21874273128 -0.104120936676)
(-0.127011627376 0.104075248548 -0.00588870820996)
(-0.280284201489 -0.0129156817978 0.0747797361385)
(-0.221141745695 -0.00076541937811 0.0373252590755)
(-0.137814747375 0.0327718610011 -0.00488159592519)
(-0.230297690573 -0.0548676476146 0.0399581228187)
(-0.238257093998 0.0567693625075 -0.00923552582083)
(-0.18656530404 -0.0472113154887 0.0237969063151)
(0.818133331793 0.00639779298467 0.000981888908207)
(0.818533106826 0.0066614077479 0.00156538508724)
(0.753588357109 0.00333545537101 0.000312589922496)
(0.755255185507 0.00115408508592 0.000976636345121)
(0.818748423447 0.00620599427757 0.00100227738036)
(0.817985429375 0.00676092645628 0.0014151574855)
(0.753951546251 0.0010492197505 0.000440262835844)
(0.818482392515 0.00572246528041 0.00119456890704)
(0.819672801493 0.00499855787221 0.000369328416043)
(0.7533332854 0.0036869402591 0.000428915506906)
(0.753206142489 0.000736532931591 0.000433380848132)
(0.819285608631 0.00543267506227 0.00117487502072)
(0.818795200817 0.00540065650733 0.000609688138263)
(0.753548866562 0.000933686394028 0.000620570644121)
(0.754901161195 -0.00219015095923 0.000758570197706)
(0.754753608127 -0.00213285764432 0.000646455440656)
(0.817791867733 0.00539693408604 -6.74637426969e-05)
(0.818070075013 0.00581527281005 0.000957258717719)
(0.753719156631 -0.000706645507238 0.00133009137121)
(0.818348893875 0.00557254452388 0.000305150106639)
(0.753984826763 -0.0007341318862 0.00138533277032)
(0.820012955643 -0.000291445750705 -0.00117112504528)
(0.756945522842 0.00271753538406 0.000890991212635)
(0.75787402386 0.00405379756798 -0.000604927101618)
(0.819734912239 -0.0014316698205 -0.00102014755826)
(0.757074555988 0.00272818123224 0.00229678901392)
(0.819620829051 -0.000370887719812 0.000409960794946)
(0.757886340856 0.00503435191155 0.000471668800713)
(0.819325483653 -0.00127020573703 -0.000321749020894)
(0.818172163385 0.000495481901193 0.000815280131561)
(0.757275028718 0.00321456853688 0.00289511280252)
(0.758401410966 0.0066788140096 0.0021312861544)
(0.818900784551 6.4015986413e-06 0.00078057706986)
(0.818500925226 -0.00100321054662 0.000394374662723)
(0.757747575569 0.00603392286197 0.0015667976419)
(0.819730942035 -0.0024516962271 -0.00426004016224)
(0.819528814984 -0.00258562872115 -0.0053222988536)
(0.760381926642 0.00518280308584 -0.00130310379774)
(0.761903981018 0.00542007641331 -0.00310292966197)
(0.76157533877 0.00680489731541 -0.00230687249201)
(0.819649310758 -0.00197536914538 -0.00232984590687)
(0.760252637357 0.00610971076958 -0.000180453125428)
(0.76130252071 0.00799682645951 -0.0018399220124)
(0.760986248223 0.00884701071285 -0.00117973111488)
(0.81900352216 -0.00130354989086 -0.00266192549171)
(0.819484909883 -0.00162241915925 -0.00178332334888)
(0.760278722494 0.00784124634124 0.000755507999611)
(0.818610293527 -0.00129788477654 -0.000893629344896)
(0.760126020418 0.00722484315425 0.000668343948943)
(0.818618165669 -0.000198651324055 -0.000560077181166)
(0.819713252705 -0.000667009867189 -0.00136058449508)
(-0.226838320455 0.00974833899067 -0.0113147688338)
(-0.0279481457338 -0.0626088290771 -0.365794609884)
(0.81828693116 0.00468700925558 -0.000591259454613)
(0.754457479827 -0.00181035844824 0.000549246028434)
(0.819441090739 -0.00110080610389 -0.0015441173946)
(0.818760823689 -0.00128882069441 -0.000915063198309)
(0.758956404073 0.00287040163533 0.00233556158959)
(0.760583814038 0.00921818569856 -0.000772348062626)
(0.759320411707 0.00710182746023 -0.000518792725728)
(0.81848326541 -0.00173181834694 -0.00108204882186)
(0.817961891368 -0.00225201729973 -0.00120766726899)
(0.758735147314 0.0056808795999 -0.000466554358981)
(0.760099915129 0.000671045362116 -0.00159346897097)
(0.0663670286387 0.0500045130556 0.000372058650549)
(-0.146334311354 -0.0304561817138 -0.00428145927944)
(-0.141716484812 -0.0578099254506 -0.00474488413505)
(-0.125398378354 -0.0143296622764 0.0214347684917)
(-0.121666464821 -0.0537231401832 0.0439670533964)
(-0.0737526493642 -0.035812347163 0.0442311874743)
(-0.133362427773 -0.0528709152664 -0.00646417879221)
(-0.136107232001 -0.0226773517944 -0.00628303471503)
(0.81810406213 0.00410008989271 -0.00136039279024)
(0.817544792693 0.00455204885273 -0.000286447111765)
(0.753276982979 -0.000355164994904 0.00124124672958)
(0.754191729123 -0.00132475580692 -8.65228571794e-05)
(0.818183855039 0.00470651074067 -3.02413104735e-05)
(0.752827609498 -0.00018910417653 0.00065754640868)
(0.817404323328 0.00385639130742 -0.00148775301801)
(0.817450363781 -0.000815194352286 0.000449428324618)
(0.817783485741 0.000855920732422 0.000559343442076)
(0.759734507441 0.00186692180022 0.00204345212711)
(0.758758586722 0.00675234281882 0.00214507596611)
(0.817491030349 0.000797718280489 0.000534962722298)
(0.817845681734 -0.000821456661512 0.00044727360044)
(0.759155563104 0.00641083460199 0.00196956689183)
(0.8174004788 -0.000685424678728 -0.00128956993829)
(0.818237537848 -0.000737410879584 -0.00271162345406)
(0.760204171793 0.0079023209853 0.000509370178549)
(0.760136978169 0.00905903387722 -0.000789066526248)
(0.817966750486 -0.0010199163689 -0.00111950853081)
(0.760170322905 0.00764435036336 -0.000106738718502)
(0.81749641522 -0.00021699365935 -0.00200354749358)
(0.816936034006 -0.000748894784289 -0.00142859649818)
(0.816436532406 -0.000286468940954 -0.00151644447431)
(0.759824056915 0.00534810559728 -0.000785965411032)
(0.759308554186 0.00836423367096 -0.000846586623361)
(0.816705125501 -0.000895621129968 -0.00113516571499)
(0.759937881723 0.0067695037239 -0.000692568635726)
(0.816691091219 -0.000108397123865 -0.00193039941311)
(0.815948637149 -0.00155177808272 -0.00103213784866)
(0.815881954205 -0.000775951518199 -0.00131990665428)
(0.759560758951 0.00377506840316 -0.000664129316163)
(0.759340784238 0.00400284881555 -0.000770773515435)
(0.816261677602 -0.0011318273912 -0.000929031753403)
(0.75981089588 0.00220586456737 -0.000823441068403)
(0.815589463024 -0.00121822646428 -0.0015355080222)
(0.815815051849 -0.00195979621884 -0.00112284960567)
(0.815583873665 -0.00208327511107 -0.00235929332406)
(0.760364691584 -0.00053817529297 -0.00139785787795)
(0.759467615773 0.00219566351104 -0.00113927070414)
(0.816003705113 -0.00235710146146 -0.0015491278709)
(0.760096870165 0.000640894267503 -0.000998458519825)
(0.815399812256 -0.00164085252452 -0.00173352623625)
(0.789665009841 0.00863733528127 -0.00938022423453)
(0.798718555371 0.0124584582466 -0.0118143173564)
(0.81188534263 0.0204039414011 -0.0106117461504)
(0.81401736221 0.014897376734 -0.0072234621339)
(-0.000978642419275 -0.0200396851911 -0.00523940152073)
(-0.251948397569 0.0269609467846 -0.0566545613544)
(-0.258971764872 -0.0386019018453 -0.0259473185515)
(-0.393954424928 0.101481653348 -0.0285333342423)
(-0.401953517557 -0.00824930220525 -0.0168667500998)
(0.27997296594 -0.00501339856338 -0.0715958196132)
(0.547429011477 -0.172559163837 0.368952860171)
(0.220591037105 -0.0743765253345 -0.0625894687218)
(0.679411880731 -0.146541801036 -0.247541851537)
(0.150847604599 -0.055909497526 -0.186576152321)
(0.642570198697 -0.0728916640211 -0.307490358312)
(0.785749309265 0.000670694199515 -0.00466931144277)
(0.786532411929 0.0028229948604 -0.00473020327001)
(0.779294254392 0.00267224038566 -0.00237024099597)
(0.778852461296 0.00322057049657 -0.00264494466941)
(0.785564593629 0.00574260018797 -0.00710737911481)
(0.774540586647 0.00262726192307 -0.00456207194267)
(0.788548951906 0.00577104677932 -0.00630519305786)
(0.791859839855 0.00785488718338 -0.00785950628302)
(0.7783718599 0.00287095270762 -0.00374558427053)
(0.777371857641 0.000647286822774 -0.00898082444836)
(0.793307215487 0.0145489369433 -0.0116416426548)
(0.794607341315 0.0111176839317 -0.0115329206463)
(0.80051643473 0.0169844785303 -0.0126792441879)
(0.773992744239 0.00223070096882 -0.00590797713966)
(0.760660542688 0.00383493013861 -0.017284413052)
(0.773958011291 0.00145646275544 -0.0111937381605)
(0.763818995645 0.0074364462179 -0.0194298407549)
(0.808942670051 0.0219876388829 -0.0119920224975)
(0.816955592052 0.0273518568414 -0.00538617412439)
(0.757735495813 0.00624747916879 -0.020226044813)
(0.759149922809 0.016050817977 -0.0187265603682)
(0.76265135741 0.00960977709188 -0.0196082363229)
(0.761297662571 0.0168539041888 -0.0122176297333)
(0.805721072005 0.0167210316574 -0.0138391843949)
(0.809145736842 0.0151030363471 -0.0125426539164)
(0.774969531747 0.00168857375358 -0.0118858796377)
(0.764645682094 0.00804730304741 -0.0172372955787)
(0.76813767491 0.00598119061565 -0.0140028811164)
(0.819350244245 0.0222384237681 -0.0075774063823)
(0.813377043378 0.0179013852436 -0.00916817480898)
(0.82053242815 0.0183796420455 -0.00540323733351)
(0.763838735401 0.00947507866754 -0.0171750086476)
(0.763025676434 0.0153928989647 -0.0106169484041)
(0.767200767302 0.00712513047282 -0.0129247707011)
(0.767170707126 0.011898560164 -0.00498239183181)
(0.76879005192 0.00657122503842 -0.0119805508526)
(0.768660128159 0.0104300766402 -0.00401748986801)
(0.105009650081 0.0593204336947 0.00370738565106)
(0.0938726433892 0.0386350202336 0.00340616393723)
(0.0471893205989 0.0182097056122 0.00230122507764)
(0.0456300872357 -0.0537885974064 0.194457535156)
(0.0675917925558 -0.00206068010173 0.253394301296)
(0.0451256576436 -0.0792481364284 0.216696420288)
(0.0727736919725 -0.0308779345432 0.258360870995)
(0.00431114120037 0.0325435286596 0.20553793086)
(-0.185487737646 0.053402489525 0.134323413169)
(0.00716988268733 -0.0222747264031 0.199555538475)
(-0.0788292305278 0.0216256339796 0.156653420856)
(0.0612603557555 0.00879137877882 0.00318329324721)
(-0.0193211359107 -0.043392109801 -0.00352921655073)
(-0.108874132763 -0.0248457257187 -0.0322177864825)
(-0.0941108941901 -0.0551076344593 -0.0196716485208)
(-0.207025202335 -0.000895714872116 -0.0391288641653)
(0.0296011445102 -0.10510576004 0.22426955505)
(-0.00631337685866 -0.0682789390875 0.219893838646)
(-2.14697347128e-05 -0.122830036791 0.194825827524)
(-0.0397012560134 -0.0892425392404 0.194424051161)
(-0.454404487405 0.0820768265289 -0.0417308425257)
(-0.3592095326 0.107870225109 -0.043586989838)
(-0.445368686663 0.130500532749 -0.0274462993559)
(-0.0132505632024 -0.0672570864888 0.191235352236)
(-0.0159078858668 0.0139867566236 0.201336680208)
(-0.077713537903 -0.0184811106694 0.167196542689)
(-0.0228595716051 0.0543771794583 0.135741891029)
(-0.355268524888 0.0499662638678 -0.0299947046837)
(-0.374989146167 -0.00536940916989 -0.02438144963)
(-0.0918916902443 -0.108561006377 0.134190477477)
(-0.116583795035 -0.073055185325 0.144616587017)
(-0.114283763805 -0.0675788082624 0.122399605049)
(-0.397148880106 0.111729227823 -0.0186021131111)
(-0.375288347224 0.0293636206092 -0.0224448453377)
(-0.366089475591 0.0416182263366 -0.00917833054653)
(-0.0883829257356 -0.0256701906847 0.102664513547)
(0.0417608398329 0.0133781625616 0.0821150391556)
(-0.0535916175949 -0.0326713366982 0.0731992657083)
(0.0802784678728 -0.0319071531294 0.0407283833185)
(0.786463472996 0.000763823687507 -0.00254320435506)
(0.784167670852 8.93053351952e-05 -0.00380551201769)
(0.782473515354 0.00281687213943 -0.00062524897386)
(0.779226426334 0.00272838856115 -0.00200654441753)
(0.784345041639 0.00111833845619 -0.00340723894584)
(0.782409661697 0.0030273500386 -0.000335973814256)
(0.786269103944 -0.000244431494317 -0.00277917646468)
(0.786717632334 0.00142082212135 -0.0028956750407)
(0.785718717668 0.0031175013971 -0.00452668646188)
(0.779012617165 0.00296012012985 -0.00214791963089)
(0.782145340176 0.00333866505622 -0.000812391574834)
(0.784921882649 0.00204667362373 -0.00389614111459)
(0.78737632682 0.0019023053266 -0.00332710127212)
(0.782325936293 0.00312376693525 -0.000385270669212)
(0.782938820385 0.00380288291974 -0.0102737346055)
(0.784606246785 0.00368829073692 -0.00822220700065)
(0.775017015388 0.00262535781678 -0.00385384397283)
(0.769056316316 0.00228553624598 -0.00789230376473)
(0.783524878616 0.00278574558823 -0.00711634657307)
(0.78454949443 0.00570122560318 -0.0111809593896)
(0.769114883946 0.00217146231576 -0.00704641622192)
(0.789057581433 0.00300595256285 -0.00586332433312)
(0.786602667377 0.00393676689445 -0.00642889797769)
(0.782118648244 0.00304540576678 -0.00197513239196)
(0.777799318605 0.00201765102483 -0.00490502914523)
(0.788254789372 0.0023754702832 -0.00487091401458)
(0.787727126212 0.00478195456887 -0.00785195862805)
(0.781773063421 0.00226224328764 -0.00274326967804)
(0.790095472252 0.00373561680311 -0.00788607846876)
(0.791168065703 0.00720052685438 -0.0130661586243)
(0.777560120129 0.00141935039179 -0.00663195403275)
(0.781080389687 0.000459960248923 -0.00603400290421)
(0.789280971718 0.00575347566021 -0.0104422632079)
(0.791376705174 0.00495105879817 -0.00993220510142)
(0.781273806701 0.00140697829423 -0.00405240349232)
(0.789024160766 0.00899400317934 -0.0171639448743)
(0.786151328591 0.00466569669693 -0.010309495618)
(0.768898154276 0.00216316682623 -0.00952367456532)
(0.773675596693 0.00173708319666 -0.00739775730578)
(0.786473680985 0.00726634549242 -0.0147833002397)
(0.787956953721 0.00594845922503 -0.0116349903108)
(0.768924413637 0.00179002879601 -0.0115745279061)
(0.79313302917 0.0122623246329 -0.0192374141625)
(0.793851456168 0.0135423956376 -0.0259789108521)
(0.763123552563 0.00239701291917 -0.0121370148922)
(0.761637574369 0.00501359176916 -0.0194708296882)
(0.789726258598 0.00985768380281 -0.0174609587487)
(0.798042072846 0.0162216395816 -0.0279026505139)
(0.763944142847 0.00348266668397 -0.0144978299416)
(0.792084228097 0.0106265046516 -0.0202080699415)
(0.792956072843 0.00934921059514 -0.0158544344771)
(0.773497293094 0.00128408453048 -0.00881948329101)
(0.770396033402 0.00252173413456 -0.0156913257859)
(0.790423788342 0.00755047345085 -0.0141621458196)
(0.795503835699 0.0125071032542 -0.0223568477318)
(0.769524733004 0.00210067460468 -0.0133918643961)
(0.796724508571 0.0143235422276 -0.0207409009953)
(0.8060026402 0.0197523506864 -0.0277002359485)
(0.762702430531 0.00649390966236 -0.0186056995204)
(0.767044644666 0.00530813443073 -0.0171608011747)
(0.80229250313 0.018362627575 -0.0279841527215)
(0.800054121585 0.0160885147093 -0.0219340043595)
(0.765828994958 0.0043346375582 -0.0153513572149)
(0.814436278245 0.0243962639283 -0.0293084963379)
(0.800553668084 0.0171650577359 -0.0244244461603)
(0.756255158353 0.0101882328482 -0.0226512055966)
(0.759405720435 0.00842390215671 -0.0217530556273)
(0.811038897561 0.0225568689616 -0.029980068105)
(0.803973068934 0.0195481094471 -0.0255212699351)
(0.757622962368 0.0122309123419 -0.0225732759164)
(0.81808199592 0.0261410982062 -0.0228967359298)
(0.825789083413 0.0269442583061 -0.0198586755379)
(0.7596915537 0.012510793853 -0.0225227408091)
(0.75941954775 0.0174694037433 -0.0165581069131)
(0.81531078134 0.0241064694828 -0.0239360423549)
(0.759981047641 0.013781569294 -0.021153937649)
(0.827345472406 0.0279303056186 -0.0183284034729)
(0.816658214341 0.0249408209195 -0.0276878698757)
(0.810061803223 0.0217901111079 -0.0243100876314)
(0.762156606958 0.00958126894688 -0.0202390146266)
(0.760186914429 0.0139603075716 -0.0184593904583)
(0.807262461325 0.0210458694997 -0.0249403287124)
(0.81838662928 0.0247075567896 -0.0258604092929)
(0.759679689204 0.0144010647321 -0.020109052611)
(0.820172102706 0.0265144216978 -0.0215215964393)
(0.828597526198 0.0262911354014 -0.0152360206181)
(0.760855383456 0.0178497001896 -0.0143846783162)
(0.761380647087 0.0144066923496 -0.0168291140752)
(0.821752039969 0.0258255574527 -0.0199539446669)
(0.760969646532 0.0149823849915 -0.0186707927591)
(0.828518472565 0.0275883216923 -0.0172416114597)
(0.801403472777 0.0143734723252 -0.0223447255869)
(0.795760151307 0.0110355688572 -0.0171190751394)
(0.771020511139 0.00314748389673 -0.0150050592462)
(0.775647272918 0.00167975495385 -0.0133208427395)
(0.79871101751 0.0137885463938 -0.0223651691443)
(0.798022194405 0.0120744055707 -0.0177885892012)
(0.771628251941 0.00330669473254 -0.0156324059728)
(0.8050771032 0.0166043323591 -0.0204624443175)
(0.808745408777 0.0200952480122 -0.0252082794607)
(0.769198498669 0.00582802935853 -0.0159815447005)
(0.765409043108 0.00742923641348 -0.0167053403484)
(0.802907480039 0.0169221406672 -0.0208346085313)
(0.81074171371 0.0193695273695 -0.0237227469963)
(0.769827910234 0.00523539194717 -0.0157591977129)
(0.806896229316 0.0159784553426 -0.0188598951141)
(0.813875083991 0.0168689699685 -0.0201775557543)
(0.767085674364 0.00636177854831 -0.0149262450853)
(0.771752781335 0.00396591710291 -0.0135534477593)
(0.812530508717 0.018273244059 -0.021424183612)
(0.808454798854 0.0149136157294 -0.0180532425618)
(0.771008551218 0.00449008862291 -0.0143272352479)
(0.820638143897 0.0222013157365 -0.0203858428588)
(0.812462632776 0.0216676208841 -0.0217263536491)
(0.762052911772 0.013153033035 -0.0162373399402)
(0.764510168814 0.00858373604361 -0.0155798201901)
(0.819779783717 0.0237008013394 -0.0225868341025)
(0.814192002878 0.0206285830172 -0.0201699644997)
(0.762642197563 0.0118495985163 -0.0140549188228)
(0.822753488957 0.0227013254777 -0.0156126767436)
(0.828602846487 0.0245114169291 -0.0127945376737)
(0.763127472426 0.0138269198958 -0.0145531227631)
(0.763900325349 0.0145875306496 -0.00851716259897)
(0.822388151668 0.0243952955324 -0.0173719557089)
(0.764090035433 0.0128898429239 -0.0123906760392)
(0.828022266154 0.0224964548145 -0.0105126527993)
(0.821679867546 0.0206088266348 -0.0173849867011)
(0.816593086385 0.0177802704095 -0.0165656968451)
(0.766155330114 0.00738764128648 -0.0139417564817)
(0.765817075541 0.0094443216698 -0.0110170266442)
(0.815533061307 0.0192779643007 -0.0178167007149)
(0.822145125931 0.018846943517 -0.015726713085)
(0.764633780314 0.0099742557085 -0.0124402336805)
(0.822897505605 0.0208915049174 -0.0131306715012)
(0.826638796667 0.0185557829471 -0.00510076959136)
(0.766228614624 0.0125998214918 -0.00687699693478)
(0.767558016962 0.0105828782594 -0.00931291562778)
(0.823257956095 0.0190461923257 -0.0117634731821)
(0.766169734417 0.0110817188127 -0.0109530805527)
(0.827538499858 0.0205138595803 -0.00742850507175)
(0.82298354557 0.0152472434624 -0.0124562796917)
(0.817467928934 0.0162404026056 -0.0146933807022)
(0.767499708041 0.00828768816612 -0.009824118288)
(0.769426688134 0.00671841773251 -0.011567964196)
(0.822685679578 0.0171128922689 -0.0133642684866)
(0.818110126199 0.0144219219835 -0.0142727260842)
(0.768273005609 0.0080055206359 -0.00935756629933)
(0.826033362834 0.0169580601398 -0.00328802448384)
(0.76910514243 0.00944946992067 -0.00818924927413)
(0.823046925294 0.017106574659 -0.0098496640833)
(0.817524808527 0.00503801672768 -0.000552011615604)
(0.818713001737 0.00350005946176 -0.00055445330486)
(0.819274610795 0.00160091876646 -0.00050565415776)
(0.8166962378 -0.00131363958004 -0.000190013973793)
(0.810028969164 -0.00255964956996 0.000290904085954)
(0.833383181812 -0.0495242863923 0.000653678032827)
(0.818036418875 0.00521231228724 0.000125615246948)
(0.81886601994 0.0032984322423 0.00040749663236)
(0.819424961199 0.00218042266247 0.000559758205366)
(0.817415850256 -0.00141835940025 0.00157064260337)
(0.810913347606 -0.00330862788088 0.00387635409631)
(0.836673346404 -0.054317393352 0.00504631966716)
(0.818072320355 0.0061448644351 -0.000224636521091)
(0.813423926088 0.00624860311627 0.000829575350765)
(0.788134766782 0.0107062724228 0.00294319124403)
(0.78366938047 0.0111935210341 0.00250280223739)
(0.780958924365 0.0128100470778 0.00179714094806)
(0.773762955581 0.0162458715612 0.000969911885474)
(0.781924574148 0.019271887781 -0.01563287514)
(0.71898016323 -0.019566125763 0.0263075005192)
(0.828567790996 0.00571715831666 0.000318283592012)
(0.825107954712 0.0035568114819 0.000140295111247)
(0.819770821507 0.000584600866573 -0.000894183412194)
(0.817312867361 -0.0011432141716 -0.00296299603312)
(0.81627241973 0.000220561512442 -0.00329224710199)
(0.817777033727 0.00316395189717 -0.00247052215136)
(0.811720051794 0.00909821565691 0.00110041299459)
(0.838841916282 -0.0848324728034 0.0137718121549)
(0.821536095552 0.00692076982904 -0.00073791683648)
(0.823034152992 0.00528970717761 -0.000920489658821)
(0.822627546782 0.00384888649539 -0.00124743404822)
(0.821466636102 0.00335796116966 -0.00199888369573)
(0.819769019718 0.00298371458564 -0.00146500372248)
(0.819909544178 0.00232138898132 -0.000222528577534)
(0.813111030959 0.000846402398779 0.00167720451711)
(0.842245722611 -0.0676342058483 0.004976388032)
(0.817579704403 0.00775799975397 -0.000548496899616)
(0.820196663625 0.00476315943006 -0.000441068266261)
(0.820644714999 0.00278870516776 -0.000719700126601)
(0.820278786767 0.0014299620355 -0.000795133753685)
(0.818899389362 0.000722418524642 -0.000928984125021)
(0.818941232692 -0.000660353601005 -0.000234928355939)
(0.811861246847 -0.00204050159411 0.00108797988482)
(0.838501171647 -0.0694204555192 0.00290047465114)
(0.818340169518 0.00105311855409 -0.000676974168618)
(0.818078067575 -0.000448070588841 -0.000198370403061)
(0.810941799251 -0.00207556521772 0.000677533340057)
(0.836473847217 -0.0537497674692 0.00145002917242)
(0.640781016852 0.0416032106754 0.0113555903714)
(0.635821863073 0.0400169183954 0.0157870614399)
(0.644823846716 0.0250706226723 0.0208854684025)
(0.642366129422 0.0216535042219 0.015720505873)
(0.640321214435 0.022837951745 0.0144794630513)
(0.616460123492 0.0263351814527 0.0164920372163)
(0.68026424349 0.0413051713602 0.0140945815813)
(0.310885346808 -0.0838295510403 0.05920964091)
(0.775520396185 0.0137143262046 0.00843204676728)
(0.770009501203 0.00939315132438 0.00825273662519)
(0.775010564036 0.00339942782121 0.0123516599732)
(0.77243371414 0.00256611054079 0.0129231116333)
(0.772439467135 0.00369368275906 0.013515346015)
(0.774489637027 0.00580863113979 0.0169341939135)
(0.779459069894 0.0337897293165 0.0270667502152)
(0.811420062357 -0.168909610173 0.0437877413755)
(0.822917137889 0.00717375706467 0.000995564869631)
(0.822655314908 0.00579544733669 0.000741248964545)
(0.821937760608 0.00588018302918 0.000589576744484)
(0.820935739654 0.00676460349311 0.00040595622392)
(0.820978760427 0.00672199633906 0.00114374311187)
(0.823251738209 0.00562543041801 0.00371910634962)
(0.818058551701 0.0027579695105 0.0100446812214)
(0.876333032659 -0.115299712399 0.0148948125349)
(0.818465275929 0.00813195550028 0.000408853973907)
(0.820490287706 0.00511828296983 0.000501149571831)
(0.820632573417 0.0030331623745 0.000478325906973)
(0.819971146174 0.00264510425283 0.000555864928504)
(0.819350403681 0.00178356426351 0.00140073473327)
(0.821050364452 -0.000265036315213 0.00339747587466)
(0.815141512397 -0.0028344001876 0.00744174801394)
(0.851027845918 -0.0879576282355 0.0106491272467)
(0.81872000626 0.0013225928731 0.000748649690503)
(0.819257401658 -0.000308293790002 0.00207125222878)
(0.812650256043 -0.00286381486711 0.00489049340112)
(0.842607974033 -0.0639024600325 0.00650390233326)
(0.635927920228 -0.0153385264563 0.0211947982486)
(0.628677456417 -0.016049819208 0.0232587566955)
(0.634317548753 -0.0201492917009 0.0244946562172)
(0.633581250585 -0.0192364721373 0.0217242410928)
(0.634609915668 -0.0151186966508 0.0199707963255)
(0.625491498397 -0.00474173650397 0.0235505170781)
(0.683784806959 0.0366614164083 0.0554404267391)
(0.476612661937 -0.341693842776 0.0143631425281)
(0.737812279631 0.00511002346247 0.0249856711015)
(0.7314633187 0.000812020502852 0.024536663492)
(0.782050580825 0.000709771831784 0.00892734041514)
(0.781854211552 0.000711234058414 0.0091405695002)
(0.783796431543 0.00183095872148 0.0100147111085)
(0.79248192633 0.0012444731717 0.0104936927232)
(0.804981044285 0.0192031726466 0.011185219594)
(0.886858875797 -0.190561347166 0.00256671188693)
(0.823686180827 0.00606588034214 0.000216632986992)
(0.822878442842 0.00583956624826 -0.00060322877002)
(0.822559494444 0.00409935391541 -0.00141661836094)
(0.822584994951 0.00252620596644 -0.00145994557667)
(0.823568556267 0.00170314608745 -0.000558345291197)
(0.828794026887 -0.00196126678826 -0.00021364249088)
(0.823637566468 -0.0068955165086 -0.000659127763296)
(0.903900604224 -0.163751809989 0.000210125968216)
(0.816756907168 0.0108442926476 0.000353213001993)
(0.818574633295 0.00724109421874 0.000362311437086)
(0.821086153634 0.00488622814215 0.000186355797224)
(0.821315315469 0.00275782576142 -7.29521909023e-05)
(0.821137645391 0.00172116813343 0.000113305392278)
(0.821304099675 0.000588407130828 0.000767209157992)
(0.824573857631 -0.00235953398388 0.00105560800753)