/*--------------------------------*- C++ -*----------------------------------*\
| =========                 |                                                 |
| \\      /  F ield         | OpenFOAM: The Open Source CFD Toolbox           |
|  \\    /   O peration     | Version:  v1906                                 |
|   \\  /    A nd           | Web:      www.OpenFOAM.com                      |
|    \\/     M anipulation  |                                                 |
\*---------------------------------------------------------------------------*/
FoamFile
{
    version     2.0;
    format      ascii;
    class       surfaceScalarField;
    location    "8.4";
    object      alphaPhi0.water;
}
// * * * * * * * * * * * * * * * * * * * * * * * * * * * * * * * * * * * * * //

dimensions      [0 3 -1 0 0 0 0];
oriented        oriented;


internalField   nonuniform List<scalar> 
92311
(
0.203935699166
8.83982532992e-05
-0.000938583238717
-0.203835105283
0.000750194035187
0.000117202059868
0.203880970922
-0.000494099531653
0.000431811833032
0.203960245273
0.000388262527354
-0.000978505624001
-0.204024617103
0.000743302028413
0.000357971832862
0.20381418098
-0.000522226197581
0.000427689483724
0.203956793163
0.000253720355339
0.000335068685303
-0.00107846000544
-0.204432873591
0.000714523464255
0.000281987879488
0.000357587676088
0.000239453455932
0.0001678704583
0.000209336468526
0.203574621793
-0.000510761908768
0.000361742093213
0.000272571158249
0.0511929399471
0.000104800595922
0.00015393324931
0.000118404234166
0.000136859189773
-0.000430277698965
-0.0513611903939
0.000338073511488
-0.0510361687174
0.0509087059818
0.000101083060596
9.98128810512e-05
0.000117373517591
8.43251804233e-05
-0.000277273896184
0.000241553620478
-0.000110779840074
-0.000247042323463
-0.000118678265475
-0.000130635136513
-0.00014516760191
0.000430488489492
0.000563154287427
-3.97652354622e-05
-0.000174432645287
-0.000241706697392
-0.000228340299702
-5.11894564325e-07
7.36633376212e-05
-7.85918423078e-07
-1.15246237874e-05
-2.66471146936e-05
-3.30655447908e-05
0.000422437115639
4.11753205452e-25
-2.07724151172e-07
-8.43137572892e-07
7.45129928794e-08
-1.67836641125e-06
5.17570997367e-06
1.70941142332e-08
4.64580388551e-07
0.000145121530441
0.000132622158978
0.000148284354851
0.000126341611159
-0.00032445376015
0.000263798697469
-0.000155777043854
0.0103187131755
-1.37562895396e-05
2.99361091494e-05
-0.0103296122134
0.0103512392696
0.000122485434273
-0.000167459009527
-0.0103435057547
-5.21848096286e-05
5.92024901471e-05
0.000165009049882
4.77691755441e-05
0.0508834652149
3.00121023148e-05
7.71890406855e-05
5.95835619308e-05
-0.000186416848618
6.47619011674e-05
0.0508361422818
7.83105208338e-05
8.93078892329e-05
9.94277757301e-05
-0.0508772867635
8.3764228997e-05
8.12603774909e-05
-0.000134155294845
0.0103674651757
-6.22027888698e-05
7.13426187855e-05
5.76897753602e-05
0.0126455663475
-6.62735235981e-05
4.66295544508e-05
-0.0126360981135
0.0126375966879
4.90600722143e-05
6.70985054978e-05
-0.0126319248598
-0.000244290340141
0.20426877586
-0.00180150949599
0.00151402155423
-0.203736979561
0.203860342102
5.10308663641e-05
5.3135116373e-05
-8.3575675895e-05
-4.93480564312e-05
0.20393008201
0.000200172421743
-0.000220605008402
-0.00041044662584
0.204449044857
-0.00182337169803
0.00160196364144
-0.204061310114
0.203846452092
0.000145896338272
-8.18580627651e-05
-4.53354985579e-05
-7.07291737932e-05
0.20397106564
0.000170129713302
-0.000273713955967
-0.000256944747568
1.2453701474e-05
4.43722631264e-05
-0.00197637675251
0.204975021481
0.00176029875297
-0.204759617975
-0.000209611836027
4.77002189218e-05
-3.40315843804e-05
8.63602430091e-05
-6.56308926279e-06
0.20376150173
-6.07489822803e-05
-7.371889729e-05
0.0515718986331
-7.3760252717e-05
-0.000131399684836
-8.77739407098e-05
-0.000121701747743
-0.000592947090287
-0.0514371954269
0.000616124777443
0.0509002654425
0.000131490951783
3.09289147742e-05
1.25098530703e-05
1.21322733879e-05
-2.1786119527e-06
-0.000153835558643
-0.000267110620881
2.39001043328e-06
-0.000351104570103
4.6547477457e-06
2.7018671365e-06
4.95314771252e-06
4.14427403007e-06
0.000323801228764
1.20998482482e-07
-4.29088750572e-07
1.93209269508e-08
-6.01536598101e-07
1.33215848988e-06
5.98437993267e-06
-7.30397332017e-07
-3.13420878041e-07
0
0
0
0
2.88573123757e-29
0
5.3046039369e-29
0.000522752458382
-3.71442182621e-05
3.35786849059e-05
-4.1492708227e-05
3.2578489237e-05
0.0515273227278
-0.000453261336125
1.36610708615e-05
6.64501313902e-05
-1.37138181737e-05
5.01669956443e-05
0.0514393253997
0.000501748096028
-0.0514907465002
-1.76059957516e-05
0.000161367947063
0.0103367762916
1.54523532007e-05
-3.78732079188e-05
-0.010412481797
5.27238696306e-05
-4.19951786802e-05
-0.010272049241
4.2376978584e-06
-2.38977331161e-05
0.0102780787711
1.32449585442e-05
0.0128730643823
-0.000145034421932
0.000145414653247
-0.0128737884992
8.19565807899e-05
5.72499896814e-08
-2.81806925366e-05
-1.28408674353e-05
-1.70208710349e-05
0.050962930356
-0.000120555361371
0.0508258581936
4.60907393426e-05
3.83733743264e-05
5.95688658458e-05
2.36801327779e-05
6.05026267864e-05
2.26625737156e-05
-1.0543668133e-05
1.03499937612e-05
-1.63104215776e-05
0.0508763979776
1.87384214063e-05
4.65495125631e-05
-5.79754774944e-05
3.45960287152e-05
0.0126533453699
-7.35922100292e-06
1.73891118188e-05
-0.0103603747238
-0.000135314934648
0.0103409335214
0.000157513501208
3.74386822791e-05
5.233475433e-05
0.0126402138
-0.012639516152
2.3023433258e-05
0.0126523915212
-1.7546335953e-05
4.81117973345e-06
-6.77077956198e-05
-0.00012844476536
-0.000135039751285
-0.000148074910402
0.000514434977463
-0.000236287759371
-2.57198762451e-05
-2.72253093973e-06
-3.51619889456e-05
-4.65816135532e-05
-5.80198065993e-05
-5.41185906358e-05
0.000420040397242
-4.32190131802e-05
-0.000366509679243
-2.20790491567e-06
-2.31495594959e-06
3.99052708135e-06
6.30440996924e-07
7.16629937532e-06
-5.21350602508e-06
-4.09001628501e-06
-9.89263056471e-06
-5.86837067761e-05
-8.69443584374e-05
-6.65232988202e-05
0.000521096730457
-0.000230553587821
-6.41416125456e-06
8.81712559818e-06
5.44335612462e-06
0.000115367456639
0.0128002445393
-0.000126571505307
-0.0128406573643
-0.0127955445037
0.000219146001663
-0.000102894878553
0.0127521774305
7.99718779908e-05
-2.38790816778e-05
-0.000186572683058
0.0103369763258
3.50933115021e-05
-0.000179288606919
0.0103523124375
-0.0103689898738
4.4653323207e-06
-0.0128341534904
9.22785210431e-05
0.0103588528773
-1.18794029692e-05
0.0127599934586
-0.000113443753458
0.0127126025848
0.000205899027431
-9.97689777934e-05
7.69980752972e-05
8.558862163e-05
-0.0127196555371
0.0126884854057
-9.0274448034e-05
-3.71654302256e-05
-0.000174223287995
4.45415857884e-05
-0.000192503591357
-0.0103593399789
0.0103744805259
-3.97882475367e-05
0.012682427762
7.0099769505e-05
-2.60755254252e-05
-0.000108891010325
-0.0126534949842
0.000117881127571
-7.71844513651e-05
0.0126443440089
6.87321084684e-05
7.81231621016e-05
0.012656100455
-8.0824253392e-05
-7.26693331051e-05
-9.25083814518e-05
0.0103733169342
8.45037189948e-05
-0.000157272974482
0.0103951021949
-4.17209365273e-05
6.61352629831e-05
0.0103936945434
-4.80781432767e-05
0.0126454555612
-7.54921532056e-05
1.83448970945e-05
-0.0126389719343
0.0126487852342
-6.44639877717e-05
-8.85292881575e-05
-0.0103910786253
0.0103899565324
0.00010795522026
-0.0104060007385
-5.74521731401e-05
0.0104039935566
9.18832206883e-05
-6.53463602186e-05
5.82329601511e-05
-8.4522197063e-05
-6.32790966074e-05
9.7617696135e-05
-5.62873526523e-05
-6.30783909399e-05
9.32452671136e-05
-0.0126295674736
0.0126307505656
3.21555825575e-05
-3.43062650255e-05
-0.0104243030528
0.0104186215114
-0.0104551705922
0.0104446682269
-7.7314403516e-07
4.6611535952e-05
0.000111970552356
-0.0126440937049
-0.000129255281376
3.32373541665e-05
-0.0104494408178
1.46219045461e-06
-0.0126437794934
2.98352178738e-05
-0.0104143690505
-7.9320713254e-06
0.000285188186877
-3.30175114815e-05
-7.89401470334e-05
-6.19535015264e-05
-2.40189460531e-05
-0.000757690993356
0.000841052753863
-0.000259178035322
-1.37031432409e-05
-3.20074869506e-06
1.75296334689e-05
1.65105274275e-06
-0.000958022205803
1.83435597908e-06
9.68112517188e-06
1.50298583363e-05
7.04488126991e-06
0.00019496668089
-0.000153638673206
0.000801189930111
-1.68469092268e-06
-2.2427492654e-05
-4.85597163877e-05
-1.84841528735e-05
-0.00100088581132
0.000306044541019
-3.74054210034e-06
-8.32133279677e-06
2.90940597201e-06
1.17747672264e-05
-9.02450959757e-06
-3.58722180067e-06
-3.13862037301e-07
0.000338374002393
-8.90967893273e-06
-2.60234574332e-05
-1.19207216073e-05
1.1991470425e-06
-0.000128088565487
3.98755376537e-08
-3.87585069031e-06
3.47255546158e-07
-5.47994183367e-06
1.53869358943e-06
1.54551462374e-06
0.000313472287813
5.66159697114e-06
9.72532782976e-06
9.51330269137e-06
7.63754681543e-06
0.000174223637011
-0.000184310009714
3.21339241612e-07
-6.33849382423e-06
6.44017222277e-07
3.63147116607e-06
6.8783378903e-06
7.80335009019e-06
6.57892705061e-06
-0.000400330749722
0.000278341814551
-5.71321939127e-06
1.97755860157e-06
-0.000147093583427
-0.0129069730487
-6.63189287256e-05
0.0128877798621
0.000159487188165
0.0129247116017
0.000153266348484
-0.000137949710748
-0.0129082834867
8.10407505275e-05
1.48219706005e-05
0.0103065022834
-3.35216408953e-05
0.000147179288179
0.0103398020587
-0.0104160066218
-9.09498292574e-06
0.0129053085816
-0.000133369742061
-0.0128920954503
0.000165362142627
0.0103089677441
-5.90457976015e-06
-0.000126360043042
0.0128704016307
-3.25222036563e-05
0.000139466646181
-0.0128830868525
0.000120571203504
-0.000103644666478
0.0128582889538
3.14474009e-05
4.78488432522e-06
-2.37191187229e-05
-3.90637183351e-05
-0.0102751989611
-1.18394144265e-05
0.0102673633915
-0.000113840160664
0.000138281382624
0.0128468180996
-1.17421589964e-05
0.0103057734119
1.79871495377e-05
-1.34045098618e-05
-0.0103394657334
-0.000103738903022
1.71514584453e-05
0.0102945297407
-1.56963283933e-05
-0.000143430704989
0.0128404286325
0.00013837632802
0.0128740762458
-1.22766708433e-05
-0.0128812977628
-7.35041327804e-05
-0.0102867463533
0.0102809985733
0.0128456366162
-0.0103186211302
9.86285416196e-06
0.0126584886177
-6.46460046777e-05
-0.000102987122951
0.0103859392401
0.000122171312202
0.0104033344779
-6.99733725662e-05
-5.31271718311e-05
1.38598386907e-05
0.0126641887942
4.11335661497e-05
1.37645442349e-06
-0.000111934917445
0.0103714990848
0.000133676885361
0.012670876165
-6.55199964314e-05
0.0103838042574
-7.889779242e-05
-4.62821424661e-05
0.0126776779618
7.28273969409e-06
2.66122736021e-05
-0.0126872173762
3.70267148902e-05
0.012696882359
-5.60272227517e-05
7.53190569985e-06
-0.000127120965502
0.0001479173521
4.60654203362e-06
-0.0103678026501
-0.0001047041186
0.0103463042515
-6.67685939289e-05
1.66518091978e-05
0.0126869480668
-9.68751794851e-05
-0.0126288153462
4.2871853157e-05
-3.20126931303e-05
1.66788199442e-05
7.61424741046e-05
2.24604792372e-05
-4.29579525153e-05
0.0104213304537
0.0104465542215
-1.06905528988e-05
4.94722607777e-05
0.0104372297249
-1.84352531708e-05
2.31259673295e-05
0.0126497783115
0.0104047625842
0.0104319821864
6.72403524896e-05
-3.85184838015e-05
5.45050149539e-06
8.01500513165e-05
0.0104083682171
-5.21146281183e-05
-4.95235609873e-06
0.0126596130949
-6.41529901168e-06
0.012660993846
8.78453545128e-06
1.56881035885e-05
-0.0103889514656
0.0103653221872
0.0126731775418
-0.000101516241077
-7.75255356078e-05
-0.000124121055782
0.000286284646716
0.204225225316
-0.000128292532288
-0.000389229787625
3.48175987864e-05
-2.51702974713e-05
-3.05326454715e-05
-3.2846905005e-05
-1.84283680731e-05
-8.20281606381e-05
0.0510156513773
8.77384691103e-06
-0.000341367796808
2.07184497411e-06
9.0220679909e-06
8.59564239039e-06
8.71366388095e-06
0.000276101578601
-0.000392400190144
0
0
0
0
4.38913131021e-29
0
1.01603310725e-27
9.3849517353e-05
8.17556289741e-05
6.58973855308e-05
0.000112782772689
-0.000175690529011
-0.000440720910583
0.051270942626
0.000105251105389
-0.000126407573394
2.53938226194e-05
0.010282935059
0.0509598180665
-2.63984576205e-05
-1.70282114952e-05
-1.97571632359e-05
-3.08238651738e-05
-3.20761621254e-05
0.0509845401025
-2.09667476431e-05
-2.80645942723e-05
-1.87130830255e-05
-2.84313922692e-05
5.04608298389e-05
-0.000103208125556
1.60822830823e-05
0.0103248785654
-0.00013878490403
0.000159566134561
-1.18955372501e-05
2.18105214819e-05
9.1477454876e-05
0.0103790326763
-6.74013674979e-05
0.0102777566355
-1.12096381659e-05
2.31671052888e-05
9.11522983687e-05
-0.0103078293015
-7.29348545222e-05
0.0509881343442
-1.94039325226e-06
-2.10084347497e-05
-1.1955796776e-05
-1.18597194451e-05
7.92028714956e-05
8.76130237462e-05
-0.000123838042272
1.09716358498e-05
8.34366480849e-06
1.1734521146e-05
7.77763375838e-06
-6.95175172764e-07
0.00014257829097
0.0509557918866
-0.00014847292712
-5.72599256328e-06
1.64275801827e-05
8.75301646046e-05
0.0102505948243
-7.61637518393e-05
5.78883904683e-06
-8.19439167821e-06
9.2408615016e-05
-0.010233139889
0.0102375631154
-9.17298241778e-05
-8.63814463294e-05
-0.000112996688697
-8.63222208661e-05
0.000514392746364
-0.000510945017036
-1.34370767089e-05
2.89018792692e-05
2.1354049079e-06
9.40545649602e-06
1.32715388313e-05
9.28942963793e-06
-0.000248225450026
5.21355468258e-07
-5.79417861117e-05
8.95081968476e-06
1.16205309178e-05
9.57511487362e-06
0.000403271337687
-0.000338116522834
-3.18029131805e-07
2.04245140927e-06
-4.05873751777e-06
-5.11110342983e-06
6.57807567142e-07
1.53216232082e-06
-3.20772508418e-06
-8.84501882419e-08
-0.000133765593319
5.67849663854e-06
2.79307124602e-06
2.27801209245e-06
0.000402792706204
-6.01354698413e-07
-0.000311372478228
-9.36951784896e-07
-6.35859985447e-06
-6.92538013874e-07
0.000253568976016
5.28640514747e-07
-0.000200559292723
-0.000198935998587
-0.0128071151872
0.000118988001354
0.000120838126148
-0.000111456732313
0.0127720664574
-0.000132199171377
0.0128008400567
-9.65503686359e-05
0.0102750442594
1.76412303258e-05
2.7505352823e-05
-0.000157084120242
0.0103040796112
-0.000124714231008
2.03541089977e-05
0.0102948405238
0.0127630823495
-1.90479118847e-05
-0.0126948567961
-7.51215383737e-06
-4.10043495749e-06
0.012700481855
0.0127049023421
2.55017560861e-05
-4.73281623457e-05
1.48715534051e-05
-0.000140797464198
0.000159866674896
0.0103113732596
3.58631496207e-06
0.0103305619624
-0.000109922655864
-4.01528875655e-05
0.0127083292097
3.26382564592e-06
-0.000113906111004
0.0103135880869
-0.0126835778525
-2.07767041933e-05
-1.70283878913e-05
0.0126910941121
9.18405645126e-06
0.0126753433308
-1.9517805894e-05
1.71810070798e-05
0.0103479553551
9.8209924843e-05
3.41243631926e-05
0.0103452219837
-7.73543120441e-05
0.0103275782893
0.0126883261098
-2.65009054808e-05
0.0127030497762
-2.191904452e-05
-1.98139301187e-05
8.19140270164e-06
1.90137779083e-05
-0.0127025944921
0.012702991526
-2.57526437438e-05
1.61287307225e-05
-0.0103032204214
0.010281065402
0.000109111870608
9.51442757717e-05
3.43940015507e-05
-7.6389544696e-05
0.0127052457647
1.25676914601e-05
0.000113393734802
-2.85450143149e-05
-0.012703245764
3.34313558816e-06
-2.28535266766e-05
0.0126920332442
2.52307719242e-05
1.97030952339e-05
0.0127006860687
-2.45705659087e-05
1.11999071303e-05
0.010257993956
0.000101322033328
8.58868817195e-05
2.31652928152e-06
0.0102334481586
-7.66183948947e-05
1.82325804948e-05
0.010248463688
9.533236869e-05
0.0126890296824
-2.4287845427e-05
0.012682777348
8.32109751857e-06
-2.46533605562e-05
3.24426249954e-05
2.69073548806e-05
-0.0126793519478
0.0126725581174
-2.22649055099e-05
-7.01094534013e-06
-0.0102554862994
9.23398269838e-05
0.0102654162029
8.81810123564e-05
-1.02366421777e-05
-8.37301538619e-05
3.72488059782e-05
0.012674393789
9.11547938438e-05
-2.14801887608e-05
-0.000546390256733
-0.0495504605376
0.0493435776385
0.00062289233773
7.97047818548e-05
7.84785084528e-05
8.76409678503e-05
7.05192082956e-05
-0.0001860325265
-0.000616349557766
0.0498462542423
1.52340839611e-05
2.30937559067e-05
2.12785788419e-05
1.59695298489e-05
1.30637264211e-05
-0.0498903760998
0.000571744995007
-0.000987044614482
-0.0499108109576
0.0499997945592
0.00084163721543
-2.19864465278e-05
-2.3903706596e-05
-2.35105756378e-05
-2.34362511633e-05
0.000149240096054
-0.000710858897665
-3.29637980904e-05
-2.56421846973e-05
-2.8465284503e-05
-2.96866650849e-05
0.000200239708265
0.0501309833642
0.000614137353851
-0.050117814094
-6.56078191718e-05
-0.000112948687418
-0.000271121009159
0.000423320424376
0.000196584320879
-5.91237800453e-07
-6.38646033557e-05
-4.70590869576e-05
-4.96092979955e-05
-6.59131196175e-05
-0.000563873499903
0.000614780513593
0.000319358250484
-2.74704980099e-07
-6.38542635588e-05
-4.9226234486e-05
-3.83210543581e-05
-0.000208001990898
-2.42930577074e-05
-0.000206197005981
0.000318708425238
-6.82336954929e-08
-1.64891889386e-05
-1.08113619161e-05
-3.76260455172e-06
-0.000215098585184
0.000144046811499
-7.06641906185e-06
-0.000255636849191
-0.000429961905089
0.000529339749955
0.000138055773213
7.29006265633e-07
-9.06832319824e-06
-6.73949965573e-06
-8.94570441499e-06
-1.69791331547e-05
-5.30478134607e-05
-1.58014313537e-05
-1.26865440483e-05
-9.53514688144e-06
0.000459584589179
-4.44098085187e-05
9.1561515875e-07
-0.000369760674568
0
-2.92891035998e-81
0
2.26626640856e-09
0
1.86692363179e-09
1.28386886074e-27
-4.13319004035e-09
-9.51077077417e-08
9.90044391422e-08
-3.81928250514e-07
-1.51686713523e-09
-3.15799343096e-07
3.68854294655e-07
-1.27551005452e-08
0
1.6057385464e-28
0
1.40210858535e-28
0
1.48989723888e-28
-4.49774437063e-28
-8.40008942696e-09
3.96834708063e-08
-5.8615309349e-08
2.97760035529e-09
-1.09703207113e-07
2.7216639166e-07
0
0
0
0
1.24069557928e-28
5.95358143176e-30
0
1.19249637089e-09
-4.5712478495e-08
4.69277540552e-09
-1.72760525678e-08
2.57957064378e-08
-2.58118111236e-09
0.000191818508206
7.1805164654e-05
7.44130727874e-05
7.8641664224e-05
6.40162232826e-05
0.0492536823548
-6.58205577591e-05
-6.13017923511e-05
-0.0496073092134
0.0492133447482
0.000346258209805
7.25062220573e-05
8.8444036057e-05
8.17471919135e-05
6.79243028695e-05
-7.82387606785e-05
-0.0496002114766
4.92732534991e-05
-9.13029722888e-05
-0.0115099804153
8.22648411776e-06
0.011519978476
1.01506697049e-05
0.0115298139206
6.12558151132e-05
5.39533286405e-05
-0.000101334216923
-4.27874621172e-05
-0.0115136651487
0.000109610807452
9.54484253208e-05
0.000103014535103
0.000109899907918
-0.000319634396336
0.0122791377106
0.0122066560444
0.0121719412414
0.012156310353
-0.000245564704941
7.31530118683e-05
6.4851066772e-05
-0.000103224193024
-5.35182166179e-05
0.0115322939118
0.000417166426776
6.04879912328e-05
8.10830319727e-05
6.51316557863e-05
7.62683941321e-05
-0.000162587291481
-0.0497418178166
0.0497101873749
5.11533860851e-05
5.44839785581e-05
6.42773322415e-05
4.41773583589e-05
-0.000150471598241
-0.0498267677208
0.000470016709445
0.0115336370713
5.1231120014e-05
-9.69017582316e-05
-0.0115112060849
7.30397127368e-05
0.011562283109
2.17390906489e-05
-6.03464144779e-05
-8.57349928917e-05
-0.0115393610452
9.25270856578e-05
0.000864809992437
8.13225914511e-05
0.000100017481859
9.29297876463e-05
8.67710770788e-05
0.049126080221
-0.00020413016771
-0.00016450921507
-0.000192913516272
-0.000156256234527
-8.88260270345e-05
-6.43610287637e-05
-7.57138802614e-05
-6.18402956072e-05
0.0495704061064
5.78380631177e-05
4.64127736897e-05
5.72311182824e-05
4.77159971885e-05
-6.30009685807e-05
0.0496155143957
0.000787026447753
4.34466753673e-05
2.79515131121e-05
4.15117937411e-05
3.15430130583e-05
-0.000112012034324
-0.000100240268315
0.0115408241387
8.56226092762e-05
0.0115440373414
7.16143318694e-05
-0.000107868156305
-0.0115462131623
0.000144125475127
-0.000122566129797
0.000107176632688
3.01300851316e-05
-5.7325755488e-05
-0.000103733190724
0.0115778021684
0.0116114403709
0.000148316471921
1.48220233137e-05
-2.03772168218e-05
-0.000154917815442
-0.011603534361
0.0497410235697
1.23950868886e-05
2.88976982715e-07
1.39712168693e-05
-7.78164349233e-07
-0.00110058579607
-3.81226059793e-05
0.00118962633211
-1.49378742677e-05
-2.99866525593e-05
-2.45986911554e-05
-2.07895605091e-05
0.0502696465383
-9.7187842045e-05
-0.00153109818795
-8.98642397171e-05
0.011533480252
0.000162067433689
-0.000145361922809
2.15313624407e-05
-4.15901337827e-05
-0.0115273695386
0.000226398729055
0.0115360077131
-0.000232939089146
0.000153258620615
1.16272661104e-05
4.78936548626e-06
-0.000165394122071
0.0116034276896
0.000154892332271
-1.64331454557e-06
5.53068679683e-05
-0.000183716987009
-0.0115729012001
0.0115440727538
0.000703405979292
2.1164390426e-06
4.8778139119e-06
8.5997548728e-06
-6.13341814715e-07
3.93614524324e-06
0.0500464283704
-4.28650194308e-06
-3.16167780069e-06
-4.80307581871e-06
-5.9000513456e-06
4.01421349813e-05
-0.0499944446388
0.000629392809724
-4.07783866762e-05
0.011598803958
0.000100821077019
-0.0115806221784
0.0116236574314
1.36946185428e-05
-4.73314241571e-06
-0.0116215175655
0.000133856711271
0.0116454213387
1.74382446194e-05
-3.1597965917e-06
-0.000109052337875
-0.011658635486
9.46096170144e-05
0.000944622985876
-4.41098295743e-05
-5.43541918692e-05
-4.66375001515e-05
-5.03942312036e-05
0.0502325993641
0.00020765143673
0.05010032101
-2.03429416569e-05
-1.95998295811e-05
-2.05527801291e-05
-2.07940546091e-05
0.000158082540433
-4.25315501309e-05
-5.45614433504e-05
-4.39079860844e-05
-5.34851766257e-05
0.0502368670347
0.000744356537069
0.000258125264693
1.44275363746e-05
0.0116150803301
0.000136784273887
-1.43853021064e-06
5.06662579645e-05
-0.0115765576324
0.000136728393111
0.0115388351964
9.35257475238e-05
2.24383771093e-05
6.65591141172e-07
-0.000108265828702
0.0116235109721
0.000103330862059
6.11599565206e-06
2.97266834494e-05
-0.000111560831191
-0.0115741989906
0.0115354828111
5.53197241542e-06
0.0116188644135
7.90200553426e-05
-0.0116408414433
3.9723758149e-05
-0.0115663974104
0.0115225253325
1.06549003006e-06
9.57148364298e-05
-1.97123411083e-05
-3.65073787091e-05
-6.48223457672e-05
-6.08532707088e-05
0.000309821096172
9.99324409322e-05
-0.000164568586732
-9.40942099229e-07
0.000311382024275
6.06870336223e-05
-5.42324139142e-05
-4.38134842413e-05
-5.15453001138e-05
-0.00018207909468
-8.24052528002e-07
-7.06083276857e-07
-6.58973606807e-05
-6.82597055026e-05
-7.03169357029e-05
3.4894539523e-06
0.000483763966594
2.65633121855e-07
-6.02697525196e-08
7.7515926532e-07
6.63227135323e-08
-3.49989388887e-07
-3.36463373005e-09
2.47912749277e-07
4.53347451625e-07
-9.70447416702e-09
2.91348410492e-07
-7.40368261622e-08
-3.51086107656e-07
2.98421940301e-07
-2.05996811544e-08
4.53775773346e-07
4.22116077308e-07
1.25374739808e-08
7.43446103719e-07
-7.86624460414e-08
2.08192427804e-07
8.40362852684e-07
1.42719134123e-06
-1.25300906358e-06
5.67933382981e-07
-6.80120910841e-08
5.65372644222e-07
-7.01779546507e-08
1.6611689885e-06
4.51223216589e-07
0.000128622206193
-4.82112603472e-05
-4.49538438035e-05
-4.03759504194e-05
-6.96829616264e-07
-0.000152271361705
0.000219427385731
-4.75207913035e-05
-2.00999405485e-05
-4.24001105209e-05
-0.000104478095134
-4.68393383029e-07
0.000160562817956
0.00027810437377
-3.5562687825e-07
-7.63247665172e-05
-5.57085535364e-05
-5.27514613911e-05
-0.00016907156769
0.000346614946646
-2.70770208298e-07
-4.93950874965e-05
-2.25492417429e-05
-3.65468206676e-05
-7.37980458616e-08
0.00046730912051
0.000240306667555
-2.99060670947e-05
-2.70953667891e-05
-4.13938031906e-05
2.64812759918e-07
-7.22562008115e-08
-3.12130572209e-07
-2.04089799924e-08
2.51908465243e-07
1.76567659563e-07
-5.44832644889e-08
-2.30794098586e-07
1.41143644333e-07
-1.78624247203e-08
0.00028521980379
1.004420951e-06
-3.92340565525e-05
-4.08784361899e-07
-1.78643403681e-05
0.000516623592427
-0.000209318149556
0.000549140888018
-8.31455532117e-09
-3.37514786439e-05
-3.53481054821e-06
-2.17883721071e-05
2.77521737729e-06
0.000214937343485
6.79477900117e-07
6.82898475692e-07
-1.39943912117e-07
0.000524647927273
3.93676191176e-07
-2.74453065538e-08
-9.03234373007e-08
1.25711402437e-06
1.48686956195e-07
-2.63029509023e-08
-1.41446701526e-07
1.1209589346e-06
0.000135783742718
-1.11937129745e-09
-2.09534042482e-05
-2.94738736758e-06
-7.2811686099e-06
-6.73086146955e-09
0.000425230088683
-1.23696626604e-05
-1.5408165112e-05
-1.05793079373e-05
-0.000321336350709
5.70692135045e-05
1.09928941254e-07
-1.50453270192e-07
-3.63411956847e-08
-1.54967041655e-08
9.54079907899e-08
7.70540435014e-08
-8.43642450601e-08
-1.57700786188e-08
9.97111269705e-05
3.01392269715e-06
3.66957397909e-07
6.63997555413e-07
-7.81619211232e-06
0.000551770745767
0.000529995715604
3.10024248284e-07
-1.53259073004e-05
-1.79865051799e-05
-1.96309156804e-05
2.47117650242e-06
-1.00735352835e-05
-1.36437076744e-05
-1.62920053601e-05
0.000561288364977
9.1596892867e-06
1.30704695782e-07
-1.71353653858e-08
-7.88038229977e-08
8.51715585339e-07
8.72878993205e-08
-2.23475945022e-08
5.793456492e-07
-8.71360424841e-08
0.0124477909379
9.30493939952e-05
-3.78660348603e-05
4.60241743279e-05
-0.0124772516654
4.56820936e-05
-0.0124433773079
0.0124027340512
-2.22525429736e-05
7.21369190688e-06
-7.67264471421e-05
1.06009869654e-05
-0.0114999815927
-0.000102377881433
-0.0115093048155
2.25798863883e-05
0.0115171683808
6.11120237269e-05
0.0124084761261
1.8468889045e-05
-0.0115056004881
-1.97223433928e-05
-0.0124744120783
0.0124513836691
6.20429975801e-05
8.71489089522e-05
-0.0124822219716
-7.78831475014e-05
-0.012459915801
0.0124328421728
9.18807686054e-05
-9.81174340053e-05
-0.0115123791198
0.0115202592608
-8.08867216511e-05
-3.40818568868e-05
5.02218824635e-05
-0.0115054026595
0.0124180512912
7.65925868479e-05
-0.0124876067164
-0.0115084386378
-0.012388879193
0.000108533522559
0.00011855812416
-8.53497930959e-05
0.0123564628202
-8.72092618075e-05
0.0124047924453
0.00010737977875
-0.000110274130772
0.0115276509977
-3.16377776542e-05
-0.000115991013835
-6.74740905377e-05
9.0937977855e-05
0.0115373440839
-6.54628243486e-05
0.000128191056734
0.0123788606515
-3.96284700374e-05
0.0115314914481
-8.2478075284e-05
0.0124904909977
7.12685598668e-05
8.90549149072e-05
-0.0125078595654
-0.0124757459716
9.77476846231e-05
0.01245394799
-7.96092187184e-05
6.14739700751e-05
-0.0115022890022
-8.80437180752e-05
-0.0115197412479
8.50150398189e-05
0.0115373859957
-0.012496182676
0.000104258392117
0.012472142958
7.15085104966e-05
-0.0115105518055
0.0125062032888
9.02763933145e-05
6.42201364218e-05
-0.0125205750092
-0.000105653804823
-0.0125196923297
0.0125057440502
0.000113530566519
-8.01484847807e-05
-0.0115238545246
0.0115415150291
-4.81677886451e-05
-7.1701668468e-05
-0.0115269881016
7.84420735572e-05
0.0124887082402
-0.0125318874412
9.84167501654e-05
-0.0115138465913
-0.000133219847406
-0.0124469506262
9.11287589047e-05
0.0124268896823
0.000141529097349
0.0124269909774
0.000112401580221
-0.000108157409143
0.000106310735331
0.0115513675339
-8.73646864475e-05
0.0115487693106
0.000101376367799
0.0124011584522
0.000120531232573
0.0115657795004
0.00011911831269
-0.000156866810843
0.0124135052159
8.61199592791e-05
0.000165109332988
-0.0123807781847
0.000188082879284
0.0123674062947
-0.000183417254396
-0.000105407116882
0.000123823162037
-0.000107213294847
-8.49752153898e-05
-0.0115707838308
0.000159515419422
0.0115699063047
-0.000149437097824
0.000194506732406
0.0124083709185
0.000139917817791
-0.0124674282938
0.00014284273206
6.94762780248e-05
0.012454185128
-0.00012193971255
0.0124885608567
0.000127857327377
-7.66915662737e-05
0.0115556057767
-5.26605965931e-05
-0.000121853686931
0.0115989508448
0.000123743311218
0.012479596419
0.000146475385996
0.0115781253144
0.0124438565047
0.000164684846848
5.39688477123e-05
-0.000189301579744
-0.0124731940462
0.0124788042285
0.000191269825698
-4.28761157252e-05
-0.0115843818987
0.0115939766114
-3.48349151425e-05
-0.000139040965728
0.000136523231483
0.0124473765475
0.000167664407296
-0.000252064591924
-0.0124087823022
5.75248919302e-05
0.0124228489122
0.000259164980969
-7.96626473213e-05
0.0123683771967
0.000216209063996
-9.18454422926e-05
-0.000216317913459
-8.89398876866e-05
0.000184674275263
0.011527317839
-0.000171485148193
-6.66260072739e-05
0.0115572763493
0.000175902952952
0.0123864828831
-9.92158558958e-05
-0.000260523712478
0.000223536736264
-7.52615405409e-05
0.0115521915813
0.000193294446329
-0.000278372923654
2.48803971401e-05
0.0124674679178
0.000288255638083
-7.99292841468e-05
-0.0124394902529
0.000308573629462
0.012509735179
-0.0003157761626
-0.00010477248497
-6.0581791709e-05
0.000205856002437
-0.000201999882848
-0.0115422829337
-9.98392526547e-06
0.000220865521423
0.0115376136493
-0.000286271263518
-0.000105964613022
0.000207834976087
0.000315842110785
0.0125262755575
-7.6303410411e-05
-0.0124482601599
0.000246597633508
7.92361458679e-06
0.0124646581116
-0.000216067499036
0.0124799237189
0.000220040273388
-2.00224764328e-05
0.0115810401172
1.45958767545e-05
-0.000175953396033
0.0115964272652
0.000159383070733
0.0124946753582
0.000245612220934
0.0115737490704
0.000270959920355
-2.61433839949e-05
0.012492586679
-0.012512540651
-0.00029170835154
0.00028458853952
0.0125445025355
-0.0115624203004
4.32893522301e-05
0.0115451706254
4.20121636805e-05
-0.0001808135838
0.000156564465802
0.000270201348468
0.0125388360566
-0.000140613655828
-0.0125251128162
1.92634214614e-05
0.0125214776238
0.000139763115318
0.0125079371225
0.000124277181842
-0.0125223615237
-3.39326529385e-05
0.000116337409021
0.0116189523796
-2.79427777364e-05
0.0116227303085
-0.0116080365429
9.92382841963e-05
0.0125007389481
-0.012537172253
0.000124081334709
0.0116395142259
0.000111779298456
-0.000162114667533
0.0125220673278
2.92497606894e-06
0.000160317613295
-0.0124987287326
0.000183132972812
0.0125070309369
-1.60826271647e-05
0.000124629617601
4.72772860171e-06
-0.0116398874101
0.000122638505661
0.0116400183469
0.000178901842634
0.0125304200327
0.000117501775587
0.0125413451279
0.000153578973202
1.69232150052e-06
-0.0125406001074
-0.000168681236946
-0.012555249518
0.0125585673259
0.000158834593964
1.6680731736e-07
-0.0116531384361
0.0116458000887
-1.79583861055e-06