/*--------------------------------*- C++ -*----------------------------------*\
| =========                 |                                                 |
| \\      /  F ield         | OpenFOAM: The Open Source CFD Toolbox           |
|  \\    /   O peration     | Version:  v1906                                 |
|   \\  /    A nd           | Web:      www.OpenFOAM.com                      |
|    \\/     M anipulation  |                                                 |
\*---------------------------------------------------------------------------*/
FoamFile
{
    version     2.0;
    format      ascii;
    class       volVectorField;
    location    "8.4";
    object      force.turbine;
}
// * * * * * * * * * * * * * * * * * * * * * * * * * * * * * * * * * * * * * //

dimensions      [1 -2 -2 0 0 0 0];


internalField   nonuniform List<vector> 
28582
(
(0 0 0)
(0 0 0)
(0 0 0)
(0 0 0)
(0 0 0)
(0 0 0)
(0 0 0)
(0 0 0)
(0 0 0)
(0 0 0)
(0 0 0)
(0 0 0)
(0 0 0)
(0 0 0)
(0 0 0)
(0 0 0)
(0 0 0)
(0 0 0)
(0 0 0)
(0 0 0)
(0 0 0)
(0 0 0)
(0 0 0)
(0 0 0)
(0 0 0)
(0 0 0)
(0 0 0)
(0 0 0)
(0 0 0)
(0 0 0)
(0 0 0)
(0 0 0)
(0 0 0)
(0 0 0)
(0 0 0)
(0 0 0)
(0 0 0)
(0 0 0)
(0 0 0)
(0 0 0)
(0 0 0)
(0 0 0)
(0 0 0)
(0 0 0)
(0 0 0)
(0 0 0)
(0 0 0)
(0 0 0)
(0 0 0)
(0 0 0)
(0 0 0)
(0 0 0)
(0 0 0)
(0 0 0)
(0 0 0)
(0 0 0)
(0 0 0)
(0 0 0)
(0 0 0)
(0 0 0)
(0 0 0)
(0 0 0)
(0 0 0)
(0 0 0)
(0 0 0)
(0 0 0)
(0 0 0)
(0 0 0)
(0 0 0)
(0 0 0)
(0 0 0)
(0 0 0)
(0 0 0)
(0 0 0)
(0 0 0)
(0 0 0)
(0 0 0)
(0 0 0)
(0 0 0)
(0 0 0)
(0 0 0)
(0 0 0)
(0 0 0)
(0 0 0)
(0 0 0)
(0 0 0)
(0 0 0)
(0 0 0)
(0 0 0)
(0 0 0)
(0 0 0)
(0 0 0)
(0 0 0)
(0 0 0)
(0 0 0)
(0 0 0)
(0 0 0)
(0 0 0)
(0 0 0)
(0 0 0)
(0 0 0)
(0 0 0)
(0 0 0)
(0 0 0)
(0 0 0)
(0 0 0)
(0 0 0)
(0 0 0)
(0 0 0)
(0 0 0)
(0 0 0)
(0 0 0)
(0 0 0)
(0 0 0)
(0 0 0)
(0 0 0)
(0 0 0)
(0 0 0)
(0 0 0)
(0 0 0)
(0 0 0)
(0 0 0)
(0 0 0)
(0 0 0)
(0 0 0)
(0 0 0)
(0 0 0)
(0 0 0)
(0 0 0)
(0 0 0)
(0 0 0)
(0 0 0)
(0 0 0)
(0 0 0)
(0 0 0)
(0 0 0)
(0 0 0)
(0 0 0)
(0 0 0)
(0 0 0)
(0 0 0)
(0 0 0)
(0 0 0)
(0 0 0)
(0 0 0)
(0 0 0)
(0 0 0)
(0 0 0)
(0 0 0)
(0 0 0)
(0 0 0)
(0 0 0)
(0 0 0)
(0 0 0)
(0 0 0)
(0 0 0)
(0 0 0)
(0 0 0)
(0 0 0)
(0 0 0)
(0 0 0)
(0 0 0)
(0 0 0)
(0 0 0)
(0 0 0)
(0 0 0)
(0 0 0)
(0 0 0)
(0 0 0)
(0 0 0)
(0 0 0)
(0 0 0)
(0 0 0)
(0 0 0)
(0 0 0)
(0 0 0)
(0 0 0)
(0 0 0)
(0 0 0)
(0 0 0)
(0 0 0)
(0 0 0)
(0 0 0)
(0 0 0)
(0 0 0)
(0 0 0)
(0 0 0)
(0 0 0)
(0 0 0)
(0 0 0)
(0 0 0)
(0 0 0)
(0 0 0)
(0 0 0)
(0 0 0)
(0 0 0)
(0 0 0)
(0 0 0)
(0 0 0)
(0 0 0)
(0 0 0)
(0 0 0)
(0 0 0)
(0 0 0)
(0 0 0)
(0 0 0)
(0 0 0)
(0 0 0)
(0 0 0)
(0 0 0)
(0 0 0)
(0 0 0)
(0 0 0)
(0 0 0)
(0 0 0)
(0 0 0)
(0 0 0)
(-0.00184260539063 3.07085452682e-05 0)
(0 0 0)
(0 0 0)
(0 0 0)
(0 0 0)
(-2.3285140114e-05 1.96215574482e-07 0)
(0 0 0)
(-2.27951298895e-06 1.71843447124e-08 0)
(0 0 0)
(0 0 0)
(0 0 0)
(0 0 0)
(0 0 0)
(0 0 0)
(0 0 0)
(0 0 0)
(0 0 0)
(0 0 0)
(0 0 0)
(0 0 0)
(-0.0157552008356 0.000441634119213 0)
(0 0 0)
(0 0 0)
(0 0 0)
(-0.0287281344972 0.000581657361032 0)
(0 0 0)
(0 0 0)
(-0.0891899908383 -0.00304999728312 0.0123159231127)
(-0.93650425425 -0.0513454328581 0.176748664472)
(-0.0780438002441 0.00158014962299 0)
(-0.750993532728 0.015193429136 0)
(-0.00573892232598 5.31328524329e-05 0)
(-0.0778598053237 0.00157642428538 0)
(0 0 0)
(0 0 0)
(0 0 0)
(0 0 0)
(0 0 0)
(-0.0157551777915 0.000441633473263 0)
(0 0 0)
(0 0 0)
(0 0 0)
(-0.0286589515074 0.000580256615874 0)
(0 0 0)
(0 0 0)
(0 0 0)
(0 0 0)
(0 0 0)
(0 0 0)
(0 0 0)
(0 0 0)
(-1.37683009902e-05 1.20957719107e-07 0)
(0 0 0)
(-8.36553139526e-06 7.34931345129e-08 0)
(-0.000118550213623 1.56717165244e-06 0)
(-0.000601947231976 7.95742672562e-06 0)
(-7.20571334398e-05 9.52557514923e-07 0)
(-0.000355704788788 4.70223076438e-06 0)
(0 0 0)
(0 0 0)
(-0.000187587952879 1.69810633316e-06 0)
(0 0 0)
(0 0 0)
(0 0 0)
(0 0 0)
(0 0 0)
(0 0 0)
(-0.00859078488829 0.000143172546859 0)
(-0.000372345019626 5.13325919593e-06 0)
(-0.00186695373186 3.11143305452e-05 0)
(-2.56047898785e-05 3.0256177964e-07 0)
(-0.000121857463054 1.61089175548e-06 0)
(-3.13941237499e-06 2.36667852772e-08 0)
(-2.62623815094e-05 3.10332282544e-07 0)
(0 0 0)
(0 0 0)
(0 0 0)
(0 0 0)
(0 0 0)
(-0.000193836958017 1.75467433253e-06 0)
(0 0 0)
(0 0 0)
(0 0 0)
(0 0 0)
(0 0 0)
(0 0 0)
(0 0 0)
(0 0 0)
(0 0 0)
(0 0 0)
(0 0 0)
(0 0 0)
(0 0 0)
(0 0 0)
(0 0 0)
(0 0 0)
(0 0 0)
(0 0 0)
(0 0 0)
(0 0 0)
(-0.00495420245925 4.65441545411e-05 0)
(0 0 0)
(0 0 0)
(0 0 0)
(0 0 0)
(0 0 0)
(-0.00447760678204 4.14551734435e-05 0)
(0 0 0)
(0 0 0)
(0 0 0)
(0 0 0)
(0 0 0)
(0 0 0)
(0 0 0)
(0 0 0)
(0 0 0)
(0 0 0)
(0 0 0)
(0 0 0)
(0 0 0)
(0 0 0)
(0 0 0)
(0 0 0)
(0 0 0)
(0 0 0)
(0 0 0)
(0 0 0)
(0 0 0)
(0 0 0)
(-0.0351917873996 0.0008135545565 0)
(-0.00844830870816 0.000131941577625 0)
(-0.0139216333348 0.000217421300377 0)
(-0.00995198868634 0.000169022609307 0)
(-0.0188368951084 0.000435466424929 0)
(0 0 0)
(0 0 0)
(0 0 0)
(0 0 0)
(0 0 0)
(0 0 0)
(0 0 0)
(0 0 0)
(0 0 0)
(0 0 0)
(-0.00506462911875 4.68900215595e-05 0)
(0 0 0)
(-0.00775023513585 0.000131628462078 0)
(0 0 0)
(0 0 0)
(-0.126685834716 0.00291381823093 0)
(-0.0986671438724 0.00226937860301 0)
(-0.190192297677 0.00384780037516 0)
(-0.0417710431102 0.000845736596834 0)
(-0.236674870372 0.00544360428014 0)
(-0.0512015141163 0.0011836632404 0)
(-0.100127303552 0.00202727340882 0)
(-0.320369221005 0.00289784471933 0.0105510035331)
(-1.23455290481 0.00059819863275 0.0675293646414)
(-0.402306905792 0.00813911331816 0)
(-0.401754438366 0.00812793629158 0)
(-0.655254327512 0.00103045495737 0.0338544824855)
(-0.215292349725 0.0043556021677 0)
(-0.641996175334 0.00221420926805 0.0300341872799)
(-0.0598448955116 0.00137645339718 0)
(-0.00878211099997 0.000149153637853 0)
(-0.0197375016978 0.000399624387445 0)
(-0.0197387011114 0.000399648671923 0)
(-0.0241861086331 0.000559128147118 0)
(-0.0241865206806 0.000559137672724 0)
(-0.0473204235803 0.000958094675632 0)
(-0.12668486429 0.00291379591079 0)
(-0.0986666501784 0.00226936724787 0)
(-0.189835483999 0.00384058164011 0)
(-0.041746663158 0.000845242976941 0)
(-0.0512018007765 0.00118366986734 0)
(-0.100090159641 0.00202652135757 0)
(-0.25873530767 0.0041231711748 0.00425970638734)
(0 0 0)
(0 0 0)
(0 0 0)
(0 0 0)
(0 0 0)
(0 0 0)
(0 0 0)
(0 0 0)
(0 0 0)
(0 0 0)
(0 0 0)
(0 0 0)
(0 0 0)
(0 0 0)
(0 0 0)
(0 0 0)
(0 0 0)
(0 0 0)
(0 0 0)
(0 0 0)
(0 0 0)
(0 0 0)
(0 0 0)
(-0.00506480752368 4.68916732917e-05 0)
(0 0 0)
(-0.00775019854202 0.000131627840576 0)
(0 0 0)
(0 0 0)
(0 0 0)
(-0.0351902300145 0.000813518553278 0)
(-0.0139109750285 0.000217254844131 0)
(-0.00842825303854 0.000131628357929 0)
(-0.0188364768219 0.000435456755091 0)
(0 0 0)
(-0.00995138732451 0.000169012395896 0)
(0 0 0)
(0 0 0)
(0 0 0)
(0 0 0)
(0 0 0)
(0 0 0)
(0 0 0)
(0 0 0)
(0 0 0)
(0 0 0)
(0 0 0)
(0 0 0)
(0 0 0)
(0 0 0)
(0 0 0)
(0 0 0)
(0 0 0)
(0 0 0)
(0 0 0)
(0 0 0)
(0 0 0)
(0 0 0)
(0 0 0)
(0 0 0)
(0 0 0)
(0 0 0)
(0 0 0)
(0 0 0)
(0 0 0)
(0 0 0)
(0 0 0)
(0 0 0)
(0 0 0)
(0 0 0)
(0 0 0)
(0 0 0)
(-0.015066734144 0.000290391883844 0)
(0 0 0)
(0 0 0)
(0 0 0)
(0 0 0)
(0 0 0)
(0 0 0)
(0 0 0)
(-0.0033619603684 6.479745348e-05 0)
(0 0 0)
(0 0 0)
(0 0 0)
(0 0 0)
(0 0 0)
(0 0 0)
(0 0 0)
(0 0 0)
(0 0 0)
(0 0 0)
(0 0 0)
(0 0 0)
(0 0 0)
(0 0 0)
(0 0 0)
(0 0 0)
(0 0 0)
(0 0 0)
(0 0 0)
(0 0 0)
(0 0 0)
(0 0 0)
(0 0 0)
(0 0 0)
(0 0 0)
(0 0 0)
(0 0 0)
(-0.322343952421 0.00846840903821 0)
(-0.00773571472637 0.000149095932191 0)
(0 0 0)
(0 0 0)
(0 0 0)
(0 0 0)
(0 0 0)
(0 0 0)
(-0.0707871704025 0.00187731093126 0)
(0 0 0)
(0 0 0)
(0 0 0)
(0 0 0)
(0 0 0)
(0 0 0)
(0 0 0)
(0 0 0)
(0 0 0)
(0 0 0)
(0 0 0)
(0 0 0)
(0 0 0)
(0 0 0)
(0 0 0)
(0 0 0)
(0 0 0)
(0 0 0)
(0 0 0)
(0 0 0)
(0 0 0)
(0 0 0)
(0 0 0)
(0 0 0)
(0 0 0)
(0 0 0)
(0 0 0)
(-1.51045473182 0.0505230465672 0)
(-0.0432495408288 0.00147093334234 0)
(0 0 0)
(0 0 0)
(0 0 0)
(0 0 0)
(0 0 0)
(0 0 0)
(-0.331321391899 0.0109563762359 0)
(-0.00657140010471 0.000244346619972 0)
(0 0 0)
(0 0 0)
(0 0 0)
(0 0 0)
(0 0 0)
(0 0 0)
(0 0 0)
(0 0 0)
(0 0 0)
(0 0 0)
(0 0 0)
(0 0 0)
(0 0 0)
(0 0 0)
(0 0 0)
(0 0 0)
(0 0 0)
(0 0 0)
(0 0 0)
(0 0 0)
(0 0 0)
(0 0 0)
(0 0 0)
(0 0 0)
(0 0 0)
(0 0 0)
(0 0 0)
(0 0 0)
(0 0 0)
(0 0 0)
(0 0 0)
(0 0 0)
(0 0 0)
(-2.52172558191 0.0690791024178 0)
(-0.0761528620677 0.00208609985001 0)
(0 0 0)
(0 0 0)
(0 0 0)
(0 0 0)
(0 0 0)
(0 0 0)
(-2.52183858884 0.0690821980826 0)
(-0.562696126173 0.0154142637918 0)
(-0.0157551636968 0.000441633078174 0)
(0 0 0)
(0 0 0)
(0 0 0)
(0 0 0)
(0 0 0)
(0 0 0)
(-0.0461890213192 0.00126528285122 0)
(-0.0761527356584 0.0020860963872 0)
(-0.0157551067144 0.000441631480902 0)
(0 0 0)
(0 0 0)
(0 0 0)
(0 0 0)
(0 0 0)
(0 0 0)
(0 0 0)
(0 0 0)
(0 0 0)
(0 0 0)
(0 0 0)
(0 0 0)
(0 0 0)
(0 0 0)
(0 0 0)
(0 0 0)
(0 0 0)
(0 0 0)
(0 0 0)
(0 0 0)
(0 0 0)
(0 0 0)
(0 0 0)
(0 0 0)
(0 0 0)
(0 0 0)
(-0.0581731787866 0.000970412316762 0)
(-0.00202739040745 3.37881406513e-05 0)
(0 0 0)
(0 0 0)
(0 0 0)
(0 0 0)
(0 0 0)
(0 0 0)
(-0.0250156125421 0.000417296407528 0)
(-0.0498056424028 0.000830829771382 0)
(-0.0127771469181 0.000212941738112 0)
(-0.000348211423701 3.15212152374e-06 0)
(0 0 0)
(0 0 0)
(0 0 0)
(0 0 0)
(0 0 0)
(0 0 0)
(-0.000709858292262 9.78631756704e-06 0)
(-0.00156939897072 2.61553339534e-05 0)
(-0.000312306536982 2.82709896983e-06 0)
(0 0 0)
(0 0 0)
(0 0 0)
(0 0 0)
(0 0 0)
(0 0 0)
(0 0 0)
(0 0 0)
(0 0 0)
(0 0 0)
(0 0 0)
(0 0 0)
(0 0 0)
(0 0 0)
(0 0 0)
(0 0 0)
(0 0 0)
(0 0 0)
(0 0 0)
(0 0 0)
(0 0 0)
(0 0 0)
(0 0 0)
(0 0 0)
(0 0 0)
(0 0 0)
(-0.000184600524256 1.81638457523e-06 0)
(-0.000180566367807 1.77669032422e-06 0)
(-2.34339088104e-05 1.97469195249e-07 0)
(0 0 0)
(0 0 0)
(0 0 0)
(0 0 0)
(0 0 0)
(0 0 0)
(0 0 0)
(-2.39670315293e-05 2.01961630341e-07 0)
(-2.39685479292e-05 2.01974408502e-07 0)
(-2.4503777166e-06 1.84724261549e-08 0)
(0 0 0)
(0 0 0)
(0 0 0)
(0 0 0)
(0 0 0)
(0 0 0)
(0 0 0)
(0 0 0)
(0 0 0)
(0 0 0)
(0 0 0)
(0 0 0)
(0 0 0)
(0 0 0)
(0 0 0)
(0 0 0)
(0 0 0)
(0 0 0)
(0 0 0)
(0 0 0)
(0 0 0)
(0 0 0)
(0 0 0)
(0 0 0)
(0 0 0)
(0 0 0)
(0 0 0)
(0 0 0)
(0 0 0)
(0 0 0)
(0 0 0)
(0 0 0)
(0 0 0)
(0 0 0)
(0 0 0)
(0 0 0)
(-0.00336184123317 6.47951573019e-05 0)
(-0.00913875456148 0.00017613771689 0)
(-0.00203913197651 3.93016409799e-05 0)
(-0.0868301935927 0.00199342886172 0)
(-0.0177991170069 0.000343055042255 0)
(-0.0526683390187 0.00120914837057 0)
(-0.0107958130105 0.000208075383013 0)
(0 0 0)
(0 0 0)
(0 0 0)
(-0.00240892779734 4.64289788636e-05 0)
(0 0 0)
(0 0 0)
(0 0 0)
(0 0 0)
(0 0 0)
(0 0 0)
(-0.0177996769965 0.000343065835332 0)
(-0.00397164782278 7.65483934477e-05 0)
(-0.00397168209005 7.65490539052e-05 0)
(0 0 0)
(0 0 0)
(0 0 0)
(0 0 0)
(0 0 0)
(0 0 0)
(0 0 0)
(0 0 0)
(-0.0707887298421 0.00187735228838 0)
(-0.195505910932 0.00513620314798 0)
(-0.0429348830583 0.00113865443186 0)
(-0.802249762218 0.0242122220335 0)
(-0.177145496536 0.00538898892293 0)
(-0.486583932937 0.0146852997371 0)
(-0.107440383218 0.0032684716595 0)
(0 0 0)
(-0.00469189154393 9.04301629813e-05 0)
(0 0 0)
(-0.0228324253189 0.000716972932293 0)
(0 0 0)
(-0.012209991284 0.000374369657721 0)
(0 0 0)
(-0.014953263849 0.000387820262046 0)
(-0.0149548247715 0.00038786074534 0)
(-0.00284574022771 5.48479755307e-05 0)
(-0.177123910425 0.00538833224624 0)
(-0.0376394123998 0.00118193487994 0)
(-0.0376427805211 0.00118204064408 0)
(-0.00740536308816 0.000227055300871 0)
(0 0 0)
(0 0 0)
(0 0 0)
(-0.00336181127198 6.47945798387e-05 0)
(0 0 0)
(0 0 0)
(0 0 0)
(-0.331345940362 0.0109571880222 0)
(-0.900591732241 0.0297814209846 0)
(-0.200967866812 0.00664575126734 0)
(-2.20740077671 0.071481444752 0)
(-0.486855123836 0.0156335735175 0)
(-1.32330113986 0.0424929812647 0)
(-0.295292526628 0.00948224060542 0)
(0 0 0)
(-0.0262320626578 0.000892162433685 0)
(0 0 0)
(-0.0658894154245 0.00211579784135 0)
(0 0 0)
(-0.0399639558153 0.00128329642783 0)
(0 0 0)
(-0.0739298038059 0.00244476440503 0)
(-0.0739346750921 0.00244492549226 0)
(-0.0140256779885 0.000520683226301 0)
(-0.486840872397 0.0156331158846 0)
(-0.108630192068 0.00348826172463 0)
(-0.108632891731 0.00348834841444 0)
(-0.024239299567 0.000778356544361 0)
(0 0 0)
(0 0 0)
(0 0 0)
(-0.0133515376934 0.000461917040891 0)
(0 0 0)
(0 0 0)
(0 0 0)
(-7.04430659183 0.198288046461 0)
(-4.18338791831 0.115317889393 0)
(-4.06256004258 0.0821900794453 0)
(-1.91557439805 0.038754187091 0)
(-0.562692035437 0.0154141517318 0)
(-1.5295466227 0.0418997644152 0)
(-0.341291978209 0.00934921059061 0)
(-2.43956284548 0.0493550524743 0)
(-0.24842215427 0.00502585472741 0)
(-1.15077633158 0.0232814769813 0)
(-0.117691151428 0.00238102206109 0)
(0 0 0)
(-0.0461891913778 0.00126528750974 0)
(0 0 0)
(-0.0894954652045 0.00181201101381 0)
(0 0 0)
(-0.0424745800692 0.00085998108079 0)
(0 0 0)
(0 0 0)
(0 0 0)
(0 0 0)
(0 0 0)
(0 0 0)
(0 0 0)
(0 0 0)
(0 0 0)
(0 0 0)
(0 0 0)
(0 0 0)
(0 0 0)
(0 0 0)
(0 0 0)
(0 0 0)
(0 0 0)
(0 0 0)
(0 0 0)
(0 0 0)
(0 0 0)
(0 0 0)
(0 0 0)
(0 0 0)
(0 0 0)
(0 0 0)
(0 0 0)
(0 0 0)
(0 0 0)
(0 0 0)
(0 0 0)
(0 0 0)
(0 0 0)
(0 0 0)
(0 0 0)
(0 0 0)
(0 0 0)
(0 0 0)
(0 0 0)
(0 0 0)
(0 0 0)
(0 0 0)
(0 0 0)
(-1.1522412935 -0.0454355109187 0.176748409313)
(-0.623871537944 0.0115968577967 0.0123158983998)
(-1.23537242194 0.0249929493815 0)
(-2.56907591775 0.0519752450592 0)
(-0.130157867805 0.00263323751112 0)
(-0.271141932045 0.00548550094083 0)
(-1.5295714332 0.041900444064 0)
(-0.562697001845 0.0154142877795 0)
(-0.34129224082 0.00934921778448 0)
(-2.54549834876 0.0514982447815 0)
(-1.16136421439 0.0234956815518 0)
(-0.268424654735 0.0054305274178 0)
(-0.121944181632 0.0024670655624 0)
(-0.125554569767 0.00343938969655 0)
(-0.125553986627 0.00343937372225 0)
(-0.0280147096508 0.000767423311662 0)
(-0.697733860234 0.0141159271009 0)
(-0.0703266076214 0.00142389994044 0)
(-0.0719476350356 0.00145672081601 0)
(-0.0051819023413 4.79757760748e-05 0)
(0 0 0)
(0 0 0)
(0 0 0)
(-0.0258461636893 0.000523306216272 0)
(0 0 0)
(0 0 0)
(0 0 0)
(0 0 0)
(0 0 0)
(0 0 0)
(0 0 0)
(0 0 0)
(0 0 0)
(0 0 0)
(0 0 0)
(0 0 0)
(0 0 0)
(0 0 0)
(0 0 0)
(0 0 0)
(0 0 0)
(0 0 0)
(0 0 0)
(0 0 0)
(0 0 0)
(0 0 0)
(0 0 0)
(0 0 0)
(0 0 0)
(0 0 0)
(0 0 0)
(0 0 0)
(0 0 0)
(0 0 0)
(0 0 0)
(0 0 0)
(0 0 0)
(0 0 0)
(0 0 0)
(0 0 0)
(0 0 0)
(0 0 0)
(0 0 0)
(0 0 0)
(0 0 0)
(0 0 0)
(0 0 0)
(0 0 0)
(0 0 0)
(-0.0761527785116 0.0020860975611 0)
(0 0 0)
(0 0 0)
(-0.0471079964628 0.000953793672497 0)
(-0.0980150630877 0.00198450696276 0)
(0 0 0)
(0 0 0)
(-0.0461888257164 0.00126527749296 0)
(0 0 0)
(0 0 0)
(-0.0969802817658 0.00196355578778 0)
(-0.0440208123908 0.000891287583196 0)
(0 0 0)
(0 0 0)
(0 0 0)
(0 0 0)
(0 0 0)
(-0.0264088818259 0.000534699547308 0)
(0 0 0)
(0 0 0)
(0 0 0)
(0 0 0)
(0 0 0)
(0 0 0)
(0 0 0)
(0 0 0)
(0 0 0)
(0 0 0)
(0 0 0)
(0 0 0)
(0 0 0)
(0 0 0)
(0 0 0)
(0 0 0)
(0 0 0)
(0 0 0)
(0 0 0)
(0 0 0)
(0 0 0)
(0 0 0)
(0 0 0)
(0 0 0)
(0 0 0)
(0 0 0)
(0 0 0)
(0 0 0)
(0 0 0)
(0 0 0)
(0 0 0)
(0 0 0)
(0 0 0)
(0 0 0)
(0 0 0)
(0 0 0)
(0 0 0)
(0 0 0)
(0 0 0)
(0 0 0)
(0 0 0)
(0 0 0)
(0 0 0)
(0 0 0)
(0 0 0)
(0 0 0)
(0 0 0)
(0 0 0)
(0 0 0)
(0 0 0)
(0 0 0)
(0 0 0)
(0 0 0)
(0 0 0)
(0 0 0)
(0 0 0)
(0 0 0)
(0 0 0)
(0 0 0)
(0 0 0)
(0 0 0)
(0 0 0)
(0 0 0)
(0 0 0)
(0 0 0)
(0 0 0)
(0 0 0)
(0 0 0)
(0 0 0)
(0 0 0)
(0 0 0)
(0 0 0)
(0 0 0)
(0 0 0)
(0 0 0)
(0 0 0)
(0 0 0)
(0 0 0)
(0 0 0)
(0 0 0)
(0 0 0)
(0 0 0)
(0 0 0)
(0 0 0)
(0 0 0)
(0 0 0)
(0 0 0)
(0 0 0)
(0 0 0)
(0 0 0)
(0 0 0)
(0 0 0)
(0 0 0)
(0 0 0)
(0 0 0)
(0 0 0)
(0 0 0)
(0 0 0)
(0 0 0)
(0 0 0)
(0 0 0)
(0 0 0)
(0 0 0)
(0 0 0)
(0 0 0)
(0 0 0)
(0 0 0)
(0 0 0)
(0 0 0)
(0 0 0)
(0 0 0)
(0 0 0)
(0 0 0)
(0 0 0)
(0 0 0)
(0 0 0)
(0 0 0)
(0 0 0)
(0 0 0)
(0 0 0)
(0 0 0)
(0 0 0)
(0 0 0)
(0 0 0)
(0 0 0)
(0 0 0)
(0 0 0)
(0 0 0)
(0 0 0)
(0 0 0)
(0 0 0)
(0 0 0)
(0 0 0)
(0 0 0)
(0 0 0)
(0 0 0)
(0 0 0)
(0 0 0)
(0 0 0)
(0 0 0)
(0 0 0)
(0 0 0)
(0 0 0)
(0 0 0)
(0 0 0)
(0 0 0)
(0 0 0)
(0 0 0)
(0 0 0)
(0 0 0)
(0 0 0)
(0 0 0)
(0 0 0)
(0 0 0)
(0 0 0)
(0 0 0)
(0 0 0)
(0 0 0)
(0 0 0)
(0 0 0)
(0 0 0)
(0 0 0)
(0 0 0)
(0 0 0)
(0 0 0)
(0 0 0)
(0 0 0)
(0 0 0)
(0 0 0)
(0 0 0)
(0 0 0)
(0 0 0)
(0 0 0)
(-0.00206150869922 2.72701346331e-05 0)
(-0.00378529490129 5.0072794562e-05 0)
(-0.00123649400427 1.6345802278e-05 0)
(-0.00236628216229 3.13017515618e-05 0)
(-0.147666001886 0.00246328136069 0)
(-0.0886030365052 0.00147802612339 0)
(-0.0034778652124 4.6006040437e-05 0)
(-0.00194844814213 2.57745422958e-05 0)
(-0.00209271880938 2.7682989503e-05 0)
(-0.00122195058664 1.61535459239e-05 0)
(-0.0139856933462 0.000233083165508 0)
(-0.0350219682064 0.000584216816299 0)
(-0.00839025252059 0.000139830508828 0)
(-0.000778460608582 1.02908409949e-05 0)
(-0.00020058182546 2.65158654082e-06 0)
(-0.000503075264658 6.65039116941e-06 0)
(-0.000125021985456 1.65272508205e-06 0)
(0 0 0)
(-0.00114774353889 1.58231338277e-05 0)
(0 0 0)
(-2.48773813001e-05 2.1855356747e-07 0)
(0 0 0)
(-1.43227797544e-05 1.25828943716e-07 0)
(0 0 0)
(0 0 0)
(0 0 0)
(0 0 0)
(0 0 0)
(0 0 0)
(0 0 0)
(0 0 0)
(0 0 0)
(0 0 0)
(0 0 0)
(0 0 0)
(0 0 0)
(0 0 0)
(0 0 0)
(0 0 0)
(0 0 0)
(0 0 0)
(0 0 0)
(0 0 0)
(0 0 0)
(0 0 0)
(0 0 0)
(0 0 0)
(0 0 0)
(0 0 0)
(0 0 0)
(0 0 0)
(0 0 0)
(0 0 0)
(0 0 0)
(0 0 0)
(0 0 0)
(0 0 0)
(0 0 0)
(0 0 0)
(0 0 0)
(0 0 0)
(0 0 0)
(0 0 0)
(0 0 0)
(0 0 0)
(0 0 0)
(-0.0451415600033 0.000753026166675 0)
(-0.00554205216205 9.23628903741e-05 0)
(-0.0101534309536 0.00016921533805 0)
(-0.000413505154455 5.46632128606e-06 0)
(-0.000882236244109 1.16627004732e-05 0)
(-8.4383160234e-05 1.11550112496e-06 0)
(-0.000188476889032 2.49156562946e-06 0)
(-0.0325751340518 0.000543400102305 0)
(-0.0112354271135 0.000187247700391 0)
(-0.00735408656796 0.000122561944857 0)
(-0.000828770984872 1.0955917785e-05 0)
(-0.00051984636502 6.87209632088e-06 0)
(-0.000187558797431 2.47942893997e-06 0)
(-0.000121202769009 1.60223704354e-06 0)
(-0.00306980159462 5.11607866298e-05 0)
(-0.00289046377532 4.81719733058e-05 0)
(-0.000647792230813 8.93065638214e-06 0)
(-0.000229102700017 3.02861754516e-06 0)
(-5.02542860978e-05 5.93835228034e-07 0)
(-4.86740752654e-05 5.75162495162e-07 0)
(-5.88964157529e-06 4.43996728918e-08 0)
(0 0 0)
(0 0 0)
(0 0 0)
(0 0 0)
(0 0 0)
(0 0 0)
(0 0 0)
(0 0 0)
(0 0 0)
(0 0 0)
(0 0 0)
(0 0 0)
(0 0 0)
(0 0 0)
(0 0 0)
(0 0 0)
(0 0 0)
(0 0 0)
(0 0 0)
(0 0 0)
(0 0 0)
(0 0 0)
(0 0 0)
(0 0 0)
(0 0 0)
(0 0 0)
(0 0 0)
(0 0 0)
(0 0 0)
(0 0 0)
(0 0 0)
(0 0 0)
(0 0 0)
(0 0 0)
(0 0 0)
(0 0 0)
(0 0 0)
(0 0 0)
(0 0 0)
(0 0 0)
(0 0 0)
(0 0 0)
(0 0 0)
(0 0 0)
(0 0 0)
(0 0 0)
(0 0 0)
(0 0 0)
(0 0 0)
(-0.00141352737499 2.35576046849e-05 0)
(0 0 0)
(0 0 0)
(-9.55151783344e-06 8.39123005782e-08 0)
(-2.10016632427e-05 1.84504484983e-07 0)
(0 0 0)
(0 0 0)
(-0.000961595955604 1.32568478742e-05 0)
(0 0 0)
(0 0 0)
(-2.1110181172e-05 1.85457840173e-07 0)
(-1.36475445198e-05 1.19896845493e-07 0)
(0 0 0)
(0 0 0)
(0 0 0)
(0 0 0)
(0 0 0)
(0 0 0)
(0 0 0)
(0 0 0)
(0 0 0)
(0 0 0)
(0 0 0)
(0 0 0)
(0 0 0)
(0 0 0)
(0 0 0)
(0 0 0)
(0 0 0)
(0 0 0)
(0 0 0)
(0 0 0)
(0 0 0)
(0 0 0)
(0 0 0)
(0 0 0)
(0 0 0)
(0 0 0)
(0 0 0)
(0 0 0)
(0 0 0)
(0 0 0)
(0 0 0)
(0 0 0)
(0 0 0)
(0 0 0)
(0 0 0)
(0 0 0)
(0 0 0)
(0 0 0)
(0 0 0)
(0 0 0)
(0 0 0)
(0 0 0)
(0 0 0)
(0 0 0)
(0 0 0)
(0 0 0)
(0 0 0)
(0 0 0)
(0 0 0)
(0 0 0)
(0 0 0)
(0 0 0)
(0 0 0)
(0 0 0)
(0 0 0)
(0 0 0)
(0 0 0)
(0 0 0)
(0 0 0)
(0 0 0)
(0 0 0)
(0 0 0)
(0 0 0)
(0 0 0)
(0 0 0)
(0 0 0)
(0 0 0)
(0 0 0)
(0 0 0)
(0 0 0)
(0 0 0)
(0 0 0)
(0 0 0)
(0 0 0)
(0 0 0)
(0 0 0)
(0 0 0)
(0 0 0)
(0 0 0)
(0 0 0)
(0 0 0)
(0 0 0)
(0 0 0)
(0 0 0)
(0 0 0)
(0 0 0)
(0 0 0)
(0 0 0)
(0 0 0)
(0 0 0)
(0 0 0)
(0 0 0)
(0 0 0)
(0 0 0)
(0 0 0)
(0 0 0)
(0 0 0)
(0 0 0)
(0 0 0)
(0 0 0)
(0 0 0)
(0 0 0)
(0 0 0)
(0 0 0)
(0 0 0)
(0 0 0)
(0 0 0)
(0 0 0)
(0 0 0)
(0 0 0)
(0 0 0)
(0 0 0)
(0 0 0)
(0 0 0)
(0 0 0)
(0 0 0)
(0 0 0)
(0 0 0)
(0 0 0)
(0 0 0)
(0 0 0)
(0 0 0)
(0 0 0)
(0 0 0)
(0 0 0)
(0 0 0)
(0 0 0)
(0 0 0)
(0 0 0)
(0 0 0)
(0 0 0)
(0 0 0)
(0 0 0)
(0 0 0)
(0 0 0)
(0 0 0)
(0 0 0)
(0 0 0)
(0 0 0)
(0 0 0)
(0 0 0)
(0 0 0)
(0 0 0)
(0 0 0)
(0 0 0)
(0 0 0)
(0 0 0)
(0 0 0)
(0 0 0)
(0 0 0)
(0 0 0)
(0 0 0)
(0 0 0)
(0 0 0)
(0 0 0)
(0 0 0)
(0 0 0)
(0 0 0)
(0 0 0)
(0 0 0)
(0 0 0)
(0 0 0)
(0 0 0)
(0 0 0)
(0 0 0)
(0 0 0)
(0 0 0)
(0 0 0)
(0 0 0)
(0 0 0)
(0 0 0)
(0 0 0)
(0 0 0)
(0 0 0)
(0 0 0)
(0 0 0)
(0 0 0)
(0 0 0)
(0 0 0)
(0 0 0)
(0 0 0)
(0 0 0)
(0 0 0)
(0 0 0)
(-6.93192743239 0.159974088919 0)
(-5.38519593432 0.123861378233 0)
(-5.95883431576 0.12055380368 0)
(-3.58518061308 0.0725321660053 0)
(-4.75235246354 0.109305758446 0)
(-5.26131722055 0.106442261976 0)
(-7.863482653 0.18174877725 0)
(-5.38545342834 0.123867300685 0)
(-2.54341345434 0.0584993934694 0)
(-2.78964491907 0.0564375997203 0)
(-2.81654328224 0.0569817833342 0)
(-3.7009543144 0.0851232355795 0)
(-3.70115659437 0.0851278880891 0)
(-4.09713040037 0.0828894759892 0)
(-1.54240831792 0.0354759274101 0)
(-3.26590033581 0.0751168428595 0)
(-1.29113114155 0.0261210099016 0)
(-2.15244918082 0.0435464257314 0)
(-2.88205568107 0.0662882823866 0)
(-1.13947024313 0.0230527423168 0)
(-1.74778736414 0.0401997168573 0)
(-0.728430870592 0.0167541632058 0)
(-0.34400796133 0.00791230267816 0)
(-0.602714679852 0.0121935840703 0)
(-0.219459958886 0.00443991750689 0)
(-0.303607622881 0.00698308085179 0)
(-0.532267622908 0.010768362253 0)
(-0.825391338558 0.0189842876698 0)
(-1.20121816074 0.0276284352069 0)
(-1.5424943747 0.035477906746 0)
(-1.67541880659 0.0338955740651 0)
(-0.609681714533 0.0123345348816 0)
(-2.24451291775 0.0516245772383 0)
(-0.825512867718 0.0189870828827 0)
(-0.887609528979 0.0179573217229 0)
(-0.567297372909 0.0130480367536 0)
(-0.162503602348 0.00373763933571 0)
(-0.171128110551 0.0034621108006 0)
(-0.285057171592 0.00576702161544 0)
(-0.236451417431 0.00543846478483 0)
(-0.389861764536 0.00896695608939 0)
(-0.41493545728 0.00839460287135 0)
(-0.0351490954509 0.000812567615172 0)
(-0.12653558537 0.00291036244374 0)
(-0.0289765450417 0.000586686919139 0)
(-0.079046633361 0.00160045394398 0)
(-0.111681104123 0.00256870421205 0)
(-0.0256071989508 0.000518467907012 0)
(-0.0398273411296 0.000920718077812 0)
(-0.0087712774969 0.000148969643777 0)
(0 0 0)
(-0.00752245580839 0.000117482057209 0)
(0 0 0)
(0 0 0)
(-0.00512051025221 4.74073876867e-05 0)
(-0.00993889666657 0.00016880025703 0)
(-0.0273747011717 0.000632841197243 0)
(-0.0597748711536 0.00137484281261 0)
(-0.0617105661391 0.00124945130188 0)
(-0.0124792176002 0.000194894352772 0)
(-0.0869753569154 0.00200046343926 0)
(-0.0188141639266 0.000434940931401 0)
(-0.0199987349405 0.000404913566198 0)
(-0.00494801416004 4.64860161914e-05 0)
(0 0 0)
(0 0 0)
(0 0 0)
(0 0 0)
(0 0 0)
(-0.0039993727927 3.70275240452e-05 0)
(0 0 0)
(0 0 0)
(0 0 0)
(0 0 0)
(0 0 0)
(0 0 0)
(0 0 0)
(0 0 0)
(0 0 0)
(0 0 0)
(0 0 0)
(0 0 0)
(0 0 0)
(0 0 0)
(0 0 0)
(0 0 0)
(0 0 0)
(0 0 0)
(0 0 0)
(0 0 0)
(0 0 0)
(0 0 0)
(0 0 0)
(0 0 0)
(0 0 0)
(0 0 0)
(0 0 0)
(0 0 0)
(0 0 0)
(0 0 0)
(0 0 0)
(0 0 0)
(0 0 0)
(0 0 0)
(0 0 0)
(0 0 0)
(0 0 0)
(0 0 0)
(0 0 0)
(0 0 0)
(0 0 0)
(0 0 0)
(0 0 0)
(0 0 0)
(0 0 0)
(0 0 0)
(0 0 0)
(0 0 0)
(0 0 0)
(0 0 0)
(0 0 0)
(0 0 0)
(0 0 0)
(0 0 0)
(0 0 0)
(0 0 0)
(0 0 0)
(0 0 0)
(0 0 0)
(0 0 0)
(0 0 0)
(0 0 0)
(0 0 0)
(0 0 0)
(0 0 0)
(0 0 0)
(0 0 0)
(0 0 0)
(0 0 0)
(0 0 0)
(0 0 0)
(0 0 0)
(0 0 0)
(0 0 0)
(0 0 0)
(0 0 0)
(0 0 0)
(0 0 0)
(0 0 0)
(0 0 0)
(0 0 0)
(0 0 0)
(0 0 0)
(0 0 0)
(0 0 0)
(0 0 0)
(0 0 0)
(0 0 0)
(0 0 0)
(0 0 0)
(0 0 0)
(0 0 0)
(0 0 0)
(0 0 0)
(0 0 0)
(0 0 0)
(0 0 0)
(0 0 0)
(0 0 0)
(0 0 0)
(0 0 0)
(0 0 0)
(0 0 0)
(0 0 0)
(0 0 0)
(0 0 0)
(0 0 0)
(0 0 0)
(0 0 0)
(0 0 0)
(0 0 0)
(0 0 0)
(0 0 0)
(0 0 0)
(0 0 0)
(0 0 0)
(0 0 0)
(0 0 0)
(0 0 0)
(0 0 0)
(0 0 0)
(0 0 0)
(0 0 0)
(0 0 0)
(0 0 0)
(0 0 0)
(0 0 0)
(0 0 0)
(0 0 0)
(0 0 0)
(0 0 0)
(0 0 0)
(0 0 0)
(0 0 0)
(0 0 0)
(0 0 0)
(0 0 0)
(0 0 0)
(0 0 0)
(0 0 0)
(0 0 0)
(0 0 0)
(0 0 0)
(0 0 0)
(0 0 0)
(0 0 0)
(0 0 0)
(0 0 0)
(0 0 0)
(0 0 0)
(0 0 0)
(0 0 0)
(0 0 0)
(0 0 0)
(0 0 0)
(0 0 0)
(0 0 0)
(0 0 0)
(0 0 0)
(0 0 0)
(0 0 0)
(0 0 0)
(0 0 0)
(0 0 0)
(0 0 0)
(0 0 0)
(0 0 0)
(0 0 0)
(-1.2540574316 0.0243731035479 0.010550754645)
(-1.84178229295 0.0145648018208 0.0675290823354)
(-1.7899711369 0.0362130943062 0)
(-0.660751004829 0.0133677230641 0)
(-2.39968674049 0.0411530770906 0.033854312934)
(-0.957784080293 0.0193770304502 0)
(-0.967010842385 0.00968973726297 0.0300340013915)
(-1.54323394443 0.0354949171069 0)
(-3.26696956408 0.0751414354811 0)
(-2.28395034744 0.0462068396621 0)
(-1.37659792534 0.0278500973923 0)
(-2.88317295666 0.0663139801135 0)
(-1.74866383194 0.0402198759212 0)
(-1.22336994366 0.0247501259812 0)
(-0.567711767935 0.0130575679833 0)
(-0.162662399156 0.00374129171749 0)
(-0.312140913547 0.00631495564709 0)
(-0.188734903595 0.00381831568221 0)
(-0.236667215231 0.00544342820922 0)
(-0.45269229058 0.0091584653364 0)
(-0.412258203826 0.00765429696951 0.0042595995985)
(-0.728936607214 0.0167657953239 0)
(-0.344317296792 0.00791941750128 0)
(-0.650624292988 0.0131628484919 0)
(-0.241010183453 0.00487590236636 0)
(-0.8259566432 0.0189972898731 0)
(-0.303877389602 0.00698928558013 0)
(-0.578245558376 0.0116985467005 0)
(-1.54284672259 0.03548601087 0)
(-3.26676569895 0.0751367465123 0)
(-2.2196899272 0.0449067803425 0)
(-1.36297584612 0.027574507675 0)
(-2.88250904827 0.0662987099897 0)
(-1.748535934 0.0402169342243 0)
(-1.18902906553 0.0240553720644 0)
(-1.20137727272 0.0276320948378 0)
(-1.54232516245 0.0354740148054 0)
(-1.70772241714 0.0345491118073 0)
(-0.621458610302 0.0125727944984 0)
(-2.24447341491 0.0516236686591 0)
(-0.825517789064 0.0189871960754 0)
(-0.915310104827 0.0185177349859 0)
(-0.728741606263 0.0167613102343 0)
(-0.344287793715 0.00791873892027 0)
(-0.644181464694 0.0130325029551 0)
(-0.23400390338 0.00473415757743 0)
(-0.825888498258 0.0189957225157 0)
(-0.303786238793 0.00698718907986 0)
(-0.561602995581 0.0113618492625 0)
(-0.56744639071 0.0130514642148 0)
(-0.162535272984 0.00373836777135 0)
(-0.293184201732 0.00593144041684 0)
(-0.179796178038 0.00363747538546 0)
(-0.38990556163 0.00896796343778 0)
(-0.236544497674 0.00544060566277 0)
(-0.432051004505 0.00874086930716 0)
(-0.26788595773 0.00616147013746 0)
(-0.935303046992 0.021512295166 0)
(-0.369769509641 0.00748084583496 0)
(-0.37261342476 0.00753838138079 0)
(-0.50053842684 0.0115125577905 0)
(-0.5005886099 0.0115137120183 0)
(-0.19748048882 0.0039952485366 0)
(-0.126516991362 0.0029099347751 0)
(-0.0985339442294 0.00226631496492 0)
(-0.173001801687 0.00350001764302 0)
(-0.0376855175501 0.000763017128365 0)
(-0.23638824041 0.00543701169137 0)
(-0.0511257290424 0.00118191126085 0)
(-0.0910791094162 0.00184407499322 0)
(-0.12652280818 0.00291006856394 0)
(-0.0985575539539 0.00226685799679 0)
(-0.175765433306 0.00355592896492 0)
(-0.0381315521477 0.000772047972569 0)
(-0.236428540145 0.00543793859928 0)
(-0.0511317573984 0.00118205062281 0)
(-0.091624047124 0.00185510832464 0)
(-0.0597546157916 0.00137437693224 0)
(-0.00876889368372 0.000148929157565 0)
(-0.0178198734427 0.000360798246807 0)
(-0.0178932163873 0.000362283218397 0)
(-0.0241491233784 0.000558273131651 0)
(-0.0241489358621 0.000558268796699 0)
(-0.0429930948418 0.000870479428127 0)
(0 0 0)
(-0.035137717541 0.000812304583621 0)
(-0.00759636414314 0.000118636321645 0)
(-0.0125361659301 0.000195783744099 0)
(-0.00993662788889 0.000168761724558 0)
(-0.0188071718678 0.000434779290811 0)
(0 0 0)
(0 0 0)
(0 0 0)
(0 0 0)
(0 0 0)
(0 0 0)
(0 0 0)
(0 0 0)
(0 0 0)
(0 0 0)
(-0.0045729377858 4.23377795963e-05 0)
(0 0 0)
(-0.00773835956171 0.000131426769674 0)
(0 0 0)
(0 0 0)
(0 0 0)
(0 0 0)
(0 0 0)
(0 0 0)
(0 0 0)
(0 0 0)
(0 0 0)
(0 0 0)
(0 0 0)
(0 0 0)
(0 0 0)
(0 0 0)
(0 0 0)
(0 0 0)
(0 0 0)
(0 0 0)
(0 0 0)
(0 0 0)
(0 0 0)
(0 0 0)
(0 0 0)
(0 0 0)
(0 0 0)
(0 0 0)
(0 0 0)
(0 0 0)
(0 0 0)
(0 0 0)
(0 0 0)
(0 0 0)
(0 0 0)
(0 0 0)
(0 0 0)
(0 0 0)
(0 0 0)
(0 0 0)
(0 0 0)
(0 0 0)
(0 0 0)
(0 0 0)
(0 0 0)
(0 0 0)
(0 0 0)
(0 0 0)
(0 0 0)
(0 0 0)
(0 0 0)
(0 0 0)
(0 0 0)
(0 0 0)
(0 0 0)
(0 0 0)
(0 0 0)
(0 0 0)
(0 0 0)
(0 0 0)
(0 0 0)
(0 0 0)
(0 0 0)
(0 0 0)
(0 0 0)
(0 0 0)
(0 0 0)
(0 0 0)
(0 0 0)
(0 0 0)
(0 0 0)
(0 0 0)
(0 0 0)
(0 0 0)
(0 0 0)
(0 0 0)
(0 0 0)
(0 0 0)
(0 0 0)
(0 0 0)
(0 0 0)
(0 0 0)
(0 0 0)
(0 0 0)
(0 0 0)
(0 0 0)
(0 0 0)
(0 0 0)
(0 0 0)
(0 0 0)
(0 0 0)
(0 0 0)
(0 0 0)
(0 0 0)
(0 0 0)
(0 0 0)
(0 0 0)
(0 0 0)
(0 0 0)
(0 0 0)
(0 0 0)
(0 0 0)
(0 0 0)
(0 0 0)
(0 0 0)
(0 0 0)
(0 0 0)
(0 0 0)
(0 0 0)
(0 0 0)
(0 0 0)
(0 0 0)
(0 0 0)
(0 0 0)
(0 0 0)
(0 0 0)
(0 0 0)
(0 0 0)
(0 0 0)
(0 0 0)
(0 0 0)
(0 0 0)
(0 0 0)
(0 0 0)
(0 0 0)
(0 0 0)
(0 0 0)
(0 0 0)
(0 0 0)
(0 0 0)
(0 0 0)
(0 0 0)
(0 0 0)
(0 0 0)
(0 0 0)
(0 0 0)
(0 0 0)
(0 0 0)
(0 0 0)
(0 0 0)
(0 0 0)
(0 0 0)
(0 0 0)
(0 0 0)
(0 0 0)
(0 0 0)
(0 0 0)
(0 0 0)
(0 0 0)
(0 0 0)
(0 0 0)
(0 0 0)
(0 0 0)
(0 0 0)
(0 0 0)
(0 0 0)
(0 0 0)
(0 0 0)
(0 0 0)
(0 0 0)
(0 0 0)
(0 0 0)
(0 0 0)
(0 0 0)
(0 0 0)
(0 0 0)
(0 0 0)
(0 0 0)
(0 0 0)
(0 0 0)
(0 0 0)
(0 0 0)
(0 0 0)
(0 0 0)
(0 0 0)
(0 0 0)
(0 0 0)
(0 0 0)
(0 0 0)
(-0.0274055853589 0.000633555169823 0)
(-0.0598441687738 0.00137643668196 0)
(-0.068291008919 0.00138268525699 0)
(-0.0138607337317 0.000216470199986 0)
(-0.0870700941093 0.00200264242765 0)
(-0.0221923452663 0.000449327504505 0)
(-0.0188362224895 0.0004354508755 0)
(-0.0351877701767 0.000813461687389 0)
(-0.126673624418 0.00291353738984 0)
(-0.0871548038706 0.00176461973977 0)
(-0.0318042023065 0.000643938379818 0)
(-0.111795484363 0.00257133499735 0)
(-0.0398706957534 0.000921720338688 0)
(-0.0283065628756 0.000573121817698 0)
(-0.00495377161693 4.65401068277e-05 0)
(0 0 0)
(0 0 0)
(0 0 0)
(0 0 0)
(-0.0044397716516 4.11048832168e-05 0)
(0 0 0)
(-0.00878167124908 0.00014914616921 0)
(0 0 0)
(-0.00824136077399 0.000128709565412 0)
(0 0 0)
(-0.00995004596432 0.0001689896145 0)
(0 0 0)
(-0.00565780205097 5.23818139353e-05 0)
(-0.0351764315038 0.000813199562909 0)
(-0.126663032021 0.00291329376102 0)
(-0.0845023019052 0.00171091464126 0)
(-0.0314366939398 0.000636497452989 0)
(-0.111761955758 0.00257056382777 0)
(-0.0398662307999 0.000921617119059 0)
(-0.0273652783424 0.000554063668356 0)
(-0.027390179591 0.000633199023301 0)
(-0.0597965062502 0.00137534042735 0)
(-0.0649190043271 0.0013144124183 0)
(-0.0128899908942 0.000201309610349 0)
(-0.0870239979272 0.00200158219944 0)
(-0.0188199926056 0.000435075677281 0)
(-0.0210084973264 0.000425358183815 0)
(-0.0087777754309 0.000149080003404 0)
(0 0 0)
(-0.00813133673203 0.000126991263422 0)
(0 0 0)