/*--------------------------------*- C++ -*----------------------------------*\
| =========                 |                                                 |
| \\      /  F ield         | OpenFOAM: The Open Source CFD Toolbox           |
|  \\    /   O peration     | Version:  v1906                                 |
|   \\  /    A nd           | Web:      www.OpenFOAM.com                      |
|    \\/     M anipulation  |                                                 |
\*---------------------------------------------------------------------------*/
FoamFile
{
    version     2.0;
    format      ascii;
    class       volScalarField;
    location    "8.4";
    object      p;
}
// * * * * * * * * * * * * * * * * * * * * * * * * * * * * * * * * * * * * * //

dimensions      [1 -1 -2 0 0 0 0];


internalField   nonuniform List<scalar> 
28582
(
17096.1567366
17095.1440366
12197.5236755
12197.1128498
7297.89109903
7299.37320709
3620.18481652
3625.80032874
46.363750975
50.865727605
-27.3242837906
3623.15229128
638.602147838
648.823440483
3627.25108286
3627.9680401
651.506855888
1794.19356892
1794.68997374
17097.4127876
17094.7932803
17094.663464
12198.3758225
12197.0291941
12196.7382483
7296.3513969
7299.51128139
3617.86469544
3627.60289433
50.348677521
-27.435663534
-27.224716835
3616.37246276
3617.07463434
626.9392446
634.190242475
1775.48758084
3626.81194295
3628.1009121
3627.33467437
1794.01893989
651.869542086
1794.56849591
1793.8610787
49.4510514362
49.0139120746
-22.9548044427
-22.8783894997
50.9375498429
-22.8308554343
1780.21262098
1784.28822202
641.934766046
638.944506144
1781.60141633
642.253748682
1782.92667573
1787.239601
1789.05708986
645.555201451
649.047639606
1790.07104644
645.902627688
1786.0203351
1793.47022812
1791.35112917
652.909567437
651.473540441
1792.16254389
652.560870031
1792.84715769
1793.90855859
653.763028152
653.328985168
1794.11087883
653.589269693
653.140779948
1793.67467868
1795.30625417
652.62884694
652.022940767
1794.56696888
651.620548189
1795.14253315
652.320653913
43.832582019
-22.7839810521
40.3142121977
43.8819388793
-22.7907110317
-22.806568018
48.8720409909
-22.9302015988
-22.863143803
49.6429127181
-22.899337576
50.7804674504
-22.8403537319
1773.45810969
1772.65166324
627.759160409
627.592870601
1772.70168441
1773.46795459
628.351823411
1774.55248815
1775.09845682
630.219772133
634.56951784
1773.92470377
1775.61785547
630.862103924
631.523479985
634.987590831
1777.00182993
1775.36168403
634.795064292
1776.2700979
631.180948522
1793.7698083
653.387583753
653.086414639
1793.35033426
652.886450399
1793.05566025
652.778718095
1792.40230465
1791.1980688
652.317245108
651.799476355
1792.15875744
1791.36857233
652.323235363
1794.85314085
1795.26424414
652.678996907
652.210824228
652.526601138
1794.02327586
652.650306196
652.516730578
651.889554621
1792.63678333
1793.03462219
651.775756546
1791.84192749
652.387781942
7298.18262352
3625.67407544
51.7728243769
-27.1412833921
3618.66167698
638.54171806
3625.90305263
3624.00557274
651.52850427
651.125812552
649.884215159
3622.066025
3620.69270027
649.691414001
651.608142789
47.1863322027
50.9104415366
52.6114716589
-22.7705306568
-22.8197650423
-22.7610951003
54.3053983543
55.4087212014
1781.08639232
1779.15518475
638.567036962
641.853248539
1778.33304579
641.886818879
1781.87780644
1789.13635843
1790.19709669
651.331499606
651.34487247
1789.22753754
1790.25956617
651.153216602
1789.15106938
1791.04280074
651.148584306
650.657910344
1790.55490594
650.876775004
1789.25896198
1787.70472332
1785.84202644
650.43119556
650.226178524
1786.37836751
650.72488111
1787.45211858
1784.81157015
1784.73372464
650.145682902
650.14930175
1785.34768868
650.356809261
1784.23921633
1784.26758433
1783.75777713
651.290693176
650.91653753
1784.2176032
650.849984434
1783.69211379
3654.34205129
3649.96493267
3650.5751957
3648.3543075
10.4841915724
13.2754090444
8.88871786605
10.9600775035
10.9369705552
-27.1129901986
-27.1800388857
-27.1031168179
-27.1233240891
-27.0234831339
-27.0293437856
3655.22803119
3654.65552119
623.28398021
622.737881431
3656.77683871
624.120413831
3652.82716123
3651.04106671
622.251059086
620.477470721
3655.69719438
3651.86394427
3652.57219028
623.478633821
626.854814489
621.324903081
623.549746497
3652.69181536
3651.72391544
627.953432289
631.046774481
624.395514254
628.80233961
3650.42412794
3649.18843285
620.593245067
622.733588287
620.862511499
3649.73151888
3649.32417908
3648.77283102
623.576992703
628.499998108
622.178496072
628.919820244
622.084133494
629.489772448
9.35034171399
9.32463279297
10.9741482324
-23.2090543568
-23.1929888588
-23.2096669108
-23.2010394608
-23.1896817788
-23.1560889194
-23.1977653477
-23.1551764175
9.18242636456
8.80613307775
11.8210204455
9.8811274007
10.7765982679
-23.2090487506
-23.2044833078
-23.2158964523
-23.2110182391
14.8854722156
11.8800264997
13.9524824316
-23.1889196592
-23.1592159954
-23.1954460252
-23.1678845227
9.72316137232
8.79399580683
-23.2198107164
-23.2106325731
-23.2003005691
13.3365284612
10.6031211146
13.3761295516
-23.1881269668
-23.1535788037
-23.1804760377
-23.146568585
1816.79439598
1818.02229731
621.834758472
623.272843801
1817.92471899
621.801399526
1816.82707999
1816.58483201
1817.03082888
623.101513675
621.495714537
1817.60849688
1816.08396352
621.747085298
1819.80828885
1818.03372731
624.562782995
625.36874533
1818.70326204
1818.95034776
626.019955883
1814.75162577
1816.25711577
621.150217231
621.693313638
1815.42785812
1815.43628633
620.781236572
1814.04816007
1813.8929309
621.059811213
619.784228451
1814.58963891
1813.41764952
620.29150512
1816.84479102
1817.11905671
624.564626189
622.689245914
1817.93044383
1816.13605692
623.702072142
1817.53349396
1819.48077667
625.674531992
625.691617716
1818.71560101
1818.19501029
624.711511384
1815.77451095
1814.40716469
622.003329168
622.019505398
1815.1797539
1814.88303068
622.873175129
1816.35730071
1815.8788331
624.557129528
622.710946949
1816.93305723
1815.3529574
623.696160628
1818.99138577
1820.05056827
629.026603373
626.666371854
1820.39712456
1818.70009115
627.703093712
1819.06998351
1819.59324956
629.951942014
630.048828442
1820.42828039
628.751313886
1818.51607406
1817.63942437
1816.30564178
625.438135275
625.582539381
1817.34760313
1816.7078148
626.538310273
1817.71575798
1816.76634862
629.340392714
627.033872098
1816.86849124
627.848322273
1817.41206192
1813.45933756
1813.65549612
621.207241679
619.788301439
1814.09051698
1813.05088058
620.404753268
1813.89775102
1815.02394936
621.882343156
621.967329555
1814.53456857
1814.36638252
621.105696573
1813.29067623
1813.24937263
621.310007043
619.752245156
1813.76224351
1812.75159785
620.307143244
1815.36133518
1815.4451019
624.866697298
622.921714542
1815.91590403
1814.83187283
624.358710037
1815.83456498
1816.33069599
626.528009431
628.475046012
1816.20855956
626.216141159
1816.29422357
1814.9086528
1813.81778512
622.483037732
623.917765912
1814.28747881
1814.55552501
624.009465894
1815.5473885
1816.24434303
628.699232321
626.09171258
1815.32423798
626.023251319
1816.28880516
1813.88634753
1813.38715884
624.000205682
622.276532801
1814.20596615
1813.02912321
624.299437545
1816.07954024
626.416465584
1815.09947014
17095.0704704
17094.229217
17094.2964832
17094.5167645
17094.582224
17102.0001168
12196.3876467
12196.2320363
12196.7741735
12196.0630603
12195.7257304
12203.2451335
18312.3799453
18315.1743968
17087.9109114
17093.9533799
17099.0753143
17102.8088369
17107.8858132
17095.6665177
18314.3192756
18315.8902435
17093.0593203
17095.3458391
17097.3450292
17097.6289703
17096.5629308
17104.6054903
17093.9325717
17091.8562702
17092.7122588
17094.6029625
17096.1793782
17096.507112
17096.2851292
17105.3444073
17096.2395596
17093.8203627
17093.8041469
17094.8759438
17095.8154954
17095.7417322
17095.3743466
17104.3570903
17094.7605395
17094.8500919
17094.7697014
17102.9765834
13412.032589
13413.9337621
12192.5861066
12196.946246
12200.9377719
12205.7167923
12228.0945067
12150.5371719
13415.7568492
13416.37243
12197.0337308
12199.74739
12200.246749
12198.92296
12194.5546239
12186.5269664
12194.244134
12193.3768835
12195.3986522
12197.422503
12198.315417
12197.4108312
12194.8706342
12201.1356959
12196.9347395
12195.1589164
12196.1434971
12197.6257693
12198.09407
12197.130925
12195.4746134
12203.573634
12196.9789773
12196.4160448
12195.5833482
12203.6231129
8510.62065827
8512.19583049
7294.00848656
7299.64104896
7304.17425453
7308.09599074
7320.87124815
7241.32619393
8514.83709225
8515.64413022
7294.19626011
7299.42886639
7301.75986521
7298.78912422
7288.51163799
7276.95776334
7292.12410087
7292.414784
7296.93388642
7300.17778027
7300.69379456
7298.241261
7292.46730409
7299.46006826
7302.09351756
7294.48090614
7294.55387428
7297.76016385
7299.953991
7299.78013554
7297.40528159
7293.40032547
7301.94208404
7296.12133914
7298.02636623
7299.15202804
7298.65476968
7296.67671563
7294.16348211
7303.57367567
7296.14063399
7294.20299444
7303.36676423
3611.56412457
3608.90162603
3617.54816127
3627.39187606
3632.47321222
3636.57790074
3638.26209486
3633.60289853
3626.40693913
3612.72949951
3610.39642305
3618.97384551
3627.31130866
3631.38388918
3631.51808844
3625.62656126
3614.84433797
3646.80125278
3631.39707386
3614.79682131
3613.35197706
3622.45320485
3628.80000541
3630.62113444
3628.11965639
3623.41030564
3623.21036764
3630.69601598
3616.5593562
3616.04872535
3624.2855162
3629.37652618
3629.22448141
3625.71782945
3622.87826505
3625.62320628
3617.7013673
3624.49088037
3627.84537833
3626.67067834
3624.06325826
3622.18034026
3625.38935654
3622.66193815
3621.32058591
3624.77481057
34.4081782464
43.2517655126
50.580883748
49.6815720036
47.0217794916
49.0923545735
54.41877244
57.6006567077
17.9136510877
26.3712048667
34.2198958254
41.4289069377
47.2622817441
48.3151278431
46.7173222794
48.8693352699
55.1224125009
55.2895813982
17.6640248541
28.6889766291
35.730281703
41.5215496781
45.2519753103
46.0594637078
46.6497108836
50.5911913298
54.6744686253
51.7934192263
31.6662123803
38.6374495071
44.3865190231
46.7567393111
47.4145658065
49.1397902325
51.7237162954
52.609040641
50.0676983504
47.444615133
51.1309061663
51.2638186708
51.8878180391
52.3102941394
52.3292551784
50.7723460162
53.7299021906
53.6849992069
52.3095001777
-27.1841380118
-26.9914365641
-26.9749720834
-27.1450647324
-27.1459878981
-27.0583049582
-27.193960698
-27.0759250257
-27.1821481145
-27.6224263378
-27.4651880443
-27.4927004762
-27.9004798479
-27.2047457625
-27.2889269254
-27.1499382209
-27.2188980712
-27.0913365075
-27.1761347617
-27.4717105582
-27.3100679995
-26.9340292217
-27.1387581551
-27.0601366964
-27.14333288
-27.1039365991
-27.3908484936
-27.0953074114
-27.1896301115
-27.3820066005
-27.0688950331
-27.3550027382
-27.1665374199
-27.215147409
-27.0329852991
-27.4736997483
-27.1076672559
-27.1998571921
-27.3850498003
-27.2282838809
-27.222485635
-27.454224173
-27.2208763836
-27.1146632793
-27.1660107328
-27.51438971
-27.0926795761
-27.2245737752
-27.6981560172
18313.9025581
18312.6441672
18314.1527158
15862.5650895
15864.1361636
15863.2607698
15864.3388169
18315.9848533
18315.6143158
18316.6670495
15865.4256581
15862.3533465
15865.1800896
15864.541249
18314.7586212
18316.4489776
18315.7465991
15864.915331
15865.6279163
15866.8413602
15866.5888926
18316.6930288
18316.17872
18316.9940558
15866.3695253
15866.5834422
15867.2772305
15868.3656667
13413.2029627
13413.374356
13413.938302
10961.0653671
10962.1388798
10962.6762864
10963.3602424
13414.7342862
13414.282496
13415.9260563
10962.9759022
10964.0031714
10963.9469789
10964.6024807
13415.9435689
13417.1036039
13417.0149151
10965.4224216
10965.8533219
10966.9841297
10966.5842178
13416.9229558
13417.4623043
13421.169715
10966.1772624
10963.5574205
10966.5476179
10969.9269225
8511.22817416
8512.50750393
8512.8082494
6060.95873444
6060.22691397
6062.61499155
6061.4696361
8513.56233461
8513.49902645
8515.02120474
6060.97290704
6062.91904763
6061.95662831
6065.04117016
8515.09236499
8516.30521532
8515.68579474
6064.09210555
6063.0705422
6065.21993137
6063.66266082
8513.61680561
8515.94436193
8518.88698945
6063.6759442
6064.7798129
6064.4224839
6067.97392146
3615.64957446
3617.37386326
627.427122195
625.622984142
3608.75872484
3612.52790877
3609.5787652
625.94922956
622.09568069
624.400533615
622.264460659
3612.09683157
3609.65607468
3612.89862794
622.866998319
638.074418775
624.101183202
637.69660619
3623.48768664
3618.01174891
3623.5859543
642.735482249
653.379035721
642.179516796
651.686840677
3630.31050546
3627.18324677
3629.90528203
653.400279992
652.086610465
652.082456099
651.229019235
3634.82871335
3631.9190953
3633.82484076
652.680482127
655.715979729
651.869788795
654.046837962
3637.3517742
3634.74842634
3634.2418765
656.851327228
658.051554435
655.332423239
656.322683619
3635.85598605
3631.94837723
3624.31432401
658.62236082
662.142149332
656.252510217
656.316173738
3587.07082982
3609.05503969
3603.46154724
664.393195466
619.307692119
656.366205112
636.836661318
3647.3394731
3639.42116739
632.098004666
632.476348458
630.924217197
635.235179995
3618.17380499
3629.68359128
3620.17077688
631.768322337
625.393781455
634.518500069
625.855950127
3610.20877786
3613.46922175
3610.98159561
624.081958609
622.541749422
623.444165002
623.819550396
3614.0864773
3611.62982887
3616.22218738
624.905043185
637.601021526
627.120128969
638.2827936
3624.08908046
3621.57838032
3626.37045756
642.015167064
650.90132534
642.387167997
649.433039259
3629.66628603
3628.86424405
3630.28915968
651.500686019
651.184634709
650.354040889
651.330527777
3632.42542259
3631.10431413
3631.30966157
651.84444932
653.788052069
651.993039454
653.15261017
3629.15017598
3629.81482185
3627.05296488
654.74278382
655.246825118
653.0882269
652.475709782
3620.76528196
3623.84633463
3620.76360934
655.057814926
654.98531318
652.607319374
652.511923563
3625.61721801
3618.15157444
3633.04024401
655.145184065
638.894787157
652.849298602
638.486062078
3640.56340441
3646.40126946
3640.60691413
630.951214449
636.076044076
632.692716101
638.753218877
3621.51879356
3631.45014654
3621.80405913
635.201612892
625.784054587
636.29153757
624.631209372
3612.21343417
3615.77240565
3613.50231752
623.24695704
624.84905949
622.544984144
628.683974948
3617.8227825
3614.78260509
3619.12459982
628.431032744
638.911018676
632.718181467
641.664468156
3626.55247366
3623.6343791
3627.42570026
642.734473546
649.094922664
644.679665861
649.575425187
3630.17506673
3629.48700864
3630.53381111
650.154715472
651.4976289
650.705334942
652.872881071
3629.87659024
3630.24547768
3628.73044039
652.181427957
652.809939249
653.047356467
651.661295084
3625.71794982
3626.87130911
3624.86938079
652.462203719
651.783391522
651.077407039
650.495447055
3622.2600675
3623.14889201
3622.99037991
652.058619909
652.15352155
650.670815875
650.750698139
3636.84785676
3624.82831056
3637.12260048
652.576446816
637.409006639
651.246288782
635.438240896
633.466717799
638.818937971
3621.70100944
3621.69527672
635.835757637
624.570742256
626.859338328
3614.58924926
3617.20939914
3615.66354895
622.858658007
630.254124294
625.810879177
633.826328329
3620.20066847
3616.99861091
3620.75416344
634.304453751
642.985879506
638.150075311
646.88724119
3627.58788989
3624.45801514
3627.32505458
645.797485701
650.494071001
649.449352512
653.567491846
3630.04781529
3628.75197105
3628.87787089
651.6061848
653.220897755
654.240680099
652.832887666
3627.45129659
3627.87953922
3626.29636825
653.209919573
651.31229983
652.40422233
651.298940314
3624.1200048
3624.8517556
3623.45902999
650.825113965
650.307292066
651.136426888
649.980838079
3623.26447738
3622.55737393
3623.17621253
650.305113387
650.203973063
649.570191368
649.087547939
3636.82377191
3625.49986454
3636.01616616
650.91925186
634.839494187
650.059039768
632.624236276
3621.15962986
3621.88052995
638.395137275
647.416869881
648.442097016
3626.95723187
3624.87448672
3626.8652834
650.167627622
654.01817595
651.42469255
653.843382606
3627.50986397
3627.54271583
3626.97248629
654.32782314
652.321209605
653.638598241
651.800456055
3625.44417031
3626.05976537
3624.67305486
652.075823717
651.394637621
651.580995392
651.28524938
3622.78616919
3623.26883831
3622.10228963
651.092420818
649.936449817
650.952599375
650.009294506
3623.00190606
3621.76101324
3622.833278
649.538276551
649.076429968
649.790019059
650.229393209
3635.16107953
3625.18242727
3634.15567432
650.10978879
632.473290244
651.070277158
630.748374976
3624.18644586
651.078162169
3621.29090991
650.698764897
650.260474124
3622.65681429
650.118504016
650.974649187
3633.21571739
651.446133479
630.730367687
-23.0780507038
-23.0005683284
-23.0871324336
-23.0261421832
30.479402763
29.9851869986
-22.889555639
-22.8393758406
-22.8990393898
-22.8236809142
39.011002318
34.0561807233
38.5060734757
-22.7654342444
-22.7627264122
-22.7155508114
-22.7059992334
48.2527460347
42.4980842936
46.9393865752
-22.7732360059
-22.7888939648
-22.7802471399
-22.8328604919
52.2205595084
49.0673097274
50.696835232
-22.8888068531
-22.9542266162
-22.92710288
-22.9658317718
47.4649449649
49.0074585735
47.0963173202
-23.0053103704
-23.0280379069
-22.9765731739
-23.0072267783
47.1966677679
46.7179358761
46.7874506644
-23.0210101658
-22.9938559696
-22.9889633569
-22.9746459419
51.788126481
48.7409051371
51.69992824
-22.9477750048
-22.8978957671
-22.9267733686
-22.8834972093
56.7580635739
54.6441086249
57.4287427866
-22.8407182544
-22.8667611306
-22.8132159766
-22.8517544018
60.2865950222
56.3457176356
60.4510400346
-22.9685052411
-22.9528984731
-22.9819057143
-22.9563852205
22.2263289384
17.6070726378
22.5567162176
-23.1267616618
-23.0629436944
-23.1333355773
-23.0579511362
30.135183518
27.1513286278
31.0768263854
-22.9948123642
-22.9369006627
-22.9968599643
-22.9528484414
38.2175387922
34.8092073307
38.1999600684
-22.8663195789
-22.9173670884
-22.9300380981
-22.9679073526
44.9948555636
41.0602905483
43.7292526693
-22.9161118476
-22.9610946337
-22.9502181963
-22.9832728713
48.7048691759
46.0296429472
46.8327876116
-23.0017218243
-23.0067132604
-23.0467492867
-23.0568971981
46.98221599
46.9891878488
46.295356611
-23.0440035803
-23.0219596065
-23.0913329835
-23.0571871254
46.7239833733
46.7009929786
47.3718207973
-22.9947334429
-22.9749855011
-23.0042224801
-22.9587639033
52.1478043027
49.7164165107
52.9010889623
-22.9015976868
-22.8427744043
-22.8594510975
-22.796517809
57.4050708935
55.3316051492
56.4940624659
-22.7820629467
-22.8272388691
-22.7643209395
-22.818399515
59.1270943231
53.5007035983
57.5737251249
-22.9696412061
-22.9364720359
-22.9545141485
-22.9181664855
23.5828585585
18.055602011
24.8114807951
-23.112814102
-23.0235097367
-23.0951773193
-23.0126991642
32.4871489283
30.4678538818
34.2469250305
-22.8918510449
-22.811960959
-22.8553643818
-22.7645826143
38.594982608
37.1853956751
39.8668503183
-22.7786352487
-22.8206883288
-22.7302643291
-22.7892015579
43.2952487464
42.5694800756
43.895117853
-22.9099733453
-22.9498945489
-22.8814681811
-22.9250124415
45.6177883091
45.2841575047
45.5557789761
-23.0103476485
-23.0332821168
-22.9952800777
-23.0352228535
45.8077366098
46.0278925647
46.18431305
-23.0551531544
-23.0366754576
-23.0707433067
-23.0497648483
48.2503252254
47.4915300874
49.4343365695
-23.0192375886
-22.9084478708
-23.021545898
-22.8749713503
53.1830834227
51.2037254281
52.9537278897
-22.7992649147
-22.7519143439
-22.7726699598
-22.7334121057
54.9834801555
53.584676318
53.3407373391
-22.757821503
-22.8252942636
-22.7616499403
-22.831549769
56.008262824
50.5558839375
54.6472991451
-22.9578297636
-22.9217900903
-22.9528565412
-22.9160914458
35.6453268996
36.4263215497
-22.8373397563
-22.7299489849
-22.7395735234
41.6281107173
39.7345459343
43.1674380734
-22.7335925891
-22.7895242663
-22.7270279549
-22.752675872
45.6499782737
46.5468831362
48.2120885611
-22.858557803
-22.9053254169
-22.8228525531
-22.8704176732
47.082868753
49.3016647336
49.5108764373
-22.9716599878
-23.0126741474
-22.9240137599
-22.9399171904
47.5994580934
49.6789302408
49.7753644093
-23.0367158123
-23.0059550569
-22.9535645173
-22.9140658384
50.7960171145
50.9632194407
51.7090624295
-22.9529214469
-22.8444550193
-22.8731680416
-22.8239770095
52.6434971711
52.0020755482
52.5827646542
-22.7525398268
-22.7313007137
-22.7363047489
-22.7282029102
52.0528367089
52.224641462
51.647115295
-22.7713969884
-22.8412914838
-22.7743973113
-22.8442944975
53.6439820307
50.1852304638
53.2663000192
-22.952490153
-22.9161839353
-22.9504420537
-22.9070473269
49.5221437794
49.6077340697
-22.8262626826
-22.8342123885
-22.7689294878
-22.7809631439
51.1553502728
51.6107563238
51.5027423668
-22.9012006355
-22.9131948143
-22.8325501044
-22.8550822296
51.1561633056
51.3552700401
51.270220315
-22.9310663643
-22.8748625935
-22.8791242561
-22.8627692601
52.2348328579
52.0322865233
52.7973112682
-22.7467834321
-22.7397812373
-22.7609489323
-22.7278572737
52.8348343928
53.1414471759
53.6218466187
-22.7141211057
-22.7228308083
-22.7015885322
-22.7136554595
51.8440939325
52.9013083752
52.5241104775
-22.7684502964
-22.838576778
-22.761015413
-22.8312984186
53.3580702945
51.6311986415
53.7006360155
-22.9488102566
-22.8829916323
-22.9501820101
-22.8931396912
52.8823210033
-22.7305010123
54.5024192104
-22.7044015521
-22.7149254676
-22.7255212993
-22.7367583551
53.8460086615
-22.7589420063
-22.8213291235
-22.7672627432
-22.8118371573
54.4494817568
-22.9585192481
-22.9135089171
-22.9605655891
-22.9352855404
1783.29483262
1778.36227079
627.947543526
626.769482243
1778.46689212
627.428938576
1782.98105156
1783.43676929
1778.60034802
626.023205178
627.006901655
1778.48376116
1783.84639122
627.050507456
1768.61528899
1773.37528332
624.667032009
625.318245373
1773.48121836
624.248769862
1768.43047118
1765.16953946
1763.0589753
622.963492573
622.083445043
1763.63482641
622.825451154
1764.79238761
1769.02774453
1774.04977965
624.709351109
623.416555428
1773.77119435
1769.35628596
623.839905768
1765.68112835
1765.29952306
622.063323921
622.414309427
1764.44920368
1766.03493108
622.665558956
1766.10844556
1763.91701092
627.574960607
622.849260164
1764.33005778
627.5871917
1765.62082133
1769.66957516
1773.89326674
633.10569544
637.877873361
1774.28096455
633.015408314
1769.2111203
1767.02119766
1766.15712844
623.44939262
628.266542284
1765.04657222
1768.16422517
627.973300878
1770.59488658
1776.00934638
637.784877038
633.172406031
1775.06546824
1771.66326031
633.08040663
1784.11510588
1778.7407137
647.535529617
642.399492487
1779.04405683
647.20940672
1783.88144233
1788.36540062
1791.29101564
651.645649341
652.944433245
1791.40970795
651.258540477
1788.16043693
1784.63479746
1780.55612104
642.255519592
646.640059003
1779.67922036
1785.35287999
646.931267876
1788.66914965
1791.87472154
652.329164712
650.193417073
1791.54763405
1789.11400643
650.716176029
1794.79106793
1793.34742053
653.083953578
652.997820879
1793.34003549
652.746935366
1794.93775841
1795.82961761
1797.13522937
652.387537748
651.725450947
1796.91007397
652.071884179
1796.03421221
1794.76425993
1793.73096554
652.462692196
652.068710369
1793.38122176
1794.95703812
652.256156189
1795.74395293
1796.77810547
651.41504037
651.375814768
1796.78180144
1795.84671347
651.644093503
1799.32102388
1798.29847498
653.564120546
652.231015388
1798.03339966
653.088893371
1799.56227495
1800.2858855
1800.87863359
654.572232556
655.21477142
1800.65859774
654.136314038
1800.46033728
1799.03491839
1797.81793377
652.046884431
652.357726404
1797.85582529
1798.79630845
652.704022431
1799.9232563
1799.75245383
654.552650623
653.080618558
1800.2895887
1799.507045
653.504179356
1800.72623551
1801.16686115
657.358015682
656.399674295
1800.74004744
657.006479266
1801.44308974
1800.30534636
1800.76554649
657.62582708
657.660719724
1799.73355624
657.230859088
1801.15526925
1800.01706781
1799.61484149
655.984382552
655.86587359
1800.30271458
1799.07386155
656.498559314
1799.32026321
1796.31170788
657.079171749
656.132184793
1798.3106784
1797.93183072
656.728470215
1798.794507
1800.92471957
659.701014283
658.053297894
1799.39174045
658.79058819
1800.97218701
1797.41598587
1797.0233608
661.055790298
660.238010218
1794.01967603
659.788825697
1800.19718111
1795.67693244
1794.47311439
657.316849818
656.569390284
1797.14967639
1792.5552437
657.727305796
1793.41025884
1787.31649664
658.037030966
656.698884714
1789.90132985
1790.24189746
658.212661982
1781.24825304
1791.27282204
668.04677466
661.295963081
1788.55575462
663.816915952
1783.45545594
1770.28971259
1776.83791067
673.874402027
627.22242215
666.485900141
1782.31689715
1771.96617203
1778.71501887
1783.34869494
658.180326648
658.670902859
1784.92813094
1778.34917692
660.221344218
1768.96845447
1793.82134538
634.478850845
663.484205042
1769.68081983
664.269887314
1788.88992689
1814.04121398
1817.37585582
632.514394146
631.485047814
1813.74861182
632.610279674
1816.92413199
1810.21398298
1803.80183471
632.898332012
633.462663693
1809.0750461
1805.28789417
633.576982813
1814.2743029
1816.04053619
631.086607892
632.905813621
1814.42658902
632.761794164
1816.29849362
1811.01373226
1806.99129559
634.448595867
634.745182196
1806.3585144
1811.4474748
634.310535133
1792.09896327
1797.80560754
629.690334249
632.617813618
1791.00772438
1799.15045761
630.542214775
1785.01065167
1778.47868725
626.985401337
625.495763197
1784.27122929
1778.4435423
627.85654697
1792.99217485
1800.84375291
633.582177235
632.217964921
1800.24439984
1793.42374122
631.442263841
1785.50765389
1777.98985644
625.761016253
628.807533087
1778.32368898
1785.56132716
628.472639107
1769.14901219
1773.858491
623.079217516
623.545675642
1769.39823548
1773.33990318
622.858376764
1766.9902439
1766.21545687
622.367323183
622.847200944
1766.49221742
1767.18378171
622.421308862
1768.9170457
1772.49327623
623.447678027
622.437015043
1772.92524139
1768.83730127
622.599966692
1767.3446048
1768.86764422
623.202590769
622.046982705
1768.13411427
1767.78486714
622.159983713
1770.76877447
1767.84683445
628.819983367
625.489190122
1769.48810632
1768.91889638
629.285912434
1774.19089676
1776.95687107
633.269061974
637.674015007
1772.81429201
1778.26382529
633.622773382
1772.05957419
1770.36125436
626.235478071
630.653319823
1769.81694645
1773.21891355
629.958811738
1775.60210521
1780.97723594
637.933386487
634.535912463
1779.64954164
1776.94861477
633.997860814
1786.83986915
1781.36873798
646.227600622
641.945853403
1785.92827629
1782.52392451
646.041704265
1790.18500748
1791.93008002
649.435902956
650.389498325
1789.40153785
1792.5628005
649.059649885
1787.86817144
1785.02373287
642.128708452
645.864180929
1783.83728806
1788.85745897
645.899906907
1791.01692194
1794.15384643
649.795417557
648.120770451
1793.33311698
1791.86032481
648.455677512
1795.31227494
1793.75823943
651.661687879
650.997497195
1794.99591615
1794.20336237
651.36000218
1796.30749171
1796.84427128
651.191920022
651.241563671
1795.94474584
1797.16630772
651.175362497
1795.76897282
1795.56720467
650.622467057
650.848516693
1794.85952268
1796.31967993
651.018373372
1796.67225248
1797.65396092
651.224068708
650.965961453
1797.39870211
1797.06406196
651.034812868
1798.32758531
1797.77768578
652.270575211
651.8458571
1798.49959996
1797.87681267
652.338054952
1798.43545517
1798.75601268
652.957378131
653.509971379
1798.93752431
1798.13623498
652.806894796
1798.15561248
1798.00016086
651.909172428
652.703494834
1797.93841442
1797.95583643
652.555253541
1797.92747934
1796.55463773
653.423733086
653.182359157
1797.15663425
1797.4213239
653.167293438
1796.26863025
1798.42400313
655.143470059
654.16476125
1797.58342879
1797.58768852
654.334799392
1794.118286
1793.82538817
655.18435806
654.205254745
1795.95825324
1791.6739014
654.145071444
1794.444428
1795.00650494
653.637318229
652.642573504
1796.24550487
1792.90882969
653.456743549
1792.26316288
1788.65211046
653.287376782
652.320285336
1789.9715292
1790.72731375
653.184577739
1787.12204446
1791.54152161
655.221457217
654.08392381
1789.24547385
1789.30800246
654.243882325
1785.31753667
1785.24429395
655.193060715
653.935576768
1787.1036532
1784.17973473
654.114010498
1786.02946963
1786.93548835
653.270565649
652.8667764
1787.83215727
1785.65279425
653.440432387
1784.58943507
1784.09335314
653.081554093
652.85707551
1783.9068175
1784.58933407
653.389151757
1779.89689365
1782.86187248
658.177541341
654.271584128
1779.28362478
1782.79376704
657.634874729
1773.17024623
1797.15526324
663.466226003
639.652765886
1772.29965459
663.045159457
1798.58403168
1780.65878893
1783.33780145
653.369306604
656.431018018
1783.07777795
1780.96385891
657.007150886
1774.38507705
1798.69438326
639.241726437
661.448267665
1774.36556616
662.506148015
1799.11742425
1814.91796078
1815.90652921
633.281346146
631.347113689
1814.54193338
634.045268711
1816.15622823
1811.96021204
1807.23436187
635.433091333
636.953671044
1811.67839913
1807.21258701
636.369731939
1815.34853766
1816.60073436
632.011793416
636.149857601
1815.51943234
635.124355061
1816.44568081
1812.15806095
1806.30935056
637.921485985
638.82017048
1806.90600899
1812.01675477
637.696841441
1792.5866757
1800.98000321
632.731027073
635.819732831
1793.28611092
1800.6077218
633.078536069
1784.25894575
1777.49061884
629.029974364
625.526984294
1785.18463102
1776.49889703
629.005740765
1791.33072132
1798.58491954
636.098227527
632.745263324
1799.76301471
1789.7364424
632.989846734
1782.97815028
1774.14397684
625.058187714
628.043946202
1775.3374577
1781.42618481
628.673275814
1769.13738579
1772.02811077
622.248879784
622.956266079
1768.95193209
1771.32032663
622.079726011
1768.95836753
1769.54010706
622.198481699
625.848579326
1768.37415384
1770.18207133
622.729864579
1769.4266578
1770.34772405
622.62224066
622.461880375
1770.68719575
1769.82180257
622.063294387
1769.88273346
1772.15471851
627.319480363
624.870979282
1771.22206159
1770.82807153
623.658014693
1775.68745555
1771.33086573
631.89174663
629.496733284
1774.53539748
1772.37675858
632.933684087
1779.47406677
1782.18080246
635.417141586
639.669441208
1778.27882699
1783.37550379
636.379591748
1776.90513016
1774.67109431
631.163310589
635.814802136