/*--------------------------------*- C++ -*----------------------------------*\
| =========                 |                                                 |
| \\      /  F ield         | OpenFOAM: The Open Source CFD Toolbox           |
|  \\    /   O peration     | Version:  v1906                                 |
|   \\  /    A nd           | Web:      www.OpenFOAM.com                      |
|    \\/     M anipulation  |                                                 |
\*---------------------------------------------------------------------------*/
FoamFile
{
    version     2.0;
    format      ascii;
    class       volScalarField;
    location    "8.4";
    object      p_rgh;
}
// * * * * * * * * * * * * * * * * * * * * * * * * * * * * * * * * * * * * * //

dimensions      [1 -1 -2 0 0 0 0];


internalField   nonuniform List<scalar> 
28582
(
19545.1392609
19544.1310728
19544.4810098
19544.0737316
19542.8680836
19544.3486726
19538.5791807
19544.1534867
1174.62275836
1272.32509462
0.232619437009
19541.5356646
16941.7647002
17035.5394798
19545.602832
19546.3454418
17060.6403933
19522.6815123
19524.7924169
19546.3911695
19543.7775209
19543.6465628
19545.3363615
19543.9872228
19543.6911271
19541.326906
19544.4744377
19536.0887554
19545.9584195
1271.80697593
0.348923384897
-0.247216834961
19534.6038344
19535.3772249
16955.0939471
16843.9293311
19500.8786513
19545.2008021
19546.4758758
19545.6762388
19522.5345988
17028.6733212
19524.4519514
19524.533271
1227.06478823
1248.03744964
6.2332981894
13.5653498813
1266.63925113
18.7923477751
19510.8947184
19516.444532
16960.8044112
16997.3974992
19513.9517872
17013.2187441
19513.6035196
19518.7373171
19518.2895578
16992.6686023
17076.3087877
19520.7030988
17034.2935095
19515.9245836
19522.8973442
19520.2298786
17079.2481574
17110.997487
19522.1053998
17126.4444647
19521.3365261
19521.6050314
17114.8493477
17139.5520208
19522.9609424
17095.0186963
17129.8500402
19521.5582773
19525.8289767
17159.7065062
17199.7394949
19525.6053891
17202.0583896
19526.5498275
17151.7057439
1142.21407781
24.1271698561
1075.89335631
1143.39722921
21.0777384303
20.2508678343
1249.3227843
3.37358631894
8.3537473831
1258.32018597
7.16828539961
1276.71298918
10.5906149696
19493.492822
19495.7461764
16862.7981519
16977.9208394
19493.5217029
19495.648452
16878.3634127
19493.0308341
19495.6347562
16828.7139792
16854.6137229
19493.6603812
19495.0927938
16852.9098408
16895.2605305
16891.9465639
19502.503431
19497.8456365
16866.1244737
19499.3365606
16861.6333038
19521.7386319
17101.1484542
17131.6578271
19522.3709869
17080.2531662
19521.8712601
17111.6401212
19522.5445102
19522.6504491
17053.7108934
17041.4329357
19522.1540523
19523.1086391
17078.6516347
19525.0862623
19525.5055363
17157.8356614
17199.3520551
17203.247446
19523.9267463
17148.282597
17183.3951377
17138.2856693
19524.6479008
19523.442795
17067.3534598
19523.2907322
17113.2354516
19543.1395448
19544.0576718
1289.8949678
-0.1637833921
19536.9791175
16899.2107284
19544.2646393
19542.3613859
16996.1418638
17075.2918206
16859.3804296
19540.3754436
19538.9874189
16806.5116704
16741.9649339
1206.15691129
1273.78563663
1302.57609434
11.9003762848
10.3421674058
11.9452254998
1331.73327015
1351.53327845
19504.5335909
19504.9272056
16878.5070592
16919.4910815
19501.6620463
16899.9324548
19507.5275509
19522.3310703
19522.6118918
16958.6065046
17001.7131652
19521.6626238
19523.4677792
16962.1402199
19520.8401253
19523.16126
17021.2155589
17003.7523829
19522.4607954
16975.4713602
19520.7873329
19518.3232724
19513.7224029
16875.0588883
16934.9509587
19514.8365995
16926.0432073
19517.605121
19505.5710018
19509.1227033
16829.8808964
16753.4442097
19510.4258226
16783.6010973
19504.3530424
19499.7265411
19493.4960556
16778.4083422
16740.2546686
19494.3977895
16776.7507691
19498.4918019
19572.832275
19568.4377568
19569.0023606
19566.7903299
563.982240893
612.991044232
534.5557119
568.219195821
567.264317158
-0.135490198554
0.12128180685
-0.125616817906
-0.109419469387
-0.0459831339394
-0.0464695855604
19573.7408756
19573.1837877
18654.0590342
18642.6433646
19575.2910161
18636.2797631
19571.3182211
19569.5360271
18631.9381999
18616.2935932
19574.1537112
19570.3416415
19571.0376113
18627.5328947
18601.3451856
18611.6118026
18601.984682
19571.1465559
19570.1827631
18591.5414848
18553.4212805
18599.1650287
18550.0397001
19568.8713584
19567.6432501
18616.227698
18609.7649594
18626.3545649
19568.1647528
19567.7812413
19567.2251046
18606.3249827
18559.7042664
18609.9852345
18566.8121483
18600.1389123
18559.3405467
542.556199993
541.947287295
572.41050049
0.695211267485
0.414556741504
0.677180752674
0.447877702033
0.702864210547
3.91319632932
0.74555145146
3.21756762959
539.838415616
533.402296422
587.957943516
553.740025357
569.13806478
0.671733050103
0.437744996642
0.53071489067
0.293676082583
638.769914407
587.671772126
621.592810015
0.570438256021
1.39987125683
0.312113869063
1.20166996107
548.713731332
529.80262663
0.413213781938
0.24686084467
0.235178594165
608.665955834
561.415929213
608.863895988
0.299079794211
0.917036406313
0.250288170028
0.667144045862
19572.0572211
19573.0310724
18661.3019797
18648.6672779
19573.151788
18658.4395349
19572.0463168
19571.7440592
19571.988624
18647.293963
18647.6296438
19572.636906
19571.2722609
18658.2029903
19574.5043361
19572.9673429
18640.337215
18626.0516934
19573.6542456
19573.8464357
18633.4839736
19569.8092956
19571.2359682
18635.3954186
18623.8952691
19570.4950395
19570.4889796
18631.2599977
19569.0557427
19568.7721372
18611.6230532
18623.3474848
19569.4317126
19568.4439396
18621.4920188
19571.4420757
19571.9975546
18618.2494321
18615.6178059
19572.6472821
19571.0498097
18610.4888111
19571.6956313
19573.0723659
18609.0350916
18599.6622233
19573.1112761
19571.8702108
18606.0398811
19569.8906784
19568.9669698
18605.5572977
18607.0850381
19569.6929622
19568.8896658
18602.5727012
19570.203222
19569.3221596
18599.4967952
18604.375545
19570.4549506
19568.8664874
18601.823135
19570.5034264
19572.3032686
18580.7930232
18589.0534233
19571.502039
19571.516954
18576.4270629
19569.6309894
19570.4157353
18566.9966146
18542.4614782
19571.2939302
18561.879431
19568.7957696
19569.9655863
19569.7144195
18593.5222267
18594.75852
19570.330291
19569.992952
18584.2313178
19569.0918203
19568.9302232
18547.4280785
18578.9370547
19569.7847462
18569.9139097
19568.1942807
19567.6930261
19568.1950992
18614.4210918
18630.9546417
19568.0554535
19567.791359
18628.1775656
19567.4944926
19568.4590685
18611.9683464
18623.9269299
19567.9876752
19567.5394667
18626.4853783
19566.9737054
19567.3132095
18628.4632801
18640.384216
19567.4709144
19566.9641009
18636.2119446
19568.73002
19568.8838149
18600.4395421
18617.0579371
19569.3539717
19568.1485395
18604.25015
19569.1876471
19569.1366139
18586.7378672
18569.1444173
19569.4895273
18587.7159559
19569.6170662
19568.5675656
19567.5925644
18616.2433964
18593.7347599
19568.0352666
19568.0131799
18600.9894343
19569.0258832
19569.6580646
18570.712885
18579.8337998
19568.8047871
18584.8217356
19569.7278396
19567.4496278
19567.1138698
18584.2382343
18589.8626579
19567.5213396
19566.9649034
18572.1366726
19569.2475738
18571.0659884
19568.3085645
19544.0516263
19543.2176785
19543.2867579
19543.4990574
19543.5500297
19550.9482872
19543.3483874
19543.1943758
19543.7378779
19542.9818796
19542.6117812
19550.1318243
19536.8253754
19539.6474476
19536.8394484
19542.9178999
19548.0659923
19551.8011241
19556.8698995
19544.5624396
19538.8075254
19540.3787576
19542.0015678
19544.292857
19546.3210232
19546.6138426
19545.5242836
19553.5463516
19542.9055208
19540.8358443
19541.6984231
19543.5922732
19545.1696621
19545.4940712
19545.249439
19554.3135133
19545.2148831
19542.8036183
19542.7944883
19543.8663437
19544.8022562
19544.7100714
19544.3354194
19553.3353158
19543.7480355
19543.8194381
19543.7307816
19551.9482076
19533.4689429
19536.3156312
19539.5591861
19543.947816
19547.9316722
19552.5536876
19573.8504443
19496.1980537
19537.6587613
19538.4246414
19543.9688549
19546.7158696
19547.2253902
19545.8956721
19541.416742
19533.1674418
19541.0870457
19540.2545233
19542.3421306
19544.3932087
19545.2869524
19544.3777727
19541.8127965
19548.0634228
19543.9015001
19542.130329
19543.1158799
19544.5962293
19545.0594538
19544.0862396
19542.4224223
19550.5300228
19543.9371405
19543.3551625
19542.5155366
19550.5712773
19529.2018813
19532.6144913
19539.0762703
19544.7958868
19549.2746224
19553.0198314
19564.6244932
19485.0757979
19533.9568558
19535.7155612
19539.1952641
19544.5018279
19546.8846576
19543.9039114
19533.5523052
19521.9148208
19537.0440083
19537.3751158
19541.9212096
19545.1807243
19545.7034814
19543.2484605
19537.4696638
19544.4534209
19547.058015
19539.46027
19539.5416621
19542.747135
19544.9341693
19544.7537904
19542.3783886
19538.3767716
19546.9220069
19541.1111226
19543.012616
19544.1349361
19543.6387445
19541.6614781
19539.1510389
19548.5633771
19541.1060596
19539.1779121
19548.3560915
19529.3160497
19527.3533482
19536.0732587
19545.9425186
19551.3541209
19555.5452736
19556.8750027
19551.6294678
19544.8721917
19531.1347211
19528.8154162
19537.4134908
19545.7443437
19549.8369742
19549.9589123
19543.8703565
19532.9182944
19565.2445832
19549.8223723
19533.1582417
19531.740319
19540.9064073
19547.2382464
19549.0223971
19546.4989338
19541.6822939
19541.4999789
19549.1084304
19534.8850739
19534.441504
19542.7139653
19547.798359
19547.618069
19544.0769072
19541.1860877
19543.9208744
19536.018039
19542.8012409
19546.1681361
19544.9895453
19542.3762003
19540.4494984
19543.6803616
19541.0406928
19539.5802455
19543.0908181
971.419775785
1131.17352302
1266.64103536
1265.71091335
1220.71212608
1252.49247717
1333.30312183
1387.1991988
682.238585063
828.604562707
962.128495734
1110.88702059
1219.12983464
1237.39560876
1210.9936667
1246.09356738
1346.74423148
1353.70064589
683.464812262
870.847092888
994.914091273
1110.41988465
1183.68114494
1199.85659973
1207.62984039
1266.85418728
1340.00977824
1298.45332335
924.163051365
1048.42593429
1160.72641278
1208.16073168
1221.03010817
1242.10152095
1284.4953197
1302.80807969
1267.3181974
1212.78724124
1279.81900412
1275.57888924
1271.75120803
1295.69452816
1297.28888574
1275.44887385
1320.58185885
1321.00118901
1296.11537784
0.655377066124
0.239689346336
0.500776672194
0.191033191227
0.160535437549
-0.0521635587156
-0.216460697958
-0.0918521945876
-0.204648114478
1.19387418978
0.635635512145
0.609901026155
1.13829739932
-0.2272457625
-0.311426925389
0.16063710526
0.0665365250242
-0.0995608384093
-0.198634761731
0.618981689446
0.354623319575
0.497621167887
0.0892865342439
-0.0826366963555
-0.165832880035
-0.126436599075
0.555090563261
-0.0569278568247
-0.212130111536
0.336572977611
0.376832026387
-0.258483889784
-0.189037419944
-0.237647409008
-0.0549755477452
1.00762745778
-0.121424903917
-0.222357192117
0.320255532795
0.141989846282
0.285159731424
1.48205590197
0.279486803757
-0.137163279265
-0.188510732775
0.71676582779
-0.115179576082
-0.247073775183
1.38571609024
19538.3474166
19537.1322541
19538.6409273
19535.5837087
19537.4463966
19536.5000843
19537.6840384
19540.4719214
19540.1033589
19541.1561932
19538.8567502
19535.7314688
19538.5893952
19537.9105229
19539.2452945
19540.9388402
19540.2304108
19538.3411323
19539.056533
19540.3016712
19540.0377244
19541.182072
19540.631375
19541.4455461
19539.8155445
19540.0217793
19540.6140094
19541.7639152
19535.2397401
19534.6360264
19535.8821197
19530.7861379
19532.9981089
19532.3064515
19533.9170094
19537.1794263
19536.5904933
19538.3071897
19534.3505784
19535.4609926
19535.2312211
19536.0290363
19537.7011573
19539.5002226
19539.2457951
19535.2372464
19536.1139184
19538.0116265
19537.4390929
19539.2672657
19539.6366554
19543.5005378
19537.2148855
19534.9280459
19537.6512472
19541.3025957
19531.1643729
19531.2212287
19532.5467746
19529.1432401
19529.5368607
19530.8227267
19530.7780859
19534.0304971
19533.8715283
19535.4893672
19530.4339945
19532.382695
19531.4194717
19534.5623667
19534.5115109
19536.4504385
19535.8291047
19533.0077726
19532.1486666
19534.6327875
19533.08943
19534.0309184
19536.1737275
19539.2964021
19533.0883767
19534.250073
19533.8934857
19537.4978798
19533.4203208
19535.5603675
17475.2504778
17443.2181208
19527.0482214
19530.7246544
19527.9618592
17306.2262553
16737.6094867
17281.6400722
16785.1354398
19530.605499
19528.1580135
19531.4461728
16665.7378683
16693.2356558
16742.8383329
16817.0871556
19541.988486
19536.4983401
19542.0853941
16781.9921656
17029.3032434
16898.4304099
17106.3566855
19549.0199662
19545.8396994
19548.7549428
17101.9357099
17248.6917937
17156.1724422
17256.5073171
19553.7964464
19550.9117168
19552.8880767
17276.925944
17345.1241899
17273.3127301
17330.7227402
19556.2211523
19553.7799977
19553.1504707
17336.3149519
17140.8445019
17315.8612817
17091.7024702
19554.2347175
19550.6684101
19542.8493178
17083.969088
17010.3402057
16997.1104371
16797.9894496
19504.5097699
19527.4583752
19521.310415
17084.1588078
16438.3068139
16886.7518157
16729.5927722
19565.7753404
19557.8439663
18513.8477303
18198.2865869
18505.8859176
18224.6146865
19536.6287569
19548.1135852
19538.5661195
18036.3691936
17435.8906431
18047.6241949
17372.8080401
19528.6257929
19531.8123034
19529.2272335
17275.4204904
16809.8391964
17183.858613
16853.9573603
19532.5766441
19529.9749959
19534.609612
16796.2168424
16870.9817694
16871.7889656
17019.4777776
19542.5027157
19540.0331534
19544.8584544
16941.3969842
17118.24718
17075.1071268
17242.40024
19548.1192482
19547.3556914
19548.8007508
17160.7953797
17261.0863106
17262.0611381
17315.0869251
19550.8980514
19549.6136847
19549.8220778
17276.2216602
17326.9071905
17316.5681527
17284.2147309
19547.5152165
19548.2688344
19545.4518641
17304.0717863
17036.0065281
17205.0558468
16889.3976516
19538.9158907
19542.1515165
19538.9790786
16937.6802834
16764.0135535
16829.6967533
16778.0949522
19543.7890522
19536.3681894
19551.3874112
16870.283382
16809.4561261
16924.9383824
16885.3399495
19558.9976606
19564.8534892
19559.0720892
18508.0299613
18206.1618226
18545.7217433
18171.6809011
19539.894712
19549.8294917
19540.123441
18019.7934886
17331.3030471
17910.1460429
17111.6583975
19530.5901962
19534.1213225
19531.8485308
17146.6377167
16888.8832433
16966.1333744
16902.0605187
19536.2843985
19533.2758353
19537.6278353
16907.0314494
17059.3340447
16946.5835634
17116.6308755
19545.0129941
19542.1633156
19545.9597933
17108.4598752
17266.0449011
17167.2980816
17287.6385535
19548.6008495
19547.9872865
19549.0361678
17284.0040039
17329.7975331
17307.0275671
17334.0881729
19548.2773672
19548.7020873
19547.1652406
17324.2579907
17246.8281194
17308.4886485
17094.4454316
19544.0553648
19545.2646373
19543.2197962
17154.2876654
16871.88839
17016.4077766
16867.1369013
19540.5519177
19541.4897861
19541.3070348
16833.7401028
16818.0675301
16866.8407929
16907.2378434
19555.2632475
19543.2062658
19555.576613
16967.3261775
16893.8444545
17037.6994809
16924.273182
18529.6627569
18121.7909136
19540.0035543
19539.9429837
17851.5628422
17059.6925077
17052.7173018
19532.9884938
19535.4845474
19533.9880444
16931.2736044
16897.9680729
16926.2405977
16850.0679336
19538.6371915
19535.3926696
19539.1910466
16942.0393844
17103.6760784
16885.146529
17006.7709537
19546.0116015
19542.9031803
19545.7912458
17153.060212
17269.355976
17052.8044808
17170.9689183
19548.4571386
19547.1663762
19547.3000826
17289.599487
17317.6941909
17194.2058597
17115.088057
19545.8113453
19546.2602018
19544.6534139
17275.7767465
17050.6306822
17071.7059966
16997.0586434
19542.4831633
19543.2292519
19541.836735
16989.7465177
16883.6751559
16971.2131902
16892.8589992
19541.5756961
19540.9258974
19541.4954602
16884.8919332
16920.0630743
16894.7099435
16920.5970123
19555.2146962
19543.8549479
19554.4596433
17038.6966911
16923.921323
17025.6477066
16900.2619887
19539.4643835
19540.1894383
16870.08296
16982.7670534
17002.8627594
19545.2398548
19543.1671443
19545.1883799
17024.8260172
17140.5711034
17037.9833967
17122.4881576
19545.807163
19545.8665516
19545.3121906
17146.8140837
17069.9145649
17142.9403703
17067.0537836
19543.7609019
19544.4101511
19543.0381142
17052.2515116
16979.33781
17017.4167354
16911.1732561
19541.0911555
19541.644228
19540.4648328
16957.2159421
16879.6426997
16881.8625515
16819.6576667
19541.2824781
19540.1019591
19541.1633686
16885.9938872
16906.1413654
16838.127982
16879.9589819
19553.5513895
19543.5846615
19552.6096868
17006.225394
16913.8047718
16971.3237288
16874.150322
19542.5906852
16892.4580757
19539.6115791
16863.0675677
16810.100348
19540.9326266
16831.0808592
16867.7613943
19551.6598406
16958.7738717
16867.8013265
10.9768639327
14.926310402
10.6387359433
16.0634513136
905.479708712
895.597718852
11.9570218645
9.34784470261
11.6714479618
10.5055099315
1054.68728865
964.114026689
1043.10702261
12.2415749239
17.662426297
14.5835680351
18.8366053878
1227.36488694
1119.00667801
1204.38949895
19.8822749303
17.9616534445
17.7094977368
13.6294631533
1304.27624076
1245.34104292
1278.13103049
14.7611782869
8.10396841838
8.00969935399
5.25122698596
1225.58086386
1251.05881255
1218.03468903
1.45998834321
0.70031305029
3.63167504914
1.65081800932
1223.57734198
1215.82241378
1215.90286189
0.493494776138
0.726693605771
0.593303499443
0.684021832427
1289.8778678
1246.98037677
1289.44459286
3.77259719019
11.5295742331
1.82805366162
10.325600406
1378.34306304
1337.54380733
1389.34641034
11.9562430113
12.1891659795
12.4576393254
13.9266002381
1406.18866745
1367.14455689
1433.20518887
16.7518706843
38.9427597968
17.5769717042
22.226428176
749.334012174
681.180767053
759.9244526
7.53143003075
16.6108072258
4.90570291262
14.9275792266
895.213891539
843.096352122
911.61317831
14.2746308753
15.6056648598
14.8036387133
17.3206977958
1037.35062642
975.572936679
1039.94135507
23.3069147757
23.7149066322
22.2359164328
21.1330534483
1175.18557349
1103.50002643
1150.83258067
11.9596945794
6.98872787606
10.2011300331
5.66625507579
1249.020854
1197.6511916
1213.71144029
3.54030408446
1.85723836666
2.94535888819
1.38466354444
1210.85735088
1215.77204811
1201.38094915
4.18358507355
4.86424611533
2.3917787495
3.33140602768
1212.33861176
1206.90647724
1217.96859475
2.69982120834
1.17242755908
5.8505307798
5.16733994921
1296.93090528
1255.50413002
1308.79650041
3.78674488102
11.2285914162
9.11100518669
13.279200505
1389.02519065
1351.46177271
1373.31513348
13.8286028621
14.6805785796
14.1641619324
14.1225920056
1419.88336861
1323.81743325
1391.30103105
15.0182721782
14.3745083218
11.2900364009
13.766210077
782.09842637
688.653281159
806.974215531
3.88882432949
12.9865777126
3.13227884161
10.864059972
934.401448429
902.344634447
964.735629699
13.3043045305
15.7689294321
14.3287203281
17.2566803259
1048.97367016
1018.58687098
1070.55569265
15.9037205043
14.9662147505
16.2736045938
14.4445554839
1142.77996916
1128.24843128
1151.68020237
9.88599490649
5.73822298777
9.58427334708
6.25429209224
1190.43918904
1182.55666391
1188.29584633
2.85070871615
1.24607806616
3.6377553963
1.71500104185
1196.22680268
1198.32966428
1203.04893279
1.03316205799
0.93722529727
1.34397273152
1.14353812178
1225.47946786
1219.6375757
1242.19028707
3.80888375374
12.3265672298
5.84891422657
17.5600955409
1311.04772285
1275.94464687
1305.89532543
12.3103995805
14.7016479968
14.2175930447
14.9592408147
1347.64099268
1320.29547743
1320.25058529
13.9023843537
12.7218622173
13.2440839554
10.6283390763
1366.64883091
1276.12450105
1342.61555755
8.03037364899
10.7519170226
7.11562349909
9.98901669645
991.274128108
1005.03194376
15.0532065389
17.9171795928
17.3988451087
1107.55464861
1070.94879967
1137.89810684
16.4607583879
14.3507007286
16.4423961887
14.7029637999
1182.46165075
1201.04739244
1229.75274456
9.83308257969
6.65065284374
11.1546088736
8.34754787269
1215.72929505
1253.76903865
1258.50055355
4.21119946309
2.21871599571
6.00546967751
4.75093700715
1223.14898081
1257.99712991
1259.29091341
2.24896091908
3.43499103861
6.58640621489
7.78972432298
1259.77936663
1268.73311675
1270.86333639
10.7757344583
22.1093695263
18.0235547285
24.8818527779
1300.20194449
1288.94907555
1298.76119603
14.8048676867
14.1258667587
14.8380740993
13.7353298523
1297.49986427
1295.52997756
1288.71134672
12.3027220713
9.91855994265
12.1014660282
10.4704692746
1326.4175804
1267.16084665
1317.93461599
7.31703591581
9.21604109102
9.61853585213
11.0290956918
1247.87296763
1245.91023215
16.4020997155
14.0396739648
19.5794052949
16.9054887268
1278.70155651
1281.98689058
1274.55143017
11.7607077802
10.8678519597
16.5194035358
18.8888069023
1267.82567879
1254.3497007
1249.49396483
15.291753133
19.3480385965
30.5238580176
32.5920951465
1285.72458375
1278.6774084
1299.2328972
26.3456217001
19.7142766693
23.070345701
16.9029383754
1304.60855773
1310.65720894
1318.69542682
13.0451095314
12.4424573537
12.9006774734
12.5188442199
1292.33358811
1306.83878741
1303.80060423
11.4590613262
10.3434340325
11.7555722475
10.9936824164
1310.9025781
1288.47822126
1305.65322108
11.1565849372
15.9889220992
12.9127535001
26.4104491415
1308.27064395
12.2637728655
1334.01263636
13.0215190188
13.3266119412
13.192705441
13.4252135015
1326.25153277
12.5469535082
12.5199982197
12.8959805421
13.2544176388
1302.85906102
15.8527477777
35.2640077811
17.9250444422
39.4310620026
19531.110653
19524.5264946
17612.1394032
17474.5174565
19524.3836613
17620.2261537
19530.8967923
19530.4495289
19522.1625245
17458.7070278
17621.9951234
19523.5302613
19529.8627675
17618.2404288
19509.3028723
19517.4417375
17117.5150183
17302.0508571
19516.9858913
17117.8351132
19509.2171703
19502.1747449
19496.0218844
16921.8498119
16754.3703345
19497.8630808
16933.1657026
19501.1749518
19509.5581131
19515.7271829
17292.3859573
17110.7086164
19517.0046925
19508.3503237
17120.9429295
19502.5250187
19498.889646
16774.4096913
16941.6191727
19498.7946852
19501.2576225
16948.9417806
19498.1627536
19494.3757658
16627.1685864
16679.3626587
19496.9866316
16649.3846049
19496.8728703
19501.1779683
19502.4906051
16645.6639209
16720.0348936
19503.7197183
16670.8682232
19500.2505691
19499.4370309
19497.7113393
16718.8214197
16739.9601152
19497.3006058
19500.4154057
16694.6222724
19503.1135254
19507.8220399
16765.1566326
16765.2187283
19506.4834503
19504.1429911
16717.2443728
19509.4477592
19503.5013637
16891.8406833
16804.8200365
19505.0925902
16915.9533761
19508.0236968
19513.9374559
19516.7820451
16966.3351162
17056.371966
19517.8059597
16995.471466
19512.5970277
19512.0852553
19510.0853446
16845.735345
16996.8464821
19508.3394106
19514.0337352
16952.1853993
19516.0183049
19520.855833
17071.6454588
17059.9391958
19519.1687636
19517.8195921
17022.0852827
19527.1854294
19521.1234385
17179.1965178
17121.5039826
19521.67551
17195.22546
19527.4290662
19532.4158355
19534.7702434
17223.9895724
17259.8590858
19535.2474806
17242.306151
19533.0438499
19527.1931243
19523.5342711
17125.8119573
17209.0016601
19522.3697417
19527.003305
17193.5899982
19532.3488065
19535.63884
17255.1774229
17239.751674
19535.5925021
19531.9773611
17236.3538515
19537.5272961
19535.7630806
17314.6080863
17277.5290275
19536.3000818
17310.5769625
19536.8119983
19538.3481475
19537.8149049
17340.877859
17340.7815225
19538.4272641
17339.9270316
19537.7756681
19538.8798035
19537.2053038
17270.8478558
17303.1200566
19537.16748
19538.3468446
17300.5980965
19540.0036321
19539.9050553
17335.969621
17332.2861481
19540.3596048
19539.6507072
17333.4048081
19533.5784163
19536.1792516
17303.8091479
17322.8283134
19537.0875985
17288.165722
19532.2705379
19528.9410237
19527.575707
17225.2994454
17132.2394212
19525.5612587
17212.522987
19528.6022227
19536.017978
19539.0036867
17327.9151023
17275.449894
19539.5291522
19535.3398357
17292.6324608
19529.4032482
19520.0738542
17119.1504157
17192.694538
19522.9087979
19528.0372739
17209.0591835
19525.462094
19528.1924415
17052.9409609
17072.0270637
19525.6471732
17031.9113389
19528.9317688
19524.6236794
19527.1852558
17026.2096392
16958.9517877
19522.4229777
16989.9433017
19529.1209582
19516.2450344
19512.4160879
17042.7907431
16919.0535
19517.7276603
19507.7092994
16977.3037258
19514.3254056
19502.5195193
16867.3402581
16834.4436956
19511.7987482
19504.9732853
16904.9416542
19505.0970208
19522.7972458
16992.9817287
17032.9746964
19517.4265478
16948.4976877
19510.16992
19469.3072383
19480.0245929
16406.5597306
16543.8369266
16392.9236435
19486.7357609
19469.4624712
19490.6265017
19497.1220098
16944.1408719
16836.6605238
19505.1544918
19484.9489621
16868.5650045
19453.4555802
19486.9958624
16672.9881614
16344.7581649
19452.3977196
16321.8786141
19482.5567452
19564.183501
19568.1241344
18439.7993112
18499.8162385
19564.5253609
18433.9769068
19567.093967
19560.3978727
19553.6775468
18328.474879
18218.059294
19559.4582762
19554.971115
18341.5934205
19564.0744666
19566.9597365
18500.8054644
18447.112519
19564.957352
18444.6389181
19566.6357087
19560.3334255
19555.8998655
18228.9286086
18351.1679979
19554.8886005
19561.4332539
18353.5581468
19537.8290507
19546.5736935
17827.3903899
18043.2066497
19537.3035727
19547.5354599
17841.4818381
19527.8909106
19518.2098213
17616.0300928
17431.2640315
19527.1924511
19517.5433322
17639.8022337
19537.5636716
19548.2314948
18053.8322774
17833.6159864
19547.3101566
19538.0852494
17840.7098389
19527.0106623
19515.0361124
17410.2292828
17599.3107066
19515.5387564
19526.8880195
17628.1864926
19500.2776933
19510.4710545
17109.4286127
17236.6923786
19502.7082212
19508.4277978
17072.3184303
19494.8435635
19494.5027962
16951.5666232
16828.3762485
19496.0992916
19493.7241064
16949.1747146
19497.5854312
19505.0284915
17213.4991255
17019.7698932
19505.5548791
19497.4678044
17047.0383809
19492.8902866
19495.5570582
16845.5689987
16911.1813238
19493.9690457
19493.4821587
16937.6690218
19496.7062875
19494.161202
16798.7020328
16810.7077284
19496.4800449
19494.580098
16833.6997927
19501.4879302
19505.6169289
16822.6674057
16927.9592687
19500.9768177
19506.8899522
16876.5089004
19499.2639432
19497.8555329
16856.1071759
16916.4169037
19496.1353729
19501.439847
16888.3818005
19504.2204116
19512.0787361
16978.4357295
16966.4140647
19509.9761899
19506.6048041
16931.8912613
19515.0537843
19509.5534843
17033.1508435
16988.2511986
19513.865082
19511.0482755
17072.4150318
19518.1474918
19519.9596129
17083.4545128
17160.1769397
19517.3739562
19520.7444167
17129.2127037
19519.0396404
19516.5924553
17031.3422458
17151.6941268
19514.5779543
19520.9611785
17109.1835
19522.6333136
19527.5727415
17198.1637545
17207.5494544
19525.2168568
19525.0646128
17166.1310088
19524.430038
19521.9735128
17209.3458142
17187.8304683
19524.3632303
19522.5687238
17225.2772883
19527.1714638
19531.9789644
17241.9734995
17281.0870625
19528.386334
19530.3946616
17261.3553806
19527.1905087
19528.514123
17220.2630768
17282.0962926
19526.492908
19528.368513
17250.4170723
19528.3471682
19530.1361668
17296.184339
17303.6725935
19530.083257
19529.1536249
17282.56776
19533.2069167
19533.6840835
17305.2157506
17290.2266151
19534.589934
19532.1066135
17309.5148373
19533.3287268
19535.3111817
17330.2902863
17326.2228166
19535.4930694
19533.1894132
17327.1567574
19531.0008024
19530.5241784
17297.2881304
17323.8826149
19530.8678663
19530.4239456
17309.4670611
19530.9454233
19530.0313156
17306.689921
17315.9968882
19530.5734699
19529.9715557
17318.6422389
19528.0680922
19534.4446341
17249.0209101
17295.797011
19530.5487917
19532.3393881
17209.4979688
19520.3949554
19513.8764128
17149.5427464
16978.9349784
19523.1258439
19510.9313389
17093.6963582
19525.8910541
19528.1553032
17247.8772856
17089.3589758
19529.4713184
19524.2451557
17149.2390223
19520.1122847
19512.9580135
16931.7074835
16980.7304361
19513.2565854
19518.8871749
17036.6359212
19494.3895355
19504.982913
16855.2726167
16884.4918425
19496.2782687
19501.9281982
16805.2706016
19486.9868073
19487.1256684
16770.8956969
16735.4665987
19488.9359499
19485.0156629
16727.391156
19500.038371
19507.088467
16853.1900916
16781.1450741
19506.0715535
19502.2563688
16785.0217091
19493.9172067
19495.4496769
16750.2699735
16759.6016142
19491.6737774
19496.8798134
16737.2462742
19475.8526063
19484.1545421
16851.3490115
16867.4147227
19476.1940946
19482.7507681
16865.1386014
19456.8412389
19492.9022408
16401.4160365
16839.0107854
19454.9570136
16445.8765216
19495.8077506
19483.522236
19493.8362967
16894.8742912
16929.3464488
19489.8623131
19487.5162645
16897.9994052
19466.4010889
19506.5558716
16857.2870272
16507.3108707
19470.6064177
16475.1263105
19503.5132875
19567.3395375
19568.0171124
18444.9668228
18526.6913361
19566.1106791
18463.0040659
19569.1974889
19563.5251882
19557.0354674
18338.9356516
18197.8572143
19562.4961968
19557.7662449
18347.0930613
19568.5005474
19569.902359
18543.0669854
18500.3547444
19568.9241505
18490.4279034
19569.9706294
19564.6778637
19557.0608652
18180.7655534
18366.766055
19557.8358586
19564.5674284
18358.3910847
19538.4315057
19549.2968775
17797.4385554
17993.8010674
19538.7802574
19549.1735689
17754.8631795
19526.7011813
19515.4626417
17561.2280021
17267.5625749
19527.3554365
19514.243577
17506.8809147
19535.9749629
19546.7960613
17944.7413341
17620.8713656
19548.0323237
19533.6411325
17687.5696991
19523.4976459
19508.7729545
17192.3070154
17348.2789058
19511.0964415
19520.8013259
17435.117652
19500.1704145
19505.5152467
16989.9907743
17082.4731672
19499.2496082
19504.9496176
16947.028538
19497.7622652
19498.3160669
16911.7444206
16896.8952414
19496.1367743
19500.0470937
16893.6951397
19500.0611992
19501.3623642
17026.8356614
16858.7217691
19502.7776523
19499.6222975
16908.7516632
19499.3101415
19502.6237787
16916.2588931
16868.8739659
19501.5931673
19500.492275
16895.6184184
19508.0802594
19501.4567314
16950.5575755
16915.4504145
19505.8764171
19503.4944085
16964.3597483
19513.1503666
19516.5045295
17006.8877059
17097.9212747
19511.1137646
19518.8189886
17034.2115154
19509.0662588
19506.4052712
16941.5820905
16995.7775684
19504.8391589
19510.8470651
16984.9125667
19514.1287875
19520.6777832
17112.3613418
17052.7469234
19519.5806775
19515.5287387
17049.8517497