/*--------------------------------*- C++ -*----------------------------------*\
| =========                 |                                                 |
| \\      /  F ield         | OpenFOAM: The Open Source CFD Toolbox           |
|  \\    /   O peration     | Version:  v1906                                 |
|   \\  /    A nd           | Web:      www.OpenFOAM.com                      |
|    \\/     M anipulation  |                                                 |
\*---------------------------------------------------------------------------*/
FoamFile
{
    version     2.0;
    format      ascii;
    class       surfaceScalarField;
    location    "2.5";
    object      alphaPhi0.water;
}
// * * * * * * * * * * * * * * * * * * * * * * * * * * * * * * * * * * * * * //

dimensions      [0 3 -1 0 0 0 0];
oriented        oriented;


internalField   nonuniform List<scalar> 
92311
(
0.201220727374
8.5096723477e-05
0.000877370906517
-0.201630280224
-0.000552968983934
7.91514388317e-05
0.200821393091
0.00103043380217
-0.000710459321546
0.201225227792
0.000136576566806
0.000923512105602
-0.201669136917
-0.000531333126319
0.000167267992519
0.200762715773
0.00107441160754
-0.000700274128761
0.201216565016
5.82395328917e-06
2.58511216677e-05
0.00100684721053
-0.201753056729
-0.000563708727126
9.03233137816e-05
0.000107675971262
3.3802004829e-05
4.6178510293e-05
0.00012718232445
0.200631465136
0.00114287532074
-0.000718346155409
0.000120497305242
0.0504576167699
5.19812762372e-06
1.37181537275e-05
5.58515639288e-06
8.4410053346e-06
0.00018147137861
-0.0505345537509
-0.000131709869335
-0.0503528153378
0.0502486552081
2.66091457522e-05
2.30841557038e-05
2.21005434455e-05
2.35720497993e-05
0.000248460438488
-0.00020596017435
-3.0650684093e-05
0.000625747577263
-1.65768165642e-05
-1.66976760017e-05
-3.20948999451e-05
-0.00010408100554
-0.000599619177373
1.05806507999e-06
2.91689336782e-05
0.000805641350267
8.86750046325e-05
4.64344390148e-08
-0.000738282719952
-5.16876381442e-05
-5.12691729933e-05
-5.04587757849e-05
-5.15342552161e-05
-0.000111593561272
-6.58784882691e-10
-7.90528983485e-09
1.42248404537e-10
-2.36452073948e-11
3.2756953579e-12
6.18434605798e-11
-8.07409893334e-10
1.51573002899e-10
1.73460727378e-05
2.07264575606e-05
2.2704247558e-05
1.67218315062e-05
0.000226517294386
-0.0001734051592
-1.54875555703e-05
0.0118204393148
-6.82628988258e-06
-3.22130852598e-06
-0.0118291240448
0.0118353869827
3.69921760088e-05
-3.60791103195e-05
-0.011834837398
-8.68450144282e-06
1.71770334286e-06
-0.000231245649467
2.6498971706e-05
0.0501552014382
2.81544259443e-05
2.81453053072e-05
2.39266942128e-05
0.000264081957553
4.02350341088e-05
0.0501396092299
3.87654358765e-05
4.12040008028e-05
4.26616468246e-05
-0.0502278971868
-0.000178750475302
4.11979047206e-05
-3.91693849631e-05
0.0118358128868
-6.60212422195e-06
2.49324280965e-06
-6.7261833975e-05
0.0125300457853
6.50862002832e-05
4.17077356074e-05
-0.0125431073153
0.0125257590624
-5.19860662792e-05
3.80150596117e-05
-0.0125388146819
4.02884249616e-05
0.201967800318
0.000762785991515
-0.000394273281279
-0.202376524809
0.200535854071
3.20907954146e-05
0.000965656428395
-0.000712462449417
-5.71741707776e-05
0.200387934624
0.000900402379085
-0.000695379850262
0.000155861480528
0.201962386986
0.000719027232951
-0.000424003669939
-0.202373135044
0.200433663017
6.80370114045e-05
0.00100533205956
-0.000712471247834
-0.000124010370825
0.200264240839
0.000926203231535
-0.000690016175237
-1.39248484763e-05
-6.79382277061e-06
0.000118285426189
0.000939816272601
0.202070777601
-0.00049123380339
-0.202555048164
9.38019614193e-05
4.46881142344e-06
7.7076731433e-06
7.80113857655e-05
6.44487047192e-05
0.200189020309
0.00107065997748
-0.000715049363569
0.0507299785298
-1.07997472393e-05
-1.10315778221e-05
-1.91627200336e-05
-2.65873296403e-05
0.000138422741026
-0.0507248425371
-8.99763842387e-05
0.0500546142523
-0.00024564805467
1.77415119705e-05
2.22980574335e-05
1.90825787387e-05
1.80980771686e-05
0.000273422182082
0.000108066829932
2.45394190251e-07
0.000847051626159
-6.06124066523e-05
-4.55332847808e-05
-5.18762149013e-05
-4.78015887548e-05
-0.000115989299873
-4.57374688805e-08
-6.37581017631e-08
-4.2355446452e-08
1.08388952417e-08
6.63726760865e-09
-2.42860833353e-09
-4.20030483968e-09
-8.22119125539e-08
-2.8101481956e-08
2.30358406554e-09
-1.16232634442e-07
1.80731427459e-09
5.20083579869e-09
4.94240129024e-10
-1.58210150194e-09
-0.000184774293069
-3.68857294187e-06
7.49305693035e-06
-9.03790600443e-06
-2.95840120603e-06
0.0506599443285
0.00025606130759
1.79003905403e-05
3.33869380552e-05
2.19947986717e-05
2.3738606945e-05
0.0505815674638
-0.000118829844641
-0.0506263319612
4.71118203631e-05
-8.4344978053e-07
0.0117537619492
8.73795226058e-07
-2.5155624454e-05
-0.0117912855824
4.74602725083e-05
-2.61096735907e-05
-0.0118102359004
-4.4409349614e-06
-9.28714522714e-06
0.0117812613885
-6.0168865377e-06
0.012654894546
3.99345387028e-05
-2.01180989435e-05
-0.0126504832345
-0.000253229937429
1.43694560291e-05
1.35183265441e-05
1.23194637182e-05
6.92397541423e-06
0.0499904203199
0.000277945303964
0.0500539295477
2.65961237131e-05
2.51299201257e-05
2.9669753528e-05
2.41396546692e-05
-0.000187614874754
1.09083599928e-05
4.02772211817e-06
1.76282265417e-05
1.13907694924e-05
0.0500067889776
-0.0001857224273
-6.95931933234e-05
6.92021969672e-05
3.34368071634e-05
0.0125147260779
4.45155145416e-05
-2.83271794794e-05
-0.0117985001661
-7.09302209095e-06
0.0117873070873
-4.50356747055e-07
-5.40495832478e-05
2.52263094387e-05
0.0125115701664
-0.0124994428181
-4.12311908846e-07
0.0124917949917
5.84263178214e-05
-3.94826096053e-05
0.000673858006019
-3.89615027876e-05
-2.97891580861e-05
-2.74171377786e-05
-0.000111547228907
4.21503625909e-05
8.1773216417e-07
7.69418918652e-07
-3.76550520809e-05
-4.18140242123e-05
-5.47871823932e-05
-3.74129245368e-05
0.000839828072422
4.4185660359e-05
-0.000790749139239
-2.17370953171e-10
1.59181692608e-07
-1.47358860725e-08
5.31165106383e-08
-5.86904309116e-10
2.28243821053e-10
-1.60454724625e-10
3.67523761336e-07
-4.60563973525e-05
-4.62537911521e-05
-4.61698239043e-05
-0.000108005763722
5.8123121879e-05
-4.33039509704e-10
-1.55293900401e-08
3.57411918591e-09
-3.68420555357e-05
0.0126309057873
3.51906243142e-05
-0.0126394175286
-0.0126288556749
2.65395412087e-05
3.89716434692e-05
0.0126162878115
-3.92341702883e-05
-2.31487900478e-06
-1.62181159153e-05
0.0118380604037
-8.96202870104e-07
-9.00824769606e-06
0.0118536229543
-0.0118542464506
-8.54425070535e-06
-0.012635480794
-3.34684447911e-05
0.0118426065706
-8.74623415047e-06
0.0126219887285
4.03416363865e-05
0.0126040629341
2.69328828492e-05
4.58548605806e-05
-4.32293663719e-05
-5.05676001944e-05
-0.0126076296765
0.0125929205257
4.98766048796e-05
-8.15293837757e-06
-3.07762331901e-05
7.90533334231e-07
-3.36964751103e-05
-0.0118416243068
0.0118476572601
-1.06746359087e-05
0.012590314145
-4.77787199198e-05
-1.03736239104e-05
4.6146355739e-05
-0.0125735854262
4.26353631126e-05
5.74184668923e-05
0.0125583022076
-5.81774218691e-05
-5.42117823927e-05
0.0125774540646
5.35707062466e-05
-9.47467575965e-06
-4.07966396132e-05
0.0118354237115
2.75237321825e-06
-3.89562862816e-05
0.0118412028961
-1.28855259123e-05
-5.43384562677e-05
0.0118379289046
-1.53043730899e-05
0.0125615031858
5.6125086701e-05
4.62047825203e-05
-0.0125471326015
0.0125335224045
6.05914150459e-05
-9.75008235523e-06
-0.0118292429694
0.0118268577909
3.11239418187e-06
-0.0118340263699
-1.69689198582e-05
0.0118285039949
4.46972763313e-05
6.12855398679e-05
-6.26657725604e-05
-9.19098546184e-06
-4.14559034472e-05
2.52606049715e-06
-1.59517951256e-05
5.80553774056e-05
3.74217103729e-05
-0.0125348286303
0.0125230152828
-3.88416655201e-05
-1.41232451699e-05
-0.011824490218
0.011823087726
-0.0118143667305
0.011812789544
-1.64234150162e-05
-4.75146519552e-05
4.08672897177e-05
-0.01255364763
-4.81966385663e-05
1.09270808803e-05
-0.0118206502055
-1.53066192822e-05
-0.0125506332412
-3.72822434242e-05
-0.0118250065084
1.00569983217e-06
-0.000151428645904
9.50626201414e-07
-3.82072299664e-05
2.80529249886e-07
-3.89804371338e-05
0.000618901440452
-0.000627251217873
8.77875493108e-05
9.61075759897e-09
3.57122720592e-07
5.00698355912e-08
-4.54427091954e-07
0.000645906081657
1.15656092793e-06
9.26065605466e-07
2.47616556359e-06
-2.47179218862e-05
-0.000208585354415
0.000143556017006
-0.000663503866292
7.22043706879e-07
5.63561571922e-07
1.20588658538e-07
-4.02512935515e-05
0.00065635416982
-0.000203686944564
2.27143766726e-07
-6.86442093641e-08
-2.587002485e-07
8.45525057609e-08
2.79441280764e-08
2.04646570525e-07
1.62180489466e-06
0.000846537839596
-2.92501025008e-05
-3.66137339643e-05
-3.28358384073e-05
-2.30459035471e-05
5.08748089532e-05
-7.69614726715e-09
4.8962655125e-07
1.54502383553e-07
7.13725192677e-09
-7.40314333426e-10
2.84194757954e-06
-0.00012518104835
-8.99847567774e-06
-1.60082900015e-06
-1.6383797954e-05
-2.69954627481e-05
0.000820553132085
4.32507316364e-05
-7.97240913112e-08
1.28526551338e-06
1.19204410479e-07
5.46131862316e-07
-3.65763560217e-05
-3.24453632374e-05
-4.93441867159e-05
0.000870556616902
-0.000129478280837
1.15473265063e-07
-1.80845882516e-10
3.52530158026e-05
-0.0126720217789
-6.38946957337e-06
0.0126710839852
-3.85643122055e-05
0.0126768222193
-3.43893950812e-05
2.30827653921e-05
-0.0126774723985
2.17184273354e-05
1.94884938044e-05
0.0117931594595
-1.89167685749e-05
4.65029629261e-05
0.0118337683908
-0.011799776231
6.15588743908e-06
0.0126792843293
3.59245224445e-05
-0.0126596175062
-2.63420934787e-05
0.0118043402472
2.41394101349e-06
4.22615729945e-05
0.0126672446801
6.08085005946e-06
-4.81194565218e-05
-0.0126811111428
-5.97621166691e-05
5.39128603743e-05
0.0126683149685
1.27433152464e-05
1.71030396233e-05
-1.35862623162e-05
1.28121280597e-06
-0.0117690774768
-4.36978337544e-06
0.0118035889348
4.45696999759e-05
-5.77449748946e-05
0.0126639134283
-1.47938309878e-06
0.0118416051201
5.81623395687e-06
1.03710668853e-05
-0.0118149583839
-3.10391194963e-05
-7.01560853691e-06
0.0118194227817
6.13518910623e-06
4.02629071925e-05
0.0126463878338
-2.94427869202e-05
0.0126564881443
1.89974990242e-05
-0.0126617047536
-8.96309780134e-06
-0.0117777427775
0.0118122472207
0.0126544010799
-0.0118140041552
4.49172433405e-05
0.0125162243616
6.38384049697e-05
-1.12072054948e-05
0.0118152422225
2.78525866087e-06
0.011821991343
-1.72326887664e-05
7.13414909902e-05
3.32255409975e-05
0.0125015781662
-7.23478691358e-05
-3.72824608255e-05
-7.80536962957e-06
0.0118030467639
1.74945313623e-06
0.0125022151862
6.60887902155e-05
0.0118164342585
-1.62450866993e-05
7.25461530744e-05
0.0124894763137
2.75934535096e-05
-7.36883012463e-05
-0.0124916498206
-7.48278053575e-05
0.012482257066
6.93860945723e-05
-2.77208692179e-05
-4.93341228715e-06
1.3494117938e-06
-1.1107713055e-05
-0.0118009092385
-1.54414753461e-05
0.0117849770474
6.7663556439e-05
-7.27637849398e-05
0.0124832261071
-1.56357116961e-05
-0.0125097149521
1.93302876427e-05
5.6656861105e-05
-4.05842758839e-05
2.89590612432e-05
-3.99986693893e-05
-1.42432447019e-05
0.0118173804624
0.0118139308223
-1.70329826867e-05
1.42606409769e-05
0.0118060361892
-1.778901515e-05
1.89344125902e-05
0.0125010745008
0.0118153563068
0.0118005575921
1.79944098434e-05
-1.73217582648e-05
1.30538121608e-05
1.45195901869e-05
0.0117913497591
-1.5871539054e-05
5.71500418615e-05
0.0124896907292
-3.79534297722e-05
0.0124905325709
1.29122525852e-05
-2.66752258302e-06
-0.0118037262413
0.0117880971789
0.0124836736208
-7.90523781774e-05
-2.53386955426e-05
-4.86788203256e-05
0.000993154778756
0.200007363336
-0.000100543813544
-0.000682077228323
-0.000243688836681
-1.19516642084e-05
2.23068956602e-06
-5.27877165187e-06
-1.05233371164e-05
0.000275939846479
0.0499045852729
-4.29218335705e-05
0.000117787215075
1.2790547591e-06
-2.69606634685e-05
-1.23113937389e-05
-1.44858127256e-05
-0.00014709879602
0.000880069796149
-1.93495082995e-08
-1.55552426684e-07
-1.6672760219e-07
1.00273395495e-08
7.87268394831e-08
-1.175316753e-07
-8.9537334872e-10
4.56931664473e-05
3.83853774968e-05
3.5613857797e-05
4.03233855089e-05
-0.000148125631447
0.000258099041047
0.0504930251429
3.53906213396e-05
-3.31252133628e-05
-2.18650552225e-06
0.0118111570898
0.0499418489513
-9.91541510693e-06
-6.17573891808e-06
-7.77049951178e-06
-7.72040566561e-06
-0.000172633318427
0.0499071253428
-1.79445835916e-05
-2.12825245024e-05
-1.89510964888e-05
-1.99706750896e-05
0.000213144942889
-0.000149101327775
-1.93740804606e-05
0.0117680391013
-7.49041839659e-06
-2.65973949411e-06
6.60936754054e-07
1.53666538813e-05
1.31068919675e-05
0.0117766840183
-1.47780513198e-05
0.0117055475682
-1.67052753496e-06
3.22768260506e-05
8.01042938594e-06
-0.011720677284
-7.19905622317e-06
0.0498738439761
-5.05542362828e-05
-3.85026652792e-05
-3.98360205745e-05
-4.37593594617e-05
0.000150405703736
0.0001835053643
-0.000128147811616
-8.26621203236e-05
-9.43158163318e-05
-0.000104917422158
-7.41759912817e-05
0.000246386327354
0.000154206550864
0.0499415823795
-0.000112449752288
-2.71306845095e-06
3.96473969425e-05
1.11460621066e-05
0.0116862071913
-4.19228341994e-06
-6.38229742714e-06
0.000111878078458
-1.39940106814e-06
-0.0116248369759
0.0115653274703
-9.62174611651e-08
-2.12090185836e-05
-1.86787614476e-05
-4.63918101577e-05
-0.000150960771641
0.000653211877597
5.20035049715e-07
0.000799139352706
2.80864170144e-06
2.855593128e-07
1.63762455769e-07
5.17554629711e-07
3.39497589156e-05
2.74484149527e-06
0.000795943902547
1.0430171093e-06
9.36900961341e-07
7.22000875191e-07
-0.000101444212757
2.13497593572e-05
-1.07088950328e-07
-3.42821213096e-09
6.90862259623e-07
2.01400726124e-06
-1.40450969357e-07
4.07253279098e-07
2.25019701434e-06
-1.58332142873e-07
0.000750957721607
1.80220279137e-06
2.5813440261e-06
3.35975920981e-06
-8.46793347008e-05
3.7804528146e-06
9.91811719309e-06
8.27465563508e-06
3.4386489286e-06
5.23232062803e-06
-7.89897082881e-05
5.65682918469e-06
0.000626130678541
1.32552336278e-05
-0.0126453959303
4.88494757764e-05
-5.9320871507e-05
7.31522039808e-05
0.0126282518664
4.85943166011e-05
0.0126381964241
-2.82752618494e-05
0.011818582405
6.83403481236e-06
7.37348180962e-06
-3.17063158124e-05
0.0118313373819
6.49867191351e-05
9.27638953327e-06
0.0118071137784
0.0126278064176
6.99963023517e-05
-0.012473587585
-7.6032218868e-06
-6.6595641219e-05
0.0124658557348
0.0124693461319
-7.46364604693e-05
7.03588683707e-05
-4.94154726618e-06
-3.57714139278e-06
-3.45226707834e-06
0.0117489230427
4.98533247176e-06
0.0117762879314
-1.38036073733e-05
6.93345708518e-05
0.0124597297489
-7.05055870063e-05
-1.23823801529e-05
0.0117627948007
-0.0124760570035
-2.1199484867e-05
-5.08718580556e-05
0.012471689092
5.28205529943e-05
0.0124819323561
-3.58488120611e-05
1.7777863769e-05
0.0117746563246
1.30534872088e-05
1.93841020612e-05
0.0117509807386
-1.32500285599e-05
0.0117620527887
0.0124760101117
-3.32856646648e-05
0.0124628067513
-2.34453342142e-05
-4.74479129968e-05
6.18830272056e-05
3.93013261409e-05
-0.0124677488419
0.0124645936153
-2.50676942992e-05
2.65577106216e-05
-0.0117415267296
0.0117116087349
1.11202699474e-05
1.06565735334e-05
2.91839001279e-05
-1.03688034524e-05
0.0124559512625
5.37726621365e-05
1.19331449963e-05
-2.99585964445e-05
-0.0124435055756
-5.87902466296e-05
-2.57694478823e-05
0.0124385553418
3.90508380895e-05
3.48445308412e-05
0.0124526284283
-2.15510098232e-05
3.89540852748e-05
0.0116807743686
9.6029041001e-06
4.89446721609e-06
4.44098672283e-05
0.0116609839669
-2.34938754957e-06
4.64111382769e-05
0.0116469672505
6.87108925104e-06
0.0124449555601
-1.73368275359e-05
0.0124276378854
-8.39701575252e-05
-2.10930009327e-05
3.35178596261e-05
2.32860942623e-05
-0.0124308275253
0.0124422293421
-1.69041742077e-05
0.000131202146872
-0.0116134189439
-5.05715953334e-06
0.0115537403297
1.69776215995e-06
6.4861953095e-05
-1.42431008286e-06
3.39866521386e-05
0.012443534643
1.40831153536e-06
-1.61508072718e-05
-0.000496846510016
-0.0494682492194
0.0493545418667
0.000610242201058
-5.10780102035e-06
2.28340255841e-06
-6.02498322899e-06
4.79559581942e-06
4.10634798868e-06
-0.000615118132278
0.0498866678744
-1.59744612645e-05
-1.05328553838e-05
-2.03776963111e-05
-1.33501696165e-05
8.13477578443e-05
-0.049822919782
0.000530167056838
-0.000940370410208
-0.0500462607224
0.0503361946653
0.000773352615761
-4.87638472323e-05
-5.08331994066e-05
-6.22077256651e-05
-4.57408012065e-05
8.46401018401e-05
-0.000572837634387
-3.32465239712e-05
-3.65753458321e-05
-4.61763010357e-05
-3.99094242752e-05
0.000130499092513
0.0504254427332
0.000415940364894
-0.050243115114
1.4935588926e-07
5.05390532191e-05
-0.000575822521092
0.000538067920114
-6.30279468773e-05
4.32268681284e-07
2.83642008706e-07
-4.31925014941e-05
1.56574318845e-07
4.3507267258e-06
-0.000451846376633
0.000349472229344
-7.29854825475e-05
1.55531090225e-06
9.43410890059e-07
-7.33766073452e-05
5.75519308126e-06
7.09282664032e-05
-6.36087486116e-06
6.08496468174e-05
0.000585383243177
1.97133775335e-07
3.63651867024e-07
-1.35047561342e-05
3.35187794432e-08
-0.000609522633477
-4.25728860695e-05
4.53693178066e-06
7.5424020967e-05
-0.000532225441457
0.000458372885451
-5.07369479699e-05
1.19307900254e-06
1.48307552464e-06
-4.04538203756e-05
3.46080694758e-06
1.72764572554e-06
2.09811391941e-05
1.61338191661e-06
-5.1612655498e-06
8.61476215508e-07
0.000492544711399
1.00978974362e-05
9.20313986858e-07
-0.000554963390127
8.58099511041e-11
-2.36388921494e-12
-5.25920703184e-09
-3.91069616969e-08
-6.56790672115e-09
-3.98523886615e-08
1.60053908653e-10
1.35396675489e-10
1.92568956788e-09
-1.15968412943e-07
-1.53396074768e-07
-1.02908531819e-07
-9.37107622576e-08
1.28037211233e-08
-2.4297373935e-10
7.82490482103e-10
1.39114422927e-09
-5.96261070097e-09
-4.36639106868e-08
-3.48508023444e-09
-4.47607386313e-08
4.38449234719e-10
1.04629358715e-08
-1.04670364418e-07
-5.92801410307e-08
-1.19400832574e-07
-8.1766913127e-08
1.67964026203e-08
3.03197930828e-08
-1.56303534526e-10
-3.64140647567e-08
-2.97471291907e-08
1.80528823882e-09
1.51718508933e-09
4.57883524411e-09
-1.35431087269e-07
-1.30520173428e-07
-1.25203819764e-07
-1.64302744133e-07
1.01241515545e-07
2.86934652036e-08
0.000218493386956
-7.69004687028e-07
6.58841144351e-06
9.13940013344e-07
4.48398342283e-06
0.0492304046372
2.13462049321e-05
-1.56611090223e-05
-0.0494657862606
0.049321588837
0.00035813752753
6.03197577548e-06
1.45947409393e-05
9.10992682772e-06
1.56483972146e-05
1.32167845752e-06
-0.0495080291846
2.31864153969e-05
-1.25205626051e-05
-0.0121388400849
-8.17670017413e-06
0.0121326037702
9.05432972844e-06
0.0121247205009
2.7397518113e-05
2.5403958113e-05
-2.14794930432e-05
-2.41269076697e-05
-0.012130397363
2.5834836461e-05
1.88499693283e-05
2.67821265521e-05
1.44296092711e-05
-0.000278761611416
0.0123016895138
0.0122804882576
0.0122249228709
0.0122927095855
-8.23752246785e-05
4.24633153339e-05
-1.34184192751e-07
-1.0289198071e-05
-2.32111471302e-05
0.0121427848441
0.000439274387651
9.9248628079e-07
1.30403208641e-05
1.37615469328e-05
2.0951995121e-06
7.09701172907e-06
-0.0495864292135
0.0496465216341
3.82720880533e-06
8.31301905523e-06
3.44656946171e-06
6.16719596492e-06
1.19395469056e-05
-0.0496993969532
0.00045832057878
0.0121252432602
2.63330113702e-05
-2.18809577273e-05
-0.0121283456085
2.64870823178e-05
0.0121092606407
1.78675870074e-05
-1.3538386852e-05
-4.02217466821e-05
-0.0121203656302
3.711510953e-05
0.000860759309867
-8.01769179519e-06
-1.01342540735e-05
4.9965733784e-06
-1.97697588112e-05
0.0493971275397
-0.000213323928564
-0.000185781838004
-0.000212857187119
-0.000178048303273
-3.10620813488e-05
-8.76290167196e-06
-2.4574925199e-05
-1.64057494838e-05
0.0496328361211
-1.19031491599e-06
-1.70728655364e-06
6.8151006602e-06
-1.12797727497e-05
1.58976294508e-05
0.0498220612849
0.000765839661777
-1.38904784455e-05
-2.39299296569e-05
-2.74397919689e-05
-1.17210410599e-05
-1.77315585963e-05
-4.16096594106e-06
0.0121378908428
5.5471904518e-05
0.0121003550537
-1.63535912628e-06
4.63005519243e-05
-0.0121400895926
0.000102251972642
-7.80300897714e-05
4.76487657599e-05
-8.31376099454e-08
3.46963037463e-07
-4.38323964569e-05
0.0121061466771
0.0120390809259
7.97142244961e-05
-2.0245094938e-06
5.25560272958e-05
-7.30204073889e-05
-0.0120938704106
0.0501589895684
-3.98640248158e-05
-3.86911354312e-05
-2.50213697334e-05
-5.135334324e-05
-0.0010778616193
-4.50800143799e-05
0.00111619663485
-5.14365361881e-05
-3.74758015861e-05
-3.13780313254e-05
-5.1870940482e-05
0.0507891392355
-0.000133354994447
-0.00144058870722
7.33285139781e-05
0.012133537383
0.000151312915658
-0.00010181318831
-9.01689504956e-06
9.15269258476e-05
-0.0119283394475
0.000193881147541
0.0118557380818
-0.000161709315884
9.73170912425e-05
-5.93516399879e-06
8.92565216307e-05
-6.83303161355e-05
0.0120633463072
0.000123181286322
-6.73553297945e-06
7.80167297491e-05
-0.000119010413626
-0.0119255208245
0.0118416501334
0.000648404651496
-2.95679838045e-05
-3.1547324455e-05
-2.39915352168e-05
-4.25274052604e-05
8.53880926472e-05
0.0501751238658
-1.58246787592e-05
-1.71723306688e-05
-2.74171475055e-05
-1.55524680719e-05
5.59545039518e-05
-0.0500169943122
0.00051016911786
-1.97783022145e-06
0.012091798973
4.55797713008e-05
-0.012098454982
0.0120296612401
-1.44912931927e-06
4.28159655338e-05
-0.0120874997102
8.11219188253e-05
0.0119908718034
-8.04723428569e-07
1.80197668721e-05
-5.6124753602e-05
-0.0120500223731
5.69870002262e-05
0.000837115560721
-6.13702787792e-05
-4.85332558834e-05
-4.80241147946e-05
-6.69859436195e-05
0.0507217065508
0.00011858461106
0.0503752379665
-2.9247516947e-05
-3.32483196853e-05
-2.70179834849e-05
-4.24839494768e-05
0.000132280853221
-3.92358332447e-05
-1.85177743077e-05
-2.02275788036e-05
-4.23508124309e-05
0.0506420888012
0.000615199126744
7.55309423017e-05
7.88174875049e-05
0.0120449608252
0.000111007984326
-4.19887460191e-06
6.26019728989e-05
-0.0119382731975
0.000108899127226
0.0118520777701
6.47940453527e-05
-2.70159140824e-06
3.99569011809e-05
-5.40750139009e-05
0.0119781605519
6.96992766311e-05
-1.4961217474e-06
1.50183362686e-05
-7.2056811463e-05
-0.0119536482795
0.0118696583581
3.50939223638e-05
0.0119664339339
6.29825777562e-05
-0.011982447071
1.03004752821e-05
-0.0119649089992
0.0118797570618
-4.98561279014e-07
5.46443057235e-05
-4.34748403523e-05
-1.39880767012e-05
2.98876425261e-07
-3.11396165918e-06
0.000569248295873
4.69146051426e-06
-0.000567450276641
3.34133966134e-07
0.000567701925449
-5.82142798134e-05
6.86478699258e-10
-5.22504194448e-05
6.41325480603e-08
-0.000557168045427
9.87933938492e-08
4.25410335179e-07
-4.6548976183e-05
3.37131276366e-07
-7.14467319426e-06
3.32370923977e-05
0.000528051583777
1.24052260921e-08
8.93882289564e-09
-4.91602768117e-07
4.16527589296e-09
-1.74989872951e-08
1.4216908522e-08
7.06495458211e-08
-1.13886497957e-06
1.15734823904e-08
3.24866779966e-08
1.89384330619e-08
-3.88960607346e-09
8.63191821295e-08
3.92142176822e-08
-1.09991380215e-06
1.72576238872e-07
2.01798446241e-08
-1.95714768642e-06
5.27848395226e-09
2.35010856851e-08
2.29635405068e-07
-1.98473417588e-06
-6.63058923742e-09
1.62825956691e-07
5.06837666186e-08
-1.7379718843e-06
6.70039151089e-08
1.40184489623e-07
-1.42548056604e-06
-6.41240370963e-05
-5.25579595663e-05
1.15141875951e-07
-3.60416992421e-06
3.4758203389e-08
-0.000564398669379
0.000591908880284
1.62844988579e-07
-1.95000598195e-05
-1.29330559479e-05
-0.000576212980943
-3.18138787263e-10
-5.90722695446e-05
-6.95174812583e-05
1.075624338e-06
-3.67267342286e-05
6.44775883528e-07
2.26569559328e-06
5.67002501092e-05
0.000565538033075
3.07710242226e-07
-3.28945764797e-05
4.15931833447e-07
8.41099225942e-08
9.98627480189e-07
0.00050489577161
-7.49821389788e-05
6.2578040285e-07
-4.13033386909e-05
1.92163092536e-06
5.86633443394e-08
3.40184330345e-08
-8.52123918895e-10
9.16423669267e-08
1.44687715732e-07
1.14129730283e-07
4.93781621176e-08
-1.54498883445e-09
2.54989242092e-07
1.37572791138e-07
-5.94376767333e-05
9.75246874545e-07
-0.000107807075265
2.21666296719e-06
1.09945685552e-05
0.000284164712317
6.73009485823e-05
0.000416130262687
1.51722315113e-06
-5.39096382565e-05
1.39766077619e-06
5.04211927452e-06
1.09131872301e-06
-4.80426277089e-05
2.27755308169e-06
-8.79868970146e-05
9.84770790384e-06
0.000347248974274
1.76467552324e-07
1.3123879926e-07
1.17976702764e-07
1.22058996639e-07
2.93232356144e-07
2.31956263904e-07
2.03928101891e-07
2.35712987835e-07
-5.78237477377e-05
8.26214720223e-07
-2.76758199003e-05
6.25965107647e-07
1.5049839018e-06
6.69471955141e-07
0.000542492315921
7.74095874409e-07
-1.91010529668e-05
8.26034698448e-07
-0.000592816644036
-2.19042316799e-05
1.89524320232e-07
-2.95283314774e-08
5.81608583822e-08
1.65065604025e-07
4.85832521409e-07
8.44640309236e-07
-3.94682148508e-07
1.73177390519e-07
-1.48475327769e-05
8.44472175856e-07
-5.5855859694e-05
1.93616016034e-06
6.73471244956e-06
0.000386140357453
0.000478247638115
9.32208222013e-07
-1.87522444617e-05
1.35731213964e-06
2.0116587709e-06
5.89732904313e-07
2.15908735405e-06
-2.86533109371e-05
4.88297931724e-06
0.000411121843809
3.76398724173e-05
6.39387057573e-07
2.6377634105e-07
2.64529251816e-07
5.34324829437e-07
1.2517048023e-06
2.71341851901e-07
1.16660077385e-06
3.12720361867e-07
0.0123505048557
2.89658008145e-06
-2.58498336326e-05
4.59510768218e-05
-0.0123743072743
2.56571573576e-05
-0.0123501990203
0.0123170891358
1.46791997795e-06
-3.59541840254e-07
-4.26569707552e-07
6.46041160738e-06
-0.0121359729907
2.41139430315e-06
-0.0121119222952
8.60128485169e-06
0.0121649136567
5.48290700423e-05
0.0123247500745
6.42846597509e-06
-0.0121106531097
3.75939753955e-07
-0.0123723278046
0.0123585817961
6.64874271035e-05
8.39116296621e-06
-0.0123815581913
-7.97157171634e-05
-0.0123692838028
0.0123474307175
9.45037327175e-05
-6.77993718256e-06
-0.0121183259996
0.0121671711146
-2.26963729545e-05
-2.31873269476e-05
2.19376524456e-05
-0.0121553947428
0.0123360183123
8.2930877194e-05
-0.0123927678339
-0.0121160032892
-0.0123096152259
0.000108651113875
1.43180459195e-05
-7.78546008081e-05
0.0122903397678
-8.86666603966e-05
0.0123296865415
0.00011503149837
-2.75636768855e-05
0.012156045435
-1.33246883406e-05
3.90573197136e-06
-3.45208453875e-05
5.1628887315e-05
0.0121822495558
-6.32177082043e-05
0.000138505841338
0.01231834832
-1.45418112187e-05
0.0121576055799
-9.28874536243e-05
0.0123989702628
5.18109052841e-06
0.000102087256824
-0.01241245805
-0.0123837696719
0.00010193195591
0.0123673569484
-2.28697019287e-05
2.02093122615e-05
-0.0121545152206
3.19769463392e-06
-0.0121124903902
3.25661195704e-05
0.012156276023
-0.0124028514325
0.000116123725912
0.0123900713869
2.57399783564e-05
-0.0121157495119
0.0124157261101
0.000105693715384
1.07940003595e-05
-0.0124263862693
-0.000124207578157
-0.0124345658866
0.0124293885024
0.000124007808356
-6.64415696668e-07
-0.0121036485189
0.0121470711991
-7.32614445783e-06
-2.72443710069e-05
-0.0121271999154
2.89977428057e-05
0.0124104371337
-0.0124401011623
0.000110044923396
-0.0121086580101
-0.000150446223282
-0.0123772114829
-1.02873860967e-05
0.0123746500459
0.000157883010033
0.0123520367088
0.000128323466259
1.42348026703e-05
5.52419805513e-05
0.0121751280488
-7.18242793345e-06
0.0121337661574
4.68770693844e-05
0.0123482498519
0.000138877996487
0.0121232159369
5.69168498565e-05
-0.000175933714187
0.0123917336116
-3.79089474644e-05
0.000188936610434
-0.0123514556916
0.000216432945022
0.0123743900068
-0.000203349987825
8.15483404648e-06
5.43148520923e-05
-6.53423180501e-05
4.92413556332e-05
-0.0121392926738
8.84348786338e-05
0.0121404424574
-0.000165988146411
0.000218885612063
0.0124187403634
7.45693911939e-05
-0.0124042506181
0.000161875083147
-6.56805854503e-06
0.0124057819084
-0.000143589001652
0.012426935189
0.000144574185204
-7.93276673373e-06
0.0121282764388
2.00962261723e-05
-5.90596749681e-05
0.0121318613952
5.62738378747e-05
0.012433215989
0.00016446687306
0.0121141320465
0.0124241530654
0.000193882903634
-3.73017539654e-05
-0.000210500803489
-0.0124425004418
0.012471723656
0.000209736540117
4.83692852163e-05
-0.0121215945198
0.0121294013678
1.69309092282e-05
-9.26847865621e-05
6.910622881e-05
0.0124533753333
0.000189645963187
-0.000279479804954
-0.012443548027
-9.05224363086e-05
0.0125034189681
0.000284378377052
2.61014877546e-05
0.0124214734149
0.000257428929368
1.3487636941e-05
-0.000244567068004
6.13262483745e-05
9.59416463345e-05
0.0121355701413
-0.000123292348656
2.61356001589e-05
0.0120313093536
0.000105713800618
0.0124790504299
2.1092778415e-05
-0.00029683901323
0.000249850601604
9.02684353609e-06
0.0119703323185
0.000121672061002
-0.00029337935817
-0.00012990867118
0.0126005857401
0.000306158430483
2.0628961615e-05
-0.0125516234757
0.000346202336657
0.0126627987319
-0.000367719362114
1.52296176209e-06
1.13018286489e-05
8.34792972057e-05
-0.000143990352727
-0.0120490728144
9.51515482163e-05
0.000154427866355
0.0120892431318
-0.000328136759371
-2.69153221232e-05
0.000146174049419
0.000334511626587
0.0126911982133
1.62835649906e-05
-0.0124772261553
0.000272494927646
-8.77755841878e-05
0.0125374393571
-0.00023133960774
0.0125195863368
0.000234266128196
3.01772324717e-05
0.0120329804615
8.41097919313e-05
-0.000140291931299
0.0120779162149
0.000103720152367
0.0125701214067
0.000254796201257
0.0119595488574
0.000301756377289
-0.000129005555459
0.0126200863369
-0.0126100470506
-0.000301614790127
0.000278765640429
0.0126732149328
-0.0120335114434
9.57486433118e-05
0.0120790659013
3.77538150755e-05
-0.000191581719093
0.000114216579105
0.000267791534873
0.0126974074262
-0.000151751081636
-0.0124696890853
-7.44039607621e-06
0.0124757799546
0.000136985230179
0.0124497120791
0.000133239155078
-0.0124509564274
1.73951966764e-05
5.25015411897e-05
0.0121188808815
8.08104386012e-06
0.0120980547035
-0.0121102398574
4.15961876243e-05
0.0124595422832
-0.0124669482145
0.000125026376087
0.0120716564461
4.83199085342e-05
-0.000172411907558
0.0124937393589
-3.00314901992e-05
0.000154942579577
-0.0124684817406
0.000193076494656
0.0124960891654
1.57079527731e-05
5.3676801895e-05
4.64793169202e-05