/*--------------------------------*- C++ -*----------------------------------*\
| =========                 |                                                 |
| \\      /  F ield         | OpenFOAM: The Open Source CFD Toolbox           |
|  \\    /   O peration     | Version:  v1906                                 |
|   \\  /    A nd           | Web:      www.OpenFOAM.com                      |
|    \\/     M anipulation  |                                                 |
\*---------------------------------------------------------------------------*/
FoamFile
{
    version     2.0;
    format      ascii;
    class       volScalarField;
    location    "2.5";
    object      p_rgh;
}
// * * * * * * * * * * * * * * * * * * * * * * * * * * * * * * * * * * * * * //

dimensions      [1 -1 -2 0 0 0 0];


internalField   nonuniform List<scalar> 
28582
(
19558.3346766
19560.3820246
19558.2237978
19560.6241474
19557.78363
19561.0499887
19556.0742278
19560.1021378
413.40361439
475.00089552
0.0331222357238
19558.0653086
18581.0599206
18611.8982334
19562.373301
19562.631741
18615.2341099
19563.1395275
19563.0766999
19555.7613866
19562.386074
19563.7647838
19555.2044252
19562.9945447
19564.6515922
19553.9463124
19564.5205082
19551.2978824
19564.6438721
499.984611327
0.0249021107573
0.0291313456422
19552.8147448
19553.6228458
18418.4826932
18506.368575
19552.5102915
19567.0084202
19564.9808136
19567.4004117
19564.529207
18653.9488095
19564.5170129
19567.8538852
430.470201115
484.484514206
0.372066607179
-0.0107265157711
450.549316255
0.0373116225103
19554.3253417
19555.6463115
18599.0694547
18625.7571551
19554.7983875
18616.60221
19555.7742389
19556.7082392
19558.1451221
18612.4943977
18622.5421485
19557.9488583
18615.6797321
19557.1167238
19560.4008297
19559.2955738
18621.5261662
18624.0631131
19559.1649508
18624.3020956
19560.6047149
19563.2114884
18630.450009
18630.9544249
19561.7576335
18625.8731923
18627.1071391
19561.8875016
19563.2744738
18628.5650748
18610.5474845
19561.6020623
18603.9910652
19561.8482541
18619.2209881
419.190757967
0.960053133743
429.578360862
431.316679259
1.00617055494
1.08073694193
505.643615168
0.841334277458
0.0159921165461
530.454426912
1.71921439124
525.897347214
0.283472059798
19549.5857609
19548.2192134
18450.3139226
18510.0666946
19548.8988428
19548.7113871
18511.175487
19550.4554129
19551.4303416
18517.1481871
18502.1670371
19550.667141
19551.5763784
18474.8229497
18570.3980268
18566.4720971
19553.2234145
19550.7125088
18523.1263746
19552.0017841
18497.9680997
19564.5915571
18635.3867901
18636.8504599
19566.0501268
18638.9141829
19565.9649451
18647.8048495
19567.5215513
19568.7073374
18645.5326514
18654.1096734
19567.3564813
19568.828253
18653.1783933
19566.3996976
19564.8359983
18636.3985971
18624.9939313
18636.4090164
19566.0462908
18647.5346488
18645.6583249
18657.905811
19569.2299524
19567.4985266
18660.2857081
19568.8498808
18656.909306
19566.912102
19569.1549708
551.785361829
0.0491418554848
19555.4502042
18558.0146708
19569.5246552
19571.0539588
18654.2964535
18660.288113
18621.4472999
19571.5359801
19570.5670849
18608.6795536
18546.8550475
428.874282048
554.409735125
586.966910813
1.32044738081
2.71042152932
3.38183732377
628.123159653
679.916416419
19554.454881
19554.1447534
18564.708523
18577.8178989
19553.6391748
18558.5353251
19555.3487847
19571.3326351
19569.8553716
18651.3910369
18657.9044861
19570.9066212
19570.1050344
18662.8912994
19571.3375809
19570.4179627
18661.2454555
18654.2117748
19570.121869
18662.262959
19571.4658752
19572.3352078
19573.1352702
18643.580251
18632.0277616
19573.1337627
18658.6414102
19572.2660424
19574.0412581
19573.8793476
18618.5717628
18593.9950021
19573.7309904
18590.3952272
19574.5383466
19573.8901289
19573.8015701
18536.0436327
18575.4527667
19572.7109105
18567.6593746
19574.686069
19568.7709513
19562.0230991
19559.796463
19556.1807322
242.239479649
283.939902267
257.236188446
311.185270611
320.541890655
0.107236458226
0.109072355355
0.0730142914035
0.0551043591454
0.0474565254567
0.0707338338896
19569.912792
19568.9411222
19117.4184568
19100.9945058
19572.0666936
19119.1855302
19566.879007
19564.294184
19082.1734751
19008.22279
19570.4640161
19565.080118
19565.168142
19094.0578297
19144.5790485
18998.7291615
18991.8607618
19563.310058
19558.8419806
19092.0432319
18752.3334777
18898.4193999
18655.5093681
19561.4914
19558.9664221
18963.1505566
18951.5005461
18857.4598629
19556.580209
19557.5298777
19555.4448147
18857.375028
18650.645739
18757.0890708
18669.5866535
18735.9776298
18678.3692533
245.517000862
240.158389012
238.370839782
0.0366812656945
0.270087141329
0.0557021469893
0.282336163611
0.558220575487
0.853552445544
0.559734483401
0.746994687429
240.943382988
244.365642346
252.001364556
249.156557054
265.747665445
0.089068137022
0.379609360162
0.132835876224
0.452480614614
321.576546219
299.104338731
337.303023308
0.700759986319
0.736526089616
0.831610782333
0.884724037364
276.171652374
284.404695501
0.177300375736
0.54286477432
0.661634402874
342.838204871
313.963685688
345.666246746
1.00955325127
1.25843045946
1.1666402291
1.65272077093
19568.0884552
19570.1776224
19105.5346902
19124.9682107
19570.135653
19063.1903314
19568.6130153
19567.6493897
19568.628812
19127.1405764
19097.8896882
19569.8699736
19567.5902797
19062.1133139
19573.4480439
19570.249527
19175.008305
19190.1693258
19571.8753481
19572.1680375
19200.2252003
19565.2081958
19567.4693069
19080.8578168
19071.2498896
19566.6928757
19566.4505129
19020.5818288
19563.8775794
19563.4625365
19039.9041314
19016.5494887
19565.1571865
19563.1746622
18994.3183278
19568.3093135
19568.6067138
19158.8302141
19109.2223696
19570.3174169
19567.7680221
19106.5714797
19568.3536745
19571.351351
19178.9855844
19117.3605381
19571.495234
19568.7657653
19090.3299889
19566.2436171
19564.1352334
19073.9423735
19037.1138625
19566.0577884
19564.8899233
19067.1478352
19566.3067798
19563.9222758
19071.8701753
19047.2771764
19566.4431381
19565.1252889
19040.8285547
19565.3415156
19570.3744638
19111.6551282
19084.198037
19569.0898317
19568.2811848
18956.506807
19561.4384338
19559.583905
19006.1419202
18897.5291208
19566.5346506
18828.3389276
19558.4518768
19562.6369087
19562.0463309
19044.7218038
18943.1881451
19565.7071735
19561.2274491
18901.323664
19559.014927
19554.3530753
18856.0006241
18879.9933617
19559.3826902
18779.6762536
19556.7737578
19561.1172448
19562.4866085
18998.9168434
18976.7778398
19563.1188199
19561.4808331
18957.8520256
19560.5879618
19562.0876261
19009.4954702
18938.2817773
19563.3668874
19560.8747042
18904.2934666
19559.2386465
19557.7658844
18906.4066662
18914.5855228
19559.5788471
19559.0617602
18870.6613864
19557.4652063
19559.8261467
18899.9553185
18924.8263894
19559.2790112
19560.0413666
18796.3648561
19554.8096166
19553.641308
18853.8514423
18746.1297917
19558.0608733
18670.263685
19554.0465574
19556.7588775
19556.1334706
18903.5387002
18806.8282035
19559.1058717
19556.344321
18786.4414916
19554.3331357
19553.0674241
18732.4441387
18798.8749229
19555.5455366
18669.0714352
19553.9969325
19554.1306669
19554.9631232
18786.0973952
18836.7412662
19555.679959
19556.0746512
18738.6087848
19552.8959507
18791.2091631
19555.2716073
19557.3914554
19559.7781453
19562.0130421
19564.4088376
19564.1629985
19563.0420549
19557.2428602
19560.0136811
19562.6117909
19565.2787305
19564.5283805
19562.8118833
19542.6979945
19550.7396894
19556.2643979
19560.3373981
19562.665865
19563.5664747
19563.761176
19562.4301916
19546.0998636
19552.6855812
19558.3424495
19561.2545662
19562.9467081
19563.7407121
19563.9098465
19562.4895441
19551.7034663
19554.5696493
19558.3418644
19561.1877657
19562.9946795
19563.8956157
19564.033187
19562.6154637
19554.0194031
19556.1704947
19559.1694097
19561.6743036
19563.310613
19564.108162
19564.0887865
19562.814916
19563.525875
19564.2683692
19564.1365406
19562.93905
19538.3445766
19547.6462846
19554.98037
19560.1430207
19563.3616898
19564.3702326
19564.1277349
19562.2605361
19543.7951575
19550.2716894
19559.2754119
19562.090041
19563.8550779
19564.6037545
19564.2918549
19562.3278962
19551.0664347
19554.4344256
19558.2641287
19561.5884837
19563.7679859
19564.7284481
19564.5124416
19562.4728716
19553.5270304
19555.9894428
19559.4037299
19562.2684825
19564.130789
19564.9761374
19564.6116098
19562.6590798
19564.3880954
19565.1377374
19564.5522752
19562.7172061
19534.789515
19547.1322957
19556.9532337
19562.4233474
19565.8176004
19566.632239
19565.3315576
19561.2266915
19540.5375138
19549.8154341
19559.1198887
19563.17054
19565.9333137
19566.7783336
19565.4810326
19561.2963076
19550.0793697
19554.1636278
19558.8558581
19563.1267003
19565.9901149
19567.0005551
19565.9013996
19561.6074295
19551.8799408
19552.4827486
19555.6496857
19559.9123083
19563.7163825
19566.3138499
19567.1974454
19565.9962711
19561.7982871
19556.7474654
19560.4057104
19564.0512487
19566.5925477
19567.2441483
19565.5739271
19561.5812148
19567.3243652
19565.4060429
19561.6121247
19537.1919174
19547.657835
19555.7717167
19562.8136281
19567.5598891
19570.3101737
19568.8409785
19562.1760534
19536.4741616
19541.7242126
19550.0464952
19557.2159447
19563.1487007
19567.807344
19570.4893504
19568.3665423
19561.4293371
19552.7451185
19546.3112145
19547.0477982
19552.5046471
19558.1173294
19563.5296953
19567.762241
19570.6560571
19569.1617319
19561.9782999
19550.2619565
19550.201159
19553.9078487
19558.9587161
19563.9735425
19568.0914353
19570.9042994
19569.9095184
19562.6548333
19554.713398
19559.2116315
19564.072639
19568.5050946
19571.1672245
19568.8288633
19561.3043775
19571.4615817
19567.7458174
19560.8150067
480.864887277
488.706194989
529.554556905
552.780504466
619.095037793
673.785021991
773.928093589
895.739132086
357.522647785
416.414433387
465.595489539
481.461193322
520.800896688
563.906906326
620.530832211
674.355544349
787.001485027
909.66412691
366.870896197
398.670046442
434.60378201
461.583249102
498.409571274
547.83452447
604.032863639
650.636337875
763.193155676
891.474098408
393.145836007
423.377326826
442.355013315
477.142685104
523.866868737
577.401701772
623.456374724
730.60490455
863.846423016
442.177654604
477.365138806
517.310348046
559.902030501
612.277326851
742.930326885
847.084642071
624.164938883
753.506442497
813.703806577
0.00451869856273
-0.0383655736572
-0.0279844060329
-0.0401714811769
-0.0262459901308
-0.0190051939535
-0.073035856361
-0.111546223343
0.0811344229915
0.844662362077
-0.00492329574769
-0.0241953979959
-0.0304184831778
-0.0410200607265
-0.0351011510815
-0.0364119088569
-0.080626042619
-0.110083596157
0.178582036915
0.785393923074
0.00860811467074
-0.0313544104043
-0.0317398746288
-0.0245363365242
0.00226520266439
-0.0131183376358
-0.0448827971015
-0.0724027324873
0.141303458501
0.580580601709
-0.0385472928772
-0.0193986758265
0.000640648777778
0.0177573931215
0.000235586655427
-0.0312737196129
-0.0627630573414
0.0747610073425
0.488992259722
0.00544244347513
0.0243151478825
0.00188410436355
-0.0322080491112
-0.0289899003296
0.146976065073
0.509886042496
0.0206029469098
0.135924814246
0.646175738183
19546.5983165
19543.7878617
19548.1494116
19540.6980246
19544.9838691
19542.0710113
19546.5317354
19553.4286487
19551.7834764
19554.4601775
19549.2709827
19552.1186932
19550.1286449
19553.4592232
19549.7011972
19548.1998779
19550.6924752
19545.3787584
19548.7904396
19547.5536043
19550.3234706
19554.7364402
19553.227658
19555.4039747
19551.9452849
19554.3044905
19552.8814578
19555.0922341
19543.1942707
19539.1839534
19543.845659
19536.0176851
19542.7714994
19536.4169384
19542.703773
19551.211086
19547.9751353
19552.4568927
19547.3598971
19550.3026797
19548.0375664
19551.7551787
19547.1873605
19546.9822523
19549.7080888
19540.5978034
19545.3008376
19546.0620993
19548.769122
19553.6980687
19552.1794295
19555.11527
19549.9397562
19553.1980982
19551.6754481
19554.5791605
19542.0587051
19537.1983912
19542.8830853
19535.7109324
19542.5249062
19537.6269214
19543.5405123
19550.5671501
19547.72705
19552.2087339
19547.9143362
19551.0942956
19548.2092933
19552.7963708
19545.4477939
19545.1685904
19548.4327357
19541.0645105
19545.9390447
19544.5744592
19548.4769147
19553.2011199
19551.4383041
19554.2689832
19550.1742248
19554.0429443
19551.9798817
19555.2761903
19531.8768843
19535.261695
18116.8759579
18196.540586
19542.1717298
19539.2201431
19543.8889788
18183.9166321
18305.3541342
18243.7865514
18338.0022463
19551.8799629
19548.45004
19552.6258131
18352.1053484
18423.5481028
18373.8779038
18430.632086
19559.5731782
19556.3319245
19559.7234049
18431.1170466
18498.4230103
18439.5158437
18477.2740518
19565.5048007
19562.74039
19565.4688867
18512.0464518
18529.870251
18491.0011442
18522.0190301
19569.078241
19567.5789854
19569.1953881
18511.7263812
18495.2883784
18515.7295605
18511.7609705
19570.587976
19570.3241568
19570.4034239
18489.9931319
18485.3315605
18501.9209271
18486.6581383
19565.3233285
19568.5623741
19564.7174089
18449.1046966
17961.242845
18405.6423449
17824.6365259
19559.5497644
19561.6608895
19559.4655267
17829.5744235
17617.2784494
17759.8683577
17594.2436108
19552.0183151
19545.6781191
18583.7898586
18227.8266926
18536.0849374
18390.6019105
19537.602648
19541.8520634
19541.4829433
18164.6397538
18230.5908793
18351.1782717
18366.7517897
19545.9415886
19544.3935042
19548.0861073
18271.5640479
18350.3573194
18388.0690807
18426.8040718
19553.7807234
19551.4829794
19554.5282915
18385.2859244
18432.8173839
18453.2286173
18474.1030915
19560.3238041
19557.6692017
19560.6213297
18445.6551143
18480.768213
18494.0139016
18508.14504
19565.7406123
19563.2929563
19565.7457042
18493.223775
18520.2674233
18516.4429043
18525.6219595
19569.4569763
19567.8120527
19569.445186
18515.7853981
18516.0315408
18524.1045061
18525.8906524
19570.422822
19570.5846175
19570.5704123
18507.2881029
18490.3301856
18524.3583466
18505.9579384
19564.5152072
19568.6745584
19564.7355248
18405.1581382
17812.4696348
18430.1624139
17862.2216013
19559.2394594
19561.4983113
19559.0088613
17758.1446324
17637.1061537
17783.6106709
17641.1456252
19548.9727467
19552.9557366
19550.5573591
18543.6710014
18433.7746694
18574.080734
18541.904076
19545.5246778
19548.9546736
19548.2161448
18399.1089763
18405.6433759
18521.4600072
18484.4698396
19549.7721807
19549.0476682
19550.9278194
18423.1628268
18447.9980327
18498.2533798
18493.8467416
19555.3427795
19553.3347824
19556.0220396
18472.9137009
18491.2201333
18519.441574
18546.846792
19560.9522436
19558.6576153
19561.3565936
18511.4381893
18525.0638621
18561.173342
18582.0461161
19565.835186
19563.8559906
19566.1112471
18532.5337187
18533.8831175
18587.4033716
18583.8968681
19569.4878416
19567.9734382
19569.5267424
18532.1477046
18531.0999582
18579.3958923
18569.4164433
19570.8815411
19570.7860903
19571.1899444
18530.3305138
18529.2592761
18567.9145761
18565.0626372
19565.4617614
19569.7910168
19566.2830675
18466.4045653
17907.0469021
18527.2224973
18053.919465
19558.9284223
19562.5962977
19559.0657564
17804.2189157
17619.7005481
17909.3339568
17596.8770367
18588.9804115
18563.5684039
19549.566546
19550.4379966
18532.3380397
18486.4012562
18472.8687611
19551.6698578
19550.8504569
19552.321241
18496.679288
18500.5450089
18419.8670749
18499.6460494
19556.4319936
19554.2963304
19556.6736383
18517.3612604
18552.8046865
18488.6251339
18535.605682
19561.5738533
19559.08384
19561.598467
18562.5897372
18582.9961984
18541.0922535
18573.1764964
19566.2229377
19564.0099844
19566.3377731
18588.1039693
18587.8180881
18584.1236756
18611.8287439
19569.6925185
19568.3013001
19569.8593702
18584.5033352
18574.9344227
18612.048749
18609.9083754
19571.3664108
19571.0313939
19571.2537877
18573.5611036
18578.6915832
18607.2086817
18595.9590317
19566.5182034
19569.6022805
19565.8711715
18548.2262553
18081.8804
18535.3854195
18011.5931419
19559.0308252
19562.1191341
19559.0976855
17930.1251847
17606.295421
17885.5104174
17642.2855823
19556.947197
19557.5179599
18494.5275473
18534.7062459
18591.6583645
19561.6632404
19559.6858947
19562.0824849
18539.5088611
18574.0896416
18596.0027843
18625.7208886
19566.4556429
19564.4543461
19566.8108759
18584.9367704
18617.0788999
18630.2763551
18647.8498756
19570.1415696
19568.8697728
19570.4948416
18618.127112
18619.0938934
18648.070163
18653.0989481
19570.9815896
19571.3904702
19570.6386173
18615.9780718
18588.5267936
18647.211701
18509.9709183
19564.8292911
19568.0414866
19563.9024731
18508.5199919
17967.6492392
18395.3714671
17885.1350286
19559.2481788
19560.9002609
19559.8937779
17868.1564614
17689.7305244
17861.0181842
17759.342562
19570.8257795
18651.1980168
19570.482271
18638.2974458
18493.0261487
19563.7399058
18386.6942495
17903.4693162
19560.2380876
17884.7522041
17784.7825171
0.988078294625
0.290987180888
0.547840151322
0.0846448785329
467.2237677
453.153220776
0.0775146209159
0.0745210948897
0.0452468314549
0.0729668028191
484.509926269
470.879139511
480.595041713
0.11827069449
0.0940484426716
0.137081819894
0.228215871532
504.263635287
488.383127797
502.172404765
0.0489707193338
0.0355313570837
0.197735039698
0.127040295574
535.561393869
525.20737228
542.391586515
0.0756446914349
0.368739449709
0.136731874438
0.11072693145
581.500688203
560.63378829
588.233122005
0.274005253226
0.287231135907
0.105653461722
0.068363538213
648.751798357
619.582805008
649.716468932
0.370060183071
0.484622631925
0.0883392509021
0.159111357473
708.456922216
676.677092376
714.870473014
0.578467486545
1.67106836555
0.58559730921
2.76777682125
849.025144497
786.635009664
867.326415341
4.92874155102
9.67271226525
7.03590690933
11.3220889015
901.734155818
906.409497214
898.595178814
15.0753418609
18.0409270008
15.6109208343
17.5792982964
388.889683639
363.298451642
385.198092049
0.323099134971
0.0904729874403
0.540523862719
0.266583982976
444.10262784
410.333241489
429.847382922
0.0661798027512
0.072721770588
0.105716672852
0.0607681040247
474.70979069
449.440036792
461.051974117
0.09716045267
0.190814376157
0.0671084428644
0.05464913196
498.525714107
471.02038701
490.774508688
0.22427604954
0.207442139495
0.162670102391
0.203403699042
542.476046782
509.400404248
534.558669015
0.173591713315
0.160247448076
0.347105370549
0.219996197917
591.061091068
560.6330402
587.938817586
0.0645395886199
0.0500227602035
0.189240831312
0.0520692188683
647.614170797
616.278279336
639.999269676
0.0221901194496
0.112172348821
0.0744791799546
0.163737854024
714.344632588
664.507109257
706.469307196
0.508627970634
3.16904384392
0.851571888094
3.18983630241
870.000218228
780.111245179
861.434897093
7.7331291062
11.9523841231
7.36653012541
11.7552670459
899.986380678
902.628810415
900.037036216
15.6436070712
17.0251522496
15.4275884254
16.8362543184
383.989498025
363.075175635
378.404641643
1.05025844816
0.593210348908
1.39993179955
0.675693051408
418.143209106
393.855427773
411.05649673
0.160918122041
0.0610935074321
0.16115572715
0.0591486948241
446.65481691
421.077786204
439.444824599
0.0435425975565
0.0332330079612
0.0470443842136
0.0154468369804
477.657071647
447.324728194
462.696679983
0.0158408566999
0.11481829517
-0.00143550639
0.571295691768
521.84498243
482.126125157
506.420985306
0.449878725411
0.805030533282
1.15709634504
1.28710273054
576.901640695
530.545157064
558.489528869
0.493008263464
0.459414568579
1.14151896602
0.785162431191
626.192186523
586.014365851
608.835280025
0.269451805399
0.386261070435
0.692600028787
0.468152930127
688.462920693
632.314348605
670.512004534
0.719512436551
2.54373949206
0.761231313618
2.03895608073
845.459667088
743.090012109
828.033640338
6.2671776234
10.7518835763
5.42946435866
9.82893153215
894.696607358
876.116175518
881.843306562
14.2309224943
15.5698335843
13.4221620751
15.0925107644
408.454602298
419.924719294
0.079529320013
0.0387164220729
0.431644624496
434.324633638
430.718543344
434.201713879
0.0206198154627
0.0254258858224
0.537005873115
0.742142482288
456.839878131
445.590595853
461.230555214
0.462522880166
0.898341407677
0.911268667802
0.836141098505
500.373749809
479.074002314
499.974050101
1.03014609578
1.04000333692
0.688557632797
0.456125514837
549.929106436
521.000301364
543.709620488
0.692985227674
0.564845604262
0.348088469446
0.239316413213
599.842222771
567.767414017
589.710889142
0.283490792519
0.236545329934
0.262326626078
0.134151039965
658.907879049
615.190035621
655.887809254
0.223924181174
1.44876400238
0.558913715338
2.02150592607
816.540427596
732.300677123
813.310864003
4.75153172251
9.20671707461
5.46838666151
9.39891513315
869.651216118
854.907842791
859.911542932
12.7648813864
14.4533661764
12.5577720627
14.105394241
460.377063136
444.477156176
0.854864139609
0.471603071456
0.716608169667
0.159452959861
497.055256353
462.861009635
481.149419974
0.0555218808914
0.0121315582381
0.0139634620248
-0.0107940043626
538.189457
503.869882549
529.656934597
0.00337239321389
0.0235698256379
-0.00683099993334
-0.00112372561154
583.196232187
554.149212978
579.078765031
0.0227932884025
0.211894090793
0.137863631727
1.09090676078
664.909655724
614.13200238
683.138536989
0.933555853149
3.31992120851
2.66620365063
4.9582380761
813.865013511
755.346136981
810.281150051
6.78701648493
10.2210664156
7.85659606672
10.4355731936
850.09244586
833.924343252
833.804309475
12.6550473978
14.0476643746
12.3954355598
13.6313944716
579.782979216
2.76260582784
690.91460617
3.67684718289
5.22517816901
3.63662602576
4.03433846858
799.455537519
7.64230550078
10.0563680338
5.82752856754
8.80814326095
809.92082251
12.5726869941
14.1995769024
12.0354638487
14.0952347464
19531.2574463
19533.1540933
18129.3742222
18210.9702918
19534.1459615
18122.1587972
19531.1141693
19532.2541258
19536.0605435
18233.1117206
18228.159812
19535.3619421
19535.0189247
18141.8251378
19538.3776248
19535.5664828
18246.9953292
18215.5640273
19536.2866331
18229.718308
19538.0328284
19541.1044545
19542.7743575
18270.0744695
18319.3528354
19543.5889234
18280.5294559
19540.5044615
19539.2074391
19538.0285581
18239.4277332
18295.3430595
19537.328701
19540.1517032
18253.3019447
19541.7281356
19544.7209452
18334.3747973
18311.4967464
19544.0498554
19542.3959485
18301.8827752
19547.120488
19545.1986153
18387.1662079
18345.693554
19545.6239995
18374.0254078
19547.7756378
19547.9364901
19552.0731836
18411.3754944
18395.8946947
19549.650066
18388.4912888
19549.9184895
19547.7413908
19546.9295896
18354.4893707
18393.9276327
19545.9579469
19549.0805804
18383.7809011
19549.4833166
19553.0863028
18412.6702579
18411.6509684
19551.4221005
19551.0824471
18403.639789
19553.6194801
19554.0326734
18442.4928055
18410.7871241
19551.5671751
18435.5284642
19555.8702875
19555.8955901
19560.0228397
18469.8730506
18491.5043636
19558.4523495
18462.75883
19557.8338531
19555.2334038
19554.8493056
18424.7324811
18444.4099876
19553.1850491
19556.6543015
18443.3269366
19557.1221939
19560.217544
18484.3147399
18457.6834684
19559.3279302
19558.323629
18462.1768816
19563.8941425
19562.0272449
18522.6430037
18513.2352501
19561.4051315
18517.3513819
19563.9622694
19565.6167942
19567.2728192
18530.9558775
18510.3494476
19566.973699
18513.2223206
19565.8577222
19563.8436536
19562.0083558
18505.2347969
18506.1023137
19561.6907741
19563.7061504
18509.8387518
19565.6329395
19566.845312
18512.4196787
18520.2219761
19567.2235916
19565.4262505
18509.4795903
19569.1548498
19568.5175162
18497.1970578
18512.2137971
19568.2080403
18511.3676681
19569.5920925
19570.0662427
19571.5137265
18496.0533116
18496.0773537
19570.9584341
18501.3548588
19570.6145389
19569.934679
19568.1651896
18517.9396806
18513.3919404
19568.7076647
19569.4459337
18517.2011647
19570.9719042
19571.6622673
18499.3750739
18514.2376786
19571.6736054
19570.7044278
18505.8829391
19572.6307552
19572.2633879
18486.7211762
18496.2202946
19571.9194152
18494.8559681
19572.9385431
19573.4185427
19574.2088027
18488.0016135
18486.3617542
19573.7486018
18491.0479845
19573.805897
19572.9822236
19572.5257013
18500.1787021
18499.194066
19572.3542681
19573.2577884
18499.4697816
19573.5762253
19573.5586839
18483.0423994
18505.3402828
19573.6225268
19574.0417265
18496.6413038
19568.793202
19573.1408014
18365.1653987
18439.9458492
19572.4719326
18342.2538908
19569.6277568
19563.0495928
19556.9079425
18173.7719529
17931.1360093
19556.3033015
18148.0614483
19563.8269161
19567.7362769
19571.3908865
18411.8514026
18260.5488825
19571.8845098
19566.866129
18293.5408974
19561.8025097
19554.454459
17889.2057719
18031.0422758
19555.3774023
19560.6808306
18093.9939289
19547.3695713
19551.3745503
17737.2106626
17766.6477305
19550.8827376
17703.6078617
19547.3797204
19544.1473873
19546.4196146
17638.9556543
17630.8013991
17674.2490596
19547.703346
19543.1381694
19547.4280691
19550.5644636
17755.2324766
17749.5272529
19550.3988993
19549.0261678
17706.4264751
19544.9815138
19548.650157
17607.4618025
17721.7731841
19547.1834023
17700.4905097
19547.9523404
19545.7496876
19551.887443
18709.3368802
18773.5761431
19547.6659222
18447.7981173
19553.4194492
19540.3087619
19536.4765132
18573.5352365
18473.560694
19542.994707
19539.595426
18329.4109025
19546.2141822
19550.0311701
18754.4955567
18658.1825353
19548.9705042
18472.0770581
19552.9229374
19541.65945
19542.8067714
18498.8100407
18594.0068567
19541.4958207
19546.8763052
18370.2751594
19536.6848292
19533.2239724
18299.922605
18391.8714975
19535.6656787
19538.7243682
18239.5023483
19537.2671553
19537.3155455
18270.4938795
18317.9078599
19536.5482253
19539.504852
18257.9831519
19539.0587562
19540.6839207
18433.3020425
18429.2949956
19540.811339
19541.7610468
18294.4951806
19539.5078673
19542.0973464
18359.0854613
18401.1554431
19541.2221274
19541.8954437
18308.7734653
19542.7023367
19539.0235305
18317.7361546
18317.0295404
19541.0293185
19541.0792817
18322.513119
19544.8441483
19545.1873568
18328.6361467
18382.9939265
19542.9689052
19546.8377827
18357.4700612
19543.6686747
19543.3067527
18353.6433277
18407.714074
19542.4678326
19545.1532038
18356.8004778
19545.3850782
19548.4675307
18410.8353035
18411.5419995
19547.1250822
19546.7539282
18388.900707
19550.0975543
19547.2424854
18402.4232474
18397.4797194
19549.2474627
19548.4795348
18424.3316512
19551.652155
19552.9692776
18414.2664037
18443.7703659
19551.1326373
19553.2957575
18442.5667933
19550.3218507
19550.3455466
18419.2273123
18457.9911441
19548.6296859
19551.9866672
18437.7945637
19552.0822343
19554.9763228
18462.2355329
18460.0016808
19553.7932543
19553.4254674
18458.7940674
19556.8091882
19554.7425259
18451.9181303
18448.4150519
19556.435676
19555.0081857
18464.7426527
19558.566208
19559.8733118
18463.2722316
18485.4272472
19558.1269406
19560.2270893
18478.4838648
19557.146782
19556.602474
18465.5887568
18496.6196012
19555.3738507
19558.1748691
18479.4102007
19558.8753166
19561.2842931
18496.308674
18498.6989759
19560.4553362
19559.7017789
18492.3492495
19563.8754761
19561.6439005
18505.9206457
18497.5878514
19563.5058291
19562.0058647
18509.2879145
19565.5214438
19567.2018408
18518.5292586
18513.269099
19565.4463847
19566.9764433
18510.6407872
19563.7040135
19562.8449427
18502.4696223
18517.5637316
19562.0121671
19564.3461309
18512.6391579
19565.2980102
19567.1902034
18516.0590215
18520.8744802
19566.7142137
19565.8178014
18514.6719262
19569.6511049
19568.5904148
18515.2379836
18519.6776936
19569.8286203
19568.4240376
18521.1966621
19570.7311972
19571.9405761
18517.1287648
18513.4704577
19570.9668436
19571.7102163
18515.2878619
19569.2624604
19568.4265169
18519.3145829
18520.9492644
19568.0220144
19569.5226426
18521.0671566
19570.3581652
19571.5403483
18516.4036632
18523.3843107
19571.3310908
19570.5749735
18517.7771756
19573.3700715
19572.6689094
18504.1130086
18516.5139425
19573.2341414
19572.6350037
18517.3902944
19573.9563725
19573.2151947
18509.9544384
18487.1698329
19573.8682939
19573.2170749
18515.8748095
19573.140986
19572.4601741
18520.331928
18524.8484101
19572.2716072
19573.4108877
18522.5559733
19573.7890743
19573.7197142
18497.5910528
18523.5980054
19573.2207494
19574.0769186
18522.3719545
19565.8509322
19570.7413448
18253.8503007
18388.007936
19565.8383959
19570.6267715
18246.840311
19559.6814874
19553.2600187
18020.5593737
17847.3250048
19559.4674902
19553.661069
18041.0712541
19566.1546924
19571.663258
18404.6462785
18295.7197707
19570.7646361
19567.2154856
18267.2636818
19560.092921
19554.8861447
17858.3915678
18071.8121643
19554.02733
19561.1207035
18057.2580108
19548.1666507
19549.7397024
17755.2725314
17729.2639194
19548.7313342
19549.911284
17720.3077749
19546.786626
19548.6322118
17743.5519538
17663.0082344
19547.1596824
17742.4830451
19549.0937285
19548.4009841
19550.8178609
17734.1531312
17765.9721571
19550.0401381
19549.5010622
17726.4514791
19547.0756063
19549.3619265
17668.159251
17750.73816
19547.8492584
17743.8243747
19549.4303745
19549.1906689
19549.4394581
18646.3169039
18709.7688111
19549.1900081
18538.3384512
19552.3668406
19546.8146251
19544.8705239
18599.5151368
18551.6388711
19548.1716063
19546.514031
18471.9018378
19550.4378565
19550.8337621
18714.8771699
18637.8352429
19550.8991296
18568.4622352
19553.0451316
19548.1052591
19548.6413371
18568.6787263
18624.1001317
19548.1307747
19550.3807346
18506.2883965
19545.1235555
19542.6861913
18463.0603917
18517.1934721
19543.8014095
19545.9021239
18450.1969844
19545.1638498
19544.0942751
18436.8115613
18464.6253977
19544.1193155
19545.7392863
18460.8327959
19546.8154424
19547.6685001
18538.9627284
18535.7983761
19547.7406172
19547.9001343
18478.1769033
19546.5824211
19547.7675037
18490.5080619
18506.7002992
19547.0410372
19547.8563437
18486.7365079
19547.3031173
19545.0731633
18436.7541243
18449.5796819
19546.7495181
19546.3709107
18452.2347139
19548.5825844
19549.3729707
18437.5021751
18479.381141
19547.9737365
19549.8772464
18473.6403047
19548.0911327
19548.2562859
18474.8153393
18504.7909116
19547.4800211
19549.2980673
18474.3689801
19549.1807412
19551.058836
18501.9293458
18494.2353114
19550.3689974
19550.1874305
18493.2105056
19552.6357998
19551.0421717
18478.5018663
18480.1950851
19552.4790767
19551.2129037
18492.3064412
19554.15964
19555.1063997
18480.1150116
18524.0306638
19553.715528
19555.5535793