/*--------------------------------*- C++ -*----------------------------------*\
| =========                 |                                                 |
| \\      /  F ield         | OpenFOAM: The Open Source CFD Toolbox           |
|  \\    /   O peration     | Version:  v1906                                 |
|   \\  /    A nd           | Web:      www.OpenFOAM.com                      |
|    \\/     M anipulation  |                                                 |
\*---------------------------------------------------------------------------*/
FoamFile
{
    version     2.0;
    format      ascii;
    class       volVectorField;
    location    "4.6";
    object      force.turbine;
}
// * * * * * * * * * * * * * * * * * * * * * * * * * * * * * * * * * * * * * //

dimensions      [1 -2 -2 0 0 0 0];


internalField   nonuniform List<vector> 
28582
(
(0 0 0)
(0 0 0)
(0 0 0)
(0 0 0)
(0 0 0)
(0 0 0)
(0 0 0)
(0 0 0)
(0 0 0)
(0 0 0)
(0 0 0)
(0 0 0)
(0 0 0)
(0 0 0)
(0 0 0)
(0 0 0)
(0 0 0)
(0 0 0)
(0 0 0)
(0 0 0)
(0 0 0)
(0 0 0)
(0 0 0)
(0 0 0)
(0 0 0)
(0 0 0)
(0 0 0)
(0 0 0)
(0 0 0)
(0 0 0)
(0 0 0)
(0 0 0)
(0 0 0)
(0 0 0)
(0 0 0)
(0 0 0)
(0 0 0)
(0 0 0)
(0 0 0)
(0 0 0)
(0 0 0)
(0 0 0)
(0 0 0)
(0 0 0)
(0 0 0)
(0 0 0)
(0 0 0)
(0 0 0)
(0 0 0)
(0 0 0)
(0 0 0)
(0 0 0)
(0 0 0)
(0 0 0)
(0 0 0)
(0 0 0)
(0 0 0)
(0 0 0)
(0 0 0)
(0 0 0)
(0 0 0)
(0 0 0)
(0 0 0)
(0 0 0)
(0 0 0)
(0 0 0)
(0 0 0)
(0 0 0)
(0 0 0)
(0 0 0)
(0 0 0)
(0 0 0)
(0 0 0)
(0 0 0)
(0 0 0)
(0 0 0)
(0 0 0)
(0 0 0)
(0 0 0)
(0 0 0)
(0 0 0)
(0 0 0)
(0 0 0)
(0 0 0)
(0 0 0)
(0 0 0)
(0 0 0)
(0 0 0)
(0 0 0)
(0 0 0)
(0 0 0)
(0 0 0)
(0 0 0)
(0 0 0)
(0 0 0)
(0 0 0)
(0 0 0)
(0 0 0)
(0 0 0)
(0 0 0)
(0 0 0)
(0 0 0)
(0 0 0)
(0 0 0)
(0 0 0)
(0 0 0)
(0 0 0)
(0 0 0)
(0 0 0)
(0 0 0)
(0 0 0)
(0 0 0)
(0 0 0)
(0 0 0)
(0 0 0)
(0 0 0)
(0 0 0)
(0 0 0)
(0 0 0)
(0 0 0)
(0 0 0)
(0 0 0)
(0 0 0)
(0 0 0)
(0 0 0)
(0 0 0)
(0 0 0)
(0 0 0)
(0 0 0)
(0 0 0)
(0 0 0)
(0 0 0)
(0 0 0)
(0 0 0)
(0 0 0)
(0 0 0)
(0 0 0)
(0 0 0)
(0 0 0)
(0 0 0)
(0 0 0)
(0 0 0)
(0 0 0)
(0 0 0)
(0 0 0)
(0 0 0)
(0 0 0)
(0 0 0)
(0 0 0)
(0 0 0)
(0 0 0)
(0 0 0)
(0 0 0)
(0 0 0)
(0 0 0)
(0 0 0)
(0 0 0)
(0 0 0)
(0 0 0)
(0 0 0)
(0 0 0)
(0 0 0)
(0 0 0)
(0 0 0)
(0 0 0)
(0 0 0)
(0 0 0)
(0 0 0)
(0 0 0)
(0 0 0)
(0 0 0)
(0 0 0)
(0 0 0)
(0 0 0)
(0 0 0)
(0 0 0)
(0 0 0)
(0 0 0)
(0 0 0)
(0 0 0)
(0 0 0)
(0 0 0)
(0 0 0)
(0 0 0)
(0 0 0)
(0 0 0)
(0 0 0)
(0 0 0)
(0 0 0)
(0 0 0)
(0 0 0)
(0 0 0)
(0 0 0)
(0 0 0)
(0 0 0)
(0 0 0)
(0 0 0)
(0 0 0)
(0 0 0)
(0 0 0)
(0 0 0)
(0 0 0)
(0 0 0)
(0 0 0)
(0 0 0)
(0 0 0)
(0 0 0)
(0 0 0)
(0 0 0)
(0 0 0)
(0 0 0)
(0 0 0)
(0 0 0)
(0 0 0)
(0 0 0)
(0 0 0)
(0 0 0)
(-0.00200632041381 2.47865731764e-05 0)
(0 0 0)
(0 0 0)
(0 0 0)
(0 0 0)
(-2.61814824449e-05 1.64634674295e-08 0)
(0 0 0)
(-2.66310545274e-06 -8.55656120538e-09 0)
(0 0 0)
(0 0 0)
(0 0 0)
(0 0 0)
(0 0 0)
(0 0 0)
(0 0 0)
(0 0 0)
(0 0 0)
(0 0 0)
(0 0 0)
(0 0 0)
(-0.0162306494292 0.000436647967648 0)
(0 0 0)
(0 0 0)
(0 0 0)
(-0.0303347344005 0.000519125475326 0)
(0 0 0)
(0 0 0)
(-0.0287958713796 0.000758540134834 0)
(-0.12905454485 0.00339955164271 0)
(-0.082171485771 0.00140622004617 0)
(-0.789239610693 0.0135292038854 0)
(-0.0060974037068 2.72675399417e-05 0)
(-0.0809802927575 0.00138583487875 0)
(0 0 0)
(0 0 0)
(0 0 0)
(0 0 0)
(0 0 0)
(-0.0162304838297 0.000436643512578 0)
(0 0 0)
(0 0 0)
(0 0 0)
(-0.0297011934211 0.000508283538893 0)
(0 0 0)
(0 0 0)
(0 0 0)
(0 0 0)
(0 0 0)
(0 0 0)
(0 0 0)
(0 0 0)
(-1.63789022002e-05 3.69400839991e-08 0)
(0 0 0)
(-1.05840054664e-05 2.38705895057e-08 0)
(-0.000161463065691 1.20944244428e-06 0)
(-0.000745925434402 5.58736994601e-06 0)
(-0.000100967432563 7.56298648916e-07 0)
(-0.000446077598794 3.34135351087e-06 0)
(0 0 0)
(0 0 0)
(-0.000208484888086 7.2899277516e-07 0)
(0 0 0)
(0 0 0)
(0 0 0)
(0 0 0)
(0 0 0)
(0 0 0)
(-0.00880844273728 0.000108821656289 0)
(-0.000435699017896 4.0243842277e-06 0)
(-0.00205404958907 2.53762310831e-05 0)
(-3.56185601635e-05 2.12633207241e-07 0)
(-0.00016173225943 1.21145884557e-06 0)
(-4.71576807725e-06 -1.51517688276e-08 0)
(-3.61147067931e-05 2.1559506894e-07 0)
(0 0 0)
(0 0 0)
(0 0 0)
(0 0 0)
(0 0 0)
(-0.000227012447845 7.93776641893e-07 0)
(0 0 0)
(0 0 0)
(0 0 0)
(0 0 0)
(0 0 0)
(0 0 0)
(0 0 0)
(0 0 0)
(0 0 0)
(0 0 0)
(0 0 0)
(0 0 0)
(0 0 0)
(0 0 0)
(0 0 0)
(0 0 0)
(0 0 0)
(0 0 0)
(0 0 0)
(0 0 0)
(-0.00527206356137 2.70315417834e-05 0)
(0 0 0)
(0 0 0)
(0 0 0)
(0 0 0)
(0 0 0)
(-0.00485246471221 2.17001828513e-05 0)
(0 0 0)
(0 0 0)
(0 0 0)
(0 0 0)
(0 0 0)
(0 0 0)
(0 0 0)
(0 0 0)
(0 0 0)
(0 0 0)
(0 0 0)
(0 0 0)
(0 0 0)
(0 0 0)
(0 0 0)
(0 0 0)
(0 0 0)
(0 0 0)
(0 0 0)
(0 0 0)
(0 0 0)
(0 0 0)
(-0.0366457971313 0.00076203428093 0)
(-0.00898322158096 0.000108793870057 0)
(-0.0147102802732 0.000178153049673 0)
(-0.0104184111963 0.000147732253158 0)
(-0.0196141399733 0.000407867974519 0)
(0 0 0)
(0 0 0)
(0 0 0)
(0 0 0)
(0 0 0)
(0 0 0)
(0 0 0)
(0 0 0)
(0 0 0)
(0 0 0)
(-0.00541382769976 2.42105935803e-05 0)
(0 0 0)
(-0.00811345898539 0.000115048211693 0)
(0 0 0)
(0 0 0)
(-0.131766357171 0.00273298750358 0)
(-0.10262168657 0.0021284931375 0)
(-0.199640524204 0.00342225265831 0)
(-0.0438380736186 0.000750211309062 0)
(-0.246175865695 0.00510597377868 0)
(-0.0533171616419 0.00110870844991 0)
(-0.104992472568 0.00179676098389 0)
(-0.278945003103 0.0057856438019 0)
(-0.973622773498 0.0201940687312 0)
(-0.422577488861 0.00724385462502 0)
(-0.420498821312 0.00720822195188 0)
(-0.521152105373 0.0108093008111 0)
(-0.225436993967 0.00386445765438 0)
(-0.521128825515 0.0108088179598 0)
(-0.0622393736218 0.00129091699878 0)
(-0.00919349573049 0.000130363047981 0)
(-0.0206366923893 0.000353160591562 0)
(-0.0204845070857 0.000350556208513 0)
(-0.0251851121567 0.000523714050036 0)
(-0.0251841741668 0.000523694544922 0)
(-0.0494346110432 0.000845986175998 0)
(-0.131758284466 0.00273282006628 0)
(-0.102611824996 0.00212828859698 0)
(-0.197834837813 0.00339129944841 0)
(-0.0433400537845 0.000741688578001 0)
(-0.0533142178914 0.00110864723583 0)
(-0.104451158234 0.00178749734382 0)
(-0.246151443849 0.0051054672412 0)
(0 0 0)
(0 0 0)
(0 0 0)
(0 0 0)
(0 0 0)
(0 0 0)
(0 0 0)
(0 0 0)
(0 0 0)
(0 0 0)
(0 0 0)
(0 0 0)
(0 0 0)
(0 0 0)
(0 0 0)
(0 0 0)
(0 0 0)
(0 0 0)
(0 0 0)
(0 0 0)
(0 0 0)
(0 0 0)
(0 0 0)
(-0.00533282658778 2.38483572643e-05 0)
(0 0 0)
(-0.00811282667965 0.000115039245647 0)
(0 0 0)
(0 0 0)
(0 0 0)
(-0.036639636143 0.000761906165711 0)
(-0.0144427418802 0.000174912949571 0)
(-0.00874025359337 0.000105851336865 0)
(-0.0196122062668 0.000407827763889 0)
(0 0 0)
(-0.0104168701715 0.000147710401547 0)
(0 0 0)
(0 0 0)
(0 0 0)
(0 0 0)
(0 0 0)
(0 0 0)
(0 0 0)
(0 0 0)
(0 0 0)
(0 0 0)
(0 0 0)
(0 0 0)
(0 0 0)
(0 0 0)
(0 0 0)
(0 0 0)
(0 0 0)
(0 0 0)
(0 0 0)
(0 0 0)
(0 0 0)
(0 0 0)
(0 0 0)
(0 0 0)
(0 0 0)
(0 0 0)
(0 0 0)
(0 0 0)
(0 0 0)
(0 0 0)
(0 0 0)
(0 0 0)
(0 0 0)
(0 0 0)
(0 0 0)
(0 0 0)
(-0.0150441163133 0.000285423307498 0)
(0 0 0)
(0 0 0)
(0 0 0)
(0 0 0)
(0 0 0)
(0 0 0)
(0 0 0)
(-0.00335671520665 6.36850139056e-05 0)
(0 0 0)
(0 0 0)
(0 0 0)
(0 0 0)
(0 0 0)
(0 0 0)
(0 0 0)
(0 0 0)
(0 0 0)
(0 0 0)
(0 0 0)
(0 0 0)
(0 0 0)
(0 0 0)
(0 0 0)
(0 0 0)
(0 0 0)
(0 0 0)
(0 0 0)
(0 0 0)
(0 0 0)
(0 0 0)
(0 0 0)
(0 0 0)
(0 0 0)
(0 0 0)
(0 0 0)
(-0.322209385601 0.00857467226725 0)
(-0.00772379349768 0.000146539061559 0)
(0 0 0)
(0 0 0)
(0 0 0)
(0 0 0)
(0 0 0)
(0 0 0)
(-0.0707456527039 0.00189883635234 0)
(0 0 0)
(0 0 0)
(0 0 0)
(0 0 0)
(0 0 0)
(0 0 0)
(0 0 0)
(0 0 0)
(0 0 0)
(0 0 0)
(0 0 0)
(0 0 0)
(0 0 0)
(0 0 0)
(0 0 0)
(0 0 0)
(0 0 0)
(0 0 0)
(0 0 0)
(0 0 0)
(0 0 0)
(0 0 0)
(0 0 0)
(0 0 0)
(0 0 0)
(0 0 0)
(0 0 0)
(-1.51965952842 0.0520067659514 0)
(-0.0432870733679 0.00153225578004 0)
(0 0 0)
(0 0 0)
(0 0 0)
(0 0 0)
(0 0 0)
(0 0 0)
(-0.333355681158 0.0112798021666 0)
(-0.00657446594025 0.000251071971194 0)
(0 0 0)
(0 0 0)
(0 0 0)
(0 0 0)
(0 0 0)
(0 0 0)
(0 0 0)
(0 0 0)
(0 0 0)
(0 0 0)
(0 0 0)
(0 0 0)
(0 0 0)
(0 0 0)
(0 0 0)
(0 0 0)
(0 0 0)
(0 0 0)
(0 0 0)
(0 0 0)
(0 0 0)
(0 0 0)
(0 0 0)
(0 0 0)
(0 0 0)
(0 0 0)
(0 0 0)
(0 0 0)
(0 0 0)
(0 0 0)
(0 0 0)
(0 0 0)
(0 0 0)
(-2.59233698917 0.0682872771371 0)
(-0.0782748465817 0.00206191408128 0)
(0 0 0)
(0 0 0)
(0 0 0)
(0 0 0)
(0 0 0)
(0 0 0)
(-2.59211345649 0.0682813888448 0)
(-0.578375830354 0.0152355618817 0)
(-0.0162305269874 0.000436644673636 0)
(0 0 0)
(0 0 0)
(0 0 0)
(0 0 0)
(0 0 0)
(0 0 0)
(-0.0474757582806 0.00125060525562 0)
(-0.0782740636404 0.00206189345706 0)
(-0.0162303902274 0.000436640994424 0)
(0 0 0)
(0 0 0)
(0 0 0)
(0 0 0)
(0 0 0)
(0 0 0)
(0 0 0)
(0 0 0)
(0 0 0)
(0 0 0)
(0 0 0)
(0 0 0)
(0 0 0)
(0 0 0)
(0 0 0)
(0 0 0)
(0 0 0)
(0 0 0)
(0 0 0)
(0 0 0)
(0 0 0)
(0 0 0)
(0 0 0)
(0 0 0)
(0 0 0)
(0 0 0)
(-0.0325264401778 0.000403051416846 0)
(-0.00101461915422 1.25348532264e-05 0)
(0 0 0)
(0 0 0)
(0 0 0)
(0 0 0)
(0 0 0)
(0 0 0)
(-0.0234909608418 0.000291088265381 0)
(-0.0370537342482 0.000459151385966 0)
(-0.00767226114264 9.47849909375e-05 0)
(-0.000170670405767 5.96769837277e-07 0)
(0 0 0)
(0 0 0)
(0 0 0)
(0 0 0)
(0 0 0)
(0 0 0)
(-0.000725098108347 6.69745230288e-06 0)
(-0.00120879798351 1.49337859833e-05 0)
(-0.000202912356663 7.09507741091e-07 0)
(0 0 0)
(0 0 0)
(0 0 0)
(0 0 0)
(0 0 0)
(0 0 0)
(0 0 0)
(0 0 0)
(0 0 0)
(0 0 0)
(0 0 0)
(0 0 0)
(0 0 0)
(0 0 0)
(0 0 0)
(0 0 0)
(0 0 0)
(0 0 0)
(0 0 0)
(0 0 0)
(0 0 0)
(0 0 0)
(0 0 0)
(0 0 0)
(0 0 0)
(0 0 0)
(-0.000198454730401 4.72565025889e-07 0)
(-0.000196821728301 4.68676483255e-07 0)
(-2.54300112397e-05 1.5990926513e-08 0)
(0 0 0)
(0 0 0)
(0 0 0)
(0 0 0)
(0 0 0)
(0 0 0)
(0 0 0)
(-2.56099213655e-05 1.61040577882e-08 0)
(-2.54781848339e-05 1.60212190833e-08 0)
(-2.60244940918e-06 -8.36167326031e-09 0)
(0 0 0)
(0 0 0)
(0 0 0)
(0 0 0)
(0 0 0)
(0 0 0)
(0 0 0)
(0 0 0)
(0 0 0)
(0 0 0)
(0 0 0)
(0 0 0)
(0 0 0)
(0 0 0)
(0 0 0)
(0 0 0)
(0 0 0)
(0 0 0)
(0 0 0)
(0 0 0)
(0 0 0)
(0 0 0)
(0 0 0)
(0 0 0)
(0 0 0)
(0 0 0)
(0 0 0)
(0 0 0)
(0 0 0)
(0 0 0)
(0 0 0)
(0 0 0)
(0 0 0)
(0 0 0)
(0 0 0)
(0 0 0)
(-0.00335676563678 6.36859706873e-05 0)
(-0.00912453006395 0.000173114425333 0)
(-0.00203594681211 3.86268399486e-05 0)
(-0.0867460688639 0.00198922244029 0)
(-0.0177726441172 0.000337190085564 0)
(-0.0526127178419 0.0012064915488 0)
(-0.0107794980228 0.000204513174105 0)
(0 0 0)
(0 0 0)
(0 0 0)
(-0.00240521049415 4.56326659653e-05 0)
(0 0 0)
(0 0 0)
(0 0 0)
(0 0 0)
(0 0 0)
(0 0 0)
(-0.0177721210585 0.000337180161874 0)
(-0.00396548297599 7.52348122855e-05 0)
(-0.00396548371604 7.52348263261e-05 0)
(0 0 0)
(0 0 0)
(0 0 0)
(0 0 0)
(0 0 0)
(0 0 0)
(0 0 0)
(0 0 0)
(-0.070745402154 0.00189882962749 0)
(-0.195430647771 0.00520082229288 0)
(-0.0429094467805 0.00115170352228 0)
(-0.803714584185 0.0247739429229 0)
(-0.177170828132 0.00553447887289 0)
(-0.487471611403 0.0150259732934 0)
(-0.107457953513 0.00335678158594 0)
(0 0 0)
(-0.00468470460033 8.88801876979e-05 0)
(0 0 0)
(-0.0228301661349 0.000734618650768 0)
(0 0 0)
(-0.012205256604 0.000380796744569 0)
(0 0 0)
(-0.0149428629058 0.000390445480611 0)
(-0.0149425559932 0.00039043746122 0)
(-0.00284137260214 5.39077170799e-05 0)
(-0.177174103653 0.00553458119392 0)
(-0.0376416422082 0.00121121555789 0)
(-0.0376412412029 0.00121120265452 0)
(-0.00740372810344 0.000230991912005 0)
(0 0 0)
(0 0 0)
(0 0 0)
(-0.00335674487178 6.36855767249e-05 0)
(0 0 0)
(0 0 0)
(0 0 0)
(-0.333343775314 0.0112793993069 0)
(-0.906152353629 0.030661602185 0)
(-0.202181420455 0.00684124061297 0)
(-2.23968604156 0.0730439896855 0)
(-0.493994687077 0.0159731852192 0)
(-1.34290957493 0.0434226195832 0)
(-0.299626581749 0.00968834485892 0)
(0 0 0)
(-0.0262553017867 0.000929373015758 0)
(0 0 0)
(-0.0668492791824 0.00216155344599 0)
(0 0 0)
(-0.0405482348881 0.00131111625919 0)
(0 0 0)
(-0.0743790859826 0.00251677539229 0)
(-0.0743783334682 0.00251674992936 0)
(-0.0140350596036 0.000540030289977 0)
(-0.494005124309 0.0159735227043 0)
(-0.110224986677 0.00356409527072 0)
(-0.11022255399 0.00356401661046 0)
(-0.0245939329432 0.000795238200828 0)
(0 0 0)
(0 0 0)
(0 0 0)
(-0.0133737545688 0.000487296123764 0)
(0 0 0)
(0 0 0)
(0 0 0)
(-7.23638836257 0.196369416722 0)
(-4.29958712792 0.114037567755 0)
(-4.45869295451 0.0764312449941 0)
(-2.10361919648 0.0360603961342 0)
(-0.578402019376 0.0152362517523 0)
(-1.57227127525 0.0414167312183 0)
(-0.350812985292 0.00924110702044 0)
(-2.70609927485 0.0463881542785 0)
(-0.285359112378 0.00489164704813 0)
(-1.27828340218 0.0219124287948 0)
(-0.135249204231 0.00231845188025 0)
(0 0 0)
(-0.0474762657685 0.00125061862386 0)
(0 0 0)
(-0.1034114838 0.00176970514965 0)
(0 0 0)
(-0.0490121203783 0.00083875599345 0)
(0 0 0)
(0 0 0)
(0 0 0)
(0 0 0)
(0 0 0)
(0 0 0)
(0 0 0)
(0 0 0)
(0 0 0)
(0 0 0)
(0 0 0)
(0 0 0)
(0 0 0)
(0 0 0)
(0 0 0)
(0 0 0)
(0 0 0)
(0 0 0)
(0 0 0)
(0 0 0)
(0 0 0)
(0 0 0)
(0 0 0)
(0 0 0)
(0 0 0)
(0 0 0)
(0 0 0)
(0 0 0)
(0 0 0)
(0 0 0)
(0 0 0)
(0 0 0)
(0 0 0)
(0 0 0)
(0 0 0)
(0 0 0)
(0 0 0)
(0 0 0)
(0 0 0)
(0 0 0)
(0 0 0)
(0 0 0)
(0 0 0)
(-0.350806817198 0.00924094454065 0)
(-0.578381012974 0.0152356984022 0)
(-1.29815950151 0.0222531463623 0)
(-2.70863370651 0.0464315996938 0)
(-0.135451407025 0.00232191805553 0)
(-0.284609358601 0.00487879471333 0)
(-1.57219053792 0.0414146044375 0)
(-0.578378108193 0.0152356218845 0)
(-0.35080358091 0.00924085929042 0)
(-2.69836648313 0.04625559819 0)
(-1.27285177497 0.0218193194387 0)
(-0.284119359643 0.00487039511489 0)
(-0.133430517332 0.00228727581467 0)
(-0.129052846959 0.0033995069169 0)
(-0.12905277624 0.00339950505403 0)
(-0.0287955080147 0.000758530563086 0)
(-0.773590463938 0.0132609450522 0)
(-0.0808033358282 0.00138280657302 0)
(-0.0797636298216 0.00136501383853 0)
(-0.00600702517875 2.6863367897e-05 0)
(0 0 0)
(0 0 0)
(0 0 0)
(-0.0297681624224 0.000509429595232 0)
(0 0 0)
(0 0 0)
(0 0 0)
(0 0 0)
(0 0 0)
(0 0 0)
(0 0 0)
(0 0 0)
(0 0 0)
(0 0 0)
(0 0 0)
(0 0 0)
(0 0 0)
(0 0 0)
(0 0 0)
(0 0 0)
(0 0 0)
(0 0 0)
(0 0 0)
(0 0 0)
(0 0 0)
(0 0 0)
(0 0 0)
(0 0 0)
(0 0 0)
(0 0 0)
(0 0 0)
(0 0 0)
(0 0 0)
(0 0 0)
(0 0 0)
(0 0 0)
(0 0 0)
(0 0 0)
(0 0 0)
(0 0 0)
(0 0 0)
(0 0 0)
(0 0 0)
(0 0 0)
(0 0 0)
(0 0 0)
(0 0 0)
(0 0 0)
(0 0 0)
(-0.0782740709092 0.00206189364853 0)
(0 0 0)
(0 0 0)
(-0.048940258896 0.000837526210928 0)
(-0.102978621739 0.00176229747895 0)
(0 0 0)
(0 0 0)
(-0.0474754719132 0.00125059771214 0)
(0 0 0)
(0 0 0)
(-0.102848924999 0.001760077948 0)
(-0.0482957604376 0.000826496756569 0)
(0 0 0)
(0 0 0)
(0 0 0)
(0 0 0)
(0 0 0)
(-0.0293219028451 0.000501792649673 0)
(0 0 0)
(0 0 0)
(0 0 0)
(0 0 0)
(0 0 0)
(0 0 0)
(0 0 0)
(0 0 0)
(0 0 0)
(0 0 0)
(0 0 0)
(0 0 0)
(0 0 0)
(0 0 0)
(0 0 0)
(0 0 0)
(0 0 0)
(0 0 0)
(0 0 0)
(0 0 0)
(0 0 0)
(0 0 0)
(0 0 0)
(0 0 0)
(0 0 0)
(0 0 0)
(0 0 0)
(0 0 0)
(0 0 0)
(0 0 0)
(0 0 0)
(0 0 0)
(0 0 0)
(0 0 0)
(0 0 0)
(0 0 0)
(0 0 0)
(0 0 0)
(0 0 0)
(0 0 0)
(0 0 0)
(0 0 0)
(0 0 0)
(0 0 0)
(0 0 0)
(0 0 0)
(0 0 0)
(0 0 0)
(0 0 0)
(0 0 0)
(0 0 0)
(0 0 0)
(0 0 0)
(0 0 0)
(0 0 0)
(0 0 0)
(0 0 0)
(0 0 0)
(0 0 0)
(0 0 0)
(0 0 0)
(0 0 0)
(0 0 0)
(0 0 0)
(0 0 0)
(0 0 0)
(0 0 0)
(0 0 0)
(0 0 0)
(0 0 0)
(0 0 0)
(0 0 0)
(0 0 0)
(0 0 0)
(0 0 0)
(0 0 0)
(0 0 0)
(0 0 0)
(0 0 0)
(0 0 0)
(0 0 0)
(0 0 0)
(0 0 0)
(0 0 0)
(0 0 0)
(0 0 0)
(0 0 0)
(0 0 0)
(0 0 0)
(0 0 0)
(0 0 0)
(0 0 0)
(0 0 0)
(0 0 0)
(0 0 0)
(0 0 0)
(0 0 0)
(0 0 0)
(0 0 0)
(0 0 0)
(0 0 0)
(0 0 0)
(0 0 0)
(0 0 0)
(0 0 0)
(0 0 0)
(0 0 0)
(0 0 0)
(0 0 0)
(0 0 0)
(0 0 0)
(0 0 0)
(0 0 0)
(0 0 0)
(0 0 0)
(0 0 0)
(0 0 0)
(0 0 0)
(0 0 0)
(0 0 0)
(0 0 0)
(0 0 0)
(0 0 0)
(0 0 0)
(0 0 0)
(0 0 0)
(0 0 0)
(0 0 0)
(0 0 0)
(0 0 0)
(0 0 0)
(0 0 0)
(0 0 0)
(0 0 0)
(0 0 0)
(0 0 0)
(0 0 0)
(0 0 0)
(0 0 0)
(0 0 0)
(0 0 0)
(0 0 0)
(0 0 0)
(0 0 0)
(0 0 0)
(0 0 0)
(0 0 0)
(0 0 0)
(0 0 0)
(0 0 0)
(0 0 0)
(0 0 0)
(0 0 0)
(0 0 0)
(0 0 0)
(0 0 0)
(0 0 0)
(0 0 0)
(0 0 0)
(0 0 0)
(0 0 0)
(0 0 0)
(0 0 0)
(0 0 0)
(0 0 0)
(0 0 0)
(0 0 0)
(0 0 0)
(0 0 0)
(0 0 0)
(0 0 0)
(0 0 0)
(0 0 0)
(-0.00189331616661 1.42110681152e-05 0)
(-0.00275493765516 2.0678324815e-05 0)
(-0.00111015492088 8.31563847307e-06 0)
(-0.00163134921502 1.22447667342e-05 0)
(-0.0895054427717 0.00110910678597 0)
(-0.0558972636856 0.00069265100033 0)
(-0.00253987473159 1.90640810295e-05 0)
(-0.00152111596138 1.14173654245e-05 0)
(-0.00153547787337 1.15251646992e-05 0)
(-0.000923045307624 6.914090032e-06 0)
(-0.00737533666863 9.11167133522e-05 0)
(-0.0196054549951 0.000242941015694 0)
(-0.00435498334724 5.38025295837e-05 0)
(-0.000558776018257 4.1855233606e-06 0)
(-0.000124688397673 9.33981030334e-07 0)
(-0.000338933479492 2.53878826176e-06 0)
(-7.56490271225e-05 5.66650607547e-07 0)
(0 0 0)
(-0.000562862845903 5.19894759082e-06 0)
(0 0 0)
(-1.48139635493e-05 3.34106065952e-08 0)
(0 0 0)
(-8.99214068101e-06 2.02803843645e-08 0)
(0 0 0)
(0 0 0)
(0 0 0)
(0 0 0)
(0 0 0)
(0 0 0)
(0 0 0)
(0 0 0)
(0 0 0)
(0 0 0)
(0 0 0)
(0 0 0)
(0 0 0)
(0 0 0)
(0 0 0)
(0 0 0)
(0 0 0)
(0 0 0)
(0 0 0)
(0 0 0)
(0 0 0)
(0 0 0)
(0 0 0)
(0 0 0)
(0 0 0)
(0 0 0)
(0 0 0)
(0 0 0)
(0 0 0)
(0 0 0)
(0 0 0)
(0 0 0)
(0 0 0)
(0 0 0)
(0 0 0)
(0 0 0)
(0 0 0)
(0 0 0)
(0 0 0)
(0 0 0)
(0 0 0)
(0 0 0)
(0 0 0)
(-0.037966815237 0.000470465829977 0)
(-0.00549676410729 6.79083683948e-05 0)
(-0.00886188313837 0.000109481872077 0)
(-0.000406366225785 3.04389464725e-06 0)
(-0.000616808159554 4.62021431928e-06 0)
(-9.47808045515e-05 7.09957583406e-07 0)
(-0.000145170527599 1.0874028496e-06 0)
(-0.0217333201071 0.000269308458413 0)
(-0.00867217628324 0.000107138187183 0)
(-0.00511903087375 6.32417596269e-05 0)
(-0.000593707068145 4.44717511468e-06 0)
(-0.000346265356438 2.59370783817e-06 0)
(-0.000139979347945 1.04851821067e-06 0)
(-8.17928149629e-05 6.12670777863e-07 0)
(-0.00163751504145 2.02302613894e-05 0)
(-0.00182479614521 2.25439779579e-05 0)
(-0.000371022630586 3.42699331723e-06 0)
(-0.000126220505847 9.45457318402e-07 0)
(-2.7281073981e-05 1.62860661154e-07 0)
(-2.84382166392e-05 1.69768491047e-07 0)
(-3.6657911604e-06 -1.17781916588e-08 0)
(0 0 0)
(0 0 0)
(0 0 0)
(0 0 0)
(0 0 0)
(0 0 0)
(0 0 0)
(0 0 0)
(0 0 0)
(0 0 0)
(0 0 0)
(0 0 0)
(0 0 0)
(0 0 0)
(0 0 0)
(0 0 0)
(0 0 0)
(0 0 0)
(0 0 0)
(0 0 0)
(0 0 0)
(0 0 0)
(0 0 0)
(0 0 0)
(0 0 0)
(0 0 0)
(0 0 0)
(0 0 0)
(0 0 0)
(0 0 0)
(0 0 0)
(0 0 0)
(0 0 0)
(0 0 0)
(0 0 0)
(0 0 0)
(0 0 0)
(0 0 0)
(0 0 0)
(0 0 0)
(0 0 0)
(0 0 0)
(0 0 0)
(0 0 0)
(0 0 0)
(0 0 0)
(0 0 0)
(0 0 0)
(0 0 0)
(-0.00123699837251 1.52821804873e-05 0)
(0 0 0)
(0 0 0)
(-1.18633331009e-05 2.67559153782e-08 0)
(-1.84516525463e-05 4.16148522443e-08 0)
(0 0 0)
(0 0 0)
(-0.000675030069029 6.23499308341e-06 0)
(0 0 0)
(0 0 0)
(-1.73861718269e-05 3.92118250577e-08 0)
(-1.00751124384e-05 2.27228598857e-08 0)
(0 0 0)
(0 0 0)
(0 0 0)
(0 0 0)
(0 0 0)
(0 0 0)
(0 0 0)
(0 0 0)
(0 0 0)
(0 0 0)
(0 0 0)
(0 0 0)
(0 0 0)
(0 0 0)
(0 0 0)
(0 0 0)
(0 0 0)
(0 0 0)
(0 0 0)
(0 0 0)
(0 0 0)
(0 0 0)
(0 0 0)
(0 0 0)
(0 0 0)
(0 0 0)
(0 0 0)
(0 0 0)
(0 0 0)
(0 0 0)
(0 0 0)
(0 0 0)
(0 0 0)
(0 0 0)
(0 0 0)
(0 0 0)
(0 0 0)
(0 0 0)
(0 0 0)
(0 0 0)
(0 0 0)
(0 0 0)
(0 0 0)
(0 0 0)
(0 0 0)
(0 0 0)
(0 0 0)
(0 0 0)
(0 0 0)
(0 0 0)
(0 0 0)
(0 0 0)
(0 0 0)
(0 0 0)
(0 0 0)
(0 0 0)
(0 0 0)
(0 0 0)
(0 0 0)
(0 0 0)
(0 0 0)
(0 0 0)
(0 0 0)
(0 0 0)
(0 0 0)
(0 0 0)
(0 0 0)
(0 0 0)
(0 0 0)
(0 0 0)
(0 0 0)
(0 0 0)
(0 0 0)
(0 0 0)
(0 0 0)
(0 0 0)
(0 0 0)
(0 0 0)
(0 0 0)
(0 0 0)
(0 0 0)
(0 0 0)
(0 0 0)
(0 0 0)
(0 0 0)
(0 0 0)
(0 0 0)
(0 0 0)
(0 0 0)
(0 0 0)
(0 0 0)
(0 0 0)
(0 0 0)
(0 0 0)
(0 0 0)
(0 0 0)
(0 0 0)
(0 0 0)
(0 0 0)
(0 0 0)
(0 0 0)
(0 0 0)
(0 0 0)
(0 0 0)
(0 0 0)
(0 0 0)
(0 0 0)
(0 0 0)
(0 0 0)
(0 0 0)
(0 0 0)
(0 0 0)
(0 0 0)
(0 0 0)
(0 0 0)
(0 0 0)
(0 0 0)
(0 0 0)
(0 0 0)
(0 0 0)
(0 0 0)
(0 0 0)
(0 0 0)
(0 0 0)
(0 0 0)
(0 0 0)
(0 0 0)
(0 0 0)
(0 0 0)
(0 0 0)
(0 0 0)
(0 0 0)
(0 0 0)
(0 0 0)
(0 0 0)
(0 0 0)
(0 0 0)
(0 0 0)
(0 0 0)
(0 0 0)
(0 0 0)
(0 0 0)
(0 0 0)
(0 0 0)
(0 0 0)
(0 0 0)
(0 0 0)
(0 0 0)
(0 0 0)
(0 0 0)
(0 0 0)
(0 0 0)
(0 0 0)
(0 0 0)
(0 0 0)
(0 0 0)
(0 0 0)
(0 0 0)
(0 0 0)
(0 0 0)
(0 0 0)
(0 0 0)
(0 0 0)
(0 0 0)
(0 0 0)
(0 0 0)
(0 0 0)
(0 0 0)
(0 0 0)
(0 0 0)
(0 0 0)
(0 0 0)
(0 0 0)
(0 0 0)
(0 0 0)
(0 0 0)
(0 0 0)
(0 0 0)
(0 0 0)
(0 0 0)
(0 0 0)
(0 0 0)
(0 0 0)
(0 0 0)
(-7.21101835788 0.150159823962 0)
(-5.6033167329 0.11621930619 0)
(-6.47647403636 0.111020197807 0)
(-3.93608030386 0.0674725802135 0)
(-4.94479087338 0.10256071394 0)
(-5.71143223107 0.0979057944948 0)
(-8.17992411794 0.170642019674 0)
(-5.60306824989 0.116214152364 0)
(-2.64652519241 0.054892010632 0)
(-3.06327010929 0.0525108031872 0)
(-3.05476031434 0.0523649276516 0)
(-3.85092642619 0.079872693045 0)
(-3.85067081685 0.0798673914101 0)
(-4.44630427963 0.0762188774114 0)
(-1.60533821085 0.0332965816424 0)
(-3.39858843877 0.0704906770771 0)
(-1.44870566805 0.0248338199038 0)
(-2.39125135518 0.0409910079109 0)
(-2.99920091598 0.0622069153316 0)
(-1.28022459042 0.0219457047874 0)
(-1.8191316782 0.0377309068159 0)
(-0.758307049574 0.0157281701859 0)
(-0.358193476999 0.00742934932345 0)
(-0.684364748299 0.0117314312235 0)
(-0.252136902176 0.00432214945925 0)
(-0.316106281499 0.00655641193767 0)
(-0.604766780457 0.0103669569609 0)
(-0.859280112098 0.0178224689432 0)
(-1.25024184024 0.0259314699077 0)
(-1.60517778783 0.0332932542824 0)
(-1.86274572913 0.0319313253093 0)
(-0.685484987279 0.0117506344431 0)
(-2.33573092334 0.0484457760103 0)
(-0.859189837131 0.0178205965354 0)
(-0.998194776037 0.0171111288123 0)
(-0.590574631035 0.0122492047379 0)
(-0.169191837799 0.00350923550094 0)
(-0.196662534154 0.00337120373223 0)
(-0.324206523128 0.00555757224162 0)
(-0.246188417417 0.00510623411599 0)
(-0.405858776404 0.00841798307205 0)
(-0.471648779845 0.00808503833102 0)
(-0.0366461902689 0.000762042456064 0)
(-0.131768967337 0.00273304164146 0)
(-0.0336064455867 0.000575115041685 0)
(-0.0913490997341 0.00156327872181 0)
(-0.116288128166 0.00241195103148 0)
(-0.0296776709816 0.00050788099383 0)
(-0.0415244020793 0.000863482864521 0)
(-0.00919427867352 0.000130374150051 0)
(0 0 0)
(-0.00876619712358 0.000106165533396 0)
(0 0 0)
(0 0 0)
(-0.00604950367171 2.70533313731e-05 0)
(-0.01041814612 0.000147728494397 0)
(-0.0285405377905 0.000593488746189 0)
(-0.0622450698578 0.00129103514534 0)
(-0.0712541735009 0.00121938950245 0)
(-0.014480483078 0.000175370025124 0)
(-0.090566810737 0.00187846099185 0)
(-0.0196158315991 0.000407903151182 0)
(-0.0231473079226 0.000396125348229 0)
(-0.00527231738509 2.70328432182e-05 0)
(0 0 0)
(0 0 0)
(0 0 0)
(0 0 0)
(0 0 0)
(-0.00471721987705 2.1095369045e-05 0)
(0 0 0)
(0 0 0)
(0 0 0)
(0 0 0)
(0 0 0)
(0 0 0)
(0 0 0)
(0 0 0)
(0 0 0)
(0 0 0)
(0 0 0)
(0 0 0)
(0 0 0)
(0 0 0)
(0 0 0)
(0 0 0)
(0 0 0)
(0 0 0)
(0 0 0)
(0 0 0)
(0 0 0)
(0 0 0)
(0 0 0)
(0 0 0)
(0 0 0)
(0 0 0)
(0 0 0)
(0 0 0)
(0 0 0)
(0 0 0)
(0 0 0)
(0 0 0)
(0 0 0)
(0 0 0)
(0 0 0)
(0 0 0)
(0 0 0)
(0 0 0)
(0 0 0)
(0 0 0)
(0 0 0)
(0 0 0)
(0 0 0)
(0 0 0)
(0 0 0)
(0 0 0)
(0 0 0)
(0 0 0)
(0 0 0)
(0 0 0)
(0 0 0)
(0 0 0)
(0 0 0)
(0 0 0)
(0 0 0)
(0 0 0)
(0 0 0)
(0 0 0)
(0 0 0)
(0 0 0)
(0 0 0)
(0 0 0)
(0 0 0)
(0 0 0)
(0 0 0)
(0 0 0)
(0 0 0)
(0 0 0)
(0 0 0)
(0 0 0)
(0 0 0)
(0 0 0)
(0 0 0)
(0 0 0)
(0 0 0)
(0 0 0)
(0 0 0)
(0 0 0)
(0 0 0)
(0 0 0)
(0 0 0)
(0 0 0)
(0 0 0)
(0 0 0)
(0 0 0)
(0 0 0)
(0 0 0)
(0 0 0)
(0 0 0)
(0 0 0)
(0 0 0)
(0 0 0)
(0 0 0)
(0 0 0)
(0 0 0)
(0 0 0)
(0 0 0)
(0 0 0)
(0 0 0)
(0 0 0)
(0 0 0)
(0 0 0)
(0 0 0)
(0 0 0)
(0 0 0)
(0 0 0)
(0 0 0)
(0 0 0)
(0 0 0)
(0 0 0)
(0 0 0)
(0 0 0)
(0 0 0)
(0 0 0)
(0 0 0)
(0 0 0)
(0 0 0)
(0 0 0)
(0 0 0)
(0 0 0)
(0 0 0)
(0 0 0)
(0 0 0)
(0 0 0)
(0 0 0)
(0 0 0)
(0 0 0)
(0 0 0)
(0 0 0)
(0 0 0)
(0 0 0)
(0 0 0)
(0 0 0)
(0 0 0)
(0 0 0)
(0 0 0)
(0 0 0)
(0 0 0)
(0 0 0)
(0 0 0)
(0 0 0)
(0 0 0)
(0 0 0)
(0 0 0)
(0 0 0)
(0 0 0)
(0 0 0)
(0 0 0)
(0 0 0)
(0 0 0)
(0 0 0)
(0 0 0)
(0 0 0)
(0 0 0)
(0 0 0)
(0 0 0)
(0 0 0)
(0 0 0)
(0 0 0)
(0 0 0)
(0 0 0)
(0 0 0)
(0 0 0)
(0 0 0)
(0 0 0)
(0 0 0)
(0 0 0)
(0 0 0)
(-1.25012884268 0.025929126207 0)
(-1.60521468472 0.0332940195669 0)
(-1.88068077755 0.0322387692382 0)
(-0.691977098424 0.0118619226934 0)
(-2.33558184519 0.0484426839561 0)
(-1.00468029111 0.0172223039921 0)
(-0.859199484841 0.0178207966401 0)
(-1.60518580239 0.0332934205138 0)
(-3.39810226512 0.0704805932701 0)
(-2.40139840203 0.0411649493398 0)
(-1.44817460624 0.0248247164031 0)
(-2.99886629327 0.0621999748676 0)
(-1.81882078533 0.0377244585362 0)
(-1.28505770779 0.0220285544435 0)
(-0.590480085421 0.0122472437519 0)
(-0.169177229685 0.00350893251165 0)
(-0.325602236754 0.005581497668 0)
(-0.196536381524 0.00336904121449 0)
(-0.246150949211 0.00510545698182 0)
(-0.473235010475 0.00811222961402 0)
(-0.405831747483 0.00841742246079 0)
(-0.75817674205 0.0157254674563 0)
(-0.358133596856 0.00742810733965 0)
(-0.683412807945 0.0117151129914 0)
(-0.251509452916 0.00431139367753 0)
(-0.859095385719 0.0178186375032 0)
(-0.3160608987 0.00655547064564 0)
(-0.606210129658 0.0103916989599 0)
(-1.60506016408 0.0332908146291 0)
(-3.39809009828 0.0704803409158 0)
(-2.37478386564 0.040708720985 0)
(-1.44285177627 0.0247334720573 0)
(-2.99882072303 0.0621990296876 0)
(-1.81879505867 0.0377239249353 0)
(-1.27163257751 0.0217984198655 0)
(-1.24999098613 0.0259262669017 0)
(-1.60504615258 0.0332905240142 0)
(-1.85030148161 0.0317180050962 0)
(-0.679752997996 0.0116523762581 0)
(-2.33544967014 0.0484399424918 0)
(-0.859081514678 0.0178183498017 0)
(-0.989184448663 0.0169566731128 0)
(-0.758112301347 0.0157241308812 0)
(-0.358123081873 0.00742788924667 0)
(-0.680685756046 0.0116683656657 0)
(-0.249808730796 0.00428223977294 0)
(-0.859070419915 0.0178181196834 0)
(-0.316035113475 0.00655493583009 0)
(-0.599833263981 0.0102823862559 0)
(-0.590408334952 0.0122457555637 0)
(-0.169152088247 0.003508411049 0)
(-0.320397895655 0.00549228446726 0)
(-0.19408088219 0.00332694886297 0)
(-0.405769329533 0.00841612783991 0)
(-0.246117703396 0.00510476742496 0)
(-0.466545893532 0.00799756427575 0)
(-0.278891100633 0.005784525802 0)
(-0.973483962049 0.0201911896203 0)
(-0.414783482074 0.00711024918318 0)
(-0.412888820917 0.00707777076124 0)
(-0.521052672059 0.0108072384486 0)
(-0.52103654785 0.0108069040137 0)
(-0.221483595965 0.0037966882129 0)
(-0.131738481127 0.00273240932201 0)
(-0.102604746966 0.00212814179041 0)
(-0.196421448845 0.00336707102999 0)
(-0.0431762827518 0.000738885925633 0)
(-0.246128897097 0.00510499959532 0)
(-0.0533076467236 0.00110851059109 0)
(-0.103308600786 0.00176794448833 0)
(-0.13173356239 0.00273230730168 0)
(-0.102596522152 0.00212797119821 0)
(-0.194523165469 0.00333453051571 0)
(-0.0427389932749 0.00073140248752 0)
(-0.246111759661 0.00510464414498 0)
(-0.0533059619481 0.00110847555688 0)
(-0.102712060302 0.00175773575011 0)
(-0.0622276667964 0.0012906741856 0)
(-0.00919177665738 0.000130338671659 0)
(-0.0203282039428 0.000347881355908 0)
(-0.0202278810547 0.000346164506625 0)
(-0.0251802426876 0.00052361279143 0)
(-0.0251796600023 0.000523600674729 0)
(-0.0486586454513 0.000832706893528 0)
(0 0 0)
(-0.0366413386116 0.000761941567846 0)
(-0.00879472792836 0.000106511063854 0)
(-0.0144650011059 0.00017518252628 0)
(-0.0104179595335 0.000147725848614 0)
(-0.0196118262984 0.000407819862603 0)
(0 0 0)
(0 0 0)
(0 0 0)
(0 0 0)
(0 0 0)
(0 0 0)
(0 0 0)
(0 0 0)
(0 0 0)
(0 0 0)
(-0.00532725337972 2.3823433923e-05 0)
(0 0 0)
(-0.0081119607816 0.000115026967281 0)
(0 0 0)
(0 0 0)
(0 0 0)
(0 0 0)
(0 0 0)
(0 0 0)
(0 0 0)
(0 0 0)
(0 0 0)
(0 0 0)
(0 0 0)
(0 0 0)
(0 0 0)
(0 0 0)
(0 0 0)
(0 0 0)
(0 0 0)
(0 0 0)
(0 0 0)
(0 0 0)
(0 0 0)
(0 0 0)
(0 0 0)
(0 0 0)
(0 0 0)
(0 0 0)
(0 0 0)
(0 0 0)
(0 0 0)
(0 0 0)
(0 0 0)
(0 0 0)
(0 0 0)
(0 0 0)
(0 0 0)
(0 0 0)
(0 0 0)
(0 0 0)
(0 0 0)
(0 0 0)
(0 0 0)
(0 0 0)
(0 0 0)
(0 0 0)
(0 0 0)
(0 0 0)
(0 0 0)
(0 0 0)
(0 0 0)
(0 0 0)
(0 0 0)
(0 0 0)
(0 0 0)
(0 0 0)
(0 0 0)
(0 0 0)
(0 0 0)
(0 0 0)
(0 0 0)
(0 0 0)
(0 0 0)
(0 0 0)
(0 0 0)
(0 0 0)
(0 0 0)
(0 0 0)
(0 0 0)
(0 0 0)
(0 0 0)
(0 0 0)
(0 0 0)
(0 0 0)
(0 0 0)
(0 0 0)
(0 0 0)
(0 0 0)
(0 0 0)
(0 0 0)
(0 0 0)
(0 0 0)
(0 0 0)
(0 0 0)
(0 0 0)
(0 0 0)
(0 0 0)
(0 0 0)
(0 0 0)
(0 0 0)
(0 0 0)
(0 0 0)
(0 0 0)
(0 0 0)
(0 0 0)
(0 0 0)
(0 0 0)
(0 0 0)
(0 0 0)
(0 0 0)
(0 0 0)
(0 0 0)
(0 0 0)
(0 0 0)
(0 0 0)
(0 0 0)
(0 0 0)
(0 0 0)
(0 0 0)
(0 0 0)
(0 0 0)
(0 0 0)
(0 0 0)
(0 0 0)
(0 0 0)
(0 0 0)
(0 0 0)
(0 0 0)
(0 0 0)
(0 0 0)
(0 0 0)
(0 0 0)
(0 0 0)
(0 0 0)
(0 0 0)
(0 0 0)
(0 0 0)
(0 0 0)
(0 0 0)
(0 0 0)
(0 0 0)
(0 0 0)
(0 0 0)
(0 0 0)
(0 0 0)
(0 0 0)
(0 0 0)
(0 0 0)
(0 0 0)
(0 0 0)
(0 0 0)
(0 0 0)
(0 0 0)
(0 0 0)
(0 0 0)
(0 0 0)
(0 0 0)
(0 0 0)
(0 0 0)
(0 0 0)
(0 0 0)
(0 0 0)
(0 0 0)
(0 0 0)
(0 0 0)
(0 0 0)
(0 0 0)
(0 0 0)
(0 0 0)
(0 0 0)
(0 0 0)
(0 0 0)
(0 0 0)
(0 0 0)
(0 0 0)
(0 0 0)
(0 0 0)
(0 0 0)
(0 0 0)
(0 0 0)
(0 0 0)
(0 0 0)
(0 0 0)
(0 0 0)
(0 0 0)
(0 0 0)
(0 0 0)
(0 0 0)
(0 0 0)
(-0.0285353670787 0.000593381223364 0)
(-0.0622331976709 0.00129078890237 0)
(-0.0710472763465 0.00121584882258 0)
(-0.0144063843687 0.000174472631547 0)
(-0.0905513663527 0.00187814065735 0)
(-0.0230656212654 0.000394727425169 0)
(-0.0196121336768 0.00040782625441 0)
(-0.0366402170086 0.000761918244574 0)
(-0.131744195628 0.00273252784741 0)
(-0.090976144119 0.00155689624427 0)
(-0.0334531132261 0.000572491028777 0)
(-0.116269275351 0.00241156000216 0)
(-0.0415182313178 0.000863354546073 0)
(-0.0296063554587 0.00050666055444 0)
(-0.00527141046009 2.7028193126e-05 0)
(0 0 0)
(0 0 0)
(0 0 0)
(0 0 0)
(-0.00470050659433 2.10206273802e-05 0)
(0 0 0)
(-0.00919285010854 0.000130353893112 0)
(0 0 0)
(-0.00873061609298 0.000105734619165 0)
(0 0 0)
(-0.0104166275233 0.000147706960815 0)
(0 0 0)
(-0.00603596080442 2.69927677804e-05 0)
(-0.0366368472902 0.000761848172665 0)
(-0.131738523708 0.00273241020518 0)
(-0.0904545472598 0.00154797003401 0)
(-0.0333248019475 0.000570295207557 0)
(-0.116257329802 0.00241131223759 0)
(-0.0415160103233 0.000863308361404 0)
(-0.0293744135381 0.000502691277565 0)
(-0.0285325395025 0.000593322425078 0)
(-0.0622257944195 0.00129063535033 0)
(-0.0702513085602 0.00120222723783 0)
(-0.014285500434 0.000173008632138 0)
(-0.0905402035754 0.00187790912837 0)
(-0.0196100242771 0.000407782390309 0)
(-0.0228762472078 0.000391486622189 0)
(-0.00919238323672 0.000130347272906 0)
(0 0 0)
(-0.00870172460067 0.000105384720497 0)
(0 0 0)
(-0.0104163846566 0.000147703516983 0)
(0 0 0)
(-0.00599572676509 2.68128414827e-05 0)
(-0.00527102788674 2.70262315512e-05 0)
(0 0 0)
(0 0 0)
(0 0 0)
(0 0 0)
(0 0 0)