/*--------------------------------*- C++ -*----------------------------------*\
| =========                 |                                                 |
| \\      /  F ield         | OpenFOAM: The Open Source CFD Toolbox           |
|  \\    /   O peration     | Version:  v1906                                 |
|   \\  /    A nd           | Web:      www.OpenFOAM.com                      |
|    \\/     M anipulation  |                                                 |
\*---------------------------------------------------------------------------*/
FoamFile
{
    version     2.0;
    format      ascii;
    class       volScalarField;
    location    "4.6";
    object      p_rgh;
}
// * * * * * * * * * * * * * * * * * * * * * * * * * * * * * * * * * * * * * //

dimensions      [1 -1 -2 0 0 0 0];


internalField   nonuniform List<scalar> 
28582
(
19555.5167277
19553.6652582
19555.5562571
19553.8511707
19555.7252613
19554.457339
19556.0992348
19555.7304279
527.188393188
612.765223662
0.0265645198471
19555.6685933
18414.7040093
18369.4429186
19555.9231147
19556.9192585
18367.0231149
19556.6329067
19557.3187198
19556.5632815
19552.0997806
19550.438414
19556.3834032
19552.2543306
19550.1625003
19556.3954953
19552.5501461
19557.0740332
19555.161803
668.624629196
-0.00487874470151
0.091038393605
19555.3448392
19556.8716189
18474.9205379
18409.0284267
19557.1143021
19552.9610762
19556.110836
19553.7857141
19555.8908779
18030.6160657
19557.0087563
19553.3365964
550.654351021
619.253716578
2.77612092388
3.49000276641
576.18702012
3.19772914458
19554.2935297
19554.1716975
18388.3381648
18404.8972737
19554.6037937
18394.0586368
19553.8451525
19554.3020957
19554.1251092
18376.8070644
18382.4223678
19554.7486248
18386.8186037
19553.8020962
19556.0748333
19554.5852601
18358.1737616
18379.2775029
19555.4047538
18375.2752381
19555.1558914
19555.8032251
18316.9600369
18342.7488396
19556.5678729
18344.8640922
18364.4677775
19555.5763867
19557.8087333
18355.6660808
18347.7468979
19557.0016933
18356.8352967
19557.2302002
18367.460401
505.042070385
0.833419291336
504.808834291
518.857062302
0.772382215715
0.784054921659
673.932822927
4.56273583793
4.68619945213
743.769389596
7.1795950421
740.529900323
7.09978764328
19556.9174325
19556.4961109
18455.0165934
18541.532396
19555.7418179
19557.8370784
18521.0074266
19555.6354563
19553.2690795
18431.5232393
18445.0566646
19554.8057943
19554.0990221
18489.3059748
18525.7710526
18471.9786715
19555.6389533
19557.1222386
18468.9232529
19555.6051895
18524.069097
19555.384173
18271.4636097
18303.182026
19554.0672428
18212.7903287
19553.7179149
18239.7574101
19551.2351324
19547.5015934
18129.8137322
18046.7555606
19551.1090917
19547.841603
18149.4052149
19556.1017672
19557.6103951
18319.6054824
18315.8499393
18267.1934901
19555.3328984
18256.9128375
18184.1378133
18078.0603134
19549.2412677
19552.5249119
18061.5038699
19548.6751424
18166.8646218
19549.1656615
19549.7928755
814.144602477
-0.0661288180924
19555.3698472
18419.8318507
19550.4673773
19546.8286231
17915.7365595
17950.2693874
17592.1922724
19544.4606505
19543.3248526
17516.7685704
17474.9028307
529.76120852
817.530613711
874.358048977
8.88155833977
8.95561232963
10.5079214034
900.204518549
914.052415284
19552.2536335
19554.2727873
18417.0894566
18373.9705218
19553.518866
18368.4348084
19552.9229601
19539.0623869
19543.678301
17806.1495556
17931.1820473
19539.3964635
19543.5704957
17808.501196
19539.5057527
19544.9039006
17941.289559
17824.328838
19544.2258035
17811.5784365
19539.8430478
19535.0122975
19530.5733653
17586.5924712
17704.5128405
19530.5737523
17687.8305519
19534.9608824
19526.27513
19527.6465855
17515.6918623
17463.8097509
19527.1098673
17458.0957605
19527.018763
19526.5219954
19528.7437966
17456.9852325
17460.6897679
19527.5401172
17458.061315
19527.5624308
19581.4989108
19576.6594876
19570.4711572
19568.4789894
567.08122666
629.22154604
582.801910518
661.939401414
617.713927537
0.0605892973416
0.440956940252
0.0851412691867
0.290591003917
0.0779448476312
0.305823149674
19584.3462561
19583.1937744
18868.3360385
18845.4837614
19584.1902265
18855.8417954
19581.2573867
19579.6170409
18846.9553209
18857.5788825
19580.473497
19578.945754
19576.8300605
18850.4745895
18717.8370656
18811.1719334
18554.1212649
19573.4132242
19569.2744896
18654.3928864
18589.8759954
18476.9829019
18387.5733778
19573.8310057
19572.0675324
18800.9370573
18497.6585489
18461.8723229
19566.8304081
19568.999117
19565.859033
18403.9591708
18333.4316274
18389.6940888
18333.9020425
18447.8405122
18381.3030251
550.829134172
553.228163061
570.068756306
0.459075638919
2.46233021901
1.70068893807
4.14370266542
6.85171559613
7.81964231054
7.7900552574
7.38525851147
546.690422268
537.354233583
606.713093144
574.958925497
622.181939754
3.05756735684
4.82797156702
3.62614810887
5.09621480735
616.156112647
647.689378016
644.766179074
7.27864340087
6.94959928136
7.58754524197
7.73784597509
635.02615608
628.567943328
3.62506705979
5.17321150371
4.78649902831
662.592067613
653.678203055
652.110573558
7.61813288999
8.36455254017
6.51979344625
7.78467697743
19583.9572868
19585.5969724
18862.9405165
18859.2919415
19584.9936787
18854.3806184
19584.5346776
19583.2951805
19583.6187929
18852.1605864
18842.9666486
19584.0782464
19583.0737896
18848.9813514
19584.7379623
19584.0142112
18857.1036159
18853.5846515
19584.4665927
19583.9221777
18871.1779147
19581.4239099
19582.6112798
18843.5031072
18852.2243715
19582.3764023
19581.481959
18849.482654
19580.9917354
19580.7338867
18858.9187749
18866.8899013
19581.1066994
19580.7853837
18857.4313261
19580.545545
19582.6652797
18827.5594185
18841.8600729
19582.3873477
19581.2618746
18796.9865979
19579.2362349
19580.4301607
18770.6501185
18646.7773108
19581.716114
19577.390877
18719.8507624
19579.1702151
19579.6236809
18823.510858
18735.7762416
19580.5781287
19577.9393949
18762.9788849
19577.2857159
19572.9892135
18587.8263105
18636.9432946
19575.1378427
19575.6212502
18670.6432919
19573.9046523
19578.4281132
18600.9684845
18594.3351708
19576.1112568
19575.5482339
18564.1735467
19571.4395696
19570.3217411
18597.012976
18506.5528879
19573.6882768
18536.6307198
19568.3250648
19571.0028329
19570.3509698
18531.9145352
18397.9549811
19573.2400633
19568.2849349
18505.4639459
19568.6312773
19564.1622322
18434.4364475
18386.3937817
19566.2070083
18470.0837053
19565.6596315
19575.5193536
19579.2410021
18712.2520619
18803.0096328
19576.7979883
19578.0767783
18710.7866388
19572.3081723
19570.1090526
18596.1397707
18451.6572434
19573.4685491
19568.5918272
18581.9028075
19570.9396519
19567.134398
18441.5553895
18553.4805163
19567.0752038
19570.1965305
18572.9650024
19563.2602442
19567.1211224
18315.3457541
18358.8012357
19565.2751625
19565.1641834
18319.2356722
19562.0818924
19561.5360274
18313.6295925
18272.545112
19563.4038291
18292.0653106
19560.7216702
19562.5309324
19564.4713464
18346.6586009
18314.0089496
19564.177248
19562.3389226
18311.5974142
19561.2335216
19560.4889413
18278.4142176
18306.9770443
19561.1751638
18292.6898514
19559.9869043
19564.7552103
19565.1102747
18380.5282669
18464.1808654
19563.5058794
19565.8813392
18455.4379096
19561.4472998
18363.1065426
19562.3934669
19554.0728141
19552.5343342
19551.3525754
19548.8329461
19547.8741702
19548.9348337
19553.9914462
19552.6938613
19551.4651381
19548.2962855
19547.3537628
19548.5459721
19545.7039117
19547.556927
19543.0609902
19547.0851613
19549.089603
19549.2484393
19548.8105524
19546.0798367
19546.9223988
19548.7266266
19549.0110385
19549.989225
19549.7388776
19548.6965302
19547.5441123
19546.4752976
19551.2202057
19549.6458802
19549.9416163
19549.8204742
19548.8976312
19547.7468545
19546.8753311
19546.7470697
19554.2766016
19551.9771038
19551.2569465
19550.7349878
19549.486473
19548.0820556
19547.1871827
19547.6719504
19549.8263465
19548.2670682
19547.3881521
19548.263498
19543.4016364
19545.0740841
19543.7964552
19546.3174382
19548.0422138
19548.1159776
19547.6211506
19543.785922
19546.7142588
19547.6994683
19549.7150499
19550.7496285
19549.4434037
19547.6489265
19546.5251794
19544.8307529
19550.255613
19549.5373187
19550.3941667
19549.9964091
19548.442271
19546.6841572
19545.5544639
19545.5533935
19553.9159024
19551.9921903
19551.5624227
19551.0589565
19549.1825974
19547.2120011
19546.259553
19546.9864929
19549.4603131
19547.5866831
19546.65719
19547.8022329
19541.5362263
19543.6886493
19544.8726372
19548.4008455
19548.0498194
19545.2457942
19544.4666794
19541.8318613
19545.3219736
19547.6924826
19547.5652327
19549.1365756
19548.0047831
19544.0296163
19543.0880565
19542.8537367
19548.837965
19548.7920518
19550.4734932
19550.3527413
19547.3507063
19542.8876462
19542.4564575
19543.9504171
19557.3202092
19553.2355921
19551.554234
19551.6216409
19550.807805
19547.5543876
19543.6443568
19543.3194902
19545.3535017
19553.9505077
19552.8674707
19551.4641187
19548.2071787
19544.8215426
19544.1152758
19546.141702
19545.8660285
19544.9021892
19546.8439153
19543.9197879
19546.7422779
19547.027228
19552.4178291
19550.4899432
19540.7550304
19539.8709772
19546.4437582
19546.7085318
19543.7496936
19547.8228516
19550.1033626
19553.7224006
19550.7886425
19539.8559836
19538.3793172
19544.8832575
19562.5341868
19552.3804679
19547.0092899
19548.0346208
19551.5622928
19554.3306137
19549.8582415
19538.9659265
19537.9327173
19544.4952015
19556.7329593
19552.2821475
19550.1594951
19552.0708625
19554.1107772
19548.7080432
19539.7706746
19539.2341564
19544.9932797
19553.8172276
19553.5343242
19553.8662046
19548.6683114
19542.3079286
19541.3873556
19544.9763755
19543.986515
19542.8902687
19545.1770582
500.610464543
520.63314101
529.255188784
584.797227869
768.341401097
896.577649684
997.603974595
1061.73728666
600.477599625
573.208748593
533.41813216
492.783106494
505.254691332
582.939773701
782.852793665
902.671727965
1008.96504665
1054.08387322
654.027235546
624.683888024
589.552463343
557.148142046
555.187286658
616.633334107
793.79681319
908.535813642
1008.13023813
1054.25738813
589.422824724
557.778113104
558.825411464
592.755423019
654.854527988
809.27991254
914.981240788
1006.10354017
1045.64439674
542.054058849
591.910365462
674.068450832
813.268921866
912.864578204
986.042730329
1033.32878973
907.501267738
971.251963443
997.316356857
0.100356722963
-0.0689629528089
-0.0528487595491
-0.0564593640307
-0.0686640152578
0.005577304809
0.295431780173
0.223604287843
-0.32178901445
1.10932874692
0.0532476709887
-0.0850084590622
-0.0336853852566
-0.017147647546
-0.0406553159769
0.0599353735312
0.324420830396
0.150722279982
-0.320498780752
1.30231791805
0.2187053166
-0.0108821566742
-0.0763714065996
-0.0503386723231
-0.0488400907143
0.0491069230017
0.24956487939
0.100275349345
-0.325129426259
0.739383873625
-0.0022198861607
-0.0460828847732
-0.0514300735526
-0.0276594123591
0.0813644946283
0.353115937603
0.0920762179893
-0.338847579204
0.650985197606
-0.0257118499986
-0.0255192575456
0.106495812664
0.384093316565
-0.0482267835009
-0.354861380202
1.28903938702
-0.11996910475
-0.30288832942
1.57614118447
19546.7847225
19545.6081453
19547.2341867
19544.9262648
19546.0671941
19545.2833731
19546.2461075
19547.7084259
19548.2866035
19548.3949791
19546.8318024
19543.2935666
19546.8879214
19545.8822133
19547.9186674
19548.7704006
19548.5955264
19546.5950876
19547.711412
19548.3083333
19548.5871029
19548.4481246
19549.1067925
19549.3990607
19548.2707093
19547.7341799
19549.4311116
19550.0841449
19544.3419164
19544.5605759
19545.1506447
19542.0163181
19543.1668961
19543.226526
19544.2165549
19545.0111424
19545.4444837
19545.9853091
19544.050876
19542.307534
19544.2147014
19542.2808472
19547.3740096
19547.7265902
19548.2804901
19545.8397448
19546.8670634
19547.2575081
19547.5196717
19547.0651524
19549.1059305
19552.3392058
19547.6535099
19543.4723818
19547.8338017
19550.7048168
19542.8117409
19542.941698
19544.1782612
19542.1024126
19543.45112
19543.8902638
19544.6689194
19541.3039614
19545.0424609
19543.326458
19544.3847485
19541.6080393
19545.7179563
19546.4723348
19546.5584183
19546.6110801
19547.1768762
19544.8150638
19546.2492883
19545.5718959
19546.6402408
19543.9661131
19547.7103595
19549.7375428
19547.5716596
19547.4167271
19547.9180748
19550.4337663
19542.7172535
19543.6386353
18239.6734141
18219.8699465
19545.2804506
19544.5367276
19545.816685
18251.4135536
18262.0776688
18252.4282585
18321.5610696
19546.9041461
19547.3644208
19548.3770119
18273.4440091
18326.3851181
18332.1820928
18359.2600018
19549.5959958
19548.8586862
19550.4031194
18337.7923582
18355.6698825
18364.6639268
18378.2043261
19552.9350021
19552.4294257
19553.0100427
18364.3097393
18354.3800002
18383.8443129
18331.5133504
19545.4179333
19550.2211069
19544.9856118
18230.7812115
17577.4087559
18197.2723309
17549.3535928
19539.3639428
19540.108185
19538.3438424
17395.0212338
17194.5244789
17375.4963804
17153.8690465
19543.1123606
19539.2827125
19542.6045215
17212.6883807
17368.3034829
17174.0436503
17347.2845679
19545.8137371
19545.7515498
19545.9628351
17417.895189
17376.0634591
17411.0184856
17381.152096
19563.9141459
19556.7973163
18545.2859129
18276.5970644
18364.8862946
18225.7566045
19543.4708725
19550.1622482
19546.0591454
18206.7152415
18178.4490192
18193.5007204
18086.1152208
19545.822564
19544.8978185
19546.0661787
18213.8815473
18331.1640386
18105.0441287
18193.2457589
19549.111352
19547.9237046
19550.0088819
18356.5698803
18375.5578135
18230.8287939
18323.7581902
19551.953978
19552.0850258
19553.4907956
18379.3949923
18393.344995
18337.6519368
18378.1901903
19553.6959778
19554.5190694
19553.8174186
18398.4319837
18313.6114151
18381.5643894
18275.1755093
19545.0052801
19550.5205592
19544.5318261
18173.7635357
17544.8077935
18134.7371198
17532.0310769
19537.6893347
19539.3591774
19537.2009513
17373.622852
17155.6865046
17372.0816863
17157.0030377
19541.7495117
19537.9804131
19541.2420261
17177.0173503
17343.5923642
17179.9344882
17347.5406055
19546.0261667
19544.5202614
19546.4294052
17411.4493687
17385.8047523
17417.2761698
17376.6572602
19557.4419317
19562.383445
19558.4595191
18322.4863477
18209.6116344
18345.1689424
18267.0512834
19548.6961098
19554.5615243
19551.5770247
18185.5549418
18076.5230202
18262.2873616
18203.4957735
19547.03223
19549.6001222
19548.6200324
18093.0484168
18167.4495469
18206.1465921
18215.1603187
19549.7006675
19548.7917026
19549.9481456
18198.0798273
18290.1898073
18215.3786491
18224.9825456
19553.3031862
19551.6150456
19553.3982716
18307.1619886
18355.8353664
18236.6206495
18305.209474
19553.2868153
19554.3245913
19552.9119208
18360.257829
18259.4447085
18322.6559604
18193.2840273
19544.0268817
19549.2822501
19543.7517272
18119.1809537
17522.3520038
18034.0842899
17464.6738163
19537.0859655
19539.1454739
19537.5226767
17365.5410897
17168.6356333
17329.5400135
17210.2412299
19541.0967603
19538.475619
19541.3768727
17188.3576849
17348.8482311
17227.6680034
17367.6172609
19547.0228952
19544.6615881
19547.5969638
17417.3580004
17356.0113195
17445.4845496
17344.5098704
18390.3998885
18309.164807
19554.1739927
19556.6126931
18303.0905042
18253.9080684
18427.2688847
19550.8047288
19554.8584602
19553.2935604
18252.2477049
18251.6093856
18418.3809684
18375.2712411
19550.6865714
19552.1904051
19551.9651984
18243.8115024
18232.3643675
18349.1154927
18249.527575
19553.6468691
19552.7878777
19553.8413187
18238.15046
18295.9812929
18257.2317442
18267.773668
19552.315252
19553.845603
19552.0016702
18315.6305346
18147.9960348
18256.1468086
18038.8129075
19543.6019744
19548.3945011
19544.0399022
17991.0769759
17454.0750884
17886.2290765
17490.1855566
19538.2376072
19540.9596542
19539.5248606
17334.0876122
17240.7638946
17408.4007763
17350.09317
19541.8180458
19540.4318025
19542.4969148
17253.5151539
17375.4743813
17354.0711365
17415.0049824
19547.9620844
19545.0235327
19548.0194136
17456.7768395
17323.0798135
17478.4688032
17298.2818547
19553.1278363
19554.5696334
18377.4004582
18239.2013655
18331.1675565
19554.180151
19554.5615417
19554.8847698
18237.4826346
18250.2999
18323.9561192
18289.4214898
19551.9626393
19554.358661
19552.3597701
18241.6736078
18033.4779955
18252.700731
18024.3164149
19544.9534697
19549.3202472
19545.901168
17886.7428959
17534.6374434
17908.5950092
17616.8726518
19540.9370557
19543.5414542
19542.1389253
17455.8075229
17384.667113
17542.4600796
17452.970287
19542.9072378
19542.3411413
19543.4189807
17376.5999453
17412.7030291
17433.9267403
17447.3962321
19547.740698
19544.8334223
19547.6488068
17469.663206
17310.7310077
17491.4469496
17283.5439647
19546.3656368
17614.9225554
19542.6940678
17535.8859358
17447.5084323
19543.8765789
17439.0636805
17460.2622861
19547.9105137
17503.5016974
17313.9269939
5.74541079716
2.33361225636
4.81916310643
1.72739352742
507.164118056
522.658306335
0.336574928579
0.0715905997877
0.260556670139
0.0902314878791
511.870729772
497.464319873
497.89846645
0.0845849074454
0.0826984648951
0.0702257058259
0.0759738242718
522.164146507
502.55314882
506.661902965
0.0764035745353
0.0757294799297
0.0871529073212
0.0922033621717
547.447341215
517.695026701
540.31223391
0.0874104229349
0.157126288871
0.100820175609
0.113023292939
655.295138319
583.265822747
662.202788809
0.375792325277
3.62021541159
0.391870055062
4.50478419462
856.709700113
775.359923026
861.46038854
8.88982326854
12.9408713825
9.70038979789
13.2508848507
924.6206083
899.986059974
929.863056012
12.7785618395
12.1828811311
12.74335378
12.3749873305
1040.68878005
1004.14894884
1046.02730838
9.02565414109
5.74972299805
9.52486847313
6.34953679132
1037.11499558
1057.16184242
1024.82886906
8.86577697613
30.1594726399
10.2098512813
31.4633779139
588.040770075
634.333126855
619.720330933
4.68084784921
2.45690625889
5.94317062814
3.87037651098
553.542599351
605.825704237
588.965125014
1.50308957291
0.559861352318
2.92266806428
1.97931686989
509.43638334
569.937554082
548.034183768
0.333737852729
0.17663842804
1.18894218959
0.755016911759
493.411120564
526.912294135
512.834819539
0.0765425248839
0.0970017885933
0.5349232291
0.370070864241
532.387634859
518.370482079
543.542172769
0.116960590545
0.190448996222
0.562334239519
1.02614970619
675.188593891
595.73459868
688.969800001
1.69245166971
5.47548454283
2.48730329023
5.76123863887
862.800598533
787.43277854
863.261492212
10.3242966691
13.5958282194
10.1842290715
13.4370404417
935.027065798
905.286368809
936.435642042
12.5325646913
12.1280267825
12.4336509028
12.1478831295
1046.10068054
1008.98793265
1042.7364835
9.77710451261
6.87450860758
9.69577274403
6.79092746644
1008.65070232
1051.52187352
1005.34086648
11.6849379143
33.5500148778
11.8348413557
34.4220831117
639.956666352
644.634034958
631.781045321
7.4880537723
5.75476380078
7.5434251365
6.75301099299
607.066531499
614.71707802
593.187094124
4.10890324565
2.91388990925
5.08684863587
3.41953721278
572.937386424
578.521117643
568.985272762
1.93544749126
1.20802050919
2.37965154772
1.58615835346
546.842250111
564.516577517
569.012028409
0.859600058623
0.669958044169
1.02480863804
1.28639406328
576.821213388
581.650609995
599.069617997
0.957123559383
1.79932392149
2.09719304894
3.16703083838
701.018564228
633.40669773
713.93175175
2.9441522802
5.88503190136
4.38979718765
6.67887463249
866.421433278
801.028615596
871.056867696
9.99127000027
13.1586927057
10.2730492175
13.2166563128
936.801176679
911.169970721
938.718472859
12.1135715525
11.6219329316
12.0477336264
11.2341591807
1041.59870383
1007.33087498
1036.67478478
8.72695471377
5.51938298684
7.99738787245
4.75070168297
1024.38354487
1048.11910143
1028.75383703
8.85917158756
26.9406444257
7.32962261995
25.4644155726
570.836620771
538.454211488
4.85596114193
3.14987546475
2.18051515196
554.333984716
534.117007965
539.421225964
2.13745071652
1.36005490422
1.55149273748
1.0167433532
572.928838041
550.514516955
567.294554791
1.19294711468
1.66142635334
1.23166231093
1.53665583216
615.31728587
589.675654795
623.416734574
2.46522994774
3.55273076759
2.35392890669
3.50647868769
731.289453803
670.397685318
740.192957314
4.87579552071
6.70549737139
4.89319351407
6.82276138113
876.997874878
814.015490252
880.728996684
10.515880766
13.6487676832
11.1465581985
14.1172826054
947.897772846
914.916162889
950.10543441
11.6602207116
10.62703746
11.3497269634
10.1389429826
1035.403751
994.783350092
1029.09776294
7.2438414683
4.10960779978
6.77359428832
4.17273266684
1037.70927233
1039.28563868
1029.69679505
6.17974669566
23.8735185013
6.70910141555
26.3764987825
566.324666313
556.61113909
1.17893507165
1.56439379407
1.32654869047
2.07367791599
625.470541418
584.670278451
619.537097044
1.80598846716
2.97593439811
2.53991422106
3.19788427353
740.947793802
670.482154629
739.47280841
4.9302205655
7.93719969481
5.15126394125
8.39808365986
876.384370866
812.013650924
871.452456464
12.3816410736
14.3765170565
12.1977959474
14.003251399
945.127187182
908.881635857
938.276620945
10.2264647551
8.828351368
9.98585380685
8.87266384916
1022.63131068
980.101593792
1010.60164556
6.77978867887
5.62681088167
7.55105073347
7.36740237319
1011.25999821
1019.31038161
994.417967151
10.1065375669
33.7883951533
14.2372684731
36.6976102872
872.640726468
10.391521448
930.86550451
9.53074441801
8.4683547429
9.37213201916
8.00444557971
992.8316173
7.66734419863
7.93746739255
7.15677187057
6.95518396624
969.272660329
15.4239784072
40.9416869025
11.8824062164
37.646204257
19541.016908
19541.9440402
18210.4892357
18245.6812175
19541.9899448
18197.6980463
19541.0507215
19541.4882684
19541.392382
18233.8089553
18185.8874955
19542.1428945
19540.8974803
18191.3944436
19543.3713776
19542.6112807
18254.9121086
18274.6666154
19542.8206508
18279.0053342
19543.425851
19544.2400969
19544.7671779
18256.6926258
18283.5617314
19545.1169457
18280.5063805
19544.0460002
19543.9174326
19541.8198827
18279.0129628
18285.3282364
19543.0229612
19542.5711685
18299.5545176
19544.7818247
19545.0479912
18310.29024
18307.9722551
19545.7897652
19543.7013733
18305.1417585
19546.8278595
19545.4268607
18291.8302217
18290.4005468
19545.9784034
18303.5097143
19546.2612946
19547.6497802
19547.7826032
18310.586902
18329.3925793
19548.4216839
18317.8322504
19547.1017654
19547.2607992
19546.6536985
18317.841823
18342.7103023
19546.5147353
19547.6663671
18329.4900941
19548.0946303
19549.2870008
18346.6962768
18351.6715661
19548.9604693
19548.551403
18339.5197043
19549.9456568
19548.5910113
18344.5832199
18338.3370808
19549.1952352
18346.3081413
19549.613704
19551.1928112
19552.3529099
18350.2150388
18360.9755701
19552.7313742
18353.934095
19550.840314
19550.6624059
19549.9476842
18351.9001916
18369.0576121
19549.8071694
19550.8927166
18356.5316418
19551.8892522
19553.504082
18366.6818387
18373.6539703
19553.2887206
19552.130978
18361.6057288
19556.601348
19554.387341
18373.4772764
18368.1686892
19554.7907838
18374.145931
19556.6241512
19557.5969246
19557.2786433
18382.8651162
18359.3023585
19557.0658117
18383.1912685
19557.942492
19556.8976922
19555.1076964
18371.6687715
18392.8964693
19555.1364654
19556.9403952
18378.5888004
19557.9920883
19556.2604595
18349.5309133
18381.7968279
19557.0243084
19557.5698338
18380.2527814
19543.9161866
19553.0792096
18046.9757023
18236.1041725
19552.1845322
18049.1566894
19545.1089534
19533.9498563
19526.260548
17812.6066477
17576.1912312
19523.2469238
17810.0030699
19535.8104405
19544.5800153
19552.2030692
18218.5244616
18006.2769672
19552.3399711
19544.7513179
18027.9070592
19535.2338265
19525.5310513
17562.6429454
17770.1806772
19525.2794626
19535.3814453
17791.886908
19509.0648734
19518.7269745
17264.4308414
17396.3818849
19514.5941847
17252.8114008
19513.6231716
19507.0818049
19514.025571
17223.1754324
17186.377861
19509.8603717
17197.6329386
19512.3478239
19511.5089308
19517.3283199
17385.5026853
17236.1238846
19517.1016001
19511.224302
17243.1237921
19509.4000988
19511.5404283
17170.6857198
17182.0422679
19511.7594046
19509.8494136
17184.5808698
19516.6784255
19515.8712873
17270.4588829
17208.7954665
19512.8046759
17258.7468529
19519.0931694
19520.7288628
19525.3224365
17333.9457053
17348.1929548
19524.2883794
17303.0631428
19522.5950343
19518.251705
19514.212203
17193.9555855
17237.3846994
19514.5069643
19518.259032
17246.6097787
19522.0205196
19525.3519558
17345.2967858
17304.211411
19525.2734197
19522.2415359
17296.3067538
19525.1119258
19527.0850898
17469.7929353
17420.1034017
19527.219336
17477.7663637
19525.4006179
19518.7250736
19525.9773385
17220.8280989
17370.7990257
17225.8957238
19525.428414
19519.3493194
19525.5511275
19527.780736
17421.1785814
17479.9240944
19527.8501687
19525.1110048
17481.7944739
19519.297979
19526.0670226
17384.5162201
17233.2531597
19518.2962689
17231.5011925
19526.442642
19560.7943871
19566.4337607
18465.2794562
18470.777362
19561.3771034
18430.2031852
19565.0733379
19555.8155858
19549.0612121
18362.0333935
18258.00465
19554.9611202
19549.8239769
18358.6508944
19558.9166578
19561.6903483
18401.3561375
18313.9544869
19558.382044
18380.0467879
19562.5750076
19554.5794007
19550.634591
18242.3051814
18251.8936586
19549.573133
19554.5947271
18335.9180244
19542.3390799
19544.6732909
18156.6412168
18190.1727666
19542.1320663
19545.3757894
18164.9713267
19540.2021227
19539.8189184
18163.2246767
18139.2837452
19540.7629346
19539.1142119
18142.8530609
19541.8815757
19546.8080962
18169.1195006
18126.166441
19545.1334766
19543.2240674
18141.7698893
19539.5756962
19539.0379153
18102.2862199
18081.5855602
19538.0729076
19540.1737763
18117.3661343
19539.2873213
19539.7835113
18244.0548905
18164.1462447
19540.0122609
19538.5133225
18202.2645003
19540.3296288
19542.5888668
18288.4581624
18300.9364973
19541.0894894
19541.7507124
18255.3574621
19538.549915
19538.8897537
18118.9059861
18122.8962318
19538.0194921
19539.2892103
18154.1398939
19539.8123219
19540.3897707
18243.5501649
18156.9321645
19541.08274
19539.7058401
18205.2004125
19545.5617003
19544.2994584
18366.6332226
18323.5775766
19546.3908501
19543.4995392
18354.5027703
19547.1359324
19549.2831608
18370.8767511
18390.450309
19548.1577537
19548.6112235
18371.8785897
19543.6204419
19541.3509984
18279.257118
18268.8243197
19541.9782337
19542.39972
18306.1758304
19545.5503349
19545.7822786
18358.0201303
18301.0887597
19546.9790267
19543.8849323
18332.6382551
19551.1053019
19550.206501
18383.6733932
18394.6088801
19551.2667519
19549.9453347
18397.5454319
19552.4909701
19554.0521413
18388.0901866
18408.0909411
19552.4173544
19554.1740323
18402.1981026
19550.2388896
19547.4402382
18369.4742595
18350.7519555
19548.3850546
19548.9273428
18382.1659002
19551.7434745
19553.204274
18403.3317874
18364.4875446
19553.8867482
19550.8140745
18395.6846504
19557.4415557
19555.8787846
18406.346793
18410.8883919
19557.5274878
19556.0467488
18404.0614303
19557.4841637
19555.8972411
18378.403692
18296.8426985
19557.6874457
19555.7541615
18367.850615
19557.5852773
19555.2139813
18404.5956621
18381.1097962
19556.0905834
19557.0227503
18398.1909983
19557.6638916
19555.4161866
18285.7574093
18346.1128473
19555.6236515
19557.2434229
18358.5516564
19544.2257352
19551.4525137
17987.729523
18158.3877406
19543.9662785
19551.1246898
17974.4243838
19535.4553514
19525.0124082
17760.2965349
17539.9612285
19534.7522937
19525.7549805
17751.1092134
19543.6443117
19551.2094259
18148.33608
17953.3198813
19550.8374534
19544.1923597
17966.7667212
19534.7274095
19525.9744095
17538.7088131
17736.8262481
19525.2023047
19535.3712962
17747.8122362
19512.4075832
19516.9240133
17236.1403496
17373.5455212
19511.113433
19517.6783271
17234.8944907
19510.5145621
19510.9165741
17180.6626299
17155.4178216
19509.4101917
19512.3520882
17173.7925773
19511.8830782
19517.9998842
17372.5647622
17236.5913097
19517.3157164
19512.2601432
17238.3013913
19509.9241877
19512.2022526
17163.2517122
17177.0094424
19511.591106
19510.4456848
17179.6375458
19518.2831723
19513.0377476
17238.9746112
17179.0264775
19517.0761849
19514.5684388
17237.8097804
19521.9065687
19524.807494
17300.6651429
17345.8046495
19521.3553256
19525.1745471
17296.2263619
19517.429497
19514.1445066
17185.7262329
17241.1808775
19513.6625128
19517.729547
17242.7146287
19521.1976081
19524.7780679
17350.4769471
17302.7420935
19524.4358138
19521.6822389
17302.0925553
19524.5761387
19527.3003039
17479.5089535
17420.8798863
19524.2545564
19527.5326353
17480.2972257
19516.8351958
19525.2244096
17244.7762959
17380.1206906
19516.8445636
17241.8550277
19525.305115
19523.3640457
19526.7376024
17422.360941
17479.1377724
19526.6066385
19523.4738849
17481.2360565
19515.4355229
19525.2864454
17378.4312389
17239.3550507
19515.791066
17244.2567748
19524.6522782
19557.0622827
19559.6168888
18281.0504091
18267.0028639
19557.4338906
18280.9067011
19558.9648074
19554.8650185
19550.3982782
18230.3360079
18221.0965631
19554.2387293
19551.5995885
18273.5468671
19557.3303913
19559.529077
18270.8928665
18318.5431839
19558.1073809
18289.9947782
19558.7401941
19555.3668212
19553.3806338
18248.3036741
18275.943024
19552.3189327
19555.8344576
18290.2335692
19544.6474953
19546.6187349
18123.2244703
18150.9072095
19543.4132604
19547.5044645
18128.8185438
19542.7555222
19539.5834763
18072.6523101
18107.8062085
19541.0098521
19541.5691608
18126.9977103
19546.8501698
19551.0929659
18187.5045671
18236.1988699
19549.1179255
19548.8647039
18166.5473453
19544.9297683
19546.3358085
18164.3960715
18204.2538943
19543.918895
19547.2534495
18171.3214963
19540.7265537
19539.2029326
18110.3992704
18111.0350159
19539.535603
19540.871358
18120.1808619
19541.0872703
19540.8449554
18136.8118639
18168.6615655
19540.235052
19541.4741665
18142.8952532
19543.4558413
19545.7751415
18158.9376885
18208.9125194
19543.5220791
19545.5224586
18159.8948407
19543.4378405
19545.3272124
18182.0213611
18214.804395
19543.5126749
19545.5038986
18168.865184
19542.2915818
19541.3708368
18231.9838665
18197.6573469
19542.1251711
19541.8475814
18215.4779561
19543.0818479
19544.5285505
18265.6046927
18252.418607
19543.1694051
19544.4013712
18232.4448159
19543.7087504
19544.9812645
18197.5974673
18213.3790099
19543.6809793
19544.8681299
18207.075736
19544.3388866
19545.6292386
18231.0587721
18216.3251146