/*--------------------------------*- C++ -*----------------------------------*\
| =========                 |                                                 |
| \\      /  F ield         | OpenFOAM: The Open Source CFD Toolbox           |
|  \\    /   O peration     | Version:  v1906                                 |
|   \\  /    A nd           | Web:      www.OpenFOAM.com                      |
|    \\/     M anipulation  |                                                 |
\*---------------------------------------------------------------------------*/
FoamFile
{
    version     2.0;
    format      ascii;
    class       surfaceScalarField;
    location    "4.6";
    object      phi;
}
// * * * * * * * * * * * * * * * * * * * * * * * * * * * * * * * * * * * * * //

dimensions      [0 3 -1 0 0 0 0];
oriented        oriented;


internalField   nonuniform List<scalar> 
92311
(
0.202056518469
-0.00011721661216
0.000181938684678
-0.201962018339
-0.000159222235807
-0.000170669818381
0.201985900545
0.000902821949826
-0.000661354508198
0.202023918244
-0.00020449077704
0.000179589591051
-0.201949987075
-0.000166048730742
-0.0003347350714
0.201959796235
0.000909822048965
-0.000681386704827
0.201861253207
-6.25945109452e-05
-6.1794952746e-05
0.000156091789007
-0.201909581562
-0.000170631046319
-1.05626136791e-05
-6.55755979037e-06
-0.000126605018981
-0.000173347601729
-0.00010385122252
0.201799864962
0.000933620339191
-0.00072680853461
-7.62710624467e-05
0.0505140177694
-1.15839898479e-05
-1.25640210745e-06
-1.19851006067e-05
-3.61893237617e-06
-2.57108120102e-05
-0.0505356815803
1.32148331226e-05
-0.0504704017503
0.0504116789618
-1.95910630327e-05
-1.9249303702e-05
-1.71580342707e-05
-2.44631301859e-05
0.000125189945022
-0.000112615120083
2.19859871399e-05
0.0294241272077
8.41175474187e-06
4.78534687287e-06
-4.58134020054e-06
-0.000412142276624
-0.0312593914544
0.000930840732323
0.00128572857094
0.0156699482582
0.00523405492158
0.0053075163551
-0.0219882408329
4.04320291518e-05
3.39698248699e-05
3.09854499529e-05
1.90683544212e-05
-0.00434763230835
-0.0138864940986
-0.00381788013505
-0.0050250369521
-0.00367896718516
0.000308229996879
0.015807385176
0.000449252201331
-0.00112985631412
-5.15461604565e-06
-4.79360658579e-06
-1.70700015542e-06
-6.15634176008e-06
4.51803709315e-05
-4.55773136142e-05
5.1925707884e-06
0.0124554123921
4.83026206256e-05
-3.53096629375e-05
-0.0124515490112
0.0124415001167
-6.44354528079e-06
-3.31848062602e-06
-0.0124487524376
1.9373240545e-05
-2.34093272856e-06
-0.000184659187159
-4.64969361629e-05
0.0504035614087
-5.17194162269e-05
-3.79754075512e-05
-4.23539766785e-05
0.000197976377218
-3.06827127728e-05
0.0503187105796
-2.54039910931e-05
-2.52718088177e-05
-1.86883096845e-05
-0.0503309566719
-0.000176215680848
-1.25718425105e-05
9.47133703306e-06
0.01242472654
1.25460253213e-05
7.28039139757e-06
-5.14029181405e-05
0.0125693850413
5.06201650169e-05
-4.58226770339e-05
-0.0125692731403
0.0125587395486
-4.33055733293e-05
-3.75865127979e-05
-0.0125599013975
-0.000108670279128
0.202491392491
-0.00070503451951
0.00055659523865
-0.202234283013
0.201930961819
-0.000229673468381
0.00129952683971
-0.00101445039088
-0.000220384677007
0.201852591811
0.00146376180788
-0.00116464425489
-0.000171742221238
0.202490758373
-0.000680868594899
0.000579788119735
-0.202326478141
0.201960725764
-0.000551785235342
0.00133023360012
-0.00100869393276
-0.000523173736826
0.201928286792
0.00152060747487
-0.00118509425579
-9.50234728929e-05
-6.58696537245e-05
-4.08921705825e-05
-0.00068021951738
0.202426870722
0.000615121834374
-0.202275213635
-5.64605161978e-05
-0.000245710769648
-0.000317976330188
-0.000193312459633
-0.000266961079698
0.201978566663
0.00141967043437
-0.00112616128692
0.0506695626334
-2.33230175923e-05
-3.50965285097e-05
-2.22459316487e-05
-2.95077320224e-05
-0.000267421569938
-0.0506176097913
0.000230613453992
0.0504347192168
-0.000262202271677
-6.20095871279e-05
-6.42387939555e-05
-7.79082088942e-05
-7.91681524638e-05
0.000268693145315
0.00773830475896
0.00480676017061
0.00935190334721
5.25773766171e-05
5.39433873556e-05
6.73285016522e-05
7.26447248078e-05
-0.00647340456603
-0.00266859434653
-0.00180995224313
-0.0021295974903
-0.00261187251981
-0.0054824893267
-0.0046437440012
0.00587690812927
-0.00113211545415
-0.00183547157429
-0.00156904438862
-0.00140717413567
-0.000592182680919
0.0120819901344
-0.00370466568967
0.0193987657358
0.000125374403148
-1.55743124461e-05
-1.52161867708e-05
-1.53167096888e-05
-1.50844549297e-05
0.0506783726381
-0.000138857775962
-1.19119365177e-05
-8.32572214447e-06
-9.08961827467e-06
-7.40800106315e-06
0.0505824668177
0.000101365830657
-0.0505626648994
-2.9330027838e-05
4.07567419919e-05
0.0124409535249
-2.65579604464e-06
-4.34705398662e-06
-0.0124453811684
-2.20137798193e-05
1.56073610313e-05
-0.0124562223133
-3.52622948924e-05
3.36792709273e-05
0.0124643151984
-1.81829630507e-05
0.0126472344333
-3.08847132163e-05
3.04535976258e-05
-0.0126405286614
-0.000337816659546
-8.898851678e-05
-0.000105788363963
-8.99963725005e-05
-0.000106806419988
0.0505170461457
0.00032907092468
0.0503570908302
-5.11023147465e-05
-7.06098329486e-05
-5.18932963886e-05
-6.92451415231e-05
-0.000251080811045
-8.80511618073e-05
-0.000113524035487
-8.39960810518e-05
-0.000108132495601
0.0504602139513
-0.000314237739131
-6.33789090074e-05
6.19654929637e-05
-5.91136931677e-05
0.0125679419267
-9.21975409526e-05
0.000109467180994
-0.0122957242881
1.54449750557e-06
0.0122742874922
2.66783387839e-06
-5.53292367529e-05
-5.68188717876e-05
0.012556306955
-0.0125558050995
-0.000111711599964
0.0125724606085
8.36776743659e-05
-7.66541756244e-05
0.0266249399437
3.88616727731e-06
-7.10258735614e-06
-1.05586658272e-05
-0.00103786405298
0.00190859255388
0.00193553032752
0.00372803958751
2.02514531504e-05
6.1042218491e-07
-1.92057402294e-05
5.07279325745e-06
0.0173735422919
0.00719380532784
-0.0230681302197
-0.00288320408212
0.00113527779389
-0.00317635282598
0.00482858897918
-0.00335976996716
0.000173826570774
0.000590458914874
0.00390030700567
2.5487667089e-05
-6.51761358694e-06
7.31907505652e-06
-0.00249206199887
0.00318927362949
0.00170475240706
-0.00678135329094
0.001934258477
1.83044665196e-05
0.0126373071343
-2.01241717342e-05
-0.0126418917043
-0.0126305701636
1.52464249488e-05
-8.54563606925e-06
0.0126206339264
1.97372069421e-06
3.91235258783e-05
-8.28966851085e-06
0.0124573003152
-2.42248424074e-05
8.45000612633e-07
0.0124421440542
-0.0124419015003
5.21082709867e-05
-0.01263392818
1.04382829976e-05
0.0124453591547
4.65944093823e-05
0.0126282713572
-1.1537788594e-05
0.0126092122411
1.27705644361e-05
-5.88982222948e-07
-6.02304667078e-06
-9.8270005937e-06
-0.0126191775592
0.0126110746848
9.80382995943e-06
2.80658866764e-05
-4.53010750866e-06
-1.11758190256e-05
-1.22208071072e-05
-0.0124378282115
0.0124329330325
2.9412228064e-05
0.0126006017009
-1.51853815997e-05
3.77035295833e-05
-2.2439059153e-06
-0.0125867459676
-9.61134909408e-06
2.76725668535e-05
0.0125801812739
-3.10813914983e-05
-1.71163551703e-05
0.0125989118586
1.95088766122e-05
5.51176707381e-06
2.26931103574e-05
0.012408700525
1.33765107633e-05
-1.82599707173e-06
0.0124164333674
2.44078089102e-05
-2.22505597804e-05
0.0124001693697
1.95881192004e-05
0.0125922990121
3.25477291009e-05
-5.35221716576e-05
-0.0125824541718
0.0125810233988
5.38872902082e-05
-1.61452492485e-06
-0.0123845115818
0.0123567245306
1.63629126129e-05
-0.0123795900368
1.33198476944e-05
0.0123527667744
-2.53559083892e-05
3.75606693485e-05
-3.92492076284e-05
6.96955185006e-07
3.83741207678e-05
1.60881284544e-05
1.49909363738e-05
4.34412355377e-05
-2.25799910903e-05
-0.0125478327203
0.0125445693384
-4.29375109714e-05
1.98956303105e-05
-0.0123736870749
0.0123496943567
-0.0123701553274
0.0123470266948
2.09811295751e-05
-3.08859543048e-05
-2.19705946583e-05
-0.012571622739
3.34247363891e-06
-1.76461023003e-05
-0.0123914885944
1.63283874504e-05
-0.0125614348402
-3.28479246111e-05
-0.0123933638116
0.00114293928738
-0.000565481939552
6.58035442159e-05
6.1953937494e-05
5.0737403855e-05
4.33653492135e-05
0.0312099808097
-0.0326185321541
0.000609343254662
-0.00309034257007
0.00824482666526
0.00146737339055
-0.00814189665262
0.0285186918709
0.000508299787728
2.13924244429e-05
4.93335708379e-05
3.73083031866e-05
5.08358384721e-06
0.000136521326454
-0.0293056022842
0.000249351874718
2.25941231476e-05
3.9684603252e-05
3.45856541933e-05
0.0282100438971
-0.000625221016986
0.0059856592189
-0.00446329885951
-0.00674703540832
0.0039289888513
-0.00333192778468
0.00434054680724
0.00525143901856
0.0105837693962
5.10807903423e-05
3.69393131873e-05
6.61259969114e-05
7.64381571316e-05
0.00904544028446
-0.00476975572399
0.00061810224186
0.00870542515704
-0.00151024680175
0.00015477169727
0.00449958513775
-0.00884807309009
0.000105899401018
0.000130456345579
0.000119992553537
0.000104088817625
0.00455964477458
0.00991010833495
-0.00514919287891
-0.000361555145653
0.00923159298249
0.00332937178543
8.9133011522e-05
0.000105754454889
9.5178872839e-05
0.00423829483328
-0.00744657262843
-0.00377551226483
-0.000155783587744
-4.65325198054e-05
-0.0126617335934
-2.20369022541e-05
0.0126635307861
4.3450903725e-05
0.0126772900761
6.04892646801e-05
-6.34886451254e-05
-0.0126686140826
2.06511857355e-05
-1.48756937902e-05
0.0124458299438
1.07171282086e-05
3.72257928172e-05
0.0124363208709
-0.0124306880902
3.77287120687e-06
0.0126786701287
-4.95211018863e-05
-0.0126520138696
5.85468111303e-05
0.0124404285742
-3.70872676718e-06
-3.23415501729e-05
0.0126636768516
-1.50077504376e-05
3.16488585822e-05
-0.0126787022876
1.89218494975e-05
-1.82449475026e-05
0.0126783888174
1.3543485068e-05
-2.32803335392e-05
2.18980258897e-05
1.59594826968e-05
-0.0124479171364
-2.21808965875e-05
0.0124585108663
-3.43224206073e-05
2.06189853189e-05
0.012662729826
-1.11924134045e-05
0.0124399298466
-1.00975287114e-05
4.18596211347e-05
-0.0124242082196
1.02972057342e-05
-5.7757971088e-06
0.0124568927976
4.06071790794e-05
-2.44073713746e-05
0.0126483631434
2.5481272493e-05
0.0126548890485
-1.12305843431e-05
-0.0126519563577
9.6999947306e-06
-0.0124438577815
0.0124569003201
0.0126534196396
-0.0124329747412
-6.27837811678e-05
0.0125801601912
6.13668080673e-05
-4.88758401013e-06
0.0123361765685
1.53059266042e-05
0.0123354500928
7.28022412627e-06
7.28720742112e-05
-8.80216822043e-05
0.0125817270619
-7.65724761987e-05
8.58037341024e-05
-1.27253025952e-06
0.0123071587583
1.17883402673e-05
0.0125917114261
6.79633181806e-05
0.0123083000851
1.05376843885e-05
8.42716585823e-05
0.0125947462675
-9.57450625348e-05
-9.05019870241e-05
-0.0126058700965
-9.21326793743e-05
0.0126229829724
7.86607792866e-05
9.40827099281e-05
-2.2296789873e-06
8.7044823789e-06
0.000119049042132
-0.0122991795956
1.17593501303e-05
0.0122756568707
7.41074423367e-05
-9.93870881355e-05
0.0126141096337
6.42725432199e-06
-0.0125407348842
-8.93397863467e-05
6.92057467459e-05
-6.5529843673e-05
-4.97095139099e-05
-5.37376452065e-05
1.80113312183e-05
0.012333069534
0.0123329887452
1.92134645061e-05
-2.31680958278e-05
0.012306541762
2.63163160667e-05
-8.96011130158e-05
0.0125693129366
0.0123072236499
0.0122960379003
-1.64639859732e-05
2.13292524342e-05
0.000148279566113
-2.00739951692e-05
0.0122708111646
2.77814810875e-05
9.27910557359e-05
0.0125973942738
-8.27874087445e-05
0.0125830538465
-0.000104612191244
0.00013567505411
-0.012296629704
0.0122726023051
0.012604108018
-0.000319975071544
-0.000267358377751
-0.000275837722321
0.00162116764216
0.202340956016
-0.000318668126858
-0.0013247825245
-0.000390198907599
-0.0001110220946
-9.91150129077e-05
-0.000106783753377
-0.000100483492827
0.000375219353094
0.0506294639554
0.000100203297283
0.00874590785212
0.00226675352597
0.000100070882225
0.000116159028501
0.000119352498371
-0.0073833441579
0.000173549335827
0.00489587903939
0.00326903458886
0.00474723980046
0.0271248858662
0.027594209716
0.00628870177306
0.0286048089777
-9.02798809913e-06
-7.34496109183e-06
-6.09637974942e-06
-6.04035780237e-06
5.32614631148e-05
-2.54617398419e-05
0.0505574442025
-4.58649323142e-05
5.47445790791e-06
-2.50528893742e-06
0.0124643981351
0.0505980882076
-0.000112895317997
-0.000107087575229
-0.000101410395188
-0.000120629105525
-0.000353563541684
0.0506680559925
-9.67094830468e-05
-9.64790137864e-05
-9.13859877037e-05
-0.000103952182736
0.000410831128917
-0.000368152693955
0.00010409137938
0.0122650092755
1.87148721878e-06
3.49254839457e-06
-0.000158859715761
0.000151868369444
-1.71204857388e-05
0.0122664530398
2.86551670185e-05
0.0122543705108
-0.0001364408503
0.000124094532146
-3.32375328963e-05
-0.012254467427
4.60588474766e-05
0.0506974817322
-3.96092680308e-05
-6.86115895412e-05
-6.4605503089e-05
-4.27236194376e-05
0.000143942160354
0.000406845280006
-0.000364724667346
-2.69406474306e-05
7.16349870957e-06
8.19338825136e-06
-2.76281589154e-05
4.24832282014e-05
0.00043137981313
0.0506441986505
-0.000381609495267
-9.02823096761e-05
9.17050689297e-05
-4.22147530759e-05
0.0122410204705
5.43356296002e-05
2.95882774567e-05
-6.5834238789e-06
-5.20739925239e-05
-0.0122034326184
0.0121719122035
6.0622696076e-05
5.30965966221e-05
3.28943437431e-05
4.8888910792e-05
-0.000810219719033
0.0298277534391
0.00159980254517
-0.000804244639314
0.00365202017954
0.000133031844197
0.000163325205594
0.000140950401366
0.00986211138351
0.00292676093736
-0.00565732422551
0.000123817659053
0.000155531428132
0.000137358328142
-0.00833138696419
0.00970608434468
0.00287966662172
0.00372379286554
-0.00321627401778
-0.000615858474557
0.0100767754689
-0.00177877366559
-5.27530818045e-05
0.00894308776106
-0.00828763036441
8.70042724683e-05
5.43093412609e-05
5.44195849047e-05
-0.00886598735079
0.000919560826749
0.0102917977816
-3.26086796278e-05
-9.25491413339e-06
-3.97179231881e-06
-0.00964402740278
-0.000432330554568
-0.00865514878005
0.0105191633183
-0.0126514414514
-1.32929143405e-05
9.28115090295e-06
-1.10372574011e-06
0.012647541282
-1.73486173877e-05
0.0126437424295
1.03795960329e-05
0.0124700382595
2.71337165295e-05
3.7165600613e-06
1.73531659575e-06
0.0124676343522
-1.09266161316e-05
3.32328492678e-05
0.0124761801588
0.0126373471736
0.000106939106907
-0.0126381476818
-0.000122423440018
-0.00011451747318
0.0126571110704
0.0126445882858
-0.000101375082648
8.46674544394e-05
0.000109432812742
3.72403469682e-06
-2.12207773541e-06
0.0122539219503
0.000116293967205
0.0122674764129
9.84507555587e-06
9.28210546439e-05
0.0126613313579
-0.000109603946542
1.01414957075e-05
0.0122580213027
-0.0126317371617
-0.000142484833942
-0.000106466819114
0.0126532896504
0.000103088795884
0.0126292399671
-9.00583713021e-05
0.000135375495012
0.0122629227699
-1.98311309826e-05
0.000159741998357
0.0122558295428
3.43266714291e-05
0.0122517091466
0.0126536752941
-9.15470767423e-05
0.0126770408071
-0.000129730141312
-0.000106356597864
0.000115710402157
0.0001050236109
-0.012680042026
0.012694154136
-9.12869347393e-05
0.000115369046249
-0.0122486859759
0.0122455834431
-2.16229222031e-05
-2.85391197145e-05
0.000145318343129
4.07236668488e-05
0.0126904941391
0.000115817274798
-1.76523441158e-05
-9.11281814937e-05
-0.0127015903794
-4.00966393048e-05
-9.95270308167e-05
0.0126910385526
0.000110564194416
9.99112637627e-05
0.0127051288596
-8.76569502013e-05
8.79557913025e-05
0.012234161379
-3.16807376897e-05
-4.77223275668e-05
4.19155362042e-05
0.0122419849795
5.90498460785e-05
0.000112328022075
0.0122373222233
-3.6601004383e-05
0.0126922175904
-8.74895697719e-05
0.0126738255625
-2.15096921081e-05
-9.86332553863e-05
0.000110478543593
9.97260315413e-05
-0.0126725989069
0.0126590722071
-8.58074665972e-05
-1.22948162566e-05
-0.0122011407719
-4.09060343853e-05
0.0121696951694
-4.95991075469e-05
1.95966663054e-05
5.90434853026e-05
0.000110638592875
0.0126586537375
-3.90306298951e-05
-8.73066179413e-05
-0.000478101102792
-0.0490316515057
0.0489833859831
0.000557464049653
-2.38552159719e-05
2.36573775622e-05
-8.60189924159e-06
1.23815326761e-06
-2.3497184025e-05
-0.000605692122327
0.04954755149
-9.39157042449e-05
-5.87897126687e-05
-8.82040190614e-05
-6.48813926299e-05
0.000177858935218
-0.0494207503806
0.000606952726343
-0.00099870702604
-0.0497385284824
0.0499964878324
0.000853866979165
-7.13625304116e-05
-7.67646209656e-05
-5.83017529982e-05
-8.8287074148e-05
0.00018159691944
-0.00076799411243
-6.32900008709e-05
-7.89753586794e-05
-6.66231057191e-05
-7.09528707172e-05
0.000204235064475
0.0500935192237
0.000690371878461
-0.049940286721
-2.6682278958e-06
-0.00823760744192
-0.039521760822
0.0341256974048
0.00962852535841
0.00389421833588
3.05329026675e-05
2.09231395047e-05
5.46031417551e-05
3.61163733467e-05
-0.028647159913
0.0263012078193
0.0057927213199
0.00155523708062
5.06261483871e-05
8.52652475365e-05
5.1236134626e-05
-0.00522878272534
9.07793649037e-05
-0.00805402511956
0.0281004395775
0.00897684485716
0.00012597957484
0.000107555878554
0.000148512715776
-0.0331207377129
0.00362503732628
5.90570732562e-05
-0.0050909061217
-0.0243441562417
0.0233295936475
0.00320443628405
0.00258256068336
4.94568488296e-05
0.000136298307033
7.36122097316e-05
8.69725942215e-05
9.60606885449e-05
7.54109399053e-05
8.54299149651e-05
7.235870108e-05
0.0250919705366
-0.00329944921038
0.00353666421672
-0.0257452183378
0.076493692531
-0.0214925545085
0.00859452059201
0.000827775697044
0.00394023201306
-0.000476212033289
0.00308035519245
-0.0318916447157
-0.0216831066985
-0.00891599500437
-0.00882914387843
-0.00955502885912
-0.00841325673305
0.00351388370292
-0.00239454687431
0.0700762469054
-0.00600699488818
0.00250215844617
0.000426304518744
-0.00102576003086
-0.000640989199072
-0.0219100697365
-0.00790389682899
-0.00666156246809
-0.00448107537155
-0.00738708812227
-0.00520058183392
0.0099400192632
0.0834481085704
-0.00473105569429
-0.00375515728153
-0.00424781441854
-0.0272691039798
0.0062847126389
-0.00538220358765
-0.00909507458696
-0.00620055309179
-0.00971453362327
-0.00732072778591
0.0338999446973
-0.000909862112932
0.000172366286873
7.25490357109e-05
6.90990495365e-05
6.90462053327e-05
6.67629577127e-05
0.0487423285047
-9.66337877411e-05
-6.70645056786e-05
-0.0490285337476
0.048796107607
0.000283624718672
7.45351944673e-05
6.68664152919e-05
7.24349600629e-05
7.00088004269e-05
-0.000115408980111
-0.0490758441501
5.99501354303e-05
-8.79069333202e-05
-0.0122583163936
8.08580848907e-06
0.0122534604563
2.47266774655e-05
0.0122610057207
9.19477538821e-05
6.49154697163e-05
-7.52698118009e-05
-7.20161952552e-05
-0.0122705165389
5.82287368427e-05
6.18144333799e-05
7.23917294793e-05
3.48016505335e-05
-0.000284564549483
0.0121867255294
0.0121501855599
0.0120646593982
0.0121333957283
-0.000159576800487
9.88352935008e-05
2.59968162648e-05
-5.3768607899e-05
-7.56959295398e-05
0.0122653689868
0.000354696912653
3.98459801083e-05
4.26472349235e-05
5.38820699265e-05
2.59655845993e-05
-8.06744449796e-05
-0.0491844472925
0.04922132767
1.65328282277e-05
-1.82344903571e-05
-5.06580791578e-06
4.78052957893e-06
-2.10096382484e-05
-0.0492925057259
0.000448832039414
0.0122709361913
3.76380249892e-05
-4.80470042304e-05
-0.0122731722041
0.000104553353011
0.0122817684981
-2.16972268717e-05
3.65389120077e-05
-0.000106062784036
-0.0122877910192
9.67293158714e-05
0.000845673441903
-2.34943095695e-05
-8.47811143861e-06
-1.14426199994e-05
-1.51904143518e-05
0.0490242849247
-0.000188721420144
-0.000152375244736
-0.000192472926608
-0.000158483068782
-4.45871778964e-05
-3.06720686237e-05
-3.54236103964e-05
-2.51508377249e-05
0.0492623652159
-4.73750952192e-05
-3.42478963944e-05
-2.18131476265e-05
-5.9189358567e-05
7.35047538401e-05
0.0495012134882
0.000780418374852
-4.89436574098e-05
-5.76329758619e-05
-4.50142706604e-05
-6.25372148924e-05
4.06837436381e-05
-2.27074468403e-05
0.0122811710228
0.000108659513846
0.0123040211098
-5.87806992168e-05
4.21862770258e-05
-0.0122921978517
0.000142553702668
-0.000137630807647
9.71977627683e-05
-6.43992316241e-05
6.26122964365e-05
-0.000109756383181
0.0122962817663
0.0123455644573
0.000116293145392
-9.61843503614e-05
8.90770066871e-05
-0.000128442939162
-0.0123260444932
0.0497729744449
-2.15371227743e-05
-5.14051434565e-05
-4.60622418464e-05
-3.40164153352e-05
-0.00109960655461
-1.76079526711e-05
0.00119044185272
3.30082988817e-07
-4.79433679719e-06
-2.29177043855e-05
6.76095356385e-06
0.0503309519455
-0.000178624201433
-0.00154900372752
3.11937165731e-05
0.0123111865754
0.000146169509277
-0.000148100468814
-2.99260906312e-05
-2.81126220351e-06
-0.0123673947395
0.000190020687064
0.0124064188594
-0.000196032690563
0.000129276372722
-4.12994556913e-05
6.14129223086e-05
-0.000151112309168
0.0123475927282
0.000162623132027
-3.27389792455e-05
2.18294688886e-05
-0.00017346155578
-0.0123923313923
0.012414278864
0.000737449261095
-9.42928436712e-05
-8.7484639489e-05
-8.79702597644e-05
-9.49207826746e-05
0.000216758292014
0.0498788904398
-0.000100186348703
-0.000101689768921
-0.000101380079344
-0.000100584645166
0.000251356399589
-0.0496947149324
0.000705871195742
8.24881504457e-05
0.0123012021293
9.03181962458e-05
-0.0122866863869
0.0123581634923
-0.000124181066015
0.000114901447309
-0.0123392951818
0.000106818079965
0.0123801002186
-0.000149580338863
0.000135117293677
-0.000114721215874
-0.0123629044639
0.000111909244297
0.000956598827949
-5.19350977501e-05
-2.85304823554e-05
-4.79380331596e-05
-3.15166193302e-05
0.0502868589562
0.000103458431503
0.0500762999736
-7.46938415517e-05
-8.65482892652e-05
-9.13676612999e-05
-6.66616047797e-05
0.00020806556629
-5.7276397928e-05
-4.39875878191e-05
-5.91181090328e-05
-3.72347597539e-05
0.050265128648
0.000796778370511
0.000168691864167
7.6185972992e-05
0.0123596431909
0.00011136006415
-2.26835410982e-05
1.89610362877e-05
-0.0123985956785
0.000148548583608
0.0124166887255
0.000115708952836
-9.46650315817e-05
0.000104468491339
-0.000125416859151
0.0123803378987
0.000122666153227
-5.67755329813e-05
4.58776175208e-05
-0.000125269459081
-0.0124083902857
0.0124218991272
9.57489780218e-05
0.0123872209309
0.000107276311362
-0.0123873858183
5.8709901413e-05
-0.0124139687622
0.0124270943947
-6.33929061868e-05
0.000114271424332
0.00156728679089
-6.32044829936e-05
-6.69906842244e-05
-7.12025149053e-05
0.0411211778769
0.00395485387787
-0.0395258113539
-0.00685582015259
0.0419730697422
0.00744424594761
-6.72180292784e-05
-6.88806571409e-05
-7.05695635968e-05
-0.0406065226261
-0.00697235061508
-0.000337082372859
-4.97108150981e-05
7.52352419514e-06
-1.26281421391e-05
-0.00380138568828
0.0379538031425
0.0179679163099
0.000972128060733
0.00471851309211
-0.00229922049764
-0.0127609501825
-9.95289183206e-05
0.0222190264621
-0.00155315163431
-0.00177355246318
0.0206033764493
-0.000363090964872
-0.01568446137
0.0234872031926
-0.000565767245366
-0.00288369964805
0.0146804726549
-0.000264462914209
-0.000593492148746
-0.000519094930225
-0.000140111409724
0.00734488553664
-0.000800617849768
-0.000554214515718
0.0152215364912
-0.000501520387141
-0.00105858929762
-0.000190305056148
0.00767681102295
-0.000824478136734
0.0106339876239
-6.36186666966e-05
-1.9317842829e-05
-4.59784392852e-05
-0.00262706422743
-0.0399189781439
0.0355821129106
3.70022528862e-06
-1.31910318846e-05
-2.59655648381e-05
-0.0374692795298
0.00317575081897
0.00935804642062
0.00772711871812
0.00470930469808
7.29070110202e-05
6.01793839509e-05
5.40661560948e-05
-0.00720206375134
0.0303748203422
0.00649459304171
5.75200434541e-05
9.44218576442e-05
7.09484965813e-05
0.00557913804039
0.0257409274639
0.00642343170348
6.75527209947e-05
0.000126898007047
6.58525023211e-05
0.0210888718754
0.000741126941354
-0.0158088738873
0.00176768685626
0.0238670530124
0.0200585611407
0.00158063123323
-0.0154274806681
0.0237118362389
0.00304992307559
0.00354408231439
0.00069182750087
4.35252025535e-05
2.44762509552e-05
7.67673963425e-06
0.025607268945
-0.00365066639279
0.024060300023
0.00216312716875
8.45321377078e-05
5.19962510782e-05
4.15578775213e-05
0.00048385731368
0.00269484030641
2.55452993367e-05
5.48185074498e-05
4.16886425958e-06
0.0243083202663
0.0162863188843
0.00196987528257
0.00275836543382
0.00954434913265
0.0174321280639
0.00302518584858
0.00393101434489
0.0115404990701
0.00288511243203
0.00669913327548
0.000161374989988
0.000151024695781
0.000160272230769
0.00693112476791
0.024354023281
0.000163699309688
0.000180686876627
0.000171967888834
-0.0274148052043
-0.00164761866541
0.0190280769062
-0.0138241813939
0.000632635006433
0.00147670151208
0.0235584626318
0.0256630767721
-0.0197684530726
-0.00171894433427
0.00113254708234
0.000996283524004
4.87637944944e-05
1.91935570858e-05
1.17414641621e-05
0.0237930650171
0.0239709496322
0.00328127269772
0.000147077571032
7.56819485672e-05
8.84676837164e-05
0.0022073138961
2.72989155513e-05
7.40962325488e-05
2.79270441673e-05
0.0238871831917
-0.00117532040251
0.0185028334477
0.00157021538841
0.00252921004754
0.0146988635339
0.0223564571692
-0.00154771629422
0.0212065750209
-0.00143866755118
0.0122360900491
9.97623137235e-05
-3.34691530971e-05
3.85671073948e-05
-0.0122684081374
3.44154792871e-05
-0.0122353609823
0.0122014517182
-1.93648182175e-05
5.28655767785e-06
-9.10906599773e-05
2.55822278533e-05
-0.0122612796902
-9.02309842219e-05
-0.0122626632304
3.95339269032e-05
0.0122543312983
4.56676919448e-05
0.0122035366708
3.49180416435e-05
-0.0122637676668
-2.40175830493e-05
-0.012269169265
0.0122392577214
4.41017589798e-05
0.000101065771026
-0.0122713446005
-5.62163369956e-05
-0.0122474152326
0.0122278175375
6.73736715606e-05
-8.89513025788e-05
-0.0122652290144
0.0122544198435
-9.36084348545e-05
-6.46260012221e-05
8.73712648121e-05
-0.012268577398
0.0122121083699
5.13627153701e-05
-0.0122782960854
-0.0122645260458
-0.0121954906759
8.91719441355e-05
4.32897489268e-05
-6.61885853428e-05
0.0121874435473
-6.57741184161e-05
0.0122179384173
8.36437305418e-05
-7.41493626157e-05
0.0122491957555
-4.62043172355e-05
-1.6337284365e-05
-8.37761875581e-05
0.000108699314799
0.0122642379231
-5.09197556103e-05
0.000110096520962
0.0122154798139
-5.07608678853e-05
0.0122468298684
-5.40878639833e-05
0.012278646477
4.93440851968e-05
6.40542688746e-05
-0.0122981137601
-0.0122616590661
7.16939509486e-05
0.0122519091255
-7.65333319438e-05
0.000100314104022
-0.0122732169044
-2.26099770679e-05
-0.0122766270002
0.000107933384849
0.0122765262831
-0.0122870705602
7.89857157414e-05
0.0122746290907
0.000103994564663
-0.0122769758074
0.0122972261488
7.34852993329e-05
2.23524814928e-05
-0.012312491272
-8.57960956951e-05
-0.0123111733401
0.0123133947644
0.000101696354788
8.60944815508e-06
-0.0122846136645
0.0122816924851
-5.09147672494e-06
-9.98956446033e-05
-0.0122865760365
9.0539377425e-05
0.0122938760847
-0.0123272988497
8.92526372791e-05
-0.012284203208
-0.000118931253387
-0.012273008695
-5.13941847494e-05
0.012292450895
0.000126800549434
0.0122465286643
8.99512963306e-05
2.40582389074e-05
0.000118910068674
0.0122778547899
3.4484158584e-06
0.0122910320837
0.00011174432176
0.0122530609322
9.60791620808e-05
0.0122926648171
0.000119258612079
-0.000154039362456
0.0123179111817
-5.69576495688e-05
0.000161816451793
-0.0122749921776
0.000191473232379
0.0122990992171
-0.000181891354328
4.71392330005e-05
0.000136124208716
-0.000124894278299
5.00630500537e-05
-0.0122967555173
0.00014041838804
0.0123099971572
-0.000140347053726
0.000200760827045
0.0123436964146
0.000127878059166
-0.0123034958911
0.000128957534234
-7.81380837162e-05
0.0123320142371
-0.000105498150944
0.0123280251455
0.000119369444189
4.10018539186e-05
0.0122997136911
0.000101349046954
-0.00011012231285
0.0123000036404
9.93248491721e-05
0.0123602045272
0.000138828134442
0.0123012151039
0.0123607226949
0.000156588873423
-7.25759920749e-05
-0.000192731920498
-0.0123979793197
0.0124313756387
0.000190772111296
6.5846970247e-05
-0.0123103244023
0.0123246686806
0.000107582576087
-0.000112008038921
0.000105160173409
0.0123896632985
0.000163759469305
-0.00027694071641
-0.0123733923689
-2.3131383742e-05
0.012399944967
0.000283713390061
-1.05677460647e-05
0.0123229401389
0.000233707691366
1.22428158288e-06
-0.000227350223094
1.12155412637e-05
0.000169351128872
0.0123440262365
-0.000163053341341
5.63736542225e-05
0.0123338076548
0.000151767370088
0.0123552360164
-2.34653615845e-05
-0.000274604888111
0.000243972595715
1.64274951984e-05
0.0123626175113
0.00016730266296
-0.000318005139099
-7.97039537776e-06
0.0124557487069
0.000321099098849
-5.11911281429e-05
-0.0124252633238
0.000348400740531
0.0125092718089
-0.000352598313776
-8.26488355861e-05
1.21928351756e-05
0.000185442502033
-0.000177691822256
-0.0123708466987
-3.90686883296e-06
0.000185160931731
0.0124045877816
-0.000315062272419
-6.10405190153e-05
0.000176143766203
0.000351264759873
0.0125205067787
-7.1676430172e-05
-0.0124164478557
0.000266774354683
-3.17507778931e-05
0.0124434993609
-0.000234686621069
0.0124529072855
0.000223251410364
6.36899410425e-05
0.0123476006371
3.84416407169e-05
-0.000153690497188
0.0123708104584
0.000143627622409
0.01247155118
0.000252213669449
0.0123708665553
0.000294905836514
-1.23762842819e-05
0.0124818851354
-0.0125013159236
-0.000316086393583
0.000294904868682
0.0125395423805
-0.0123796354281
9.02639005966e-06
0.0124084078915
3.60200013773e-05
-0.000158167489207
0.000155123451767
0.000277981967668
0.0125327163153
-0.000142831379975
-0.0123697189234
-0.000143226518633
0.0124078845061
0.000153987831148
0.0123505866891
0.000125540798864
-0.0123329679477
0.000127755413807
9.30130679112e-05
0.0123056429279
9.83184179304e-05
0.0123043466464
-0.0122896222496
8.46672351959e-05
0.0123864325766
-0.0123483142846
0.000138047929091
0.0123126646781
9.01918652864e-05
-0.000163807773055
0.0124462340991
-0.000139634715693
0.000170986293534
-0.0124277277574
0.000182880283061
0.0124632060578
0.000129056205741
0.000103719386281
0.000129202150817
-0.0123395692218
0.0001075557502
0.0123603662113
0.000184218671801
0.0124795504821
9.82055204804e-05
0.0124611433144
0.000181896524678
-0.000147058641697
-0.0124249444657
-0.00018912248217
-0.0124702959101
0.012498052639
0.000195038099211
0.000136137223766
-0.012348569479
0.0123690360401
0.000141667717702
-9.76829384984e-05