/*--------------------------------*- C++ -*----------------------------------*\
| =========                 |                                                 |
| \\      /  F ield         | OpenFOAM: The Open Source CFD Toolbox           |
|  \\    /   O peration     | Version:  v1906                                 |
|   \\  /    A nd           | Web:      www.OpenFOAM.com                      |
|    \\/     M anipulation  |                                                 |
\*---------------------------------------------------------------------------*/
FoamFile
{
    version     2.0;
    format      ascii;
    class       volVectorField;
    location    "4.6";
    object      U;
}
// * * * * * * * * * * * * * * * * * * * * * * * * * * * * * * * * * * * * * //

dimensions      [0 1 -1 0 0 0 0];


internalField   nonuniform List<vector> 
28582
(
(0.808696122373 -0.000645671697688 -0.000258957129901)
(0.80883730844 -0.00289008060455 -0.000400876053297)
(0.808594596805 -0.000744001417577 -0.000718559036031)
(0.808722045295 -0.00293445826179 -0.00103711735614)
(0.80810021297 -0.000622512885116 -0.000846739204966)
(0.808334670566 -0.00315179458845 -0.00186114943971)
(0.80840723687 0.000157496110848 -0.000769206202966)
(0.807467836612 -0.00191161465872 -0.00196847638016)
(0.491344110267 0.0104929624401 -0.00217400050702)
(0.298000741862 0.0763581815813 -0.00182998280481)
(-0.0836424354193 -0.0207720162764 0.042731254276)
(0.8078147097 -0.00077779659931 -0.00083218279227)
(0.797046229603 0.00290130755709 -7.25895316445e-05)
(0.796513614925 0.000659721372208 0.000466976543198)
(0.806864635866 -0.00300734008555 -0.00326126803013)
(0.805571573501 -0.00301273117943 -0.00180333621747)
(0.795889600885 8.41812375712e-05 6.72567319523e-05)
(0.804493339854 -0.00354732234191 -0.00320486617137)
(0.803848213036 -0.0030736692215 -0.00220762429992)
(0.809575935926 0.00264633524595 -0.000284863056097)
(0.808054694698 -0.00439373376626 -0.000438011144307)
(0.807395601519 -0.00501023966473 -0.000398570521138)
(0.810171695033 0.00282746209792 -0.000676046814391)
(0.808052267543 -0.00424413465505 -0.00141599904434)
(0.807618714933 -0.00496224092184 -0.00124082025611)
(0.810068339455 0.00283607013088 -0.000804577134565)
(0.80772352237 -0.00474483196347 -0.00349676530206)
(0.810522385832 0.00422169491535 -0.00173237034039)
(0.806987611163 -0.00403858548863 -0.00445274893054)
(0.199442416516 0.116852359299 -0.00474485073877)
(-0.0137018452163 0.0187434590083 0.0608184284193)
(-0.0111254214332 0.0506653776838 -0.145014119819)
(0.810828400961 0.00238358655893 -0.00107067797144)
(0.809017258143 0.00186406251082 -0.000380666680639)
(0.79607660071 -7.29235272311e-06 -0.00177743718062)
(0.797633842599 -0.00215296837446 -0.000277787624036)
(0.809256932631 0.0018989188369 -0.00138545970071)
(0.807963634443 -0.00505336356723 -0.0061991919169)
(0.805652043953 -0.00419931146795 -0.00339697194697)
(0.806895487547 -0.00533408869347 -0.00523077026223)
(0.804679687679 -0.00427673112658 -0.00402282596276)
(0.78621714391 0.000303011501858 -0.00470028698623)
(0.80394082265 -0.00377864166522 -0.00342615583333)
(0.804247970122 -0.00506310638561 -0.00656077992995)
(0.447135852171 0.0217088166356 -0.00110074531892)
(0.324865946016 0.0974012310736 0.00118263082574)
(0.0319985223155 0.0747533766778 0.0920475162426)
(0.0232521008864 0.00983800338441 0.132541007952)
(0.387942473503 0.042943358657 -0.0010893833244)
(0.0766787921649 0.00386640177738 0.0942229996754)
(0.808903085568 0.00136562537754 -0.000875876354108)
(0.807971890125 0.000151188423625 0.00031634329891)
(0.797268746006 0.0021540502459 0.000700394332383)
(0.796262802188 0.00330539938618 0.000390336825439)
(0.808433668435 0.000796744327912 -0.000665021689307)
(0.796447378251 0.00292874921919 0.00122085758241)
(0.808481480529 0.000822611336573 2.82629788372e-05)
(0.807555517319 -0.000342214203022 1.22034658756e-05)
(0.807269913319 -0.000387371284287 -8.76222783463e-05)
(0.797080620822 0.00128438027178 0.000543482577386)
(0.796009785002 0.00190748600679 0.00124941439745)
(0.806675468653 -0.000971530335686 0.000248484705059)
(0.796331898332 0.0023859101255 0.00134219188643)
(0.808087558669 0.000356217680436 -0.00015250189383)
(0.805267591722 -0.00211373901911 -0.00100751276632)
(0.806967658829 -0.000845115653749 -0.00102643092542)
(0.794655796064 -0.000372129491026 -0.000722127837818)
(0.795172611455 0.00142155419312 0.000979252493623)
(0.806183105669 -0.00149906945718 -0.000576126488663)
(0.794274542379 0.000992501440354 0.000198281997028)
(0.805972649768 -0.00161172548597 -0.00160914375507)
(0.805296606458 -0.00297999048806 -0.00366326222511)
(0.791849616208 -0.000473592173588 -0.00202273669441)
(0.791666009287 0.000288960673959 -0.00137703683458)
(0.805043147984 -0.00276648348478 -0.00219006223401)
(0.793411146744 -0.000367906842498 -0.00123547940546)
(0.792894657153 0.00041726456271 -0.000246903427457)
(0.805945788483 -0.00217426677622 -0.0027543373089)
(0.80295059407 -0.00266102531589 -0.00147255899251)
(0.791308060509 0.00135541671144 -0.00146868224475)
(0.791065800157 0.00108796174939 -0.000584884253254)
(0.80441583488 -0.00225018755839 -0.00145643954939)
(0.792409927876 0.000867148621769 0.00045488656587)
(0.803711582135 -0.00196352185865 -0.000688779633405)
(0.792620089317 0.00136799975513 -0.000723208534892)
(0.513185186501 0.00967932837884 -0.00976905252272)
(0.138589056674 0.0533462835607 0.0364982093674)
(0.46051581202 -0.0034744052886 -0.0044643446574)
(0.453200543433 0.0048742667265 -0.00514968539114)
(0.108337148253 0.0779623167805 0.0158997675946)
(0.087243592695 0.0500769592652 0.0126822548139)
(0.225219635178 0.128013314234 -0.00343548830337)
(0.0141482440268 0.128316563768 0.134172709018)
(-0.0126592246909 0.0106865040514 0.125210017558)
(0.130736110214 0.142306265037 -0.00931707382511)
(-0.00238509296618 0.141288857951 0.122305487907)
(0.114423176544 0.131394689982 -0.0101366075358)
(-0.0457729039585 0.0114523183471 0.095710159209)
(0.810470145139 0.002951113521 -0.00185895321196)
(0.810986298747 0.00426267085538 -0.00284868026066)
(0.796260542532 -0.000902279808093 -0.000746474249906)
(0.795523384413 -0.000183578310554 -0.00109175742442)
(0.811509999117 0.00336193333266 -0.00152165120662)
(0.810004265 0.00384526560569 -0.00257408192397)
(0.79575614891 -0.000712677220402 -0.00021975794243)
(0.810623060264 0.00208282470249 -0.00136705847462)
(0.811514782241 0.001396852056 -0.00124280660843)
(0.796905443024 -0.00149002413008 -0.000239905063837)
(0.797133051785 -0.00208074690165 -0.000137463319646)
(0.811716009365 0.00234242319784 -0.00114607279325)
(0.810511766265 0.00118944589189 -0.00130160702444)
(0.796386492985 -0.00124315277446 5.46383211609e-05)
(0.795448942376 0.00163787226791 -0.00017709420278)
(0.796573249577 0.00147081786454 -1.46054690614e-05)
(0.809450691461 0.00156920659914 -0.000894751449021)
(0.809914041466 0.00205057818659 -0.00102953330187)
(0.796853356164 -0.000718805715041 4.1101826873e-05)
(0.809884260349 0.00148047195492 -0.000806826763615)
(0.795899094001 -0.000124174426079 0.0001767029818)
(0.805430695108 -0.00358088524018 -0.00425963536139)
(0.790151920031 -0.000215045841207 -0.00243272397489)
(0.789943249713 -0.00031541676392 -0.00192472402776)
(0.804767934483 -0.00501029505725 -0.00587491972361)
(0.788954202372 -6.16626115802e-05 -0.00348652526)
(0.805505277546 -0.00410360273905 -0.00582306933819)
(0.788934651035 -5.60532141481e-05 -0.00337289183941)
(0.805748966056 -0.00584836518565 -0.00622122567933)
(0.807469480518 -0.00505182326184 -0.00766734994397)
(0.787325067828 5.78128171797e-05 -0.00403277447908)
(0.786372577267 2.6397792335e-05 -0.00509758151205)
(0.806405783098 -0.00463060599472 -0.00620113747127)
(0.806772315197 -0.0063823681474 -0.00801980668164)
(0.787467136018 -0.000310269480384 -0.00395265752592)
(0.803039268449 -0.00428179451325 -0.0055336962364)
(0.802944789782 -0.00347229678769 -0.00312827442449)
(0.789833841456 0.00129299295563 -0.00219818688387)
(0.789705182308 0.000824751117599 -0.00179104871872)
(0.788845869372 0.00125843610486 -0.0036810845157)
(0.803998303162 -0.00468546213088 -0.00545431864359)
(0.788759950819 0.00151849611022 -0.00388901657524)
(0.787216439293 0.000969753488454 -0.00508286762635)
(0.786314161158 0.0012823743806 -0.00667001363542)
(0.805519883771 -0.0055174362399 -0.0093717392823)
(0.804967295908 -0.00557995886976 -0.00617510112312)
(0.786281835382 0.00145076851603 -0.00626153067637)
(0.806068393921 -0.00612558321345 -0.00862690035245)
(0.787333887047 0.00115385956416 -0.0048572745319)
(0.808521114913 -0.00564206391301 -0.00323496015328)
(0.808889913496 -0.00583359448229 -0.00614322800232)
(0.0343179217706 0.127942066009 -0.0106201016811)
(0.0863688572718 -0.00392121046633 -0.359859716429)
(0.80922544985 0.000565836961136 -0.000444819750916)
(0.797561052191 0.00124747946815 0.000212051452714)
(0.808040094887 -0.00613735206126 -0.00507342767975)
(0.8100849928 -0.00646627448214 -0.00414585337428)
(0.785476049903 0.000151309443503 -0.00474575371673)
(0.785394085411 0.00127718079649 -0.0074547408096)
(0.784331230597 0.00249490640047 -0.00718809109794)
(0.810434098214 -0.00651054359378 -0.00167174244222)
(0.810635141507 -0.00675151070446 0.00019950139882)
(0.783768779044 0.00302814220712 -0.00630832265075)
(0.78007025887 0.00356866316544 -0.000779077220181)
(0.490534255255 0.00323147323702 -0.00846319172722)
(0.0297308270756 0.142140033346 -0.01309652051)
(-0.0534339874329 0.141622415369 -0.0102346301199)
(-0.0644695975042 -0.0507577399378 0.0700224198767)
(-0.00621829732853 0.14204183344 0.109971337745)
(-0.0188074440332 0.11608451002 0.0840875447053)
(-0.130881184308 0.154788212633 -0.00201429167078)
(-0.145148206036 0.165579560096 0.00753308291634)
(0.809533897586 0.000343596647519 -0.000931002009548)
(0.809406313065 0.00119419588385 -0.000721790841525)
(0.79773728054 -0.00097863090298 -0.000224955672999)
(0.797944341214 0.000857163091318 0.000127943157114)
(0.809923915841 0.000863384005242 -0.000642142352671)
(0.798420472984 -0.00149997622882 -0.000449655671399)
(0.808962102745 0.00070833926806 -0.000517214265366)
(0.809624140081 -0.00737309677963 -0.00845729520311)
(0.808447243331 -0.00558130495269 -0.00716702791248)
(0.784535453476 0.000320461369707 -0.00523877219119)
(0.785603670923 0.000195663091978 -0.00541329353156)
(0.809985688954 -0.00606456024775 -0.00784377271862)
(0.808015703773 -0.00702131338661 -0.00755430421508)
(0.784809302565 0.00024382358178 -0.00581067696513)
(0.809362645297 -0.00709504205148 -0.00928683338034)
(0.807052733702 -0.00611603579479 -0.00908679032143)
(0.785396542107 0.00112962910167 -0.00667494726572)
(0.784766190308 0.00157260538854 -0.00796925637408)
(0.807456239717 -0.00676714734134 -0.00828234543154)
(0.784461148803 0.00112721763787 -0.00718672962304)
(0.809371705752 -0.00627273624045 -0.0102261442221)
(0.810028578998 -0.00713421124936 -0.00830506910011)
(0.811902316145 -0.00620345823305 -0.00833512170654)
(0.783826105786 0.0017574720098 -0.00672130331734)
(0.78451241579 0.00213071883606 -0.00784177901031)
(0.811733231782 -0.00712297142777 -0.0077998867581)
(0.784149198275 0.00157394611583 -0.00713006822432)
(0.810080189357 -0.00624299396325 -0.00918264981924)
(0.812325059818 -0.00675471207265 -0.00314683828491)
(0.812390577256 -0.0059028311082 -0.00667526352077)
(0.783349638078 0.00234679029089 -0.00604595773389)
(0.783396631963 0.00337772787387 -0.00418825418498)
(0.812164227058 -0.00682446886471 -0.00628671016765)
(0.78297560009 0.00267753296444 -0.00407443829056)
(0.812501653872 -0.00591310136727 -0.0033852696493)
(0.811510352392 -0.00673789535242 -0.0018179719001)
(0.810650115215 -0.00586629636652 0.000891896241772)
(0.779804261556 0.00297795655923 -0.000304276934686)
(0.781927912249 0.00340988930655 -0.00248807847714)
(0.810638416372 -0.00680060384664 0.00102607725281)
(0.781805421525 0.00286417890591 -0.00265114184545)
(0.811515194382 -0.00588499258834 -0.00176484591571)
(0.786393495385 0.0081056809402 0.000179764471808)
(0.792600047741 0.00997409611367 -0.00351510066442)
(0.797318159417 0.015243603167 -0.00277435766831)
(0.79953294067 0.0117191652721 -0.00326331307692)
(0.608806672302 0.159831800482 -0.00357844588327)
(0.427444282827 0.0951878771531 -0.00537844821381)
(0.508155739104 0.0976189306391 -0.009832741207)
(0.377857176818 0.0758233442685 -0.00778330458187)
(0.404135024646 -0.0333828394879 -0.00685446588758)
(0.298866364638 -0.0781704565201 -0.153486879254)
(0.212583124093 -0.0712138642264 0.505478598092)
(0.246006693897 -0.0774741017764 -0.263358488004)
(0.21695355832 -0.0912569321229 0.262777428621)
(0.261006939726 0.0251586553759 -0.20421644671)
(0.315700709878 0.0189175608741 0.280537320242)
(0.783707666409 0.00197791207713 0.00224141174468)
(0.784991411128 0.00332374353031 0.0026169683649)
(0.78439800483 -0.000798631619962 0.00526258304352)
(0.785428065458 0.00551327577217 0.00496871578254)
(0.78194304022 0.00618791402448 0.00247880257613)
(0.785188706889 0.00568664390393 0.00393646848569)
(0.786415077797 0.00506010465918 0.00151694525739)
(0.789409755767 0.0063969773513 0.000258013483366)
(0.785719720541 0.00627680041947 0.00384961095037)
(0.786667065449 0.00651152780906 -0.00105017651417)
(0.785130937499 0.0129051650218 0.0020852073001)
(0.789457103007 0.0093641279652 -0.00111084848766)
(0.791327657897 0.0130460686604 -0.000934429159557)
(0.785764919959 0.00657950519548 0.00212179416363)
(0.787294302215 0.00903336325172 -0.00278450305806)
(0.786809183763 0.00662390978629 -0.00262093260539)
(0.78924019428 0.00793126548205 -0.00526791185604)
(0.794286994849 0.0178723085414 0.000515378724992)
(0.798638210046 0.0222097431759 0.00220890947478)
(0.787777842053 0.00940831108683 -0.00205640351019)
(0.792753309902 0.0125290230786 -0.00129242986724)
(0.790094867632 0.00920303165617 -0.0041210768436)
(0.793953011452 0.0108542523496 -0.00205432397266)
(0.794642492349 0.0126593803165 -0.003587668192)
(0.796701080931 0.0117848321263 -0.00435990865127)
(0.787021729243 0.00604118432305 -0.00326822118471)
(0.789945243496 0.00714410481336 -0.00623271190448)
(0.791307849659 0.00721512616511 -0.00707308631516)
(0.800635577639 0.0172150444175 -0.00132609708248)
(0.798772525281 0.0130738092543 -0.00306931940113)
(0.801546929077 0.0140273141317 -0.00208593169467)
(0.79081675843 0.00747130232005 -0.00469801613844)
(0.794312950782 0.00994997524607 -0.0016237888261)
(0.792079813463 0.00779885724927 -0.00588098240148)
(0.794734351914 0.00798313840057 -0.00325503188822)
(0.792716315567 0.00709390297147 -0.00509501984368)
(0.79504084935 0.00767668880877 -0.00378043116572)
(0.642198487604 -0.0232898856722 0.000814630232068)
(0.663370181718 0.072529954288 0.00057936258452)
(0.650337687258 0.102213606494 -0.00323341312185)
(0.241455779313 0.0193792382487 -0.150436670647)
(0.350982900775 0.00776892832514 0.0519247218939)
(0.320973910828 0.00379259789186 -0.00966032338537)
(0.368330161906 -0.0130761459624 0.090499893687)
(0.330014786962 0.0052145103953 0.0196882341722)
(0.171481428062 0.00719379753779 0.0204986871429)
(0.34494130633 -0.014507133546 0.034384924102)
(0.174207527631 -0.0112760946798 0.0135775918597)
(0.635866655563 0.156595661887 2.46323455477e-05)
(0.584765995618 0.174921683058 -0.000704024290986)
(0.529464363479 0.129860265531 -0.00528118937355)
(0.551794184026 0.155840597965 -0.00565405399172)
(0.466523753047 0.122613124725 -0.00764232306795)
(0.320717691308 -0.0107271467336 0.093738885428)
(0.369772751265 -0.000183248583005 0.12726133429)
(0.287366784149 0.0310576321826 0.172300305451)
(0.362788121667 0.0533829900007 0.157894220514)
(0.394029630217 0.0647748854762 -0.00134941776453)
(0.389818138716 0.0974008480116 -0.00345005804988)
(0.368464346028 0.0617595577288 -0.00128833548949)
(0.352446705676 0.000651841448289 0.0637045621906)
(0.204765792015 0.00682461567796 0.0126697789475)
(0.358811498338 0.059330623999 0.0842799212668)
(0.228971263957 0.0738937616283 0.0229416230018)
(0.435610946604 0.0811978561347 -0.0154473403387)
(0.430209562475 0.00871110458477 -0.0171330485346)
(0.25254231146 0.0147129830291 0.24649902538)
(0.360250002546 0.0380632714658 0.208360411757)
(0.382441941628 0.00736862867345 0.218673092173)
(0.360760790112 0.0356181958769 -0.000324710411651)
(0.382198838748 0.0254803822279 -0.0104415986416)
(0.372836858723 -0.00145996397872 -0.00235864593306)
(0.36263705639 0.037528072265 0.114278018215)
(0.261406760185 0.0568002697573 0.0433551182051)
(0.406806511252 0.0108670555955 0.132457103311)
(0.343019532288 0.0208268034893 0.0748522705626)
(0.784380523073 0.00227267055867 0.00640411657712)
(0.782725170869 0.00181352684856 0.00586948148599)
(0.784626284541 -0.000881653419123 0.00540849679206)
(0.78474366981 0.00174659818105 0.00552699419122)
(0.782863456952 0.00246488638344 0.00589499467336)
(0.784750595927 0.00150738128788 0.00577218557594)
(0.784372482201 0.00190528323763 0.00580333356828)
(0.784770303941 0.00264042462015 0.00649441646973)
(0.783902362849 0.00382982539428 0.00529966101562)
(0.784991645474 0.00341354290599 0.0055917375189)
(0.785268468356 0.00501189190849 0.00542683331048)
(0.783254073555 0.00329471228008 0.00604542785077)
(0.78528942066 0.00290083106786 0.00602754398038)
(0.784919065087 0.00306844561324 0.00584229507347)
(0.780864934887 0.00489151159919 0.0035810381875)
(0.782574524597 0.00467165617389 0.00423381998054)
(0.784631844616 0.00379857210536 0.00507233850214)
(0.785104445955 0.00616202172047 0.00148871549688)
(0.781750839289 0.0036650261921 0.00556155018688)
(0.782505439401 0.00626820836613 0.00153504909048)
(0.784028286788 0.00412814217811 0.00340930054958)
(0.786748479366 0.00362789542544 0.00346462155117)
(0.784965244571 0.00437250580583 0.00320394334824)
(0.785604041038 0.00607316605161 0.00473594869793)
(0.785991998758 0.00688072944854 0.0023114858914)
(0.78590107601 0.0033555603392 0.00501003543134)
(0.786099068913 0.00471779400555 0.00144903634912)
(0.785882340806 0.00659817694641 0.00343584418801)
(0.787805777309 0.00441095182035 0.00166062417092)
(0.788431274174 0.0060505748656 -0.00225410918127)
(0.786503301112 0.00688306843229 0.000321749773652)
(0.786418187684 0.00605182936985 0.000807334040399)
(0.787384741395 0.00517458812217 -0.000794885586543)
(0.788858955697 0.00514748214241 0.000323917871499)
(0.786317598721 0.00662236853214 0.00191154213012)
(0.786470829932 0.00781242451778 -0.00281864440018)
(0.784076427106 0.00554331530509 0.00179301379017)
(0.786149757632 0.00732045597466 -0.000675591335466)
(0.786373492309 0.00713888252031 0.00017091878882)
(0.784478988059 0.00727052752084 -0.00123959096682)
(0.785719604399 0.00571810147137 -0.00013349441935)
(0.786987454168 0.00783678541075 -0.00226815108606)
(0.787325995793 0.00998334097394 -0.00346184996855)
(0.786384247449 0.0120226464759 -0.00198526589052)
(0.786692825694 0.00838026314569 -0.00232086637774)
(0.787546826115 0.00919305852232 -0.00346408600394)
(0.784883472825 0.00950586528891 -0.00241979462321)
(0.788875741491 0.0124985037829 -0.00257725233523)
(0.787244447544 0.00862420436298 -0.00291275495311)
(0.78857411434 0.00808744792851 -0.00468109759485)
(0.788739987177 0.00723022458425 -0.00343788087542)
(0.786791071364 0.007215214631 -0.00166473719248)
(0.787405694302 0.00686047240367 -0.00468073959705)
(0.787282341869 0.00651397557889 -0.00206775690637)
(0.790152620126 0.00877948154271 -0.00601658668527)
(0.787539297605 0.00736140262443 -0.0035429031242)
(0.789781587663 0.0101585388176 -0.00457200456041)
(0.794054284174 0.012428371067 -0.00548720353397)
(0.788282829131 0.00855005106491 -0.00408514484352)
(0.788280888249 0.00709024174446 -0.00551092517316)
(0.791709955469 0.0126369191872 -0.00419944576096)
(0.791796002447 0.0104492049726 -0.00641053678151)
(0.787832181903 0.00761214027276 -0.00380922191078)
(0.792716546896 0.0180792001278 -0.000455389058334)
(0.788119517794 0.0149394251019 -0.00192722232744)
(0.78871318337 0.0106196166837 -0.00192589302628)
(0.788449216039 0.00963911264519 -0.0034584124399)
(0.789920538479 0.0178802794859 0.000702831942883)
(0.790954270128 0.0153756760878 -0.00332430257279)
(0.7901153848 0.0109810568563 -0.00269052094739)
(0.795187142286 0.0205950403108 8.49470897895e-05)
(0.796402515807 0.0228709657369 0.00227296090296)
(0.790589221331 0.0116507906567 -0.00150982807428)
(0.792751556645 0.0122525015668 -0.000981767779605)
(0.792805404346 0.0206835550604 0.000356764260791)
(0.791387217921 0.0117598152301 -0.00106565073879)
(0.798231309767 0.022622141333 0.00179725637239)
(0.795228202076 0.0176016207786 -0.00199798222427)
(0.795889187563 0.0148509813459 -0.00490509120785)
(0.789452459143 0.00961687150725 -0.00399105213596)
(0.790675515786 0.00970400153578 -0.00344034024087)
(0.7935644444 0.01523844966 -0.00453608879863)
(0.797138299076 0.016681391897 -0.0028597027089)
(0.790767034968 0.0102518314638 -0.00259389073209)
(0.797392042739 0.0196508094693 -0.00102580153309)
(0.801040505205 0.0196277376543 -0.001375100659)
(0.793245032829 0.0113256269011 -0.00103355660199)
(0.792278748838 0.0100719218412 -0.00287483493563)
(0.798891333014 0.0183917488178 -0.00284907220534)
(0.791914764289 0.0106084154315 -0.000855320070538)
(0.799927013938 0.0212599265909 -0.000365260078024)
(0.792910917913 0.00961102936036 -0.00868881512802)
(0.790046458648 0.00800282357217 -0.00486600237089)
(0.787837865825 0.00613945280365 -0.00563350886759)
(0.787222361125 0.00565349551396 -0.0039583012803)
(0.791626851593 0.00912036416779 -0.00793138407748)
(0.79110723728 0.00848634083488 -0.00568928926375)
(0.788193895371 0.00599402173494 -0.00637797705516)
(0.794899037979 0.0107789969945 -0.00861828774452)
(0.795961691341 0.0121563864525 -0.0074969810491)
(0.788792210207 0.00674645951836 -0.00632824683024)
(0.789703449407 0.00710793474671 -0.00682422388368)
(0.793544482727 0.0106910558929 -0.00790751947061)
(0.796918971917 0.0118719968565 -0.00838377213542)
(0.789080949956 0.00664853943453 -0.00673801330727)
(0.795837361746 0.0113293710658 -0.00895794257825)
(0.798393842639 0.0123543876315 -0.00872814869884)
(0.790225067265 0.00695847407561 -0.0071438026775)
(0.79019206225 0.00632428176364 -0.00682580898266)
(0.797861896297 0.0119156289381 -0.0087461621197)
(0.796540579035 0.0119944562624 -0.008868784807)
(0.789693928596 0.0062198401426 -0.00711686634051)
(0.800364886396 0.0139025344933 -0.00527372988125)
(0.797629167763 0.0136504026737 -0.00629988044855)
(0.791281510767 0.00856849675097 -0.00349625867831)
(0.791316688058 0.0073503048101 -0.00664133799174)
(0.79900727725 0.0153637582294 -0.00390978838175)
(0.798959383313 0.012841711351 -0.0079876424165)
(0.792459619253 0.00810813215231 -0.00469988314037)
(0.801296128595 0.0149194197916 -0.00345148967024)
(0.801955290336 0.0177764352735 -0.00162803482194)
(0.792818628106 0.00958094380681 -0.00280270191912)
(0.793979949115 0.00918469759766 -0.00165244896941)
(0.800242130893 0.0168280007219 -0.00331017373528)
(0.793390111278 0.00902987092433 -0.00232661966591)
(0.802455222591 0.0154652609095 -0.00183768958677)
(0.801030761364 0.0131086001703 -0.00575957541037)
(0.800035582211 0.0125501683205 -0.0075423130042)
(0.791807881911 0.00769927975946 -0.00699245835539)
(0.792636513078 0.00792521674254 -0.00452370920281)
(0.799801518101 0.0126765806919 -0.00823099009738)
(0.801074903228 0.0125700294203 -0.00526403362938)
(0.792969946867 0.0078372273287 -0.00528442869456)
(0.801834167384 0.0132803091951 -0.003888381117)
(0.802990624151 0.0123970801956 -0.00345420434519)
(0.794161044882 0.00813616486703 -0.00225133497333)
(0.793709409478 0.0077287717283 -0.00409187018887)
(0.80184300711 0.012448389659 -0.00482547925019)
(0.7937552462 0.00779811698587 -0.00295137306787)
(0.802818980609 0.0135375142556 -0.00232936617057)
(0.800843975258 0.0114813221772 -0.00496081396766)
(0.799941587183 0.0122360994897 -0.00669088609312)
(0.793200926638 0.00738505070039 -0.00423598960968)
(0.792760720587 0.00675882841654 -0.00398858601366)
(0.800990545133 0.0120103990889 -0.00506812528985)
(0.799594018081 0.0118604750608 -0.00562783085119)
(0.793728900477 0.0069459944275 -0.0039054280267)
(0.802884244423 0.0117759634333 -0.00414320884791)
(0.794042449772 0.00769456722244 -0.00414012320136)
(0.801848674692 0.0118988497297 -0.00493082500233)
(0.811221827345 -0.000945680362361 -0.00017981406082)
(0.810727394187 -0.00435043977039 -0.00038716212814)
(0.809058215319 -0.00588934173949 -0.000719986115574)
(0.806903163874 -0.00529690474836 -0.000269516171053)
(0.805369235098 -0.00508805977345 -0.000112782328629)
(0.806234526986 -0.0198618083715 -6.91104298731e-05)
(0.811140425836 -0.000788993606722 -0.00071351182315)
(0.810268377181 -0.00438390743321 -0.000867118751972)
(0.808905810103 -0.00618999437621 -0.00130580638508)
(0.807257622752 -0.00534896765124 -0.000441838243757)
(0.805569616563 -0.00531137268294 0.00103574388283)
(0.806529413523 -0.0201102192407 0.0017026416988)
(0.817046192328 0.00523117757103 -0.000963288137195)
(0.815339683804 0.00459395998727 0.0010638141327)
(0.794420499313 0.00240100995899 0.00888362864239)
(0.789934382892 -0.000880711023462 0.0117728619494)
(0.788057351208 -0.00531799225269 0.0135476412802)
(0.788236598402 -0.00604291992367 0.0121112777831)
(0.794026461855 -0.00422246927661 0.00738216389289)
(0.782602310992 -0.00968004836839 0.00489208412836)
(0.826324244989 0.00270464478112 0.000160077077933)
(0.821933563904 -0.00062652237595 7.49325501931e-05)
(0.819283222776 -0.0114530565108 0.00102320313084)
(0.812327367495 -0.0185218430037 0.00245238207318)
(0.807857076718 -0.0173476563982 0.00327090759537)
(0.80259807324 -0.0143765074725 0.00276843481891)
(0.802223480368 -0.00816882968782 0.00173926280666)
(0.793711168459 -0.022566637792 0.00158679830901)
(0.818343071597 0.0023136554534 -0.000913048584821)
(0.819512539312 -0.0021858087614 -0.000480891576472)
(0.817240662776 -0.00778740186674 -0.000241024655025)
(0.812230832194 -0.00980778122779 0.000314464355166)
(0.808619236386 -0.00982826206554 0.000982283781835)
(0.805033578771 -0.00898657744676 0.00115549340232)
(0.803693127521 -0.00627959558451 0.000981443082212)
(0.798831774115 -0.0224730944063 0.000924586385839)
(0.81360443669 0.00309086434786 -0.000545262781003)
(0.815508553212 -0.00126170031967 -0.000521322171873)
(0.813855971479 -0.00559822586298 -0.00026248011463)
(0.810170500436 -0.00812305823878 -0.000226437478382)
(0.808225042257 -0.00909111543747 3.66865579323e-05)
(0.806273559487 -0.00907457220085 0.00018246714706)
(0.804644034826 -0.00697350972065 0.000376258044173)
(0.802697926617 -0.0247560253895 0.00041097785037)
(0.808020144994 -0.00647671717002 -0.000577692250613)
(0.807039600099 -0.00669003297307 -0.000441437864519)
(0.805228311026 -0.00577400717013 -7.83076251262e-05)
(0.805159825644 -0.0220772253406 -7.00526200033e-08)
(0.640269110051 0.0407594259902 0.00921133712678)
(0.64036092478 0.0392305841395 0.0156524377207)
(0.656892135679 0.0184176756702 0.029689088855)
(0.678337926032 0.00356514332712 0.0286256269086)
(0.71963762288 -0.00732097880093 0.0207235699796)
(0.745862523526 -0.00923905970131 0.0132014696974)
(0.780357041071 -0.00544671940159 0.00830796776303)
(0.767750072247 -0.0134090453237 0.00713920973356)
(0.774910892093 0.0107722466801 0.00599600839034)
(0.774182139961 0.00256969106291 0.00880383556723)
(0.783894175797 -0.0115850262633 0.0140059753138)
(0.78786020798 -0.0229796851206 0.0125059096775)
(0.79361175052 -0.025092643254 0.00936710251039)
(0.794040807878 -0.0220306065089 0.00709424590755)
(0.799016579397 -0.0124200708774 0.00578762305529)
(0.79107227952 -0.028281512282 0.00538886317899)
(0.819477300458 0.00415526122501 -0.000371147714054)
(0.819138757919 -0.000879975449218 -0.00064237719601)
(0.817429761745 -0.0076436891452 -0.000352149630326)
(0.813203321106 -0.0110143682294 -0.000505033075289)
(0.809871626114 -0.011992143975 0.000151848407388)
(0.805770347864 -0.010882274033 0.000853333377337)
(0.804004275424 -0.00752969732091 0.00286373857913)
(0.799014718891 -0.0248854440637 0.00335318063822)
(0.813921946461 0.00244383221168 -0.000773108201734)
(0.815487859052 -0.00213943029678 -0.000944178137063)
(0.81388185803 -0.00531067671783 -0.000788022239697)
(0.810545273492 -0.00728598305323 -0.000966578645469)
(0.808485887506 -0.0083647487749 -0.000608177944574)
(0.806854967532 -0.00834603045328 0.000234246123037)
(0.805016406645 -0.00702391082878 0.00225278580953)
(0.802986833095 -0.0255879995094 0.00278010683785)
(0.808177230214 -0.00684757239685 -0.000993376424587)
(0.807547090255 -0.00695674641757 -8.90464002439e-05)
(0.805677894024 -0.0062963534623 0.0016028383036)
(0.805880050543 -0.0231704027027 0.00217958478232)
(0.634877068182 -0.0158855212639 0.0157289428024)
(0.6304645002 -0.0179162049383 0.0240432935439)
(0.646633519658 -0.0304663704393 0.0271655252314)
(0.666731632342 -0.0347025379846 0.0121176910839)
(0.714222813234 -0.0287737736893 -0.00206562486939)
(0.744798353349 -0.0199741675262 -0.00375096338644)
(0.781422705899 -0.0088190919455 0.00104590206993)
(0.771855095501 -0.0161945155403 -0.000514412537709)
(0.73600166698 0.00277199654825 0.0195001175219)
(0.736855614568 -0.00593864232793 0.0214820100695)
(0.788930989812 -0.0140279926903 0.00681918248257)
(0.789201372855 -0.0230463261662 0.00076259119096)
(0.792932490771 -0.0245798771669 -0.00209790124108)
(0.794399949716 -0.0219066862613 -0.00136210199692)
(0.800013754703 -0.0129010100632 0.0017041429428)
(0.794748402911 -0.0300943872244 0.000543236886897)
(0.819357187193 0.00342461583086 -0.001427851212)
(0.81959056735 -0.000639548240679 -0.00102911801916)
(0.818338883856 -0.0101864874143 -0.00143698749503)
(0.813676891508 -0.0145423358218 -0.00493492087972)
(0.810084941877 -0.0140431686104 -0.00667259238969)
(0.80799598889 -0.0118720928383 -0.00429785327326)
(0.805798644029 -0.00843611434947 0.00101982132065)
(0.804306155969 -0.0279442631857 0.000489084578655)
(0.809656214332 0.00810002730264 -0.00176347727965)
(0.813987486018 0.00276520491315 -0.000882156979747)
(0.815258445411 -0.00183028031809 -0.000848278163803)
(0.813745458397 -0.00606890974 -0.00230895751527)