/*--------------------------------*- C++ -*----------------------------------*\
| =========                 |                                                 |
| \\      /  F ield         | OpenFOAM: The Open Source CFD Toolbox           |
|  \\    /   O peration     | Version:  v1906                                 |
|   \\  /    A nd           | Web:      www.OpenFOAM.com                      |
|    \\/     M anipulation  |                                                 |
\*---------------------------------------------------------------------------*/
FoamFile
{
    version     2.0;
    format      ascii;
    class       volVectorField;
    location    "7.25";
    object      U;
}
// * * * * * * * * * * * * * * * * * * * * * * * * * * * * * * * * * * * * * //

dimensions      [0 1 -1 0 0 0 0];


internalField   nonuniform List<vector> 
28582
(
(0.814150398353 0.002909025947 -0.000722764399721)
(0.815704526306 0.00116220939011 -0.000448220602155)
(0.814851705997 0.00313816751554 -0.00154814953361)
(0.816044306028 0.00147163376211 -0.000470478641991)
(0.816507485794 0.00359552437104 -0.00394975568464)
(0.817233710177 0.00225356755433 -0.00130708771893)
(0.817507909257 0.00463527046244 -0.00846714596047)
(0.821076995805 0.00367229688346 -0.00093159300601)
(-0.114332700542 0.00860380924366 -0.0160148985516)
(-0.215355671621 0.00667922362448 0.00804336533478)
(-0.36423893622 -0.250153546479 0.724453225242)
(0.821000860697 0.00403988185403 -0.00427589711092)
(0.783392293455 0.000323516592985 -0.0124982030827)
(0.781794586659 0.00123276631949 -0.00778585524202)
(0.819256597698 0.00253336358874 0.00110727464886)
(0.817794887817 0.00332222499189 0.003205004044)
(0.782489634148 0.00118599156678 -0.00561922270428)
(0.816864045782 0.003780269102 0.0049066123532)
(0.815621936568 0.00499286515833 0.00606093458014)
(0.813025679903 0.00559382735732 -0.00108005698644)
(0.816102216076 -0.000949347941849 -0.000391900291971)
(0.814944574597 -0.00185562020108 -0.000502797357047)
(0.813117763797 0.00547749342451 -0.00250346099732)
(0.81615081079 -0.000745071431541 9.42490013808e-05)
(0.814903274846 -0.00178593738399 -0.000108413213127)
(0.813552409823 0.00559377651097 -0.00569975773122)
(0.816337213572 -0.000266039170307 -7.36232156721e-05)
(0.811986485827 0.00515159002349 -0.00775522043303)
(0.817582511606 0.00127393709843 0.0004499526584)
(-0.159826325664 0.0289295741192 0.00147496212972)
(0.376623162435 0.356351081495 0.307996054295)
(-0.327967185973 -0.252699643071 -0.466877837482)
(0.816814416144 0.00389637405032 -0.00982861622541)
(0.815924017917 0.00406776756988 -0.0101696168204)
(0.78352725862 0.00846596668923 -0.00793764722808)
(0.784874283878 0.00759729555102 -0.00972118426924)
(0.812833822932 0.00391371474689 -0.014575358509)
(0.814269184104 -0.000573262845593 -7.17104726464e-05)
(0.816141477841 0.00243780799048 0.00171845443913)
(0.812719951288 0.000622312499777 0.000606698717563)
(0.815060319111 0.00304967815397 0.00353981429162)
(0.778578256955 6.94336222059e-05 -0.000419112028684)
(0.814017716342 0.00444239535722 0.00442936566972)
(0.809371880748 0.00315078987252 0.0026440388373)
(-0.183383893374 -0.0292540277377 -0.00612005808806)
(-0.170716975281 -0.0288788060989 0.0119842624542)
(-0.148070140599 -0.052185858762 -0.132406877832)
(-0.180636903746 0.0555690374192 -0.0461516131244)
(-0.228670522323 -0.0213870883268 0.00474392387707)
(-0.0487772323489 0.0855520292946 -0.00888337683422)
(0.818066810209 0.00472338634079 -0.015576036258)
(0.821756449866 0.00606521346114 -0.0149447904164)
(0.782935891511 0.000752559046724 -0.0118144755144)
(0.782924097888 0.000756069900269 -0.0131382310078)
(0.818410458817 0.00555247438862 -0.0160918200419)
(0.78225522458 0.00121291350244 -0.012328179681)
(0.82138457738 0.00513084684999 -0.0147099978601)
(0.8222790802 0.00641204517745 -0.0124692317198)
(0.823767441595 0.00549877612424 -0.00808106558255)
(0.782544293363 0.00124274835495 -0.010423040916)
(0.780943900626 0.00231041871749 -0.00721254744114)
(0.823675889214 0.00617308552615 -0.00728749407303)
(0.781923096496 0.00202598458823 -0.0108273641057)
(0.822187964634 0.00545721824114 -0.0122368225604)
(0.821372781979 0.00543218989837 0.00144096191155)
(0.823102549176 0.00529730727784 -0.00560158433011)
(0.781327339472 0.00101037293195 -0.00168527758864)
(0.781248961882 0.00237118926163 -0.00424292567571)
(0.822653921612 0.00589702114393 -0.00449265550175)
(0.780120534079 0.00209861556401 -0.000293125395736)
(0.822090975226 0.00474044541642 0.000212393275916)
(0.81789887826 0.00335719192144 0.00397255336251)
(0.779580262299 -0.000271428919184 0.00198113112555)
(0.778647433105 0.00126280083138 0.00318050173376)
(0.81959561288 0.00482031994009 0.00229556043252)
(0.780524603131 0.000234669052106 0.000965651863073)
(0.779259551183 0.00148628845341 0.00195870449827)
(0.820449178023 0.00422065146605 0.00127557622822)
(0.814783061951 0.00571322651398 0.008015093062)
(0.77817078755 0.0018368792405 0.00273889752733)
(0.777084299463 0.00263042860184 0.00584197374761)
(0.818749953 0.00600804778836 0.0040229951585)
(0.777393231193 0.00321782935291 0.00478376141924)
(0.818103946371 0.00654250552737 0.00572068955774)
(0.778516005964 0.0020083030154 0.00229571980586)
(-0.0453807650584 0.0745473074611 -0.0163683066895)
(0.0797743110407 0.159668186845 0.200248483698)
(0.0745407735879 0.089624401187 -0.0125102107128)
(-0.0730679663929 0.0879807099085 -0.0147828984942)
(0.0959661913507 0.150229990859 0.203059264147)
(-0.0149722123731 0.19531914875 0.176704679462)
(-0.0856839223905 -0.0441866949858 0.00919835406264)
(-0.177750621446 -0.0229444914879 -0.0192350471975)
(-0.199475713271 -0.0483562748148 0.0191940600231)
(0.00186795310681 -0.0677989884536 0.0092831973949)
(-0.0986288628211 -0.0544360621555 0.0190950966962)
(-0.104810560432 0.0146796336292 0.000272922334439)
(-0.057019564788 -0.0761401105006 0.0611250060311)
(0.811427582755 0.00430577383011 -0.0142514092232)
(0.809813623506 0.00533306190603 -0.0112813998809)
(0.783609768077 0.00849740044912 -0.0089890418576)
(0.782923845423 0.00576197616376 -0.00848197972215)
(0.812148506657 0.0047502960063 -0.0136947586553)
(0.809118034449 0.00495843600422 -0.0116895810276)
(0.783003526482 0.00593893982165 -0.0095056903193)
(0.813848215989 0.00376386955045 -0.0132933489443)
(0.817406255132 0.0035283051596 -0.0140830652759)
(0.784394170721 0.00794900804505 -0.00933570507381)
(0.783816378004 0.00563366626454 -0.0103463170213)
(0.81448982865 0.00420435403523 -0.0127745462418)
(0.81664612713 0.00321914311073 -0.0149591364245)
(0.783737523584 0.00577023834465 -0.00976357868375)
(0.783332159093 0.00119031812115 -0.011245990883)
(0.783356483249 0.00158477708164 -0.012225878621)
(0.816397987348 0.00385961364488 -0.0168175432221)
(0.813371659669 0.00375357533615 -0.0137508805038)
(0.78365341674 0.0031169974943 -0.0110800975746)
(0.81634511658 0.00335300071532 -0.0156517417763)
(0.783673597825 0.00297544377774 -0.0102514110057)
(0.81600943287 0.00246249234981 0.00280112860278)
(0.778776252082 -0.000740569641713 0.0017829137816)
(0.778094312952 0.0012999903161 0.00278146451974)
(0.812841162341 0.00184148539827 0.00358338714447)
(0.778559630241 -0.000741909238038 0.00154274184014)
(0.813902841952 0.00125788618728 0.00306625445452)
(0.777952625808 0.00138981397815 0.00233813264911)
(0.811499301335 0.000638054296545 0.00196486193104)
(0.811327082026 -0.000581585056889 0.000207763751983)
(0.778547867896 -0.000330780405477 0.00105645072037)
(0.777606404057 0.00157175129549 -5.66541735859e-05)
(0.812470382391 0.000262899551216 0.00169547481841)
(0.810397185898 -0.000310246573428 0.000182127445719)
(0.77787292707 0.00146650619172 0.00164955178187)
(0.81031378806 0.00416033262163 0.00550871491408)
(0.812969682147 0.00532413162317 0.0064558038099)
(0.77789811757 0.00177767331535 0.00217940987251)
(0.777052185824 0.0022879224369 0.00542888069151)
(0.776844690731 0.00172154535292 0.00410014085239)
(0.811580937418 0.00321718892666 0.00365920152395)
(0.777688693021 0.00181984590799 0.000932091208397)
(0.776620348902 0.000643410676613 0.00182835606899)
(0.776159157104 -0.000447812882539 -0.000136006593172)
(0.808535907657 0.00259078351034 0.000610696325441)
(0.810340875428 0.00185847102523 0.00168390939382)
(0.777008410217 0.00120768485986 -0.00211793838509)
(0.80924235176 0.000963382060894 -0.000245293934988)
(0.777499633156 0.0013858796074 -0.000123501676357)
(0.815030359139 -0.0018425589056 -0.00136895950021)
(0.813836752966 -0.00189476014398 -0.00257127232335)
(-0.0938584385866 0.00358389432868 -0.00680104191437)
(-0.0545505062661 -0.161469689244 -0.441832757488)
(0.81799189797 0.00391164142719 -0.00822625413974)
(0.783351898965 0.0018937600126 -0.0122486474243)
(0.812581217439 -0.000290254896293 -0.00189308357631)
(0.813106649658 -0.001267205429 -0.00304628751939)
(0.777798252795 0.000115906850619 -0.00153676052308)
(0.774899107031 -0.00195512174258 -0.00134989774068)
(0.771693220412 -0.00549250989935 -0.00567784599738)
(0.814586147452 -0.00222219553298 -0.00336805966149)
(0.815470281353 -0.00357288192262 -0.00328779069442)
(0.770864241104 -0.00695222590589 -0.0060797428937)
(0.771310160825 -0.00796620684351 -0.00367631131316)
(-0.128131261016 0.0370023870742 -0.0139592808673)
(0.00421953287866 -0.0845404113601 0.00224707233656)
(0.0142585341288 -0.0778532093044 -0.00436720428349)
(0.0167570574156 -0.050328240399 0.14543462968)
(-0.023004255007 -0.0104533112703 0.119480001542)
(-0.00667513082648 -0.00509450117134 0.133992818542)
(-0.0138389423035 -0.0533186788041 -0.00978255737492)
(-0.0563443901712 -0.0224875098441 -0.00698228783858)
(0.821063266066 0.00324499020772 -0.0142358871923)
(0.817895673568 0.00386346899186 -0.0152916301631)
(0.783925830803 0.00295763264391 -0.011289223431)
(0.783232671503 0.002029160382 -0.0118184838449)
(0.818097172798 0.00317523635023 -0.0141150984887)
(0.783983763456 0.00289898393107 -0.0110560701265)
(0.82113915927 0.00415974565018 -0.0149190758856)
(0.810110012967 -0.00191342007627 -0.00517396387165)
(0.810480596362 -0.00139189681025 -0.00167725890154)
(0.777229397659 -0.000178757808741 -0.0039207986368)
(0.776504206812 0.00109357943093 -0.00125385327119)
(0.810840915257 -0.00187762280989 -0.00486880871601)
(0.809614944596 -0.00133743275694 -0.0018247840306)
(0.775822731812 0.000428996177533 -0.00374947462461)
(0.809204173988 -0.000619663738672 -0.00570629013599)
(0.807995189133 0.00165475031852 -0.0014939575313)
(0.775716744487 0.000578038690865 -0.00342338672489)
(0.773871411821 -0.00308424051876 -0.00391845738461)
(0.808610065704 -3.65715078349e-05 -0.00241778379231)
(0.774529881847 -0.000289293552751 -0.00587163397878)
(0.808652666747 0.00115462227996 -0.0047792524692)
(0.810436401104 -0.00141155685412 -0.00627453615097)
(0.811098017585 -0.000570965833429 -0.00764477098367)
(0.772536954466 -0.00293793013527 -0.00685170835305)
(0.772556851137 -0.00436703975088 -0.00463807295982)
(0.811862096695 -0.00207984074786 -0.00810384003664)
(0.773398368021 -0.00164865863279 -0.00613208823602)
(0.809837746421 0.000297720178715 -0.0056358726188)
(0.814558344267 -0.00370032582606 -0.00757547436996)
(0.812205636935 -0.00131304440964 -0.00719226988913)
(0.771435943086 -0.00474377982085 -0.00661558881277)
(0.770489354808 -0.00755088163753 -0.00564074200588)
(0.812970108018 -0.00271522562972 -0.00757749231949)
(0.770871276146 -0.00573168383957 -0.00601624128313)
(0.813992882541 -0.00266410485641 -0.00739358803332)
(0.815233388117 -0.0039494336443 -0.00623948612187)
(0.815058478062 -0.00364876041123 -0.00490585881332)
(0.771503204308 -0.00675540805617 -0.003883555359)
(0.770749300894 -0.00797217352706 -0.0049923910425)
(0.815637899125 -0.00443896273757 -0.00479408708377)
(0.771017169552 -0.00652722577005 -0.00528915594194)
(0.814512782652 -0.00298130065253 -0.00624893213579)
(0.790928031897 0.0121759321209 0.00120708910902)
(0.797401675051 0.0130590682623 0.000107427604461)
(0.800465729255 0.0181204460434 7.67328939018e-05)
(0.80197412887 0.0105130631658 -0.000488430925212)
(0.263781531115 0.00454675095542 0.00516027784406)
(0.363771343953 -0.0513838128237 0.00169647715438)
(0.299336579221 0.0118661205605 0.0033979897042)
(0.463383133545 0.0324841846243 -0.000634537573911)
(0.437233024944 0.114046899803 0.00057417401825)
(0.295558900682 -0.00556647072773 -0.33139052667)
(0.376878181685 -0.0491245587323 0.492904996111)
(0.194949374336 0.00423892113496 -0.320524034576)
(0.374748816397 -0.101019414957 0.136196953292)
(0.159072003733 -0.00213079917395 -0.308331076334)
(0.42318239541 -0.0662175335372 -0.0973746423595)
(0.787023629429 0.00257409163352 0.000232781754876)
(0.788505927714 0.00557691775183 0.000508685709709)
(0.784422666122 -0.00135940918679 -0.00196282016806)
(0.78562437891 0.00369432340873 -0.00139917320824)
(0.786850263174 0.00816527335618 0.00257160114693)
(0.78366134611 0.00480039570371 0.000234298382939)
(0.790280734782 0.00881088555726 0.00102434020378)
(0.793660571476 0.0104220953424 0.000975515147361)
(0.786543630342 0.00421879492765 -0.00251415730025)
(0.788470068452 0.00471254205575 0.000343408822855)
(0.790249161394 0.015881691077 0.00382919730163)
(0.794522863854 0.0136365835143 0.000727704211957)
(0.795151417237 0.0176936892046 0.00195942423458)
(0.78492283901 0.0053377348716 -0.00179273704562)
(0.780007725975 0.00956931416114 -0.00193957890984)
(0.787487339717 0.00428887323391 0.000468861501761)
(0.784252613027 0.00552161511375 0.00131974404577)
(0.797377023281 0.021568291649 0.00185314692737)
(0.799704250694 0.0261059960936 0.00285088796362)
(0.779112773309 0.0110065912995 -0.00169173697425)
(0.781491454335 0.0146825058108 -0.00230628111853)
(0.783237257053 0.00644441882478 0.00182978226675)
(0.784453771866 0.00925575355779 0.001895536929)
(0.798340056971 0.0156572645407 0.000885619449031)
(0.800039633268 0.0125145071988 0.000542755365727)
(0.787388505832 0.00413201219615 0.00137541586187)
(0.784993121643 0.00537190265837 0.00241134654853)
(0.787024849679 0.00841629464042 0.00342369109675)
(0.802110106934 0.0202589873787 0.000490043527193)
(0.801588083785 0.0139751103471 0.00021585660475)
(0.803141004098 0.0147158273982 0.000540277571894)
(0.784223801158 0.00639852675688 0.00318284490944)
(0.785274343344 0.00901533432267 0.00449868531667)
(0.786432725473 0.00904262404007 0.00343358944229)
(0.786145045333 0.0107986656817 0.00441756040817)
(0.786910791226 0.0106032717606 0.00319836646645)
(0.786428131932 0.0120360097349 0.00419812607207)
(0.271036187902 -0.0601439584931 -0.000604036089347)
(0.262906257757 -0.0148651771589 -0.00027329861008)
(0.298314342239 -0.0256763160218 0.00276984787982)
(0.218376441023 -0.0434408188308 -0.138150137579)
(0.338396059279 -0.0160401191574 -0.162805992357)
(0.237159944227 -0.0452402260887 -0.168642168385)
(0.36015388967 -0.0283973389357 -0.146358561542)
(0.326939126078 0.03605878693 -0.0907571014902)
(0.205243545689 0.0523149861558 -0.0331220240493)
(0.354951524964 -0.0234592700662 -0.0716263732387)
(0.266161207107 -0.0133617965068 -0.0531194558233)
(0.214099561996 0.00373216242742 0.0017560791462)
(0.198335189812 -0.0189998779729 0.0020549606007)
(0.331523436691 -0.0135998827474 0.00537396838977)
(0.276984209225 -0.00607943554181 0.00613924792931)
(0.37346730355 -0.00633881223061 0.00740348721076)
(0.223730036737 -0.0502419129358 -0.109222531156)
(0.342303859406 -0.0468183454148 -0.104055837112)
(0.210548817063 -0.0294738468771 -0.159461748571)
(0.339136365655 -0.0263479118477 -0.193830695701)
(0.395779118818 -0.0569512603542 -0.00464433393736)
(0.445417123093 -0.0227978205884 0.00502038881186)
(0.516439632481 -0.0375974243903 -0.00095688439074)
(0.358553630241 -0.0560275956466 -0.055953577109)
(0.313498033174 -0.0521964542208 -0.0265930021245)
(0.354187402033 -0.0426198539822 -0.213237964549)
(0.320274294477 -0.0525099630038 -0.116331324162)
(0.383333807272 0.0297632497193 0.00276189690686)
(0.376400073274 0.0611954404244 0.00179490716388)
(0.20440380248 -0.02986220167 -0.171837300101)
(0.304156765579 -0.0318019522597 -0.196609010304)
(0.299112950596 -0.0107440482245 -0.193469347797)
(0.530362760016 0.0244746936909 -0.00314068027314)
(0.454968151336 0.076936539516 0.000369544238887)
(0.522303226285 0.0708857963104 -0.00290247862137)
(0.368032543105 -0.0444668934274 -0.220080790062)
(0.365782884506 -0.0402631306235 -0.208118132931)
(0.374215919707 -0.0154476506166 -0.2000342671)
(0.381851434033 -0.0124095844906 -0.186717334195)
(0.792713990601 0.00296567896062 -0.0011786922702)
(0.791864943622 0.00200360014517 -0.000566868321484)
(0.786241335117 -0.00130313010652 -0.00191362054902)
(0.784366721748 0.000685410283125 -0.00192130162579)
(0.792370658098 0.00386851207144 -0.000534321450229)
(0.786339805563 0.000684445904179 -0.00202072070997)
(0.792295423498 0.0016499913576 -0.00125596912591)
(0.793284837727 0.00440439430676 -0.000806885628097)
(0.793996162447 0.00678036328488 -0.000179936244103)
(0.784807591969 0.00197675824816 -0.00176034044744)
(0.786786385573 0.00339039115641 -0.00185332902269)
(0.792928262696 0.00556808158447 -0.000372430887612)
(0.794030021702 0.00605566495721 -0.000973115732847)
(0.786547402328 0.00154502235438 -0.00174293430704)
(0.791504225273 0.00721723533727 0.00234972339582)
(0.793335986891 0.00770588351722 0.000772258184649)
(0.783072884012 0.00278088296295 -0.000360482234213)
(0.781780543565 0.00548627826064 0.00100376297683)
(0.792259054356 0.00589852579179 0.00100210257009)
(0.79258820607 0.0088470420048 0.00268095532901)
(0.781004372002 0.00340468852734 0.00110011579121)
(0.79566730066 0.0087720355558 -0.0010173702348)
(0.794785734272 0.00836555890563 -0.00115179724199)
(0.787467252726 0.00369482097915 -0.00214453764427)
(0.787325976929 0.00460783436721 -0.00210613542425)
(0.794749720209 0.00748282654288 -0.00151075682567)
(0.795750565274 0.00985289973038 -0.000862986422855)
(0.788143057525 0.00433575714956 -0.00141469935086)
(0.797012393471 0.0098973232575 -0.000564369995669)
(0.798462435928 0.0117553428228 0.00100330835447)
(0.787816315778 0.0041858183007 -0.00109565888425)
(0.788926227221 0.00466834412356 0.000324227851658)
(0.797094739525 0.0113014360549 -0.000403883784659)
(0.798303060177 0.0103203751519 0.0003283757396)
(0.788525079948 0.0039213576476 -0.000660572154698)
(0.795415151226 0.0125914062047 -0.000612490967635)
(0.794393177405 0.00930198116713 -0.00122688638983)
(0.782993640198 0.00632422997682 -0.00187938390691)
(0.785595662047 0.00490939629519 -0.00252318090625)
(0.793853651776 0.0104761089953 -7.31119029919e-05)
(0.795346095533 0.0113569233202 -0.00157529463953)
(0.784254386916 0.00581975533207 -0.00229103154277)
(0.794943423819 0.0144184883565 -0.000809830680674)
(0.792352323647 0.0143032730334 1.99474612176e-05)
(0.78130426261 0.00805271343692 -0.00139513847549)
(0.781448576065 0.00818603959579 -0.000549619133763)
(0.792876297362 0.0121428359432 -0.000726407105665)
(0.7949922088 0.0165209328259 0.000510253118992)
(0.782810542023 0.00689030921334 -0.00112114567962)
(0.797037284037 0.0141632786511 -0.000445280489317)
(0.798365614973 0.013213153532 0.00042360644706)
(0.786715208762 0.00439973039214 -0.00138172950373)
(0.786358379062 0.00468315488815 0.000588372201236)
(0.796963501464 0.0127730366941 -0.00128786387878)
(0.7984610969 0.0145971127803 0.00127748163116)
(0.785459128869 0.00547908185623 -0.00126010910917)
(0.796842607274 0.015893096807 -0.00103194734181)
(0.7988435893 0.0178770653852 0.00154344141845)
(0.782896620769 0.007497501438 -0.000545302581562)
(0.785209509335 0.00485812689318 0.000693773219963)
(0.796951978386 0.0177169303939 -5.84110954017e-05)
(0.798518504081 0.0162714953222 0.000639472026719)
(0.784163937767 0.00627139114997 -0.000981170727146)
(0.795825328255 0.0215521245671 0.000805303297872)
(0.792370655256 0.0168871841897 -0.000501516892967)
(0.779389539905 0.0124167818379 -0.00204429258141)
(0.780256625466 0.00969057180944 1.31624394967e-05)
(0.793209583175 0.0199209847778 0.00041869622579)
(0.795256718337 0.0189745290995 3.18447339249e-05)
(0.780417688224 0.0108030296456 -0.000701375192584)
(0.797829270386 0.0234954485869 -0.000241159651174)
(0.79855657124 0.0243978797406 0.00102107194348)
(0.779937963849 0.0137011682641 -0.00211412596411)
(0.7824729492 0.0125295637139 -0.00171013434374)
(0.795640225822 0.0223128250619 4.39658384603e-05)
(0.780960542051 0.0117047585833 -0.0011125830498)
(0.800303669487 0.0250694534232 0.000426380936776)
(0.798001538178 0.021796621877 0.00016343113324)
(0.799305580723 0.0195545412706 0.00124976647025)
(0.781959011373 0.00883791994175 0.000247121673343)
(0.783210073238 0.00746130271893 0.0022861416508)
(0.7976393912 0.0196426366259 -0.000180804055671)
(0.799933304755 0.0213916925548 0.00179509660931)
(0.781672292098 0.0100453016496 0.000203570423142)
(0.799806917849 0.0235579824634 -0.00049510496412)
(0.802476283276 0.0238220891856 0.0010748933915)
(0.783417939585 0.0117471523507 -0.00140600203257)
(0.783411787259 0.0084185360294 0.00254513437098)
(0.801139280333 0.0227632118962 0.00144055035028)
(0.782117938029 0.011086317649 -6.5212809257e-05)
(0.801612223853 0.0248502401679 -0.0011566188577)
(0.801244911114 0.0133221415836 0.00271870127927)
(0.799883271753 0.0131124891965 0.00120961899528)
(0.786693320604 0.00445291192991 0.00180563865384)
(0.787763838661 0.00535797131617 0.00227087167015)
(0.800086523661 0.0143865234601 0.00196246803988)
(0.801090801337 0.0123339354883 0.00202868402243)
(0.787117733276 0.00560291665198 0.00272413002642)
(0.801293091996 0.0145190016455 0.00223103891427)
(0.800498506864 0.0172118597694 0.00214707365575)
(0.785761785839 0.00477170224247 0.00207755528768)
(0.785828576734 0.00645614338616 0.00327184125855)
(0.800124847118 0.0159247753339 0.0015160832994)
(0.801619892756 0.0155608443731 0.00294290805123)
(0.786279768491 0.00589582259571 0.00293302299306)
(0.802142805444 0.0128868036717 0.00275378568574)
(0.802974573095 0.0118657989039 0.00307236483633)
(0.786496235341 0.00759843982356 0.00337908124745)
(0.787248741156 0.00797399570916 0.00345953351568)
(0.802381460604 0.0136699238229 0.00310813866427)
(0.802809229808 0.0111799957355 0.00286789176274)
(0.786837350003 0.00690222752971 0.00324595281979)
(0.802437124473 0.0173407370569 0.00353394615448)
(0.800913458134 0.0185746400946 0.00209728528976)
(0.784139048044 0.00737173753728 0.00394113427855)
(0.785083551142 0.00727341631964 0.00377349055983)
(0.801520603833 0.0198707755232 0.0028971073945)
(0.80190483467 0.0164822165397 0.0027657170752)
(0.784904769713 0.00810257870899 0.00437087003963)
(0.803001150784 0.0180796661494 0.00330122270495)
(0.803238945246 0.0218014313825 0.00293105610419)
(0.784337811926 0.00821136026224 0.00457071310063)
(0.785858061422 0.00929145065164 0.00510078205372)
(0.802324315898 0.0208947773286 0.00292278207896)
(0.785016285723 0.00874859756371 0.00481856297629)
(0.803741924045 0.0187882309621 0.00372323102678)
(0.8031269423 0.0150434490367 0.00318187620616)
(0.803110810607 0.0125798152443 0.00273986691751)
(0.785812259083 0.00848621373318 0.00354573667802)
(0.78598976461 0.0096149278355 0.00352155923955)
(0.802581798311 0.0144632786552 0.00282066085702)
(0.803641027147 0.0130129095273 0.00297264861709)
(0.785377747983 0.00937880550191 0.00375264192858)
(0.803595132775 0.0155996362315 0.00320031102406)
(0.804558520169 0.0137943785428 0.00344935967364)
(0.78594533391 0.0104528362251 0.00484255439288)
(0.785711148427 0.0102197067969 0.00395126294592)
(0.803980770191 0.0134497379235 0.00289974565225)
(0.785292571875 0.0100180483091 0.00430180000923)
(0.80429183287 0.0161369680275 0.00388437178535)
(0.804080199741 0.00910800081357 0.00217406856812)
(0.803509426669 0.0105629178809 0.00269473659104)
(0.786424061187 0.0110409171176 0.00343438953087)
(0.787107889949 0.0110369116597 0.0028728012665)
(0.803942201204 0.010923719239 0.00279738640868)
(0.803801928058 0.00876483795145 0.00214286369085)
(0.786717856918 0.0112977877171 0.00301279899761)
(0.804707640536 0.0115293820465 0.00309532930623)
(0.786104792711 0.0116592835095 0.00373445468475)
(0.804222061679 0.0113174368185 0.00272365191363)
(0.816238229821 0.00317069221366 -0.000976416985155)
(0.817906017657 0.00115384798257 -0.000559347950244)
(0.817900546098 -0.000986517732699 -0.000409942076492)
(0.814610790981 -0.00384068409331 -0.000381659899108)
(0.809998877141 -0.00522701727244 -0.000201494674393)
(0.822063030603 -0.0402731662733 3.69879589123e-06)
(0.816905732517 0.00314944477196 -0.00196348581478)
(0.818357647855 0.0013450887335 -0.000695939108333)
(0.818185866156 -0.000543355054694 -0.00012089085761)
(0.814869304187 -0.00395252141526 0.000182147333488)
(0.81049484837 -0.00555999860474 0.00162629862437)
(0.823161610903 -0.0419264926011 0.0025040104217)
(0.815330012481 0.00582009624622 -0.000608496627597)
(0.812347875399 0.00609592816275 -7.19318798035e-05)
(0.792142457302 0.00987464440169 0.0016740480083)
(0.789266433866 0.00972826943153 0.0013717004625)
(0.787438626512 0.0101698784941 0.00387208104702)
(0.782637522835 0.00624147586526 0.00817973290351)
(0.786172622674 0.00509553592983 0.00759541522118)
(0.745577453203 -0.0286697161034 0.0243926660784)
(0.825332334853 0.00496633661035 0.000243148031174)
(0.823370550422 0.00280252559162 -5.84193636e-05)
(0.821551752338 -0.000396607646779 -0.000963951596117)
(0.819554722499 -0.0032691387693 -0.00268038870144)
(0.819886200547 -0.00601277035607 -0.00281148936716)
(0.818451036678 -0.0106347204235 0.000671420531477)
(0.812608578421 -0.00860557558818 0.00398773803294)
(0.814197122104 -0.0709983761345 0.0100850754377)
(0.819192874342 0.0051787062938 -0.00110807677921)
(0.822207944627 0.00325341557631 -0.000954434625987)
(0.822600847218 0.00214193895957 -0.0013081563536)
(0.821885376483 0.000173034989591 -0.00161755345608)
(0.820825142138 -0.00214066537774 -0.00139639936687)
(0.820435229294 -0.00644386123412 0.000207623714875)
(0.813744600918 -0.00765829066841 0.00212814593861)
(0.819967174328 -0.0567903809493 0.00436938710979)
(0.81558953686 0.00621129557625 -0.000918088216836)
(0.818696639899 0.0025333636279 -0.000620840571255)
(0.819773822528 0.000264497846549 -0.000672181779977)
(0.819635725862 -0.00204092292448 -0.000804276199727)
(0.818216817874 -0.0032376692458 -0.00100211221437)
(0.81806093083 -0.00656206614624 -0.00050374931412)
(0.812277277695 -0.00806112342373 0.000514494975875)
(0.82177789256 -0.059985714728 0.00146603858952)
(0.81624618168 -0.002085815006 -0.000419450653585)
(0.815970346845 -0.00466883222094 -0.000265344373996)
(0.811131935956 -0.00606158594206 -6.02816415297e-06)
(0.823392181342 -0.0463100007518 0.000265179983328)
(0.638121565838 0.042026051098 0.0093203718361)
(0.636832042134 0.0395911624108 0.0129444151495)
(0.650118686654 0.0226765044334 0.0159424622599)
(0.650482087563 0.0200868689658 0.0164787147682)
(0.652045291601 0.0211996909917 0.020723911726)
(0.652729474817 0.015618550581 0.027583665884)
(0.698876789483 0.0155774619292 0.0252323814155)
(0.571141360786 -0.0624993775487 0.0429144908467)
(0.772803756413 0.0133300307907 0.00578064712505)
(0.769789258037 0.00864474952153 0.00686304517274)
(0.778968403948 0.00102370317755 0.0104208582389)
(0.776810176887 -0.000863458002657 0.0124186690384)
(0.777806960378 -0.0028567811364 0.0155887302316)
(0.78349478156 -0.0101556602721 0.0176791764882)
(0.794175397826 -0.00579773187021 0.0199064514636)
(0.791946326354 -0.120610170575 0.0259891533265)
(0.820498232801 0.00579765200067 -0.00208248847606)
(0.822481873513 0.00384724610492 -0.00185841921393)
(0.822566963106 0.00318061468855 -0.000264700825125)
(0.821784065167 0.00277686991981 0.0003920399225)
(0.82166690313 0.00128861837576 0.00112350164821)
(0.822852743554 -0.00456374421095 0.00140369574733)
(0.817331564252 -0.00772427568097 0.00522691866518)
(0.832013080785 -0.0786489102505 0.00910528091872)
(0.815977603281 0.0059845712018 -0.00229408947391)
(0.819254099448 0.00309305018405 -0.00172280943704)
(0.819854594065 0.000921165918016 -0.000314083647395)
(0.819620515421 -0.00169318663652 0.000143978643399)
(0.818476143304 -0.00369790187375 0.000543459746503)
(0.81911710828 -0.00752907618498 0.00148881099029)
(0.814169079662 -0.00915849969911 0.0038787911348)
(0.826542865042 -0.0675113610179 0.00586678417441)
(0.816345019249 -0.00168526147234 2.40433288079e-05)
(0.816556867564 -0.00453703719268 0.000524237637904)
(0.811697091398 -0.00653477933947 0.00226772864767)
(0.825350349003 -0.052076667196 0.00343006967419)
(0.633615880612 -0.0152322349668 0.0158088474931)
(0.631228533811 -0.0157868861945 0.0165443847762)
(0.642585593152 -0.0213706831203 0.0201543776571)
(0.640389197493 -0.021369251251 0.0223049133209)
(0.643078167328 -0.0223205270189 0.0262119891)
(0.644971882909 -0.0237619833808 0.0252021767489)
(0.696533774604 -0.0142170735244 0.025191667664)
(0.575987830033 -0.135197931307 -0.0026973097882)
(0.7331481865 0.00571782194584 0.0194414237375)
(0.73424468878 -0.000890267044311 0.0193515781187)
(0.789046596053 -0.00265346318291 0.00741567445208)
(0.786249807186 -0.0027869964758 0.00958377270589)
(0.784848400271 -0.00581015150507 0.011226642748)
(0.78942620264 -0.0104324577623 0.00923827286434)
(0.801619588386 -0.00608277496015 0.00695398637807)
(0.812230163745 -0.128945799856 0.0008217314862)
(0.820984489945 0.00474120902901 -0.00457769414558)
(0.824540806378 0.00340947826118 -0.0046425801549)
(0.824818921443 0.000280355383897 -0.00254187900483)
(0.823075974983 -0.00220158323517 -0.000224232782635)
(0.821822218602 -0.00459186444837 0.00073296962755)
(0.824541834804 -0.00963996704312 -0.000368665052994)
(0.82075344038 -0.0129573856686 -0.00163136787288)
(0.845953065864 -0.0955205527327 -0.00277309204272)
(0.810157580132 0.00922640813737 -0.00358919179034)
(0.816448318746 0.00587248504243 -0.00504090063174)
(0.820663094037 0.00242531330913 -0.0041778766025)
(0.821882813412 0.000257784920622 -0.00160713206036)
(0.821152425818 -0.00236633155831 0.000235761495319)
(0.81894415308 -0.00472707314199 0.000344220123778)
(0.820609550936 -0.00800926456129 -0.000637735005474)
(0.816736192258 -0.0102698122544 -0.00046892274981)