/*--------------------------------*- C++ -*----------------------------------*\
| =========                 |                                                 |
| \\      /  F ield         | OpenFOAM: The Open Source CFD Toolbox           |
|  \\    /   O peration     | Version:  v1906                                 |
|   \\  /    A nd           | Web:      www.OpenFOAM.com                      |
|    \\/     M anipulation  |                                                 |
\*---------------------------------------------------------------------------*/
FoamFile
{
    version     2.0;
    format      ascii;
    class       volScalarField;
    location    "6.85";
    object      p;
}
// * * * * * * * * * * * * * * * * * * * * * * * * * * * * * * * * * * * * * //

dimensions      [1 -1 -2 0 0 0 0];


internalField   nonuniform List<scalar> 
28582
(
17101.3778577
17099.0661166
12202.9374636
12200.5087172
7303.40021098
7299.91062297
3631.34656252
3624.12348169
31.6709172134
39.6907205816
-27.8301647977
3626.77533322
634.54891618
633.370238784
3623.13960781
3621.89516849
632.894550737
1785.24460072
1784.72533666
17103.7501786
17098.3240898
17098.4811548
12206.0541594
12200.1125275
12200.6196916
7308.75680413
7300.81943215
3639.42793414
3624.2449593
40.0850962332
-27.3488820648
-27.1822794267
3635.88603496
3636.17798596
629.080072136
631.050223648
1803.33969541
3627.08727162
3623.91406012
3627.29317987
1786.84397557
641.854771483
1786.59525345
1791.1608403
35.6865368329
40.8198283703
-23.1463815579
-23.1257885656
38.5325532124
-23.1032148874
1797.26970602
1792.22173401
634.186357522
635.110011371
1796.43976284
634.52481733
1793.48894866
1788.33717059
1786.73812721
633.788078331
633.117870971
1784.96036984
633.813911701
1790.00581416
1782.55468689
1784.47821468
632.79091039
632.549398067
1782.91863393
632.562178201
1783.70142498
1785.62217101
634.570385817
634.885285137
1783.45447161
633.127306893
633.237067555
1784.13487436
1783.4724597
634.959205982
635.031015784
1782.60835314
632.689281725
1781.45862474
633.001530633
25.9972843312
-23.1001540743
21.3733435273
25.018322547
-23.1130400829
-23.0794640838
40.8009714863
-23.1211263265
-23.0821811674
40.91994959
-23.1157757962
40.3139781329
-23.0719541101
1804.58232499
1805.94950627
630.007026707
629.650911292
1804.28391384
1806.088429
630.553241382
1802.50674623
1799.64578852
630.686761334
631.774305983
1802.11071832
1800.04543996
631.319165166
633.170117259
633.562870446
1800.69394648
1802.89748692
632.55470956
1800.37943917
632.114155108
1786.89974456
636.566995534
636.880443629
1788.55051524
638.361602084
1788.69447322
638.760237221
1790.87097427
1793.30562399
640.163240768
642.340196696
1790.90170594
1793.39400807
640.638751817
1788.309219
1785.67563528
637.065165086
637.429096341
639.446025042
1788.68152761
639.019832599
641.556845523
643.587705088
1793.94133085
1791.17071023
642.824792126
1793.77409509
640.977957678
7302.44501254
3629.71727607
40.1867154554
-27.227267834
3631.95716238
633.665890328
3630.16986852
3631.82507154
643.314777829
645.198124603
647.417738339
3631.78561191
3630.30280054
647.45392334
644.679349152
29.8003408206
40.9890249845
41.03976915
-23.0783602656
-23.1021750853
-23.085939712
41.703583737
42.3415142611
1794.62852836
1797.69982777
632.677719565
633.633979703
1797.58341405
632.952846591
1794.34626482
1796.64570932
1795.15736248
644.276816133
643.758080563
1796.46707707
1795.27751077
644.673413248
1796.98527806
1795.87329137
644.307927331
646.222108451
1795.6354808
645.23649191
1797.14805493
1797.88295799
1798.81686412
646.401771789
647.005712971
1798.2709973
645.908266546
1798.17523089
1796.48620696
1798.49803828
646.578323697
646.932197009
1797.83727589
646.03262932
1797.25552466
1794.65531866
1793.60091912
643.784531582
645.816749616
1792.7370394
644.838457933
1795.50320796
3655.86050624
3650.55879625
3649.53962153
3646.8647249
16.0345878682
16.8767140322
14.1378784172
15.7507718669
14.4562725874
-27.0886900829
-27.2381812478
-27.0830711471
-27.1532305889
-27.0763197899
-27.0950971415
3657.61555675
3656.28789984
631.421353542
629.930611052
3658.32557665
631.446316394
3654.47981666
3652.36625106
628.906628863
625.82785577
3656.81330951
3652.94338398
3653.20721232
630.213364347
632.587999989
626.739671412
629.045448929
3652.52032853
3650.4998276
632.742237608
629.834080562
629.156865696
627.689926066
3650.43277081
3648.58972578
626.01900559
627.944390085
625.431158769
3648.0336839
3647.98750818
3646.87922721
628.212819154
626.943016227
625.779626613
625.330760829
625.201488605
624.938879305
16.538730078
16.4204088145
17.9884374913
-23.208728188
-23.2169763041
-23.2126888218
-23.231511965
-23.2568609802
-23.2224438821
-23.2709170045
-23.2320810968
14.6257644565
13.3341765693
16.8359880042
14.7558163285
15.9300642541
-23.2307338477
-23.2521976402
-23.2249987155
-23.250178105
16.7224791401
16.3147580598
15.8767675005
-23.2818074479
-23.2561805133
-23.2770432363
-23.2385593776
15.053929744
14.4502168601
-23.2211140205
-23.2433280242
-23.2425952153
15.4968304936
14.9485044988
14.9929730331
-23.2645466648
-23.2280067665
-23.2560939587
-23.2300704989
1819.1512657
1820.36124334
630.281910773
631.422827872
1819.99401892
630.122415472
1819.71956612
1818.57954366
1818.84686856
630.7822063
628.58927986
1819.57144879
1817.8883289
629.419174833
1821.41230301
1819.68219886
632.245701285
632.550603696
1820.43766183
1820.61816077
633.335720955
1816.50932263
1817.94204808
627.76372327
627.823482923
1817.20735334
1817.10845687
626.885849883
1815.69602949
1815.23817329
626.706501491
624.982597916
1816.16010131
1814.84169626
625.845399757
1818.43094166
1818.75863034
631.261090555
628.945983411
1819.6390656
1817.7572474
629.953068332
1818.94567648
1820.87670966
632.064649863
631.367028134
1820.3708848
1819.22435292
630.791200131
1817.19919927
1815.62423126
627.693867245
627.707255481
1816.64674236
1816.00379334
628.718600276
1817.58369204
1816.3187574
630.060810191
628.558519586
1817.66412039
1816.29608704
629.533760462
1818.55942943
1820.88615149
632.397354143
631.454771807
1820.11681333
1819.15819855
631.222192381
1817.17895647
1815.55923326
631.45397992
628.954398273
1818.47998592
630.516310996
1814.65400391
1816.95249287
1816.06818765
630.175408505
629.019119146
1817.5047182
1815.54738779
629.928195124
1815.81680015
1813.18457454
628.361159757
628.513650518
1814.66433251
629.469862943
1813.85101478
1813.84467427
1814.61183725
626.856101608
625.483106472
1814.86934521
1813.68444316
626.110119959
1813.92293824
1815.02596636
627.504589957
626.992280455
1815.05264088
1813.9150115
626.540928091
1812.93167675
1812.11041979
626.146756107
625.022824857
1812.94570449
1812.08559681
625.695131927
1813.29682129
1814.7669339
628.159120934
627.375843176
1814.29334296
1813.72450644
627.331237692
1812.67563377
1812.48621952
627.686881462
626.338867132
1813.56446004
626.931040414
1811.84898359
1812.44400194
1812.01003452
626.510764867
625.821965454
1812.79703021
1811.74284496
626.516502912
1811.92983402
1810.7880706
625.778859309
625.679301692
1811.31877442
626.245233481
1811.271263
1810.69669771
1811.38472248
625.285447645
624.766315087
1811.15672618
1810.88031456
624.890062807
1810.3845681
625.200661531
1810.80659116
17100.3339833
17098.0101192
17097.3245326
17098.6161259
17098.6913467
17102.7135416
12202.1377152
12199.6467263
12199.1359421
12200.7366517
12200.5376227
12204.232679
18317.7250914
18319.2221241
17088.467149
17091.7761252
17095.0529503
17098.0841952
17103.0330305
17095.369431
18319.5192956
18320.3004875
17094.2659994
17094.2069063
17095.0764834
17095.7765812
17096.0156533
17098.9510469
17099.5690425
17096.5131278
17095.0274455
17094.9860263
17095.3598051
17095.393802
17095.5559914
17099.6570788
17102.299171
17098.7033855
17096.6753702
17096.4556727
17096.8082978
17096.6366775
17096.5209802
17100.6613618
17097.5131445
17097.3618524
17097.1383033
17101.2853897
13418.074319
13418.956729
12192.6354468
12192.7245001
12194.7029128
12200.2510843
12211.1724229
12171.5029744
13421.8647677
13421.7879856
12197.3453201
12197.0199907
12196.3450719
12195.9101401
12194.9506628
12189.5168905
12201.4233834
12198.8720132
12197.0306793
12196.4660031
12196.4138948
12196.0602345
12195.3585601
12197.1679608
12204.541062
12200.8211026
12198.6026041
12198.2540527
12198.6716729
12198.3240487
12197.3870423
12200.7534028
12199.5007256
12199.2012896
12198.5735478
12202.3012954
8519.06321321
8520.37483202
7293.09555028
7291.30004099
7295.17353469
7300.89206521
7309.73806093
7263.5645796
8523.5445492
8524.71071193
7292.76803503
7292.66236395
7296.0145954
7297.30720993
7293.92303689
7283.55054961
7304.61867409
7300.80833771
7296.30091176
7295.60016836
7297.59165407
7297.43775729
7294.71822587
7295.3437077
7312.61974016
7307.6142363
7302.23599299
7298.33507769
7298.09065061
7299.57932642
7299.12481465
7296.70302527
7299.58794343
7303.44047717
7299.8473686
7299.89820179
7301.21988985
7300.63126154
7298.52068185
7302.14194109
7302.4230833
7300.82107137
7304.76968438
3626.31021929
3627.72410691
3618.76721967
3611.31267958
3618.9880835
3627.24403864
3632.07800678
3637.83942717
3629.82568706
3629.38762429
3629.88373693
3619.75807162
3613.368579
3620.20834392
3625.16567036
3625.11624807
3620.20705347
3645.54703438
3639.35304022
3635.15182489
3630.74043359
3621.3476995
3616.34115255
3622.3226481
3626.17399879
3624.35790749
3622.01369646
3642.45259203
3638.80664978
3630.95125641
3622.83056502
3620.89811614
3625.5127972
3628.11892726
3625.44175793
3622.94180655
3631.76905437
3624.75354981
3623.8379557
3628.10123598
3629.18292473
3625.92058151
3624.439551
3630.69157917
3627.54552086
3627.04592642
17.1600474068
25.609733817
38.0402735068
45.0167855321
49.4816574467
43.802732071
40.8700036795
42.7060672026
16.4119870486
16.4743208769
18.0468290447
25.1139241805
37.1533224567
41.1376508766
45.0175814408
43.8575423408
41.8837429105
42.6659259257
14.7847157151
14.4815133543
18.3559276204
27.2523361711
35.6363076372
39.5826685044
42.2697270454
40.6278299942
40.7651781949
41.9840403707
14.3958038357
19.229083922
27.5726509708
34.4520935188
38.4192436288
40.5271629874
38.7134866479
39.7750278671
40.7875952685
28.7560055191
35.420957983
38.6447640135
40.1739775444
39.5599485953
40.5868062817
40.4741615281
40.7659198667
42.0804578764
42.0968595349
-27.180446492
-27.0734496365
-27.1612459787
-27.3981176387
-27.8087372825
-27.4886567005
-27.2727977891
-27.1538303512
-27.2361629264
-27.5920000833
-27.181078377
-27.0848790161
-27.10878697
-27.1028730691
-27.1370120803
-27.4595356329
-27.3905909995
-27.1957624449
-27.2853216324
-27.6197807655
-27.1773284721
-26.9995544043
-27.104506275
-27.0904170473
-27.1861449269
-27.2678794792
-27.4227635259
-27.1332892433
-27.2662817882
-27.4876130878
-27.013488941
-27.1236516145
-27.1403646015
-27.2401265693
-27.2130770663
-27.4246474649
-27.1113990305
-27.251332364
-27.4514268074
-27.487745823
-27.6241817206
-27.6062870517
-27.4102521183
-27.142078953
-27.2371809161
-27.5239591786
-27.0844160953
-27.2202674765
-27.6205549792
18318.7623193
18317.9229911
18319.0469125
15868.1756492
15869.4461201
15868.8607804
15869.7344162
18318.9438522
18319.846672
18319.6979788
15870.1047993
15865.2943923
15870.0236142
15867.6737994
18319.7454994
18321.8772863
18320.9589106
15870.5316883
15871.0146511
15872.6023924
15872.1041294
18319.9810154
18320.6608345
18320.4549282
15871.185484
15869.9488591
15872.0655005
15872.0146949
13418.875788
13419.4506053
13419.892402
10967.9855286
10969.0717242
10969.5975639
10970.4785581
13418.1559805
13419.5408215
13419.4049402
10969.1787634
10967.9576728
10970.3325408
10968.8986475
13422.0825407
13423.5473526
13423.305302
10972.415757
10973.0622443
10974.547605
10973.9782737
13420.4583456
13422.9790275
13425.0808151
10973.0830367
10967.9180088
10973.3344925
10974.7992954
8520.30291323
8520.92232801
8521.94110417
6071.72118143
6073.23622122
6073.55767117
6074.49767065
8518.86157854
8521.96860938
8520.59863068
6073.32161931
6071.70906937
6074.19887175
6073.95336486
8524.4333865
8525.86593325
8525.41224073
6075.73498671
6076.60531493
6078.01245706
6077.72621534
8519.18383739
8524.73197741
8524.49240285
6076.49599102
6073.45959208
6077.13541744
6076.3428276
3623.36598094
3625.75391853
615.44732815
616.67143023
3628.3312554
3627.86675889
3629.49768546
617.268599825
626.893854435
618.446837892
627.476486657
3624.31317834
3628.60594079
3624.82294913
630.748358581
634.148910951
630.934265092
633.464260629
3613.31863311
3618.86980554
3613.67925329
631.868540737
624.325981894
631.410678247
624.164387028
3614.52998163
3611.89657487
3615.44298493
625.797401609
640.949443633
625.445670393
638.749963037
3623.87587986
3619.65784788
3623.44427926
644.84667722
647.922054653
642.759313175
646.872104817
3629.90909322
3625.98024698
3627.68177684
647.624845681
645.114254774
646.825833721
644.587423148
3634.03164092
3628.04461504
3626.42714837
644.860862878
643.452854111
643.65124451
640.911343886
3609.48511332
3621.38261864
3615.08828277
644.763107852
609.070361135
641.180511035
616.67327836
3646.02775732
3640.21184154
627.315793083
619.641790754
626.744732942
622.561652259
3628.33917719
3635.35070039
3632.66117171
617.693586247
617.498912096
621.306799999
620.970575592
3630.75791896
3631.95784525
3632.06712594
619.235407196
627.651407069
622.203175892
629.947304041
3625.66616131
3630.67410101
3626.85615275
631.321858335
633.642929047
633.231125161
633.188631522
3615.04848151
3621.56396739
3616.9544177
631.424907543
624.165985788
630.326561946
623.716154711
3616.48189122
3615.18210253
3618.04724386
625.351810946
637.838576454
625.8167939
636.859369045
3623.37436172
3621.4163402
3624.20226038
641.735175705
646.018682349
640.362227975
643.941051002
3625.91104015
3625.62081384
3625.51602512
646.193414532
644.338622606
644.032730316
642.992920903
3623.15093389
3624.26456304
3622.62865766
643.324363335
640.222630264
642.088613664
638.977017785
3622.64174918
3620.77695566
3626.46097881
640.384734017
617.592328003
639.212526679
618.449956439
3642.45478187
3645.2806263
3643.37509487
626.104043907
623.453682695
624.874120757
623.428034742
3636.81623341
3641.3397666
3639.55930338
622.329600035
621.908561345
623.223420694
625.078105413
3633.48304802
3637.49719986
3634.55178428
623.066290176
630.791142538
626.659631315
631.40450815
3626.52752082
3630.76781918
3626.07930914
633.629479462
632.352378998
631.786977067
629.505833143
3617.25043786
3621.80468885
3619.0069919
629.560783337
623.926671194
628.316885225
626.707584594
3619.15251114
3619.13671793
3621.25626172
626.600768295
637.04261616
629.428531052
638.221145317
3624.92658292
3624.07744325
3626.25870094
640.449831489
643.626229637
641.003726486
643.284110656
3625.7289402
3627.28004998
3626.55813985
643.622103038
642.713045861
643.0811001
642.018573164
3622.83016025
3625.06036254
3623.37142156
641.85110543
638.650837533
641.098375197
637.810313423
3628.03679265
3622.41681769
3628.70256757
638.821915863
618.43902777
637.671162909
618.098920933
624.532099643
623.384409699
3641.00451299
3641.66031754
623.354740278
626.075311839
627.577731899
3635.25854148
3639.24783988
3635.5247994
627.863501102
630.746044726
628.858208848
630.577876877
3626.29285215
3631.25366849
3626.89565406
630.729863802
629.620214074
630.746077138
631.067480407
3620.69666064
3623.8594404
3622.15913941
628.711251251
627.927118575
630.619165018
631.436832416
3622.93550441
3622.5980447
3624.51620126
630.481777607
638.462371923
633.483694554
639.708765134
3627.5128101
3626.91008371
3628.63153462
640.96046454
643.312842585
641.682281569
643.484924002
3627.1211917
3628.73421643
3627.36984411
643.106134564
641.903313928
643.076405899
641.042279913
3623.75668132
3625.60399027
3624.12934353
640.856050957
637.579478009
640.0074711
637.668667389
3629.10510204
3623.41884575
3629.4798134
637.364532653
618.604984787
637.50550656
619.622121522
3627.58377112
3627.70853233
631.31819497
631.759017102
633.338587488
3623.29057121
3624.91024495
3623.61344448
631.387646467
632.275870213
632.909989711
633.99977953
3625.80357587
3624.42170104
3626.74999857
634.252538221
640.11523986
635.929954933
641.316083722
3629.49357883
3629.13141321
3630.3670142
641.804478688
643.687918914
642.900035119
644.349728535
3627.5487417
3629.83332037
3628.09967427
643.173196988
641.023056435
644.022989627
641.564038933
3624.68430249
3626.53728047
3625.58728845
640.114363011
638.030970776
640.811972605
639.532656518
3630.0988613
3625.59805399
3630.88916816
637.894602061
619.131501025
639.599763304
620.390641907
3631.06017582
644.924744142
3629.02344422
644.844157228
642.141452064
3626.75106747
641.347594956
640.288439367
3632.05237329
640.672274777
620.89274713
-23.1910765942
-23.180656644
-23.1930807477
-23.1813929959
17.1461015524
17.2001052975
-23.1600318527
-23.1674097772
-23.1500584186
-23.1533166523
20.0568700259
17.4625613055
19.918678671
-23.1529391376
-23.1470242292
-23.1535568199
-23.1385562589
32.0361852967
25.2547353978
31.6711336675
-23.1355943504
-23.1040502645
-23.1014239362
-23.0509528546
42.4404761347
37.6330280391
41.2024342627
-23.1297716794
-23.1115375499
-23.0517154047
-23.009367215
49.2460771248
42.685675848
45.7514623792
-23.0428554977
-23.0698817127
-22.9410649059
-22.9675132046
46.2745713136
47.2196146168
45.8548203047
-23.1320371138
-23.152255766
-23.0405957763
-23.1101711505
41.0374649697
44.2193072236
41.9208982732
-23.1463081784
-23.1763102238
-23.1167208648
-23.1718148963
41.8710455925
41.4804444013
42.4424449372
-23.1937313366
-23.1990523173
-23.192720657
-23.1967825239
46.2116612328
42.5663967371
47.1037386652
-23.2340391274
-23.1381982235
-23.2402956813
-23.1341709615
16.2675318528
15.1903497617
15.016203042
-23.2306044789
-23.2004229763
-23.2196001654
-23.1996384002
17.1550213072
15.4968304366
16.597283393
-23.1548694177
-23.1560459172
-23.1432782677
-23.1463415625
19.9401008233
18.4681645268
21.3553185935
-23.1527750139
-23.1158170824
-23.1278667435
-23.0972078913
31.2689627397
26.1794820057
31.2396233567
-23.0373442021
-22.9499167493
-22.9965379143
-22.9002424119
40.0475533735
36.4295914967
38.9191612119
-22.8531182283
-22.8087609138
-22.8205225891
-22.8088414318
43.3369395635
40.0696690695
41.6548969559
-22.9024218457
-22.9225716846
-22.9536234206
-22.9549593202
44.5003645815
43.4732728091
42.6599358408
-23.0081086425
-23.0989282653
-22.9566361703
-23.0612031592
42.347709515
42.216499347
41.4871559909
-23.07598762
-23.1804284186
-23.0695589487
-23.1871580974
42.78603872
41.5164272084
42.5726316638
-23.1920994188
-23.1866467772
-23.1913474233
-23.1831541676
47.3158476653
42.5109819249
47.0755144475
-23.2434889684
-23.1312431504
-23.2427239044
-23.1327129366
14.1802022646
14.6041893283
14.1507854099
-23.2196751766
-23.1819463751
-23.2234136998
-23.1691328689
15.8853888818
14.0710343423
15.3535539391
-23.128949165
-23.1434462798
-23.1136838939
-23.1507412366
22.3356920001
18.3876341689
22.8634033493
-23.1033582243
-23.0623729219
-23.1042069568
-23.0509112613
31.3904543075
27.3356039411
31.1105811465
-22.9620622642
-22.8842651459
-22.9544024739
-22.9061770731
37.778086137
34.8837928797
36.657011428
-22.8355196534
-22.8559245776
-22.8921574214
-22.9324996528
40.6863189319
38.9032338172
40.0278209282
-22.9861109853
-22.9710966104
-23.080077725
-23.0732033828
41.2471986106
41.1868241907
40.2588970296
-23.0390946719
-23.0832714213
-23.1088100146
-23.125818387
40.3002048344
39.3180203312
39.3943856791
-23.0786393388
-23.2040716908
-23.1004460578
-23.2251388979
42.3139781429
40.0599406961
41.9506473965
-23.1900806232
-23.1799811791
-23.1933854393
-23.1801993431
46.5596240556
41.3281609544
46.0390117058
-23.2248022785
-23.1393247154
-23.2248278319
-23.1456684554
15.7951078523
16.8646449241
-23.1110122912
-23.1480689956
-23.1474644997
23.5942203008
20.4969369549
24.3735271457
-23.0917030347
-23.0382023443
-23.0881928622
-23.0445264738
31.3308917771
28.1056160999
31.7891760694
-22.9679776694
-22.9400600018
-22.9939309447
-22.983976553
36.2385167368
34.6664927354
36.4918632273
-22.9319865047
-22.9785702997
-22.9740490569
-23.0111734707
39.5769657764
38.3706519821
39.4009511911
-23.0926723114
-23.0884457014
-23.0781920591
-23.0690191261
39.6697750253
40.3408931785
39.4292548812
-23.1078023007
-23.123621371
-23.0774493427
-23.1092214025
39.1910167865
38.950635659
39.4896219991
-23.0936980981
-23.2097118716
-23.0853425043
-23.1691809854
41.5437470157
40.0652340644
41.4132534016
-23.168691473
-23.1579932628
-23.1404013856
-23.1332242174
45.8499865344
40.4139849436
45.0018008732
-23.208578597
-23.1484665651
-23.1956404472
-23.1423758263
32.4348917503
33.7485361773
-23.0699010483
-23.0763412036
-23.0975319116
-23.1139891733
37.1148708066
36.739554892
38.2393469635
-23.0785017568
-23.0898792818
-23.0867123587
-23.0938687113
39.6046089407
39.3158660726
40.0264016239
-23.1319779276
-23.116860115
-23.120557382
-23.1127584495
39.7592478861
40.0501701718
39.9446885908
-23.0540868906
-23.1027307243
-23.0938799486
-23.1042626792
40.1567610386
40.1630277907
40.8611674655
-23.0639461389
-23.1192894376
-23.0536585221
-23.0920788949
41.5130371913
41.2473670459
41.8477527468
-23.1124046291
-23.1079016061
-23.0940736734
-23.0898314797
43.9847808452
41.0150046553
43.5626889513
-23.1847098148
-23.1370834903
-23.1715543012
-23.1494137346
40.1339865319
-23.0786286817
41.502735147
-23.0629581397
-23.079863407
-23.0686763165
-23.0749526125
42.5917219653
-23.0781168405
-23.0760611567
-23.0657985649
-23.0639597875
44.5596604595
-23.1637795789
-23.1498245817
-23.1521077621
-23.1392559522
1786.91110409
1788.03320044
613.74007519
615.629164345
1788.47962981
613.944870821
1786.20844982
1787.92835039
1790.54990034
615.952805362
615.735356902
1789.25417616
1789.32288851
614.541827001
1793.07123746
1790.39116564
619.886034383
617.56280455
1790.7402999
620.26610225
1792.87134068
1795.2959085
1796.9764624
623.06496812
626.968572925
1797.20710834
623.362599264
1795.01339927
1793.99500687
1792.58089977
617.963324457
621.089918876
1791.50185823
1795.09505711
620.684202723
1796.21018019
1798.69854247
627.237079562
624.051945269
1797.89922825
1797.23932012
623.731054223
1796.20030529
1797.8461539
633.525802062
630.631307024
1797.76535724
633.16892544
1796.6115383
1792.36618078
1787.15661082
634.871276285
633.519277552
1786.84768273
634.229443803
1792.91205391
1796.33095476
1798.79617504
630.706621884
633.177699565
1798.12370852
1796.89067172
633.028596222
1792.4628727
1787.42382762
633.465322112
633.997422362
1787.1255017
1792.83727203
633.985332916
1773.61341545
1780.27291942
629.346853156
631.461680373
1780.37708611
629.299999906
1773.10659118
1768.6812209
1765.61367208
626.253350633
624.599981854
1766.93006272
626.528200499
1767.79880916
1774.12198556
1781.13836367
631.432350317
628.914255348
1780.81763065
1774.5093733
629.055914095
1769.46199078
1768.90656423
624.370823404
626.016326542
1768.004537
1770.01726352
626.288780668
1769.16966855
1766.36605689
630.446451614
626.035146689
1767.691527
630.438886116
1768.08685591
1772.79974379
1776.45369818
636.270648615
640.667915168
1777.28455492
636.083240772
1771.8268708
1770.34984432
1769.80211763
625.715917563
629.529302424
1768.85908758
1771.47134218
629.938847985
1773.86451493
1778.95939151
639.502774692
634.438239707
1778.07897332
1774.96862272
635.023018937
1786.39006634
1781.33991221
647.405683589
644.711379632
1781.96921883
647.242621495
1786.1775441
1789.64568865
1792.11272567
648.103588336
647.898638807
1791.8358949
647.913395921
1789.76209715
1786.39263508
1782.95873182
643.593082091
645.404036777
1782.38549993
1786.67257029
646.152830623
1789.34733584
1791.02580509
647.383358087
646.520714496
1791.38956431
1789.29158583
647.202972308
1793.96264328
1793.70786721
646.836316329
647.687191118
1793.33755296
646.898387965
1794.49173417
1794.51364233
1795.7473309
645.763488442
645.09009753
1794.89962969
645.878529675
1795.25577024
1793.27446977
1792.20887505
647.310050496
646.262120417
1792.74238806
1792.60899723
646.633937428
1793.69941858
1792.84218589
644.885403097
645.509630395
1793.90698321
1792.85973069
645.763158751
1793.6326509
1795.57165703
644.49809409
644.617123637
1794.59360269
643.9878392
1794.74675624
1791.90743231
1790.53688278
643.797905428
642.90222313
1789.04032379
643.248304145
1793.20246575
1792.07730836
1792.01511096
644.130939599
642.622485794
1793.37462541
1790.39993222
643.267606264
1790.10193349
1785.1315014
641.756699834
641.668149855
1786.94373723
1788.2929535
642.379881409
1781.55806611
1787.31163081
648.954869341
644.010157335
1785.60385649
647.784234736
1783.45153196
1773.41480994
1776.88498145
656.262844954
611.538186752
654.050636476
1778.71942267
1776.73240444
1778.41026632
1781.0339705
642.265400584
643.95489489
1783.01461952
1776.15345619
645.266498096
1769.43114468
1783.15764805
614.375052364
648.331762913
1766.50579542
649.998637575
1781.1613796
1807.46711685
1811.47839331
624.666418195
626.825354052
1806.69912893
624.799458175
1811.32633049
1803.22194125
1796.85412193
622.176979235
620.476107734
1801.48777071
1799.40603914
622.657318767
1808.26025179
1811.13498475
626.808483613
625.393057639
1808.96669516
625.109333292
1811.25770729
1805.05732735
1804.02878135
621.475627922
623.867635871
1801.92529085
1806.5991282
623.331582364
1794.22829597
1793.37578139
616.789398356
618.846565794
1791.54178877
1796.27423253
618.146103256
1793.35976876
1791.84680428
616.668702239
618.633472282
1791.03860841
1793.73420259
618.055865949
1797.03248454
1801.75769979
619.972766868
620.520930618
1799.109685
1799.84955816
619.356550672
1795.93880157
1798.08407748
619.883978155
620.371001078
1795.87487433
1798.6005525
619.289966702
1796.79744208
1793.65902478
621.581405999
620.216943516
1795.88924549
1795.05889749
622.331052833
1798.43248877
1799.25598624
624.191935818
628.083048689
1797.79257953
1799.90366801
624.668992848
1797.8022983
1798.28616518
621.320744721
624.051600167
1796.57204515
1799.07631551
623.218359698
1799.18651181
1800.98560364
629.021361229
626.751435623
1800.42941131
1800.15661513
625.759655787
1798.11118877
1799.40711289
633.557970777
631.91554694
1797.46382937
1800.10076822
634.056318856
1793.78585536
1787.68268773
634.21894436
633.80395282
1793.27853025
1787.94256642
634.633104316
1798.2406013
1800.53616646
632.678395783
634.93906288
1800.4030719
1798.06399749
634.591390064
1793.8200325
1787.42237383
633.570527026
634.676190646
1787.85727978
1793.42218953
634.751202374
1774.59916494
1781.2331938
628.697326175
631.220273707
1774.62011199
1781.27411481
628.333670938
1770.38832588
1769.23917148
625.809973105
623.903066081
1770.27539915
1769.68112613
625.410326446
1774.69324629
1781.1091284
630.780655859
627.158685049
1781.28770778
1774.7573828
627.752998922
1770.71278766
1771.04709161
623.740758378
624.392755912
1770.36287435
1771.12148133
624.87371429
1773.16940617
1770.24271909
629.231707315
625.215527321
1772.30741295
1770.88464217
629.015093219
1776.69807077
1779.57807111
633.751379347
637.269021813
1775.7583563
1780.48445954
633.44014317
1774.06438224
1772.50632508
625.493281449
629.429090474
1771.76168054
1774.96658225
629.173921933
1777.62605916
1782.36297781
636.987574134
633.423947701
1781.40798164
1778.58304791
633.353583252
1787.24286307
1783.36721344
644.404844571
640.904784311
1786.82480182
1784.07538005
643.55450678
1789.34876019
1790.56755419
645.601526436
645.24674848
1789.10689338
1790.60939709
644.783240516
1787.92491839
1785.78082651
640.563067449
642.667848766
1784.89081289
1788.69987888
643.068014997
1789.80656216
1791.31220375
644.5039619
643.602191156
1790.82823372
1790.42183923
644.125206345
1791.65512419
1791.57019401
645.761499135
645.489883296
1791.92930024
1791.43205302
645.161455601
1791.63600713
1791.88474007
645.210993118
643.96605378
1792.11853008
1791.2001265
644.736493063
1791.62617188
1791.83895451
644.682714215
643.86363857
1791.49616603
1791.86517585
644.454667022
1791.48656831
1790.84719459
643.406183398
643.568851773
1790.83433117
1791.63284311
644.130717469
1788.01172239
1790.79363524
642.232555917
642.915486485
1788.97864244
1789.94521608
641.772729441
1785.67832082
1783.80652049
641.07727699
639.720929265
1786.67982184
1782.90691161
640.591628844
1787.49318823
1789.36189128
642.482481007
640.997744291
1789.47967567
1787.3019416
641.392910544
1785.16467033
1782.12578356
639.40416188
639.811039373
1782.40210668
1784.91719669
640.231753547
1774.69145436
1780.2732614
643.256596717
639.876660288
1775.58907262
1779.44238183
642.684677903
1765.57741354
1784.0221595
647.692600697
617.935342224
1766.4963402
646.814782376
1784.24093185
1774.5463992
1778.85693195
639.651119399
641.823400627
1779.05941911
1774.3485836
642.428607056
1765.9372959
1784.10891331
618.061482384
645.426558018
1765.83470054
646.598651291
1784.41360422
1809.57403787
1811.02542925
625.191174922
625.569374195
1809.35767229
624.808909719
1810.78626577
1808.2343232
1805.48824825
624.260457703
623.489351313
1807.42905313
1806.70231544
624.105687302
1809.5413907
1810.12289667
625.204648748
624.330895027
1809.42176271
624.561755757
1810.4506192
1808.56598021
1807.94653726
623.407804798
623.790972928
1807.48384236
1808.70218703
623.916672061
1803.7682379
1803.87620169
621.557347022
622.887428774
1802.21767378
1805.11459465
622.52486863
1802.76952398
1800.21955118
621.401020537
622.957828439
1800.91966429
1802.14378633
622.444046042
1805.24222779
1807.17566045
623.078014069
623.412154932
1806.33118428
1806.41956057
623.078125089
1804.36874073
1805.29368471
624.053261023
623.981117782
1803.8706108
1805.6296271
623.302092528
1801.98971249
1800.12037256
625.041730325
624.088146771
1800.50490695
1801.9950785
626.034231528
1801.96678322
1801.35330052
627.86619774
631.438637612
1801.05483013
1801.5138483
628.819852871
1803.3043461
1805.07387365
625.394833955
628.50550214
1803.69580459
1804.23839721
627.257364186
1802.5599692
1800.6247888
631.599610629
630.386754978
1801.25502659
1802.72129078
629.722499705
1796.39072032
1800.39374592
634.752338955
633.537022662
1797.46314413
1799.78995694
634.029931787
1791.57134265
1786.72019966
633.987654343
631.053573741
1792.65071343
1785.87390667
632.836846132
1795.20474947
1797.73546514
632.755778244
631.305336075