/*--------------------------------*- C++ -*----------------------------------*\
| =========                 |                                                 |
| \\      /  F ield         | OpenFOAM: The Open Source CFD Toolbox           |
|  \\    /   O peration     | Version:  v1906                                 |
|   \\  /    A nd           | Web:      www.OpenFOAM.com                      |
|    \\/     M anipulation  |                                                 |
\*---------------------------------------------------------------------------*/
FoamFile
{
    version     2.0;
    format      ascii;
    class       volVectorField;
    location    "14.4";
    object      force.turbine;
}
// * * * * * * * * * * * * * * * * * * * * * * * * * * * * * * * * * * * * * //

dimensions      [1 -2 -2 0 0 0 0];


internalField   nonuniform List<vector> 
28582
(
(0 0 0)
(0 0 0)
(0 0 0)
(0 0 0)
(0 0 0)
(0 0 0)
(0 0 0)
(0 0 0)
(0 0 0)
(0 0 0)
(0 0 0)
(0 0 0)
(0 0 0)
(0 0 0)
(0 0 0)
(0 0 0)
(0 0 0)
(0 0 0)
(0 0 0)
(0 0 0)
(0 0 0)
(0 0 0)
(0 0 0)
(0 0 0)
(0 0 0)
(0 0 0)
(0 0 0)
(0 0 0)
(0 0 0)
(0 0 0)
(0 0 0)
(0 0 0)
(0 0 0)
(0 0 0)
(0 0 0)
(0 0 0)
(0 0 0)
(0 0 0)
(0 0 0)
(0 0 0)
(0 0 0)
(0 0 0)
(0 0 0)
(0 0 0)
(0 0 0)
(0 0 0)
(0 0 0)
(0 0 0)
(0 0 0)
(0 0 0)
(0 0 0)
(0 0 0)
(0 0 0)
(0 0 0)
(0 0 0)
(0 0 0)
(0 0 0)
(0 0 0)
(0 0 0)
(0 0 0)
(0 0 0)
(0 0 0)
(0 0 0)
(0 0 0)
(0 0 0)
(0 0 0)
(0 0 0)
(0 0 0)
(0 0 0)
(0 0 0)
(0 0 0)
(0 0 0)
(0 0 0)
(0 0 0)
(0 0 0)
(0 0 0)
(0 0 0)
(0 0 0)
(0 0 0)
(0 0 0)
(0 0 0)
(0 0 0)
(0 0 0)
(0 0 0)
(0 0 0)
(0 0 0)
(0 0 0)
(0 0 0)
(0 0 0)
(0 0 0)
(0 0 0)
(0 0 0)
(0 0 0)
(0 0 0)
(0 0 0)
(0 0 0)
(0 0 0)
(0 0 0)
(0 0 0)
(0 0 0)
(0 0 0)
(0 0 0)
(0 0 0)
(0 0 0)
(0 0 0)
(0 0 0)
(0 0 0)
(0 0 0)
(0 0 0)
(0 0 0)
(0 0 0)
(0 0 0)
(0 0 0)
(0 0 0)
(0 0 0)
(0 0 0)
(0 0 0)
(0 0 0)
(0 0 0)
(0 0 0)
(0 0 0)
(0 0 0)
(0 0 0)
(0 0 0)
(0 0 0)
(0 0 0)
(0 0 0)
(0 0 0)
(0 0 0)
(0 0 0)
(0 0 0)
(0 0 0)
(0 0 0)
(0 0 0)
(0 0 0)
(0 0 0)
(0 0 0)
(0 0 0)
(0 0 0)
(0 0 0)
(0 0 0)
(0 0 0)
(0 0 0)
(0 0 0)
(0 0 0)
(0 0 0)
(0 0 0)
(0 0 0)
(0 0 0)
(0 0 0)
(0 0 0)
(0 0 0)
(0 0 0)
(0 0 0)
(0 0 0)
(0 0 0)
(0 0 0)
(0 0 0)
(0 0 0)
(0 0 0)
(0 0 0)
(0 0 0)
(0 0 0)
(0 0 0)
(0 0 0)
(0 0 0)
(0 0 0)
(0 0 0)
(0 0 0)
(0 0 0)
(0 0 0)
(0 0 0)
(0 0 0)
(0 0 0)
(0 0 0)
(0 0 0)
(0 0 0)
(0 0 0)
(0 0 0)
(0 0 0)
(0 0 0)
(0 0 0)
(0 0 0)
(0 0 0)
(0 0 0)
(0 0 0)
(0 0 0)
(0 0 0)
(0 0 0)
(0 0 0)
(0 0 0)
(0 0 0)
(0 0 0)
(0 0 0)
(0 0 0)
(0 0 0)
(0 0 0)
(0 0 0)
(0 0 0)
(0 0 0)
(0 0 0)
(0 0 0)
(0 0 0)
(0 0 0)
(0 0 0)
(0 0 0)
(0 0 0)
(0 0 0)
(0 0 0)
(0 0 0)
(0 0 0)
(0 0 0)
(0 0 0)
(0 0 0)
(0 0 0)
(0 0 0)
(0 0 0)
(-0.00314120235394 7.15747688689e-05 0)
(0 0 0)
(0 0 0)
(0 0 0)
(0 0 0)
(-2.21640183417e-05 3.89248112265e-07 0)
(0 0 0)
(-2.10419655628e-06 4.25168116278e-08 0)
(0 0 0)
(0 0 0)
(0 0 0)
(0 0 0)
(0 0 0)
(0 0 0)
(0 0 0)
(0 0 0)
(0 0 0)
(0 0 0)
(0 0 0)
(0 0 0)
(-0.0156155824883 0.000503327325932 0)
(0 0 0)
(0 0 0)
(0 0 0)
(-0.0262166649425 0.000669883447085 0)
(0 0 0)
(0 0 0)
(-0.0277726429645 0.000870336321256 0)
(-0.124467506701 0.00390055033786 0)
(-0.0706774550202 0.00180593745634 0)
(-0.869654617146 -0.0299733162711 0.00390105110323)
(-0.00511504163378 7.77972926615e-05 0)
(-0.0689980200831 0.00176302484075 0)
(0 0 0)
(0 0 0)
(0 0 0)
(0 0 0)
(0 0 0)
(-0.0156155856325 0.000503327427275 0)
(0 0 0)
(0 0 0)
(0 0 0)
(-0.0254093793563 0.000649255832837 0)
(0 0 0)
(0 0 0)
(0 0 0)
(0 0 0)
(0 0 0)
(0 0 0)
(0 0 0)
(0 0 0)
(-1.71315294515e-05 2.83248042823e-07 0)
(0 0 0)
(-9.82265077378e-06 1.62405033063e-07 0)
(-0.000169318728952 3.46767247408e-06 0)
(-0.000837927802007 1.71608846362e-05 0)
(-0.000106813931716 2.18756503283e-06 0)
(-0.000535276884821 1.09625493352e-05 0)
(0 0 0)
(0 0 0)
(-0.000313672602793 4.95027474575e-06 0)
(0 0 0)
(0 0 0)
(0 0 0)
(0 0 0)
(0 0 0)
(0 0 0)
(-0.014689793638 0.000334718514092 0)
(-0.000659612065976 1.31366027092e-05 0)
(-0.00327304578391 7.45789252282e-05 0)
(-3.57333747345e-05 6.82396625734e-07 0)
(-0.000206652847259 4.23228070849e-06 0)
(-3.82790457211e-06 7.73455774063e-08 0)
(-4.11257538758e-05 7.8537434217e-07 0)
(0 0 0)
(0 0 0)
(0 0 0)
(0 0 0)
(0 0 0)
(-0.000344144197385 5.43116712789e-06 0)
(0 0 0)
(0 0 0)
(0 0 0)
(0 0 0)
(0 0 0)
(0 0 0)
(0 0 0)
(0 0 0)
(0 0 0)
(0 0 0)
(0 0 0)
(0 0 0)
(0 0 0)
(0 0 0)
(0 0 0)
(0 0 0)
(0 0 0)
(0 0 0)
(0 0 0)
(0 0 0)
(-0.00480744059109 7.13136688828e-05 0)
(0 0 0)
(0 0 0)
(0 0 0)
(0 0 0)
(0 0 0)
(-0.00409887159515 6.23418411619e-05 0)
(0 0 0)
(0 0 0)
(0 0 0)
(0 0 0)
(0 0 0)
(0 0 0)
(0 0 0)
(0 0 0)
(0 0 0)
(0 0 0)
(0 0 0)
(0 0 0)
(0 0 0)
(0 0 0)
(0 0 0)
(0 0 0)
(0 0 0)
(0 0 0)
(0 0 0)
(0 0 0)
(0 0 0)
(0 0 0)
(-0.0345807865543 0.00096592301844 0)
(-0.0077308859417 0.000161561146107 0)
(-0.0126341945548 0.000264031181912 0)
(-0.00975502889171 0.00021197910088 0)
(-0.0185062955483 0.000516924530565 0)
(0 0 0)
(0 0 0)
(0 0 0)
(0 0 0)
(0 0 0)
(0 0 0)
(0 0 0)
(0 0 0)
(0 0 0)
(0 0 0)
(-0.00454472719907 6.9123087804e-05 0)
(0 0 0)
(-0.00759374981923 0.000165013991948 0)
(0 0 0)
(0 0 0)
(-0.124474399129 0.00344634320555 0)
(-0.0969782994557 0.00268505416177 0)
(-0.17478514717 0.00361015725004 6.11795557178e-05)
(-0.0377303667096 0.000964079457345 0)
(-0.447986188393 -0.0426066449736 0.00408710737342)
(-0.0502969984323 0.00140491392432 0)
(-0.0897028132786 0.00229206994498 0)
(-0.263474524847 0.00729486259743 0)
(-2.0784872774 -0.248749522424 0.0228508120109)
(-0.456266966411 -0.0123478115051 0.00178735453691)
(-0.354268010187 0.00901955940328 0)
(-1.17893265658 -0.148106997493 0.0134778512496)
(-0.191306141157 0.00487059811995 0)
(-0.542137873359 0.00307189102657 0.000879714947411)
(-0.0587962624369 0.00162790180936 0)
(-0.0086040028154 0.000186967030137 0)
(-0.0178230422014 0.000455411127755 0)
(-0.0177015473736 0.000452306714044 0)
(-0.0237579429036 0.000663615441057 0)
(-0.0237560297054 0.000663562000914 0)
(-0.0424270964101 0.00108408943912 0)
(-0.124454552629 0.00344579371223 0)
(-0.096927678091 0.0026836525997 0)
(-0.167794310887 0.00427199383253 0)
(-0.0371974436166 0.000950462303549 0)
(-0.0502847558617 0.00140457196042 0)
(-0.0890673616448 0.00227583300058 0)
(-0.232495313351 0.00643713606247 0)
(0 0 0)
(0 0 0)
(0 0 0)
(0 0 0)
(0 0 0)
(0 0 0)
(0 0 0)
(0 0 0)
(0 0 0)
(0 0 0)
(0 0 0)
(0 0 0)
(0 0 0)
(0 0 0)
(0 0 0)
(0 0 0)
(0 0 0)
(0 0 0)
(0 0 0)
(0 0 0)
(0 0 0)
(0 0 0)
(0 0 0)
(-0.00448831486084 6.82650836075e-05 0)
(0 0 0)
(-0.00759323542057 0.000165002813943 0)
(0 0 0)
(0 0 0)
(0 0 0)
(-0.0345664391528 0.000965522261638 0)
(-0.0123726148236 0.000258564651751 0)
(-0.0074647965893 0.000156000373245 0)
(-0.0185027701221 0.000516826057085 0)
(0 0 0)
(-0.00975061101429 0.000211883099352 0)
(0 0 0)
(0 0 0)
(0 0 0)
(0 0 0)
(0 0 0)
(0 0 0)
(0 0 0)
(0 0 0)
(0 0 0)
(0 0 0)
(0 0 0)
(0 0 0)
(0 0 0)
(0 0 0)
(0 0 0)
(0 0 0)
(0 0 0)
(0 0 0)
(0 0 0)
(0 0 0)
(0 0 0)
(0 0 0)
(0 0 0)
(0 0 0)
(0 0 0)
(0 0 0)
(0 0 0)
(0 0 0)
(0 0 0)
(0 0 0)
(0 0 0)
(0 0 0)
(0 0 0)
(0 0 0)
(0 0 0)
(0 0 0)
(-0.0149770822633 0.000299222393901 0)
(0 0 0)
(0 0 0)
(0 0 0)
(0 0 0)
(0 0 0)
(0 0 0)
(0 0 0)
(-0.00334252909275 6.67793325318e-05 0)
(0 0 0)
(0 0 0)
(0 0 0)
(0 0 0)
(0 0 0)
(0 0 0)
(0 0 0)
(0 0 0)
(0 0 0)
(0 0 0)
(0 0 0)
(0 0 0)
(0 0 0)
(0 0 0)
(0 0 0)
(0 0 0)
(0 0 0)
(0 0 0)
(0 0 0)
(0 0 0)
(0 0 0)
(0 0 0)
(0 0 0)
(0 0 0)
(0 0 0)
(0 0 0)
(0 0 0)
(-0.321107143272 0.00886568684659 0)
(-0.00769118840036 0.000153659822697 0)
(0 0 0)
(0 0 0)
(0 0 0)
(0 0 0)
(0 0 0)
(0 0 0)
(-0.0704968552646 0.00196556859276 0)
(0 0 0)
(0 0 0)
(0 0 0)
(0 0 0)
(0 0 0)
(0 0 0)
(0 0 0)
(0 0 0)
(0 0 0)
(0 0 0)
(0 0 0)
(0 0 0)
(0 0 0)
(0 0 0)
(0 0 0)
(0 0 0)
(0 0 0)
(0 0 0)
(0 0 0)
(0 0 0)
(0 0 0)
(0 0 0)
(0 0 0)
(0 0 0)
(0 0 0)
(0 0 0)
(0 0 0)
(-1.50788285832 0.0540680079373 0)
(-0.0433171982207 0.00155921174616 0)
(0 0 0)
(0 0 0)
(0 0 0)
(0 0 0)
(0 0 0)
(0 0 0)
(-0.330759948231 0.0117347156679 0)
(-0.00655431659759 0.000258608241309 0)
(0 0 0)
(0 0 0)
(0 0 0)
(0 0 0)
(0 0 0)
(0 0 0)
(0 0 0)
(0 0 0)
(0 0 0)
(0 0 0)
(0 0 0)
(0 0 0)
(0 0 0)
(0 0 0)
(0 0 0)
(0 0 0)
(0 0 0)
(0 0 0)
(0 0 0)
(0 0 0)
(0 0 0)
(0 0 0)
(0 0 0)
(0 0 0)
(0 0 0)
(0 0 0)
(0 0 0)
(0 0 0)
(0 0 0)
(0 0 0)
(0 0 0)
(0 0 0)
(0 0 0)
(-2.49916450447 0.0783185685213 0)
(-0.0754965621783 0.00236590375204 0)
(0 0 0)
(0 0 0)
(0 0 0)
(0 0 0)
(0 0 0)
(0 0 0)
(-2.50001964396 0.0783453667975 0)
(-0.557827353624 0.0174811380922 0)
(-0.0156155449972 0.000503326117504 0)
(0 0 0)
(0 0 0)
(0 0 0)
(0 0 0)
(0 0 0)
(0 0 0)
(-0.0457900541112 0.00143496415866 0)
(-0.0754950532224 0.00236585646453 0)
(-0.0156154822904 0.000503324096315 0)
(0 0 0)
(0 0 0)
(0 0 0)
(0 0 0)
(0 0 0)
(0 0 0)
(0 0 0)
(0 0 0)
(0 0 0)
(0 0 0)
(0 0 0)
(0 0 0)
(0 0 0)
(0 0 0)
(0 0 0)
(0 0 0)
(0 0 0)
(0 0 0)
(0 0 0)
(0 0 0)
(0 0 0)
(0 0 0)
(0 0 0)
(0 0 0)
(0 0 0)
(0 0 0)
(-0.0734926120359 0.00167332385929 0)
(-0.00229506574959 5.22948801309e-05 0)
(0 0 0)
(0 0 0)
(0 0 0)
(0 0 0)
(0 0 0)
(0 0 0)
(-0.0412351804652 0.000938867314731 0)
(-0.0721845352064 0.00164354078168 0)
(-0.0166619746463 0.000379656211169 0)
(-0.000416431585484 6.57198219607e-06 0)
(0 0 0)
(0 0 0)
(0 0 0)
(0 0 0)
(0 0 0)
(0 0 0)
(-0.00116753295918 2.32521771899e-05 0)
(-0.00223047099599 5.08230378113e-05 0)
(-0.000402823965152 6.35723134222e-06 0)
(0 0 0)
(0 0 0)
(0 0 0)
(0 0 0)
(0 0 0)
(0 0 0)
(0 0 0)
(0 0 0)
(0 0 0)
(0 0 0)
(0 0 0)
(0 0 0)
(0 0 0)
(0 0 0)
(0 0 0)
(0 0 0)
(0 0 0)
(0 0 0)
(0 0 0)
(0 0 0)
(0 0 0)
(0 0 0)
(0 0 0)
(0 0 0)
(0 0 0)
(0 0 0)
(-0.000169515846292 3.17051245111e-06 0)
(-0.000173107898761 3.23769582851e-06 0)
(-2.30424612957e-05 4.04675470984e-07 0)
(0 0 0)
(0 0 0)
(0 0 0)
(0 0 0)
(0 0 0)
(0 0 0)
(0 0 0)
(-2.27576290133e-05 3.99673199891e-07 0)
(-2.32308405843e-05 4.07983818835e-07 0)
(-2.19817428062e-06 4.44156994437e-08 0)
(0 0 0)
(0 0 0)
(0 0 0)
(0 0 0)
(0 0 0)
(0 0 0)
(0 0 0)
(0 0 0)
(0 0 0)
(0 0 0)
(0 0 0)
(0 0 0)
(0 0 0)
(0 0 0)
(0 0 0)
(0 0 0)
(0 0 0)
(0 0 0)
(0 0 0)
(0 0 0)
(0 0 0)
(0 0 0)
(0 0 0)
(0 0 0)
(0 0 0)
(0 0 0)
(0 0 0)
(0 0 0)
(0 0 0)
(0 0 0)
(0 0 0)
(0 0 0)
(0 0 0)
(0 0 0)
(0 0 0)
(0 0 0)
(-0.00334211621215 6.67710837207e-05 0)
(-0.00908581887603 0.000181522704278 0)
(-0.00202733684306 4.05035221653e-05 0)
(-0.0863653556312 0.00207236423461 0)
(-0.0176944761318 0.000353512347325 0)
(-0.0523894624476 0.00125710184892 0)
(-0.0107319379002 0.000214409996102 0)
(0 0 0)
(0 0 0)
(0 0 0)
(-0.00239499941771 4.78489365659e-05 0)
(0 0 0)
(0 0 0)
(0 0 0)
(0 0 0)
(0 0 0)
(0 0 0)
(-0.0176964715209 0.000353552212573 0)
(-0.00394867394424 7.88893089827e-05 0)
(-0.00394876645361 7.88911571981e-05 0)
(0 0 0)
(0 0 0)
(0 0 0)
(0 0 0)
(0 0 0)
(0 0 0)
(0 0 0)
(0 0 0)
(-0.0705154758619 0.00196608776573 0)
(-0.194737881592 0.00537666355776 0)
(-0.0427671089405 0.00119241753155 0)
(-0.800096642065 0.025605643736 0)
(-0.176868919941 0.00568081056871 0)
(-0.485251357774 0.0155295907223 0)
(-0.107273184616 0.00344548177887 0)
(0 0 0)
(-0.00466483875644 9.31973394633e-05 0)
(0 0 0)
(-0.0227824645465 0.000756134981805 0)
(0 0 0)
(-0.0121639393917 0.000393831721086 0)
(0 0 0)
(-0.0148829737989 0.000405382648523 0)
(-0.0148853505976 0.000405447387798 0)
(-0.0028293352847 5.65263956057e-05 0)
(-0.176793327485 0.00567838263268 0)
(-0.0375545803229 0.00124641176775 0)
(-0.0375533242906 0.00124637008087 0)
(-0.00737695871841 0.000238843704732 0)
(0 0 0)
(0 0 0)
(0 0 0)
(-0.00334243099681 6.67773727039e-05 0)
(0 0 0)
(0 0 0)
(0 0 0)
(-0.330876159764 0.0117388386257 0)
(-0.899097436477 0.0318982175177 0)
(-0.200684428967 0.00711989080148 0)
(-2.20005063603 0.0780537911171 0)
(-0.485379890227 0.01709286728 0)
(-1.31899423178 0.0464489646167 0)
(-0.29438828966 0.010367013684 0)
(0 0 0)
(-0.0262729793266 0.00094570146859 0)
(0 0 0)
(-0.0656937315745 0.00231343378153 0)
(0 0 0)
(-0.0398451859488 0.00140316582718 0)
(0 0 0)
(-0.0738250564948 0.00261916852923 0)
(-0.0738246584926 0.00261915440889 0)
(-0.014027190847 0.000552514244004 0)
(-0.485302977287 0.0170901587568 0)
(-0.108301898812 0.0038138992155 0)
(-0.108304752327 0.00381399970331 0)
(-0.0241665383189 0.000851035323914 0)
(0 0 0)
(0 0 0)
(0 0 0)
(-0.0134164888521 0.000491104642651 0)
(0 0 0)
(0 0 0)
(0 0 0)
(-6.98255651087 0.223824499615 0)
(-4.14672544025 0.130627273014 0)
(-3.74857170623 0.0954375337587 0)
(-1.75912618203 0.0447868355043 0)
(-0.557770571323 0.0174793586542 0)
(-1.51612869039 0.0475122900127 0)
(-0.338324794329 0.0106023887342 0)
(-2.27248337097 0.0578567586349 0)
(-0.238620703682 0.00607521297387 0)
(-1.06718788136 0.0271702897625 0)
(-0.112608618435 0.00286698232438 0)
(0 0 0)
(-0.0457909596561 0.00143499253654 0)
(0 0 0)
(-0.0863543708058 0.00220651115285 0)
(0 0 0)
(-0.0407466079268 0.0010411499035 0)
(0 0 0)
(0 0 0)
(0 0 0)
(0 0 0)
(0 0 0)
(0 0 0)
(0 0 0)
(0 0 0)
(0 0 0)
(0 0 0)
(0 0 0)
(0 0 0)
(0 0 0)
(0 0 0)
(0 0 0)
(0 0 0)
(0 0 0)
(0 0 0)
(0 0 0)
(0 0 0)
(0 0 0)
(0 0 0)
(0 0 0)
(0 0 0)
(0 0 0)
(0 0 0)
(0 0 0)
(0 0 0)
(0 0 0)
(0 0 0)
(0 0 0)
(0 0 0)
(0 0 0)
(0 0 0)
(0 0 0)
(0 0 0)
(0 0 0)
(0 0 0)
(0 0 0)
(0 0 0)
(0 0 0)
(0 0 0)
(0 0 0)
(-0.338337737969 0.0106027943607 0)
(-0.557826427584 0.0174811090721 0)
(-1.29107611166 -0.0189357065242 0.00387797000089)
(-2.27503256623 0.0579216603968 0)
(-0.115050359482 0.00292914833369 0)
(-0.240443672244 0.00612162521759 0)
(-1.51632808742 0.0475185386968 0)
(-0.557826152167 0.0174811004411 0)
(-0.338339681413 0.0106028552642 0)
(-2.26982514606 0.0577890810099 0)
(-1.06611735794 0.0271430345511 0)
(-0.239551765469 0.00609891753327 0)
(-0.112016186352 0.00285189917769 0)
(-0.124469044455 0.00390059852783 0)
(-0.124468193545 0.0039005718621 0)
(-0.027772562335 0.000870333794497 0)
(-0.64646710383 0.0164588624363 0)
(-0.0670267051596 0.00171265416091 0)
(-0.0667226720008 0.00170488556102 0)
(-0.00483070097155 7.34726096386e-05 0)
(0 0 0)
(0 0 0)
(0 0 0)
(-0.0246440983126 0.00062970151101 0)
(0 0 0)
(0 0 0)
(0 0 0)
(0 0 0)
(0 0 0)
(0 0 0)
(0 0 0)
(0 0 0)
(0 0 0)
(0 0 0)
(0 0 0)
(0 0 0)
(0 0 0)
(0 0 0)
(0 0 0)
(0 0 0)
(0 0 0)
(0 0 0)
(0 0 0)
(0 0 0)
(0 0 0)
(0 0 0)
(0 0 0)
(0 0 0)
(0 0 0)
(0 0 0)
(0 0 0)
(0 0 0)
(0 0 0)
(0 0 0)
(0 0 0)
(0 0 0)
(0 0 0)
(0 0 0)
(0 0 0)
(0 0 0)
(0 0 0)
(0 0 0)
(0 0 0)
(0 0 0)
(0 0 0)
(0 0 0)
(0 0 0)
(0 0 0)
(0 0 0)
(-0.0754950290848 0.00236585570811 0)
(0 0 0)
(0 0 0)
(-0.0416567116971 0.00106440470926 0)
(-0.08692597061 0.00222111656693 0)
(0 0 0)
(0 0 0)
(-0.0457899643489 0.0014349613457 0)
(0 0 0)
(0 0 0)
(-0.0865932524771 0.0022126150138 0)
(-0.0405310749809 0.00103564264493 0)
(0 0 0)
(0 0 0)
(0 0 0)
(0 0 0)
(0 0 0)
(-0.0245266475903 0.000626700431548 0)
(0 0 0)
(0 0 0)
(0 0 0)
(0 0 0)
(0 0 0)
(0 0 0)
(0 0 0)
(0 0 0)
(0 0 0)
(0 0 0)
(0 0 0)
(0 0 0)
(0 0 0)
(0 0 0)
(0 0 0)
(0 0 0)
(0 0 0)
(0 0 0)
(0 0 0)
(0 0 0)
(0 0 0)
(0 0 0)
(0 0 0)
(0 0 0)
(0 0 0)
(0 0 0)
(0 0 0)
(0 0 0)
(0 0 0)
(0 0 0)
(0 0 0)
(0 0 0)
(0 0 0)
(0 0 0)
(0 0 0)
(0 0 0)
(0 0 0)
(0 0 0)
(0 0 0)
(0 0 0)
(0 0 0)
(0 0 0)
(0 0 0)
(0 0 0)
(0 0 0)
(0 0 0)
(0 0 0)
(0 0 0)
(0 0 0)
(0 0 0)
(0 0 0)
(0 0 0)
(0 0 0)
(0 0 0)
(0 0 0)
(0 0 0)
(0 0 0)
(0 0 0)
(0 0 0)
(0 0 0)
(0 0 0)
(0 0 0)
(0 0 0)
(0 0 0)
(0 0 0)
(0 0 0)
(0 0 0)
(0 0 0)
(0 0 0)
(0 0 0)
(0 0 0)
(0 0 0)
(0 0 0)
(0 0 0)
(0 0 0)
(0 0 0)
(0 0 0)
(0 0 0)
(0 0 0)
(0 0 0)
(0 0 0)
(0 0 0)
(0 0 0)
(0 0 0)
(0 0 0)
(0 0 0)
(0 0 0)
(0 0 0)
(0 0 0)
(0 0 0)
(0 0 0)
(0 0 0)
(0 0 0)
(0 0 0)
(0 0 0)
(0 0 0)
(0 0 0)
(0 0 0)
(0 0 0)
(0 0 0)
(0 0 0)
(0 0 0)
(0 0 0)
(0 0 0)
(0 0 0)
(0 0 0)
(0 0 0)
(0 0 0)
(0 0 0)
(0 0 0)
(0 0 0)
(0 0 0)
(0 0 0)
(0 0 0)
(0 0 0)
(0 0 0)
(0 0 0)
(0 0 0)
(0 0 0)
(0 0 0)
(0 0 0)
(0 0 0)
(0 0 0)
(0 0 0)
(0 0 0)
(0 0 0)
(0 0 0)
(0 0 0)
(0 0 0)
(0 0 0)
(0 0 0)
(0 0 0)
(0 0 0)
(0 0 0)
(0 0 0)
(0 0 0)
(0 0 0)
(0 0 0)
(0 0 0)
(0 0 0)
(0 0 0)
(0 0 0)
(0 0 0)
(0 0 0)
(0 0 0)
(0 0 0)
(0 0 0)
(0 0 0)
(0 0 0)
(0 0 0)
(0 0 0)
(0 0 0)
(0 0 0)
(0 0 0)
(0 0 0)
(0 0 0)
(0 0 0)
(0 0 0)
(0 0 0)
(0 0 0)
(0 0 0)
(0 0 0)
(0 0 0)
(0 0 0)
(0 0 0)
(0 0 0)
(0 0 0)
(0 0 0)
(0 0 0)
(0 0 0)
(0 0 0)
(0 0 0)
(0 0 0)
(-0.00183633268867 3.76069849443e-05 0)
(-0.00285001187332 5.83665227288e-05 0)
(-0.00119429927395 2.44594248004e-05 0)
(-0.00188856801592 3.86767329139e-05 0)
(-0.194509982874 0.00442871992432 0)
(-0.120600042537 0.00274589408402 0)
(-0.00316948992736 6.49092404196e-05 0)
(-0.00187098559932 3.83166556358e-05 0)
(-0.00233966088196 4.79148425039e-05 0)
(-0.00144996910968 2.96955806426e-05 0)
(-0.0165827363806 0.000377850704897 0)
(-0.0450182308046 0.00102500207329 0)
(-0.0100712198512 0.000229480673912 0)
(-0.000761693618342 1.55995973414e-05 0)
(-0.000185691666721 3.8029926479e-06 0)
(-0.000666411321446 1.36482018858e-05 0)
(-0.000155949965708 3.19387823642e-06 0)
(0 0 0)
(-0.00132694315168 2.64269347096e-05 0)
(0 0 0)
(-2.58885670387e-05 4.28034517639e-07 0)
(0 0 0)
(-1.58614331641e-05 2.62248616669e-07 0)
(0 0 0)
(0 0 0)
(0 0 0)
(0 0 0)
(0 0 0)
(0 0 0)
(0 0 0)
(0 0 0)
(0 0 0)
(0 0 0)
(0 0 0)
(0 0 0)
(0 0 0)
(0 0 0)
(0 0 0)
(0 0 0)
(0 0 0)
(0 0 0)
(0 0 0)
(0 0 0)
(0 0 0)
(0 0 0)
(0 0 0)
(0 0 0)
(0 0 0)
(0 0 0)
(0 0 0)
(0 0 0)
(0 0 0)
(0 0 0)
(0 0 0)
(0 0 0)
(0 0 0)
(0 0 0)
(0 0 0)
(0 0 0)
(0 0 0)
(0 0 0)
(0 0 0)
(0 0 0)
(0 0 0)
(0 0 0)
(0 0 0)
(-0.0703059268201 0.00160076749947 0)
(-0.0091612341818 0.000208745933956 0)
(-0.0157191970439 0.000358174281199 0)
(-0.000636308962133 1.30317011394e-05 0)
(-0.00107109664701 2.19362168787e-05 0)
(-0.000144629915359 2.96204194021e-06 0)
(-0.000222314773897 4.55303926975e-06 0)
(-0.0446716006716 0.00101710979057 0)
(-0.0162990475058 0.000371386630521 0)
(-0.0100989864992 0.000230113358849 0)
(-0.00112497979346 2.30397516438e-05 0)
(-0.00067720970746 1.38693544198e-05 0)
(-0.000207910155488 4.25803056597e-06 0)
(-0.000129020594167 2.64236074622e-06 0)
(-0.00380823911296 8.67737266165e-05 0)
(-0.00378637996068 8.6275648621e-05 0)
(-0.000821765447008 1.63659926104e-05 0)
(-0.000257812286747 5.28003355427e-06 0)
(-5.32967243106e-05 1.01780212763e-06 0)
(-4.616045118e-05 8.81521444913e-07 0)
(-5.3436575021e-06 1.07972460435e-07 0)
(0 0 0)
(0 0 0)
(0 0 0)
(0 0 0)
(0 0 0)
(0 0 0)
(0 0 0)
(0 0 0)
(0 0 0)
(0 0 0)
(0 0 0)
(0 0 0)
(0 0 0)
(0 0 0)
(0 0 0)
(0 0 0)
(0 0 0)
(0 0 0)
(0 0 0)
(0 0 0)
(0 0 0)
(0 0 0)
(0 0 0)
(0 0 0)
(0 0 0)
(0 0 0)
(0 0 0)
(0 0 0)
(0 0 0)
(0 0 0)
(0 0 0)
(0 0 0)
(0 0 0)
(0 0 0)
(0 0 0)
(0 0 0)
(0 0 0)
(0 0 0)
(0 0 0)
(0 0 0)
(0 0 0)
(0 0 0)
(0 0 0)
(0 0 0)
(0 0 0)
(0 0 0)
(0 0 0)
(0 0 0)
(0 0 0)
(-0.00214196896407 4.88064493315e-05 0)
(0 0 0)
(0 0 0)
(-1.59449616099e-05 2.63629653247e-07 0)
(-2.30123248457e-05 3.80479512455e-07 0)
(0 0 0)
(0 0 0)
(-0.001302652453 2.59431696688e-05 0)
(0 0 0)
(0 0 0)
(-1.85006721467e-05 3.0588507531e-07 0)
(-1.15414579011e-05 1.90823322054e-07 0)
(0 0 0)
(0 0 0)
(0 0 0)
(0 0 0)
(0 0 0)
(0 0 0)
(0 0 0)
(0 0 0)
(0 0 0)
(0 0 0)
(0 0 0)
(0 0 0)
(0 0 0)
(0 0 0)
(0 0 0)
(0 0 0)
(0 0 0)
(0 0 0)
(0 0 0)
(0 0 0)
(0 0 0)
(0 0 0)
(0 0 0)
(0 0 0)
(0 0 0)
(0 0 0)
(0 0 0)
(0 0 0)
(0 0 0)
(0 0 0)
(0 0 0)
(0 0 0)
(0 0 0)
(0 0 0)
(0 0 0)
(0 0 0)
(0 0 0)
(0 0 0)
(0 0 0)
(0 0 0)
(0 0 0)
(0 0 0)
(0 0 0)
(0 0 0)
(0 0 0)
(0 0 0)
(0 0 0)
(0 0 0)
(0 0 0)
(0 0 0)
(0 0 0)
(0 0 0)
(0 0 0)
(0 0 0)
(0 0 0)
(0 0 0)
(0 0 0)
(0 0 0)
(0 0 0)
(0 0 0)
(0 0 0)
(0 0 0)
(0 0 0)
(0 0 0)
(0 0 0)
(0 0 0)
(0 0 0)
(0 0 0)
(0 0 0)
(0 0 0)
(0 0 0)
(0 0 0)
(0 0 0)
(0 0 0)
(0 0 0)
(0 0 0)
(0 0 0)
(0 0 0)
(0 0 0)
(0 0 0)
(0 0 0)
(0 0 0)
(0 0 0)
(0 0 0)
(0 0 0)
(0 0 0)
(0 0 0)
(0 0 0)
(0 0 0)
(0 0 0)
(0 0 0)
(0 0 0)
(0 0 0)
(0 0 0)
(0 0 0)
(0 0 0)
(0 0 0)
(0 0 0)
(0 0 0)
(0 0 0)
(0 0 0)
(0 0 0)
(0 0 0)
(0 0 0)
(0 0 0)
(0 0 0)
(0 0 0)
(0 0 0)
(0 0 0)
(0 0 0)
(0 0 0)
(0 0 0)
(0 0 0)
(0 0 0)
(0 0 0)
(0 0 0)
(0 0 0)
(0 0 0)
(0 0 0)
(0 0 0)
(0 0 0)
(0 0 0)
(0 0 0)
(0 0 0)
(0 0 0)
(0 0 0)
(0 0 0)
(0 0 0)
(0 0 0)
(0 0 0)
(0 0 0)
(0 0 0)
(0 0 0)
(0 0 0)
(0 0 0)
(0 0 0)
(0 0 0)
(0 0 0)
(0 0 0)
(0 0 0)
(0 0 0)
(0 0 0)
(0 0 0)
(0 0 0)
(0 0 0)
(0 0 0)
(0 0 0)
(0 0 0)
(0 0 0)
(0 0 0)
(0 0 0)
(0 0 0)
(0 0 0)
(0 0 0)
(0 0 0)
(0 0 0)
(0 0 0)
(0 0 0)
(0 0 0)
(0 0 0)
(0 0 0)
(0 0 0)
(0 0 0)
(0 0 0)
(0 0 0)
(0 0 0)
(0 0 0)
(0 0 0)
(0 0 0)
(0 0 0)
(0 0 0)
(0 0 0)
(0 0 0)
(0 0 0)
(0 0 0)
(0 0 0)
(0 0 0)
(0 0 0)
(0 0 0)
(0 0 0)
(0 0 0)
(0 0 0)
(0 0 0)
(0 0 0)
(-6.82219471543 0.189384672893 0)
(-5.30006569507 0.146743792498 0)
(-5.45677698526 0.138927938041 0)
(-3.29730825271 0.0839484988797 0)
(-4.67642286808 0.129476890754 0)
(-4.80019803672 0.12221163101 0)
(-7.74034066479 0.215128366175 0)
(-5.29822777873 0.146692905806 0)
(-2.50154875626 0.0692607927398 0)
(-2.56387330539 0.0652754607121 0)
(-2.56177113925 0.0652219401801 0)
(-3.64061241326 0.100798235961 0)
(-3.64043219494 0.100793246226 0)
(-3.7301968377 0.094969715007 0)
(-1.51741606135 0.0420129486032 0)
(-3.21392609006 0.0889845014005 0)
(-1.21475748733 0.030927368553 0)
(-1.99912512404 0.0508971380208 0)
(-2.83563126121 0.0785105901205 0)
(-1.06962409659 0.0272323150863 0)
(-1.71989988268 0.0476191515395 0)
(-0.716622356024 0.0198412412907 0)
(-0.338498923691 0.00937207549433 0)
(-0.573385169288 0.0145982178651 0)
(-0.210588697866 0.00536152634571 0)
(-0.298661414139 0.00826908780104 0)
(-0.505240481762 0.0128632741517 0)
(-0.812238990269 0.0224885948033 0)
(-1.18152957044 0.0327132039661 0)
(-1.517007473 0.0420016359503 0)
(-1.55532069711 0.0395980077664 0)
(-0.57147208191 0.0145495112228 0)
(-2.20766620067 0.0611240179832 0)
(-0.811940750334 0.0224803373851 0)
(-0.83256684754 0.0211969072077 0)
(-0.55807544778 0.0154515269091 0)
(-0.159877102339 0.00442654368469 0)
(-0.164029620282 0.00417614591635 0)
(-0.270123510351 0.00687726517151 0)
(-0.23262863112 0.00644082725354 0)
(-0.383526582232 0.0106187636982 0)
(-0.39344782821 0.0100170660534 0)
(-0.0345633617519 0.000965436302566 0)
(-0.124492860736 0.00344685435512 0)
(-0.0280804862489 0.000717507469599 0)
(-0.0762291348355 0.00194779296771 0)
(-0.109850249686 0.00304144196944 0)
(-0.0247815862925 0.000633214578828 0)
(-0.0391700120166 0.00109411092139 0)
(-0.00860284600172 0.0001869418923 0)
(0 0 0)
(-0.00728443930712 0.000152231241294 0)
(0 0 0)
(0 0 0)
(-0.00489883715044 7.45089277429e-05 0)
(-0.0097494826962 0.000211858580731 0)
(-0.0269240247691 0.000752051583115 0)
(-0.0588143709631 0.00162840318311 0)
(-0.0593576565412 0.00151669602758 0)
(-0.0119533296132 0.000249802370217 0)
(-0.0855736573108 0.0023692919549 0)
(-0.0185045477706 0.000516875711006 0)
(-0.0192845353181 0.000492754933651 0)
(-0.00480173704944 7.1229062433e-05 0)
(0 0 0)
(0 0 0)
(0 0 0)
(0 0 0)
(0 0 0)
(-0.00381007604299 5.79494014323e-05 0)
(0 0 0)
(0 0 0)
(0 0 0)
(0 0 0)
(0 0 0)
(0 0 0)
(0 0 0)
(0 0 0)
(0 0 0)
(0 0 0)
(0 0 0)
(0 0 0)
(0 0 0)
(0 0 0)
(0 0 0)
(0 0 0)
(0 0 0)
(0 0 0)
(0 0 0)
(0 0 0)
(0 0 0)
(0 0 0)
(0 0 0)
(0 0 0)
(0 0 0)
(0 0 0)
(0 0 0)
(0 0 0)
(0 0 0)
(0 0 0)
(0 0 0)
(0 0 0)
(0 0 0)
(0 0 0)
(0 0 0)
(0 0 0)
(0 0 0)
(0 0 0)
(0 0 0)
(0 0 0)
(0 0 0)
(0 0 0)
(0 0 0)
(0 0 0)
(0 0 0)
(0 0 0)
(0 0 0)
(0 0 0)
(0 0 0)
(0 0 0)
(0 0 0)
(0 0 0)
(0 0 0)
(0 0 0)
(0 0 0)
(0 0 0)
(0 0 0)
(0 0 0)
(0 0 0)
(0 0 0)
(0 0 0)
(0 0 0)
(0 0 0)
(0 0 0)
(0 0 0)
(0 0 0)
(0 0 0)
(0 0 0)
(0 0 0)
(0 0 0)
(0 0 0)
(0 0 0)
(0 0 0)
(0 0 0)
(0 0 0)
(0 0 0)
(0 0 0)
(0 0 0)
(0 0 0)
(0 0 0)
(0 0 0)
(0 0 0)
(0 0 0)
(0 0 0)
(0 0 0)
(0 0 0)
(0 0 0)
(0 0 0)
(0 0 0)
(0 0 0)
(0 0 0)
(0 0 0)
(0 0 0)
(0 0 0)
(0 0 0)
(0 0 0)
(0 0 0)
(0 0 0)
(0 0 0)
(0 0 0)
(0 0 0)
(0 0 0)
(0 0 0)
(0 0 0)
(0 0 0)
(0 0 0)
(0 0 0)
(0 0 0)
(0 0 0)
(0 0 0)
(0 0 0)
(0 0 0)
(0 0 0)
(0 0 0)
(0 0 0)
(0 0 0)
(0 0 0)
(0 0 0)
(0 0 0)
(0 0 0)
(0 0 0)
(0 0 0)
(0 0 0)
(0 0 0)
(0 0 0)
(0 0 0)
(0 0 0)
(0 0 0)
(0 0 0)
(0 0 0)
(0 0 0)
(0 0 0)
(0 0 0)
(0 0 0)
(0 0 0)
(0 0 0)
(0 0 0)
(0 0 0)
(0 0 0)
(0 0 0)
(0 0 0)
(0 0 0)
(0 0 0)
(0 0 0)
(0 0 0)
(0 0 0)
(0 0 0)
(0 0 0)
(0 0 0)
(0 0 0)
(0 0 0)
(0 0 0)
(0 0 0)
(0 0 0)
(0 0 0)
(0 0 0)
(0 0 0)
(0 0 0)
(0 0 0)
(0 0 0)
(0 0 0)
(0 0 0)
(0 0 0)
(0 0 0)
(0 0 0)
(0 0 0)
(0 0 0)
(0 0 0)
(-1.18095536601 0.0326973058732 0)
(-2.6751630349 -0.232222719516 0.0228503238907)
(-1.666712598 0.0189509767596 0.00175146472141)
(-0.581258614287 0.0147986734604 0)
(-2.89334264685 -0.100650638268 0.0134786560327)
(-0.842552922242 0.0214511497342 0)
(-0.861480766308 0.0119133809304 0.000879730378416)
(-1.51649347963 0.041987404931 0)
(-3.21131608833 0.0889122378525 0)
(-2.01512964271 0.0504921187757 5.91884924459e-05)
(-1.2196220062 0.0310512177734 0)
(-3.04910462526 0.0294101020408 0.004087170369)
(-1.71854757206 0.0475817098924 0)
(-1.07851718295 0.0274587304507 0)
(-0.557719285256 0.0154416657786 0)
(-0.159796400456 0.00442430927834 0)
(-0.275038050746 0.00700238792534 0)
(-0.166648918048 0.00424283246752 0)
(-0.232509344958 0.00643752455791 0)
(-0.398493088485 0.0101455168969 0)
(-0.383295222971 0.0106123580162 0)
(-0.71615170474 0.019828210291 0)
(-0.338307923372 0.00936678723702 0)
(-0.575973623304 0.0146641191435 0)
(-0.213054822029 0.005424313142 0)
(-0.811559896106 0.0224697926113 0)
(-0.298551285004 0.00826603863752 0)
(-0.509745963025 0.0129779823802 0)
(-1.51658156927 0.0419898438834 0)
(-3.21137234315 0.0889137953887 0)
(-1.99802680203 0.0508691750654 0)
(-1.21697728772 0.0309838840184 0)
(-2.83390797398 0.0784628771829 0)
(-1.71861295212 0.047583520081 0)
(-1.07112389498 0.0272704995124 0)
(-1.18101534467 0.0326989665124 0)
(-1.51655706049 0.0419891653048 0)
(-1.55358225602 0.0395537475671 0)
(-0.570834395949 0.0145332759257 0)
(-2.20684319583 0.0611012313126 0)
(-0.811609119219 0.0224711554597 0)
(-0.832066130157 0.0211841590903 0)
(-0.716189894722 0.0198292676633 0)
(-0.338312704767 0.00936691962028 0)
(-0.574217318054 0.0146194041281 0)
(-0.210579719129 0.00536129774973 0)
(-0.811580568116 0.0224703649606 0)
(-0.298549711934 0.00826599508366 0)
(-0.505192000187 0.012862039825 0)
(-0.557738325649 0.0154421929531 0)
(-0.159776150115 0.00442374860381 0)
(-0.269175315375 0.00685312440614 0)
(-0.163472793215 0.0041619692629 0)
(-0.383292950795 0.0106122951061 0)
(-0.232499200915 0.00643724369811 0)
(-0.392437833384 0.00999135188198 0)
(-0.263450599578 0.00729420017454 0)
(-0.919728226358 0.0254646670001 0)
(-0.346078722363 0.0088110625425 0)
(-0.346038506911 0.00881003866891 0)
(-0.492254166501 0.0136291222452 0)
(-0.492231768032 0.0136285020951 0)
(-0.184992929437 0.00470986560533 0)
(-0.124433026158 0.00344519770529 0)
(-0.0969186213504 0.00268340184423 0)
(-0.163491283575 0.00416244002203 0)
(-0.0357666101334 0.000913901907021 0)
(-0.232509185108 0.00643752013211 0)
(-0.0502671408352 0.00140407993114 0)
(-0.0858310613799 0.00219313964572 0)
(-0.124402821842 0.00344436143341 0)
(-0.0968955630839 0.00268276342621 0)
(-0.163061339829 0.00415149378063 0)
(-0.0356615110588 0.000911216434611 0)
(-0.232452979918 0.00643596396975 0)
(-0.0502570224555 0.0014037973009 0)
(-0.0856790714454 0.0021892560266 0)
(-0.0587518771385 0.00162667290629 0)
(-0.00859289582858 0.000186725672668 0)
(-0.0168533162312 0.000430632866406 0)
(-0.0168313675863 0.000430072038628 0)
(-0.0237311869357 0.0006628680837 0)
(-0.0237344760193 0.00066295995557 0)
(-0.0404316203141 0.0010331013974 0)
(0 0 0)
(-0.0345520672773 0.000965120821221 0)
(-0.00722623989749 0.000151014981813 0)
(-0.011876878824 0.000248204690827 0)
(-0.00974346098786 0.000211727727575 0)
(-0.018489822838 0.00051646440887 0)
(0 0 0)
(0 0 0)
(0 0 0)
(0 0 0)
(0 0 0)
(0 0 0)
(0 0 0)
(0 0 0)
(0 0 0)
(0 0 0)
(-0.00426907548371 6.49305594321e-05 0)
(0 0 0)
(-0.00758212487155 0.000164761379067 0)
(0 0 0)
(0 0 0)
(0 0 0)
(0 0 0)
(0 0 0)
(0 0 0)
(0 0 0)
(0 0 0)
(0 0 0)
(0 0 0)
(0 0 0)
(0 0 0)
(0 0 0)
(0 0 0)
(0 0 0)
(0 0 0)
(0 0 0)
(0 0 0)
(0 0 0)
(0 0 0)
(0 0 0)
(0 0 0)
(0 0 0)
(0 0 0)
(0 0 0)
(0 0 0)
(0 0 0)
(0 0 0)
(0 0 0)
(0 0 0)
(0 0 0)
(0 0 0)
(0 0 0)
(0 0 0)
(0 0 0)
(0 0 0)
(0 0 0)
(0 0 0)
(0 0 0)
(0 0 0)
(0 0 0)
(0 0 0)
(0 0 0)
(0 0 0)
(0 0 0)
(0 0 0)
(0 0 0)
(0 0 0)
(0 0 0)
(0 0 0)
(0 0 0)
(0 0 0)
(0 0 0)
(0 0 0)
(0 0 0)
(0 0 0)
(0 0 0)
(0 0 0)
(0 0 0)
(0 0 0)
(0 0 0)
(0 0 0)
(0 0 0)
(0 0 0)
(0 0 0)
(0 0 0)
(0 0 0)
(0 0 0)
(0 0 0)
(0 0 0)
(0 0 0)
(0 0 0)
(0 0 0)
(0 0 0)
(0 0 0)
(0 0 0)
(0 0 0)
(0 0 0)
(0 0 0)
(0 0 0)
(0 0 0)
(0 0 0)
(0 0 0)
(0 0 0)
(0 0 0)
(0 0 0)
(0 0 0)
(0 0 0)
(0 0 0)
(0 0 0)
(0 0 0)
(0 0 0)
(0 0 0)
(0 0 0)
(0 0 0)
(0 0 0)
(0 0 0)
(0 0 0)
(0 0 0)
(0 0 0)
(0 0 0)
(0 0 0)
(0 0 0)
(0 0 0)
(0 0 0)
(0 0 0)
(0 0 0)
(0 0 0)
(0 0 0)
(0 0 0)
(0 0 0)
(0 0 0)
(0 0 0)
(0 0 0)
(0 0 0)
(0 0 0)
(0 0 0)
(0 0 0)
(0 0 0)
(0 0 0)
(0 0 0)
(0 0 0)
(0 0 0)
(0 0 0)
(0 0 0)
(0 0 0)
(0 0 0)
(0 0 0)
(0 0 0)
(0 0 0)
(0 0 0)
(0 0 0)
(0 0 0)
(0 0 0)
(0 0 0)
(0 0 0)
(0 0 0)
(0 0 0)
(0 0 0)
(0 0 0)
(0 0 0)
(0 0 0)
(0 0 0)
(0 0 0)
(0 0 0)
(0 0 0)
(0 0 0)
(0 0 0)
(0 0 0)
(0 0 0)
(0 0 0)
(0 0 0)
(0 0 0)
(0 0 0)
(0 0 0)
(0 0 0)
(0 0 0)
(0 0 0)
(0 0 0)
(0 0 0)
(0 0 0)
(0 0 0)
(0 0 0)
(0 0 0)
(0 0 0)
(0 0 0)
(0 0 0)
(0 0 0)
(0 0 0)
(0 0 0)
(0 0 0)
(0 0 0)
(0 0 0)
(0 0 0)
(0 0 0)
(0 0 0)
(0 0 0)
(-0.0269250278326 0.000752079601046 0)
(-0.0588007198877 0.00162802522354 0)
(-0.0603117426831 0.00154107466288 0)
(-0.0122388919356 0.000255770091954 0)
(-0.0855528986144 0.00236871720545 0)
(-0.0196181828069 0.00050128023351 0)
(-0.0185052385874 0.00051689500715 0)
(-0.0345714038247 0.000965660936646 0)
(-0.124474153539 0.00344633640586 0)
(-0.0770628497637 0.00196909589969 0)
(-0.0282700230873 0.000722350480369 0)
(-0.109847172198 0.00304135676253 0)
(-0.0391738113494 0.00109421704573 0)
(-0.025066241605 0.000640488039521 0)
(-0.00480318775389 7.12505822116e-05 0)
(0 0 0)
(0 0 0)
(0 0 0)
(0 0 0)
(-0.00387475864131 5.89331922579e-05 0)
(0 0 0)
(-0.00860717272527 0.000187035913033 0)
(0 0 0)
(-0.00732163479582 0.000153008557869 0)
(0 0 0)
(-0.00975322480915 0.000211939897736 0)
(0 0 0)
(-0.00495043215909 7.52936627022e-05 0)
(-0.0345684041024 0.000965577147322 0)
(-0.12447505632 0.0034463614013 0)
(-0.0761520520501 0.00194582336242 0)
(-0.0281505498666 0.000719297722396 0)
(-0.109845021864 0.00304129722589 0)
(-0.039172940212 0.0010941927128 0)
(-0.0247412503406 0.000632183921933 0)
(-0.0269198907271 0.000751936109559 0)
(-0.0587842119789 0.00162756816634 0)
(-0.0591370519061 0.00151105917813 0)
(-0.0119037802892 0.000248766881446 0)
(-0.0855415346551 0.00236840256963 0)
(-0.0184993233699 0.00051672978116 0)
(-0.0192195381247 0.000491094137205 0)
(-0.00860696517847 0.000187031402991 0)
(0 0 0)
(-0.0072929689451 0.000152409494873 0)