/*--------------------------------*- C++ -*----------------------------------*\
| =========                 |                                                 |
| \\      /  F ield         | OpenFOAM: The Open Source CFD Toolbox           |
|  \\    /   O peration     | Version:  v1906                                 |
|   \\  /    A nd           | Web:      www.OpenFOAM.com                      |
|    \\/     M anipulation  |                                                 |
\*---------------------------------------------------------------------------*/
FoamFile
{
    version     2.0;
    format      ascii;
    class       volVectorField;
    location    "8.1";
    object      force.turbine;
}
// * * * * * * * * * * * * * * * * * * * * * * * * * * * * * * * * * * * * * //

dimensions      [1 -2 -2 0 0 0 0];


internalField   nonuniform List<vector> 
28582
(
(0 0 0)
(0 0 0)
(0 0 0)
(0 0 0)
(0 0 0)
(0 0 0)
(0 0 0)
(0 0 0)
(0 0 0)
(0 0 0)
(0 0 0)
(0 0 0)
(0 0 0)
(0 0 0)
(0 0 0)
(0 0 0)
(0 0 0)
(0 0 0)
(0 0 0)
(0 0 0)
(0 0 0)
(0 0 0)
(0 0 0)
(0 0 0)
(0 0 0)
(0 0 0)
(0 0 0)
(0 0 0)
(0 0 0)
(0 0 0)
(0 0 0)
(0 0 0)
(0 0 0)
(0 0 0)
(0 0 0)
(0 0 0)
(0 0 0)
(0 0 0)
(0 0 0)
(0 0 0)
(0 0 0)
(0 0 0)
(0 0 0)
(0 0 0)
(0 0 0)
(0 0 0)
(0 0 0)
(0 0 0)
(0 0 0)
(0 0 0)
(0 0 0)
(0 0 0)
(0 0 0)
(0 0 0)
(0 0 0)
(0 0 0)
(0 0 0)
(0 0 0)
(0 0 0)
(0 0 0)
(0 0 0)
(0 0 0)
(0 0 0)
(0 0 0)
(0 0 0)
(0 0 0)
(0 0 0)
(0 0 0)
(0 0 0)
(0 0 0)
(0 0 0)
(0 0 0)
(0 0 0)
(0 0 0)
(0 0 0)
(0 0 0)
(0 0 0)
(0 0 0)
(0 0 0)
(0 0 0)
(0 0 0)
(0 0 0)
(0 0 0)
(0 0 0)
(0 0 0)
(0 0 0)
(0 0 0)
(0 0 0)
(0 0 0)
(0 0 0)
(0 0 0)
(0 0 0)
(0 0 0)
(0 0 0)
(0 0 0)
(0 0 0)
(0 0 0)
(0 0 0)
(0 0 0)
(0 0 0)
(0 0 0)
(0 0 0)
(0 0 0)
(0 0 0)
(0 0 0)
(0 0 0)
(0 0 0)
(0 0 0)
(0 0 0)
(0 0 0)
(0 0 0)
(0 0 0)
(0 0 0)
(0 0 0)
(0 0 0)
(0 0 0)
(0 0 0)
(0 0 0)
(0 0 0)
(0 0 0)
(0 0 0)
(0 0 0)
(0 0 0)
(0 0 0)
(0 0 0)
(0 0 0)
(0 0 0)
(0 0 0)
(0 0 0)
(0 0 0)
(0 0 0)
(0 0 0)
(0 0 0)
(0 0 0)
(0 0 0)
(0 0 0)
(0 0 0)
(0 0 0)
(0 0 0)
(0 0 0)
(0 0 0)
(0 0 0)
(0 0 0)
(0 0 0)
(0 0 0)
(0 0 0)
(0 0 0)
(0 0 0)
(0 0 0)
(0 0 0)
(0 0 0)
(0 0 0)
(0 0 0)
(0 0 0)
(0 0 0)
(0 0 0)
(0 0 0)
(0 0 0)
(0 0 0)
(0 0 0)
(0 0 0)
(0 0 0)
(0 0 0)
(0 0 0)
(0 0 0)
(0 0 0)
(0 0 0)
(0 0 0)
(0 0 0)
(0 0 0)
(0 0 0)
(0 0 0)
(0 0 0)
(0 0 0)
(0 0 0)
(0 0 0)
(0 0 0)
(0 0 0)
(0 0 0)
(0 0 0)
(0 0 0)
(0 0 0)
(0 0 0)
(0 0 0)
(0 0 0)
(0 0 0)
(0 0 0)
(0 0 0)
(0 0 0)
(0 0 0)
(0 0 0)
(0 0 0)
(0 0 0)
(0 0 0)
(0 0 0)
(0 0 0)
(0 0 0)
(0 0 0)
(0 0 0)
(0 0 0)
(0 0 0)
(0 0 0)
(0 0 0)
(0 0 0)
(0 0 0)
(0 0 0)
(0 0 0)
(0 0 0)
(0 0 0)
(0 0 0)
(0 0 0)
(0 0 0)
(0 0 0)
(0 0 0)
(0 0 0)
(0 0 0)
(0 0 0)
(-0.00186507081745 3.54413529437e-05 0)
(0 0 0)
(0 0 0)
(0 0 0)
(0 0 0)
(-2.3972990854e-05 3.00093999507e-07 0)
(0 0 0)
(-2.3661063651e-06 3.15409298576e-08 0)
(0 0 0)
(0 0 0)
(0 0 0)
(0 0 0)
(0 0 0)
(0 0 0)
(0 0 0)
(0 0 0)
(0 0 0)
(0 0 0)
(0 0 0)
(0 0 0)
(-0.0158698769154 0.000465455130507 0)
(0 0 0)
(0 0 0)
(0 0 0)
(-0.0290025726708 0.000641765261566 0)
(0 0 0)
(0 0 0)
(-0.028201967384 0.000806205078474 0)
(-0.126392592874 0.00361316460193 0)
(-0.0787926312361 0.00174351338306 0)
(-0.757817084842 0.0167313433923 0)
(-0.00583191472732 6.84797316614e-05 0)
(-0.0786784235882 0.00174098621066 0)
(0 0 0)
(0 0 0)
(0 0 0)
(0 0 0)
(0 0 0)
(-0.0158699138093 0.000465456212587 0)
(0 0 0)
(0 0 0)
(0 0 0)
(-0.0289721805706 0.000641092749015 0)
(0 0 0)
(0 0 0)
(0 0 0)
(0 0 0)
(0 0 0)
(0 0 0)
(0 0 0)
(0 0 0)
(-1.42425398349e-05 1.73550083245e-07 0)
(0 0 0)
(-8.64950959315e-06 1.05397150179e-07 0)
(-0.000123283735491 1.99729453565e-06 0)
(-0.000630805502514 1.02195506829e-05 0)
(-7.49684305629e-05 1.21454818118e-06 0)
(-0.000376590773275 6.10106994765e-06 0)
(0 0 0)
(0 0 0)
(-0.000193477355718 2.30930188728e-06 0)
(0 0 0)
(0 0 0)
(0 0 0)
(0 0 0)
(0 0 0)
(0 0 0)
(-0.00844159294572 0.000160412930274 0)
(-0.000372097787824 6.03568730376e-06 0)
(-0.00181334893064 3.44584982293e-05 0)
(-2.63819705497e-05 3.92200210968e-07 0)
(-0.000125085828739 2.02648987907e-06 0)
(-3.25861608308e-06 4.34383605172e-08 0)
(-2.61771858247e-05 3.89155835938e-07 0)
(0 0 0)
(0 0 0)
(0 0 0)
(0 0 0)
(0 0 0)
(-0.000189412555191 2.26078534903e-06 0)
(0 0 0)
(0 0 0)
(0 0 0)
(0 0 0)
(0 0 0)
(0 0 0)
(0 0 0)
(0 0 0)
(0 0 0)
(0 0 0)
(0 0 0)
(0 0 0)
(0 0 0)
(0 0 0)
(0 0 0)
(0 0 0)
(0 0 0)
(0 0 0)
(0 0 0)
(0 0 0)
(-0.00503072674328 5.84241061705e-05 0)
(0 0 0)
(0 0 0)
(0 0 0)
(0 0 0)
(0 0 0)
(-0.00454127089447 5.33246843953e-05 0)
(0 0 0)
(0 0 0)
(0 0 0)
(0 0 0)
(0 0 0)
(0 0 0)
(0 0 0)
(0 0 0)
(0 0 0)
(0 0 0)
(0 0 0)
(0 0 0)
(0 0 0)
(0 0 0)
(0 0 0)
(0 0 0)
(0 0 0)
(0 0 0)
(0 0 0)
(0 0 0)
(0 0 0)
(0 0 0)
(-0.0355413222779 0.000879013745972 0)
(-0.0085393940502 0.000150311040953 0)
(-0.0140759062131 0.000247765134482 0)
(-0.0100645521988 0.000188101762766 0)
(-0.019024510231 0.000470517272056 0)
(0 0 0)
(0 0 0)
(0 0 0)
(0 0 0)
(0 0 0)
(0 0 0)
(0 0 0)
(0 0 0)
(0 0 0)
(0 0 0)
(-0.00514446291867 6.04075088002e-05 0)
(0 0 0)
(-0.00783830640993 0.00014649427254 0)
(0 0 0)
(0 0 0)
(-0.127910390399 0.0031415328249 0)
(-0.099618936793 0.00244668286088 0)
(-0.191999525177 0.00423903083101 0)
(-0.0421875150307 0.000933519999271 0)
(-0.23897329372 0.00586928430251 0)
(-0.0517105295998 0.00127891320346 0)
(-0.101135647624 0.00223791682509 0)
(-0.270783914104 0.00665056647829 0)
(-0.945169962032 0.0232137706059 0)
(-0.40611270952 0.00896629455167 0)
(-0.405579981749 0.00895453280671 0)
(-0.505909858848 0.0124253582766 0)
(-0.217395383594 0.00479972923227 0)
(-0.505894754489 0.0124249873072 0)
(-0.060423701575 0.00148403144817 0)
(-0.00888241590312 0.000166008189534 0)
(-0.0199466088013 0.000441376037913 0)
(-0.0199483745447 0.000441415110059 0)
(-0.0244282180119 0.000604162649161 0)
(-0.0244293898014 0.000604191630048 0)
(-0.0478117029287 0.00105797131807 0)
(-0.127915121056 0.00314164901182 0)
(-0.0996222189373 0.00244676347171 0)
(-0.191678661138 0.00423194668559 0)
(-0.0421861665238 0.00093349015968 0)
(-0.0517141575718 0.00127900293106 0)
(-0.101109274206 0.00223733323744 0)
(-0.238974373787 0.0058693108294 0)
(0 0 0)
(0 0 0)
(0 0 0)
(0 0 0)
(0 0 0)
(0 0 0)
(0 0 0)
(0 0 0)
(0 0 0)
(0 0 0)
(0 0 0)
(0 0 0)
(0 0 0)
(0 0 0)
(0 0 0)
(0 0 0)
(0 0 0)
(0 0 0)
(0 0 0)
(0 0 0)
(0 0 0)
(0 0 0)
(0 0 0)
(-0.00514158940901 6.03737673654e-05 0)
(0 0 0)
(-0.00783862661968 0.00014650025711 0)
(0 0 0)
(0 0 0)
(0 0 0)
(-0.0355442340755 0.000879085761023 0)
(-0.0140680332555 0.000247626554105 0)
(-0.00852820728219 0.000150114130641 0)
(-0.0190256923563 0.000470546508572 0)
(0 0 0)
(-0.0100651134572 0.000188112252421 0)
(0 0 0)
(0 0 0)
(0 0 0)
(0 0 0)
(0 0 0)
(0 0 0)
(0 0 0)
(0 0 0)
(0 0 0)
(0 0 0)
(0 0 0)
(0 0 0)
(0 0 0)
(0 0 0)
(0 0 0)
(0 0 0)
(0 0 0)
(0 0 0)
(0 0 0)
(0 0 0)
(0 0 0)
(0 0 0)
(0 0 0)
(0 0 0)
(0 0 0)
(0 0 0)
(0 0 0)
(0 0 0)
(0 0 0)
(0 0 0)
(0 0 0)
(0 0 0)
(0 0 0)
(0 0 0)
(0 0 0)
(0 0 0)
(-0.0150501662201 0.000286665717244 0)
(0 0 0)
(0 0 0)
(0 0 0)
(0 0 0)
(0 0 0)
(0 0 0)
(0 0 0)
(-0.00335827752611 6.3966272641e-05 0)
(0 0 0)
(0 0 0)
(0 0 0)
(0 0 0)
(0 0 0)
(0 0 0)
(0 0 0)
(0 0 0)
(0 0 0)
(0 0 0)
(0 0 0)
(0 0 0)
(0 0 0)
(0 0 0)
(0 0 0)
(0 0 0)
(0 0 0)
(0 0 0)
(0 0 0)
(0 0 0)
(0 0 0)
(0 0 0)
(0 0 0)
(0 0 0)
(0 0 0)
(0 0 0)
(0 0 0)
(-0.322136404735 0.00847946528401 0)
(-0.00772726668016 0.000147183918956 0)
(0 0 0)
(0 0 0)
(0 0 0)
(0 0 0)
(0 0 0)
(0 0 0)
(-0.0707365434495 0.00188034362172 0)
(0 0 0)
(0 0 0)
(0 0 0)
(0 0 0)
(0 0 0)
(0 0 0)
(0 0 0)
(0 0 0)
(0 0 0)
(0 0 0)
(0 0 0)
(0 0 0)
(0 0 0)
(0 0 0)
(0 0 0)
(0 0 0)
(0 0 0)
(0 0 0)
(0 0 0)
(0 0 0)
(0 0 0)
(0 0 0)
(0 0 0)
(0 0 0)
(0 0 0)
(0 0 0)
(0 0 0)
(-1.5122381322 0.0513873677131 0)
(-0.0432405850818 0.00148638186805 0)
(0 0 0)
(0 0 0)
(0 0 0)
(0 0 0)
(0 0 0)
(0 0 0)
(-0.331700237317 0.0111448412661 0)
(-0.00656971364988 0.0002472399097 0)
(0 0 0)
(0 0 0)
(0 0 0)
(0 0 0)
(0 0 0)
(0 0 0)
(0 0 0)
(0 0 0)
(0 0 0)
(0 0 0)
(0 0 0)
(0 0 0)
(0 0 0)
(0 0 0)
(0 0 0)
(0 0 0)
(0 0 0)
(0 0 0)
(0 0 0)
(0 0 0)
(0 0 0)
(0 0 0)
(0 0 0)
(0 0 0)
(0 0 0)
(0 0 0)
(0 0 0)
(0 0 0)
(0 0 0)
(0 0 0)
(0 0 0)
(0 0 0)
(0 0 0)
(-2.53864644666 0.072571875213 0)
(-0.0766612819273 0.00219150366252 0)
(0 0 0)
(0 0 0)
(0 0 0)
(0 0 0)
(0 0 0)
(0 0 0)
(-2.53866740821 0.0725724744372 0)
(-0.566449655451 0.0161930046477 0)
(-0.0158698673165 0.000465454848975 0)
(0 0 0)
(0 0 0)
(0 0 0)
(0 0 0)
(0 0 0)
(0 0 0)
(-0.0464972353744 0.00132920894431 0)
(-0.0766609869722 0.00219149523068 0)
(-0.015869882265 0.000465455287407 0)
(0 0 0)
(0 0 0)
(0 0 0)
(0 0 0)
(0 0 0)
(0 0 0)
(0 0 0)
(0 0 0)
(0 0 0)
(0 0 0)
(0 0 0)
(0 0 0)
(0 0 0)
(0 0 0)
(0 0 0)
(0 0 0)
(0 0 0)
(0 0 0)
(0 0 0)
(0 0 0)
(0 0 0)
(0 0 0)
(0 0 0)
(0 0 0)
(0 0 0)
(0 0 0)
(-0.0572865192287 0.00108861273669 0)
(-0.00198111198627 3.76464467029e-05 0)
(0 0 0)
(0 0 0)
(0 0 0)
(0 0 0)
(0 0 0)
(0 0 0)
(-0.0234470462964 0.000445562997713 0)
(-0.0467575046468 0.000888530421813 0)
(-0.0127027586568 0.000241386519323 0)
(-0.000333464921038 3.980161754e-06 0)
(0 0 0)
(0 0 0)
(0 0 0)
(0 0 0)
(0 0 0)
(0 0 0)
(-0.000655331388025 1.06299351082e-05 0)
(-0.00144949066375 2.75442142582e-05 0)
(-0.000306971939867 3.66394753249e-06 0)
(0 0 0)
(0 0 0)
(0 0 0)
(0 0 0)
(0 0 0)
(0 0 0)
(0 0 0)
(0 0 0)
(0 0 0)
(0 0 0)
(0 0 0)
(0 0 0)
(0 0 0)
(0 0 0)
(0 0 0)
(0 0 0)
(0 0 0)
(0 0 0)
(0 0 0)
(0 0 0)
(0 0 0)
(0 0 0)
(0 0 0)
(0 0 0)
(0 0 0)
(0 0 0)
(-0.000188198700145 2.58385569143e-06 0)
(-0.000184505603377 2.53315167968e-06 0)
(-2.41340670153e-05 3.02110351566e-07 0)
(0 0 0)
(0 0 0)
(0 0 0)
(0 0 0)
(0 0 0)
(0 0 0)
(0 0 0)
(-2.44225710558e-05 3.05721846348e-07 0)
(-2.42743908745e-05 3.03866926222e-07 0)
(-2.51171090464e-06 3.34818834159e-08 0)
(0 0 0)
(0 0 0)
(0 0 0)
(0 0 0)
(0 0 0)
(0 0 0)
(0 0 0)
(0 0 0)
(0 0 0)
(0 0 0)
(0 0 0)
(0 0 0)
(0 0 0)
(0 0 0)
(0 0 0)
(0 0 0)
(0 0 0)
(0 0 0)
(0 0 0)
(0 0 0)
(0 0 0)
(0 0 0)
(0 0 0)
(0 0 0)
(0 0 0)
(0 0 0)
(0 0 0)
(0 0 0)
(0 0 0)
(0 0 0)
(0 0 0)
(0 0 0)
(0 0 0)
(0 0 0)
(0 0 0)
(0 0 0)
(-0.00335820846776 6.39649572628e-05 0)
(-0.00912874307741 0.000173878324236 0)
(-0.00203689749303 3.87974904898e-05 0)
(-0.0867563483645 0.00198437983235 0)
(-0.0177801115457 0.000338663929314 0)
(-0.0526207743556 0.00120359610982 0)
(-0.0107841844399 0.000205410087978 0)
(0 0 0)
(0 0 0)
(0 0 0)
(-0.00240624373783 4.58325560584e-05 0)
(0 0 0)
(0 0 0)
(0 0 0)
(0 0 0)
(0 0 0)
(0 0 0)
(-0.017780178377 0.000338665202274 0)
(-0.00396730927361 7.55667108136e-05 0)
(-0.00396732870038 7.55670808419e-05 0)
(0 0 0)
(0 0 0)
(0 0 0)
(0 0 0)
(0 0 0)
(0 0 0)
(0 0 0)
(0 0 0)
(-0.0707416468096 0.00188047928103 0)
(-0.195385252677 0.00514304637019 0)
(-0.042906377335 0.00114055237955 0)
(-0.802270422419 0.0244291751916 0)
(-0.177070533504 0.00542526835213 0)
(-0.48659173894 0.0148167432142 0)
(-0.107397637406 0.00329055880605 0)
(0 0 0)
(-0.00468675786008 8.92702966773e-05 0)
(0 0 0)
(-0.0228227948454 0.000722571576251 0)
(0 0 0)
(-0.0122030556976 0.000376684999271 0)
(0 0 0)
(-0.0149420594018 0.000387959243442 0)
(-0.0149427331982 0.000387976738052 0)
(-0.00284260706391 5.41441191348e-05 0)
(-0.177049337634 0.00542461893137 0)
(-0.0376257224482 0.00119123349096 0)
(-0.0376263385288 0.00119125299612 0)
(-0.00740128728906 0.000228463588643 0)
(0 0 0)
(0 0 0)
(0 0 0)
(-0.00335822824544 6.39653339751e-05 0)
(0 0 0)
(0 0 0)
(0 0 0)
(-0.331727974728 0.0111457732191 0)
(-0.901665131685 0.0302951690631 0)
(-0.201202224738 0.00676022084041 0)
(-2.21479033275 0.0735379392076 0)
(-0.488482678931 0.0160880201984 0)
(-1.32780542257 0.0437308452873 0)
(-0.296280881743 0.00975791571632 0)
(0 0 0)
(-0.026226687956 0.000901534365528 0)
(0 0 0)
(-0.0661092701687 0.00217728758797 0)
(0 0 0)
(-0.0400973287663 0.00132059264927 0)
(0 0 0)
(-0.0740161044457 0.00248687713296 0)
(-0.0740176431971 0.00248692883368 0)
(-0.0140249484283 0.000527554195796 0)
(-0.4884684462 0.016087551448 0)
(-0.108994164893 0.00358968782709 0)
(-0.108994987993 0.00358971493563 0)
(-0.0243201768068 0.0008009772149 0)
(0 0 0)
(0 0 0)
(0 0 0)
(-0.013350427227 0.000467148742947 0)
(0 0 0)
(0 0 0)
(0 0 0)
(-7.08978312445 0.207890884232 0)
(-4.21108918868 0.121087715775 0)
(-4.17713538744 0.0922242160562 0)
(-1.97093132207 0.0435148921975 0)
(-0.56645497215 0.0161931566354 0)
(-1.53977062812 0.0440171738083 0)
(-0.343570536062 0.00982159532404 0)
(-2.51132999998 0.0554459980404 0)
(-0.254308516323 0.0056147099337 0)
(-1.18360106062 0.0261319468523 0)
(-0.120346889252 0.00265705956035 0)
(0 0 0)
(-0.0464972434824 0.00132920917609 0)
(0 0 0)
(-0.0910368145997 0.00201445112462 0)
(0 0 0)
(-0.0431872997613 0.000955643109396 0)
(0 0 0)
(0 0 0)
(0 0 0)
(0 0 0)
(0 0 0)
(0 0 0)
(0 0 0)
(0 0 0)
(0 0 0)
(0 0 0)
(0 0 0)
(0 0 0)
(0 0 0)
(0 0 0)
(0 0 0)
(0 0 0)
(0 0 0)
(0 0 0)
(0 0 0)
(0 0 0)
(0 0 0)
(0 0 0)
(0 0 0)
(0 0 0)
(0 0 0)
(0 0 0)
(0 0 0)
(0 0 0)
(0 0 0)
(0 0 0)
(0 0 0)
(0 0 0)
(0 0 0)
(0 0 0)
(0 0 0)
(0 0 0)
(0 0 0)
(0 0 0)
(0 0 0)
(0 0 0)
(0 0 0)
(0 0 0)
(0 0 0)
(-0.343570867715 0.00982160480496 0)
(-0.566451998268 0.0161930716215 0)
(-1.24687271291 0.0275288799151 0)
(-2.60675651624 0.0575528571285 0)
(-0.131541504041 0.00290421807383 0)
(-0.276017317194 0.00609400422421 0)
(-1.5397771721 0.0440173608798 0)
(-0.566452471898 0.0161930851611 0)
(-0.343570160736 0.00982158459466 0)
(-2.59169496444 0.0572203230642 0)
(-1.19380252799 0.026357178319 0)
(-0.274355512537 0.00605731433568 0)
(-0.125666425097 0.00277450608233 0)
(-0.126392008307 0.00361314789101 0)
(-0.126391854254 0.00361314348711 0)
(-0.0282016696229 0.000806196566427 0)
(-0.716462335009 0.0158182991575 0)
(-0.0718829628338 0.00159061711417 0)
(-0.074010189501 0.00163768811694 0)
(-0.00530356212511 6.22756895734e-05 0)
(0 0 0)
(0 0 0)
(0 0 0)
(-0.026257216982 0.00058101637795 0)
(0 0 0)
(0 0 0)
(0 0 0)
(0 0 0)
(0 0 0)
(0 0 0)
(0 0 0)
(0 0 0)
(0 0 0)
(0 0 0)
(0 0 0)
(0 0 0)
(0 0 0)
(0 0 0)
(0 0 0)
(0 0 0)
(0 0 0)
(0 0 0)
(0 0 0)
(0 0 0)
(0 0 0)
(0 0 0)
(0 0 0)
(0 0 0)
(0 0 0)
(0 0 0)
(0 0 0)
(0 0 0)
(0 0 0)
(0 0 0)
(0 0 0)
(0 0 0)
(0 0 0)
(0 0 0)
(0 0 0)
(0 0 0)
(0 0 0)
(0 0 0)
(0 0 0)
(0 0 0)
(0 0 0)
(0 0 0)
(0 0 0)
(0 0 0)
(0 0 0)
(-0.0766610586115 0.00219149727862 0)
(0 0 0)
(0 0 0)
(-0.0476725139676 0.00105489136234 0)
(-0.0999728367242 0.00221218629251 0)
(0 0 0)
(0 0 0)
(-0.0464971761858 0.00132920725229 0)
(0 0 0)
(0 0 0)
(-0.0993367756928 0.00219811161441 0)
(-0.0454115609126 0.00100486127896 0)
(0 0 0)
(0 0 0)
(0 0 0)
(0 0 0)
(0 0 0)
(-0.0271779487036 0.000601390213087 0)
(0 0 0)
(0 0 0)
(0 0 0)
(0 0 0)
(0 0 0)
(0 0 0)
(0 0 0)
(0 0 0)
(0 0 0)
(0 0 0)
(0 0 0)
(0 0 0)
(0 0 0)
(0 0 0)
(0 0 0)
(0 0 0)
(0 0 0)
(0 0 0)
(0 0 0)
(0 0 0)
(0 0 0)
(0 0 0)
(0 0 0)
(0 0 0)
(0 0 0)
(0 0 0)
(0 0 0)
(0 0 0)
(0 0 0)
(0 0 0)
(0 0 0)
(0 0 0)
(0 0 0)
(0 0 0)
(0 0 0)
(0 0 0)
(0 0 0)
(0 0 0)
(0 0 0)
(0 0 0)
(0 0 0)
(0 0 0)
(0 0 0)
(0 0 0)
(0 0 0)
(0 0 0)
(0 0 0)
(0 0 0)
(0 0 0)
(0 0 0)
(0 0 0)
(0 0 0)
(0 0 0)
(0 0 0)
(0 0 0)
(0 0 0)
(0 0 0)
(0 0 0)
(0 0 0)
(0 0 0)
(0 0 0)
(0 0 0)
(0 0 0)
(0 0 0)
(0 0 0)
(0 0 0)
(0 0 0)
(0 0 0)
(0 0 0)
(0 0 0)
(0 0 0)
(0 0 0)
(0 0 0)
(0 0 0)
(0 0 0)
(0 0 0)
(0 0 0)
(0 0 0)
(0 0 0)
(0 0 0)
(0 0 0)
(0 0 0)
(0 0 0)
(0 0 0)
(0 0 0)
(0 0 0)
(0 0 0)
(0 0 0)
(0 0 0)
(0 0 0)
(0 0 0)
(0 0 0)
(0 0 0)
(0 0 0)
(0 0 0)
(0 0 0)
(0 0 0)
(0 0 0)
(0 0 0)
(0 0 0)
(0 0 0)
(0 0 0)
(0 0 0)
(0 0 0)
(0 0 0)
(0 0 0)
(0 0 0)
(0 0 0)
(0 0 0)
(0 0 0)
(0 0 0)
(0 0 0)
(0 0 0)
(0 0 0)
(0 0 0)
(0 0 0)
(0 0 0)
(0 0 0)
(0 0 0)
(0 0 0)
(0 0 0)
(0 0 0)
(0 0 0)
(0 0 0)
(0 0 0)
(0 0 0)
(0 0 0)
(0 0 0)
(0 0 0)
(0 0 0)
(0 0 0)
(0 0 0)
(0 0 0)
(0 0 0)
(0 0 0)
(0 0 0)
(0 0 0)
(0 0 0)
(0 0 0)
(0 0 0)
(0 0 0)
(0 0 0)
(0 0 0)
(0 0 0)
(0 0 0)
(0 0 0)
(0 0 0)
(0 0 0)
(0 0 0)
(0 0 0)
(0 0 0)
(0 0 0)
(0 0 0)
(0 0 0)
(0 0 0)
(0 0 0)
(0 0 0)
(0 0 0)
(0 0 0)
(0 0 0)
(0 0 0)
(0 0 0)
(0 0 0)
(0 0 0)
(0 0 0)
(0 0 0)
(0 0 0)
(0 0 0)
(0 0 0)
(0 0 0)
(0 0 0)
(0 0 0)
(0 0 0)
(-0.0020421206464 3.30922227384e-05 0)
(-0.00364539302039 5.90729827898e-05 0)
(-0.00123641955392 2.00309798286e-05 0)
(-0.00228028188593 3.69515857001e-05 0)
(-0.141156097095 0.00268238195003 0)
(-0.085587726079 0.00162641909421 0)
(-0.00334850023212 5.42618849264e-05 0)
(-0.00185329983252 3.00324131029e-05 0)
(-0.00202236105627 3.27720218927e-05 0)
(-0.00117431027602 1.90247601447e-05 0)
(-0.0137373887322 0.000261047268568 0)
(-0.0346190604261 0.000657864199458 0)
(-0.00828318503803 0.000157402754728 0)
(-0.000756285600705 1.22524280406e-05 0)
(-0.000196682162082 3.1864074042e-06 0)
(-0.000480956686635 7.79188072354e-06 0)
(-0.000122490909291 1.98445012085e-06 0)
(0 0 0)
(-0.00111069180704 1.80162007341e-05 0)
(0 0 0)
(-2.63912991569e-05 3.21586754799e-07 0)
(0 0 0)
(-1.5289964637e-05 1.86313302705e-07 0)
(0 0 0)
(0 0 0)
(0 0 0)
(0 0 0)
(0 0 0)
(0 0 0)
(0 0 0)
(0 0 0)
(0 0 0)
(0 0 0)
(0 0 0)
(0 0 0)
(0 0 0)
(0 0 0)
(0 0 0)
(0 0 0)
(0 0 0)
(0 0 0)
(0 0 0)
(0 0 0)
(0 0 0)
(0 0 0)
(0 0 0)
(0 0 0)
(0 0 0)
(0 0 0)
(0 0 0)
(0 0 0)
(0 0 0)
(0 0 0)
(0 0 0)
(0 0 0)
(0 0 0)
(0 0 0)
(0 0 0)
(0 0 0)
(0 0 0)
(0 0 0)
(0 0 0)
(0 0 0)
(0 0 0)
(0 0 0)
(0 0 0)
(-0.0413346532151 0.000785480258925 0)
(-0.00516488809015 9.81467405981e-05 0)
(-0.00925747655728 0.000175916909409 0)
(-0.000407869985635 6.60781805741e-06 0)
(-0.000830620441931 1.34567115707e-05 0)
(-8.1091825864e-05 1.31375205366e-06 0)
(-0.000173837979085 2.81631347665e-06 0)
(-0.0316943958634 0.000602286951332 0)
(-0.0105004851526 0.000199537409995 0)
(-0.00710639503667 0.000135040585213 0)
(-0.000776986958264 1.25878064923e-05 0)
(-0.000481551869366 7.801523157e-06 0)
(-0.00017447290531 2.82659978631e-06 0)
(-0.000112160875104 1.81709535379e-06 0)
(-0.00302782463127 5.75367972113e-05 0)
(-0.00284909853346 5.41405215023e-05 0)
(-0.000633506086616 1.02759133996e-05 0)
(-0.000208620518514 3.37981827038e-06 0)
(-4.76148144041e-05 7.07852365284e-07 0)
(-4.59145885266e-05 6.82576431229e-07 0)
(-5.91924787769e-06 7.89054054686e-08 0)
(0 0 0)
(0 0 0)
(0 0 0)
(0 0 0)
(0 0 0)
(0 0 0)
(0 0 0)
(0 0 0)
(0 0 0)
(0 0 0)
(0 0 0)
(0 0 0)
(0 0 0)
(0 0 0)
(0 0 0)
(0 0 0)
(0 0 0)
(0 0 0)
(0 0 0)
(0 0 0)
(0 0 0)
(0 0 0)
(0 0 0)
(0 0 0)
(0 0 0)
(0 0 0)
(0 0 0)
(0 0 0)
(0 0 0)
(0 0 0)
(0 0 0)
(0 0 0)
(0 0 0)
(0 0 0)
(0 0 0)
(0 0 0)
(0 0 0)
(0 0 0)
(0 0 0)
(0 0 0)
(0 0 0)
(0 0 0)
(0 0 0)
(0 0 0)
(0 0 0)
(0 0 0)
(0 0 0)
(0 0 0)
(0 0 0)
(-0.00126417563866 2.40227312407e-05 0)
(0 0 0)
(0 0 0)
(-9.06226846642e-06 1.10426754284e-07 0)
(-1.91291963832e-05 2.33095618e-07 0)
(0 0 0)
(0 0 0)
(-0.000927966448607 1.50522671605e-05 0)
(0 0 0)
(0 0 0)
(-1.9831664327e-05 2.4165542345e-07 0)
(-1.31830252141e-05 1.60639545322e-07 0)
(0 0 0)
(0 0 0)
(0 0 0)
(0 0 0)
(0 0 0)
(0 0 0)
(0 0 0)
(0 0 0)
(0 0 0)
(0 0 0)
(0 0 0)
(0 0 0)
(0 0 0)
(0 0 0)
(0 0 0)
(0 0 0)
(0 0 0)
(0 0 0)
(0 0 0)
(0 0 0)
(0 0 0)
(0 0 0)
(0 0 0)
(0 0 0)
(0 0 0)
(0 0 0)
(0 0 0)
(0 0 0)
(0 0 0)
(0 0 0)
(0 0 0)
(0 0 0)
(0 0 0)
(0 0 0)
(0 0 0)
(0 0 0)
(0 0 0)
(0 0 0)
(0 0 0)
(0 0 0)
(0 0 0)
(0 0 0)
(0 0 0)
(0 0 0)
(0 0 0)
(0 0 0)
(0 0 0)
(0 0 0)
(0 0 0)
(0 0 0)
(0 0 0)
(0 0 0)
(0 0 0)
(0 0 0)
(0 0 0)
(0 0 0)
(0 0 0)
(0 0 0)
(0 0 0)
(0 0 0)
(0 0 0)
(0 0 0)
(0 0 0)
(0 0 0)
(0 0 0)
(0 0 0)
(0 0 0)
(0 0 0)
(0 0 0)
(0 0 0)
(0 0 0)
(0 0 0)
(0 0 0)
(0 0 0)
(0 0 0)
(0 0 0)
(0 0 0)
(0 0 0)
(0 0 0)
(0 0 0)
(0 0 0)
(0 0 0)
(0 0 0)
(0 0 0)
(0 0 0)
(0 0 0)
(0 0 0)
(0 0 0)
(0 0 0)
(0 0 0)
(0 0 0)
(0 0 0)
(0 0 0)
(0 0 0)
(0 0 0)
(0 0 0)
(0 0 0)
(0 0 0)
(0 0 0)
(0 0 0)
(0 0 0)
(0 0 0)
(0 0 0)
(0 0 0)
(0 0 0)
(0 0 0)
(0 0 0)
(0 0 0)
(0 0 0)
(0 0 0)
(0 0 0)
(0 0 0)
(0 0 0)
(0 0 0)
(0 0 0)
(0 0 0)
(0 0 0)
(0 0 0)
(0 0 0)
(0 0 0)
(0 0 0)
(0 0 0)
(0 0 0)
(0 0 0)
(0 0 0)
(0 0 0)
(0 0 0)
(0 0 0)
(0 0 0)
(0 0 0)
(0 0 0)
(0 0 0)
(0 0 0)
(0 0 0)
(0 0 0)
(0 0 0)
(0 0 0)
(0 0 0)
(0 0 0)
(0 0 0)
(0 0 0)
(0 0 0)
(0 0 0)
(0 0 0)
(0 0 0)
(0 0 0)
(0 0 0)
(0 0 0)
(0 0 0)
(0 0 0)
(0 0 0)
(0 0 0)
(0 0 0)
(0 0 0)
(0 0 0)
(0 0 0)
(0 0 0)
(0 0 0)
(0 0 0)
(0 0 0)
(0 0 0)
(0 0 0)
(0 0 0)
(0 0 0)
(0 0 0)
(0 0 0)
(0 0 0)
(0 0 0)
(0 0 0)
(0 0 0)
(0 0 0)
(0 0 0)
(0 0 0)
(0 0 0)
(0 0 0)
(0 0 0)
(0 0 0)
(0 0 0)
(0 0 0)
(0 0 0)
(0 0 0)
(0 0 0)
(0 0 0)
(0 0 0)
(-7.00146516347 0.172481335778 0)
(-5.43977809849 0.133603231163 0)
(-6.10200739071 0.134722194945 0)
(-3.68865595666 0.0814394010132 0)
(-4.80054533405 0.117903406418 0)
(-5.39170546965 0.119039907502 0)
(-7.94245338574 0.195931327162 0)
(-5.43972848617 0.133602012663 0)
(-2.56919562062 0.063100521784 0)
(-2.87115428274 0.0633903209597 0)
(-2.89078016695 0.0638236279077 0)
(-3.73852166681 0.0918196598122 0)
(-3.73851782003 0.0918195653337 0)
(-4.20153607652 0.0927629427704 0)
(-1.55801393663 0.0382654756061 0)
(-3.29898906286 0.0810245547498 0)
(-1.32815992742 0.0293235666892 0)
(-2.2170054916 0.0489478014216 0)
(-2.91134092422 0.0715037539122 0)
(-1.17216270185 0.0258794068762 0)
(-1.76538041339 0.0433584832305 0)
(-0.735759871057 0.0180705709596 0)
(-0.347427958617 0.00853297635071 0)
(-0.618471793884 0.0136548306563 0)
(-0.224666881093 0.00496027182766 0)
(-0.306617641538 0.00753065785023 0)
(-0.54596505031 0.0120540021064 0)
(-0.833668149556 0.0204752393354 0)
(-1.21330384971 0.029799251324 0)
(-1.55812338535 0.0382681637126 0)
(-1.7258579998 0.0381040800196 0)
(-0.626590994013 0.0138340891187 0)
(-2.26724337283 0.0556844479605 0)
(-0.833838494213 0.0204794230716 0)
(-0.912894216936 0.0201551890686 0)
(-0.572975161811 0.0140725102399 0)
(-0.164109131067 0.00403058907493 0)
(-0.175089011363 0.00386567475443 0)
(-0.292331922124 0.00645420362173 0)
(-0.238786643812 0.0058647001025 0)
(-0.393779060213 0.00967137884233 0)
(-0.425387137767 0.00939184193526 0)
(-0.0354974355167 0.00087792833148 0)
(-0.12777611178 0.00313823488572 0)
(-0.0292628023422 0.000647523590836 0)
(-0.0804630845344 0.00178047696247 0)
(-0.112764740841 0.00276954932073 0)
(-0.0258689635372 0.000572425154808 0)
(-0.0402218531381 0.000994773394205 0)
(-0.0088676916209 0.000165732999601 0)
(0 0 0)
(-0.00761861769036 0.000134103467872 0)
(0 0 0)
(0 0 0)
(-0.005205401284 6.1123061599e-05 0)
(-0.0100477980289 0.000187788635183 0)
(-0.027647937016 0.000683793261682 0)
(-0.060358811952 0.00148243773182 0)
(-0.0627920178305 0.00138945383241 0)
(-0.0126253276699 0.000222231944477 0)
(-0.0878242477041 0.00215700035098 0)
(-0.019002661919 0.000469976916061 0)
(-0.020205541745 0.000447105673357 0)
(-0.00502320680951 5.83367737768e-05 0)
(0 0 0)
(0 0 0)
(0 0 0)
(0 0 0)
(0 0 0)
(-0.00406609720258 4.77450817374e-05 0)
(0 0 0)
(0 0 0)
(0 0 0)
(0 0 0)
(0 0 0)
(0 0 0)
(0 0 0)
(0 0 0)
(0 0 0)
(0 0 0)
(0 0 0)
(0 0 0)
(0 0 0)
(0 0 0)
(0 0 0)
(0 0 0)
(0 0 0)
(0 0 0)
(0 0 0)
(0 0 0)
(0 0 0)
(0 0 0)
(0 0 0)
(0 0 0)
(0 0 0)
(0 0 0)
(0 0 0)
(0 0 0)
(0 0 0)
(0 0 0)
(0 0 0)
(0 0 0)
(0 0 0)
(0 0 0)
(0 0 0)
(0 0 0)
(0 0 0)
(0 0 0)
(0 0 0)
(0 0 0)
(0 0 0)
(0 0 0)
(0 0 0)
(0 0 0)
(0 0 0)
(0 0 0)
(0 0 0)
(0 0 0)
(0 0 0)
(0 0 0)
(0 0 0)
(0 0 0)
(0 0 0)
(0 0 0)
(0 0 0)
(0 0 0)
(0 0 0)
(0 0 0)
(0 0 0)
(0 0 0)
(0 0 0)
(0 0 0)
(0 0 0)
(0 0 0)
(0 0 0)
(0 0 0)
(0 0 0)
(0 0 0)
(0 0 0)
(0 0 0)
(0 0 0)
(0 0 0)
(0 0 0)
(0 0 0)
(0 0 0)
(0 0 0)
(0 0 0)
(0 0 0)
(0 0 0)
(0 0 0)
(0 0 0)
(0 0 0)
(0 0 0)
(0 0 0)
(0 0 0)
(0 0 0)
(0 0 0)
(0 0 0)
(0 0 0)
(0 0 0)
(0 0 0)
(0 0 0)
(0 0 0)
(0 0 0)
(0 0 0)
(0 0 0)
(0 0 0)
(0 0 0)
(0 0 0)
(0 0 0)
(0 0 0)
(0 0 0)
(0 0 0)
(0 0 0)
(0 0 0)
(0 0 0)
(0 0 0)
(0 0 0)
(0 0 0)
(0 0 0)
(0 0 0)
(0 0 0)
(0 0 0)
(0 0 0)
(0 0 0)
(0 0 0)
(0 0 0)
(0 0 0)
(0 0 0)
(0 0 0)
(0 0 0)
(0 0 0)
(0 0 0)
(0 0 0)
(0 0 0)
(0 0 0)
(0 0 0)
(0 0 0)
(0 0 0)
(0 0 0)
(0 0 0)
(0 0 0)
(0 0 0)
(0 0 0)
(0 0 0)
(0 0 0)
(0 0 0)
(0 0 0)
(0 0 0)
(0 0 0)
(0 0 0)
(0 0 0)
(0 0 0)
(0 0 0)
(0 0 0)
(0 0 0)
(0 0 0)
(0 0 0)
(0 0 0)
(0 0 0)
(0 0 0)
(0 0 0)
(0 0 0)
(0 0 0)
(0 0 0)
(0 0 0)
(0 0 0)
(0 0 0)
(0 0 0)
(0 0 0)
(0 0 0)
(0 0 0)
(0 0 0)
(0 0 0)
(0 0 0)
(0 0 0)
(0 0 0)
(0 0 0)
(-1.21365548435 0.029807887618 0)
(-1.55834332903 0.0382735656217 0)
(-1.80855676188 0.0399299314211 0)
(-0.667273292592 0.014732286746 0)
(-2.26744058889 0.0556892916696 0)
(-0.968176765426 0.0213757359802 0)
(-0.834101015238 0.0204858706981 0)
(-1.55838109389 0.0382744931424 0)
(-3.2990974736 0.0810272173631 0)
(-2.31152018953 0.0510345290742 0)
(-1.3985771392 0.0308782618453 0)
(-2.91145460135 0.0715065458703 0)
(-1.76586358808 0.0433703502034 0)
(-1.23897517178 0.0273545153155 0)
(-0.573266238172 0.0140796591974 0)
(-0.164246694011 0.00403396767852 0)
(-0.31525091404 0.0069602169218 0)
(-0.190903499191 0.00421483239642 0)
(-0.238977999042 0.00586939986719 0)
(-0.457463647041 0.0101000380187 0)
(-0.393997581786 0.00967674582379 0)
(-0.736089733809 0.0180786725271 0)
(-0.347709307268 0.00853988639156 0)
(-0.661314711737 0.0146007311709 0)
(-0.244429453329 0.00539659662029 0)
(-0.834105187624 0.0204859731736 0)
(-0.30685585795 0.00753650854521 0)
(-0.585617017636 0.0129294517298 0)
(-1.55819582569 0.0382699428776 0)
(-3.29901882067 0.0810252856142 0)
(-2.27144949938 0.050149834746 0)
(-1.39026753451 0.0306947995662 0)
(-2.91119443613 0.0715001561035 0)
(-1.76581916715 0.0433692592066 0)
(-1.21743543695 0.0268789537226 0)
(-1.21337396552 0.0298009733977 0)
(-1.5578688973 0.0382619133794 0)
(-1.75374141038 0.0387196994437 0)
(-0.6390332425 0.0141087933134 0)
(-2.26702716925 0.05567913791 0)
(-0.833813495042 0.0204788090815 0)
(-0.939169092563 0.0207352947109 0)
(-0.735991931441 0.0180762704599 0)
(-0.347696076803 0.00853956144579 0)
(-0.657604936814 0.0145188254982 0)
(-0.240278340946 0.00530494694897 0)
(-0.83407841244 0.0204853155639 0)
(-0.306815730905 0.00753552300816 0)
(-0.575806162377 0.0127128443299 0)
(-0.573109613299 0.0140758124248 0)
(-0.164174489566 0.00403219430709 0)
(-0.301772348141 0.00666263255878 0)
(-0.185164590172 0.00408812681085 0)
(-0.393820995894 0.00967240880023 0)
(-0.238917396722 0.0058679114488 0)
(-0.443888516038 0.0098003216585 0)
(-0.270593018696 0.00664587800702 0)
(-0.944766589839 0.0232038636157 0)
(-0.379561605731 0.00838009025008 0)
(-0.383212820874 0.00846070302008 0)
(-0.505600266934 0.0124177545694 0)
(-0.50564076799 0.0124187492923 0)
(-0.202751475555 0.00447641604903 0)
(-0.127791958517 0.00313862408821 0)
(-0.0995098376509 0.0024440033402 0)
(-0.177369650346 0.00391602747771 0)
(-0.0384788203831 0.00085145447296 0)
(-0.23876995064 0.00586429011119 0)
(-0.0516510678656 0.00127744258621 0)
(-0.0932070104621 0.00206247294431 0)
(-0.127807169234 0.0031389976698 0)
(-0.0995579592543 0.00244518522695 0)
(-0.18089841997 0.00399393685389 0)
(-0.0391608532648 0.000866546410343 0)
(-0.238821288083 0.00586555098031 0)
(-0.0516685172873 0.00127787414814 0)
(-0.094142291494 0.00208316872475 0)
(-0.0603609760208 0.00148249088226 0)
(-0.00887105587545 0.000165795875942 0)
(-0.0181790146855 0.000402262938778 0)
(-0.0183241362159 0.000405474169656 0)
(-0.0243984191379 0.000603425658576 0)
(-0.0244019826471 0.000603513791865 0)
(-0.044006156629 0.000973762670645 0)
(0 0 0)
(-0.0354940117439 0.000877843654175 0)
(-0.00768818428562 0.000135327984189 0)
(-0.0127656902704 0.000224702617276 0)
(-0.0100506700133 0.000187842311225 0)
(-0.0189986675816 0.000469878127461 0)
(0 0 0)
(0 0 0)
(0 0 0)
(0 0 0)
(0 0 0)
(0 0 0)
(0 0 0)
(0 0 0)
(0 0 0)
(0 0 0)
(-0.0046690592595 5.48252058117e-05 0)
(0 0 0)
(-0.00782771487105 0.000146296321643 0)
(0 0 0)
(0 0 0)
(0 0 0)
(0 0 0)
(0 0 0)
(0 0 0)
(0 0 0)
(0 0 0)
(0 0 0)
(0 0 0)
(0 0 0)
(0 0 0)
(0 0 0)
(0 0 0)
(0 0 0)
(0 0 0)
(0 0 0)
(0 0 0)
(0 0 0)
(0 0 0)
(0 0 0)
(0 0 0)
(0 0 0)
(0 0 0)
(0 0 0)
(0 0 0)
(0 0 0)
(0 0 0)
(0 0 0)
(0 0 0)
(0 0 0)
(0 0 0)
(0 0 0)
(0 0 0)
(0 0 0)
(0 0 0)
(0 0 0)
(0 0 0)
(0 0 0)
(0 0 0)
(0 0 0)
(0 0 0)
(0 0 0)
(0 0 0)
(0 0 0)
(0 0 0)
(0 0 0)
(0 0 0)
(0 0 0)
(0 0 0)
(0 0 0)
(0 0 0)
(0 0 0)
(0 0 0)
(0 0 0)
(0 0 0)
(0 0 0)
(0 0 0)
(0 0 0)
(0 0 0)
(0 0 0)
(0 0 0)
(0 0 0)
(0 0 0)
(0 0 0)
(0 0 0)
(0 0 0)
(0 0 0)
(0 0 0)
(0 0 0)
(0 0 0)
(0 0 0)
(0 0 0)
(0 0 0)
(0 0 0)
(0 0 0)
(0 0 0)
(0 0 0)
(0 0 0)
(0 0 0)
(0 0 0)
(0 0 0)
(0 0 0)
(0 0 0)
(0 0 0)
(0 0 0)
(0 0 0)
(0 0 0)
(0 0 0)
(0 0 0)
(0 0 0)
(0 0 0)
(0 0 0)
(0 0 0)
(0 0 0)
(0 0 0)
(0 0 0)
(0 0 0)
(0 0 0)
(0 0 0)
(0 0 0)
(0 0 0)
(0 0 0)
(0 0 0)
(0 0 0)
(0 0 0)
(0 0 0)
(0 0 0)
(0 0 0)
(0 0 0)
(0 0 0)
(0 0 0)
(0 0 0)
(0 0 0)
(0 0 0)
(0 0 0)
(0 0 0)
(0 0 0)
(0 0 0)
(0 0 0)
(0 0 0)
(0 0 0)
(0 0 0)
(0 0 0)
(0 0 0)
(0 0 0)
(0 0 0)
(0 0 0)
(0 0 0)
(0 0 0)
(0 0 0)
(0 0 0)
(0 0 0)
(0 0 0)
(0 0 0)
(0 0 0)
(0 0 0)
(0 0 0)
(0 0 0)
(0 0 0)
(0 0 0)
(0 0 0)
(0 0 0)
(0 0 0)
(0 0 0)
(0 0 0)
(0 0 0)
(0 0 0)
(0 0 0)
(0 0 0)
(0 0 0)
(0 0 0)
(0 0 0)
(0 0 0)
(0 0 0)
(0 0 0)
(0 0 0)
(0 0 0)
(0 0 0)
(0 0 0)
(0 0 0)
(0 0 0)
(0 0 0)
(0 0 0)
(0 0 0)
(0 0 0)
(0 0 0)
(0 0 0)
(0 0 0)
(0 0 0)
(0 0 0)
(0 0 0)
(0 0 0)
(0 0 0)
(0 0 0)
(0 0 0)
(0 0 0)
(-0.0276827995327 0.000684655487099 0)
(-0.0604278366062 0.00148413300627 0)
(-0.0691801134845 0.00153080880546 0)
(-0.0140430874328 0.000247187455901 0)
(-0.0879217313562 0.00215939459035 0)
(-0.0224940249253 0.000497744939862 0)
(-0.0190261624333 0.000470558134592 0)
(-0.0355449268951 0.00087910289595 0)
(-0.127924065076 0.0031418686807 0)
(-0.0885414909092 0.00195923491746 0)
(-0.0324936739095 0.000719015908433 0)
(-0.112893606493 0.00277271431517 0)
(-0.040277514961 0.000996150031436 0)
(-0.0287887176484 0.000637033104665 0)
(-0.00503075508465 5.84244353117e-05 0)
(0 0 0)
(0 0 0)
(0 0 0)
(0 0 0)
(-0.00452244460863 5.31036216633e-05 0)
(0 0 0)
(-0.00888244011495 0.000166008642042 0)
(0 0 0)
(-0.00844987169878 0.000148735261951 0)
(0 0 0)
(-0.010064876549 0.000188107824718 0)
(0 0 0)
(-0.00578988180104 6.79861710304e-05 0)
(-0.0355400164485 0.000878981449988 0)
(-0.127919118795 0.00314174719798 0)
(-0.0869487676914 0.00192399133945 0)
(-0.0322665213941 0.000713989506288 0)
(-0.112877960602 0.00277233004554 0)
(-0.0402756924028 0.00099610495563 0)
(-0.0282183927635 0.000624413027712 0)
(-0.0276749445104 0.000684461215413 0)
(-0.0603979111216 0.00148339802382 0)
(-0.0669590484746 0.00148166135971 0)
(-0.0133394261408 0.000234801558184 0)
(-0.0878968563975 0.00215878365094 0)
(-0.0190166070529 0.000470321809373 0)
(-0.0217117970897 0.000480435901204 0)
(-0.00888072087079 0.000165976510174 0)
(0 0 0)
(-0.00837994720806 0.000147504445932 0)
(0 0 0)
(-0.0100641974921 0.000188095133463 0)
(0 0 0)
(-0.00565773296912 6.64344479734e-05 0)
(-0.00502903485004 5.84044574487e-05 0)
(0 0 0)
(0 0 0)
(0 0 0)
(0 0 0)
(0 0 0)