/*--------------------------------*- C++ -*----------------------------------*\
| =========                 |                                                 |
| \\      /  F ield         | OpenFOAM: The Open Source CFD Toolbox           |
|  \\    /   O peration     | Version:  v1906                                 |
|   \\  /    A nd           | Web:      www.OpenFOAM.com                      |
|    \\/     M anipulation  |                                                 |
\*---------------------------------------------------------------------------*/
FoamFile
{
    version     2.0;
    format      ascii;
    class       surfaceScalarField;
    location    "11.3";
    object      phi;
}
// * * * * * * * * * * * * * * * * * * * * * * * * * * * * * * * * * * * * * //

dimensions      [0 3 -1 0 0 0 0];
oriented        oriented;


internalField   nonuniform List<scalar> 
92311
(
0.204042042872
-0.000219269040709
-0.00103019541549
-0.203687297975
0.000894719162717
-0.000174459583466
0.204227099019
-0.000786853226475
0.000776315850434
0.204163106358
-0.000468855379479
-0.00109745316598
-0.203785188455
0.00096920715206
-0.000247181162383
0.204278431847
-0.000796905944861
0.000754401932419
0.204403033298
-0.000291944413713
-0.00022073417937
-0.00109662325346
-0.203747074911
0.000985465866062
-0.000292721708997
-0.000208264971249
-0.00010263000451
-8.57831713892e-05
-2.99576434844e-05
0.204461475131
-0.000832146732448
0.00081971082268
-7.48341633319e-05
0.0513063773044
-0.000105863179678
-0.000108755476436
-0.000105932618532
-0.000110093794897
-0.000309559487341
-0.0511619875414
0.000303825855354
-0.0513872761207
0.0514122481584
-1.97890054844e-05
-5.25866073054e-05
-4.58858659848e-05
-3.00671502681e-05
-0.0002829685732
0.000303665629184
0.000131658638669
-0.00873640866185
0.000122693815581
0.000123523364767
0.000116611837493
0.00140968819106
0.00494645340508
0.00188827193495
-2.34882824914e-06
-0.0208839985064
-0.00135173836849
-0.000195754012001
0.0188751718938
-2.27327360416e-06
-2.15644542728e-05
-1.05827633788e-05
-3.27158492864e-05
0.00362348259095
-0.0277959397517
0.00962449612413
0.00696573516552
0.00775314705994
-0.0367923352532
0.0529545793441
0.0781407590931
0.00722100919378
-8.36866591487e-05
-6.79290255288e-05
-6.08415723018e-05
-8.86217189876e-05
-0.000309147052902
0.000308492283802
0.000143302706679
0.0118274975489
-0.000103254824102
0.000106179966785
-0.0118421103538
0.0117549106088
-4.26769361667e-05
6.97030422699e-05
-0.0117749861797
-0.000144470950709
0.000137528813021
0.000304851829471
-8.09814297201e-06
0.0513614736835
-2.29190743356e-05
-1.56715116144e-05
-2.62980116382e-05
-0.000266971898587
2.08694878322e-05
0.0513294592811
3.65514626999e-05
1.05780686517e-05
1.91328147358e-05
-0.051402544729
0.000260854774692
1.76752240241e-06
4.59706759434e-05
0.0117168738825
-0.000142484013895
0.000132808841677
9.28872710768e-05
0.0128313265946
-0.000100675286689
1.04593767099e-05
-0.0128421028873
0.012828470825
8.59581633813e-05
4.72165913886e-05
-0.0128479222771
-0.000243600774286
0.204072593214
-0.00171205712628
0.00149018906177
-0.203607124194
0.20426986868
-5.03072415883e-05
-0.000376639776003
0.000384564316202
-3.67035724841e-05
0.204358483998
-0.000267801133622
0.000216190516777
-0.000528307569228
0.204098361812
-0.0015994280334
0.00143755077809
-0.203651796231
0.204408948853
-0.000107113256491
-0.000537721967972
0.000464308682365
-5.95058281574e-05
0.2045626876
-0.000355362262796
0.000224721540276
-0.00024854547812
-0.000338648517376
-0.000348140261439
-0.00146429898361
0.204011126789
0.00139247068821
-0.20328348091
-0.000248874168298
-8.78694581241e-05
-9.53743241574e-05
-2.99977069703e-05
-4.30691862499e-05
0.204632812641
-0.000472000814399
0.000449895870244
0.0510950451779
-9.47668233336e-05
-7.98298594631e-05
-9.59084556722e-05
-7.96413384441e-05
-0.000377365401743
-0.0509829611203
0.00036690456199
0.0513370373568
0.000296844594231
-1.52219567155e-05
-2.92483071557e-05
-2.09863386036e-05
-3.65745554701e-05
-0.00025829756517
-0.00344641804139
0.000197651986894
-0.0210972811309
2.26931395403e-05
3.18555967671e-06
2.82651695566e-05
4.38387325877e-06
0.0034033555455
-0.00114488614659
-0.000925794076793
-0.00118716133523
-0.0311500465173
0.0141725528974
0.0674706554032
0.0159402326098
-0.00125659768018
0.00865536207013
0.00395281130626
0.00768128041812
0.00479627119892
-0.00721381123119
0.0326488482898
-0.00703192285981
0.000302494062218
-0.000109963601827
-0.000136036991906
-0.000110166308593
-0.000138118676667
0.0512210384929
-0.000272805370074
-0.000108523279184
-0.000133871802166
-0.000109070392988
-0.000132535055272
0.0511853176874
0.000301645286404
-0.0510485494312
-7.51687629669e-05
8.57399032322e-05
0.011906736556
9.44719802646e-06
-2.58878810714e-05
-0.011900937431
-0.000106595748701
0.000175917064879
-0.0118904287621
-1.83321219998e-05
-2.5037805526e-05
0.0118644237579
-0.000128444685876
0.0127495646745
-7.88087997248e-05
8.51335353226e-05
-0.0127359560993
0.000242937155501
-2.29337711638e-05
-3.95003855702e-05
-3.64459041086e-05
-2.4168448347e-05
0.0513522713363
-0.000230494357768
0.0512568423587
1.70121076443e-05
2.7872390743e-05
3.20144365604e-05
5.15692934634e-06
0.000257399863167
1.77927742268e-05
-3.84352950233e-06
-8.29453605444e-06
-2.38434884822e-05
0.0512453124257
0.000229810888138
9.21943522128e-05
-0.000101581328629
8.15050076586e-06
0.0128173568883
-3.29483010711e-05
3.51060289637e-05
-0.0116282528203
-8.71934519515e-05
0.0116180156856
9.53413050305e-05
9.03359387693e-05
4.17962861598e-05
0.0128055045198
-0.0127882836443
4.11524712122e-05
0.0127768956844
-7.80599520686e-05
6.61516744532e-05
-0.0142217406348
8.31447074038e-05
3.50134650115e-05
7.23671591057e-05
0.00349075301062
0.000307448259655
0.00145354520151
-0.00327737355885
-6.10095873872e-05
-7.61401962672e-05
-6.75446604856e-05
-5.72118247048e-05
-0.0131143235995
0.00183950802291
0.0134623436426
-0.00448444556464
-0.0105083516725
0.0167776546705
0.00456001970616
0.0153719113885
-0.00926578769571
-0.0038159145693
0.000270855686372
-1.73538216045e-05
-3.27234843955e-06
-2.17079216419e-05
0.00426028918988
0.000166132960333
-0.00123198953127
0.0191614199082
0.00546764782118
8.82174270087e-05
0.0128158711538
-8.58000947138e-05
-0.0127807922078
-0.0128192984013
-0.000135635812103
-9.24561933876e-05
0.0128476227059
9.10175663592e-05
-0.000123527838187
0.000145745381618
0.0118066773238
0.00012130671057
0.000140131139906
0.0118168775403
-0.0118339293813
-0.000102810980237
-0.0127849029525
8.80878176348e-05
0.0117985020861
-0.000124124198199
0.0128482926921
-8.91452576166e-05
0.0128732038876
-0.000105454690038
-9.0214248306e-05
8.63890693696e-05
8.83811243809e-05
-0.0128759841973
0.0128748883317
-8.55785157398e-05
-0.000134403918706
0.000120045583922
0.000129184636424
5.65460137261e-05
-0.0117688225854
0.0117540201674
-0.000151196916796
0.0128717933182
8.54607370935e-05
-0.000137840343764
-8.65684811111e-05
-0.01286661323
-7.24557544397e-06
-9.24181032978e-05
0.0128594325901
8.70341070001e-05
9.09550380247e-05
0.0128667283264
-8.95331903506e-05
-0.000141049928387
2.12242335011e-05
0.0116885482108
0.000130769955103
3.65554962914e-05
0.0117213050119
-0.000149639637554
8.66134749327e-05
0.0116971854335
-0.000145982906137
0.0128572710521
-9.1973035414e-05
-1.7523506635e-05
-0.0128375001258
0.0128302893548
-9.88808347897e-05
-0.000124610522728
-0.0116759849174
0.0116565060271
0.000124293655628
-0.011677558093
-0.000121245097124
0.0116629970884
9.10720980178e-06
-9.80313314551e-05
9.05007795441e-05
-0.000136374980552
8.4976773435e-06
0.000129801157227
-0.000140365972201
-9.61367480749e-05
7.45202724949e-05
-0.012849358063
0.0128276150343
6.97295859175e-05
-0.000127359709576
-0.0117093617576
0.0117016895162
-0.0117226624318
0.0117217985915
-0.000128105141207
8.15657913307e-05
3.67384319745e-05
-0.0128651888249
-5.1161074811e-05
0.000143334808602
-0.0117412626598
-0.000141065771314
-0.0128677391429
6.78068358365e-05
-0.0117269405397
0.00276567860209
-0.000671344191351
0.000108514190632
0.000140404201752
0.000126501752294
0.000101010482999
-0.00313794789658
0.000768161511508
-0.000200755609161
-0.00675234270151
-0.0146722800911
0.0132689620493
0.00977763035549
-0.00217945122884
0.0029588297634
7.72388424765e-05
7.61210196081e-05
8.45233717405e-05
-0.00410181121024
0.00199202572276
0.00101754580025
0.00301673519358
7.99310095333e-05
0.000122445822515
9.13224189881e-05
-0.00479528004216
-0.00147164513352
-0.0113998560676
-0.00374321938924
0.00957453029777
0.00760139197872
-0.00137960463097
-0.0149485460147
-0.00237981883292
-0.0126633321159
-4.05822194888e-05
-7.79731360174e-05
-6.70738785155e-05
-1.82973919395e-05
-0.00131359094552
0.00372784028097
-0.00733417464415
-0.000624279868347
-0.00711713398259
0.00572875169445
-0.000507550989757
0.00659087082054
-3.65496370019e-05
-9.09361451906e-06
2.71414691318e-05
1.14316005868e-05
-0.0132166375724
-0.00552295940157
0.00417589454118
-0.00509880927384
0.000756934419731
8.58204268264e-05
2.95788594051e-05
1.27349461158e-05
1.15835339816e-05
-0.0196437850873
0.00496446628157
-0.00554206081747
0.00748468927252
-7.61207882348e-05
-0.0127310581015
-0.000111517058049
0.0127401155038
8.38157002276e-05
0.0127451818562
8.72072769805e-05
-8.798793958e-05
-0.0127384652509
0.000107231233642
-8.55734865572e-07
0.0119032751963
-2.56757716428e-05
8.54444510695e-05
0.0119050496869
-0.0118989433359
-5.99179509427e-06
0.0127517783181
-7.12511612224e-05
-0.0127253360597
8.74390453652e-05
0.0119023706676
-2.51344672082e-05
-6.11817232582e-05
0.0127520830907
-0.000135729838859
7.50589751809e-05
-0.0127608577111
5.22343567024e-05
-3.74058166933e-05
0.0127860520092
0.000128574203598
-1.17440713099e-05
-2.39426878794e-05
0.000184164404586
-0.0118875034062
-5.702470667e-05
0.0118644997311
-5.16421199067e-05
7.07684052042e-05
0.0127798183247
-4.11372692002e-05
0.0118645308724
5.3271072698e-05
-6.07201719574e-05
-0.0118770135048
0.000169595150443
7.56799662944e-05
0.0118449226724
-8.52736193303e-05
-7.96823796761e-05
0.0127777561965
8.73575555306e-05
0.0127485600879
-0.000124423887301
-0.012736787323
0.000169965467658
-0.0118809927811
0.0118562811367
0.0127772295876
-0.0118921419739
-2.63028940956e-05
0.0128258030074
-0.000100069249198
-0.00011966547048
0.0116496241152
0.000122973334883
0.0116619106117
-0.000107245386316
-0.000100394370093
-2.3457884544e-07
0.0128123425167
8.46586929688e-05
3.41236342611e-05
-0.000106551713553
0.0116381838
0.000112132768686
0.0128249261935
-0.000102015299102
0.0116546950009
-9.51414170189e-05
-9.17569618846e-05
0.0128114138758
-4.09554615969e-06
7.38545593273e-05
-0.0128286800617
7.88385452032e-05
0.0128325047302
-8.70543029682e-05
3.48493577641e-05
-9.78164464724e-05
0.000102470554808
1.12685481937e-05
-0.0116507776182
-7.30420946764e-05
0.0116380755103
-9.7107345117e-05
6.16985945698e-05
0.0128156807273
-8.63381547651e-05
-0.0128032334884
6.03364473678e-05
-8.58196292873e-05
6.83418070883e-05
7.46122311316e-05
7.2156911564e-05
-0.000107285101378
0.011702916953
0.0117210300202
-0.00010989024086
9.56688957819e-05
0.0117144369767
-9.57585733684e-05
1.15791784304e-05
0.0127979163677
0.0116967239839
0.0117169562148
7.93249592265e-05
-7.72161869577e-05
-7.71017548851e-06
6.56810144473e-05
0.0117098708262
-5.99799478684e-05
-6.60738260275e-05
0.0127772861736
5.4245290678e-05
0.0127940185842
-8.6095585955e-06
3.09787383762e-05
-0.0116925688636
0.0116813394968
0.012796843045
-9.43997903667e-05
-0.000101821243083
-9.68180386704e-05
-0.000188703068795
0.204979048108
-8.2141611465e-05
0.000158311296341
0.000177222833732
-2.32631610439e-05
-3.64585286164e-05
-3.50972404417e-05
-2.13781772729e-05
-0.000183030501506
0.0513798824528
3.0061187797e-05
-0.00751473634842
-0.000160500704845
2.52611330274e-05
2.47767223449e-05
2.64705877742e-05
0.005378757001
-0.0174541265778
0.00605313122998
0.00671320330481
0.00663432952846
0.0239413726947
0.0186760407908
0.00601803816261
0.0102498199893
-0.000134591217216
-0.000125509501994
-0.000127438499119
-0.000132171810538
0.000333439930622
-0.000274544506066
0.0513365941202
-0.000136426279891
0.000173788255391
8.57236660274e-05
0.0118281277366
0.051270809303
-3.82489901969e-05
-1.7105572026e-05
-2.88980996143e-05
-3.43950033514e-05
0.000168758654667
0.0512857550828
-3.0801376123e-05
-3.29416524375e-05
-2.8907195981e-05
-3.16454067273e-05
-7.68534258763e-05
8.95212977675e-05
3.26890488493e-05
0.0116016934598
-7.25364082251e-05
8.62162363523e-05
-2.48925009195e-05
1.63495984723e-05
5.37164569408e-05
0.011712718656
-4.79733815396e-05
0.0116979811675
-2.42474567188e-05
3.12185089678e-05
4.23954289487e-06
-0.0116973430275
-1.16886257116e-05
0.0513066606317
-1.60992426738e-05
-2.64669474027e-05
-2.17877263134e-05
-2.08011054004e-05
6.77564197056e-05
-9.37186106084e-07
-2.49408053425e-06
-5.41729301228e-06
-3.63893304045e-06
-1.51449263864e-06
-9.64779718451e-06
1.73232223459e-05
9.00533589047e-05
0.051289746929
-7.02289365493e-05
-9.97636219482e-06
1.93342236253e-05
-1.24084709853e-05
0.0116988033647
2.12332812227e-06
2.03116054132e-05
-6.98575257141e-06
-2.97322815048e-05
-0.0116983680469
0.0116912906588
2.33874947288e-05
0.000140644221173
0.000128631479204
0.000130807825454
0.00208021031619
-0.00725663496899
0.00291202945666
-0.0129916361416
-0.000224482841627
3.26507003376e-05
3.17773977361e-05
2.97576849323e-05
-0.00763432380385
2.60108615509e-05
-0.0120383542016
1.76204142699e-05
3.23896383017e-05
2.18393801574e-05
0.00697472162511
-0.00805020975549
-0.00171800330707
0.00552984607136
-0.003461586907
-0.00254752762531
0.0021984598796
0.00152126910943
0.000380561082759
0.00218740494667
-0.0111655028499
1.32351883841e-05
-4.05292830741e-07
2.90041265152e-06
0.00482322142485
0.000126546893852
-0.00584828219427
-8.77126900492e-06
-1.23910480143e-05
-4.99543009244e-06
-0.00022294391818
0.000189033463372
-0.00953342110932
-0.001551754698
-0.0128173506346
-0.000181839734404
7.86145573111e-05
-6.31390173887e-05
0.0128491317158
-7.67229121422e-05
0.0128170500325
0.000180199904426
0.0118380758804
6.43992551552e-05
9.82423375748e-05
0.000173890131246
0.0118059531457
-6.39262088281e-05
7.27364004162e-05
0.0118126477331
0.0128484232078
-4.37876735628e-05
-0.0128209278425
-1.46917926172e-05
3.10410487749e-05
0.0128251191657
0.0128380700988
5.99181089424e-05
-6.92658396722e-05
2.13234471952e-05
-5.97146895666e-05
7.46592506698e-05
0.011590667492
1.38257979247e-05
0.0116302451607
-5.37760938604e-05
-5.62203487946e-05
0.012836701932
4.71516740628e-05
-3.73297137061e-05
0.0116196764826
-0.0128018603991
-3.89823023168e-05
2.57250238865e-05
0.0128078949999
-4.76319469645e-05
0.0127826596983
4.16149744792e-05
3.4387294792e-05
0.0116795832417
3.88628316306e-05
3.84100209183e-05
0.0117043411841
-3.70905805945e-05
0.011671951533
0.0127900702689
2.24583409526e-05
0.0128140333757
-3.08894390456e-05
9.62558624607e-06
-1.56544959313e-05
2.63162769904e-06
-0.0128001209817
0.0128029098864
-7.03431021679e-06
2.18704816029e-05
-0.0116651222462
0.0116661566716
-1.04574576358e-06
1.99988468101e-05
4.11149414662e-05
-2.15080221657e-05
0.0128138440435
-4.22450225223e-06
1.77444617896e-05
9.17885085186e-06
-0.0128118152859
-4.32605940134e-06
-1.93921744283e-05
0.012803046246
1.63905191336e-05
1.26773131181e-05
0.012801951498
-1.88600939484e-05
1.41569887796e-05
0.0116727441375
-1.99146780807e-05
-1.88867068338e-05
6.86006069909e-06
0.0117019023883
8.23566408303e-06
7.09648162649e-06
0.011681149252
-2.87539070682e-05
0.0127958759823
-2.72579938167e-05
0.0127989721124
2.09280977914e-07
-2.41405379141e-05
2.26010587518e-05
2.58416046962e-05
-0.0127930567256
0.0127894367374
-3.29012225605e-05
-5.51164509332e-06
-0.0116846588352
-3.31841021141e-05
0.0116848469988
-2.87772959873e-05
-6.48947927491e-07
2.04068413384e-05
2.45202456486e-05
0.0127932785765
-3.71248910277e-05
-3.16071621732e-05
-0.000734946277978
-0.0502353415609
0.0501669409937
0.000798133689548
5.80101230765e-05
-7.43709284188e-06
5.47538593588e-05
1.29116442678e-05
-0.000113497080799
-0.000832430289388
0.0505000130067
2.831085426e-05
1.28545551846e-06
2.18886748851e-05
1.17442775032e-05
-3.76468331669e-05
-0.050520806823
0.000827248806732
-0.00104292724561
-0.0504740806857
0.0505264065322
0.000942638692517
7.02539962021e-05
5.95079136781e-05
7.6146751163e-05
5.68757468973e-05
-0.000214839271166
-0.000814339007526
6.21287252425e-05
5.64010139667e-05
5.93242466561e-05
6.05006591585e-05
-0.0001254947567
0.0505706817134
0.000712551517827
-0.0505817520985
-7.30822803901e-05
0.00281597120746
0.0261296519784
-0.0268673023208
0.00177139611584
-0.00338818660585
-0.000151424239506
-9.02909226105e-05
-0.000153376465058
-0.00030907244213
0.0195576862779
-0.00830929205314
0.00359532475424
-0.0142597293263
-0.000345797460184
-0.000291820860967
-0.000334892949106
0.000667754390412
-5.46145872032e-05
-0.0040381485128
-0.0314181276842
-0.00252263258878
-7.72771057542e-05
-6.15018842343e-05
-7.82786715627e-05
0.0359154120128
0.00233444817431
-0.000188266360245
-0.00477366181024
0.0216658818864
-0.0105600618725
0.0024575017306
-0.0080495525157
-0.00021005228092
-0.000159518841699
-0.000182467740718
-0.00012118085589
-0.000205190790051
-0.000125864863726
-0.000121196492326
-0.000123342079858
-0.0100117412965
-0.00162562468402
-0.00542166406184
0.0177558369052
0.0848072894287
-0.0201037485754
0.00478381022935
0.0122548540921
0.00713153271
0.015746903629
0.0156175137878
-0.0376516974265
-0.0490985942099
0.0145707492917
0.0142226505568
0.0158201320185
0.0152565017957
0.00693293854057
0.0589063343277
0.0595695998199
-0.026927493617
0.00952330659006
0.0171892679836
0.010031180009
0.0160993098252
-0.0203885899876
-0.0311677242459
0.0200637171233
0.0175002779196
0.0178219924079
0.0154289260454
0.0678903279634
0.0624963806243
0.0102882305817
0.0146717360781
0.014740090189
-0.0328629265192
-0.0116407506086
0.0115273771666
0.0143868240969
0.012773607758
0.0126575495229
0.0106345511618
0.0785898534281
-0.0121833890253
0.000401713854461
-0.000136716649606
-0.000117240571347
-0.000110536421817
-0.000145540077206
0.0500884659901
0.000343520163405
-0.000103404671407
-0.0502204470111
0.050100525711
0.000601759021279
-0.000105494549703
-6.37286617438e-05
-8.14167148356e-05
-9.19973940597e-05
0.000282993861575
-0.0502410593229
-0.000164072145554
0.000148941394856
-0.0122033954721
1.65478347095e-05
0.0121975074157
4.2264982092e-06
0.012215251985
4.72423748699e-05
-6.33593342911e-05
5.27373322826e-05
-4.43628288285e-05
-0.0122084026348
5.21790689113e-05
-9.12759212306e-06
-2.26766560184e-05
6.19687042244e-05
-0.000515585316622
0.0125029957787
0.0124288506825
0.0124944074548
0.0125014157807
-0.000130087036328
6.27685030445e-05
4.49522427406e-05
1.68882526521e-05
-5.82366740018e-05
0.0121504177387
0.00071722984349
-5.63734061912e-05
-4.50668752979e-05
-7.0209002216e-05
-2.94071867199e-05
0.000159585117862
-0.0503094235761
0.0503649015129
-4.57885249696e-05
-1.40435913617e-05
-2.38172126976e-05
-3.55250479182e-05
0.000106651814445
-0.0503949118556
0.000759788287015
0.0122375786964
-3.34208174375e-05
4.03046437368e-05
-0.0122338746433
3.68702574169e-05
0.012260673669
5.8388144592e-06
1.11575748133e-05
-8.91429103598e-06
-0.0122620016394
-5.99389515102e-06
0.00101144495051
9.50458896205e-05
0.000144448059385
9.37215312662e-05
0.000143997685735
0.0499516636424
-0.000232523156306
-0.000197230155932
-0.00022646826775
-0.000190381774079
-0.000128181904458
-8.50049890585e-05
-0.000119689876555
-9.41032166652e-05
0.0503177458233
3.34309096243e-05
8.32642649823e-06
-1.61698436535e-07
3.26003506315e-05
-6.22149483019e-05
0.0503441613865
0.000909492438026
6.04320599619e-05
8.52736701805e-05
9.66121455732e-05
5.63377722818e-05
-0.000223437479476
1.14843437402e-05
0.0121699561801
4.46911809399e-05
0.0119464707582
0.000269800614088
-0.00019058758501
-0.0120208116509
8.15564472421e-05
-8.6535007476e-05
-1.17423972023e-05
7.79981450458e-05
-5.43919990552e-06
-7.56751032936e-06
0.0122065050326
0.0120163995679
9.35680448765e-06
0.000194302745572
-0.000103783158042
-3.35402186464e-05
-0.0120828748988
0.0503370156408
0.000138762150586
9.74370159246e-05
0.000108123585109
0.000119918938613
-0.00109329688719
-0.000406894011346
0.00120762165602
0.000144411411603
0.000125522012645
0.000126790472649
0.00014809456632
0.0507271290656
-0.000613088774806
-0.00152955843298
-0.000213458480324
0.0118627515531
9.25119481515e-05
-0.00010434113024
0.000300336278256
-0.00025445507687
-0.011766735681
0.000135600019259
0.0117366493465
-0.000151444031556
1.25596875788e-05
0.000217029447323
-0.000111075070006
-3.77346504793e-05
0.0119355583833
7.41434404947e-05
0.000201851216108
-0.000119072413487
-9.69917149218e-05
-0.0118190765947
0.0117590243553
0.000848431046681
3.62386982878e-05
5.29123200327e-05
3.25842524251e-05
5.11568174897e-05
-8.5811392183e-05
0.050546493244
3.98507126224e-05
6.16508942559e-05
5.3145394934e-05
4.75522695352e-05
-8.75377174417e-05
-0.0505901645956
0.000777421075778
-1.5760041435e-06
0.012205031927
-2.15946847963e-05
-0.012248543992
0.0120273484876
0.00016612152903
-7.35651242482e-05
-0.0120916185641
-1.89208878919e-05
0.012037656698
0.000147813279452
-9.41439764117e-05
3.57267077599e-05
-0.0120926604014
-3.43731380429e-05
0.000998734148399
7.18254385438e-05
7.97925078529e-05
7.90023870958e-05
7.11139956094e-05
0.0507080104955
-0.000274461758216
0.0505698530343
5.92306869261e-05
5.87839620552e-05
5.12862164842e-05
6.42415421028e-05
-0.000128578334728
5.41961676367e-05
5.08981557191e-05
5.88505741903e-05
5.1406377549e-05
0.0506614762734
0.000843165971518
-0.000151465797885
-7.54294371993e-05
0.0119492999853
-2.23423036692e-05
0.000198723475404
-9.07619267974e-05
-0.011831999856
2.78465755075e-05
0.0117703588595
-4.48112675933e-05
0.000138048832282
-8.16973276885e-05
4.61169045882e-05
0.0119799096308
-2.84406311458e-05
0.000118322466856
-5.72497802985e-05
2.02183702693e-05
-0.011886226813
0.0118333576656
-8.10213202025e-05
0.0119833387713
-3.13325991734e-05
-0.0120370088045
-4.82319454077e-05
-0.0118997523822
0.0118567037116
8.51598416952e-05
-2.23521998886e-05
-0.00506149543916
0.000221799681431
0.000137372333194
0.00019117678463
-0.0223866126212
0.00199203178992
0.0203307968077
0.00441613678731
-0.0235222321721
-0.00465129856539
9.90386162504e-05
0.000100646811241
0.000148784146119
0.0204661738063
0.00223674612133
-0.00127519128628
-2.34915756842e-05
-0.00014129813394
-0.000111839348813
0.00564468150623
-0.0247578752571
-0.0072872392338
-0.00583904153592
-0.000632955867396
0.00419624164115
0.0142982544877
-0.00300951310096
-0.000825068712813
0.00730643660267
0.00151838435864
-0.00755228661925
-0.00711533860884
0.0146113551069
-0.00187010683072
-0.00340508784224
0.0104629643957
-0.00203598841832
-0.00720705032778
0.0148398779443
0.00815697236771
-0.0102595291648
-0.00293627701221
0.012878407077
0.0125042315817
-0.00292318689219
-0.00614432564646
0.0157907926106
-0.00905793770262
-0.0026736402887
0.0137843417419
-0.00149587877432
8.15276358564e-05
9.68633249071e-06
5.08562716427e-05
6.81553708122e-05
0.0227279586865
-0.0308630234873
2.63769813491e-07
3.17515034025e-05
3.57600260914e-05
0.0284026510665
-0.000263905535577
0.00116488682842
0.00361966577082
-0.011375176627
-0.000218606631504
-0.000278699825184
-0.000237608829785
0.00144155103004
-0.0293357512503
-0.00342980117812
-7.70768613789e-05
-9.77108323926e-05
-0.000109381505672
-0.00901653435337
-0.0209457648563
0.00501076612018
-0.000220725993817
-0.000166408640796
-0.00018446795022
-0.00735055016531
-0.00775755485554
0.0141844926976
-0.00510326427519
0.00013783425728
-0.00616740289206
-0.0086622794202
0.013668939919
0.00176186896802
-0.00596945984074
0.00204159880823
-0.0121486596011
-0.000297148374133
-0.000263449503843
-0.00027301725205
0.00104657642382
0.00188273083177
-0.00987931329371
-0.011233770545
-0.000263960490749
-0.000240352619108
-0.000290156573599
-0.00961114116265
0.00398467044471
-0.000258655049263
-0.000200998087908
-0.000256460222378
-0.00129200663859
0.00581390213193
-0.00599953091074
-0.00375953703648
0.00599394475571
0.00759790481309
-0.0052571043491
0.000160681257088
0.00946766126809
0.00256133222178
-0.0067095405409
-0.000144673050451
-0.00015021098108
-0.000132483528603
-0.00627392562278
-0.0194215230712
-0.000131487229256
-0.000131983574596
-0.000114657744256
0.0284254674671
0.00035601468532
-0.0033089599327
0.00937619876595
-0.00698267729995
-0.00547370214867
0.00416986535248
0.00632172349303
0.00121758600266
-0.00455813457482
0.00307261014497
-0.00742264060228
-0.000195396035709
-0.000164528722513
-0.000161665515766
-0.00150499525564
-0.010545533719
-0.00605428257077
-0.000136681964186
-0.000151661185183
-0.000143583848653
-0.00548890184612
-0.000138401226068
-0.000120810889945
-0.000140581455535
-0.00256738686012
0.0011017291717
0.0100594336142
-0.00478825101164
-0.000556584150696
0.0161217401414
0.0121154521794
-0.00396883352643
0.019171206239
-0.00247506173768
0.0126771828961
-0.00018459837949
-9.03725542934e-05
0.000121849958062
-0.012660873052
0.000101477881645
-0.0126714400443
0.0126484461647
-4.64204337503e-05
8.7202365233e-06
0.000214918052064
1.19686182499e-05
-0.0122174115853
0.000118098363934
-0.0121936349038
3.38851413125e-05
0.0121949478177
0.000134331813455
0.0126523629513
2.65334388331e-05
-0.01220488075
-3.8575796796e-05
-0.0126537395013
0.0126826508502
0.000145177814889
-0.000143201882945
-0.0126681990987
-0.000159587632786
-0.0126834256363
0.0126632213697
0.000168695536057
8.25139952472e-05
-0.0122080294493
0.0122138943741
0.000108964101757
-3.89776408773e-05
3.90431034029e-05
-0.0122170864691
0.01265901098
0.000153144120773
-0.0126744838206
-0.0122152760332
-0.0126462392414
0.000179504030558
6.50081056183e-05
-0.000150866508465
0.0126047394923
-0.000158711776114
0.0126593935865
0.000169814390579
3.44599765076e-05
0.0121515706024
-5.37511935282e-05
-8.97017464167e-05
-6.6918661227e-05
6.96047651553e-05
0.0120959709171
-0.000135402894132
0.000185782759722
0.0126247099461
-5.96290054383e-05
0.012097505962
-0.000165601580258
0.0126951861571
-6.63067862317e-05
0.000170579899551
-0.0126902869849
-0.0126905485334
0.000175161866504
0.0126793046733
9.02261094292e-05
3.58100526383e-05
-0.012239335845
2.05933463858e-05
-0.0122446503877
2.59631617672e-05
0.0122447483488
-0.012683357457
0.000176634353853
0.012684784919
2.8499115003e-05
-0.0122529877499
0.0126986468897
0.000176307672155
-5.46152097453e-05
-0.0126957494474
-0.000180451834946
-0.0127024760239
0.0126940763767
0.000186108353079
1.92254728455e-05
-0.0122555263063
0.0122542569782
4.26347211105e-05
-1.3983126763e-05
-0.0122605006321
1.46565468139e-06
0.0126903373044
-0.0127000846242
0.000180748320815
-0.012259792657
-0.000184011935907
-0.0126848669096
8.16333859967e-05
0.0126657032928
0.000179511682889
0.0126776017152
0.000175272047503
-7.97036823443e-05
5.44030218337e-05
0.0121118316906
-8.81156891803e-06
0.0121807659717
2.74909225526e-05
0.0126534342011
0.00017913377649
0.0121281143397
3.47912232483e-05
-0.000202971493466
0.0126502427152
0.000122500458791
0.000190573305808
-0.0126343030973
0.000203947659142
0.0125893973723
-0.000205243205012
-0.000113340673796
6.38436376898e-05
-7.91587666304e-05
-0.000187604287543
-0.0120366588851
6.14131492778e-05
0.0119649853711
-0.000203941831413
0.000199192997907
0.0126111051366
3.85510066477e-05
-0.0126864961564
0.00018433174077
4.23701025694e-05
0.0126725262363
-0.000181182120839
0.0126898248306
0.000187949613795
-9.53155412393e-07
0.0121972731126
-3.75995774121e-05
-1.40061708387e-05
0.0121670942188
-6.52466742533e-06
0.0126780051036
0.000191100751682
0.0121506021648
0.0126600024797
0.000189789440759
7.3802750908e-05
-0.000198662309407
-0.0126697273686
0.0126454564292
0.000204378255853
-0.000125047840255
-0.0120647734927
0.0119975020503
-5.90902978452e-05
-1.39087114705e-05
-9.33561153035e-06
0.0126318921626
0.000194979447147
-0.000248722397459
-0.0125909013484
0.000253041446539
0.0125500805158
0.000239279822903
-0.000202924742701
0.0125592519314
0.000226873697873
-0.000171147533819
-0.000239170964619
-0.000273264441576
0.000117303851243
0.0117951035619
-0.000122419985179
-0.00019415997161
0.0118843071211
7.48926765374e-05
0.0125198827293
-0.000217303444151
-0.000265563879534
0.000218587389827
-0.000166014320772
0.0118154750301
0.000103597312021
-0.000281731576733
0.000238131123371
0.0125585664494
0.000277114937306
-0.000242242130755
-0.0125297578059
0.000310030876175
0.0125672545118
-0.000333734162416
-0.000268246767285
-0.000256958494646
0.000124871284696
-0.000136782339065
-0.0117787549682
-0.000228043335953
0.00014111185193
0.0117376017688
-0.00029487044064
-0.00025389988761
0.000126245839959
0.000304106834724
0.0125875860164
-0.000251450568596
-0.0126118665475
0.000222160143845
0.000184709775017
0.0125830322314
-0.000207088329862
0.0126305641502
0.000208212732304
-0.000139431557366
0.011909873508
-0.000147223891041
-6.28039710151e-05
0.0118663569354
3.87963444558e-05
0.0126053219146
0.00021980194476
0.0118450125208
0.000246477226982
0.000169965218321
0.0125879185973
-0.012605774191
-0.000266278510931
0.00025264274477
0.0126258401785
-0.0118003914652
-0.000160170754309
0.0117464563619
-0.000132054629301
-8.41639875281e-05
6.25089995632e-05
0.0002405628507
0.0126135541318
-0.000196317940473
-0.0126998568648
3.79313872741e-05
0.0126880271374
0.000198547911229
0.0126940793685
0.000191711350444
-0.0126984237355
-2.68807307222e-05
-2.22170021884e-05
0.0121704317022
-1.23933892327e-05
0.0122013299344
-0.0122443185595
-2.79299903979e-05
0.0126839968379
-0.012704046411
0.000194864284848
0.0121708401843
-3.2055082995e-05
-0.000195154756808
0.0126777967211
4.30708379703e-05
0.000198543607231
-0.0126737215817
0.000203718986995
0.0126537078758
-4.26444537711e-05
-3.26492532201e-05
-6.80755611765e-05
-0.0120976749152
-3.87630216802e-05
0.0120351893221
0.000205965289205
0.0126585460713
-4.90394536382e-05
0.0126811481697
0.000194432391325
5.48667409471e-05
-0.0126920664663
-0.000200144684923
-0.0126832932804
0.0126637096221
0.000187163540669
-7.71434621899e-05
-0.0120959885284
0.0120386695038
-7.12191747808e-05
4.14817034642e-05