/*--------------------------------*- C++ -*----------------------------------*\
| =========                 |                                                 |
| \\      /  F ield         | OpenFOAM: The Open Source CFD Toolbox           |
|  \\    /   O peration     | Version:  v1906                                 |
|   \\  /    A nd           | Web:      www.OpenFOAM.com                      |
|    \\/     M anipulation  |                                                 |
\*---------------------------------------------------------------------------*/
FoamFile
{
    version     2.0;
    format      ascii;
    class       volVectorField;
    location    "6.7";
    object      U;
}
// * * * * * * * * * * * * * * * * * * * * * * * * * * * * * * * * * * * * * //

dimensions      [0 1 -1 0 0 0 0];


internalField   nonuniform List<vector> 
28582
(
(0.813227621037 0.00234161173377 -0.000805065095176)
(0.815151378873 0.000649508701 -0.00062977260066)
(0.813633563546 0.0023166465523 -0.00222016239068)
(0.815519062069 0.000708736538866 -0.00139625170359)
(0.814485119825 0.00157655878936 -0.00549019637321)
(0.816862126753 0.000779490320256 -0.00354035520656)
(0.813508841032 0.000736592332863 -0.00823133395181)
(0.818269087421 0.000325951951456 -0.00563397216235)
(0.0683023476758 0.119284731432 -0.0162540338474)
(-0.205650132732 0.0832494625884 0.00453334798439)
(-0.192745579731 -0.27308355816 0.627187178696)
(0.818128061763 0.000229684259634 -0.00769653363333)
(0.78680090174 0.00204157576207 -0.007643231493)
(0.787934242878 0.00185461840734 -0.00808702260271)
(0.81940718269 -0.000178116414553 -0.0019717173777)
(0.819268661304 0.000699565063683 -0.00122041147887)
(0.788244220614 0.00236567966312 -0.00750176985139)
(0.819785147583 0.000208956954928 -0.00207266213548)
(0.81976348017 0.0013297082647 -0.00183992321823)
(0.812217089006 0.00501310090638 -0.000957515177512)
(0.81557542097 -0.00103837467814 -0.000469373074526)
(0.814418558398 -0.00190796403949 -0.000405441821874)
(0.812103301249 0.00471019823859 -0.00208240143669)
(0.815878956284 -0.000960299150434 -0.000245438658057)
(0.814556972442 -0.00174513558948 3.24652028966e-05)
(0.812012917811 0.00437046392269 -0.00390723446705)
(0.81710355351 -0.000736530097153 -0.00083748756389)
(0.810063755226 0.00396059619461 -0.00454748545094)
(0.818829665673 -0.000532320229922 -0.000362373771494)
(-0.223542562298 0.0871518576425 0.00816794829163)
(0.288725323428 0.157591998387 0.261269995372)
(-0.154061667027 -0.188985823839 -0.500940025404)
(0.812836497178 0.00315470435427 -0.00691636190339)
(0.812015261868 0.00225817703745 -0.00697912841406)
(0.790283689806 0.00960180762433 -0.00341086931201)
(0.790132973227 0.00791284429305 -0.00617411464093)
(0.809160880806 0.00165634761723 -0.00795624356061)
(0.816866197447 -0.00104527195201 0.000603293861685)
(0.818654963085 0.000898946507328 0.000231081409257)
(0.816324819655 0.000555490589636 0.00178474647823)
(0.818420213355 4.00670987737e-05 -0.00161421005046)
(0.779275617633 0.00144502404829 0.000669466793486)
(0.818165574202 0.00136700419839 -0.00150065147001)
(0.815801366396 0.00310535755707 0.00136261239114)
(-0.0273963076841 0.0749454645792 -0.0151627343743)
(-0.238780451196 0.0448871674202 0.0102046824941)
(-0.150071237064 -0.0129152913352 0.0796877075999)
(-0.15872636499 0.0430732870692 0.084309811914)
(-0.127601590544 0.0595708248559 -0.0054161728892)
(0.00774073546434 0.0633114419026 0.115257369287)
(0.812320974431 -0.00015848783464 -0.0109234599204)
(0.815244520563 -0.00137846091634 -0.0138371097342)
(0.786780492259 0.00168622739917 -0.00861169392761)
(0.786070841047 0.00123277621839 -0.00868161775564)
(0.811975092992 -0.00142552736937 -0.0118830055378)
(0.786481724227 0.00118917860297 -0.00950393002518)
(0.815134301851 -0.000332014231929 -0.0126795095036)
(0.816779528405 -0.00122378515675 -0.012209376959)
(0.819999157378 0.000117685976047 -0.0108866223572)
(0.787117392854 0.00163101015027 -0.00847480415512)
(0.787856426669 0.00206831529964 -0.00888282010355)
(0.82032323135 -0.000537614668575 -0.0116604753742)
(0.786922269441 0.00150944971082 -0.00926922790281)
(0.816628891847 -0.00022951722322 -0.0113107863717)
(0.821639496396 0.000294685708736 -0.00704903313984)
(0.820271977498 0.000353249325753 -0.0091473534219)
(0.788296644149 0.00289135328943 -0.00600297608447)
(0.78818207161 0.0029328105809 -0.00826431664852)
(0.820459992777 -2.16101769838e-05 -0.009878871973)
(0.788041989996 0.00355210906222 -0.00664430057143)
(0.821634943731 0.000521515929349 -0.00649390765405)
(0.820095103726 1.68566210516e-05 -0.00148286284489)
(0.787197034794 0.00381095695968 -0.00268300598516)
(0.786295272785 0.00451812066986 -0.00308695471506)
(0.820363111996 0.000441666772066 -0.00546676201701)
(0.788143762575 0.00348109649848 -0.00481765386066)
(0.787761796563 0.00418409694745 -0.0052840488791)
(0.820566697635 0.000377101314214 -0.00489198596842)
(0.819800896397 0.0025304465721 -0.00142580565682)
(0.785922353737 0.00411011510661 -0.0038779951645)
(0.785224150044 0.00353332227975 -0.00298669227912)
(0.820405681283 0.00148021667645 -0.0055480656729)
(0.787286853998 0.00364360991186 -0.00591828090709)
(0.820765501561 0.00251239947337 -0.00579688409676)
(0.787546591845 0.00387110290781 -0.00600143841532)
(0.147813842855 0.161608593459 -0.00971854679822)
(0.144148841521 0.131789910986 0.15493208667)
(0.242313255863 0.163172583562 -0.00597910599454)
(0.123162516942 0.15057103698 -0.0101773883098)
(0.156231206185 0.140411027475 0.131448608186)
(0.0554902580399 0.172719510018 0.136491577886)
(-0.225656698497 0.0190431489254 0.013925737063)
(-0.143793267881 0.0191111333417 0.0337701687442)
(-0.176258161311 -0.0524216144581 0.109727869602)
(-0.135487152112 -0.0187607665282 0.0156112329569)
(-0.0196078875949 -0.00835683941888 -0.071400783646)
(-0.179484914876 0.0521939753938 0.010436014812)
(-0.0128002109289 -0.0810306437411 0.0117097132684)
(0.808533813008 0.0034627508404 -0.00732850196608)
(0.808115126582 0.00440211724831 -0.00543951252717)
(0.79017574081 0.00921727536871 -0.00460599270472)
(0.789556729426 0.00845452286023 -0.00381500045194)
(0.808899760693 0.0041406183677 -0.0068988310054)
(0.807796519792 0.00386276971283 -0.00583095590092)
(0.789243182908 0.00829138310058 -0.00466100161706)
(0.810348194743 0.00289676704889 -0.00759288121081)
(0.812119415644 0.00342462742563 -0.00895899838386)
(0.790296037542 0.00850209914604 -0.0051035049569)
(0.789073815775 0.00683436688599 -0.00637876571552)
(0.810835897666 0.00378752602228 -0.00714839363762)
(0.811698304345 0.00242431299482 -0.0094395765135)
(0.789239118456 0.00740947496711 -0.00542315219776)
(0.788120102551 0.00463286212262 -0.00567659191038)
(0.787642502828 0.00430000398663 -0.00708461176217)
(0.810706468488 0.00118533466274 -0.010295857693)
(0.809804260719 0.00230787628356 -0.00740990585962)
(0.788327142508 0.00528664855837 -0.00661268350181)
(0.811261658667 0.0017681810446 -0.00962409397931)
(0.788739915193 0.00584924262198 -0.00532844118766)
(0.818815036069 -0.000292333252817 -0.000872440177952)
(0.785985099031 0.00364049064886 -0.00123618485112)
(0.78462614548 0.0041187305982 -0.00212813023921)
(0.817560045351 -0.000256793862908 0.000318328854785)
(0.784177976805 0.00325007764965 -0.000225153314004)
(0.817642873537 -0.000738544882535 0.00118427809421)
(0.782860780413 0.00358419059619 -0.0008015129466)
(0.816416045524 -0.000371393688943 -0.000127533181734)
(0.815082427084 -0.000727991932003 0.00126307931485)
(0.781991302986 0.00247337382241 0.00034546794173)
(0.777645170148 0.00176611931212 0.000748675983549)
(0.816582423133 -0.000804283482502 0.000680986316248)
(0.815051525228 -0.000519425128932 0.000858993317941)
(0.780250668534 0.00273368732744 -5.15225302209e-05)
(0.817369490807 0.00309415771446 0.00162802006865)
(0.818346384797 0.00289141067092 -0.000808044812338)
(0.783901375176 0.00383830932165 -0.00328827677052)
(0.783022779392 0.00278275733662 -0.00175804864141)
(0.780897683944 0.00209351619571 -0.000364943142471)
(0.817264145874 0.00133665102753 0.000302023389642)
(0.782080064329 0.0033319896052 -0.00241117644387)
(0.778160204852 0.000964649919831 0.000406058421857)
(0.775343751588 6.53749135437e-05 0.00161660662592)
(0.814366261818 0.00259554084897 0.00275727018468)
(0.815933666028 0.00120552313963 -0.000107371335519)
(0.776381581588 0.00189927132313 -0.000716526884537)
(0.814535549557 0.00086595429091 0.00113986429912)
(0.779237401487 0.00247496412363 -0.00162116515141)
(0.815182368879 -0.00163737201041 -0.000480105147674)
(0.81642347327 -0.00121831776921 -0.000509948656308)
(-0.126768493461 0.0271424554316 0.00293891952033)
(-0.016440228483 -0.10370442997 -0.501703277935)
(0.814152701996 0.00171583173106 -0.00636928886044)
(0.787744630977 0.00338671448861 -0.00743914361653)
(0.815839132157 0.000278302579135 0.000628178313992)
(0.813832553771 -0.000432816366258 0.000211871344054)
(0.77690385225 0.000250930954944 0.000169242505418)
(0.773155056742 -0.00102189373816 0.00167535933069)
(0.771008383695 -0.00284891237834 0.00089629057413)
(0.813034139088 -0.00137050790716 -0.0021378009622)
(0.81215588 -0.00238598080917 -0.00366884649411)
(0.771817849279 -0.00320264261046 0.000281211623623)
(0.774737540212 -0.00422685871709 -0.00439691555377)
(0.0655366665813 0.133952026204 -0.0124152880134)
(-0.0620375814164 -0.0421835922248 0.00797120565513)
(-0.00131067517659 -0.0375470824662 0.00182254753491)
(0.0759309800986 -0.083831816193 0.0408192092982)
(0.051799824695 0.0288429544589 -0.0260183421857)
(0.0610136361362 0.0366134429185 0.00924325579814)
(0.0040135016056 -0.0139416891133 -0.00553529715464)
(-0.0209131446904 0.0135612879005 -0.0101712211682)
(0.815453355652 0.000823011655537 -0.0106417094745)
(0.812591098608 0.000687107411816 -0.00970930858483)
(0.788497948104 0.00464742860759 -0.00686522247977)
(0.787401505776 0.00288016680839 -0.00808573402279)
(0.813173046202 0.00120936872312 -0.00911680293074)
(0.788304087479 0.00392792432788 -0.00737972220138)
(0.815091084302 0.000337840433866 -0.0113936153879)
(0.813584941219 -0.000861591713026 0.000136202536868)
(0.814451128823 -0.000720068725289 0.000437310637688)
(0.774748238308 -0.000755284379804 0.00030256222404)
(0.775414759412 0.000668281673872 0.0006535236969)
(0.813920032489 -0.000909093332894 0.000184837885043)
(0.814354332455 -0.000637284993406 0.000244252882281)
(0.773553717362 -8.4012083396e-05 0.000834001642261)
(0.813085071363 0.000291861649313 0.000545126295068)
(0.813584789531 0.00216957148424 0.00203980392691)
(0.774094610395 0.000747086026831 -0.000667058531506)
(0.771662830771 -0.00176336168027 0.00195200583419)
(0.813937055523 0.000598099745736 0.000580447798828)
(0.7725464506 -6.318940935e-05 -0.000339158909161)
(0.812442517384 0.00164488175778 0.00231814714794)
(0.81220791968 -0.000397591333718 0.000301814923193)
(0.810731592873 0.00018636583075 0.000211339033609)
(0.771505746634 -0.00162540280096 -0.000125166932383)
(0.770970762906 -0.00257913993378 0.00147730166221)
(0.811336891498 -0.000791632837583 -0.000324705064181)
(0.771640534148 -0.00101842888127 -9.32487011676e-06)
(0.811470161351 0.000697480664469 0.00142736809719)
(0.809872434462 -0.00173310976496 -0.00309459814381)
(0.809616906329 -0.000438753510229 -0.000549346472367)
(0.772084766636 -0.00206837913241 -0.000517426039929)
(0.773140861237 -0.00341744999477 -0.00140098385052)
(0.81022711443 -0.00134728745721 -0.00087015306008)
(0.773337955973 -0.00248185506869 -0.00216345419298)
(0.809281403597 -0.000846009620306 -0.00283620580097)
(0.809938262603 -0.0021851100723 -0.00395802058809)
(0.810312267844 -0.00176626485344 -0.00585058155344)
(0.77506526924 -0.00323376077664 -0.00514599485012)
(0.773883206507 -0.00376131752849 -0.00320075658158)
(0.810713628693 -0.00259236967868 -0.00593103770396)
(0.774230565224 -0.00301440934704 -0.00367955143627)
(0.80948776563 -0.0012891253092 -0.00372089595593)
(0.792400282548 0.0125621001481 0.00157909047635)
(0.798198704857 0.0132359330393 0.00153823798925)
(0.800042936349 0.0183077113928 0.00198184169629)
(0.802332173294 0.00974294164526 0.00111946712451)
(0.323355063784 -0.130276788216 0.00663408314223)
(0.373465179694 -0.138596711928 0.00133987022532)
(0.315051040236 -0.0191889443498 0.0056177095776)
(0.469866321486 -0.020434581749 0.00291801987062)
(0.437098995979 0.150477359953 0.000741954467706)
(0.331147800557 -0.019298008441 -0.238664648006)
(0.381784218353 -0.0666980047345 0.538578683566)
(0.224070732945 0.0375364809468 -0.344674697938)
(0.359302013233 -0.0528807227889 0.1993701401)
(0.204403033384 0.0154188255816 -0.359685953104)
(0.464254378056 -0.0469610030107 0.0222806500795)
(0.787542884773 0.00231288639464 -0.000262714739424)
(0.789232543908 0.00576281005357 0.000138203082967)
(0.781132582745 -0.000171898131003 -0.00228736314724)
(0.782813484441 0.00286311624647 -0.0016899446401)
(0.787686741399 0.00871529089944 0.00198966759353)
(0.781252572178 0.00363589220025 -0.00130777166094)
(0.791224572332 0.0094215440764 0.00106153651776)
(0.794772120005 0.0109141373766 0.00103912980852)
(0.784054089642 0.00333609138934 -0.00309407600857)
(0.787089800849 0.000592229257877 0.000920751128348)
(0.790813658934 0.0164510682848 0.00353757613882)
(0.795615463852 0.0144097443716 0.00217787290973)
(0.795635633425 0.0178218001544 0.00319945315629)
(0.781905003273 0.00434119198508 -0.00259436253584)
(0.777978784233 0.008399060596 -0.00200270912721)
(0.785387320685 0.00114663121138 0.00168414179361)
(0.781964221156 0.0043245301916 0.0043900725118)
(0.796934533293 0.0216081075961 0.00305320224471)
(0.799283395438 0.0263450801623 0.00438449259016)
(0.77775450796 0.00995291614547 -0.00165544474003)
(0.781197752893 0.0139941941016 -0.00357847466214)
(0.781809566998 0.00537622808435 0.00411133247742)
(0.784155600528 0.00883696716065 0.00295999188029)
(0.79890731017 0.0155251650268 0.00264806824827)
(0.800799483692 0.0121263746981 0.00221730292531)
(0.786140958599 0.00169207399027 0.00294679133749)
(0.783239667645 0.00430025709701 0.00601552151813)
(0.785382688222 0.00816036444575 0.00481250799529)
(0.801462292019 0.020748608446 0.00224844097387)
(0.801688581714 0.0136314827942 0.00205628573689)
(0.802632792012 0.0147887945998 0.00219799548401)
(0.782884772855 0.00530311728455 0.00579411633631)
(0.785223087501 0.0077709619732 0.00493545121602)
(0.784796101218 0.0088174629188 0.00556005118384)
(0.786896456994 0.0104414298299 0.00611064191)
(0.785284563782 0.0107859977871 0.00510779573614)
(0.786872535412 0.0119024085836 0.00565832301974)
(0.393338947018 -0.0253647988346 -0.000913935834508)
(0.37474270275 -0.084106906487 0.00379866197874)
(0.341266325497 -0.105296011032 0.00481863769861)
(0.208119192002 -0.0391768746934 0.171032211814)
(0.335793171319 -0.00438995595421 0.104345389436)
(0.227873555708 -0.0739935345893 0.114524821134)
(0.364790999224 -0.0535539913451 0.052543019028)
(0.327591820201 0.0382329099583 0.039373877609)
(0.209056840444 0.0352545789234 0.0392462813293)
(0.359739528462 -0.0329602257726 0.0484376564604)
(0.249741294891 -0.0266024002152 0.0564275826172)
(0.316796691689 -0.110976029959 0.00622515714317)
(0.270404945396 -0.105473519292 0.00600771397739)
(0.34528870905 -0.136541827689 0.00509866448342)
(0.306922430826 -0.0994326130709 0.00988519814074)
(0.375137021482 -0.108860732238 0.00992013785222)
(0.227829385589 -0.0840006533061 -0.00652360803966)
(0.355520205863 -0.0751577666543 -0.0174850565814)
(0.234725607744 -0.0419139116802 -0.20157095304)
(0.36660761634 -0.0379673929984 -0.23935208033)
(0.387200114492 -0.129731859925 -0.00504192402674)
(0.435392050033 -0.115350071348 0.00698672525612)
(0.504207619718 -0.112680364618 0.00310569497242)
(0.362448657896 -0.0623176573859 0.0172913370093)
(0.302792559319 -0.0508638678353 0.0555367587795)
(0.367612849018 -0.0289436250012 -0.22348317463)
(0.30180119232 -0.0129396009723 -0.152181924204)
(0.394840667643 -0.0111559473933 0.00490924597902)
(0.380949150627 0.0690856464639 0.00356838758197)
(0.235509524535 -0.0324870659496 -0.239079616451)
(0.357904527091 -0.0375565614048 -0.306451928051)
(0.35537096199 -0.00800290148941 -0.251057060994)
(0.533500553624 -0.0219713271322 -3.8350068837e-05)
(0.46309193816 0.0711334508695 0.00132563971215)
(0.532055237085 0.0667139172643 -0.00156117291642)
(0.384228870883 -0.0242595172979 -0.290891544076)
(0.361350598596 -0.00989914088229 -0.244113888668)
(0.40336812692 -0.000195033721161 -0.282670645517)
(0.391720083101 -0.000542077243911 -0.241088067049)
(0.792833583138 0.00321617733457 -0.00314258314502)
(0.791635919363 0.00172900245348 -0.00277681582834)
(0.783425251393 -0.000229662340585 -0.0030591934932)
(0.781549393291 0.00114030881287 -0.00220130441012)
(0.792171443986 0.00412684750427 -0.00239637251414)
(0.783744866602 0.000634993943059 -0.0031427033117)
(0.792379406212 0.00164795259171 -0.00325791994078)
(0.793608913547 0.00494684008567 -0.00280573951179)
(0.793966061522 0.00736709721928 -0.00145153015933)
(0.782229435441 0.002617890854 -0.00196256387711)
(0.78523716187 0.00163858037695 -0.00278652377049)
(0.792885037779 0.00585910000313 -0.00153479654882)
(0.794409108796 0.00647455135797 -0.00294960153328)
(0.784541278568 0.00163257211938 -0.0030110052503)
(0.790039624683 0.00806753358528 0.000459512428213)
(0.792435420254 0.00859791310011 -0.00124918030449)
(0.780534940262 0.00348870868698 -0.00148324440343)
(0.779266078705 0.00428798032031 -0.000478439448865)
(0.791322515977 0.00651470088153 -0.00127624599267)
(0.791327535036 0.0101128808805 0.000735193208318)
(0.778328994929 0.0043821805709 -0.00052099846038)
(0.796574614475 0.00980946611705 -0.00215187329297)
(0.795049934469 0.00912331772152 -0.00215621669615)
(0.786057913486 0.0018649416582 -0.00337364999236)
(0.785142680804 0.00159345560873 -0.0022419321126)
(0.795448922614 0.00812240390918 -0.00315645154869)
(0.79634571022 0.0110126174553 -0.00147493099699)
(0.786812455377 0.000803761736559 -0.0023936012662)
(0.79786710719 0.0109646247993 -0.000864617181588)
(0.799037410547 0.0125412806515 0.00171947759328)
(0.786389802259 0.00147133084696 -0.00123433898913)
(0.78864794321 0.000463824540307 0.000798024606758)
(0.797751906617 0.0121812686037 -0.000637125354611)
(0.799216751574 0.0114388036708 0.00102967925617)
(0.787834006139 0.000561003424185 -0.00134676156124)
(0.795236851166 0.0141897147787 0.000590278021362)
(0.79410185626 0.0104817849074 -0.00208833433821)
(0.780359297843 0.00553956298479 -0.00242224556735)
(0.782891814847 0.00279965210542 -0.000718409246097)
(0.793101103437 0.0123162381359 -0.000971536459911)
(0.79580749737 0.0124681063284 -0.000734889697638)
(0.781776074434 0.00402819980414 5.86778704034e-05)
(0.79430914172 0.0161299305869 0.00039686929227)
(0.791696328057 0.0163847833077 0.000145054110465)
(0.778896794609 0.0072895179011 -0.0020724350401)
(0.77911289524 0.00697382616821 0.00035840416347)
(0.7921247049 0.0141733619678 -0.00113823614101)
(0.794068752937 0.0183150987659 0.00157568106357)
(0.779886500878 0.00539813953583 0.000189756685338)
(0.797075097427 0.0152872535373 0.00113735208381)
(0.79891309578 0.0139776226191 0.00217488275873)
(0.784380047696 0.00277014820222 -0.000556591955573)
(0.784180345705 0.00191548779149 0.00255917465092)
(0.797437927594 0.0136199102253 0.000140039505037)
(0.798894703677 0.0154646816237 0.00333600696095)
(0.782971248572 0.00381940885825 0.000261992584239)
(0.796432282376 0.0172252191358 0.0012388523626)
(0.798099281011 0.0190968547651 0.00513643166333)
(0.780640966069 0.00674392106466 0.00109261683654)
(0.783005965446 0.00281244323638 0.00387718634884)
(0.796277071603 0.0192554735142 0.00229881804205)
(0.798388736536 0.0172736456548 0.0039383377653)
(0.781518756981 0.00503148011002 0.000601330237355)
(0.794619262375 0.022822770813 0.0010393418636)
(0.791343545861 0.0188280446945 -0.000718435244588)
(0.778190341244 0.0114328269389 -0.00235901961375)
(0.778983871162 0.00831003957316 -5.67533990528e-05)
(0.792339621638 0.0211712274586 0.000203750873514)
(0.793631879372 0.0205558477654 0.0003787262298)
(0.779585733701 0.00995614166551 -0.000418534599615)
(0.796092189273 0.0249011439767 -0.000721292213331)
(0.796751403979 0.0253566980261 -0.000291033960336)
(0.779213702775 0.012940299437 -0.00288515413804)
(0.781830541811 0.0127363479045 -0.0019825763815)
(0.793919138949 0.0234773962388 -0.00127509285426)
(0.78022446295 0.0115393458864 -0.00111354289255)
(0.79854309009 0.0263906426603 -9.70945994831e-05)
(0.796648131742 0.0232303773129 0.00214606121786)
(0.797905871173 0.0207536742215 0.00412548029635)
(0.780537307554 0.00789569038236 0.000949372488419)
(0.782299574924 0.00656346147228 0.00416825556255)
(0.796001677742 0.0211551500301 0.00139299834806)
(0.798353284859 0.0223896808215 0.00455785337775)
(0.781142484479 0.00926321113002 0.00108560047188)
(0.797887860055 0.0249322750116 0.000763252245163)
(0.80076064401 0.0251784928052 0.00272980045643)
(0.782936827498 0.0114221553094 -0.00100646675284)
(0.782961314516 0.0075783943848 0.00345154036752)
(0.799114807468 0.0240310346246 0.00319118710101)
(0.78176917568 0.0103367204841 0.000573796413661)
(0.79971878917 0.0262455830584 0.000125184441966)
(0.801360483444 0.0127578163675 0.00539011731909)
(0.800427346929 0.0135035817617 0.0032468113634)
(0.784955206584 0.00248265101303 0.00401195133761)
(0.786608086242 0.00331511815524 0.00434266350465)
(0.800418394241 0.0146693088974 0.00451286294222)
(0.801444397046 0.0120653830782 0.00436493831453)
(0.785379335467 0.00385900521038 0.00480083206173)
(0.801178361737 0.0138421189673 0.00565697178273)
(0.799831934285 0.0173793205389 0.00656841089702)
(0.783944829497 0.0030960892724 0.00528476564966)
(0.784172148341 0.00532972846052 0.00610600200899)
(0.800085083813 0.0159478667406 0.00540621132258)
(0.801053589968 0.0148056479432 0.00672420036448)
(0.784671868149 0.00449366169855 0.00536869003051)
(0.80208812963 0.0119359488471 0.00474643280818)
(0.802862732339 0.0111065130514 0.00540448019778)
(0.784691901828 0.00734737947593 0.00528636680001)
(0.785932183018 0.00748278734245 0.00393541558926)
(0.80216667834 0.0128305618146 0.00607635644159)
(0.802772682276 0.0104898840786 0.00438043526483)
(0.785352899304 0.00650620908477 0.00434842027149)
(0.801102547075 0.0174472670113 0.00693594628521)
(0.79956305827 0.018916047044 0.00593956066538)
(0.783322958159 0.00616665118813 0.0056598155367)
(0.78380379018 0.00612836511529 0.00651396382228)
(0.799909797063 0.0203339574627 0.00605283584886)
(0.800874894657 0.0162198626802 0.00663381855144)
(0.784247235773 0.00688575530877 0.00665991913859)
(0.80138865307 0.0185107255887 0.0062172650166)
(0.801622853497 0.022699997562 0.00472664696718)
(0.784137756874 0.00701246589199 0.00541708660254)
(0.78602636411 0.00819705041518 0.00646409641044)
(0.800406485809 0.0217281879769 0.00510001574506)
(0.784954739814 0.0075266465192 0.00664232567665)
(0.802246728368 0.0193252174112 0.00602858866617)
(0.802099329403 0.0147768208292 0.00703533059731)
(0.8027596464 0.0117395084784 0.00596148265987)
(0.784293124126 0.00791931142784 0.00614450853698)
(0.785129022547 0.00943089836655 0.006140167735)
(0.802023599543 0.0138443841454 0.00656146697354)
(0.802736620603 0.0124393050835 0.00654925572335)
(0.784606678192 0.00838430623529 0.00651463725499)
(0.80221490546 0.0156716916813 0.00659641748898)
(0.803294294217 0.0135609598795 0.00634586173122)
(0.786556411268 0.00916450834521 0.00648969776541)
(0.785792383893 0.0100951011249 0.0062735058886)
(0.802759651029 0.0131240909041 0.00634944605895)
(0.785387142935 0.00877195380504 0.00654137534346)
(0.802917584964 0.0162500878259 0.00647004067726)
(0.803378653903 0.00825384393113 0.00489350383201)
(0.803094913247 0.00979394833624 0.00523677239161)
(0.78551919867 0.0113383423431 0.00562836166896)
(0.785727444766 0.0116202828019 0.00456806434622)
(0.803157295225 0.0102705344934 0.00572893775616)
(0.803289503759 0.00797026487968 0.00470347471171)
(0.785854962128 0.0122225669091 0.00470289520366)
(0.803618460044 0.0110671464326 0.00560357511346)
(0.786004840723 0.0116843191455 0.00566999636574)
(0.803162936076 0.0106575250553 0.00554078413392)
(0.815303111171 0.00276626405492 -0.000940889200075)
(0.817129445407 0.000738777148493 -0.000555006733243)
(0.817015404415 -0.00135588926 -0.000448320428049)
(0.813674587092 -0.00354518640729 -0.000282957448894)
(0.809289812969 -0.00455308372958 -0.000248573485693)
(0.818609527529 -0.0351937826496 -0.000123451816178)
(0.815817185343 0.00262683596692 -0.00206776970882)
(0.817527587673 0.000942326787028 -0.00118569504947)
(0.817374456266 -0.00078567176649 -0.000396252544692)
(0.813916932888 -0.00337884355671 0.000321816297545)
(0.809550864601 -0.00464265589538 0.0014055535623)
(0.81922045523 -0.0362102083875 0.00225183680124)
(0.814428942904 0.00589392593431 -0.000407457976368)
(0.81188986751 0.00625314181065 -0.000542219129644)
(0.79286351687 0.00940993626028 0.00140091275104)
(0.790583319241 0.00897619762927 0.00183433561907)
(0.789034319832 0.00844233235318 0.00547506255957)
(0.784300065877 0.00272135416644 0.0106096484196)
(0.787300324501 0.00143467198015 0.0106972615412)
(0.753197939896 -0.026140603522 0.0209551507163)
(0.824737689449 0.00536202829492 0.000227527703961)
(0.822590569409 0.00271135651732 -8.80987110001e-05)
(0.821040125035 -0.000223341358311 -0.0013624698283)
(0.819730388899 -0.00495018928945 -0.00284152727962)
(0.820249736922 -0.0092979318251 -0.00154370732798)
(0.816335681498 -0.0143136925766 0.00224109506552)
(0.810819178126 -0.0111133190868 0.0040267525403)
(0.807867142575 -0.0608330399279 0.00801882692376)
(0.818521314639 0.00477815091659 -0.000816246423075)
(0.821226771827 0.00347377832094 -0.00111687652981)
(0.822000677339 0.00215319145651 -0.00166309364203)
(0.821571526203 -0.00121296838787 -0.00181483725525)
(0.820371393416 -0.0042614059178 -0.000981516564865)
(0.818786303516 -0.0079632560075 0.000574360452592)
(0.81186813859 -0.00804943444624 0.00203640482022)
(0.813557285878 -0.0489945689496 0.0036513178067)
(0.814648105474 0.00558026350267 -0.000534870598846)
(0.817549870904 0.00220702771503 -0.000654119753708)
(0.819246679942 3.33616589736e-05 -0.000877723456975)
(0.819192244728 -0.00234295817623 -0.00100639633369)
(0.817594153474 -0.00406809687852 -0.000903138526848)
(0.816610376962 -0.00748785863787 -0.000245991286766)
(0.810821609732 -0.00841853737988 0.000474993623748)
(0.816594486855 -0.0524586734309 0.00113122745103)
(0.815476268566 -0.00273533194886 -0.000392123945366)
(0.814796952445 -0.00485171877626 -0.000340679194108)
(0.81024396738 -0.0057007515144 -0.000243654194086)
(0.819055362284 -0.0408873150804 -3.13237458246e-05)
(0.637112337661 0.0419065624657 0.0099329035176)
(0.635669317395 0.0399810568281 0.0118153999486)
(0.650643256034 0.0227235583247 0.0146698637321)
(0.651738947032 0.0204674045503 0.0170900004955)
(0.656948193537 0.0201135150581 0.0248344738674)
(0.663207170832 0.00938579671485 0.0297440201195)
(0.71327720561 0.00629000937133 0.0242764114781)
(0.626775453601 -0.0504432833287 0.0331156841421)
(0.77219607915 0.0133922350791 0.00663447127389)
(0.768842780372 0.00865359712951 0.00653025491063)
(0.778538580645 0.00107425271035 0.00895487750995)
(0.777914924385 -0.00125591407684 0.0120608399927)
(0.781371887614 -0.00704584650124 0.0165464769923)
(0.787593549525 -0.0157168906391 0.0173804580667)
(0.79633028633 -0.0125726877076 0.0165289063017)
(0.789426311617 -0.100011542954 0.0202548296933)
(0.819571319644 0.00514010971341 -0.0012777053821)
(0.820950123081 0.00385756241224 -0.001724598558)
(0.821591407923 0.00355857812228 -0.00131657485831)
(0.821654730042 0.00240016409815 -0.000676300535133)
(0.821808832172 -0.000867561857475 0.000841569244904)
(0.820990760373 -0.00800472488076 0.00149765285314)
(0.81469967026 -0.00961836708456 0.00459125358147)
(0.821355047338 -0.0648314512103 0.00754303995739)
(0.814888169952 0.00572167696822 -0.0015267598482)
(0.817781401753 0.00277030167705 -0.00170411442799)
(0.819079126126 0.000325315800214 -0.00106516852519)
(0.819353394855 -0.00228164642089 -0.000556457037131)
(0.818161508288 -0.00455789174451 0.000562294761419)
(0.817641537618 -0.00774964813771 0.00135354847386)
(0.81221722113 -0.00899231501054 0.00311528264281)
(0.819682661277 -0.05765081595 0.00482754721069)
(0.815596258456 -0.00226006088226 0.000154431591608)
(0.81514904133 -0.00496561464203 0.000519020955755)
(0.810518687135 -0.00641449234965 0.00175566070112)
(0.820451153676 -0.0452382680722 0.00288081311463)
(0.632808854637 -0.0151447903568 0.0179454860573)
(0.629124690738 -0.015829405915 0.0162073882031)
(0.640462044209 -0.0212583696412 0.0166015205357)
(0.641530620665 -0.0215284962933 0.0209935621556)
(0.649820181878 -0.0240324426947 0.0281019913478)
(0.655387748848 -0.0283487854564 0.0219459163692)
(0.708900502968 -0.0197181509499 0.015510824661)
(0.627599933076 -0.0960725378807 -0.00442036156113)
(0.732771220372 0.00513324666817 0.0212560817808)
(0.732434784833 -0.00118180003652 0.0192362802467)
(0.787306279967 -0.00150501239821 0.00393017616934)
(0.786727338423 -0.00230023742206 0.00721789081626)
(0.7876811392 -0.00857989163297 0.0111859469204)
(0.791836055349 -0.0156142540483 0.00814762534622)
(0.800078924201 -0.0123398015293 0.00558024876288)
(0.801073919384 -0.105454650891 0.000870361845479)
(0.81955364274 0.00402515166642 -0.00218097066178)
(0.82128654388 0.00320173916377 -0.00542195914792)
(0.823043626508 0.000911697990052 -0.00480185659257)
(0.823625818222 -0.00181350053723 -0.00169726096734)
(0.822867924148 -0.00649177001868 0.00130375645113)
(0.822322640127 -0.0125264003997 -0.00016268844199)
(0.817617166248 -0.0133392714864 -0.00246016248394)
(0.832099279833 -0.0767048161438 -0.00318751100014)
(0.809441053487 0.00874504416223 -0.0013525009469)
(0.814598646744 0.00523745365324 -0.00319056658785)
(0.818196037681 0.00193358594704 -0.00436449755168)
(0.820812992919 0.000538549810137 -0.00306329759465)
(0.821031159787 -0.00232095434067 -0.000761447960296)
(0.818902097953 -0.00504366503932 0.000526795631382)
(0.819071594596 -0.00855900930077 -0.000587104242379)