/*--------------------------------*- C++ -*----------------------------------*\
| =========                 |                                                 |
| \\      /  F ield         | OpenFOAM: The Open Source CFD Toolbox           |
|  \\    /   O peration     | Version:  v1906                                 |
|   \\  /    A nd           | Web:      www.OpenFOAM.com                      |
|    \\/     M anipulation  |                                                 |
\*---------------------------------------------------------------------------*/
FoamFile
{
    version     2.0;
    format      ascii;
    class       surfaceScalarField;
    location    "3.65";
    object      phi;
}
// * * * * * * * * * * * * * * * * * * * * * * * * * * * * * * * * * * * * * //

dimensions      [0 3 -1 0 0 0 0];
oriented        oriented;


internalField   nonuniform List<scalar> 
92311
(
0.201246885154
-0.000122217677817
0.000584336203132
-0.201357253132
-0.000351750529137
-0.00020137367102
0.201063434935
0.00111697719067
-0.000732015749026
0.201193394493
-0.000301162961492
0.000626325241395
-0.201292495457
-0.00034810421645
-0.000482464271768
0.2010204107
0.00116698192928
-0.00071260349184
0.201003058404
-0.000122343409419
-0.000140275829082
0.000702432493842
-0.201137004448
-0.000398753137168
-0.000100245232315
-0.000107944277794
-0.000216624846643
-0.000235343026118
-0.000168171553983
0.200806393543
0.00125093452139
-0.000762880710355
-0.000153599309254
0.0502471084059
-1.58364914254e-05
-3.519909287e-05
-2.72744090461e-05
-2.41319662571e-05
0.000121339502568
-0.0502697673729
-0.000118572176094
-0.0502423789321
0.0502096050501
-5.88511996766e-05
-5.23996133602e-05
-5.67029534622e-05
-5.6630196676e-05
0.000249020416807
-0.000208272811203
1.84890886629e-05
0.0319183819596
2.9605241737e-05
3.84353628126e-05
5.03760229996e-05
-0.00600690479529
-0.0329679423939
-0.000492566600458
0.00741214817974
0.0297823257529
0.00649543536489
0.00140816179536
-0.0308133843064
4.8849521057e-05
5.20109092721e-05
4.57339909748e-05
4.75315741928e-05
-0.00706667116249
-0.00718669940186
-0.00303302113824
-0.00235039227483
-0.00170507942786
0.00209142609287
0.0107993365994
0.000466444894802
-0.00266301654187
-4.43578752988e-05
-3.99672060219e-05
-4.92947033283e-05
-3.39837173962e-05
0.000202286317649
-0.000170189253612
-9.23963590001e-07
0.0124473229203
1.75603276106e-05
-1.65686967202e-06
-0.0124437699276
0.0124444262978
-4.41821296983e-05
3.86664654043e-05
-0.0124466932852
1.95729504009e-05
-1.18052048323e-05
-0.000232751356861
-6.83644402169e-05
0.0501913124823
-6.74561962433e-05
-6.58498431607e-05
-6.49659263965e-05
0.000282367151286
-5.85300790282e-05
0.0501865492079
-6.19331820862e-05
-5.56248465293e-05
-5.75521006545e-05
-0.0501817963146
-0.00017198953403
-5.07565052343e-05
4.93622662521e-05
0.0124375083518
2.04527835104e-05
-1.21526316024e-05
-6.44926029745e-05
0.0125397345887
6.01312636093e-05
-6.44448223534e-05
-0.012539275478
0.0125388565224
-5.49195355591e-05
-7.1061001331e-05
-0.0125358462714
-2.04508854577e-05
0.201875558201
-0.00016327440436
0.000167661880704
-0.201859494779
0.200985818042
-0.00027080695928
0.00122943994048
-0.000880313521931
-0.000320062503033
0.200971975236
0.00121238588103
-0.00087782406281
9.34547504962e-06
0.201757167435
-6.14293863285e-05
0.00015885778046
-0.201884306275
0.200946449442
-0.000629290849624
0.00127418439871
-0.00084120188234
-0.000747735180942
0.200998369584
0.00124376031585
-0.000867488108311
-2.16449663543e-05
-2.58856284479e-05
6.01222524589e-05
-0.00014690007298
0.201658485367
0.000161676540677
-0.201739620414
6.31532917522e-05
-0.000293445339513
-0.000331666669348
-0.000215987723211
-0.00024475220748
0.200795443833
0.00132035054254
-0.000852920830762
0.0504712368846
1.94515551746e-06
-1.32762646992e-05
-1.03001355171e-05
8.43165464213e-06
-0.000219953086924
-0.0504284419907
0.000168708648039
0.0501526005912
-0.000235958293718
-7.83879428758e-05
-7.82283818109e-05
-8.12857650571e-05
-8.06670821276e-05
0.000299843550982
0.00501824526922
0.00288913148979
0.0278459837795
5.17459201165e-05
5.86708029775e-05
6.09562983366e-05
6.69294782546e-05
-0.00620964398485
0.00373843820968
0.00102544002128
0.00330323359323
-0.0018200972677
-0.00296129206245
-0.00726772973629
-0.000826959837431
0.00295395657356
-0.00158405183997
-0.00279665929893
-0.00206913463665
-0.00383367283436
0.00779031473883
-0.00226284201358
0.0121829689612
4.3335046096e-05
-5.65984616141e-06
-7.97869035281e-06
-1.34018059848e-05
-6.14247076261e-07
0.0504916067965
-6.19426421876e-05
2.89531881373e-05
2.95351637748e-05
1.85720402563e-05
2.08469238399e-05
0.050346733933
-1.52196929094e-05
-0.0503260167463
-1.41338377396e-05
1.38887313579e-05
0.012461519042
-2.68071233274e-05
2.79211089869e-05
-0.0124623869992
5.51472488075e-06
1.55357483184e-06
-0.0124556093915
-4.01632462148e-05
4.03231777417e-05
0.0124483968541
3.63864234382e-05
0.0125661818085
-7.63350277425e-06
-3.06646713339e-06
-0.0125629277165
-0.000215689035731
-9.37876820797e-05
-0.000104327156741
-9.47577966635e-05
-0.000101002798221
0.0501423501519
0.000288164018882
0.0501742788147
-6.59100021562e-05
-6.43747300041e-05
-6.50440603562e-05
-6.63530526557e-05
-0.000177881886708
-6.74445572258e-05
-6.71405033848e-05
-7.14672909661e-05
-7.20220659447e-05
0.0501685466582
-0.000176697932693
-6.26285835938e-05
6.01618310097e-05
-7.15783118119e-05
0.0125354385841
-8.68787042851e-05
0.000107904646435
-0.0123530785145
1.53855922229e-06
0.0123356406152
-5.13286922112e-06
-5.27694377806e-05
-7.4612608393e-05
0.0125377746791
-0.0125444103584
-6.82123143015e-05
0.0125392933349
4.18421491985e-05
-3.59132952425e-05
0.0315721381255
3.4345002049e-05
4.97770002461e-05
6.22684691152e-05
-0.00698728818149
0.00775595859692
-0.000612285790639
0.00143680390404
6.0182018537e-05
6.79301135524e-05
6.16536454794e-05
4.53975744895e-05
0.0290910504052
0.00625119648543
-0.0305190346414
-0.00169624416099
0.00480355071772
-0.00552912874342
0.000828509734892
-0.00576750024584
0.00359864158315
-0.000473914534265
0.000225520937954
4.60228689201e-05
4.10350960136e-05
4.68857427259e-05
-0.00720827504497
0.00755681408495
3.32032469186e-05
-0.00866514208612
0.00138072614968
-3.8656340736e-05
0.0125514700741
2.76777404989e-05
-0.0125573510556
-0.0125442159959
-3.54598197535e-05
4.44433480154e-05
0.0125443770371
-4.43483649151e-05
1.56681352558e-05
1.72148198485e-05
0.0124468738488
-2.8749464978e-06
2.23372607708e-05
0.0124437334639
-0.0124398058856
2.96575909029e-05
-0.0125464231677
-4.12510588324e-05
0.012445876304
2.8380065847e-05
0.0125501737248
3.89365252645e-05
0.0125456617982
-4.76218368555e-05
4.89898974205e-05
-4.68332906225e-05
-5.08961523819e-05
-0.012547781055
0.012547264675
5.0128082671e-05
1.42636569415e-05
2.85709314696e-05
-8.19151767201e-06
4.86587701599e-05
-0.0124489574769
0.0124449454373
2.47802228823e-05
0.0125446149843
-5.03576460284e-05
2.5686270221e-05
4.62118409594e-05
-0.0125411942443
-5.50074596155e-05
5.64996912987e-05
0.0125409567776
-6.00968275596e-05
-5.29914664107e-05
0.0125447437658
5.25038915482e-05
1.74836340502e-05
5.2601063024e-05
0.0124255995011
-1.21157625841e-05
5.07711376528e-05
0.0124339294763
2.18012905379e-05
-5.54630709588e-05
0.0124231770862
2.00748323989e-05
0.0125433664531
5.38750177995e-05
-6.14041959179e-05
-0.012540887233
0.012538671824
5.63568185528e-05
1.0336262903e-05
-0.0124092523618
0.0123959554287
-9.60987666602e-06
-0.0124084293255
1.14372388695e-05
0.0123948683096
-5.99720105366e-05
5.92896675462e-05
-6.34157979868e-05
1.39816783499e-05
5.83992500436e-05
-1.03392803555e-05
1.62884554684e-05
5.52178207917e-05
-7.93141782955e-05
-0.0125383710044
0.0125427617222
-4.18305613844e-05
1.38336274705e-05
-0.0123996216252
0.0123863711837
-0.0123980301255
0.0123828829477
1.77331631173e-05
-5.51373627609e-05
-6.27643586691e-05
-0.0125368904679
7.39391259387e-05
-1.69104213956e-05
-0.0124145879039
2.12441737996e-05
-0.0125344037281
-4.25666607316e-05
-0.0124174755183
-0.00432568818741
0.000453905448463
-8.64338060108e-06
-1.67643035578e-05
-1.13444642736e-05
-1.35243865881e-05
0.0330022483288
-0.0328334978578
0.00375330852471
-0.00299274855056
0.010564863057
0.00236566676448
-0.0105255570782
0.0292320951137
-0.00165085282348
1.58311647001e-05
-1.98178118684e-05
-1.59738856084e-05
0.00500102143975
-0.00290407346018
-0.0296717585621
-0.00343396605466
7.96234544509e-06
-1.52124954657e-05
-1.5507106951e-05
0.0301790158442
0.00296856162819
0.0060003528908
-0.0039219826514
-0.0071729027812
0.004469150137
-0.00203513388589
0.0049045198086
0.00228713821897
0.0263336823708
6.60685215468e-05
7.2022187923e-05
7.48945172711e-05
6.95379695015e-05
0.00520574283032
-0.00295228807157
0.00528537081805
0.00317843795966
0.0019259699264
-0.00119554412683
0.00331600862449
-0.00371351892652
6.54164505541e-05
5.37273777431e-05
6.54925757889e-05
7.04280906957e-05
0.0219098212577
0.0045664818549
-0.00300800366804
0.00638081652535
0.00316248023958
0.0044552939574
6.67680584638e-05
7.81151511431e-05
7.43872151999e-05
0.0238367680981
-0.0044667848521
0.000806259436087
-0.00127361288297
-5.4143802991e-05
-0.0125905051037
1.29198894994e-05
0.0125978906314
3.57876178582e-05
0.0126088730567
7.08409765086e-05
-7.60325120758e-05
-0.0126030037984
1.34884740767e-05
-3.04785404881e-05
0.0124615667598
3.27732326425e-05
-2.23215335213e-05
0.01245712135
-0.0124551985494
-2.62108235781e-05
0.012616167233
-5.82454026269e-05
-0.0125852198076
5.16839092487e-05
0.012455630824
-3.20697643868e-05
-3.56758299222e-05
0.0125997349396
8.35490201947e-06
1.97903506262e-05
-0.0126202047209
1.47564489438e-05
-2.36018002799e-05
0.012622596196
1.23681885985e-05
-3.52121845213e-05
3.67684017209e-05
-1.15572931727e-05
-0.0124495426696
-3.72674211882e-05
0.0124429254502
-4.08769707914e-05
1.6567607203e-07
0.0126019661559
-3.62240732017e-05
0.0124492852516
1.78764193365e-05
7.70966785282e-06
-0.0124471225104
-3.63209333058e-05
1.78171704164e-05
0.0124483729291
2.69083265414e-06
8.15997748614e-06
0.0125672179415
-1.61069061457e-05
0.0125827020434
2.79879535858e-05
-0.0125800827999
-2.75649754492e-05
-0.0124505664075
0.0124471709152
0.0125841468801
-0.0124543818981
-6.78086161478e-05
0.0125310987506
5.73465766905e-05
6.69096422862e-06
0.0123807580221
-7.57083426932e-06
0.0123812302808
7.42921268088e-06
5.79432342009e-05
-7.81994776252e-05
0.0125334336463
-5.90001267943e-05
7.59730975767e-05
2.60448380804e-06
0.0123698159156
-6.66659106747e-06
0.0125269960741
5.7279201955e-05
0.0123715575506
9.75367329705e-07
5.29180772767e-05
0.0125267134904
-8.6701557554e-05
-5.3286073287e-05
-0.0125172105002
-4.60835625384e-05
0.0125141590191
5.26225101798e-05
8.78374072634e-05
8.14425039819e-07
-5.25243526896e-06
9.60799513329e-05
-0.0123601077335
-1.74514534223e-07
0.0123438059631
5.5835135999e-05
-4.74056198869e-05
0.0125232055362
-1.73008165573e-07
-0.0125438748202
-7.43984564105e-05
4.81188839487e-05
-3.85834012528e-05
-7.73564666086e-05
-4.13073839318e-05
9.46138330576e-06
0.0123759099604
0.01237477519
1.2461006241e-05
-3.13796120324e-06
0.0123690181835
9.56737554122e-06
-7.71533241805e-05
0.0125378768857
0.0123663201498
0.012360443367
-1.95176152721e-06
7.77683537328e-06
6.34424785057e-05
-2.7781709641e-06
0.0123455862512
7.64220306023e-06
3.71862459011e-05
0.0125327923515
-3.44294955735e-05
0.0125327821748
-7.7634232834e-05
7.74366079753e-05
-0.0123568870039
0.0123419453362
0.012527884634
-0.000380252502438
-0.000285480190299
-0.000342787303912
0.00125551739964
0.201128793459
-0.000450111800261
-0.000878022189438
-0.000206972964909
-0.000123821365658
-0.000115909325963
-0.000133713851471
-0.000110634681241
0.000272479373801
0.0501806393816
0.000112167404289
0.00263786205131
0.00520874596797
0.000131937418989
8.54603154102e-05
0.000104098821626
-0.00287529656965
0.0184311977789
-0.00165291417757
0.000110619591971
7.76449687675e-05
0.000999082345443
0.0376400547237
-0.00163029469637
0.01301816622
1.9738800578e-05
1.75630634614e-05
1.60223468012e-05
1.04338867687e-05
1.14979379311e-05
9.59696022341e-05
0.0502968477501
1.41954860071e-05
-2.85280075044e-05
1.5574087187e-05
0.0124454090136
0.0501961912147
-9.00201028472e-05
-7.69528770179e-05
-8.01780071994e-05
-8.26510535077e-05
-0.000190424581823
0.0502679330678
-9.98026378414e-05
-0.00010825530483
-0.000114960987544
-9.22547999837e-05
0.000199599093937
-0.000198980337582
0.000121675931759
0.0123285253667
5.08811723933e-06
-7.55461211176e-06
-5.39260353437e-05
6.74574907427e-05
-4.38067165351e-07
0.0123281427009
4.02409180802e-06
0.0122888431917
-0.000120555143374
0.000126881307578
7.65550022766e-06
-0.0122984623844
-4.50585846792e-06
0.0503935154678
-0.000119747660686
-0.000101214088839
-0.000108887205019
-0.00011439573553
0.000319826881417
0.000191571268051
-0.000192799048404
-0.0001014003781
-8.76990178472e-05
-8.89522248782e-05
-9.59881941138e-05
0.000308351815867
0.000193236642757
0.0504545446947
-0.000188756792932
-0.000130961079934
0.000132404238513
1.26260006142e-05
0.0122854632126
-1.05300048579e-05
-0.000105686709603
0.000101214650273
-4.32082599598e-07
-0.0122732276638
0.0122716180672
7.3150619581e-06
-7.65905933892e-06
2.04818191785e-06
-1.29373066471e-05
-0.00275018079173
0.0338122532993
-0.00403396806175
0.0164932684302
0.00374814118489
6.80216024133e-05
6.3446357945e-05
8.06339204744e-05
0.00404022261283
0.00360410231981
0.010762642352
0.000116853256258
9.79744450097e-05
0.000102425639595
-0.00214842803397
0.00383679177763
0.000231502006794
0.00134907885642
0.0027794130342
0.00803420111651
0.00243383953791
0.00182830316487
0.00778519101746
0.00210572822649
0.00513578270313
0.000138016431035
0.000141330133553
0.000132758544607
-0.00291595845434
0.00364818266646
0.0043512416125
9.96667988014e-05
0.000130065623945
0.000123688183216
-0.0043382666982
0.00362093555693
0.000422196443725
0.0049718855603
-0.0125770565244
2.85306124934e-05
-4.01475635525e-05
3.87138124011e-05
0.0125696762069
2.36247675051e-05
0.0125601992656
-2.70184906508e-05
0.0124460277231
3.5929664846e-05
1.5172049358e-05
-1.41320236555e-05
0.0124435215821
1.93886856624e-05
3.52109404392e-05
0.0124414400148
0.0125549645939
3.52156361895e-05
-0.0125193726717
-0.000126976296831
-4.05639336035e-05
0.0125278757292
0.0125134521823
-3.82073332854e-05
4.47169118175e-05
0.000150728768785
6.23256625437e-06
-8.26720798985e-06
0.0123118315571
0.000103274141713
0.0123318986484
-7.19886622698e-07
4.10483289794e-05
0.0125246262496
-4.1730017235e-05
9.66596616202e-08
0.0123151373648
-0.0125228137254
-0.000100560325443
-3.63279237091e-05
0.0125291040367
3.40390134586e-05
0.0125233856522
-3.42804833834e-05
8.29398915168e-05
0.0123258447977
-6.26478089296e-07
8.42631606347e-05
0.0123030711646
4.30130833384e-06
0.0123052637284
0.0125256073633
-3.71253701756e-05
0.0125375808947
-0.000108556152181
-4.0040859828e-05
4.02222633908e-05
4.23972065749e-05
-0.0125345501183
0.0125539230719
-4.31768619524e-05
0.000131125803331
-0.0122990263415
0.0122857637345
6.58722299827e-06
7.37156393552e-06
0.000100318068531
-5.00537959898e-06
0.0125541558195
4.18572580532e-05
7.44675477612e-06
-4.09471080332e-05
-0.0125841741705
-0.000145668865024
-4.18606562996e-05
0.0126089506387
4.29911748795e-05
4.44252908862e-05
0.0125844222932
-4.37363339946e-05
0.000137611617818
0.0122867958507
1.19390458944e-05
1.48274403437e-05
0.000141250750849
0.0122789855877
-8.31992979566e-06
4.30181424336e-05
0.0122778832933
1.0817382345e-05
0.0126109147807
-4.16040091067e-05
0.0126379302266
-0.000134146845923
-4.02790557546e-05
4.39633688591e-05
3.72331909221e-05
-0.0126432703697
0.0126518300541
-3.21589487091e-05
0.000101478317013
-0.0122671851563
2.39203221813e-06
0.0122625817779
5.10389854533e-06
0.000129484139277
1.01498506718e-06
4.05396963053e-05
0.0126471367496
5.23379889544e-06
-3.91248010661e-05
-0.000517100595492
-0.049139937132
0.0490993662663
0.000654997070647
-2.84651959013e-05
-9.65714992069e-06
-3.26874008568e-05
-8.77770366255e-06
-1.84201769992e-05
-0.000693669028386
0.049590618524
-1.3929087942e-05
4.77240347178e-07
-1.72985291391e-05
1.86450421096e-06
4.16110265811e-05
-0.0495472131862
0.000637461347606
-0.00101479990402
-0.0497587864542
0.0500431304784
0.000867308490053
-5.24554919758e-05
-5.4199002806e-05
-6.1064990912e-05
-5.06139020351e-05
8.14808171921e-05
-0.000733499575252
-3.78576995944e-05
-4.06353465223e-05
-4.27486054577e-05
-4.4815783294e-05
0.000100578059665
0.0501318909106
0.000640279238358
-0.0499731912266
4.67413089222e-05
-0.00682235310344
-0.0459831564701
0.0390567959655
0.00278330475649
0.0107827177737
5.80713181269e-05
1.36368801673e-05
5.49442834772e-05
0.000135613045138
-0.0298626671521
0.0227104934183
0.00416587366541
0.00914065780244
7.65923884601e-05
5.74778776474e-05
5.61177915497e-05
-0.00648768399853
-1.7024014929e-05
0.00128560615658
0.0418295777389
0.0051159499139
4.11445265835e-06
-3.38865220924e-05
1.06461564531e-06
-0.045260818843
-0.00292467654935
9.24422409669e-05
0.00040751287992
-0.0332144427109
0.02575468734
-0.00475911925063
0.0115344153013
6.95877333576e-05
5.76116432961e-05
5.73226695388e-05
3.88236419113e-05
0.00866125970888
5.23767918589e-05
6.16625136668e-05
1.49493460796e-05
0.026181803376
-0.0112904899049
0.00869704900928
-0.0324174194263
0.0388871457745
-0.015809447649
-0.00282575867501
-0.00881561700677
-0.00779619846124
-0.0106886046784
0.00918592941352
-0.00999564951576
-0.0114593322849
-0.0136871838528
-0.00988708574714
-0.0146034602187
-0.0104694158382
0.0194757392145
0.00222719915348
0.0355558629505
0.0042227274861
-0.00771288429169
-0.010017601091
-0.0054490301053
-0.00965213504181
-0.00451014164578
0.00923138789468
-0.0130361363076
-0.00902346567642
-0.0134856737985
-0.00984630297968
0.0211464681361
0.0424853550354
-0.00109685442875
-0.00723886369427
-0.00591977347308
-0.00520110202044
0.0113954919616
0.000333445150825
-0.0140477399866
-0.0112573516924
-0.0131821260256
-0.0111188992249
0.0302859886631
0.0196052302527
0.000129023723452
3.946258889e-05
4.06256526755e-05
3.55359386567e-05
4.80787734375e-05
0.0488515193563
-5.62176146697e-05
4.07273656201e-05
-0.0491287883301
0.0489220908258
0.000327018937308
3.14164524038e-05
1.31369532501e-05
2.48236945073e-05
2.37573437502e-05
-4.31534596051e-05
-0.0491702288176
4.85802730783e-05
-5.13780182376e-05
-0.0123649466604
3.3082303032e-05
0.0123488601936
-1.36960123926e-05
0.0123569324418
6.96730701863e-05
4.70133838104e-06
-1.09012255475e-06
-5.59785856777e-05
-0.0123737898539
-7.154279947e-07
6.09731395392e-06
2.32117986189e-05
-1.0325116255e-05
-0.000241339422843
0.0122168721834
0.0122001613093
0.0121235367984
0.0121855534911
-9.82635182962e-05
8.32553006544e-05
-3.82499883295e-05
2.3266720312e-05
-6.3640003575e-05
0.0123540923387
0.000475617449181
1.06614101408e-05
2.96041210929e-08
1.54813242811e-05
-2.47751487115e-06
-4.68896164745e-05
-0.0492653295521
0.0493496557231
1.16265347618e-05
4.9335254452e-06
3.01263561726e-06
1.0947538341e-05
-4.53692281123e-05
-0.0494079840918
0.000548569452905
0.0123655545816
-4.5817691734e-06
1.24438224863e-05
-0.0123806127664
7.67908021791e-05
0.0123982672263
1.54673040883e-05
-9.01415866489e-07
-7.31261353834e-05
-0.0124086200171
6.92222590101e-05
0.000941333053493
-2.48331617857e-05
-3.3830196983e-05
-2.06619094501e-05
-4.16306583512e-05
0.0491794717152
-0.000208837991211
-0.000175887789891
-0.000209941219763
-0.000173247528496
-3.8268419036e-05
-3.00785716789e-05
-3.48813854003e-05
-2.95813543204e-05
0.0493414596731
-2.61350702269e-05
-2.7506063239e-06
-4.88435888215e-06
-2.09486306517e-05
2.3698546005e-05
0.0495661027836
0.000861261012565
-3.4265425149e-05
-4.67130788543e-05
-5.5707892545e-05
-2.70677063339e-05
1.86968020342e-05
3.29134766379e-05
0.0123673710576
9.56653879423e-05
0.0123501928101
-0.000105533999236
8.40759269736e-05
-0.0123423066365
0.000135986833906
-0.000122469071506
8.38653867712e-05
-7.84201737758e-06
7.46049009784e-06
-8.56942995926e-05
0.0124004705692
0.0124024161678
0.000110447383927
-8.14275726846e-05
8.13199026566e-05
-0.000119291289345
-0.0123934962403
0.0498816667562
-3.8203980435e-05
-4.06615747407e-05
-3.73337691684e-05
-4.52837187316e-05
-0.0011462738582
-2.3166020014e-05
0.00113434594063
-2.07195175446e-05
-6.0122652951e-06
-1.95806078543e-05
-8.75610487343e-06
0.0504211605156
-0.000185844295243
-0.00143334891583
7.63420911217e-05
0.0123883514855
0.000165814614591
-0.000144729222942
-5.52439431167e-06
-1.56972399035e-05
-0.0124144211781
0.000190862279496
0.012444761289
-0.000200037331285
0.000124112573462
-0.000107052025493
8.02314153904e-05
-0.000127499016579
0.0124324993986
0.000144870643554
-2.40614452314e-05
2.49190320098e-05
-0.000166944340399
-0.0124516390745
0.0124728207155
0.000758290842375
-2.82164421041e-05
-5.18380528781e-05
-2.9512495163e-05
-5.35309345838e-05
9.77187430448e-05
0.0498866641669
-2.18226769325e-05
-4.50138512337e-05
-4.51367013325e-05
-2.62185284176e-05
9.92227476836e-05
-0.0497378058154
0.000648367467778
-5.95939735899e-06
0.0124101032506
7.57021607465e-05
-0.0124131466525
0.0124174146495
-7.19072914352e-05
7.38750032959e-05
-0.0124093840223
0.000100360340844
0.0124410660301
-6.15296857442e-05
6.21899157306e-05
-6.93196334741e-05
-0.0124327696789
6.03768013639e-05
0.000951945960804
-4.50770959947e-05
-2.83750127822e-05
-4.13676464036e-05
-3.29298755245e-05
0.0503422979689
3.09687279854e-05
0.0500953534346
-4.54006300683e-05
-4.61606950259e-05
-4.17816556814e-05
-4.88284196904e-05
0.000107207806253
-3.89717625954e-05
-2.47791905519e-05
-4.00316390239e-05
-3.10089030236e-05
0.0503059742928
0.000774261421762
0.000101800519961
7.78997384546e-05
0.0124421198072
0.000113669019677
-1.71915998742e-05
2.75710982991e-05
-0.0124566741807
0.00011725318411
0.012473910236
6.83414421051e-05
-5.96038050363e-05
5.98643005627e-05
-7.78518377183e-05
0.0124502895157
6.94985910753e-05
-7.98872922136e-06
2.14596606589e-05
-8.43346277695e-05
-0.0124533427412
0.01245472081
5.10325701331e-05
0.0124537702398
5.35839204932e-05
-0.012451028163
2.0565378777e-05
-0.012455094896
0.0124523556307
-2.62937904383e-06
5.43854467119e-05
0.00811018990549
-6.22252924811e-05
-5.18832787036e-05
-4.0456227005e-05
0.0473233690154
-0.00520152927601
-0.0469238556827
-0.00310329455823
0.0466229165083
0.00706770014187
-1.85750916466e-05
-3.01318422546e-05
-2.47303043037e-05
-0.0479574477055
0.00245470986603
0.00818884984653
-1.48881205386e-06
5.11010500204e-05
3.78605972554e-05
-0.00830803844918
0.0397876250096
0.0186513242368
0.00046820515288
-0.00353689128029
-0.00120246953341
-0.0172123319839
-8.28990872298e-05
0.0195466173636
-0.00855175302589
-0.00106673820314
0.019290796469
0.00018509162169
-0.0186758004103
0.0194223381771
-0.000854523383772
-0.010031811483
0.0135188038832
-0.000408667401849
-0.00639352414056
-0.000858256505612
-5.11883800132e-05
0.00682510429464
-0.00222112799139
-0.000912594164654
0.0129263527047
-0.00163500347286
-0.0068754205737
-0.000853849824698
0.00662733026259
-0.00337543653506
0.00298838425054
-2.17022060289e-05
8.01366946512e-06
-1.05461819278e-06
0.00589243380044
-0.0477868473942
0.0456814553145
-1.77328015144e-05
-1.7776521917e-05
-1.29124707525e-05
-0.0463004905355
0.00453747658917
-0.000866591433172
0.00376825051576
0.0120527904794
5.39532695768e-05
9.77230519209e-05
0.000114703461923
-0.00699770761049
0.0403739852075
0.00930987510951
2.8041431227e-06
1.37223811761e-05
3.7372739408e-05
0.0128966671823
0.031488068083
-0.000546075977133
8.45714894688e-05
3.4372152071e-05
9.81216210582e-05
0.0177520182569
0.00135225543655
-0.0158783964452
0.000644195701532
0.018218723913
0.0153931736642
0.00187905597573
-0.0120658937376
0.0172467880756
0.00202162097201
0.00409926711854
0.00548725664421
-8.36946366101e-07
3.65597172436e-05
7.14361113715e-05
0.0195724506951
-0.00657471156406
0.0244829119095
0.011278730442
5.89962206078e-05
7.11065522984e-05
6.06912688546e-05
0.00726721004153
-0.000680644529585
4.95778786859e-05
2.79154470121e-05
7.35954693067e-05
0.021822282038
0.0125222509675
0.000156150860149
0.000958638825353
0.0072332960912
0.0128303702732
0.00234542451919
0.00321131096318
0.00798500892619
-0.00360040617761
0.0114579342552
3.41711262759e-05
5.39758554693e-05
5.08169476543e-05
0.0103741392032
0.0333958231254
5.3820444232e-05
3.23380056096e-05
3.882619037e-05
-0.0416930364158
-0.00586619430189
0.0143219498828
-0.0103982227658
0.00196804882591
0.00243282169069
0.0181370412017
0.0221625390597
-0.0168818557682
0.0016014259571
-0.00563337763318
0.00841752081104
2.76845435405e-05
3.69636737473e-05
4.06281047214e-05
0.0221686590112
0.0262157183398
0.0108557415018
6.20997354557e-05
5.56995010993e-05
4.9555790312e-05
0.00817857065817
3.56659514097e-05
3.24072567788e-05
3.040691862e-05
0.0222072415831
-0.00991055576217
0.0148520865408
0.00313453128373
0.00416724834436
0.0110474553156
0.0207217171071
0.00225477629181
0.0191123623174
0.00283002439868
0.012252001519
5.00163827256e-05
4.25847513955e-06
1.62018606709e-05
-0.0122830454969
-4.05050454441e-07
-0.0122518297456
0.0122193555115
2.20634781308e-05
2.63381517316e-05
-6.74713089318e-05
-1.08904736449e-05
-0.0123752459868
-3.84520722341e-05
-0.012371491822
4.04153983063e-05
0.012350353687
2.5245139564e-05
0.0122232735569
4.10093871154e-05
-0.0123768122083
1.64539475314e-05
-0.0122834629319
0.0122589663313
3.93774729435e-05
3.51351844328e-05
-0.0122858666861
-5.37301844652e-05
-0.0122700774798
0.0122533417007
8.24180980962e-05
-1.86241367013e-05
-0.0123702980985
0.0123541642271
-2.31876223023e-05
-5.93963183176e-05
6.64326408713e-05
-0.0123880755678
0.0122366384713
6.52287644699e-05
-0.0122953293545
-0.0123786896315
-0.0122236726771
9.39507441364e-05
-3.63511915813e-05
-5.47476942606e-05
0.0122200695316
-6.60454415153e-05
0.0122461918233
0.000102785651445
-4.88072783503e-06
0.0123392985847
-4.59277561229e-05
5.37715467466e-05
-7.70158198354e-05
9.09128171652e-05
0.0123368423238
-3.4677884919e-05
0.000131849974978
0.0122518645272
-5.24122351361e-05
0.0123160366148
-8.71667950386e-05
0.0123097145613
3.08827429882e-06
0.000107836013686
-0.0123228333527
-0.0122887109972
0.000105598100313
0.0122779508597
-1.22404112667e-05
6.90517763009e-05
-0.0123928057412
1.62830716076e-05
-0.0123924654461
8.14779245721e-05
0.0123795175822
-0.0123074012313
0.000127123771815
0.0123020671538
7.43141763898e-05
-0.0123959980596
0.0123336421852
0.000123074641249
6.27992912611e-06
-0.0123435490594
-0.000139727447605
-0.0123537187614
0.0123489767544
0.000148366621084
2.79546379864e-06
-0.0124029357001
0.0123897535114
-8.11995783505e-06
-6.9601725398e-05
-0.0124107946153
6.20802740478e-05
0.0123266253678
-0.0123616797092
0.000133779042802
-0.0124049595726
-0.00015559854644
-0.0122973728508
-6.31709422234e-05
0.0123113963248
0.000176789106986
0.0122732465074
0.000130627939375
6.85789002233e-05
9.49333734766e-05
0.0123512820518
2.61750059168e-05
0.0123688645683
9.28722725324e-05
0.0122853382443
0.000152848250794
0.0123550295094
0.00010312377509
-0.000176651071954
0.012342637044
-7.70599937768e-05
0.000198073478575
-0.0123095739551
0.00021492585177
0.0123434048337
-0.000198343398912
6.49290902085e-05
0.000102045488076
-0.000104501741126
9.72614598854e-05
-0.0123780492617
0.000133126929667
0.0123801301409
-0.000156221048744
0.000231206439076
0.0123821793957
0.000118801813368
-0.0123242939858
0.000188604333265
-5.31702058378e-05
0.0123397813357
-0.000165970914513
0.0123473548119
0.000172074984941
1.57360488029e-05
0.012383692809
3.93607763721e-05
-0.000102476321039
0.0123890740066
8.83374972273e-05
0.012362943237
0.00019145577318
0.0123697769584
0.0123687638881
0.000207170227725
-7.19479273593e-05
-0.000230865717843
-0.012387619125
0.0124245171217
0.000228492459765
9.41300455935e-05
-0.012394862795
0.0123986985295
5.19755569393e-05
-0.000121365424696
9.94130410564e-05
0.0124075177359
0.00020747661023
-0.000271662595113
-0.0124216987451
-4.27421165167e-05
0.0124543356235
0.000275907358574
5.98374629878e-06
0.0123895423005
0.000238656827903
1.56250051283e-05
-0.000224088497595
5.23999435377e-05
0.000165842521068
0.0124078543001
-0.000160735633629
6.12296142577e-05
0.0123930449543
0.00014851679579
0.0124286931691
1.20049593589e-05
-0.000270080408924
0.000246704549858
1.39035445653e-05
0.0124102023414
0.000162254537245
-0.000287241370909
-3.45669554582e-05
0.0125163396822
0.000294348370905
-3.39688283645e-05
-0.012494733543
0.000300340302374
0.012562589345
-0.000311347059125
-7.24299142074e-05
3.67969246361e-06
0.000170010936703
-0.000180788286552
-0.0124400457802
1.22066170331e-05
0.000187912995733
0.0124673155844
-0.000293050442129
-5.64585101665e-05
0.000178015617031
0.000310870136703
0.0125756563835
-5.73941996157e-05
-0.012447339389
0.000260844009919
-5.74603528416e-05
0.0124820444905
-0.000243168475488
0.0124655764547
0.000241518845068
7.35942277963e-05
0.0124044083569
7.87150232418e-05
-0.000148467022512
0.012442485157
0.000130951564732
0.0125025907477
0.000257391907
0.0124233833105
0.000279414840145
-5.29164722484e-05
0.0125294669028
-0.0125407808785
-0.000290790151577
0.00027591518818
0.0125745490532
-0.0124533780777
3.99401297672e-05
0.0124830639024
4.67361688499e-05
-0.000169866567281
0.00014208975467
0.000268697445034
0.0125808817826
-0.000182661249273
-0.0123891710825
-1.38378761716e-05
0.0124011136334
0.000170595627653
0.0123716420793
0.000167074243535
-0.0123723565906
2.14204294881e-05
7.81632393168e-05
0.0124029925356
-1.18021592785e-05
0.0124117229812
-0.0124226230309
6.43092848218e-05
0.0123844675116
-0.012389061486
0.000156883078416
0.0124066057778
7.03020546224e-05
-0.000197772150114
0.0124233212803
-3.65864447984e-05
0.00018390806853
-0.0124072567844
0.000214560932011
0.0124431225325
4.25344377148e-05
8.46951103643e-05
7.24308592835e-05
-0.0124281068697
8.11658401917e-05
0.012428710762
0.000199636966264
0.0124571507548
7.71742997179e-05
0.0124388324355
0.000169415512529
-2.7511311995e-05
-0.0124186895834
-0.000186485657654
-0.012454037013
0.0124819957275
0.000175634671557
6.35922567267e-05
-0.0124345943755
0.0124367086507
3.7043996484e-05
-6.90251017264e-05
-0.0124213862097
5.29533897905e-05
0.0124703859676
-0.0124329863116
0.000159122571444