/*--------------------------------*- C++ -*----------------------------------*\
| =========                 |                                                 |
| \\      /  F ield         | OpenFOAM: The Open Source CFD Toolbox           |
|  \\    /   O peration     | Version:  v1906                                 |
|   \\  /    A nd           | Web:      www.OpenFOAM.com                      |
|    \\/     M anipulation  |                                                 |
\*---------------------------------------------------------------------------*/
FoamFile
{
    version     2.0;
    format      ascii;
    class       surfaceScalarField;
    location    "1.35";
    object      alphaPhi0.water;
}
// * * * * * * * * * * * * * * * * * * * * * * * * * * * * * * * * * * * * * //

dimensions      [0 3 -1 0 0 0 0];
oriented        oriented;


internalField   nonuniform List<scalar> 
92311
(
0.200973875338
-0.000110541925607
0.000593340134056
-0.201065835278
-0.000390955893988
-8.91471337314e-05
0.200900814168
0.000576940663546
-0.000414766309935
0.200983383445
-0.000263547678673
0.000636539593994
-0.201070105726
-0.000396808991608
-0.000186087753919
0.20090819096
0.000603710902
-0.000431679237984
0.201048506748
-0.000156873455308
-0.000146078691611
0.00068485381158
-0.201095768839
-0.000443891641702
-7.99467071228e-05
-7.42972189605e-05
-0.000106211785377
-8.43416931384e-05
-2.87704769002e-05
0.200947506076
0.000664248738988
-0.000491137574374
-3.92001840564e-05
0.050301999741
-4.84302744912e-05
-3.31309996285e-05
-4.97040363199e-05
-6.74106592498e-05
0.00014533611965
-0.0502863503002
-0.000119258608091
-0.0502939343963
0.0502771711051
-5.6584459234e-06
-2.87433423776e-05
-2.5912647043e-05
-4.39620578487e-05
0.000168443380675
-0.000153686575983
-4.99023137487e-05
0.000531242069522
5.33153540642e-06
1.99719241167e-06
-3.24263104875e-05
-5.95954811657e-05
-0.000545180013686
2.60161548971e-07
5.63590152943e-05
0.000625578597617
5.70194756452e-05
-7.08849856856e-10
-0.000573035933319
-7.97514441031e-05
4.26557092511e-06
1.80650463247e-06
-8.82239043627e-05
-4.18013419277e-05
-4.48340755827e-10
9.428897038e-11
1.61354813149e-11
2.2621678353e-11
-8.39766399781e-31
-1.60958207072e-10
-1.88686132115e-11
3.92252315988e-11
-3.90971348047e-05
-2.34679243773e-05
-5.37044215325e-05
-4.06191471243e-05
0.000157968973675
-0.000139386455068
6.9214985362e-06
0.0118830094872
-3.20159997409e-05
-4.83006670653e-06
-0.0119822740083
0.011919864987
5.36036153179e-05
-7.69511135666e-06
-0.0120384664453
-5.39794662955e-05
3.96742328692e-06
-0.000161717440849
-2.96609883478e-05
0.050246754165
2.52700856521e-06
-1.47507314404e-05
-2.08543070952e-05
0.000170294119277
-2.03705145332e-05
0.0502418026369
1.28108631311e-05
-2.90180757809e-06
-1.00774915963e-06
-0.0502721639281
-0.000148774280872
8.28303909435e-05
-1.40305869856e-05
0.0118289389817
-4.27269540584e-05
1.64568125834e-06
-4.76147408791e-05
0.0125653519457
6.24764160407e-05
-5.5971064524e-05
-0.0125536815266
0.0125624949349
-2.77629805254e-05
-5.09659514816e-05
-0.0125518535149
-0.00015745007739
0.201208488969
0.00085968363869
-0.000472438509922
-0.201438394132
0.200855323303
-7.58069669641e-05
0.000517726170311
-0.000396438248456
-8.1457622851e-05
0.200844022967
0.000454007446125
-0.00036136984377
-0.000202514466367
0.201270405312
0.00073659692666
-0.000506503250941
-0.201455374256
0.200860318154
-0.000154522114683
0.000541036114579
-0.000414532516699
-0.000160625978762
0.200835620968
0.000475793594692
-0.000372183444451
-0.000164245122528
-0.00018439506635
-3.01685745974e-05
0.0009378536874
0.201268331186
-0.000555481076559
-0.20146625174
-8.06737306665e-06
-7.58455601065e-05
-7.88547918046e-05
-2.76978221522e-05
-5.29138341353e-05
0.200883374791
0.000611096927812
-0.000466556701628
0.0503620720518
-3.55465072665e-05
-3.85096854449e-05
-5.89391349397e-05
-4.12376367876e-05
0.000199424802612
-0.0504012027523
-0.000150370494286
0.0502254722171
-0.000166430099153
-1.70276424265e-05
-8.92085737838e-06
2.30433991474e-06
-2.78480160001e-05
0.000163239433743
6.63536652143e-05
-9.91121313745e-10
0.000652585157522
-0.000104557207329
1.77237466715e-06
4.20730048222e-06
-6.14473747574e-05
-4.93979056536e-05
-4.34594380582e-08
-4.69306266874e-10
-1.15426853798e-08
1.69978021736e-09
2.27246082124e-10
-5.97160530807e-10
1.90254567249e-09
-3.11878492423e-08
4.53826211998e-09
1.23935023679e-09
-2.31037390297e-08
2.47636842537e-10
-2.33429290792e-09
1.82005211919e-10
-4.01612489387e-09
-0.000196038740342
-4.84507794111e-05
-4.50176976859e-05
-5.34690386113e-05
-6.72004357542e-05
0.0503317943483
0.000255923989982
-2.46363008097e-05
-1.35295171313e-05
-2.25063215724e-05
-4.11397527142e-05
0.0503184835196
-0.000123464653824
-0.0503194511333
7.01729269914e-05
-1.05449536848e-05
0.012024587401
-3.34663582171e-05
-2.73625291922e-06
-0.012122424634
5.70718973766e-06
2.32839226709e-05
-0.0121448526301
-4.25957895536e-05
9.08922609737e-06
0.0120412203789
-7.17247286715e-05
0.0125878396563
5.3776898825e-05
-1.86991094117e-05
-0.0125757703357
-0.000166377337459
-1.14710424901e-05
2.41153009333e-07
-1.66659130088e-05
-3.35690590594e-05
0.0502087264025
0.000165497597045
0.0502265436896
-9.78782931868e-06
-2.27889075171e-05
-1.14043298332e-06
4.90271523385e-06
-0.00015016624098
-1.87062110661e-05
-1.03972733788e-05
-1.05580275525e-05
-3.02444110385e-05
0.0502198539198
-0.000143148067846
-4.98864477821e-05
6.50957882037e-05
-3.33189273187e-05
0.0125663961189
5.56844682608e-05
-2.92490432394e-05
-0.0119973475792
-4.67169219627e-05
0.0119182423049
1.02091680784e-05
-3.0165493638e-05
-3.19563739191e-05
0.0125649001406
-0.0125576047703
-4.90582987592e-05
0.0125645016875
6.38188189245e-05
-4.08544973837e-05
0.000543486914545
2.01901358251e-06
4.96400974324e-06
-5.48498508857e-05
-5.49472588057e-05
6.38200534827e-05
-1.82454273004e-09
-1.82435798252e-10
4.33547475793e-06
-6.7390110571e-05
9.94225812279e-07
-7.97193134198e-05
0.000614964390293
6.94972947948e-05
-0.000565584194617
-1.24797935438e-10
1.60135491713e-10
-1.61418335198e-11
2.98019777088e-11
-7.91921548876e-12
2.47811723843e-10
-7.55248100362e-11
-2.3203606738e-11
4.8213610999e-06
1.55703519296e-06
-7.2990370533e-05
-5.07383971099e-05
6.40616842973e-05
-8.05374509563e-13
-1.63881960185e-11
9.01160492316e-13
-5.59523256843e-05
0.0125650905115
2.77059166919e-05
-0.0125785673279
-0.0125856838744
-9.64765531676e-06
2.05095654202e-05
0.0125816380732
-4.00676174323e-05
3.32497825624e-05
9.09470933016e-05
0.0120193890816
-2.23154212363e-06
8.01338059143e-05
0.0120808268994
-0.0120638065571
-1.10354110347e-05
-0.0125725029466
-3.84812152514e-05
0.0119567893383
-1.30069296529e-05
0.0125791920616
3.02056591342e-05
0.0125653529355
7.24243488406e-07
1.81734464206e-05
-4.15081147888e-05
-5.56767997212e-05
-0.0125886919992
0.0125793826122
3.37665144986e-05
2.08991233076e-05
6.45898883809e-05
2.14879684171e-06
7.8404844803e-05
-0.0118704050331
0.0120091823232
-1.58617297664e-05
0.012578164797
-4.33864602072e-05
-1.42220100398e-05
3.30334816133e-05
-0.0125835205564
2.4435435375e-05
2.5515000774e-05
0.0125726050259
-4.48404735514e-05
-6.02064932995e-05
0.0125613170187
3.53788163765e-05
3.42585990923e-05
6.71416895939e-05
0.0119675082279
1.1202759856e-06
4.76670894956e-05
0.012033180686
-1.73528966889e-05
-4.35696521281e-05
0.0119290372466
-1.70408461434e-05
0.0125721220941
3.80279808502e-05
3.26343560106e-05
-0.0125772780447
0.0125672526092
4.20765208969e-05
-5.25264851408e-05
-0.0120066507515
0.0119192893212
1.81011096551e-07
-0.0118476126276
-1.32957396998e-05
0.0119752252345
2.36813749702e-05
2.66226110618e-05
-4.631010508e-05
2.50690926302e-05
3.94568255933e-05
1.45949121109e-06
-1.46477309044e-05
4.03154577154e-05
3.43459113895e-05
-0.0125703752666
0.0125611372532
-4.0337742633e-05
3.24213414144e-05
-0.0118688159408
0.0119940591143
-0.0120492542248
0.0119614138993
-4.55532500548e-06
-5.94974371801e-05
2.90612148056e-05
-0.0125707547144
2.01082791171e-05
3.86635291132e-05
-0.0120319461883
-4.73223248359e-06
-0.0125714404425
-3.92480765323e-05
-0.0119510027229
4.9851197224e-07
-7.3183365047e-05
2.33579765362e-06
-1.62901657347e-05
5.00117828269e-06
-4.23718154417e-05
0.000537136093402
-0.000540308972123
5.39970453382e-05
-1.22105145408e-08
1.10595414374e-07
3.26001106181e-08
-1.77281265256e-07
0.000535802567595
1.39612684737e-07
4.26886601487e-06
1.86267264906e-06
-4.42245281322e-06
-8.24307587694e-05
6.61846166713e-05
-0.000510895194451
4.03699684656e-07
2.43524449367e-06
5.27699064345e-06
-3.72783130093e-05
0.000537928816268
-9.07575210206e-05
3.65934682788e-09
-1.20506278133e-11
-9.91060814672e-10
1.10749861574e-08
-8.93492644174e-10
2.59686871962e-09
-4.40038544436e-09
0.000636942577966
1.89028689305e-06
-7.57248074041e-05
4.30814347351e-06
-4.65766413494e-05
7.17438532785e-05
-6.34892237533e-10
1.64756129215e-08
4.60120896863e-09
6.13229066654e-10
-1.20497617211e-09
4.87844783907e-07
-9.45941794515e-05
2.37720615341e-06
-1.44395849909e-05
4.79528988203e-06
-6.08622461802e-05
0.000633591192482
7.51619971664e-05
-2.67272958679e-08
2.4020195828e-07
2.25957278548e-08
-8.62160610862e-09
2.13342625888e-06
4.52395385191e-06
-6.94191369616e-05
0.000661609376203
-7.66566757e-05
1.13117144241e-08
-4.82402630245e-11
3.2793885935e-05
-0.0125973371737
-2.00474422846e-05
0.0125934718577
-4.45457519662e-05
0.0125855757243
-5.33451410342e-05
2.67927742079e-05
-0.0126082162671
7.46791923313e-05
3.06116226945e-05
0.012111452797
2.48340792936e-06
6.21689030068e-05
0.0121866411893
-0.0121614850292
-6.26364851094e-07
0.0125932038617
4.10752396875e-05
-0.0125937194368
-3.59320048961e-05
0.0120884921478
-6.40991130966e-07
3.31278529612e-05
0.0125724765541
-1.00393579034e-05
-5.03681931549e-05
-0.0125986649556
-7.09624625393e-05
5.56335087324e-05
0.0125922252519
7.5730680548e-05
2.67779513394e-05
7.70683173397e-06
9.5443721481e-05
-0.0119842761361
-4.5062549245e-06
0.0120781954078
4.99837511493e-05
-5.44121094007e-05
0.0125842265167
-1.07830858485e-06
0.0121149312662
2.43239663595e-05
1.05526717971e-05
-0.01209167034
9.98502241902e-06
-3.90236212123e-05
0.0119925747785
7.25945781171e-06
2.26282818513e-05
0.0125850446307
-2.3749017317e-05
0.012568529076
-1.89532469816e-06
-0.0125861304797
8.60491563986e-05
-0.0119675031624
0.0120674797771
0.0125814915226
-0.0120741078132
3.3923858561e-05
0.0125480269628
4.14055979014e-05
-4.75417840033e-05
0.0118283846972
2.28185946267e-06
0.0120181337795
-1.34588721008e-05
3.38139620308e-05
2.523710794e-05
0.0125600205966
-5.06432479177e-05
4.6729865428e-05
2.70992907392e-05
0.0119472943811
5.87478132515e-06
0.0125587833519
4.19554259244e-05
0.0119406246064
-1.38668917604e-05
3.2922317014e-05
0.0125426464815
2.35467519443e-05
-5.05287729941e-05
-0.0125618447378
-6.26992897933e-05
0.0125531707841
4.24282605242e-05
2.8381461619e-05
2.15915879911e-05
9.57199940983e-06
5.59790661173e-05
-0.0118617967775
-1.43007735519e-05
0.0119642824832
4.20497104498e-05
-5.00969159521e-05
0.0125528518371
-1.33920688812e-05
-0.012543280132
-5.7842829917e-05
6.14175248923e-05
-4.05377355485e-05
2.67938463822e-05
-4.03511815984e-05
2.40907268617e-05
0.0120341774025
0.0118831848671
-4.22726216843e-06
4.52453871848e-05
0.0119954680943
-4.44786929519e-06
2.04904983267e-05
0.0125600066489
0.0119580254406
0.01203518179
4.08558120214e-05
-4.7784182628e-06
2.18065743215e-06
-2.19823012706e-05
0.0119330514201
-4.56142773806e-06
3.28018379104e-05
0.0125632987089
-3.97040322965e-05
0.0125429003351
1.99115207345e-05
5.96531270419e-05
-0.011872647227
0.0119775885381
0.0125553653453
-7.48501572893e-05
-5.34172145239e-05
-5.3051022406e-05
0.000541783612393
0.200831770354
-6.52509488834e-05
-0.000404660081276
-0.000157625725936
-1.6218093616e-05
-1.36051912578e-05
-3.20306879595e-05
-2.29213549073e-05
0.000166337639346
0.0502100492383
-7.2380249281e-05
9.02837532502e-05
4.16941976713e-07
4.06592391697e-06
1.92897509009e-06
-2.3499788818e-05
-9.2883382065e-05
0.000634354502639
-4.48813099436e-09
-6.11778516157e-08
-2.06114952342e-08
9.69790688453e-10
-1.22770723202e-09
-1.09761159e-08
-1.92873889741e-09
-1.24440117141e-05
-2.28345319879e-05
-2.64805573032e-05
-4.03727055304e-05
2.50364785719e-05
0.000216686890863
0.0503240139653
4.63780861473e-05
-1.63847735176e-06
-3.16598742667e-05
0.011886861643
0.0502402701771
-1.24404210301e-05
-2.34831614995e-05
-2.04557692751e-05
-4.22974263076e-05
-0.000132921485606
0.0502408775837
-2.34720282527e-05
-9.59824610899e-06
-3.27426495466e-05
-1.89912304851e-05
0.000142018546548
-0.000111028340774
-2.28595946792e-05
0.0118432332489
-4.14231000224e-05
8.17737015658e-06
1.85583023847e-05
2.35895700927e-06
-1.49712578698e-05
0.0118555681659
-3.84970701281e-06
0.0118155548415
4.15087897541e-05
-4.53853512953e-06
-2.59976236441e-05
-0.0119484734414
-8.66025392063e-06
0.0502101441841
1.22376952553e-05
-2.01715937564e-05
-3.75303090202e-06
-2.42030692658e-05
3.63679772627e-05
0.000113032962797
-8.2964254391e-05
-3.73700923816e-06
2.06616015165e-05
-1.10346916573e-05
8.41625521668e-06
2.09904125175e-05
8.73620739619e-05
0.050150436192
-6.31634643766e-05
1.8493744497e-05
2.77099900749e-06
-5.95888460288e-06
0.0117746801256
-7.34797763035e-06
8.9381538944e-05
-5.51006659514e-05
-2.46801945813e-05
-0.0118650988466
0.0117737951126
-6.40161170189e-06
2.35910106304e-06
5.73063424852e-06
-2.07072232187e-05
-6.24388450707e-05
0.000532073938695
3.15389087008e-07
0.000614470365888
8.45063773861e-07
2.07468628725e-06
4.93346739759e-06
-1.50979469152e-05
7.08272861274e-05
8.01725811475e-07
0.000617978325978
4.28372128469e-06
7.40342741512e-07
-2.36908544667e-05
-6.32763989242e-05
2.89194046481e-05
-1.8790086234e-08
-9.15721744258e-13
1.94276428904e-08
2.27985902014e-07
-1.3051716556e-08
2.24983884032e-08
1.01885712158e-07
-3.20667608613e-08
0.000657389609198
-4.54353783182e-06
3.72984194316e-06
-6.92081966314e-05
-2.44512257387e-05
3.31735502085e-07
3.32255899804e-06
2.86723431466e-06
-4.51723243197e-05
-3.1729109275e-05
-5.83102210459e-07
7.91615904192e-07
0.000690301687777
-2.89349043119e-05
-0.0125934579058
-5.83558020502e-06
-5.8560888724e-05
5.84477130435e-05
0.012586913551
1.99822526173e-05
0.0125681545598
7.4097368268e-05
0.0120870655539
8.5268542528e-06
4.20844011477e-05
8.27690580165e-05
0.0120184177726
5.61777136284e-05
8.90894772892e-06
0.0119549416866
0.0125829177757
3.36956849281e-05
-0.0125600605351
-3.90424167346e-06
-4.37317241868e-05
0.0125575672698
0.0125392581629
-6.44252638701e-05
4.18589797647e-05
5.33106077215e-05
2.03281447634e-05
6.18834961672e-06
0.0119533032692
4.73867354936e-05
0.0119964381887
-1.55769872342e-05
4.25411915501e-05
0.0125518626258
-4.68022192937e-05
-1.25619824404e-05
0.0119012397411
-0.0125632555988
-2.55797048797e-06
-5.03158911662e-05
0.0125601319142
2.67656346334e-05
0.0125526807104
-3.6955839459e-05
4.82894735713e-05
0.0120012625143
3.58786759483e-05
7.11876419117e-05
0.0119687850121
-5.69810810162e-06
0.0118881241145
0.0125651703592
-3.36455060244e-05
0.0125501195856
-4.07835680468e-06
-4.84351763354e-05
3.89715726406e-05
1.69844695325e-05
-0.0125711860958
0.0125664208594
-2.63105519825e-05
6.48437935977e-05
-0.011822174628
0.0119414131338
6.06014370946e-06
2.30486339623e-05
4.29455444851e-05
-8.37750572508e-06
0.0125640873035
3.53286265783e-05
7.27468523159e-06
-3.04256625504e-05
-0.0125630938761
3.50294264128e-05
-3.55273289342e-05
0.0125483744534
2.74143275704e-05
1.54296758382e-05
0.0125547538682
-2.14117164847e-05
1.84038845801e-05
0.0119152223557
5.74156878993e-06
3.63868974314e-05
4.92214304053e-05
0.0119001780587
-6.22939300662e-06
3.12610535099e-05
0.0117937311752
4.83481912594e-06
0.0125615129216
-1.72426223057e-05
0.0125318006554
1.0750961283e-05
-2.14966238244e-05
2.35272893975e-05
1.35377113701e-07
-0.012548265852
0.0125250238082
-1.1269947697e-05
3.04966559413e-05
-0.0117587349451
4.49134627547e-06
0.011870855479
9.41930597222e-06
-1.3365463738e-05
-5.38056624113e-06
2.06566468882e-05
0.0125310279174
2.02471419847e-06
-1.30796220011e-05
-0.000374685180792
-0.0495669028085
0.0495027974507
0.000413150322069
-6.47990064745e-06
1.22842450265e-05
2.12509625774e-05
-4.40818351545e-06
3.0994707943e-06
-0.00041937148948
0.0498671182926
-4.07608973623e-05
-3.50972056641e-05
-3.8952909816e-05
-3.67491066978e-05
0.000124815918034
-0.0498005104685
0.000379579435978
-0.000629618482571
-0.0500105814366
0.0502397313477
0.000488353153159
-7.59343135871e-05
-6.32675078899e-05
-8.27239884522e-05
-7.33156533819e-05
0.000207372180003
-0.000402797830713
-8.02846204572e-05
-7.6775246229e-05
-9.76529464655e-05
-8.09563394877e-05
0.000242928961316
0.0502240818701
0.000346583194078
-0.0500751451555
4.19538620907e-07
-6.45422558437e-05
-0.000351142080445
0.000371674154856
0.000129502192073
-9.7084464311e-09
-2.55348704681e-06
1.35197023418e-08
3.55200994584e-07
1.27801658878e-06
-0.000375000226875
0.000377263888678
0.000162103039735
-1.63019713193e-09
1.5225853904e-08
-7.66648343977e-05
1.94561797852e-06
-0.000108084790718
1.20909446764e-06
-0.000146779232636
0.000409885153153
-2.21912063801e-09
6.164308205e-07
-4.97421024576e-06
1.0215978759e-06
-0.000394813710999
0.000118078098452
3.42698947979e-06
-0.000204600659148
-0.000411402658831
0.000392664074021
0.000194630226671
2.91411328454e-07
4.17486508169e-07
-5.70785597503e-05
3.77527678321e-06
3.95669401951e-06
-0.000162203169397
1.50818625823e-06
2.40089158284e-07
3.72144004481e-06
0.000390201496882
0.000101900860677
1.09447471083e-06
-0.000444123785508
0
-3.03658078967e-11
0
1.75577666507e-11
1.22407243104e-11
5.67316935656e-13
5.97634945701e-30
1.61862614721e-29
-3.19595778299e-12
1.79965140394e-12
3.67613349581e-12
6.52962387943e-12
1.38019666501e-11
-3.90407934325e-12
-7.77451161187e-15
-1.38335610172e-11
-2.45999367743e-09
3.82863847208e-09
8.96565417389e-10
2.82621020156e-11
1.88476175326e-09
-4.72907787175e-12
-8.5953549482e-09
1.03439350104e-09
9.13753053184e-10
3.79209784655e-11
-2.54681601907e-10
-2.3296112322e-10
3.14638537911e-10
3.84667148018e-09
-2.32742795126e-09
-4.88070682117e-08
-1.49183647139e-11
-3.63705293442e-09
-2.29533098163e-08
-1.22063900931e-08
-3.39280576189e-08
-1.01543800706e-07
-9.20666768382e-08
2.84925248969e-09
-5.26277290842e-09
0.000161127433697
6.98262354251e-06
3.21260033865e-06
-1.49805190316e-06
2.80637551459e-06
0.0493767132977
-3.29698930418e-07
-4.17220520604e-05
-0.0495072755697
0.0494581817014
0.000249604490687
1.36021906716e-05
-2.03100954478e-06
9.47842013209e-06
-4.1646840906e-07
-3.19335023621e-05
-0.0495353195345
-5.0232634625e-07
-6.86919493525e-07
-0.0123114820529
4.39029168702e-06
0.0123119502831
2.30912997811e-05
0.0123210633161
4.51598820004e-05
-3.55487770275e-07
1.01204525267e-05
-3.27666879573e-05
-0.012318286753
2.62041403592e-05
1.63813928975e-05
2.25462254532e-05
2.39212547719e-05
-0.000228958651302
0.0123487884117
0.0123175973406
0.0123019959506
0.0123454940285
-9.04568643005e-05
5.36826679691e-05
-4.39714518544e-07
-1.92428314565e-06
-3.92299642081e-05
0.0123348802702
0.000292206643274
-3.01797175154e-06
1.6326413232e-06
-3.04355789548e-06
-7.09722760499e-06
1.99908779129e-05
-0.0496179921087
0.0496712492786
4.14653075045e-06
-1.31310235658e-05
-4.93051994445e-06
-1.01560503673e-05
-7.26882727586e-06
-0.0496736171939
0.000325882288285
0.0123309859916
-2.07347696344e-07
-4.80721928699e-06
-0.0123306475357
6.48529049667e-05
0.012331858902
-8.11054051069e-07
2.92125374742e-05
-7.46337793341e-05
-0.0123343954714
8.0705382033e-05
0.000589379261732
-2.45671398783e-06
2.51672460417e-05
3.20297823715e-05
-8.16637646751e-07
0.049562838292
-0.000161965389156
-0.000140065188275
-0.000162221721576
-0.000134008865044
-3.87013964859e-05
-2.22662199542e-05
-2.61929391877e-05
-1.7903347798e-05
0.049709030777
-6.69912474195e-06
-1.73573473565e-05
-4.47057739209e-06
-1.69672194302e-05
1.59061865975e-06
0.0498462989079
0.00052589874956
-1.08464828215e-05
-2.53040371987e-05
-2.07016983284e-05
-1.71245509699e-05
3.8851681991e-07
-1.43936103683e-05
0.012339652726
7.9466641634e-05
0.0123663345818
-4.04482882256e-07
-2.05976944309e-05
-0.0123545014092
0.000124523843462
-9.02442867728e-05
9.23689042742e-05
-1.38894134973e-06
3.43858918535e-05
-8.14457118425e-05
0.0123489810566
0.0123400524528
0.000103783552427
-1.41156753885e-06
4.66830374233e-05
-0.000100711306656
-0.0123530980902
0.05015719951
-2.44451497117e-05
-2.88167347547e-05
-1.40226601533e-05
-3.7153981618e-05
-0.000802902118167
-3.2751812905e-05
0.00070317408705
-3.93206822921e-05
-3.49647262623e-05
-2.60609397333e-05
-5.20917949021e-05
0.0507463485225
-0.000101841714586
-0.0010379902978
-1.24574500682e-05
0.0124174336148
0.000168435708877
-0.000113366770988
-4.91261883689e-06
5.45544729424e-05
-0.0123081843381
0.000238517421476
0.0122610721968
-0.000170121995896
0.000110698270003
-3.16551719967e-06
7.69981660144e-05
-8.43988336195e-05
0.0123956698713
0.000125787656156
-5.67371226528e-06
0.000102289577394
-9.71951755872e-05
-0.0122497858082
0.0121843935364
0.000437351643928
-5.52784353008e-05
-4.49683356318e-05
-4.09274907102e-05
-6.20498969602e-05
0.000148431261995
0.0500394317894
-3.75483991729e-05
-4.43704464783e-05
-5.02256625594e-05
-4.36872983309e-05
9.50142863746e-05
-0.049910302871
0.000389054464217
3.9414496483e-05
0.0123601855986
9.65437399166e-05
-0.0123466279853
0.0123482370975
-1.66888554873e-06
5.312258558e-05
-0.012370664853
0.000118208202866
0.0123123957882
-2.20612433901e-06
6.87908237574e-05
-5.90130562761e-05
-0.0123598186693
7.11824459562e-05
0.000492836897899
-0.00010315952365
-8.93077649955e-05
-8.74826867294e-05
-0.000114670872964
0.0505779140987
0.000266845904834
0.0502187986302
-5.63882265368e-05
-5.93829067276e-05
-5.47721005907e-05
-7.39167436474e-05
0.00015099546506
-7.81585994384e-05
-6.21024192167e-05
-6.72996321155e-05
-9.01384159812e-05
0.0504704101009
0.000398932593447
0.000139860282641
8.54041720139e-05
0.0123973441913
0.000144304856712
-5.70079254108e-06
0.00011901842608
-0.0122573728218
0.000145417948491
0.0121730089283
7.65018183905e-05
-4.64273510784e-06
9.91296501444e-05
-5.13683911534e-05
0.0123246132497
8.13153446941e-05
-5.33271607377e-06
0.000112718102164
-5.75234514805e-05
-0.0122689613239
0.012153444389
9.16715872876e-05
0.0123130059019
8.71704520142e-05
-0.0123116548619
0.0001167818301
-0.0122880509452
0.012172328779
-4.60076321051e-06
8.34183431137e-05
-6.79651721409e-06
4.81225277964e-07
3.16333941248e-07
3.222363393e-07
0.000327014822678
7.97993218738e-05
-0.000340697056479
-1.91917289406e-08
0.000342892436513
5.23541062898e-05
2.65372115167e-07
5.09880068891e-07
1.02627811264e-07
-0.000369743924801
-2.25477857604e-09
-1.8914420846e-09
2.18580324171e-07
1.71302576744e-07
2.45159839406e-07
-1.42227696993e-05
0.000350997294141
-6.19933956645e-11
2.08200416187e-09
4.14606088876e-08
-1.02586984737e-10
-1.62432873304e-09
4.58364712837e-11
-3.555260911e-13
2.87665029843e-09
-2.15356435833e-12
-6.71259096301e-13
1.04367726048e-10
5.6308468778e-12
-7.40095654215e-13
3.4042218226e-12
6.88053647272e-11
-2.84021893571e-13
-4.2358058994e-14
7.01100396939e-12
-5.88333694694e-14
-4.35213562552e-14
6.9869827338e-13
4.85659540232e-12
1.17140934517e-13
-1.81150273837e-13
1.06511004295e-12
2.63606854961e-11
7.55610456597e-12
9.2526390108e-12
3.47552957429e-11
0.000104715856183
5.73128923262e-07
1.72382521827e-07
2.51956111701e-07
-1.64896031571e-10
-0.000356361945732
0.000388325697771
4.10361747535e-07
3.17813594696e-07
2.49455344773e-07
-0.000394976594044
-7.02764618196e-09
0.000115722982703
0.000159013707017
-1.72383120459e-09
-2.07861214493e-05
2.59441403954e-07
8.61160270425e-07
-8.93384738675e-05
0.000401811435471
-6.25457222673e-08
3.93070899947e-07
6.51835834063e-07
9.33611366021e-07
-2.07473295392e-08
0.000407505064018
0.000189654650342
5.16937661265e-07
1.05672253797e-08
1.66236446321e-06
-6.47103142561e-12
1.618915276e-09
-1.24787747752e-11
2.80074045988e-10
-6.56158383958e-11
1.81132087916e-08
1.67319858299e-08
-7.03910515611e-09
3.91795993239e-09
7.60907343966e-09
0.000158402671196
-9.06330958251e-10
-0.000159559206307
-4.61207023062e-06
5.23135621755e-06
0.000367197053149
-0.000106210847301
0.000384452734494
-6.68368776808e-09
-8.44647805831e-05
2.2628112141e-07
2.20549538411e-06
7.85689954845e-08
0.0002032722326
-9.06029109163e-07
-0.000156955709523
5.22000725485e-06
0.000373222164869
1.44375360257e-11
2.55064591537e-10
5.19334100042e-10
3.92549525217e-10
6.29699173395e-09
4.85911059897e-09
1.43586355741e-09
1.73240893722e-08
0.000165908914926
9.04668828969e-08
6.08733948709e-08
8.913852786e-07
2.47232794138e-06
4.76164930618e-07
0.000440336336354
8.95552498682e-07
2.98700914096e-07
2.16118533438e-06
-0.000443728053907
0.000118254190539
2.00669508941e-08
-6.77702215694e-09
1.02188587819e-08
3.64015200386e-08
4.73942785042e-08
2.72281125167e-07
-2.22976839441e-07
7.88718111126e-08
0.000195284882032
5.26584540064e-07
-0.000122182140142
7.38827726794e-07
6.99982602121e-06
0.000376940102475
0.000388347973995
8.56240572789e-07
-1.63972468566e-05
1.04549677738e-06
3.68448648621e-06
1.01203555371e-06
1.17600831043e-06
-7.15285320657e-05
7.00916936228e-06
0.000339511933043
0.000139832072988
6.28754072097e-08
2.03562123609e-08
-2.42771474041e-08
1.07332631602e-07
2.64507354269e-07
5.74259219823e-08
1.91917225649e-07
-6.06639896876e-09
0.0123710926517
5.09890420584e-06
-2.82742977719e-05
3.50195511615e-05
-0.0123759431857
2.93345977205e-05
-0.0123722548263
0.0123593393467
-1.39539728402e-05
3.11306947467e-07
1.67730686663e-07
2.52697892391e-05
-0.0123139758821
4.04261192425e-06
-0.0123081624655
1.47893880727e-05
0.0123059118016
4.04125611312e-05
0.0123625075959
1.2992075608e-05
-0.012299276355
-1.70819362141e-05
-0.0123804399364
0.0123784264369
4.39730231325e-05
6.86611808198e-06
-0.0123806421432
-5.55892137479e-05
-0.0123873037767
0.0123808033408
7.0202663632e-05
-2.40970503812e-06
-0.0123181664234
0.0123187119958
1.11059030941e-05
-2.4042030696e-05
3.78226884138e-05
-0.0123109885755
0.0123702428986
5.76556567267e-05
-0.0123902919277
-0.0123089371413
-0.0123637978487
7.98504558096e-05
1.38748109442e-05
-5.55546099655e-05
0.0123518703406
-6.52079670099e-05
0.0123768603962
8.35024432692e-05
-9.17291087415e-06
0.0123186836165
-1.98503974873e-05
-1.01387613575e-05
-4.88134104047e-05
6.52965539391e-05
0.0123459623485
-4.5276713165e-05
0.000100231179568
0.012370232116
-2.61008999809e-05
0.012324189357
-6.24104901348e-05
0.0124076901481
-3.25807492829e-06
6.15184538299e-05
-0.0124065508074
-0.0124020005465
7.07944361776e-05
0.0123982569617
4.78012613496e-06
5.84593301593e-05
-0.0123216736709
6.68037301646e-06
-0.012328291861
6.66638025515e-05
0.0123283281824
-0.0124050166656
7.07070648619e-05
0.0124073967212
5.86958211965e-05
-0.0123191375666
0.0124156611592
6.45375162334e-05
6.78753086656e-07
-0.0124151906187
-7.42298930939e-05
-0.0124236285269
0.0124303626524
8.35772814795e-05
1.1753629883e-05
-0.0123407371739
0.0123454563607
2.12954128764e-05
-6.81820730355e-05
-0.0123351211738
6.88824266325e-05
0.0124191013489
-0.0124224360482
7.44679645888e-05
-0.012330998687
-9.7928972938e-05
-0.0124077425233
-8.39470112718e-06
0.0124114604983
9.6249202052e-05
0.0123955937125
8.41283758562e-05
-2.72284918537e-05
8.55701343744e-05
0.0123540058956
1.16748017037e-06
0.0123253129911
7.47223229809e-05
0.012392146554
8.06239711214e-05
0.0123291484885
8.20016009537e-05
-0.000118352741878
0.0124232887889
-1.00022067565e-05
0.000113917614242
-0.0123924481935
0.000141837624091
0.0124039916656
-0.000148691071737
-3.47206937347e-05
9.44462499346e-05
-7.9910007318e-05
3.69020741719e-06
-0.0123602042191
0.000115246974144
0.0123811641165
-0.000121189048918
0.00013449329067
0.0124337878876
9.53614689647e-05
-0.0124227908978
9.68492043905e-05
-1.4544256521e-05
0.0124299743183
-8.25097836719e-05
0.0124377062271
9.21947535052e-05
1.00663011156e-05
0.0123405237178
3.01452487564e-05
-0.000102177036398
0.0123625890334
9.83416630051e-05
0.0124453435183
0.000102393906211
0.0123318640627
0.012443483182
0.000111854752368
-2.22508969558e-05
-0.00012204529773
-0.0124515469918
0.0124691126573
0.000125901541532
2.2762711546e-05
-0.0123655775347
0.01238451918
2.43419418534e-05
-0.000121480062096
0.000102521208191
0.0124581420494
0.000112956266927
-0.000180211294482
-0.0124509215051
-3.79896522169e-05
0.0124927819459
0.000176763394881
-4.228890413e-07
0.0124385720778
0.000169461506702
-4.04241191265e-05
-0.000175914036048
-8.67166744733e-06
0.000124936094109
0.0124404768338
-0.000137189514423
-1.02144001956e-05
0.0123282014971
0.000135821406762
0.012478611309
-2.08265690057e-05
-0.000208113409684
0.000155949966892
-1.38313725138e-05
0.0123285061693
0.000150195114817
-0.000189149752279
-7.88861313017e-05
0.0125857350977
0.000194480928134
-1.93981962934e-05
-0.0125463481991
0.000229905738414
0.0126610849642
-0.000252949207769
-3.70519418519e-05
-3.41723878301e-05
0.000103493429935
-0.000156970421858
-0.0124132691421
5.65757419432e-05
0.000172564149842
0.0124632479405
-0.000226836327954
-6.42472015803e-05
0.00016221855253
0.000213625340444
0.0126686594055
-9.8264321142e-06
-0.0124747271191
0.000165281431569
-6.29933808109e-05
0.0125247573135
-0.000132804893343
0.0125100950805
0.000140051119272
7.46265627073e-06
0.012318685301
6.14002707835e-05
-0.000167952370685
0.0124105584813
0.000121820893218
0.0125433137565
0.000156301248809
0.0123137580823
0.000181445520422
-0.000105280487916
0.0126028851612
-0.0125673477431
-0.000172447217315
0.000169224066515
0.0126381003251
-0.012393527542
7.96628788401e-05
0.0124474300322
2.93477047674e-05
-0.000213769839891
0.000124310834613
0.000160834921092
0.0126715330307
-9.43702412821e-05
-0.0124511569641
-5.3137575121e-05
0.012463775664
9.41813097012e-05
0.0124489957396
8.88241422942e-05
-0.0124413719581
4.28251813087e-05
8.36862659563e-05
0.0123796674956
3.86071156288e-05
0.0123657397672
-0.0123761468305
6.53187140695e-05
0.0124608228747
-0.0124468738607
8.64246450586e-05
0.0123500784739
7.20280604535e-05
-9.93479320674e-05
0.0124823424992
-7.38420583736e-05
9.93400498305e-05
-0.0124675501051
0.000115822982355
0.0124858337608
3.39609500224e-05
7.79409131963e-05
6.75772003635e-05