/*--------------------------------*- C++ -*----------------------------------*\
| =========                 |                                                 |
| \\      /  F ield         | OpenFOAM: The Open Source CFD Toolbox           |
|  \\    /   O peration     | Version:  v1906                                 |
|   \\  /    A nd           | Web:      www.OpenFOAM.com                      |
|    \\/     M anipulation  |                                                 |
\*---------------------------------------------------------------------------*/
FoamFile
{
    version     2.0;
    format      ascii;
    class       volScalarField;
    location    "9";
    object      alpha.water;
}
// * * * * * * * * * * * * * * * * * * * * * * * * * * * * * * * * * * * * * //

dimensions      [0 0 0 0 0 0 0];


internalField   nonuniform List<scalar> 
28582
(
0.999993366685
0.999995368187
0.999995854578
0.999996300739
1.0000006411
1.00000061814
0.999999395611
0.999997228299
0.0552487235919
0.057591647954
9.04751038557e-06
0.999998619673
0.872359035855
0.873512572595
0.999995249216
0.999996635144
0.872910707846
0.998729526212
0.998887823358
0.999996802561
0.999997280542
0.999996622354
0.999997183875
0.99999729549
0.999998035252
1.00000093296
1.00000020267
0.999984247752
0.999991970059
0.0582642985591
1.06277673577e-06
-1.93688075424e-26
0.999986538371
0.999996693126
0.862300488264
0.862889273283
0.998509360032
0.999992147084
0.999995104815
0.999993502759
0.998650217779
0.85860982139
0.998827415559
0.998681275416
0.05605066545
0.0552019618418
0.000229173938125
0.000554269611988
0.0567654791981
0.000564340836984
0.998803798906
0.998923571071
0.872888259409
0.875232764129
0.998919048443
0.875746861473
0.998820165309
0.998917587652
0.998810507991
0.873427980553
0.876139082588
0.998898770578
0.875735060207
0.998814822168
0.998855726943
0.99880234407
0.871785985651
0.87583739112
0.998884784423
0.87492529504
0.998780064634
0.998637731681
0.867191645348
0.87006140008
0.998803596964
0.86957358033
0.872740348277
0.998716681479
0.998939807473
0.875115020278
0.878199239777
0.998949140532
0.878946183955
0.998996071131
0.876373221278
0.0542047957748
0.000364744035633
0.0516066981773
0.0553311056627
0.000440316309334
0.000323016772087
0.0560739416271
0.000202700016344
0.000387129671257
0.0568394124313
0.000361500425564
0.0586615030581
0.000446243675376
0.998065878513
0.998128781402
0.862130171343
0.864159022077
0.998106338055
0.998099319102
0.863933828823
0.998069511053
0.99816332923
0.862349883877
0.864762056483
0.998120323375
0.998118063984
0.864241762967
0.868557696006
0.869787488842
0.998522046284
0.998331532196
0.866925868126
0.998373182971
0.866021230934
0.998575755953
0.864746350449
0.867571751659
0.998569583355
0.862100425248
0.998491305056
0.865068744981
0.998495366247
0.998365719849
0.860175671139
0.860644894126
0.998402954447
0.998436863873
0.863021157962
0.998777498185
0.998867066736
0.87286094996
0.87628876217
0.873875124298
0.998737674761
0.869922947453
0.87043947313
0.8663241827
0.998573343193
0.998641953032
0.862972723969
0.998525333782
0.866484571768
0.999999813063
0.999993058608
0.0591133782254
-7.74527754268e-27
0.999996509159
0.869988131711
0.999993609721
0.99999567585
0.857468751923
0.862829452045
0.856379021984
0.999996696448
0.999996352018
0.855692836884
0.853716802318
0.057427488634
0.0577588147639
0.0589240974493
0.000439826269117
0.000389589664793
0.000393874604281
0.0605049754457
0.061853367893
0.998377482628
0.998538828229
0.867221396791
0.870323492702
0.998380071441
0.867558896034
0.998551188516
0.998489039777
0.998370840411
0.856287614831
0.858879713027
0.998406887732
0.998446558739
0.857557462153
0.998526905121
0.998466949636
0.860603446925
0.859229772577
0.998506750287
0.858824457041
0.998474241883
0.998567782601
0.998571488995
0.856905935659
0.857456342179
0.998620205861
0.857810168333
0.998507739202
0.998646988522
0.998604788584
0.856101734714
0.855116823738
0.99865031216
0.855458201116
0.998604606931
0.998619178671
0.998514745478
0.85383682473
0.854512908575
0.998541467159
0.854804590072
0.998583616162
1.00000786458
1.00000216512
1.00000140133
1.00000111421
0.0265446350106
0.0307117834284
0.026475891574
0.0314239384425
0.03265613329
-1.11287787113e-26
9.30248206396e-06
-2.93524365008e-26
2.35109816115e-06
2.34605103004e-07
3.65510157714e-06
1.00000604875
1.0000054128
0.953054946657
0.952721085124
1.00000734146
0.952756931653
1.0000034516
1.00000355893
0.95212533979
0.950742111314
1.00000680001
1.00000676699
1.00000677742
0.952141141881
0.951783068192
0.950633432495
0.949779914871
1.00000680383
1.00000477424
0.951538123585
0.946384063421
0.949314891282
0.93800191674
1.00000322298
1.00000285934
0.950268967313
0.949532004266
0.948568418869
1.0000005533
1.00000271688
1.00000169639
0.948996864324
0.935489514528
0.946793388316
0.930430117801
0.944986429115
0.927895972374
0.0258134310325
0.0254719712552
0.0267471469692
1.13793657954e-05
5.19981232003e-06
1.14789236334e-05
6.0909173666e-06
1.08044997636e-05
0.000221062401314
1.19917115292e-05
0.000155418460589
0.0253348382113
0.0251816161487
0.02827473326
0.026392868914
0.028249741461
1.18140813291e-05
7.14978156377e-06
1.15379143119e-05
7.26296859322e-06
0.0345979413362
0.0309824417379
0.0351078410711
1.16666993121e-05
0.000139994002471
5.04029131522e-05
0.000195466222973
0.0284008227292
0.0286749318821
1.44996632575e-05
3.90629512997e-05
9.32785181832e-05
0.0359469064227
0.0321640543581
0.0365576055437
0.000116119428625
0.000233551965822
0.000150241011794
0.000240954244483
0.999954812847
1.00000077871
0.952570647763
0.953139739523
0.999999136048
0.952636235501
0.999971047302
0.999976452529
0.999999958431
0.952981978352
0.95240748235
0.999999859524
0.999965218538
0.952613489752
1.00001838094
1.00001553369
0.953165274168
0.952722348779
1.00001938869
1.00002291441
0.953183450271
0.999922874172
0.999992843889
0.951949618914
0.951536279619
0.999935584267
0.999974852136
0.951489416085
0.999908824796
0.999957798633
0.951070911969
0.950763477766
0.99997333457
0.999904008755
0.951044555944
1.0000026545
1.00000371633
0.952071538959
0.951504280821
1.00000947144
1
0.95143515297
1.00001066537
1.00000609082
0.951906745239
0.951127292235
1.0000104512
1.00000983466
0.951332958417
1.00000479461
0.999997530014
0.95100763688
0.950451375949
1
1.00000221545
0.950923399593
1.00000213241
1.00000051447
0.950370586071
0.950188170609
1.00000399767
1.00000673299
0.950733914769
1.00000371058
1.0000040161
0.951073725635
0.950699550481
0.999998752588
1.00001275154
0.950231011104
0.999983296241
0.999938295987
0.949888984459
0.943855760449
0.999982278407
0.94831550033
0.999933835142
0.999975579337
0.999972347649
0.949795585524
0.948369534473
1.00000413293
0.999962299038
0.949245329279
0.999947706205
0.999857595328
0.940450554373
0.944452886001
0.99992164092
0.945881033579
0.999898446805
0.99999164145
0.999989586711
0.950142535979
0.950132969764
0.999994474836
0.999992960842
0.949967795104
0.999988720091
0.999988661871
0.949905800799
0.949643955243
0.999995777101
0.999992638372
0.94982937023
0.999981874437
0.999966043462
0.949425091431
0.949465539867
0.999975289912
0.999974651418
0.949961112015
0.999931316792
0.999968060121
0.947316800899
0.948649215053
0.999942370151
0.999980785622
0.946340374804
0.999859338463
0.999810754466
0.94242181806
0.933969372166
0.99988442763
0.941206815046
0.999788562636
0.999921938349
0.99993718526
0.947945105157
0.944234391536
0.999954004558
0.999924079545
0.945455745877
0.99988091937
0.999799572251
0.932008737935
0.938428463895
0.999878857442
0.939946692609
0.99979733575
0.999879311957
0.999925653855
0.941956531602
0.943477096344
0.999903102208
0.999906044221
0.940033127697
0.999780720446
0.936113911068
0.999863062339
0.999992606782
0.999994883079
0.999998465397
0.999996770156
0.99999637516
0.999985134617
0.999996853537
0.999997090397
0.999998084579
0.999997410755
0.999993089514
0.99998499238
0.999994456628
0.999945021951
0.999982635941
0.999982759715
0.9999904169
0.999998497123
0.999998460461
0.999981736339
0.999999098385
0.9999960735
0.999976752114
0.999975892645
0.999983421457
0.999996984884
0.999996673815
0.999983924762
0.999992954785
0.99999134064
0.999994271356
0.999997224674
0.999999128611
0.99999927078
0.999997693381
0.999989717114
0.999993675268
0.999992506163
0.999996719704
0.9999991537
0.999999147786
0.999995669003
0.999990324103
0.999990852972
0.9999991537
0.999998074014
0.999992109121
0.999986432705
0.999874369941
0.999893631569
0.999996661826
1.00000028918
1.00000085408
0.999998997157
0.999922354159
0.999861342534
0.999987020059
0.999858047495
0.999973721605
0.999996465681
0.999999708134
0.999999834397
0.999995675403
0.999976459928
0.999986914432
0.99998106006
0.999985955855
0.999995603885
0.999999385492
0.999999482683
0.999998501087
0.999995798296
0.999998027784
0.999998646439
0.999998973164
0.99999913382
0.999998951182
0.999998203323
0.999996602792
0.999996971586
0.99999832122
0.999997107234
0.999994222662
0.999994278915
0.999881665455
0.999899174361
1.00000051406
1.00000828328
1.00001063981
1.00000563517
0.999974112178
0.999923972361
0.999968168224
0.999858869427
0.999995806285
1.00000261526
1.0000083419
1.00001116428
1.00000907678
1.00000433307
0.999995858848
0.999997454365
0.999999649033
1.00000139639
1.00000280039
1.00000362462
1.00000389598
1.0000035498
0.999999934721
1.00000118288
1.00000150033
1.00000162931
1.00000142503
1.00000124294
1.00000130533
1.00000146099
1.00000167073
1.00000130128
1.000001022
1.00000113124
1.00000166222
1.00000193136
1.00000221221
1.00000223496
1.00000057904
1.00000075665
1.00000106142
1.00000297188
0.999977992802
0.999999856977
0.999995112733
1.00000622402
1.00002255537
1.00002336182
1.00000495335
0.99999690439
0.999999640839
1.00000106388
0.999999452006
0.999997950282
0.999998154136
0.999997815432
0.99999455879
0.999973810279
0.999999163572
0.999991525067
0.999990597961
0.999996600382
0.999998138857
0.99999923156
0.999998209697
0.999993588723
0.999992339081
0.999989195619
0.999984881345
0.999990095635
0.99999581788
0.999996506905
0.999994863178
0.999991210917
0.999987351649
0.999990998427
0.999991457563
0.999990565061
0.999989960161
0.999986764468
0.999982885036
0.999984335655
0.99998807515
0.999989418026
0.999998480959
0.999997377373
0.999989881399
0.0486079174103
0.0545440928517
0.0585839144277
0.0580687842302
0.0568256649416
0.0585926988416
0.0629676386773
0.0643693112656
0.0391706011201
0.0448742369745
0.0480094801957
0.0542817416718
0.0579730322544
0.0566364439186
0.0561931064052
0.0592438047303
0.0626446982692
0.0640574529886
0.0396807133608
0.0449129317047
0.0510549571764
0.0563233605138
0.0569335217126
0.055552423455
0.0567465695034
0.0598486382675
0.0619229805669
0.0640093431347
0.045390466982
0.052884188633
0.0584353667168
0.0586899939961
0.0586123020912
0.0595867536853
0.0614360582162
0.0624607424555
0.0628756309548
0.0586729927984
0.060129519692
0.0597217940938
0.0606470387229
0.0624383545105
0.0635228290125
0.0633053516623
0.0609262601375
0.0631364193655
0.0639916602475
5.84918107747e-05
1.65769809232e-05
7.07821300536e-06
-2.98953639006e-24
2.26724796322e-06
1.07781347161e-06
6.40428910397e-07
1.15447421092e-06
3.00330102658e-25
8.7994267785e-05
6.76575798546e-05
8.27974740759e-05
7.24016102564e-05
-2.23988954972e-24
-7.87644209499e-27
1.15398887994e-05
1.47195946316e-05
7.34683969264e-39
-9.34037232327e-28
5.21636420819e-05
5.4662014474e-05
6.52846187661e-06
-7.64963661129e-31
-4.08741137097e-33
-1.5893998938e-26
3.65047008345e-07
5.39961688519e-05
-1.03404738727e-23
-1.38762180939e-26
3.9288059029e-05
5.28146923145e-06
-4.58649981863e-29
-3.72604299174e-27
-1.02183052735e-27
9.98255836726e-07
7.38802843225e-05
-3.95336387084e-24
-6.53939060818e-28
3.82205584365e-05
1.65933428542e-06
1.55575905196e-05
7.88627954851e-05
5.14591047622e-07
-8.30733088099e-26
-1.26801223013e-26
5.47001535307e-05
-2.16213014886e-27
-4.20580808212e-26
9.33338400543e-05
0.999973658774
0.999997624113
0.999995744923
0.999927988201
0.999820623999
0.999970807443
0.999926955578
0.999962990818
0.999996534626
0.999997188312
0.999888955151
0.999967344353
0.999931085718
0.999958601965
0.9999959968
0.999995717222
0.999995953489
0.999993644911
0.999985555976
0.999995225027
0.999993456769
0.999997182904
0.999995986194
0.999990663264
0.99998517143
0.999988835975
0.999991595216
0.99998224583
0.999784397329
0.999932604213
0.999784678983
0.99987015161
0.999784678983
0.999850635494
0.999784397329
0.999982987047
0.999847743495
0.999958000106
0.999868277413
0.999976126364
0.999827255116
0.999952613442
0.999951741572
0.999993477937
0.999991727605
0.999972155412
0.99983759696
0.99998689199
0.999974217699
0.999894825106
0.999978188268
0.99994793387
0.9998158308
0.999895281356
0.999924548518
0.999929079875
0.999784397329
0.999912181718
0.999791546742
0.999912606374
0.999882335083
0.999936322352
0.999899493426
0.999988299753
0.999887206621
0.999980015257
0.999952744414
0.999995432583
0.999948092071
0.999994046519
0.999884986466
0.999991355655
0.999978053621
0.999984020187
0.999962779056
1.00000015271
1.00000021979
0.999931376956
0.999965095759
0.999969939648
0.99996440527
0.999982438751
0.999999442829
0.999999456799
1.00002946029
1.00001100097
0.850426251476
0.853216986221
0.999979146073
1.00000341128
0.99999679176
0.848607648887
0.850749122488
0.851397844135
0.856581510908
0.999993069717
0.999999679873
1.00000386522
0.85288155202
0.860777108993
0.858216121814
0.863162372267
0.999998264686
0.999999939658
0.999995764717
0.864111068177
0.867562607371
0.865486573212
0.868469779186
0.999997332644
0.99999835927
1.00000432036
0.868820477082
0.87028648926
0.869597332058
0.872427951454
1.00001410428
1.0000134538
1.00002184062
0.872201663753
0.876525835685
0.873761771083
0.875243041226
1.00002854792
1.00002657356
1.00003183057
0.874562446571
0.861542183083
0.872515057981
0.856270969045
1.00001533288
1.00003095997
1.00002316046
0.858365053555
0.851703142182
0.852475267945
0.839329154504
0.999953193667
1
0.999957557114
0.852915260688
0.807170125602
0.842802953983
0.834130747963
1.00000001454
0.999998947297
0.936331066718
0.88935552517
0.928371602762
0.890271293534
1
0.999992509437
0.999986664651
0.875882645745
0.855376086312
0.878224238557
0.856939828013
1.00000148813
0.999992032974
0.999992939808
0.853636757736
0.858108220951
0.856629706632
0.858798891244
1.0000011591
0.999994368662
0.999995563073
0.859132752304
0.863277171363
0.860308207095
0.867443923118
0.999997442865
0.999994753684
0.99999671529
0.865610729522
0.869088162247
0.869882982401
0.875447659157
0.999998128933
0.999999354281
1.000001419
0.870560659892
0.874608788806
0.876915768541
0.880213147402
0.9999986705
1.00000200648
0.999999997597
0.875502332358
0.874214368627
0.879691268792
0.868566864791
0.999995594595
0.99999950175
0.999996429011
0.870501104936
0.854262179602
0.862657423302
0.849948917354
0.999990818471
0.999997228271
0.999993822253
0.850900488575
0.839097309788
0.849419932517
0.842145876158
0.999964825181
0.999981035717
0.999982739786
0.843250891029
0.838591659124
0.845729253755
0.844166451117
0.999994579126
0.999998602518
0.999992787324
0.925845653919
0.887893611857
0.919205128341
0.877245006957
0.999990049628
0.999989424743
0.999982643518
0.876399748961
0.857171976139
0.868272203168
0.858155409704
0.999996623253
0.999991071551
0.999996978537
0.85749635916
0.85948113624
0.857302684705
0.861590776042
0.999996723568
0.999999811991
1.0000012722
0.86110384221
0.868105004835
0.862969781749
0.868437020346
0.999999413232
0.999999530472
1.00000171044
0.870364625623
0.876437407118
0.87028065111
0.874750657154
0.999999870308
1.00000001688
0.999999799447
0.877745811491
0.878934682166
0.874667484062
0.868275835949
0.999996219962
0.999998829192
0.999994579055
0.877164407713
0.864949839394
0.86354980025
0.852004641465
0.999994584165
0.99999557966
0.999994425422
0.859593335327
0.849981603546
0.850344360395
0.849335406739
0.999993470424
0.999996211264
0.999995062636
0.849737267525
0.843614566219
0.84961504348
0.849671644348
0.999994138742
0.999993048319
0.999996376919
0.847002337628
0.84611825485
0.854511784492
0.850440002665
0.917334995261
0.877538570362
0.999991194501
0.999986371226
0.86877398825
0.859204640083
0.863247004209
0.99999380677
0.999990876306
0.99999527549
0.858099840513
0.861312284606
0.861358666514
0.861450731499
0.999995924823
0.999994480379
0.999995517472
0.862365629148
0.866841491087
0.861674069499
0.863068542099
0.999995407093
0.999992592627
0.999994481309
0.868502569848
0.87133755749
0.863698729057
0.8610269704
0.999992746646
0.999992232758
0.999990113292
0.870440515669
0.862335004951
0.858042945162
0.849469574471
0.999988393844
0.999987823123
0.999985934922
0.858303739263
0.850909598406
0.849430075523
0.849517345002
0.999990522927
0.99998775379
0.999988903809
0.849667634436
0.848940840887
0.848451656805
0.847722340722
0.999992954155
0.999992397202
0.999994025706
0.849411539022
0.850823946022
0.848604711855
0.851534955895
0.999994926281
0.999993687123
0.999996443321
0.85591695908
0.851278232168
0.856606854746
0.851367914966
0.999990152548
0.999995238994
0.862965290982
0.864006498801
0.870952178483
0.999988286812
0.999989811812
0.999987853739
0.864200642329
0.86080844188
0.870517264548
0.865740062687
0.999984700294
0.999985414166
0.999984095386
0.858250203907
0.852232902953
0.864267873846
0.858617041891
0.999984399957
0.999984666375
0.999985807257
0.851589499816
0.849019623762
0.856416342742
0.853195625575
0.999986613475
0.999989609488
0.999992124377
0.848153403639
0.847794697
0.852632073034
0.851088696699
0.999989645386
0.999993593304
0.999993702459
0.848554225829
0.851572261282
0.851057515069
0.851603762384
0.999993085455
0.999992497272
0.999996073222
0.856433704952
0.851707396317
0.855517464719
0.848347270844
0.999996869303
0.854492309016
0.999999565678
0.854152348781
0.852729059349
0.999992880401
0.852145205345
0.850718471465
0.999993531029
0.854350979497
0.847238994872
0.000767852711514
0.000964562056196
0.000701422648819
0.00100923498438
0.0478126707212
0.047624928376
0.000707434621728
0.000636236181569
0.000711741091031
0.000682619738612
0.051273302038
0.0484590150179
0.0506875901937
0.000576872325972
0.000488681656341
0.000658184314183
0.000514323594941
0.0578473434198
0.053808672665
0.0573818110421
0.000265670665077
0.000163094420676
0.000227993541505
0.000134612439014
0.0586191581786
0.0582905751299
0.058357187549
0.000163471972832
0.000162924339971
0.000115400627203
9.66016567126e-05
0.0578362075947
0.0576271612536
0.0574051331016
3.71378831855e-05
1.10340013037e-05
0.000108316557671
3.73967186113e-05
0.0572580196536
0.0567884392485
0.0575048016786
1.54909475078e-05
0.000164404117119
2.68267847218e-05
0.000161845774924
0.0606596609967
0.0590295167156
0.0610938619802
0.000454026260049
0.000696708950324
0.000421760824544
0.000711324324413
0.0646832569925
0.0630098321123
0.0649400854638
0.000563622711113
0.000544701406264
0.000577306550643
0.000583944838382
0.064877434409
0.0638483372392
0.0673121316766
0.000818512412849
0.00210489900761
0.000903669619196
0.00130894561574
0.0422425236499
0.0393508352027
0.0419284551698
0.00060370806813
0.00115631974996
0.000557450311074
0.00111070929328
0.0468367086395
0.0445378208608
0.0470076807584
0.00104009500915
0.0011867534841
0.00100177137664
0.00104625997944
0.0507760483897
0.0493339954203
0.0522458390731
0.0013665864941
0.000857591762879
0.00098888290634
0.000595419477777
0.0574306595239
0.0552582915228
0.0574349988244
0.000161570168559
8.23587888252e-05
0.000162473182585
8.49212709537e-05
0.0576864337366
0.0573731336109
0.0566545931923
6.08586773578e-05
3.59888495377e-05
6.00822517956e-05
3.14827137426e-05
0.0562452960493
0.0557149326491
0.0552466373576
9.58671382347e-05
0.000160247753327
5.18778042541e-05
0.000100061180124
0.0575114602535
0.0557059676122
0.0574390580801
9.88419038979e-05
0.000262109925204
0.000279314006299
0.000544338535056
0.0611723024155
0.0594685673792
0.0611438086262
0.000526018696588
0.000684987243977
0.000639661496464
0.000647140459463
0.064670488914
0.0621564585918
0.06398889907
0.000564904584353
0.000554164507055
0.000506610909688
0.000509331065566
0.067967289759
0.0641579826866
0.067591827855
0.000828504575998
0.000827541490459
0.000701863830981
0.000745057505335
0.0420745600973
0.0397536494611
0.0422527345992
0.00052051067236
0.000935208006582
0.000496777441126
0.000894736675163
0.0476325280113
0.0452998710239
0.0483535406788
0.000669606170096
0.000634052051369
0.00064864584121
0.000591993847298
0.0539169270909
0.0521459172776
0.0548445007659
0.000467843525586
0.000305164387095
0.000385308596366
0.000249542094726
0.057007200136
0.0573527987661
0.0575016130542
0.000205830907011
0.000121254928244
0.000211838408581
0.00014591419298
0.0561304061472
0.057353808123
0.0567194096234
7.89442728614e-05
3.57608234766e-05
0.000113352462972
6.81690184118e-05
0.0557756303664
0.0567201164777
0.0574593109378
3.48186114907e-05
7.06030970435e-05
0.000115930344158
0.000215921369924
0.0578249408093
0.0582870494386
0.0588030054905
0.000327374833266
0.000922059680221
0.000632465822842
0.00121473580538
0.0611990869413
0.0605563418896
0.0615348261009
0.000662602445097
0.000600390782862
0.000691173458534
0.000585483611872
0.063482943359
0.0621017895404
0.0631208981462
0.00049890167419
0.000507226728003
0.000524883505527
0.000509299073872
0.066631709979
0.0631479980974
0.065568035415
0.000601699927287
0.000600728690658
0.000513457103008
0.000533095643069
0.0488575758503
0.0482142929342
0.000610688969125
0.000529319499413
0.000477830307205
0.0560226379725
0.0525833346358
0.0563744697704
0.000355971143162
0.000247039948454
0.000324155323151
0.00024165743549
0.0588226315927
0.059222449173
0.060082776995
0.000218892251414
0.000166993819808
0.000232787855424
0.000197517175814
0.0585269708809
0.060172396558
0.060254123681
0.000144291229288
0.000147433013792
0.000214567545921
0.000286570700363
0.0591955061231
0.0603716077369
0.0609858838461
0.000236093894557
0.000387381942887
0.000424919787084
0.000568593399742
0.0599639628849
0.0604713761898
0.0607714592594
0.000962097684888
0.0013410901072
0.00123704186444
0.00127589679948
0.0621099896293
0.0622102952644
0.0627285719965
0.000691490762639
0.000588915206494
0.00068525158687
0.000603156504333
0.0630754892231
0.0629262407452
0.0632572981963
0.000552014909117
0.000523263886298
0.000574379544957
0.000528026721118
0.0650410673818
0.0629573513439
0.0647669338424
0.000530451212146
0.00052229087296
0.000587785832032
0.000649712165727
0.0598541504175
0.0583577320767
0.000279806500507
0.000273581333219
0.000297665102607
0.000306003344537
0.0601434603183
0.0589181565389
0.0589343950812
0.000365366224203
0.000529343943891
0.000467727074917
0.00083565591447
0.0597988953013
0.0580152687225
0.0585299223755
0.000978566180529
0.00126293876878
0.00166190307201
0.00149076468639
0.0615496698033
0.0601548667081
0.0607826005995
0.00092478524757
0.000718412551226
0.000721665036812
0.000580308496217
0.0631164819854
0.0617074362157
0.0628900694809
0.000592768539249
0.000568685099659
0.000506220442378
0.000506741314665
0.0636906108781
0.0635336034959
0.064014567695
0.000548000206419
0.000517698489067
0.000492376606441
0.000537345887782
0.0647118849514
0.0637097749579
0.0647478707181
0.000617447699597
0.000869284449926
0.000689530110213
0.00131385997116
0.0598257013283
0.000428444446558
0.0621683764013
0.000439569065443
0.000453890906207
0.000381532297621
0.000369934626752
0.0643238974205
0.000433501681731
0.000534123510431
0.000378915422611
0.000527682581502
0.0645428238516
0.000804790697492
0.00177378471724
0.000935182044678
0.0020369120219
0.998571453546
0.998405113026
0.854031332561
0.850994373738
0.998449448385
0.854985313296
0.998534153615
0.998510068992
0.998364786193
0.852955096049
0.857465876484
0.998381016811
0.998510880324
0.856144893313
0.998386602223
0.998310474325
0.846713338461
0.848874094684
0.99834307964
0.847891973745
0.998340288126
0.998440099678
0.998463081373
0.847799370702
0.852466337531
0.998504797025
0.849467745821
0.998373279966
0.998358970002
0.998247318936
0.850948209833
0.852478709364
0.998291124806
0.998327078859
0.849900013044
0.998455257034
0.998579470991
0.854857535456
0.854330598893
0.998563432257
0.998445676515
0.851627624387
0.998769518212
0.998602758442
0.854993055759
0.854373342422
0.998627539058
0.856192716265
0.998751643832
0.998884421231
0.998886823521
0.856989574116
0.861420534438
0.998955833479
0.857965838297
0.998822841635
0.998830397372
0.998699903203
0.856475228571
0.859781043643
0.998698009985
0.998850844623
0.857635853307
0.998911937817
0.998938635614
0.861919830139
0.860972529155
0.998961527211
0.998915327931
0.85890789751
0.998976619903
0.998942881918
0.866107537221
0.864411429445
0.998988094752
0.866253159663
0.998948886679
0.998927648271
0.99874945724
0.866910445946
0.86763017046
0.998786630147
0.867104718156
0.998900817271
0.998978095424
0.998964907824
0.864707195092
0.867401147322
0.998977840642
0.998968659946
0.866423874216
0.998945140211
0.998838004896
0.867434908104
0.868117818887
0.998837367495
0.998939583984
0.867093891446
0.998472813614
0.998565881589
0.86940295289
0.868625478661
0.998592228589
0.869278039093
0.998465454418
0.998457573506
0.998412766356
0.869724744068
0.870284059803
0.998462942319
0.869723400686
0.998417946288
0.998569090924
0.998701028785
0.868560672859
0.870828447667
0.998680024759
0.99863021247
0.869660466926
0.998526798582
0.998584000431
0.870951259656
0.871705250383
0.998525364702
0.998600123497
0.870343516146
0.998662651338
0.998486796617
0.875409165464
0.871873510443
0.998504133296
0.874748295958
0.998715223258
0.998878695297
0.99890544067
0.876592827091
0.875724459637
0.998905385468
0.875557214668
0.998920773978
0.998651645355
0.99858129654
0.872209804565
0.875909026735
0.998542398675
0.998665630567
0.874638944355
0.998883574704
0.998946932274
0.875510245063
0.875792449747
0.998960254648
0.998887826787
0.875249774509
0.998788767408
0.998839562826
0.871097584454
0.873828151134
0.998863183012
0.870723251714
0.998742859081
0.998686646905
0.998570501685
0.866247257683
0.860530183119
0.998601547574
0.865547501665
0.998659032513
0.998847602234
0.998909125211
0.873322507801
0.868143472691
0.998926465545
0.998808710725
0.869472794895
0.998738265624
0.998550293765
0.858274766346
0.862046293407
0.998625529708
0.998673749201
0.863772628231
0.998341621313
0.99843530021
0.856283314454
0.856962292734
0.998493952733
0.854189505427
0.998391184816
0.998334880934
0.998459566699
0.853503959678
0.847341773156
0.99837969623
0.850212175658
0.998395276747
0.998255859674
0.998381609756
0.854586095318
0.848629044336
0.998470461002
0.998157819891
0.851374925624
0.997912694786
0.997633247036
0.842736761719
0.843617073687
0.997831814594
0.997827331656
0.846467821232
0.997814502827
0.998354892766
0.847425865109
0.848999334069
0.998272260599
0.843413824116
0.997910228817
0.996042112205
0.996302842362
0.824333206713
0.819178422374
0.814722573566
0.996395656986
0.99590967986
0.997135642726
0.997409963016
0.845937786449
0.839809273922
0.997680329032
0.996876809925
0.84117083293
0.995326592042
0.995742199512
0.830468736617
0.813016048095
0.995218366463
0.811093344709
0.995833562161
0.999642350311
0.999845236863
0.922611433707
0.934140064682
0.999676811466
0.920717180467
0.999826954654
0.999422482201
0.999147139979
0.906698944405
0.89051846845
0.999449182015
0.999089072605
0.905903505162
0.999587499217
0.999767611855
0.93125277791
0.916849212669
0.999607291601
0.918948485609
0.999788495239
0.999343831995
0.999103727172
0.890777584195
0.904054035147
0.999003437341
0.999401745367
0.9052712436
0.998494555963
0.998849079678
0.86540032034
0.878119457639
0.99853533635
0.99878275809
0.867243514544
0.998235875792
0.998110998558
0.859931809885
0.856125745704
0.998265016774
0.998099627684
0.86026514414
0.998419384964
0.998803832437
0.878758876682
0.867339419684
0.998702684292
0.998482462013
0.868111228075
0.998183616004
0.998127233065
0.857136302757
0.861066886343
0.998058027826
0.998216712029
0.861247174956
0.998023621757
0.997973547963
0.855166535446
0.85581613869
0.998049083488
0.997978851502
0.856201967622
0.998080617
0.99827768884
0.85690780625
0.858647113686
0.998154923758
0.99815950489
0.85690138255
0.998002496993
0.998009737089
0.856222052196
0.85728284744
0.997947967674
0.998056793016
0.856948847922
0.998064263894
0.998188354902
0.859073329134
0.857772547367
0.99812509265
0.998129160268
0.857790036862
0.998377356195
0.998391053647
0.860299371225
0.859887553219
0.998541562048
0.998260471277
0.861244865721
0.998474507568
0.99862053181
0.861369783366
0.86504345469
0.99860960377
0.99853477386
0.862702123557
0.998277893421
0.998236843531
0.86035527089
0.862899851692
0.998182684697
0.998326238943
0.861932452391
0.998385837698
0.998534034529
0.86571460957
0.865085532748
0.998477012724
0.998438046745
0.863531352392
0.998583490917
0.998635562361
0.867636156041
0.867189623947
0.998655974443
0.998551379484
0.869080425914
0.99861462412
0.998625896498
0.868564333894
0.871157212399
0.998652912187
0.998609489591
0.870279136173
0.998601682507
0.998600097405
0.868110109892
0.872485654246
0.998536668564
0.998664024359
0.870372212491
0.998666651095
0.998763080134
0.873245935234
0.874278288388
0.99870560988
0.99873307703
0.872063401932
0.998564228981
0.998576089894
0.872481609237
0.872583155003
0.998555590832
0.998588048753
0.874436929656
0.998548807571
0.998541355769
0.873756708863
0.877008044616
0.998551269736
0.998554808909
0.876058574886
0.998753955
0.998776274715
0.87476090596
0.878636583267
0.998726391655
0.99880870977
0.876734345103
0.998763911662
0.998831499495
0.878762002596
0.879902295904
0.998767845931
0.998845536337
0.878220644829
0.998531160249
0.998521958253
0.876942717682
0.877414699782
0.998545514051
0.998543139303
0.87815221378
0.998579195323
0.998711792851
0.875852615172
0.873533177346
0.998673002966
0.998579571314
0.876594671204
0.998673980115
0.998772137041
0.87868973655
0.878389891549
0.998735918375
0.998674871201
0.878583850493
0.998625135537
0.998468416962
0.871445981308
0.874255536729
0.99856367941
0.998577685138
0.875578620689
0.99844555541
0.998676276008