/*--------------------------------*- C++ -*----------------------------------*\
| =========                 |                                                 |
| \\      /  F ield         | OpenFOAM: The Open Source CFD Toolbox           |
|  \\    /   O peration     | Version:  v1906                                 |
|   \\  /    A nd           | Web:      www.OpenFOAM.com                      |
|    \\/     M anipulation  |                                                 |
\*---------------------------------------------------------------------------*/
FoamFile
{
    version     2.0;
    format      ascii;
    class       surfaceScalarField;
    location    "9";
    object      alphaPhi0.water;
}
// * * * * * * * * * * * * * * * * * * * * * * * * * * * * * * * * * * * * * //

dimensions      [0 3 -1 0 0 0 0];
oriented        oriented;


internalField   nonuniform List<scalar> 
92311
(
0.203974509586
0.000129678657524
-0.00112347263951
-0.203899920819
0.000919208216652
7.3385037634e-05
0.20397604709
-0.000748581247082
0.000674443040973
0.203945182187
0.000428870191942
-0.00114709685083
-0.203997396494
0.000900281114729
0.000207620461158
0.203924978472
-0.000743686224513
0.000629990007501
0.203721760013
0.000292061064151
0.000255940315425
-0.00107564022705
-0.204059675465
0.00077417260207
0.000277945685946
0.000242370768872
0.000111872242186
1.25941714252e-05
2.42418272996e-05
0.203820856095
-0.000668743937001
0.000513428377118
0.000115166131527
0.0510476457236
0.000118133665383
0.000120194122999
0.000119766813917
0.000119851589776
-0.000383707758064
-0.051150529177
0.000300666213424
-0.0509938443711
0.0509439359338
4.37055027863e-05
6.45251603154e-05
6.49721973962e-05
3.80965602424e-05
-0.000253966093134
0.000204356767132
-0.000119146580108
0.00027180527014
-9.94992216804e-05
-0.000102431566602
-9.38129636285e-05
0.00010551397529
-2.85804482996e-05
-1.37585067131e-05
0.000107407146603
-0.000247887781472
0.000187141548286
-1.02642604489e-06
-3.42219476151e-05
1.05923525616e-05
9.60345510465e-06
7.80338095592e-06
6.37582444199e-06
0.000118876802618
1.88624204553e-27
-1.39342360624e-07
-2.99107246067e-07
3.66303363353e-08
-8.59089686566e-07
2.28879640065e-06
4.0306596746e-08
1.54821217282e-07
0.000103687969799
8.53318453252e-05
8.61308552051e-05
9.90905693606e-05
-0.000287521742098
0.000222982110712
-0.000162835773596
0.0103542688935
7.43769158078e-06
-4.86153671171e-07
-0.0103604568838
0.0103626533286
5.89514052568e-05
-9.93270773289e-05
-0.0103682996524
3.40630409519e-05
-1.57150902302e-05
0.000156758338588
6.34121947873e-06
0.0509486663253
-7.56547023986e-07
3.04694723816e-05
2.32765537804e-05
-0.000208343727148
1.65145341041e-05
0.0509069409707
2.1444847954e-05
3.81677372904e-05
3.67811443098e-05
-0.0509166811668
7.77258900294e-05
1.46414671927e-05
-8.23535509467e-05
0.0103791409522
3.24599025641e-05
-9.08390684003e-06
3.8400065221e-05
0.0126792979224
-4.68522715384e-05
1.08161655778e-05
-0.0126763870565
0.0126735286721
2.80845185256e-05
2.22551071559e-05
-0.0126698164974
-5.44876698908e-05
0.204318207926
-0.00198313968831
0.0016935091582
-0.203975078847
0.204017176003
2.36469834657e-05
-0.000237545953957
0.000172455121325
-2.10921892541e-05
0.204120593401
-0.000115158007554
3.25728692131e-05
0.000109917822414
0.204440272141
-0.00205738008832
0.00176736094623
-0.204314745207
0.204065309968
3.5474742219e-05
-0.000379774644545
0.000227651302184
-6.48406078856e-06
0.204215415617
-0.000151575041997
-1.33826379871e-05
0.000126573277883
0.000287056453069
0.000300955436325
-0.00211454701477
0.204598152228
0.00179067026988
-0.20501876244
0.000139770455525
-3.02502720499e-05
-5.91063143144e-05
-3.66091960034e-05
-7.65082723977e-05
0.204201238099
-0.000313398390481
0.000170829958145
0.0514647821699
6.96766895592e-05
2.65573471773e-05
6.46161030273e-05
3.12578536088e-05
-0.000605205506277
-0.0515366441995
0.00061145720462
0.0510121776871
0.00010575432875
-4.86996802856e-07
-3.32244544626e-06
-1.25836670991e-05
-1.55554074684e-05
-0.000167599500559
0.000107538758371
-2.98211771892e-07
-0.000404284187662
1.12387947093e-05
1.11492136535e-05
1.10930480101e-05
1.19569398685e-05
4.75321478559e-05
1.18610416543e-06
4.51538904385e-08
1.26942368332e-06
4.10247182e-30
3.53358976138e-08
3.66537292925e-07
-6.60713273992e-08
4.30088967536e-08
2.3580162066e-09
0
0
0
3.14254502038e-28
0
-2.3580162066e-09
0.00049148507731
8.51658484987e-05
0.00011453507077
8.10193459819e-05
0.000117666490008
0.0513318472292
-0.00046988549611
0.000114086947067
0.000140072783477
9.81038080931e-05
0.00012642541906
0.0512475708119
0.000438415672659
-0.0513723727777
9.33418265417e-05
-3.47457323743e-05
0.0102689565669
8.9495540011e-06
-3.68449005602e-05
-0.0103352629163
0.000136363652255
-0.000139727488
-0.010202824076
1.77188869197e-05
-4.43541320112e-05
0.0101864970578
0.000155614216204
0.0127886270179
-0.000131614959312
0.000119004281405
-0.0128183286112
5.00447504665e-05
-1.33904794373e-05
-2.02481955269e-05
-1.49674248572e-05
-2.03638017013e-05
0.0510941288393
-0.00012209877706
0.0509574460762
6.16814054048e-06
-1.71574390652e-05
1.06764645635e-05
-1.57885537977e-05
3.46572744254e-05
-2.27739741911e-05
-3.46257012477e-05
-1.93509176851e-05
-2.66450988994e-05
0.0510525001502
-1.82134972298e-05
2.6874303267e-05
-4.06293693298e-05
2.33713031679e-06
0.0126892892243
-7.39634655711e-06
9.49636015782e-06
-0.0103162949388
-6.68868319829e-05
0.0102977781236
9.64800870013e-05
1.63763534089e-05
7.49019331211e-06
0.0126818260735
-0.0126871085342
-3.32404690227e-05
0.0127098053823
7.97754195896e-07
-1.3493662303e-05
0.000276464483307
-7.12860893822e-05
-5.27384412767e-05
-6.71648567382e-05
0.000145532491755
0.000153180049231
-9.50051584862e-06
-5.5257832603e-07
2.88477611642e-06
7.62708155824e-07
-1.13406607447e-05
-7.91007779051e-06
0.00041242782588
0.000331639206046
-0.000514444631781
-2.74149432243e-06
-3.99707477534e-06
3.80698882627e-06
1.01750404818e-06
5.21722977113e-06
-5.64379474573e-06
-3.1364517215e-06
-2.83999559891e-06
1.05242412551e-06
-6.07655663448e-06
1.07025542396e-06
0.000153223083489
0.000191958171384
-4.27646506978e-06
3.86202536792e-06
6.17970962021e-06
7.821995011e-05
0.012724480865
-9.35075680301e-05
-0.0127542075866
-0.0127214704663
0.000145086676181
-7.05358660432e-05
0.01270565219
6.10477897305e-05
1.86594381378e-05
-0.000148140685056
0.0103586358066
-8.33755131775e-06
-0.000158072264362
0.0104142843042
-0.0104131752391
2.78468977996e-05
-0.0127483777016
6.65820221724e-05
0.0104081435169
3.85615058424e-05
0.0127073810416
-8.2152269244e-05
0.0126906577319
0.000126809681607
-6.13937243777e-05
5.27377639041e-05
6.29314302672e-05
-0.0126919035185
0.0126861193102
-7.14968223705e-05
2.56604936138e-05
-0.000123988169016
-1.13852226024e-05
-9.4212627394e-05
-0.0104138569897
0.0104090283281
6.07689093533e-05
0.0126868977977
5.80635908022e-05
4.92221415779e-05
-7.12563174194e-05
-0.0126764395265
4.89158580394e-05
-5.72574930925e-05
0.0126745212976
5.33158433726e-05
5.57698495111e-05
0.0126752296418
-6.3101180581e-05
3.35898931478e-05
-4.31512665336e-05
0.0103714767882
-2.39356393014e-06
-7.88434315088e-05
0.0104271676278
6.68231684216e-05
5.18194823665e-05
0.0104156970943
7.46759824137e-05
0.0126745568847
-6.23836981904e-05
5.21857360137e-06
-0.0126786655049
0.0126812899129
-5.63641582278e-05
1.52239033864e-05
-0.0103712793974
0.0103649351049
1.75400662051e-05
-0.0104055721411
5.47968325634e-05
0.0103916717895
3.54107500077e-05
-5.30270207202e-05
4.53037515542e-05
2.46034205648e-05
-2.66610104625e-05
6.12644516212e-06
6.50902904249e-05
-6.15644182171e-05
3.13508451357e-05
-0.0126631184568
0.0126655901938
1.45804902882e-05
8.21441409409e-05
-0.0104697927928
0.0104572051549
-0.0105073280364
0.010492720783
0.000114228245962
3.17486379354e-05
5.51524277504e-05
-0.0126741075475
-5.87755913693e-05
-8.76674380975e-05
-0.0105062282258
0.000115516043634
-0.0126718650431
1.77236780188e-05
-0.0104688614127
-9.70645238159e-06
0.000151732938417
-0.000134290014277
-0.000149259385228
-0.000140360635051
-0.000134708112599
-0.000205547079348
0.000604836545368
-3.75284382818e-05
-7.64073835687e-06
7.14092082343e-07
1.11675072295e-05
-3.58152467607e-07
-0.000922441042339
-1.00638857349e-05
-0.000108027972951
-9.26652480712e-05
-0.000103462819828
0.000134046653482
-7.08091318532e-05
0.00121433445638
-7.96816845696e-06
-0.000124959820754
-0.000133545370634
-0.000123814782238
-0.000562586008195
0.000250581289509
5.90384471289e-07
-4.44464167823e-06
1.29858371308e-06
8.81954342798e-06
-3.71182028133e-06
1.12455999371e-06
-6.49650454483e-08
0.000249763611311
9.15243467189e-06
6.43580897369e-06
1.01302948447e-05
1.27506914383e-05
0.000259554322214
-4.88992792089e-07
-6.4444702896e-06
7.31025149868e-07
-6.80830307532e-06
9.16334895524e-07
6.95373633441e-07
3.97539940793e-05
1.39398268546e-05
1.46833954429e-05
1.17601704831e-05
1.30497994677e-05
5.38856406282e-05
0.000124386266621
-4.07780169205e-07
-6.79000375589e-06
1.39436071895e-06
8.92549906388e-07
7.97956323345e-06
9.34268367609e-06
9.66621508657e-06
-0.000458729104902
6.31842856449e-05
-6.32422012663e-06
9.49593447202e-07
-0.000138398608278
-0.0128665870597
9.00860220948e-05
0.012833485799
0.000150420160192
0.0128793139144
0.000149065474125
-0.000136328686327
-0.012901310745
-8.57686272781e-05
1.06505782907e-05
0.0102412944689
-3.93316020354e-05
-4.32217926872e-05
0.0102899148112
-0.0103564412891
-1.0537194548e-05
0.0128456197609
-0.000126506791969
-0.012892667416
0.000162114569763
0.0102623824376
-8.7544164839e-06
-0.000128563218764
0.0128032140165
0.000104744623794
0.000138806496675
-0.0128165701273
0.000114713802519
-0.000106991231228
0.0127833362141
-9.96499798857e-05
1.46931391556e-05
-4.08324623954e-05
-0.000140423344017
-0.0102253566185
-3.43465313306e-06
0.0102053633607
-0.000118498154575
0.000123665975138
0.0127713166121
-5.51503325872e-06
0.0103231066062
1.65201069084e-05
-1.59151749254e-05
-0.0103398344965
-0.000181414932996
1.14820314671e-05
0.0103045126582
-9.88554444922e-06
-0.000116299668358
0.0127590497429
0.000104016778464
0.0127974707469
0.000134605560236
-0.0128271746401
-0.00016241589801
-0.0102680426502
0.0102524685362
0.012768523906
-0.0102959160898
-2.10222299785e-07
0.0126930679495
-5.61848060758e-05
-6.47992482876e-06
0.0103561683044
3.94435999314e-05
0.0103838669125
3.09211848834e-05
-3.56565911886e-05
-1.18765183976e-05
0.0127027169243
2.08956507558e-05
9.24942830092e-06
-2.680682042e-05
0.0103377887232
6.101539833e-05
0.0127031695145
-5.28290299974e-05
0.010367158702
9.35267568149e-06
-2.84942549412e-05
0.0127183731416
-1.37936581895e-05
1.28473084912e-05
-0.0127179087914
2.68153953023e-05
0.0127305322731
-4.99799750991e-05
9.55201900311e-06
-4.62302800018e-05
7.90546621241e-05
1.39069571124e-05
-0.0103432809086
-3.41365340885e-05
0.0103166164436
-4.92065491967e-05
8.18844707434e-06
0.0127306863827
-1.15650705972e-05
-0.012673541007
-1.78686356768e-05
-9.59623856725e-06
-4.0338761505e-06
1.36019283904e-05
4.43221572276e-06
6.40700714426e-05
0.0104426979684
0.0104768658403
9.5201248743e-05
-4.58249101047e-05
0.0104485521311
7.55300084359e-05
-1.89915283365e-05
0.012695636463
0.0104120199691
0.0104154163894
-2.31719196522e-05
5.12553494316e-05
4.16043702677e-05
1.14737169472e-06
0.0103744105249
2.67193683621e-05
8.18595511778e-06
0.0127273985585
-1.906301519e-05
0.0127148880922
-2.55573099304e-05
2.47458732517e-05
-0.0103764805502
0.010342386405
0.0127291588747
-5.1680485712e-05
-4.89393832864e-05
-1.5593875748e-05
-4.91125702726e-05
0.204528165186
-3.91523059625e-05
-0.000129093980536
3.83322227567e-05
-5.3112950512e-06
-1.43679177394e-05
-1.36645882251e-05
-1.11663115063e-05
-0.000107086342215
0.051155764192
6.33915101442e-06
-0.000167657504267
2.1506612924e-06
6.47905954176e-06
6.74475345264e-06
5.89703417069e-06
0.000120619774887
-0.000463136407676
0
0
0
0
1.46862198519e-29
0
1.32862707338e-27
0.00011841333887
0.000124309933851
0.000112004182863
0.00012725933643
-0.000297396404087
-0.000435172821471
0.0511143903424
0.000123037842336
-0.000167986417651
-5.77895530388e-07
0.0103003507748
0.0511306554613
-4.12044716632e-06
-2.41912643506e-05
-1.44979300442e-05
-1.48225136104e-05
-3.11984661218e-05
0.0511423180516
5.53993387769e-06
1.12318399487e-05
1.78822561621e-05
-3.98190257354e-06
-2.0969000036e-05
-3.6995339734e-05
7.11420533535e-06
0.0102798525778
-8.10586697914e-05
0.000110043723277
-1.08385910476e-05
3.4366193742e-05
1.71076002671e-05
0.0103308213275
1.12714491122e-05
0.0102781515881
4.17885797669e-07
-2.68464217142e-05
4.55487176082e-05
-0.0102868580564
-2.33727951001e-05
0.0511148104412
2.4492235646e-05
1.59644620668e-05
1.92343110372e-05
2.41968880567e-05
-1.14836618057e-05
-1.70645795203e-06
-4.32959766449e-05
2.4204448544e-05
2.93658702343e-05
2.89388920163e-05
2.31511280967e-05
-2.56527361935e-05
3.83654812932e-05
0.051059524009
-6.32310896124e-05
1.99253349158e-05
-3.84571682163e-05
5.55602389056e-05
0.0102586630638
-3.48923934839e-05
2.58267129777e-05
-4.89753502021e-05
8.11160071005e-05
-0.0102306894828
0.0102124328439
-6.67433586572e-05
-0.000115852238878
-0.000106242992676
-0.000101597196496
0.000304803597884
5.25349685747e-05
-6.22138101405e-06
-0.000107248178687
1.53236444993e-06
7.71993673759e-06
9.17704150632e-06
5.67205365996e-06
-4.63593428099e-05
1.4545067665e-06
-0.000215634683157
-3.58686420367e-07
2.77523973477e-06
2.13919987994e-06
0.000300634672002
-0.000223610392045
6.23913670762e-07
-1.38518693106e-07
-3.98293346433e-06
-4.28021034174e-06
6.2265370195e-07
3.98718451337e-07
-1.87601591992e-06
9.22073500651e-08
-0.000274452025273
-1.33676295372e-05
-1.79764192843e-05
-1.19585378566e-05
0.000355403691604
-4.92170802112e-07
-0.000268460319627
-1.10317478144e-05
-1.52575374149e-05
-8.9040791801e-06
0.000299951611888
-1.37152412813e-06
-0.000275950262525
-0.000219352260447
-0.0127330632212
0.000145771735864
8.8972753843e-05
-9.72218053993e-05
0.0127132725451
-0.000104609715422
0.0127259985443
-0.000154350059155
0.0102512303455
-6.09835064296e-06
-4.54971231107e-06
-0.000152765168869
0.0103042561186
-0.00011216345972
-6.48187790885e-06
0.0102584179599
0.0127067212193
-2.59080621837e-05
-0.0127452281086
8.9017521125e-06
5.28619067847e-06
0.0127524737708
0.0127451287334
2.79104743954e-05
-4.93400828286e-05
2.45661726387e-06
-9.20734017935e-05
0.000120931938193
0.0102651961337
4.03553692546e-06
0.0102958967965
-4.76337532612e-05
-4.27407760027e-05
0.0127516733652
6.62684859681e-06
-5.84127028243e-05
0.01028582794
-0.0127452195633
4.74493836514e-06
-8.36466002505e-06
0.0127504494698
1.08640910533e-05
0.0127489342716
-2.19542531684e-05
1.27312999432e-05
0.0103173359297
3.16517913104e-05
8.30915854803e-06
0.0103065938008
-2.94253732342e-06
0.0103063724131
0.0127529864219
-1.85604854756e-05
0.0127524576795
1.44553442716e-05
-5.37876459084e-06
-4.95908238682e-06
3.6323982075e-06
-0.0127559690779
0.0127500145865
-1.28187167221e-05
-3.13763501738e-05
-0.0102934729311
0.0102821287562
7.31557937094e-05
4.06405445381e-05
-2.00179452406e-06
-1.79090103686e-05
0.0127475581827
-4.53780402071e-06
6.63778981381e-05
-1.38409281657e-05
-0.0127358322873
3.57249392853e-05
-1.11350838832e-08
0.0127272272676
-2.87229615834e-06
1.75778095282e-06
0.0127350635153
-9.43040504385e-06
-3.52631689859e-05
0.0102623041483
8.04608295673e-05
6.17324330219e-05
-4.17447484178e-05
0.0102440998878
-4.10947449031e-05
-2.62429294112e-06
0.0102476208357
8.44134921311e-05
0.0127240284238
-6.82125576434e-06
0.0127164834486
3.25572276319e-05
-3.53190932247e-06
5.12313308791e-06
4.01598094023e-06
-0.0127129929947
0.0126966199739
-8.9365594396e-06
-3.88919933919e-05
-0.0102319578183
0.000103870818035
0.0102141989887
7.07672712034e-05
-3.87834867676e-05
-5.27224563778e-05
8.14012258101e-06
0.0127006514958
9.30256099499e-05
-8.87943758487e-06
-0.000519790398044
-0.0495465784547
0.0493705854607
0.000598500772976
6.6262763129e-05
5.28479029997e-05
7.42944207364e-05
4.93472976253e-05
-0.000145692926595
-0.000583412929692
0.0498073808894
7.06875787216e-06
1.13749160835e-05
1.83157529785e-05
3.25125535384e-06
7.36475749273e-05
-0.0498701264023
0.0005325010822
-0.000891860398622
-0.0498196788006
0.0499386067646
0.000780989714684
-0.000100088078311
-5.64392392644e-05
-8.09443927211e-05
-7.48438086736e-05
0.000304163378817
-0.000732831260524
-0.000147150821615
-0.000120517929449
-0.000144676129537
-0.000119693958906
0.000409417449578
0.0501995707397
0.000713378798065
-0.0500574996249
-6.54251460344e-05
-8.91381556036e-05
-0.000328381133583
0.000446088828315
0.000167350397296
-2.07392299417e-07
-7.14518111858e-05
-5.90079478374e-05
-6.2186208177e-05
-4.42562155821e-05
-0.000530618138992
0.00045021699548
0.00033022731944
2.42479372856e-07
-3.58225120496e-05
-3.92614689022e-05
-2.24991722908e-05
-0.000208296534621
-4.02424672522e-05
-0.000228100416787
0.000221895463512
3.71116831733e-08
-4.09627746449e-05
-2.59317036935e-05
-2.05490099372e-05
-0.000197921497253
0.000220154058975
8.10349643959e-07
-0.000360553112497
-0.000185539206221
5.81203611502e-05
0.000235560453255
6.49431372011e-06
4.22049112379e-06
2.37929375388e-06
6.30241886775e-06
7.05952558437e-06
-1.03343156084e-05
1.15918889379e-05
8.24899346521e-06
1.29182412468e-05
-0.000186855772587
-0.000167324144971
7.734308808e-06
3.28906544018e-05
0
4.76313440545e-28
0
0
0
0
-6.30606463707e-28
6.63655066338e-27
-8.55617935414e-08
-1.84298352221e-09
-1.10706515486e-06
-4.49402898266e-09
-7.55855776323e-07
6.62742238973e-07
2.44973945128e-07
0
-4.53226861085e-09
0
2.93067621915e-09
0
1.6015923917e-09
-1.3934459263e-27
-1.37676374326e-07
8.65275662754e-09
-5.36598502706e-07
-9.00747981646e-08
-8.07086861528e-07
6.51802357807e-07
2.82751901725e-08
2.54872740804e-08
-3.83179873049e-08
-1.85907556056e-07
1.77402192655e-26
-8.27148125239e-09
-9.47737164469e-08
-2.57338991778e-07
-8.14970432461e-07
-4.3690016626e-07
-8.27355636549e-07
6.0554734023e-07
-3.71548752644e-08
0.000200117979051
2.83352190283e-05
4.22338353102e-05
4.48126156962e-05
2.20024863479e-05
0.0492381332204
-4.22557158933e-05
-3.76922688303e-05
-0.0494956901665
0.0492334543865
0.000365571039308
2.81817764826e-05
5.40849570453e-05
4.68803893811e-05
3.26567199122e-05
-4.78013722703e-05
-0.0495128963275
6.69497173388e-05
-4.64830954896e-05
-0.0114808017562
4.90998823224e-06
0.0114473210227
4.65262764115e-06
0.0114691252363
4.65253866747e-05
6.34953151042e-05
-5.59081794473e-05
-3.23771891322e-05
-0.011496204809
8.34096106723e-05
6.71197618521e-05
6.81852105567e-05
8.77471764228e-05
-0.000311314140602
0.0122914498618
0.0122111014033
0.0121820347603
0.0122052284737
-0.000171331279936
6.15927979962e-05
6.30564601889e-05
-7.30893354731e-05
-4.40319975336e-05
0.0114537415973
0.000440595566916
3.18493710474e-05
5.26518493135e-05
3.33026250381e-05
5.03710179812e-05
-0.000135714801788
-0.0496540491003
0.0496994733899
2.68172063472e-05
3.44882392331e-05
4.19366234484e-05
2.03416840042e-05
-0.000122963040877
-0.0497552033268
0.000495752342137
0.0114747062039
6.2047328102e-05
-5.70584642983e-05
-0.0114990206514
5.95420928059e-05
0.0114932590545
4.61826187335e-05
-3.43174602162e-05
-7.16043023211e-05
-0.01151450589
7.53164869299e-05
0.000813713612336
6.10781456749e-05
7.74990238718e-05
6.75890343833e-05
6.85724623014e-05
0.049133924913
-0.000195261016999
-0.000154833226144
-0.000183756772193
-0.000146366648262
-6.02368972046e-05
-3.6463706203e-05
-4.24365206368e-05
-3.25811146076e-05
0.0495653071962
5.20902612547e-05
3.00575921705e-05
3.83560897553e-05
4.10335221105e-05
-1.23884019052e-05
0.0495559958002
0.000729281950329
4.04413120581e-05
2.68082523625e-05
4.14088960907e-05
2.93917932366e-05
-4.44335086044e-05
-7.01213967205e-05
0.0114592410291
7.35958382001e-05
0.0114566267057
6.39984797339e-05
-9.47996015683e-05
-0.0114508185265
0.000132596523466
-0.000118579626357
8.65089211288e-05
4.59516706276e-05
-4.25959895514e-05
-8.71621416718e-05
0.0114830039782
0.0114844746
0.000138125904864
2.99081904069e-05
-4.17101783494e-05
-0.000140037419918
-0.0114810027501
0.0496381841352
-1.70850489707e-05
-1.34449291946e-05
3.25475812604e-06
-3.86784599175e-05
-0.00101562454557
0.0001074289852
0.00113493385572
-8.07086805996e-05
-0.000145497385707
-0.000102768783733
-0.000121617620921
0.0503150747665
0.000117367645813
-0.00147865412096
-7.18399693415e-05
0.0114556447951
0.000153506612395
-0.000136353805423
-1.08745754104e-05
9.73813665637e-05
-0.0114210445302
0.000220279973881
0.0113555315234
-0.000208870395908
0.000149182214999
1.83199446091e-05
-7.42585982683e-06
-0.000157415509537
0.0114717647912
0.000178925664216
-1.80442484144e-05
0.000207459319169
-0.000205657674729
-0.0113827158139
0.0112788705741
0.000644416625666
-1.14052998208e-05
-3.34436459972e-06
2.92209438842e-06
-2.24906798982e-05
0.000106853936054
0.0499617864703
-3.49246057968e-05
-5.76756113706e-05
-4.66860034117e-05
-4.66854425731e-05
0.000178663404498
-0.0499239128964
0.000613726146709
-3.64509626219e-05
0.0114950695118
8.28213081711e-05
-0.0115012148741
0.0114947800471
1.70240408414e-05
-1.69349284438e-05
-0.0114966251915
0.000131884032141
0.0115014673866
-2.99595320951e-06
6.08745857697e-05
-0.000106957555879
-0.0115218771269
9.01404120833e-05
0.000934276685145
-0.000160905495642
-0.000200089038451
-0.000150341991156
-0.000214830376425
0.0503576719686
0.000507776310498
0.0501042103921
-0.000123436554433
-0.000107301137947
-9.75484313208e-05
-0.00013338224576
0.000367416129976
-0.000179067929259
-0.000244751169456
-0.000183375050265
-0.000235863257054
0.0504448766705
0.00083280621003
0.000603973650179
2.32141994127e-05
0.0114803762847
0.000140796944758
-2.06166161689e-05
0.000242407625322
-0.0113519465257
0.000151591617171
0.011237183466
9.14748203415e-05
-5.71803301565e-06
0.000104939162555
-0.000109405332999
0.0114580657134
0.000105015316708
-3.16358885136e-05
0.000317717818259
-0.000110423317546
-0.0112936723339
0.0111562088199
0.000118435507666
0.0114329130428
7.53905243076e-05
-0.0114802155607
0.000305621500732
-0.0112667028427
0.0111312962988
-2.94162289901e-05
9.41525691387e-05
-1.07948260244e-05
-4.96011324206e-05
-6.78749861035e-05
-5.08794042315e-05
0.00032223648466
4.46036774278e-05
-0.000226814455962
-2.26033246125e-07
0.000328124260185
3.97784894169e-05
-5.7558846067e-05
-4.78809725212e-05
-4.30735568806e-05
-0.00024464297056
-2.31357717764e-07
-1.99206508583e-07
-6.09519352471e-05
-7.54134352668e-05
-6.97060946686e-05
-2.0355416112e-05
0.00045707869409
8.41718444311e-08
-2.65695785068e-08
1.94861509015e-07
2.58555766328e-08
-1.10149308558e-07
9.39012944973e-10
7.43117207523e-08
1.05100791587e-07
-7.89282890962e-09
1.00595621534e-07
-3.97818266912e-08
-1.15881667225e-07
9.91220985979e-08
-1.00667284313e-08
1.10680347426e-07
1.20272693613e-07
1.70551728155e-08
1.05832075487e-07
-3.84227475905e-08
6.1379057229e-07
-6.4475410099e-07
-4.45810171833e-06
-3.014571959e-06
2.19411265306e-07
-3.07043202953e-08
9.05232225857e-08
3.85454266255e-08
1.44008108575e-06
-4.95082347886e-06
0.000115325810444
-5.00470576537e-05
-5.78369241224e-05
-4.99971267231e-05
-2.62635502065e-07
-0.00024795954793
0.000273761624992
-6.19814268298e-05
-3.86412806511e-05
-5.48307321381e-05
-0.000198111020476
-2.20086551517e-07
0.000173962767095
0.000240948234979
-9.7314502657e-08
-7.09329610219e-05
-5.93997610418e-05
-6.28966462969e-05
-0.000145146552683
0.00035018559587
-1.37459601062e-07
-5.92182135456e-05
-4.89062764079e-05
-6.30006443708e-05
-3.15415788443e-08
0.000367188140976
0.000302865758877
-5.19742284449e-05
-4.42541069551e-05
-5.80240621751e-05
9.22647638523e-08
-4.27176988333e-08
-1.06825448773e-07
-1.74118015529e-08
9.47503221877e-08
8.7977901113e-08
-4.17999901463e-08
-1.02222932102e-07
8.91776552714e-08
-5.23763818367e-08
0.000372446775972
7.78391416321e-06
2.65271661812e-06
1.41328433017e-05
4.95822576113e-06
7.74483607944e-05
-0.000264113736909
0.000225885480494
3.58540885241e-06
-3.48892098753e-05
1.95482563912e-06
-9.07340018672e-08
7.94522469609e-06
0.000334119770957
1.47158045589e-05
9.57053519625e-06
7.23277172358e-06
-2.48466283954e-05
2.15563941726e-07
-5.45512040697e-08
1.26240409983e-07
2.21610854418e-06
8.96013634115e-07
-2.01873285045e-07
-3.33907979658e-08
2.31368733793e-06
0.000244556620716
2.56525216181e-06
-3.29657143438e-05
-5.13434963233e-07
-1.1656605415e-05
5.56947973987e-06
8.95708302525e-05
1.70619071871e-06
1.46485772822e-06
3.09718416402e-07
-0.000138981013528
5.27145525706e-05
1.02382742272e-07
-9.11169964391e-08
-1.4713944752e-07
-2.31463213952e-07
4.55924071408e-07
8.47715787819e-07
-4.15647269217e-07
-3.22290859091e-07
0.000153110238873
8.45959191192e-06
1.18882413924e-05
2.37014824103e-05
1.34233527578e-05
-8.43557970229e-05
-2.47916822033e-05
8.36362563997e-06
4.5178085831e-06
1.01216786549e-05
8.53964827295e-06
8.9901837305e-06
2.82256716175e-05
1.95871219132e-05
1.6400162166e-05
-0.000155644105514
-7.47903102633e-05
1.51218232238e-06
-2.77330514918e-07
-3.80126305888e-07
2.74167139458e-06
1.7525547449e-06
-4.07907040429e-07
2.71233257045e-06
-6.36745004927e-07
0.0124356403858
2.20776707777e-05
-2.83906048288e-05
4.48878704985e-05
-0.0124449143601
3.72101844767e-05
-0.0124309596627
0.0124032260717
-1.34791940303e-05
5.10987894978e-07
-1.44288547087e-05
6.37229033805e-06
-0.0115210553457
-5.01192792203e-05
-0.0114882127239
1.55363634533e-05
0.0114572302801
5.80703344046e-05
0.0124095498928
8.35373119237e-06
-0.0115239668621
-7.92185598428e-06
-0.012443223579
0.0124417483745
6.5209718194e-05
1.89844251425e-05
-0.0124521831937
-8.06269813035e-05
-0.0124509707644
0.0124347109099
9.50701086248e-05
-4.76053641215e-05
-0.011491805738
0.0114617211346
-2.49447407672e-05
-2.11388383897e-05
3.39869918538e-05
-0.0115331247371
0.0124184887021
8.18737897726e-05
-0.0124590390552
-0.0115282909723
-0.0123915958881
0.000109594440927
9.33018583476e-05
-8.34253430377e-05
0.0123554903128
-8.88357876498e-05
0.0124096634028
0.000107949573323
-7.23337879552e-05
0.0114478857382
-2.59352336391e-05
-9.81775865241e-05
-5.73039391121e-05
7.67118338979e-05
0.0114461270839
-6.60630603962e-05
0.000129935800552
0.0123788134487
-3.60786256227e-05
0.0114410235336
-9.07744874269e-05
0.0124785380926
2.79890758617e-05
9.78212271989e-05
-0.0124809705031
-0.0124658963508
0.000103295554483
0.0124535036066
-2.89785233484e-05
4.60036048373e-05
-0.0115348815137
-5.19425736278e-05
-0.0115013092627
6.96976011228e-05
0.0114787836233
-0.012469590435
0.000110890092912
0.0124697968251
5.51043339541e-05
-0.0115366221234
0.0124911038442
9.78738873543e-05
2.91705434774e-05
-0.0124927756309
-0.000111081057792
-0.0125050483381
0.0125001806954
0.000116665478692
-4.89129689152e-05
-0.0115081685134
0.0114863631957
-1.46950193965e-05
-5.75992298103e-05
-0.0115461477396
6.17475921006e-05
0.0124844718557
-0.012504751619
0.000103941332162
-0.0115413769788
-0.000137643844632
-0.0124468718481
8.27709284953e-05
0.012422255746
0.000145782010205
0.0124285833508
0.00011564671737
-9.62501311693e-05
9.23330659818e-05
0.0114570445762
-6.37324729948e-05
0.0114651690454
8.37220842068e-05
0.0123988626824
0.000124186519044
0.0114657532426
0.000102957129059
-0.000153596989444
0.0123992039698
8.01931417567e-05
0.000157486406679
-0.0123691193154
0.000185940648824
0.0123428391196
-0.000177022462728
-9.01729859809e-05
0.000109675083917
-9.59606364186e-05
-8.18366537752e-05
-0.0114645567981
0.000140372972235
0.0114669822006
-0.000146521820184
0.000190194066137
0.0123815637112
0.000117631632406
-0.0124662878561
0.000141448951092
7.41054344951e-05
0.0124486231107
-0.000121900773576
0.0124837402882
0.000125907674988
-5.88258348561e-05
0.0114740982792
-5.56996681312e-05
-0.0001053216579
0.0114822379296
0.000103813955221
0.0124679705323
0.000142551622452
0.0114731505313
0.0124249101106
0.000149955145272
7.16697004375e-05
-0.000178562395913
-0.01244563656
0.0124370343119
0.000172049085286
-6.71175373928e-05
-0.0114720467287
0.0114742670785
-5.09193971416e-05
-0.000121187481169
0.000119046977251
0.0124106638109
0.000150644613542
-0.000239002738616
-0.0123658630947
2.48713631775e-05
0.0123734291982
0.000241650418918
-3.54428752875e-05
0.0123267088077
0.000201102638533
-5.53778390492e-05
-0.000201545668507
-4.33738877251e-05
0.000175264692577
0.0114324032827
-0.00015854496476
-5.61162441849e-05
0.0114636011871
0.000160512483401
0.0123355764619
-5.06413181868e-05
-0.000240914122934
0.000206221219215
-4.58693413908e-05
0.0114471959882
0.000180290746882
-0.00026372370046
-3.36929423612e-05
0.0124075884763
0.000271146553555
-8.58188594264e-06
-0.0123808746547
0.000297853612949
0.0124804059653
-0.000310190997694
9.68112116696e-06
1.79565386266e-06
0.000195027472326
-0.00017999900675
-0.0114226067985
0.000125316524125
0.000232507046147
0.0113443765706
-0.000273341370534
-3.43015301116e-05
0.000203288426169
0.000302004797096
0.0124985283674
2.98746117789e-05
-0.012394226586
0.000215686096701
-4.70194010994e-06
0.0124072338033
-0.00019319668285
0.0124221573546
0.00018657078739
-3.23322954191e-05
0.011461589552
4.05483483208e-05
-0.000177675002348
0.011446808048
0.000166592485093
0.0124358415603
0.000203358617354
0.0114471750223
0.000244769271574
-8.46113538156e-05
0.012437264068
-0.0124638118205
-0.000271474992865
0.000258642595422
0.012538710444
-0.0113985860015
0.000177214649501
0.0113116374464
0.00012029865331
-0.000188548527785
0.000169376843142
0.000234006390987
0.0125234825322
-0.000131218061948
-0.0125081542392
2.28665485066e-05
0.0124950921336
0.000128439984574
0.0124983370054
0.000116391929207
-0.0125137564652
-4.50265415468e-05
9.85283509751e-05
0.0114970371635
-1.94972330326e-05
0.0115063970121
-0.0115149218257
7.94092892604e-05
0.0124828917932
-0.0125238699675
0.00011585468753
0.0115093101424
9.35995851167e-05
-0.000139300018807
0.0124780382387
8.70871781146e-06
0.000136184222946
-0.0124627570039
0.000156714066054
0.0124574945159
-3.42178318459e-05
0.000112588647336
9.25083483341e-06
-0.0115092811503
0.000120451220173
0.0115067557439
0.000149223669566
0.012472054436
0.000106158244451
0.0124894414913
0.000132370520101
-1.36518741542e-05
-0.0125069877139
-0.000144986841323
-0.0125014710935
0.0124998453786
0.000149742162232