/*--------------------------------*- C++ -*----------------------------------*\
| =========                 |                                                 |
| \\      /  F ield         | OpenFOAM: The Open Source CFD Toolbox           |
|  \\    /   O peration     | Version:  v1906                                 |
|   \\  /    A nd           | Web:      www.OpenFOAM.com                      |
|    \\/     M anipulation  |                                                 |
\*---------------------------------------------------------------------------*/
FoamFile
{
    version     2.0;
    format      ascii;
    class       volVectorField;
    location    "9";
    object      force.turbine;
}
// * * * * * * * * * * * * * * * * * * * * * * * * * * * * * * * * * * * * * //

dimensions      [1 -2 -2 0 0 0 0];


internalField   nonuniform List<vector> 
28582
(
(0 0 0)
(0 0 0)
(0 0 0)
(0 0 0)
(0 0 0)
(0 0 0)
(0 0 0)
(0 0 0)
(0 0 0)
(0 0 0)
(0 0 0)
(0 0 0)
(0 0 0)
(0 0 0)
(0 0 0)
(0 0 0)
(0 0 0)
(0 0 0)
(0 0 0)
(0 0 0)
(0 0 0)
(0 0 0)
(0 0 0)
(0 0 0)
(0 0 0)
(0 0 0)
(0 0 0)
(0 0 0)
(0 0 0)
(0 0 0)
(0 0 0)
(0 0 0)
(0 0 0)
(0 0 0)
(0 0 0)
(0 0 0)
(0 0 0)
(0 0 0)
(0 0 0)
(0 0 0)
(0 0 0)
(0 0 0)
(0 0 0)
(0 0 0)
(0 0 0)
(0 0 0)
(0 0 0)
(0 0 0)
(0 0 0)
(0 0 0)
(0 0 0)
(0 0 0)
(0 0 0)
(0 0 0)
(0 0 0)
(0 0 0)
(0 0 0)
(0 0 0)
(0 0 0)
(0 0 0)
(0 0 0)
(0 0 0)
(0 0 0)
(0 0 0)
(0 0 0)
(0 0 0)
(0 0 0)
(0 0 0)
(0 0 0)
(0 0 0)
(0 0 0)
(0 0 0)
(0 0 0)
(0 0 0)
(0 0 0)
(0 0 0)
(0 0 0)
(0 0 0)
(0 0 0)
(0 0 0)
(0 0 0)
(0 0 0)
(0 0 0)
(0 0 0)
(0 0 0)
(0 0 0)
(0 0 0)
(0 0 0)
(0 0 0)
(0 0 0)
(0 0 0)
(0 0 0)
(0 0 0)
(0 0 0)
(0 0 0)
(0 0 0)
(0 0 0)
(0 0 0)
(0 0 0)
(0 0 0)
(0 0 0)
(0 0 0)
(0 0 0)
(0 0 0)
(0 0 0)
(0 0 0)
(0 0 0)
(0 0 0)
(0 0 0)
(0 0 0)
(0 0 0)
(0 0 0)
(0 0 0)
(0 0 0)
(0 0 0)
(0 0 0)
(0 0 0)
(0 0 0)
(0 0 0)
(0 0 0)
(0 0 0)
(0 0 0)
(0 0 0)
(0 0 0)
(0 0 0)
(0 0 0)
(0 0 0)
(0 0 0)
(0 0 0)
(0 0 0)
(0 0 0)
(0 0 0)
(0 0 0)
(0 0 0)
(0 0 0)
(0 0 0)
(0 0 0)
(0 0 0)
(0 0 0)
(0 0 0)
(0 0 0)
(0 0 0)
(0 0 0)
(0 0 0)
(0 0 0)
(0 0 0)
(0 0 0)
(0 0 0)
(0 0 0)
(0 0 0)
(0 0 0)
(0 0 0)
(0 0 0)
(0 0 0)
(0 0 0)
(0 0 0)
(0 0 0)
(0 0 0)
(0 0 0)
(0 0 0)
(0 0 0)
(0 0 0)
(0 0 0)
(0 0 0)
(0 0 0)
(0 0 0)
(0 0 0)
(0 0 0)
(0 0 0)
(0 0 0)
(0 0 0)
(0 0 0)
(0 0 0)
(0 0 0)
(0 0 0)
(0 0 0)
(0 0 0)
(0 0 0)
(0 0 0)
(0 0 0)
(0 0 0)
(0 0 0)
(0 0 0)
(0 0 0)
(0 0 0)
(0 0 0)
(0 0 0)
(0 0 0)
(0 0 0)
(0 0 0)
(0 0 0)
(0 0 0)
(0 0 0)
(0 0 0)
(0 0 0)
(0 0 0)
(0 0 0)
(0 0 0)
(0 0 0)
(0 0 0)
(0 0 0)
(0 0 0)
(0 0 0)
(0 0 0)
(0 0 0)
(0 0 0)
(0 0 0)
(0 0 0)
(0 0 0)
(0 0 0)
(0 0 0)
(0 0 0)
(0 0 0)
(0 0 0)
(0 0 0)
(0 0 0)
(0 0 0)
(-0.00199993416215 3.32971277612e-05 0)
(0 0 0)
(0 0 0)
(0 0 0)
(0 0 0)
(-2.23513048569e-05 1.20781617987e-07 0)
(0 0 0)
(-2.14416920591e-06 4.45781261198e-09 0)
(0 0 0)
(0 0 0)
(0 0 0)
(0 0 0)
(0 0 0)
(0 0 0)
(0 0 0)
(0 0 0)
(0 0 0)
(0 0 0)
(0 0 0)
(0 0 0)
(-0.0158182563405 0.000475537196058 0)
(0 0 0)
(0 0 0)
(0 0 0)
(-0.0286976447276 0.000604284367082 0)
(0 0 0)
(0 0 0)
(-0.028135394365 0.0008252031733 0)
(-0.126093833755 0.00369829654413 0)
(-0.0829325621908 0.00081266344619 0.000269165381739)
(-1.80383412145 -0.211447282432 0.0737189223392)
(-0.00565993656858 4.74180850903e-05 0)
(-0.0768799692616 0.00161885632105 0)
(0 0 0)
(0 0 0)
(0 0 0)
(0 0 0)
(0 0 0)
(-0.0158181576281 0.000475534228513 0)
(0 0 0)
(0 0 0)
(0 0 0)
(-0.0282068872461 0.000593950519936 0)
(0 0 0)
(0 0 0)
(0 0 0)
(0 0 0)
(0 0 0)
(0 0 0)
(0 0 0)
(0 0 0)
(-1.32720166453e-05 8.89503458369e-08 0)
(0 0 0)
(-8.05700394645e-06 5.39988237358e-08 0)
(-0.000114248286575 1.38369273343e-06 0)
(-0.000618275859817 7.48811067655e-06 0)
(-6.93762815438e-05 8.40235416407e-07 0)
(-0.000354883342052 4.29809073143e-06 0)
(0 0 0)
(0 0 0)
(-0.00019398174811 1.4845915115e-06 0)
(0 0 0)
(0 0 0)
(0 0 0)
(0 0 0)
(0 0 0)
(0 0 0)
(-0.0100613902987 0.00016751321347 0)
(-0.000423831659612 5.69531631584e-06 0)
(-0.00227715447656 3.79125998109e-05 0)
(-2.48101674497e-05 2.60759556982e-07 0)
(-0.000128815095252 1.56011539953e-06 0)
(-3.07088787677e-06 6.38449739382e-09 0)
(-2.93068494182e-05 3.08020535787e-07 0)
(0 0 0)
(0 0 0)
(0 0 0)
(0 0 0)
(0 0 0)
(-0.000244815268004 1.87363333048e-06 0)
(0 0 0)
(0 0 0)
(0 0 0)
(0 0 0)
(0 0 0)
(0 0 0)
(0 0 0)
(0 0 0)
(0 0 0)
(0 0 0)
(0 0 0)
(0 0 0)
(0 0 0)
(0 0 0)
(0 0 0)
(0 0 0)
(0 0 0)
(0 0 0)
(0 0 0)
(0 0 0)
(-0.00489170544297 4.33104362394e-05 0)
(0 0 0)
(0 0 0)
(0 0 0)
(0 0 0)
(0 0 0)
(-0.00442590700111 3.70795736379e-05 0)
(0 0 0)
(0 0 0)
(0 0 0)
(0 0 0)
(0 0 0)
(0 0 0)
(0 0 0)
(0 0 0)
(0 0 0)
(0 0 0)
(0 0 0)
(0 0 0)
(0 0 0)
(0 0 0)
(0 0 0)
(0 0 0)
(0 0 0)
(0 0 0)
(0 0 0)
(0 0 0)
(0 0 0)
(0 0 0)
(-0.0351338944874 0.000859025271569 0)
(-0.00841878100137 0.000134563609125 0)
(-0.0138688696767 0.000221676411095 0)
(-0.00991256008911 0.000176478217743 0)
(-0.0188058888878 0.000459804813687 0)
(0 0 0)
(0 0 0)
(0 0 0)
(0 0 0)
(0 0 0)
(0 0 0)
(0 0 0)
(0 0 0)
(0 0 0)
(0 0 0)
(-0.00500042523198 4.18927997275e-05 0)
(0 0 0)
(-0.00771985978938 0.000137440488089 0)
(0 0 0)
(0 0 0)
(-0.270577279587 -0.0272100497723 0.00982734168045)
(-0.32107059736 -0.045329382436 0.0154858864417)
(-0.394255524757 -0.0386508058726 0.0138394465928)
(-0.0417073426697 0.000878228698107 0)
(-1.36093582816 -0.242220253735 0.0804604686446)
(-0.0511198549911 0.00124988271175 0)
(-0.100001457207 0.00210572393134 0)
(-0.723918645848 -0.092031067505 0.0319754251801)
(-6.07585043253 -1.11721576747 0.369889248814)
(-1.02973116985 -0.125814134932 0.0435686688519)
(-0.528101038502 -0.0179336605332 0.00854624360936)
(-3.61307024004 -0.677357588913 0.223736725044)
(-0.2762167403 -0.0077081914559 0.00396777189275)
(-1.27613020474 -0.156769659987 0.0548163786867)
(-0.0597667130736 0.00145315784037 0)
(-0.00874747059022 0.000155735552233 0)
(-0.01968244073 0.0004144518253 0)
(-0.0196529200908 0.000413830211195 0)
(-0.0241471017735 0.000590397704588 0)
(-0.0241460926221 0.000590373030791 0)
(-0.047188395593 0.000993642859379 0)
(-0.126522609336 0.00307624950889 0)
(-0.0985270364984 0.00239556984504 0)
(-0.1880117677 0.00395576697764 0)
(-0.0414335891421 0.000872464288563 0)
(-0.0511152021529 0.00124976894965 0)
(-0.0995441519132 0.00209609448464 0)
(-0.261395502226 0.000955930010775 0.00155457451044)
(0 0 0)
(0 0 0)
(0 0 0)
(0 0 0)
(0 0 0)
(0 0 0)
(0 0 0)
(0 0 0)
(0 0 0)
(0 0 0)
(0 0 0)
(0 0 0)
(0 0 0)
(0 0 0)
(0 0 0)
(0 0 0)
(0 0 0)
(0 0 0)
(0 0 0)
(0 0 0)
(0 0 0)
(0 0 0)
(0 0 0)
(-0.00498437450942 4.17583292226e-05 0)
(0 0 0)
(-0.00771938451192 0.000137432026489 0)
(0 0 0)
(0 0 0)
(0 0 0)
(-0.0351270384751 0.000858857641764 0)
(-0.0137420643861 0.000219649588263 0)
(-0.0082603075407 0.000132030610486 0)
(-0.0188035328821 0.000459747209245 0)
(0 0 0)
(-0.00991036283096 0.000176439098868 0)
(0 0 0)
(0 0 0)
(0 0 0)
(0 0 0)
(0 0 0)
(0 0 0)
(0 0 0)
(0 0 0)
(0 0 0)
(0 0 0)
(0 0 0)
(0 0 0)
(0 0 0)
(0 0 0)
(0 0 0)
(0 0 0)
(0 0 0)
(0 0 0)
(0 0 0)
(0 0 0)
(0 0 0)
(0 0 0)
(0 0 0)
(0 0 0)
(0 0 0)
(0 0 0)
(0 0 0)
(0 0 0)
(0 0 0)
(0 0 0)
(0 0 0)
(0 0 0)
(0 0 0)
(0 0 0)
(0 0 0)
(0 0 0)
(-0.0151880069147 0.000304239746613 0)
(0 0 0)
(0 0 0)
(0 0 0)
(0 0 0)
(0 0 0)
(0 0 0)
(0 0 0)
(-0.00338891813002 6.78853781774e-05 0)
(0 0 0)
(0 0 0)
(0 0 0)
(0 0 0)
(0 0 0)
(0 0 0)
(0 0 0)
(0 0 0)
(0 0 0)
(0 0 0)
(0 0 0)
(0 0 0)
(0 0 0)
(0 0 0)
(0 0 0)
(0 0 0)
(0 0 0)
(0 0 0)
(0 0 0)
(0 0 0)
(0 0 0)
(0 0 0)
(0 0 0)
(0 0 0)
(0 0 0)
(0 0 0)
(0 0 0)
(-0.325454261545 0.00901384128586 0)
(-0.00779699732499 0.000156186160818 0)
(0 0 0)
(0 0 0)
(0 0 0)
(0 0 0)
(0 0 0)
(0 0 0)
(-0.0714558410831 0.00199545131615 0)
(0 0 0)
(0 0 0)
(0 0 0)
(0 0 0)
(0 0 0)
(0 0 0)
(0 0 0)
(0 0 0)
(0 0 0)
(0 0 0)
(0 0 0)
(0 0 0)
(0 0 0)
(0 0 0)
(0 0 0)
(0 0 0)
(0 0 0)
(0 0 0)
(0 0 0)
(0 0 0)
(0 0 0)
(0 0 0)
(0 0 0)
(0 0 0)
(0 0 0)
(0 0 0)
(0 0 0)
(-1.52710487742 0.0545725661962 0)
(-0.0438341073065 0.00159952443903 0)
(0 0 0)
(0 0 0)
(0 0 0)
(0 0 0)
(0 0 0)
(0 0 0)
(-0.334990998055 0.0118428179429 0)
(-0.00663795616608 0.000260828106361 0)
(0 0 0)
(0 0 0)
(0 0 0)
(0 0 0)
(0 0 0)
(0 0 0)
(0 0 0)
(0 0 0)
(0 0 0)
(0 0 0)
(0 0 0)
(0 0 0)
(0 0 0)
(0 0 0)
(0 0 0)
(0 0 0)
(0 0 0)
(0 0 0)
(0 0 0)
(0 0 0)
(0 0 0)
(0 0 0)
(0 0 0)
(0 0 0)
(0 0 0)
(0 0 0)
(0 0 0)
(0 0 0)
(0 0 0)
(0 0 0)
(0 0 0)
(0 0 0)
(0 0 0)
(-2.53265779348 0.0742821380413 0)
(-0.0764777299952 0.00224307022891 0)
(0 0 0)
(0 0 0)
(0 0 0)
(0 0 0)
(0 0 0)
(0 0 0)
(-2.53264244204 0.0742816877878 0)
(-0.565110458539 0.0165745302021 0)
(-0.0158181656964 0.000475534471067 0)
(0 0 0)
(0 0 0)
(0 0 0)
(0 0 0)
(0 0 0)
(0 0 0)
(-0.0463870690947 0.00136051964015 0)
(-0.0764787638985 0.00224310055301 0)
(-0.0158180003107 0.00047552949915 0)
(0 0 0)
(0 0 0)
(0 0 0)
(0 0 0)
(0 0 0)
(0 0 0)
(0 0 0)
(0 0 0)
(0 0 0)
(0 0 0)
(0 0 0)
(0 0 0)
(0 0 0)
(0 0 0)
(0 0 0)
(0 0 0)
(0 0 0)
(0 0 0)
(0 0 0)
(0 0 0)
(0 0 0)
(0 0 0)
(0 0 0)
(0 0 0)
(0 0 0)
(0 0 0)
(-0.0632237543804 0.00105392657111 0)
(-0.00212457152486 3.53722291662e-05 0)
(0 0 0)
(0 0 0)
(0 0 0)
(0 0 0)
(0 0 0)
(0 0 0)
(-0.0310524152981 0.000517637174519 0)
(-0.0584655279426 0.000974607945965 0)
(-0.0138517638108 0.000230619566412 0)
(-0.0003662963911 2.80335917279e-06 0)
(0 0 0)
(0 0 0)
(0 0 0)
(0 0 0)
(0 0 0)
(0 0 0)
(-0.000888813221067 1.19435920486e-05 0)
(-0.00175619403706 2.92390711315e-05 0)
(-0.000344916684156 2.63973485372e-06 0)
(0 0 0)
(0 0 0)
(0 0 0)
(0 0 0)
(0 0 0)
(0 0 0)
(0 0 0)
(0 0 0)
(0 0 0)
(0 0 0)
(0 0 0)
(0 0 0)
(0 0 0)
(0 0 0)
(0 0 0)
(0 0 0)
(0 0 0)
(0 0 0)
(0 0 0)
(0 0 0)
(0 0 0)
(0 0 0)
(0 0 0)
(0 0 0)
(0 0 0)
(0 0 0)
(-0.00018274783073 1.32403583247e-06 0)
(-0.00017552788161 1.27172620283e-06 0)
(-2.23021663486e-05 1.20516084115e-07 0)
(0 0 0)
(0 0 0)
(0 0 0)
(0 0 0)
(0 0 0)
(0 0 0)
(0 0 0)
(-2.36404845292e-05 1.27748066152e-07 0)
(-2.39749547744e-05 1.29555471028e-07 0)
(-2.29365377158e-06 4.76859693828e-09 0)
(0 0 0)
(0 0 0)
(0 0 0)
(0 0 0)
(0 0 0)
(0 0 0)
(0 0 0)
(0 0 0)
(0 0 0)
(0 0 0)
(0 0 0)
(0 0 0)
(0 0 0)
(0 0 0)
(0 0 0)
(0 0 0)
(0 0 0)
(0 0 0)
(0 0 0)
(0 0 0)
(0 0 0)
(0 0 0)
(0 0 0)
(0 0 0)
(0 0 0)
(0 0 0)
(0 0 0)
(0 0 0)
(0 0 0)
(0 0 0)
(0 0 0)
(0 0 0)
(0 0 0)
(0 0 0)
(0 0 0)
(0 0 0)
(-0.00338883200351 6.78836529276e-05 0)
(-0.0092120210035 0.00018453131814 0)
(-0.00205547586302 4.11744252716e-05 0)
(-0.0875705337637 0.00210175778739 0)
(-0.0179393942318 0.000359354376522 0)
(-0.0531164858113 0.00127483507174 0)
(-0.0108819486386 0.000217982603975 0)
(0 0 0)
(0 0 0)
(0 0 0)
(-0.00242799875965 4.86366467673e-05 0)
(0 0 0)
(0 0 0)
(0 0 0)
(0 0 0)
(0 0 0)
(0 0 0)
(-0.0179424955695 0.000359416501212 0)
(-0.00400347955797 8.01960134153e-05 0)
(-0.00400351822961 8.01967880693e-05 0)
(0 0 0)
(0 0 0)
(0 0 0)
(0 0 0)
(0 0 0)
(0 0 0)
(0 0 0)
(0 0 0)
(-0.0714413768172 0.00199504739202 0)
(-0.197409473219 0.00546748919948 0)
(-0.0433313976066 0.00121005775139 0)
(-0.810680161872 0.0259713856156 0)
(-0.179101244485 0.00579082360506 0)
(-0.491692785642 0.0157521344926 0)
(-0.108630365401 0.00351231107298 0)
(0 0 0)
(-0.00472890111547 9.47273519959e-05 0)
(0 0 0)
(-0.023069887534 0.000767735216005 0)
(0 0 0)
(-0.0123232197549 0.000397896764715 0)
(0 0 0)
(-0.0150864938511 0.00041044694195 0)
(-0.0150871229062 0.000410464056184 0)
(-0.00286863614109 5.74633088849e-05 0)
(-0.179134795338 0.00579190839414 0)
(-0.0380346483491 0.00126574257993 0)
(-0.0380403219671 0.0012659313904 0)
(-0.00747550815578 0.000241372025246 0)
(0 0 0)
(0 0 0)
(0 0 0)
(-0.00338829767252 6.78729494345e-05 0)
(0 0 0)
(0 0 0)
(0 0 0)
(-0.334929496153 0.011840643688 0)
(-0.910549010834 0.0321903162354 0)
(-0.203146459485 0.00718176473215 0)
(-2.22804319298 0.077441443291 0)
(-0.491347487819 0.0169440078889 0)
(-1.33569299038 0.046061073125 0)
(-0.298022424898 0.0102772364645 0)
(0 0 0)
(-0.0265864121261 0.000970149013062 0)
(0 0 0)
(-0.0665013292776 0.00229328342128 0)
(0 0 0)
(-0.0403349076449 0.00139094024143 0)
(0 0 0)
(-0.07474038352 0.00264227027039 0)
(-0.0747483265451 0.00264255107734 0)
(-0.014196312724 0.000562041680069 0)
(-0.491397406373 0.0169457293191 0)
(-0.10964325528 0.00378102306103 0)
(-0.109647349097 0.00378116423541 0)
(-0.0244656322035 0.000843691837935 0)
(0 0 0)
(0 0 0)
(0 0 0)
(-0.0135697768579 0.000509068672501 0)
(0 0 0)
(0 0 0)
(0 0 0)
(-7.07613208585 0.2130201435 0)
(-4.20159274216 0.123973042578 0)
(-3.86994620737 0.0814236555492 0)
(-1.83402490842 0.0385878780762 0)
(-0.565098888327 0.0165741908511 0)
(-1.5361352766 0.0450544139679 0)
(-0.342755843665 0.0100529321249 0)
(-2.3422274547 0.0492804579884 0)
(-0.247491199799 0.00520721403453 0)
(-1.11002339159 0.0233548885295 0)
(-0.117707085279 0.0024765566894 0)
(0 0 0)
(-0.0463870930204 0.00136052034189 0)
(0 0 0)
(-0.0897672840955 0.00189022363923 0)
(0 0 0)
(-0.0426679721733 0.000898456608692 0)
(0 0 0)
(0 0 0)
(0 0 0)
(0 0 0)
(0 0 0)
(0 0 0)
(0 0 0)
(0 0 0)
(0 0 0)
(0 0 0)
(0 0 0)
(0 0 0)
(0 0 0)
(0 0 0)
(0 0 0)
(0 0 0)
(0 0 0)
(0 0 0)
(0 0 0)
(0 0 0)
(0 0 0)
(0 0 0)
(0 0 0)
(0 0 0)
(0 0 0)
(0 0 0)
(0 0 0)
(0 0 0)
(0 0 0)
(0 0 0)
(0 0 0)
(0 0 0)
(0 0 0)
(0 0 0)
(0 0 0)
(0 0 0)
(0 0 0)
(0 0 0)
(0 0 0)
(0 0 0)
(0 0 0)
(0 0 0)
(0 0 0)
(-0.342756947187 0.0100529644909 0)
(-0.565110067004 0.0165745187185 0)
(-2.26497209236 -0.199098484869 0.0729366691788)
(-2.45918383385 0.0508686050573 0.000251594053491)
(-0.127560584165 0.00268387427373 0)
(-0.258975052613 0.00544883426019 0)
(-1.53613004169 0.0450542604293 0)
(-0.565106432544 0.0165744121208 0)
(-0.342752376004 0.0100528304194 0)
(-2.41741988428 0.0508625064608 0)
(-1.11520398805 0.0234638882621 0)
(-0.25547457168 0.0053751841528 0)
(-0.117756265843 0.0024775914483 0)
(-0.126093419814 0.00369828440336 0)
(-0.126092228776 0.00369824947056 0)
(-0.0281350046886 0.000825191744203 0)
(-0.675031612402 0.0142026629177 0)
(-0.0703387590328 0.00148111849899 0)
(-0.0702177072665 0.00147856952012 0)
(-0.00512083788649 4.29015985768e-05 0)
(0 0 0)
(0 0 0)
(0 0 0)
(-0.0259070419762 0.000545522833396 0)
(0 0 0)
(0 0 0)
(0 0 0)
(0 0 0)
(0 0 0)
(0 0 0)
(0 0 0)
(0 0 0)
(0 0 0)
(0 0 0)
(0 0 0)
(0 0 0)
(0 0 0)
(0 0 0)
(0 0 0)
(0 0 0)
(0 0 0)
(0 0 0)
(0 0 0)
(0 0 0)
(0 0 0)
(0 0 0)
(0 0 0)
(0 0 0)
(0 0 0)
(0 0 0)
(0 0 0)
(0 0 0)
(0 0 0)
(0 0 0)
(0 0 0)
(0 0 0)
(0 0 0)
(0 0 0)
(0 0 0)
(0 0 0)
(0 0 0)
(0 0 0)
(0 0 0)
(0 0 0)
(0 0 0)
(0 0 0)
(0 0 0)
(0 0 0)
(0 0 0)
(-0.0764789972373 0.00224310739677 0)
(0 0 0)
(0 0 0)
(-0.0460263900845 0.000969174587855 0)
(-0.0934480388192 0.00196772904289 0)
(0 0 0)
(0 0 0)
(-0.0463866467486 0.00136050725286 0)
(0 0 0)
(0 0 0)
(-0.0922397097364 0.00194228533899 0)
(-0.0426161208972 0.000897364779875 0)
(0 0 0)
(0 0 0)
(0 0 0)
(0 0 0)
(0 0 0)
(-0.0258577542521 0.000544484985117 0)
(0 0 0)
(0 0 0)
(0 0 0)
(0 0 0)
(0 0 0)
(0 0 0)
(0 0 0)
(0 0 0)
(0 0 0)
(0 0 0)
(0 0 0)
(0 0 0)
(0 0 0)
(0 0 0)
(0 0 0)
(0 0 0)
(0 0 0)
(0 0 0)
(0 0 0)
(0 0 0)
(0 0 0)
(0 0 0)
(0 0 0)
(0 0 0)
(0 0 0)
(0 0 0)
(0 0 0)
(0 0 0)
(0 0 0)
(0 0 0)
(0 0 0)
(0 0 0)
(0 0 0)
(0 0 0)
(0 0 0)
(0 0 0)
(0 0 0)
(0 0 0)
(0 0 0)
(0 0 0)
(0 0 0)
(0 0 0)
(0 0 0)
(0 0 0)
(0 0 0)
(0 0 0)
(0 0 0)
(0 0 0)
(0 0 0)
(0 0 0)
(0 0 0)
(0 0 0)
(0 0 0)
(0 0 0)
(0 0 0)
(0 0 0)
(0 0 0)
(0 0 0)
(0 0 0)
(0 0 0)
(0 0 0)
(0 0 0)
(0 0 0)
(0 0 0)
(0 0 0)
(0 0 0)
(0 0 0)
(0 0 0)
(0 0 0)
(0 0 0)
(0 0 0)
(0 0 0)
(0 0 0)
(0 0 0)
(0 0 0)
(0 0 0)
(0 0 0)
(0 0 0)
(0 0 0)
(0 0 0)
(0 0 0)
(0 0 0)
(0 0 0)
(0 0 0)
(0 0 0)
(0 0 0)
(0 0 0)
(0 0 0)
(0 0 0)
(0 0 0)
(0 0 0)
(0 0 0)
(0 0 0)
(0 0 0)
(0 0 0)
(0 0 0)
(0 0 0)
(0 0 0)
(0 0 0)
(0 0 0)
(0 0 0)
(0 0 0)
(0 0 0)
(0 0 0)
(0 0 0)
(0 0 0)
(0 0 0)
(0 0 0)
(0 0 0)
(0 0 0)
(0 0 0)
(0 0 0)
(0 0 0)
(0 0 0)
(0 0 0)
(0 0 0)
(0 0 0)
(0 0 0)
(0 0 0)
(0 0 0)
(0 0 0)
(0 0 0)
(0 0 0)
(0 0 0)
(0 0 0)
(0 0 0)
(0 0 0)
(0 0 0)
(0 0 0)
(0 0 0)
(0 0 0)
(0 0 0)
(0 0 0)
(0 0 0)
(0 0 0)
(0 0 0)
(0 0 0)
(0 0 0)
(0 0 0)
(0 0 0)
(0 0 0)
(0 0 0)
(0 0 0)
(0 0 0)
(0 0 0)
(0 0 0)
(0 0 0)
(0 0 0)
(0 0 0)
(0 0 0)
(0 0 0)
(0 0 0)
(0 0 0)
(0 0 0)
(0 0 0)
(0 0 0)
(0 0 0)
(0 0 0)
(0 0 0)
(0 0 0)
(0 0 0)
(0 0 0)
(0 0 0)
(0 0 0)
(0 0 0)
(0 0 0)
(0 0 0)
(0 0 0)
(0 0 0)
(0 0 0)
(0 0 0)
(0 0 0)
(0 0 0)
(-0.00243537703858 2.95243193234e-05 0)
(-0.00446142175543 5.40862619863e-05 0)
(-0.00141957942439 1.71929207249e-05 0)
(-0.00276744539999 3.35500172685e-05 0)
(-0.169105092339 0.00281894600966 0)
(-0.102172950073 0.00170320139933 0)
(-0.0038782213941 4.70160656984e-05 0)
(-0.00225431284975 2.73292600598e-05 0)
(-0.00235818456852 2.85885072914e-05 0)
(-0.00140391367316 1.70031884604e-05 0)
(-0.0147741862106 0.000245977080212 0)
(-0.03823204888 0.000637320143001 0)
(-0.00886059541818 0.000147521045074 0)
(-0.000798078874987 9.66575493711e-06 0)
(-0.000168131496627 2.03628725749e-06 0)
(-0.00050898149938 6.16441631863e-06 0)
(-0.000103730549028 1.25630949248e-06 0)
(0 0 0)
(-0.00119746968544 1.60912203761e-05 0)
(0 0 0)
(-1.67027936463e-05 1.11943746831e-07 0)
(0 0 0)
(-9.82975827825e-06 6.58799956114e-08 0)
(0 0 0)
(0 0 0)
(0 0 0)
(0 0 0)
(0 0 0)
(0 0 0)
(0 0 0)
(0 0 0)
(0 0 0)
(0 0 0)
(0 0 0)
(0 0 0)
(0 0 0)
(0 0 0)
(0 0 0)
(0 0 0)
(0 0 0)
(0 0 0)
(0 0 0)
(0 0 0)
(0 0 0)
(0 0 0)
(0 0 0)
(0 0 0)
(0 0 0)
(0 0 0)
(0 0 0)
(0 0 0)
(0 0 0)
(0 0 0)
(0 0 0)
(0 0 0)
(0 0 0)
(0 0 0)
(0 0 0)
(0 0 0)
(0 0 0)
(0 0 0)
(0 0 0)
(0 0 0)
(0 0 0)
(0 0 0)
(0 0 0)
(-0.0551116555012 0.000918699603971 0)
(-0.0069172727526 0.000115166448457 0)
(-0.0121331425231 0.00020200604819 0)
(-0.000492284484109 5.96219412876e-06 0)
(-0.00109089362451 1.32121157036e-05 0)
(-0.000106679967113 1.29203071417e-06 0)
(-0.000238268445752 2.88573533026e-06 0)
(-0.0369780602569 0.000616416418716 0)
(-0.0128706023107 0.000214284098753 0)
(-0.00822979309259 0.000137018746536 0)
(-0.00103216125819 1.25007917011e-05 0)
(-0.000670988394882 8.12652683067e-06 0)
(-0.00022598511192 2.73696846228e-06 0)
(-0.000140109455963 1.69690453933e-06 0)
(-0.00326520916372 5.43628329115e-05 0)
(-0.00317427168972 5.28488047265e-05 0)
(-0.000705592968132 9.48153601225e-06 0)
(-0.000267119971233 3.23516416943e-06 0)
(-4.55058466563e-05 4.78275063569e-07 0)
(-4.87179034977e-05 5.12034389082e-07 0)
(-4.6605754048e-06 9.68952065971e-09 0)
(0 0 0)
(0 0 0)
(0 0 0)
(0 0 0)
(0 0 0)
(0 0 0)
(0 0 0)
(0 0 0)
(0 0 0)
(0 0 0)
(0 0 0)
(0 0 0)
(0 0 0)
(0 0 0)
(0 0 0)
(0 0 0)
(0 0 0)
(0 0 0)
(0 0 0)
(0 0 0)
(0 0 0)
(0 0 0)
(0 0 0)
(0 0 0)
(0 0 0)
(0 0 0)
(0 0 0)
(0 0 0)
(0 0 0)
(0 0 0)
(0 0 0)
(0 0 0)
(0 0 0)
(0 0 0)
(0 0 0)
(0 0 0)
(0 0 0)
(0 0 0)
(0 0 0)
(0 0 0)
(0 0 0)
(0 0 0)
(0 0 0)
(0 0 0)
(0 0 0)
(0 0 0)
(0 0 0)
(0 0 0)
(0 0 0)
(-0.00164763057455 2.74315858903e-05 0)
(0 0 0)
(0 0 0)
(-1.21666437156e-05 8.15420289998e-08 0)
(-2.5521566604e-05 1.71048020538e-07 0)
(0 0 0)
(0 0 0)
(-0.00106253816906 1.42780531685e-05 0)
(0 0 0)
(0 0 0)
(-2.2023207143e-05 1.47601675327e-07 0)
(-1.30737126259e-05 8.76212930204e-08 0)
(0 0 0)
(0 0 0)
(0 0 0)
(0 0 0)
(0 0 0)
(0 0 0)
(0 0 0)
(0 0 0)
(0 0 0)
(0 0 0)
(0 0 0)
(0 0 0)
(0 0 0)
(0 0 0)
(0 0 0)
(0 0 0)
(0 0 0)
(0 0 0)
(0 0 0)
(0 0 0)
(0 0 0)
(0 0 0)
(0 0 0)
(0 0 0)
(0 0 0)
(0 0 0)
(0 0 0)
(0 0 0)
(0 0 0)
(0 0 0)
(0 0 0)
(0 0 0)
(0 0 0)
(0 0 0)
(0 0 0)
(0 0 0)
(0 0 0)
(0 0 0)
(0 0 0)
(0 0 0)
(0 0 0)
(0 0 0)
(0 0 0)
(0 0 0)
(0 0 0)
(0 0 0)
(0 0 0)
(0 0 0)
(0 0 0)
(0 0 0)
(0 0 0)
(0 0 0)
(0 0 0)
(0 0 0)
(0 0 0)
(0 0 0)
(0 0 0)
(0 0 0)
(0 0 0)
(0 0 0)
(0 0 0)
(0 0 0)
(0 0 0)
(0 0 0)
(0 0 0)
(0 0 0)
(0 0 0)
(0 0 0)
(0 0 0)
(0 0 0)
(0 0 0)
(0 0 0)
(0 0 0)
(0 0 0)
(0 0 0)
(0 0 0)
(0 0 0)
(0 0 0)
(0 0 0)
(0 0 0)
(0 0 0)
(0 0 0)
(0 0 0)
(0 0 0)
(0 0 0)
(0 0 0)
(0 0 0)
(0 0 0)
(0 0 0)
(0 0 0)
(0 0 0)
(0 0 0)
(0 0 0)
(0 0 0)
(0 0 0)
(0 0 0)
(0 0 0)
(0 0 0)
(0 0 0)
(0 0 0)
(0 0 0)
(0 0 0)
(0 0 0)
(0 0 0)
(0 0 0)
(0 0 0)
(0 0 0)
(0 0 0)
(0 0 0)
(0 0 0)
(0 0 0)
(0 0 0)
(0 0 0)
(0 0 0)
(0 0 0)
(0 0 0)
(0 0 0)
(0 0 0)
(0 0 0)
(0 0 0)
(0 0 0)
(0 0 0)
(0 0 0)
(0 0 0)
(0 0 0)
(0 0 0)
(0 0 0)
(0 0 0)
(0 0 0)
(0 0 0)
(0 0 0)
(0 0 0)
(0 0 0)
(0 0 0)
(0 0 0)
(0 0 0)
(0 0 0)
(0 0 0)
(0 0 0)
(0 0 0)
(0 0 0)
(0 0 0)
(0 0 0)
(0 0 0)
(0 0 0)
(0 0 0)
(0 0 0)
(0 0 0)
(0 0 0)
(0 0 0)
(0 0 0)
(0 0 0)
(0 0 0)
(0 0 0)
(0 0 0)
(0 0 0)
(0 0 0)
(0 0 0)
(0 0 0)
(0 0 0)
(0 0 0)
(0 0 0)
(0 0 0)
(0 0 0)
(0 0 0)
(0 0 0)
(0 0 0)
(0 0 0)
(0 0 0)
(0 0 0)
(0 0 0)
(0 0 0)
(0 0 0)
(0 0 0)
(0 0 0)
(0 0 0)
(0 0 0)
(0 0 0)
(0 0 0)
(0 0 0)
(0 0 0)
(0 0 0)
(0 0 0)
(0 0 0)
(-6.91510870594 0.168694659152 0)
(-5.37158716066 0.130603869551 0)
(-5.6545799267 0.118972343169 0)
(-3.4174943697 0.071904070364 0)
(-4.74061932357 0.115262623356 0)
(-4.99571689443 0.105109867124 0)
(-7.84416531982 0.191648045454 0)
(-5.37215127498 0.130617585332 0)
(-2.53725572555 0.0616904102803 0)
(-2.66767237894 0.0561278181301 0)
(-2.6817635766 0.0564242968827 0)
(-3.69174525364 0.0897604750888 0)
(-3.69222497242 0.0897721388907 0)
(-3.89593879679 0.0819705395455 0)
(-1.53895698354 0.0374179420552 0)
(-3.25772378553 0.0792077498871 0)
(-1.25090872566 0.0263191154978 0)
(-2.06765670743 0.0435034903635 0)
(-2.87502495269 0.0699028746339 0)
(-1.10545793305 0.0232588312967 0)
(-1.74378591024 0.0423981182347 0)
(-0.726990718976 0.017675930444 0)
(-0.343413996254 0.00834971032344 0)
(-0.591644444862 0.0124481971853 0)
(-0.218850553752 0.00460461493535 0)
(-0.303074437179 0.00736890104798 0)
(-0.523150659446 0.0110070881642 0)
(-0.823733332594 0.0200281141304 0)
(-1.1985077653 0.0291403168473 0)
(-1.53874250151 0.0374127271751 0)
(-1.61422256596 0.0339632375096 0)
(-0.594906107012 0.0125168225463 0)
(-2.23895527772 0.0544375832088 0)
(-0.823695251429 0.0200271882313 0)
(-0.862968016666 0.0181568442489 0)
(-0.566189527817 0.0137662372443 0)
(-0.162236176078 0.00394458318243 0)
(-0.170918514021 0.00359612497614 0)
(-0.281623492624 0.00592535736395 0)
(-0.236048455771 0.00573924257452 0)
(-0.389132262085 0.00946129657311 0)
(-0.408464864567 0.00859409941488 0)
(-0.0350904926479 0.000857964094675 0)
(-0.126352604564 0.00307211604138 0)
(-0.0292152361637 0.000615183254999 0)
(-0.0793577514819 0.00167103081394 0)
(-0.111508546435 0.00271120010097 0)
(-0.0258184888765 0.000543658176755 0)
(-0.0397620265649 0.000972183305219 0)
(-0.00873796325347 0.000155566288408 0)
(0 0 0)
(-0.00758020488861 0.000121160026321 0)
(0 0 0)
(0 0 0)
(-0.00511587635764 4.2860031645e-05 0)
(-0.00990079974983 0.000176268842597 0)
(-0.0273301672683 0.000668223796485 0)
(-0.0596905445981 0.00145130589283 0)
(-0.0619557475914 0.00130459799317 0)
(-0.0125383060153 0.000200409027086 0)
(-0.0868490654506 0.00211163361507 0)
(-0.018784115091 0.000459272443394 0)
(-0.0201413114121 0.000424114234265 0)
(-0.00488629856855 4.32625645732e-05 0)
(0 0 0)
(0 0 0)
(0 0 0)
(0 0 0)
(0 0 0)
(-0.00398861817192 3.34160345399e-05 0)
(0 0 0)
(0 0 0)
(0 0 0)
(0 0 0)
(0 0 0)
(0 0 0)
(0 0 0)
(0 0 0)
(0 0 0)
(0 0 0)
(0 0 0)
(0 0 0)
(0 0 0)
(0 0 0)
(0 0 0)
(0 0 0)
(0 0 0)
(0 0 0)
(0 0 0)
(0 0 0)
(0 0 0)
(0 0 0)
(0 0 0)
(0 0 0)
(0 0 0)
(0 0 0)
(0 0 0)
(0 0 0)
(0 0 0)
(0 0 0)
(0 0 0)
(0 0 0)
(0 0 0)
(0 0 0)
(0 0 0)
(0 0 0)
(0 0 0)
(0 0 0)
(0 0 0)
(0 0 0)
(0 0 0)
(0 0 0)
(0 0 0)
(0 0 0)
(0 0 0)
(0 0 0)
(0 0 0)
(0 0 0)
(0 0 0)
(0 0 0)
(0 0 0)
(0 0 0)
(0 0 0)
(0 0 0)
(0 0 0)
(0 0 0)
(0 0 0)
(0 0 0)
(0 0 0)
(0 0 0)
(0 0 0)
(0 0 0)
(0 0 0)
(0 0 0)
(0 0 0)
(0 0 0)
(0 0 0)
(0 0 0)
(0 0 0)
(0 0 0)
(0 0 0)
(0 0 0)
(0 0 0)
(0 0 0)
(0 0 0)
(0 0 0)
(0 0 0)
(0 0 0)
(0 0 0)
(0 0 0)
(0 0 0)
(0 0 0)
(0 0 0)
(0 0 0)
(0 0 0)
(0 0 0)
(0 0 0)
(0 0 0)
(0 0 0)
(0 0 0)
(0 0 0)
(0 0 0)
(0 0 0)
(0 0 0)
(0 0 0)
(0 0 0)
(0 0 0)
(0 0 0)
(0 0 0)
(0 0 0)
(0 0 0)
(0 0 0)
(0 0 0)
(0 0 0)
(0 0 0)
(0 0 0)
(0 0 0)
(0 0 0)
(0 0 0)
(0 0 0)
(0 0 0)
(0 0 0)
(0 0 0)
(0 0 0)
(0 0 0)
(0 0 0)
(0 0 0)
(0 0 0)
(0 0 0)
(0 0 0)
(0 0 0)
(0 0 0)
(0 0 0)
(0 0 0)
(0 0 0)
(0 0 0)
(0 0 0)
(0 0 0)
(0 0 0)
(0 0 0)
(0 0 0)
(0 0 0)
(0 0 0)
(0 0 0)
(0 0 0)
(0 0 0)
(0 0 0)
(0 0 0)
(0 0 0)
(0 0 0)
(0 0 0)
(0 0 0)
(0 0 0)
(0 0 0)
(0 0 0)
(0 0 0)
(0 0 0)
(0 0 0)
(0 0 0)
(0 0 0)
(0 0 0)
(0 0 0)
(0 0 0)
(0 0 0)
(0 0 0)
(0 0 0)
(0 0 0)
(0 0 0)
(0 0 0)
(0 0 0)
(0 0 0)
(0 0 0)
(0 0 0)
(0 0 0)
(0 0 0)
(0 0 0)
(0 0 0)
(0 0 0)
(-1.6559523066 -0.0693324154761 0.0319645340248)
(-6.68170173014 -1.10236759675 0.369854859596)
(-2.35971852312 -0.0936005600557 0.0423188452124)
(-0.77914464004 -0.0123530438632 0.00845836512858)
(-5.35375641545 -0.634801322174 0.223668448104)
(-0.994396294852 0.00779534780361 0.00385242187812)
(-1.60057920021 -0.148861008423 0.0548105253656)
(-1.6845160836 0.00718784050985 0.00982163549179)
(-3.48278994383 0.0315896166701 0.0154726302971)
(-2.40294669581 0.0058001266959 0.0131944116264)
(-1.31554857429 0.0276791377014 0)
(-4.0021381268 -0.177851353061 0.0804162941657)
(-1.74509248885 0.0424298861679 0)
(-1.18100243762 0.0248482874259 0)
(-0.566830939326 0.0137818324162 0)
(-0.162429016133 0.0039492718632 0)
(-0.306950577903 0.00645823915541 0)
(-0.183298489374 0.00385659961708 0)
(-0.236294964174 0.00574523613851 0)
(-0.440715904897 0.00927266119798 0)
(-0.414684116371 0.00468355683235 0.00155440373638)
(-0.727648090444 0.0176919136637 0)
(-0.34363412064 0.00835506239087 0)
(-0.621601757706 0.0130784989496 0)
(-0.232078918446 0.00488293968526 0)
(-0.824252738486 0.0200407428781 0)
(-0.303346413314 0.00737551383012 0)
(-0.557477126487 0.0117293169185 0)
(-1.53912322126 0.0374219839314 0)
(-3.25947961941 0.0792504409377 0)
(-2.10786320813 0.0443494350068 0)
(-1.29725231122 0.0272941843864 0)
(-2.87557805753 0.0699163227322 0)
(-1.7445579906 0.0424168904671 0)
(-1.1306581394 0.0237890435559 0)
(-1.19836014166 0.0291367275509 0)
(-1.53853258206 0.0374076232288 0)
(-1.63124412701 0.0343213710984 0)
(-0.597448218461 0.0125703085629 0)
(-2.23889678168 0.0544361609459 0)
(-0.823507775276 0.0200226299675 0)
(-0.873480122531 0.018378018922 0)
(-0.726975651171 0.0176755640879 0)
(-0.343531077516 0.00835255701763 0)
(-0.613224299648 0.0129022372595 0)
(-0.222664380768 0.00468485784329 0)
(-0.824004843417 0.020034715599 0)
(-0.30306766467 0.00736873638235 0)
(-0.534618845216 0.0112483787553 0)
(-0.566035644058 0.0137624957404 0)
(-0.162162776038 0.00394279854617 0)
(-0.28254728732 0.00594479400135 0)
(-0.172158545174 0.00362221522753 0)
(-0.388981332177 0.00945762688865 0)
(-0.235966577451 0.00573725179877 0)
(-0.413073250552 0.00869105984094 0)
(-0.267333492394 0.00649990170928 0)
(-0.933038803785 0.0226857490292 0)
(-0.361965133878 0.00761574523325 0)
(-0.362239768598 0.00762152354685 0)
(-0.499457445575 0.0121437245859 0)
(-0.499422334384 0.0121428708983 0)
(-0.193980286811 0.00408134460023 0)
(-0.126286604576 0.00307051132873 0)
(-0.0983715067547 0.00239178832093 0)
(-0.171327960951 0.0036047397382 0)
(-0.0376732410498 0.000793282892719 0)
(-0.23595198609 0.00573689702687 0)
(-0.0510252133701 0.00124756871994 0)
(-0.0901898816312 0.001899122247 0)
(-0.126276730011 0.00307027124021 0)
(-0.0983451289484 0.00239114697537 0)
(-0.17119101324 0.00360185835881 0)
(-0.0376134535106 0.000792023950544 0)
(-0.235903113209 0.00573570873983 0)
(-0.0510199680789 0.00124744047234 0)
(-0.0901948715802 0.00189922732002 0)
(-0.0596525916444 0.00145038311108 0)
(-0.00873188036323 0.000155457991699 0)
(-0.0178044020782 0.000374906092233 0)
(-0.0177774746347 0.000374339082873 0)
(-0.0241017740222 0.000589289439067 0)
(-0.0241018721446 0.000589291838164 0)
(-0.0426468132018 0.00089801106566 0)
(0 0 0)
(-0.0350772091106 0.000857639311602 0)
(-0.00760944634999 0.000121627414246 0)
(-0.0125398574504 0.000200433824821 0)
(-0.0098980143703 0.000176219253106 0)
(-0.0187730238228 0.000459001261397 0)
(0 0 0)
(0 0 0)
(0 0 0)
(0 0 0)
(0 0 0)
(0 0 0)
(0 0 0)
(0 0 0)
(0 0 0)
(0 0 0)
(-0.004527303919 3.79290615468e-05 0)
(0 0 0)
(-0.00770581364511 0.000137190417624 0)
(0 0 0)
(0 0 0)
(0 0 0)
(0 0 0)
(0 0 0)
(0 0 0)
(0 0 0)
(0 0 0)
(0 0 0)
(0 0 0)
(0 0 0)
(0 0 0)
(0 0 0)
(0 0 0)
(0 0 0)
(0 0 0)
(0 0 0)
(0 0 0)
(0 0 0)
(0 0 0)
(0 0 0)
(0 0 0)
(0 0 0)
(0 0 0)
(0 0 0)
(0 0 0)
(0 0 0)
(0 0 0)
(0 0 0)
(0 0 0)
(0 0 0)
(0 0 0)
(0 0 0)
(0 0 0)
(0 0 0)
(0 0 0)
(0 0 0)
(0 0 0)
(0 0 0)
(0 0 0)
(0 0 0)
(0 0 0)
(0 0 0)
(0 0 0)
(0 0 0)
(0 0 0)
(0 0 0)
(0 0 0)
(0 0 0)
(0 0 0)
(0 0 0)
(0 0 0)
(0 0 0)
(0 0 0)
(0 0 0)
(0 0 0)
(0 0 0)
(0 0 0)
(0 0 0)
(0 0 0)
(0 0 0)
(0 0 0)
(0 0 0)
(0 0 0)
(0 0 0)
(0 0 0)
(0 0 0)
(0 0 0)
(0 0 0)
(0 0 0)
(0 0 0)
(0 0 0)
(0 0 0)
(0 0 0)
(0 0 0)
(0 0 0)
(0 0 0)
(0 0 0)
(0 0 0)
(0 0 0)
(0 0 0)
(0 0 0)
(0 0 0)
(0 0 0)
(0 0 0)
(0 0 0)
(0 0 0)
(0 0 0)
(0 0 0)
(0 0 0)
(0 0 0)
(0 0 0)
(0 0 0)
(0 0 0)
(0 0 0)
(0 0 0)
(0 0 0)
(0 0 0)
(0 0 0)
(0 0 0)
(0 0 0)
(0 0 0)
(0 0 0)
(0 0 0)
(0 0 0)
(0 0 0)
(0 0 0)
(0 0 0)
(0 0 0)
(0 0 0)
(0 0 0)
(0 0 0)
(0 0 0)
(0 0 0)
(0 0 0)
(0 0 0)
(0 0 0)
(0 0 0)
(0 0 0)
(0 0 0)
(0 0 0)
(0 0 0)
(0 0 0)
(0 0 0)
(0 0 0)
(0 0 0)
(0 0 0)
(0 0 0)
(0 0 0)
(0 0 0)
(0 0 0)
(0 0 0)
(0 0 0)
(0 0 0)
(0 0 0)
(0 0 0)
(0 0 0)
(0 0 0)
(0 0 0)
(0 0 0)
(0 0 0)
(0 0 0)
(0 0 0)
(0 0 0)
(0 0 0)
(0 0 0)
(0 0 0)
(0 0 0)
(0 0 0)
(0 0 0)
(0 0 0)
(0 0 0)
(0 0 0)
(0 0 0)
(0 0 0)
(0 0 0)
(0 0 0)
(0 0 0)
(0 0 0)
(0 0 0)
(0 0 0)
(0 0 0)
(0 0 0)
(0 0 0)
(0 0 0)
(0 0 0)
(0 0 0)
(0 0 0)
(0 0 0)
(0 0 0)
(0 0 0)
(0 0 0)
(0 0 0)
(0 0 0)
(0 0 0)
(0 0 0)
(0 0 0)
(-0.0273493969937 0.00066869396412 0)
(-0.0597512986653 0.00145278305703 0)
(-0.0661217212775 0.00139232061975 0)
(-0.0134688620237 0.000215282792654 0)
(-0.0869232527594 0.00211343739286 0)
(-0.0214010862521 0.000450641227999 0)
(-0.0187994821317 0.000459648168218 0)
(-0.0351110630531 0.000858467041991 0)
(-0.126414941043 0.00307363168007 0)
(-0.0837126384355 0.00176273137444 0)
(-0.0302017815077 0.000635956873687 0)
(-0.111589833596 0.00271317650338 0)
(-0.0397746851205 0.000972492807465 0)
(-0.0270725131287 0.00057006408075 0)
(-0.00488918469017 4.3288117867e-05 0)
(0 0 0)
(0 0 0)
(0 0 0)
(0 0 0)
(-0.00421562643677 3.53178751503e-05 0)
(0 0 0)
(-0.00874155775258 0.000155630283056 0)
(0 0 0)
(-0.00778815109591 0.000124483784494 0)
(0 0 0)
(-0.00990287082452 0.000176305714966 0)
(0 0 0)
(-0.00533130299779 4.46648431706e-05 0)
(-0.0350851067437 0.000857832409082 0)
(-0.126382177223 0.00307283506604 0)
(-0.0804597930937 0.00169423642974 0)
(-0.0298272022413 0.000628069383369 0)
(-0.111503081144 0.0027110672188 0)
(-0.0397645642544 0.00097224535184 0)
(-0.0260496016056 0.000548524701884 0)
(-0.0273193086824 0.00066795830358 0)
(-0.0596679108427 0.00145075557949 0)
(-0.0622724394284 0.0013112665518 0)
(-0.0125060591747 0.000199893601961 0)