/*--------------------------------*- C++ -*----------------------------------*\
| =========                 |                                                 |
| \\      /  F ield         | OpenFOAM: The Open Source CFD Toolbox           |
|  \\    /   O peration     | Version:  v1906                                 |
|   \\  /    A nd           | Web:      www.OpenFOAM.com                      |
|    \\/     M anipulation  |                                                 |
\*---------------------------------------------------------------------------*/
FoamFile
{
    version     2.0;
    format      ascii;
    class       volScalarField;
    location    "9";
    object      p;
}
// * * * * * * * * * * * * * * * * * * * * * * * * * * * * * * * * * * * * * //

dimensions      [1 -1 -2 0 0 0 0];


internalField   nonuniform List<scalar> 
28582
(
17097.409155
17096.5411453
12199.4331992
12198.852793
7302.03704835
7302.28081874
3628.84459839
3630.65224192
48.0601860272
50.6139069017
-27.2056658146
3630.36927076
650.610460401
654.925974014
3629.9286647
3630.87887974
655.555425691
1795.59319206
1796.65555061
17098.2571567
17095.9255389
17095.6857316
12199.5396815
12198.2482018
12197.7235406
7299.37260992
7300.78029129
3620.71720462
3628.625167
50.966645621
-27.2667442445
-27.2183573618
3623.57890298
3624.96446322
634.277133207
647.822857856
1788.36412729
3626.74877231
3630.08526958
3628.09536216
1794.28909469
651.808287527
1795.28879446
1793.6467779
49.226294745
47.2634690411
-22.8942206614
-22.8384316813
49.8411594739
-22.8249674234
1794.85677555
1797.10222284
652.818685853
650.047647449
1795.47210139
651.723624655
1796.65814108
1797.98091802
1798.20354535
654.086598322
653.71119868
1798.46065329
652.834465571
1797.71896478
1798.07805656
1798.19621645
655.729786477
654.306879358
1798.5971056
654.612838517
1797.49304099
1794.76695647
654.404687561
653.863993502
1797.03281316
655.267477064
654.390599916
1796.31804937
1797.53567969
653.347665238
652.560257914
1797.80365724
652.202597586
1798.37158342
653.42017251
46.4245718592
-22.825401214
42.9268203865
47.6335834742
-23.0116602282
-22.9458990689
48.2282503667
-22.8887809333
-22.8443028537
49.4170076747
-22.8824429831
51.6471277238
-22.8419121996
1783.12447058
1779.82652232
638.816759385
634.176154356
1782.33500332
1780.49542327
638.687980083
1786.35494139
1788.53392944
643.580023594
647.705695255
1785.54695831
1789.41783144
643.436017812
643.392050142
647.53110032
1791.536733
1787.27419659
647.598951098
1790.43275339
643.320179082
1793.46039822
653.393500005
653.119060684
1793.02495391
652.683840974
1792.09203818
652.435120678
1791.59425549
1789.5354926
652.084249421
651.333960278
1790.71499936
1790.19464108
651.796390232
1795.3463112
1796.31477808
653.031519412
652.582598433
652.023519522
1794.2121028
652.326185478
651.190008273
650.421809666
1791.59702832
1792.62452386
650.840544393
1790.86759143
651.472092719
7298.96276115
3625.43627355
52.4601213092
-27.1138771115
3627.57555048
651.322929915
3626.31360783
3625.27690999
651.643581623
649.677116897
650.844276954
3624.81038401
3624.85905887
652.277459627
656.232157622
50.0616196579
50.7780751961
52.2416171877
-22.8084350997
-22.8359866235
-22.8272171629
54.1038472861
55.7766454183
1794.98308413
1794.08498809
651.627759102
653.69492655
1793.0729086
654.12632238
1795.96746215
1788.43398141
1788.67132595
651.629923595
650.927686084
1788.09468109
1789.15966734
650.892008521
1788.58485994
1789.81409644
650.229115663
649.376090059
1789.48087734
650.062067381
1788.57418719
1788.24093741
1788.07072055
651.396425116
649.736430058
1788.36610584
650.455533946
1787.99700476
1789.06681166
1788.40816484
652.643706636
653.611879729
1788.656925
653.825722451
1788.90041919
1789.56365796
1789.96217598
656.25292984
654.851230202
1790.04742746
654.992885638
1789.44250184
3659.3698316
3655.20362007
3654.78536145
3651.42098099
11.7364213019
17.0704447791
11.6958644598
18.115883997
19.5857360192
-27.0739714901
-27.1294005289
-27.0943066898
-27.1364239751
-27.0347437512
-27.0554903268
3660.45881363
3659.38935795
628.40888463
626.827711913
3662.20317506
628.409052469
3657.39813809
3655.49356712
626.321524075
624.942916032
3660.89578868
3656.89228609
3657.7339827
627.838844402
633.889605157
626.403102083
632.660953411
3656.7994934
3652.45657708
636.612322198
645.959342192
635.879597217
643.175833905
3655.97567514
3654.77975331
626.293734702
632.821746563
633.55249573
3650.19247773
3653.21508587
3648.12700176
636.053845008
642.740409775
636.786439025
641.01836219
636.439445798
639.362730635
10.8924789853
10.470506382
12.021019838
-23.18457391
-23.1536005846
-23.1807035316
-23.159584224
-23.1355093637
-23.0807828131
-23.1452361226
-23.1147014182
10.2612118816
10.0620828361
13.9236998401
11.5627960601
13.895229845
-23.1748276435
-23.157192405
-23.1822689952
-23.1693338164
21.9514684089
17.402274535
22.6260600584
-23.1336279989
-23.1175435474
-23.1598006912
-23.1201405989
14.2006640201
14.7200153366
-23.1816052948
-23.1649139273
-23.1415248141
23.6375206048
19.0386892493
24.3206049136
-23.1260079285
-23.0991489729
-23.1169310376
-23.1070519792
1822.17705807
1824.39917155
626.754673859
627.867459813
1823.96734091
626.283917721
1822.52925157
1821.68476711
1822.5717621
627.338307122
625.487736243
1823.34011201
1821.09467732
625.869782514
1827.01169946
1824.12522176
629.029787804
630.219469909
1825.06684869
1825.86584513
630.960778299
1819.68766808
1821.73077964
625.077358632
625.810204256
1820.40485303
1820.89093141
624.626739677
1818.96844986
1819.41316404
625.326701289
623.734584022
1820.09686791
1818.3403572
624.17089543
1823.55586593
1823.12318431
629.533269951
627.253003742
1824.63862483
1822.17483634
628.919376368
1825.07832831
1827.95780053
631.568644794
633.273053322
1826.30459968
1826.59246915
630.950654524
1822.59164974
1820.60750925
626.74997211
628.11114432
1821.29113802
1821.90554687
628.4303248
1824.00602235
1824.52620052
632.890177628
630.24270469
1825.41105238
1823.24551757
630.538275488
1827.99701236
1829.34682626
639.948927873
636.069139852
1829.76797767
1827.72357725
639.393295039
1827.00004032
1825.3298495
643.824923009
644.92513
1828.65852904
642.819892281
1823.84485975
1826.57539714
1825.24445038
635.903224804
638.993143533
1826.41285997
1825.50744495
639.081276293
1825.47347665
1820.59348643
643.846689289
641.930572528
1824.16977878
642.161227701
1822.19756256
1820.93088239
1820.0105317
628.046262241
626.235245173
1821.32206085
1819.65035217
628.058156183
1822.19615544
1823.84840102
630.284157935
633.008220276
1822.67131281
1823.4627429
630.366315066
1821.80376727
1822.40060822
633.385647724
630.856176796
1823.00770017
1821.36770121
630.68298438
1823.89736797
1824.65909874
639.100982661
636.299983349
1824.65579516
1824.19467126
639.321647706
1821.74035044
1818.92513715
641.825229644
642.503526581
1822.90150927
641.919400765
1817.26661848
1823.05549929
1822.7769528
636.707766731
639.565575817
1823.6052707
1821.89235745
639.687598675
1820.47081713
1813.69415994
641.993276105
641.398445076
1818.91395152
641.921800865
1815.52638267
1818.84560899
1821.63397278
638.744764112
635.787575169
1820.39080202
1820.361032
637.633801927
1811.94263952
639.983832439
1817.15342791
17096.557144
17095.6684858
17095.4475611
17095.6956615
17095.9623958
17103.9910201
12198.4360867
12197.9488578
12197.6387403
12197.3578313
12197.3348977
12205.4565483
18313.3445466
18316.5086608
17089.8329475
17095.4669423
17099.9700347
17102.9770073
17107.0214044
17092.1314097
18314.7057269
18317.0541073
17094.761268
17096.5613529
17097.8377581
17097.5405153
17095.5028892
17103.8940269
17094.8306701
17093.4835481
17094.3611054
17095.7361739
17096.7238414
17096.2876836
17095.4587687
17105.5748597
17097.1369994
17095.3122918
17095.1572071
17095.7109957
17096.0728817
17095.7925378
17095.2265546
17105.3210589
17095.5382357
17095.4867717
17095.5354808
17104.5680488
13412.4190903
13415.6694908
12195.158794
12198.8306734
12202.163052
12206.4285707
12233.0427754
12140.2748081
13415.9959377
13417.9174745
12199.4725134
12201.3238039
12200.8611671
12198.5999521
12192.775626
12184.0141106
12195.3167665
12195.6609529
12197.5184462
12198.8065966
12198.5864129
12197.0064715
12194.2693961
12201.4588607
12198.0828378
12197.1703765
12197.8056609
12198.242544
12198.0139157
12196.8795624
12195.3184103
12204.24547
12197.4277369
12196.9187145
12196.4695232
12205.3379108
8509.63165922
8514.91517077
7298.38619561
7302.22035054
7304.79727124
7307.20935307
7318.21146777
7232.19059009
8514.41905088
8518.51082027
7298.27715352
7301.77001209
7302.03224197
7297.10521191
7285.27015472
7271.71276891
7293.89113219
7296.78425351
7300.17765459
7301.84666855
7300.30042204
7296.47568051
7290.5545282
7299.63200377
7299.58499936
7297.29160222
7298.59226598
7300.19321382
7300.03899242
7298.28320524
7296.0342726
7293.02585117
7303.42838146
7300.34506115
7300.71394664
7299.49356106
7298.18014332
7296.81743294
7295.48027342
7306.19109639
7297.94730822
7297.01259943
7306.34606056
3605.51135784
3615.39842939
3625.76106413
3630.58849535
3633.48595803
3636.13425656
3635.27943781
3618.13365013
3615.15624946
3609.25620704
3617.97853885
3626.2009478
3630.95074256
3632.95534401
3630.74192183
3622.6295993
3608.61787418
3641.81078293
3621.12785996
3614.45612501
3621.19791069
3628.70337946
3632.45905621
3630.74254488
3626.05376482
3621.55577962
3621.23252781
3622.07415055
3618.20463257
3623.96943988
3628.94750097
3629.53952642
3625.72691327
3623.14258107
3622.66020062
3626.19260448
3626.18805609
3628.84304856
3626.93279791
3624.06619956
3623.26815947
3623.89340656
3628.02260782
3624.68007409
3625.1756006
3628.02725648
39.8557639971
46.3925661123
51.2619598462
50.2588159177
48.7082804146
51.9012326661
57.4791929293
59.5678027337
28.4228880036
35.9182835242
40.2140259085
45.8615443537
50.2268716591
48.6578868291
48.2873239465
52.8307248132
57.1081437263
58.8744299962
28.6074502706
35.4799589293
42.2655945375
48.6136929979
49.0766557169
47.3806792283
49.4502937425
53.8197996519
56.1529464368
58.3953953888
35.7505383702
44.4332954387
51.2166434816
51.254694957
51.4813898208
53.9919982209
55.7090930362
56.8506829351
57.0131131609
51.5365182066
53.479980618
54.2458487098
55.2190416363
56.7549622904
58.0928972014
57.7278134896
54.7686692929
57.4365153815
58.9078530226
-27.4127071925
-26.9203204559
-26.9771442212
-27.1153531352
-27.065649797
-27.1318647561
-27.1707462384
-27.0700785536
-27.2229748641
-27.772353887
-27.7505414245
-27.8430759636
-27.8714280633
-27.2980248631
-27.2798139143
-27.1752451623
-27.2439217346
-27.0922442271
-27.2191733014
-27.6252133383
-27.6483837211
-26.9995256569
-27.1894965878
-27.0379650065
-27.1293327159
-27.1054022679
-27.4611888637
-27.1052464005
-27.2319559134
-27.5600231892
-27.1496646495
-27.4085691426
-27.1668434123
-27.2739261381
-27.0713378047
-27.5085694279
-27.1448973002
-27.2487533156
-27.5585942773
-27.1775776625
-27.1967977496
-27.4167754247
-27.1213903277
-27.1139642727
-27.2060572646
-27.6475894938
-27.1043797577
-27.2733510307
-27.8458499666
18314.992184
18313.1616888
18315.0193827
15863.3280171
15865.1341428
15863.6689649
15865.1818377
18317.5772154
18316.8380604
18318.2050625
15866.7242059
15864.1684797
15866.4290696
15866.2724617
18315.5988901
18316.9501009
18316.6698552
15865.2455463
15866.4917104
15867.3120261
15867.5544297
18318.2102067
18317.3911668
18318.5351949
15867.640437
15868.1675696
15868.6071218
15869.9406147
13414.1950996
13413.5103249
13414.7979371
10961.0273387
10963.1521136
10962.635383
10964.3746724
13416.9214445
13415.9245584
13417.950201
10965.0712002
10966.7070408
10965.993145
10967.1860023
13416.9018663
13417.5478651
13418.0521051
10965.5764639
10966.9561097
10967.4155636
10967.7966427
13418.9755214
13419.0325416
13423.1376282
10968.164333
10966.2300996
10968.596335
10972.4593072
8512.22841033
8511.68252159
8513.87655169
6058.08152791
6061.16842277
6060.10231813
6062.586973
8517.34477763
8516.35351945
8518.82105214
6064.99959051
6068.57167912
6066.09174824
6070.68560714
8516.48694426
8516.38029671
8517.31874111
6062.23041244
6064.79693361
6063.91910916
6065.99157784
8517.45790105
8518.90194185
8522.53172357
6068.15402778
6070.44343748
6069.01018965
6073.30937141
3604.4309852
3606.84746868
620.46722307
621.764540405
3609.21058464
3607.35816442
3610.73668716
619.613583142
630.557928481
621.659432576
632.155365395
3621.25405153
3616.48585375
3621.94574489
635.844853317
650.131675555
636.794766406
649.991068956
3628.42853844
3625.86072706
3628.21797115
652.810434238
654.482123662
652.40912836
653.837905392
3631.90305956
3630.42517841
3631.91680889
654.465308
654.523828627
653.721877275
654.43766144
3635.37048337
3633.21076051
3634.40574016
654.554404189
657.451181994
654.633926235
657.594225458
3635.95346844
3634.21298503
3632.59958142
658.329618716
659.431299948
658.227259185
657.273919379
3628.6063003
3628.96440473
3619.07134875
660.228581175
660.926361165
656.925325161
655.183718866
3576.08825886
3600.89877222
3594.93817909
660.829352807
614.357122764
654.785744079
635.503363185
3643.67545372
3630.94703969
646.357048538
632.379287893
642.95889319
631.708195966
3609.56753792
3619.23585764
3612.93961061
626.915247982
622.290574146
627.327292023
624.415446861
3612.44895159
3611.71446354
3614.49168564
622.518363325
633.407105247
626.888977749
638.142418195
3622.78122081
3619.51375477
3624.33203271
637.846922847
650.22183178
642.374265487
651.409169369
3628.76810722
3628.31914744
3631.32953291
652.285335132
653.551066166
652.741171485
653.843099519
3632.27897629
3633.27930256
3633.51155356
653.355562297
654.561812746
653.814629319
654.406789564
3632.68624575
3632.57426749
3630.89876563
654.985237786
657.326931334
654.954139131
655.14441356
3627.3536502
3628.30161851
3625.09936535
657.577342309
655.9503304
654.510043448
652.973076744
3616.66103127
3621.40547588
3617.71388516
655.507320777
654.350514224
653.146896585
654.32472338
3621.07302885
3613.9713021
3629.78638396
654.434179138
638.821138253
655.382556576
643.257709202
3630.78052637
3639.57633058
3629.43117713
641.929326114
630.462182888
638.492882553
625.929017581
3615.78374249
3621.59227774
3617.08746582
626.596927004
625.086069165
623.657279342
628.893566447
3617.06083352
3616.63524309
3619.33665473
628.531953686
640.184676966
632.929946749
645.014152355
3625.50561174
3622.73373569
3626.19641126
644.213458564
651.591574009
648.774226959
653.266935094
3631.15286155
3628.9128501
3631.02988736
652.803619229
654.04383579
654.179748405
655.271644868
3632.21926865
3631.57823401
3630.31392092
654.285037937
654.637640246
655.305723872
654.290872541
3628.42978233
3628.09576083
3625.84423771
655.006350544
653.853079604
653.109946384
651.116057981
3623.76894573
3624.24710744
3622.92739911
653.245928875
652.646474968
651.563462362
653.215350069
3620.53776343
3622.1204842
3622.42319882
653.009640807
654.886727987
653.888065713
656.476637924
3634.08051021
3624.26645636
3635.38647256
656.174476085
643.207482333
658.022589867
642.996947984
636.907520291
625.636532698
3618.3198981
3619.40805741
623.567718723
629.882950725
630.312195394
3620.98229182
3619.55316944
3622.29069642
634.080169658
646.368601997
634.705124625
648.144481921
3626.90083907
3625.02602998
3627.44336911
649.926488531
654.19094453
651.875519827
656.429799258
3630.02795105
3628.59623772
3628.59365765
655.009124134
655.697530384
657.01730586
655.830720718
3627.73407622
3627.44612247
3625.66210058
655.436902076
653.31462357
654.471660909
651.967903098
3623.95661503
3624.21376778
3623.21990113
651.951351376
651.138224319
651.447475431
652.585206278
3622.64832858
3622.88017443
3622.8704768
651.823103694
653.59696747
653.447854734
655.085712029
3623.72368536
3623.27666419
3624.68957339
654.266758182
656.875196337
655.804543857
657.99506408
3636.53553281
3627.27689429
3637.03156714
658.574269451
642.693625975
659.607522632
641.54605348
3628.24131216
3629.34772166
651.801023015
656.696264848
655.780091743
3628.2725588
3629.64254891
3628.88514025
657.225869052
655.706232993
656.467370762
654.82222561
3625.23741991
3627.57213521
3625.9053163
654.12393561
651.997617122
653.398442771
652.044754062
3623.51130225
3624.79445921
3624.34768661
652.066492201
653.185082744
652.133220396
652.790339374
3623.31839802
3624.08140756
3624.03560211
653.741293772
655.681488267
653.591212747
656.501603544
3625.42064516
3624.58620939
3625.88457699
656.472580552
658.492744058
657.293326233
659.496115501
3637.04655241
3628.26225626
3636.32401747
659.986812337
641.382085082
660.731538275
639.594238237
3624.89051343
652.422774135
3624.80582632
653.336497007
656.405278712
3626.14641884
657.225084034
659.644430496
3635.19526775
660.715920129
639.449539249
-23.0243383057
-22.9621632533
-23.063749991
-23.0109214139
39.0345668424
38.8019881941
-22.800353592
-22.7748388435
-22.8697683074
-22.8390140109
42.68731194
39.8162386383
42.2041483212
-22.8530960514
-22.9030924036
-22.8612862197
-22.8534278586
50.3888805598
45.6220828908
49.8578004643
-22.9656120329
-23.0025357461
-22.9596166026
-23.0269973038
51.2540075616
50.8391596271
50.778683321
-23.0077640251
-22.9831701985
-23.051471258
-23.0261459233
49.8326908658
49.8447143302
49.3919277809
-23.0089826297
-23.0195047924
-23.0241200459
-23.0225287992
49.5483655762
48.7074852163
49.8586681383
-22.9959135114
-22.9599522818
-22.9826096878
-22.9292202244
54.9218389847
52.3899075152
55.4300038261
-22.8223143368
-22.7728023594
-22.7830104688
-22.7319371418
59.3868699212
57.5718190932
59.7636487479
-22.7999117772
-22.8545996832
-22.7684557377
-22.832074127
62.4391656631
58.9000258014
63.7885745737
-22.9599326656
-22.9086954523
-22.9525681924
-22.8805202531
32.9457913864
28.3509150097
32.3977957878
-23.0895937042
-23.0513731786
-23.1038447401
-23.0731239094
38.4816106988
35.4405227766
38.4386422994
-23.0325356697
-23.0110238306
-23.080094951
-23.0888429319
42.6356858389
40.9586105857
43.9677671678
-22.9616590386
-22.9474936423
-23.0649532842
-23.0165599333
49.6343615949
47.0947785634
49.6345703851
-22.9957818578
-23.0755688046
-23.0015781328
-23.0860107514
49.7186037792
49.4967719426
48.5213745437
-23.1068855104
-23.0702855598
-23.1112963743
-23.0850359237
48.3220273117
47.4498328586
47.0342089045
-23.0722987468
-23.0255984078
-23.1012461449
-23.0400836682
50.1324758531
48.0901473753
50.538223703
-22.9584584309
-22.9021201191
-22.9314166286
-22.8777881689
55.485829854
53.2882346655
55.4906366598
-22.7502762865
-22.7001001926
-22.730910591
-22.6985486617
59.4084780431
56.4597389189
58.49452703
-22.7511941646
-22.8144882908
-22.7521844373
-22.8055166686
63.7268646009
58.8291378475
63.2068060157
-22.9146666377
-22.843520439
-22.9021253293
-22.8259044301
32.3081167217
28.6757820541
32.4372174424
-23.0920333854
-23.0761598089
-23.0814441435
-23.0774607231
38.8103916192
35.9950267965
39.5982421092
-22.9618270958
-22.9471502209
-22.968532257
-22.9585303139
45.6961293477
43.6290185186
47.0530738234
-23.026618862
-22.9754122358
-23.0311107581
-22.9778567817
49.3676724537
49.8980056336
50.0599705295
-23.0050737613
-23.0496716162
-23.0105617714
-23.0392403782
48.0080741521
49.6544173152
48.8641951335
-23.0742582292
-23.0628628278
-23.0539644202
-23.0405324862
47.6970991916
48.9386000821
49.9180929611
-23.0566408324
-23.0175292511
-23.0288871761
-22.9692772956
51.7849056023
51.7007088682
53.411829422
-22.9241302487
-22.856524819
-22.888646517
-22.8188614501
55.5137184402
54.6854319201
55.8936657339
-22.7228693596
-22.7090689208
-22.7156078669
-22.7087232962
57.8417491738
56.3864684215
57.4598366835
-22.7580504424
-22.8058299046
-22.7573843739
-22.7999731782
61.8193206793
57.2903421742
60.4360299781
-22.9000509967
-22.8402283742
-22.9062764234
-22.8460682056
39.8320245451
39.0450821892
-22.9937020859
-22.9537519813
-22.9707906084
48.4349179722
43.9997683287
48.7103145709
-23.0103506251
-22.9692262181
-23.008991263
-22.9578867894
51.6506536497
52.133165927
53.1229850852
-22.9966583739
-23.0215634807
-22.9881373525
-22.9975241226
51.0584849886
53.1035931899
53.2515206145
-23.0190020777
-22.9911562292
-22.9698558978
-22.9159023387
52.3645542622
53.7320115629
54.6056915884
-22.9514551504
-22.8781115793
-22.8830065161
-22.7793224465
55.1064742316
55.4651612353
56.0235043611
-22.8193604394
-22.7751089169
-22.7782523539
-22.7847194418
56.5332756591
56.5622022025
57.2659169225
-22.7032298215
-22.7091198468
-22.7063263346
-22.7184147592
57.4314853519
57.4390527153
57.6682141438
-22.7495058605
-22.7919033962
-22.7521953395
-22.7919965818
59.7879028057
57.2293207127
59.6911375715
-22.9031787023
-22.842915
-22.8933852495
-22.8307355892
52.9934683041
51.2914956293
-22.9683852833
-22.9776040071
-22.8648916113
-22.8794506115
53.7242793114
52.2769582058
52.7792421852
-22.9525480748
-22.9026660425
-22.8688140069
-22.835817243
54.7970133144
53.4354184991
53.8103417216
-22.8453439192
-22.7948209634
-22.8147937104
-22.8320477345
55.9906620545
54.2831366658
54.9554642057
-22.7127868075
-22.7175086167
-22.7532893155
-22.7469792121
57.6382512334
55.8418501887
57.2695590693
-22.7194366983
-22.7267958519
-22.7472191423
-22.7511345782
58.1650729968
58.0648404893
58.5535252796
-22.7578424857
-22.8006999886
-22.7778026082
-22.8178898086
60.1197122922
58.312747809
60.7855795559
-22.9006963182
-22.8164002075
-22.9161841319
-22.8501295722
53.4124270193
-22.8016338509
56.284332764
-22.7940058235
-22.8104643065
-22.8339408082
-22.8534456209
58.8936327588
-22.8329943754
-22.8482468449
-22.8707371103
-22.8690875543
61.6167880361
-22.9594547052
-22.885164204
-22.984198971
-22.9191761956
1761.77954545
1759.84942224
621.352828752
620.770854589
1760.50506978
621.612196386
1761.21376838
1762.64560141
1762.95644702
621.375651387
622.244399752
1761.6646957
1763.99773457
621.88425897
1763.30782699
1760.66363977
621.486331164
619.986215169
1761.28550013
621.786836756
1762.70193866
1766.00317958
1769.91026242
625.627733395
630.717321943
1770.41329256
625.958523842
1765.41359069
1764.7131929
1763.98274839
620.896882197
623.787603538
1762.65471268
1766.49654322
622.764167877
1767.35325517
1773.08883411
631.239471982
627.815570547
1771.52255339
1769.26704281
626.724692621
1779.85769744
1774.71905019
640.959719507
635.822280968
1775.07946373
640.803313814
1779.64332599
1784.4664505
1788.43077641
646.216693548
649.90527914
1788.5064991
645.985474015
1784.32061981
1780.3968543
1777.1843566
636.026352914
641.355631304
1775.8501191
1781.40035303
640.810177343
1784.91179046
1789.37204642
649.7769718
646.324894506
1788.82772015
1785.66582737
645.984649384
1793.70116233
1791.60568143
653.926451004
652.650232929
1791.60251959
653.766728691
1793.78533875
1794.82437316
1795.76590268
654.438536411
654.339055609
1795.58379665
654.266311106
1794.96453761
1793.76690643
1792.15091033
652.465137773
653.439558981
1791.80236896
1794.02970919
653.59663137
1794.81595346
1795.71927153
654.084894123
653.874752338
1795.5161354
1795.06347622
654.087782581
1797.03661474
1796.63739057
654.548567966
654.335950852
1796.44180455
654.479527818
1797.19117677
1797.4715553
1798.05402363
654.550966601
654.44356987
1797.97835207
654.5062322
1797.58781429
1797.02917843
1796.51590425
653.9778125
654.009238298
1796.33382164
1797.30797695
654.224380045
1797.56176542
1798.62991431
654.394437165
654.27816903
1798.14889243
1797.97343045
654.355198091
1800.27811569
1798.94907974
655.319116964
654.458782539
1798.88040356
655.325453592
1800.40180643
1801.27407397
1801.85562802
656.461807437
657.523572276
1801.6290748
656.527723449
1801.47582573
1800.29110508
1799.49101638
654.543259834
655.511264988
1799.03275837
1800.4960845
655.478810401
1801.10696855
1800.74307428
657.652769351
656.665372918
1801.26187763
1800.99323751
656.67136622
1800.27251807
1801.57853408
658.845557565
658.477500371
1801.24843879
659.012354624
1800.78339471
1798.73416546
1798.7061941
658.995079934
659.106473824
1797.32757521
658.96717051
1799.61327211
1799.22878499
1799.63104232
658.523052307
658.221535413
1800.57838333
1797.77385483
658.770590168
1797.25960466
1793.03728857
658.358155045
657.645314741
1795.29749436
1795.37354501
658.465244778
1794.23854544
1798.1308234
660.936269585
659.513550415
1796.0152055
659.719490334
1797.16352966
1791.27566932
1790.2424947
661.289468797
658.683006545
1786.56287353
659.431189367
1794.78191818
1791.01663156
1790.78745221
658.307886235
656.688264698
1793.39910435
1788.17070089
658.161755604
1787.67284051
1781.07027042
656.381150636
656.173432729
1782.98805731
1785.01287709
657.530559609
1771.72985493
1783.00921257
662.726069228
658.248222038
1779.82816523
659.66212266
1773.59278433
1761.06406036
1765.74791713
666.427687469
623.374624519
661.473633066
1771.76732432
1761.46690842
1770.72910687
1776.45863297
655.788082073
657.244579324
1777.1389141
1771.60118181
657.619280922
1761.5354169
1786.20717911
631.611381574
662.480753411
1763.54232185
661.865746577
1779.87615847
1808.82396775
1818.52373553
643.223109249
645.395235408
1808.96020971
642.476367072
1817.70591546
1798.41095405
1786.44834243
637.970353014
632.52726524
1797.85607704
1787.58943074
637.624890366
1807.99181076
1814.6405622
644.02515237
640.460867205
1806.58528743
641.432064046
1816.34997794
1798.17030458
1787.39153091
632.24579464
636.195793024
1787.91282556
1797.17508091
636.911760189
1771.08028835
1776.74600654
623.955620313
627.584653155
1769.52706409
1778.28504429
624.490008766
1766.93279975
1764.40933144
622.542869346
622.920467929
1765.58105012
1765.82838532
622.843977885
1772.21821531
1779.1674825
627.628633802
624.715535936
1779.10683744
1772.76318757
624.746815913
1768.34434981
1769.14520145
623.691026712
623.635750041
1767.46347406
1769.5596385
623.349200771
1769.76185961
1765.33819481
625.296402918
623.981498864
1768.20851985
1766.90294716
626.854743269
1773.0280331
1774.67787973
629.189299201
634.720067907
1771.49119027
1776.19034075
630.522588694
1771.33588125
1770.29181737
625.312594091
630.153427487
1768.50273797
1772.9487902
628.549092534
1774.43470381
1778.939426
636.580046415
634.161578898
1777.6338786
1775.65737742
632.406495457
1783.62550662
1778.44438403
642.209871684
639.150839601
1782.38726813
1779.830429
643.283287935
1787.43829659
1789.72223802
646.827815553
650.611035148
1786.35286925
1790.67100641
647.588158239
1784.79855309
1782.42061621
640.850983256
646.014568902
1781.11863498
1786.12961928
644.700599013
1788.48337984
1792.52113688
651.063328924
649.31262536
1791.60339062
1789.59963761
648.518900442
1794.88047433
1792.26783579
653.318763778
652.481757269
1794.1167442
1793.13941787
653.406207848
1795.90234613
1795.86618718
653.670490829
653.526011042
1795.2037171
1796.52879241
653.707753548
1795.61155151
1794.740221
652.539888253
653.552227414
1793.94957879
1796.35290255
653.417729531
1796.65004391
1797.89022421
653.578372577
653.851140172
1797.18172175
1797.38062172
653.679870023
1797.81706912
1796.59743335
653.707942438
653.255475882
1797.42107437
1797.15354669
653.610764696
1798.70754606
1798.99541038
654.15439453
654.444391062
1798.15181261
1799.6774041
654.08575442
1798.24899411
1798.41292669
653.542255443
654.010837136
1797.70861464
1799.10514857
653.872042857
1799.22837918
1800.1505647
654.55019283
654.160874784
1799.96438853
1799.91611082
654.213374871
1800.5280517
1799.82362649
655.690362653
654.967842586
1800.53346784
1800.26736235
655.685385662
1800.01230757
1799.76809749
656.762929053
656.875810347
1800.57044776
1798.58189808
656.608084678
1799.94686725
1799.88070588
654.987691153
655.429763536
1800.17833449
1799.10329645
655.592388441
1798.80327204
1795.00475121
656.079878757
655.529646536
1796.93984341
1797.38790944
656.148443512
1793.66208135
1798.10705419
657.325746766
656.726379255
1795.70703935
1796.38288828
656.236009497
1791.00874678
1790.56751623
656.512540452
654.680855158
1793.08366827
1788.55824476
655.287954852
1791.76838535
1792.45977845
655.674748252
653.994392753
1794.50001226
1789.94278766
655.118474993
1789.3351717
1786.38794554
653.698949805
653.371762051
1787.20250532
1787.91375338
654.223615116
1784.42202526
1788.21998912
655.348123819
654.380456935
1785.66511496
1786.49521233
654.402740637
1782.22590498
1779.92663372
655.062839549
654.231378361
1782.81114102
1780.15861712
654.482919249
1784.07773499
1785.31244641
653.601490344
653.590206307
1785.61183754
1784.26883406
653.811973678
1782.41441718
1781.85216319
654.078703524
653.962735878
1780.85985489
1783.05839915
654.04474838
1775.86174726
1777.18201005
658.108495213
654.702849461
1773.98434212
1778.30418723
659.06205072
1769.83149737
1791.05883583
664.554223764
640.934969881
1767.69734356
665.91163524
1793.48437034
1777.78067418
1780.85879589
654.91799122
660.014017544
1779.63008641
1779.00434159
659.622360892
1772.30089718
1795.87872745
642.498790742
665.899716369
1773.24818074
666.195813665
1795.09322787
1802.3365949
1812.7719765
639.264074505
641.036400568
1804.6824666
637.949729547
1810.66005538
1793.12671412
1786.05575441
634.848466901
628.815645932
1795.39859412
1784.1263969
633.236621457
1799.89711423
1806.43637777
639.771386403
634.657051685
1797.82693804
636.19378259
1808.46065128
1790.99910241
1781.0306043
627.135113138
629.694987668
1782.39189242
1789.19204925
631.349864283
1773.15127825
1778.53787577
624.462004511
625.465349623
1772.99384903
1777.37491673
623.969270098
1771.86091271
1770.78363492
623.785455071
626.046111593
1770.72302071
1772.38250257
623.865282895
1773.51630666
1775.95426182
624.343634975
623.244705861
1776.37404002
1774.10668462
623.458512044
1772.88304308
1774.70000314
627.555600415
625.073823971
1773.7058344
1773.92774823
624.093124395
1775.80101362
1772.06837547
632.380755718
629.986322673
1774.32147983
1773.67876303
634.083880614
1778.81753842
1780.48812374
636.287701581
641.895110603
1777.20201449
1782.05961008
638.100624849
1777.1480423
1775.75231396
631.676677286
636.925408733
1774.59575685
1778.26199819
635.607077019
1780.25023591
1784.78769675
643.526022474
641.097298767
1783.53841673
1781.43882491
639.669023824
1788.63759091
1783.92788307
647.385238667
645.757221024
1787.466091
1785.36889993
648.602313664
1791.46617194
1793.24286085
649.88871034
651.920004245
1790.60085091
1793.85017672
650.626609091
1789.54121691
1787.75154649