/*--------------------------------*- C++ -*----------------------------------*\
| =========                 |                                                 |
| \\      /  F ield         | OpenFOAM: The Open Source CFD Toolbox           |
|  \\    /   O peration     | Version:  v1906                                 |
|   \\  /    A nd           | Web:      www.OpenFOAM.com                      |
|    \\/     M anipulation  |                                                 |
\*---------------------------------------------------------------------------*/
FoamFile
{
    version     2.0;
    format      ascii;
    class       volScalarField;
    location    "9";
    object      p_rgh;
}
// * * * * * * * * * * * * * * * * * * * * * * * * * * * * * * * * * * * * * //

dimensions      [1 -1 -2 0 0 0 0];


internalField   nonuniform List<scalar> 
28582
(
19546.3858513
19545.5227384
19546.3815483
19545.8044169
19547.0095158
19547.2530052
19547.2889996
19549.0621774
1217.83643945
1269.11266323
0.0153202843674
19548.8013326
17210.1450945
17236.3324587
19548.3071278
19549.2793826
17225.5501404
19528.2569736
19532.1271148
19547.242259
19544.9118106
19544.670393
19546.4977872
19545.2071267
19544.6878951
19544.3486476
19545.7473954
19538.9207168
19546.9514833
1283.45357057
-0.260642855786
-0.24085736181
19541.8188417
19543.3658881
17003.0947817
17027.8042756
19517.1227292
19545.0779037
19548.4614363
19546.4460522
19525.5461494
16950.6483519
19529.6888802
19525.4547149
1235.67940515
1216.06728412
5.73102072643
13.3427269334
1251.1592461
13.5902679526
19528.8379629
19533.2078591
17222.3877628
17264.0701476
19531.4975179
17275.4937643
19530.9296262
19533.9804239
19532.3037345
17233.8891596
17284.9181206
19534.1263929
17276.3808451
19531.8956763
19532.9803132
19532.1515988
17204.3989943
17279.7935234
19534.0147669
17262.8055131
19531.0532436
19525.80254
17115.962041
17169.8338718
19531.0104186
17161.9879572
17221.15518
19528.7539985
19533.9293078
17265.1376609
17322.8291781
19534.3628298
17336.6340935
19535.7631836
17289.0665251
1194.49172664
8.9507785516
1136.96499336
1219.12302097
10.5209804522
7.86045004429
1235.1654027
5.12115001602
9.45216685551
1252.27257977
8.81834836244
1292.39415602
10.8284931169
19504.0168554
19501.834642
17004.4050819
17038.2328832
19503.945036
19501.9809578
17038.4748898
19507.3117581
19511.1548384
17013.3342469
17063.1963715
19507.4050544
19511.2358518
17049.0615709
17130.8506643
17158.3074331
19520.5203563
19512.8785918
17104.1169854
19516.7759259
17082.6856696
19523.3966924
17068.586379
17121.8834914
19522.8517621
17017.708157
19520.5303915
17073.7408219
19520.1046438
19515.7462886
16980.6139027
16988.7604044
19517.5862409
19517.6673483
17034.2784323
19528.8609917
19531.4181734
17222.0827904
17286.6275483
17240.304234
19527.0204185
17165.6709067
17174.3284119
17095.5314742
19521.4905263
19523.7349833
17032.4042446
19519.9095264
17099.6228444
19543.9250994
19543.7799005
1302.60416195
-0.136377111513
19545.9740498
17165.9035896
19544.6659988
19543.6621576
16928.8481835
17028.5242828
16907.3868491
19543.2118617
19543.2550593
16895.80949
16862.2972125
1265.14658548
1272.75316457
1298.44945173
10.7128160003
9.51765858521
9.62601918381
1333.18697819
1362.90039768
19521.4025214
19523.3662798
17113.7492203
17174.6342614
19519.5382647
17122.6470016
19525.4679934
19516.8321545
19514.9729474
16906.4393532
16954.8850816
19515.035689
19516.8043365
16929.7786174
19517.6546664
19517.8204474
16986.8696923
16959.9708556
19518.1931891
16952.9717714
19516.7098838
19518.0358049
19517.9313299
16917.9296432
16926.7057346
19519.0908266
16934.1336259
19516.7268574
19520.2665877
19518.8594229
16903.9287213
16886.2223044
19519.9156538
16892.9088971
19519.3484552
19520.270159
19518.8163018
16864.5936923
16876.0110077
19519.3755269
16881.6831451
19519.5182158
19577.9489106
19573.6920634
19573.2616586
19569.8927123
584.594113574
676.586462071
583.123996161
692.441587551
719.535662875
-0.0964714900755
0.0984473537091
-0.116806689819
-0.0956513514738
-0.050930071659
0.020375564646
19579.0090165
19577.9294475
18717.99353
18710.0821128
19580.7739352
18712.3431282
19575.9070396
19574.0041755
18698.2801834
18670.6746114
19579.4579384
19575.4539108
19576.2957732
18700.0971223
18699.3585594
18670.0741722
18660.1487419
19575.3617038
19570.986512
18697.4369581
18609.0594499
18654.5502184
18447.3446711
19574.4809411
19573.2792365
18663.0542941
18655.6089794
18638.0694862
19568.6552892
19571.7123036
19566.6079911
18648.6944562
18399.2723718
18607.6476285
18301.6206799
18573.0394451
18251.9159068
568.544350481
561.021519114
589.090068504
0.378656835111
0.266004150283
0.384841150114
0.280731693853
0.414360268014
5.35592914893
0.432226844098
3.79630527476
557.960461563
554.57498877
622.759812216
581.264422264
622.211622926
0.398506818282
0.307733776464
0.384646755749
0.298223073143
762.282446266
682.54679204
773.560705586
0.436280990279
3.43496582248
1.31042057212
4.72166155524
625.658881757
631.878495622
0.454147822103
1.04174242274
2.32521700835
792.021028197
708.755542611
805.403963247
2.87160539599
5.62784712146
3.67374069648
5.79198886794
19576.5742609
19579.6116901
18707.1566789
18719.0598363
19579.1507229
18707.9295114
19577.2144117
19576.465802
19577.769731
18715.5394232
18702.7960127
19578.5363266
19575.6764502
18707.0841011
19582.5364361
19579.5994556
18720.7063187
18713.4978306
19580.6094602
19581.4709938
18722.9819406
19573.5183613
19576.802555
18693.7042292
18686.5998773
19574.4609905
19575.6435795
18684.5278479
19572.5499434
19573.863327
18677.2926834
18669.871402
19574.8225983
19571.8364266
18675.6371491
19578.8016562
19578.3878087
18700.4718285
18687.4359576
19580.00533
19577.3735426
18687.7916186
19580.4662107
19583.2645422
18699.382601
18686.3080441
19581.6886832
19581.9656168
18687.8852176
19577.8754
19575.7624043
18677.516215
18668.3302971
19576.4898443
19577.1435494
18677.5993707
19579.242552
19579.7340322
18671.5774987
18665.471303
19580.680667
19578.5636496
18676.1145587
19583.2615348
19584.6167677
18691.968259
18680.9938525
19584.9445581
19583.1484629
18675.4341786
19581.902465
19579.4340859
18673.380746
18560.0868731
19583.5429
18642.5413732
19577.8699723
19581.3409439
19579.9526753
18663.6881397
18639.739149
19581.6848737
19580.0374335
18656.4329541
19579.744626
19573.2663015
18494.4433814
18568.4142271
19577.9785973
18595.7235434
19575.5949773
19575.9813295
19575.0245331
18662.4095966
18660.4171975
19576.422765
19574.7242019
18659.1082833
19577.1947852
19578.8459981
18660.1588303
18657.9181207
19577.7951157
19578.5308729
18658.7918113
19576.6809728
19576.9970131
18654.1457396
18652.3831989
19577.7681132
19576.1167891
18661.6063955
19577.8778114
19579.291274
18619.8864349
18642.3489251
19578.8322967
19579.0525641
18601.5933892
19574.4440842
19570.7671162
18529.7984381
18370.2125431
19576.0502601
18506.8553158
19568.7149718
19576.8695934
19576.8614878
18629.4063002
18561.906425
19577.9881366
19575.7444309
18585.1861668
19573.5573405
19565.3377954
18332.5273181
18453.65491
19571.9639016
18482.9649272
19567.1303484
19571.903621
19575.5139704
18517.8958211
18543.7695862
19573.8707916
19573.8932053
18480.315797
19563.2518926
18408.3547826
19569.9232136
19545.5319812
19544.648892
19544.4367316
19544.6806845
19544.9464525
19552.9475763
19545.3917678
19544.9062775
19544.6034569
19544.3176022
19544.2629524
19552.325173
19537.8342281
19540.9378703
19538.7833906
19544.4176883
19548.9395143
19551.9662555
19556.0105628
19541.0796519
19539.2010865
19541.5457666
19543.6973161
19545.4952983
19546.7901231
19546.5260637
19544.4876765
19552.8476232
19543.8063587
19542.4552876
19543.340015
19544.7223089
19545.7146345
19545.2788245
19544.4460504
19554.5426272
19546.1144507
19544.2868828
19544.1421067
19544.7018502
19545.0637217
19544.7748668
19544.1958072
19554.2916053
19544.5290902
19544.4749847
19544.5091004
19553.5277809
19534.1330053
19537.5012166
19542.1130681
19545.8115709
19549.1480956
19553.3999852
19579.4516593
19486.2358898
19538.3988603
19539.5315557
19546.258415
19548.2766383
19547.8377999
19545.5775116
19539.7226601
19530.8201103
19542.1994984
19542.5007159
19544.3941425
19545.7531058
19545.5606777
19543.9814496
19541.2371696
19548.4067967
19545.0471374
19544.1392169
19544.7768993
19545.2149616
19544.9849928
19543.8451505
19542.2722511
19551.2020176
19544.3941902
19543.8762576
19543.4058947
19552.2746952
19528.7970256
19534.2733003
19543.357109
19547.2863024
19549.8920498
19552.2429114
19562.8594148
19476.2251916
19534.5367636
19537.4252153
19543.1904781
19546.7666288
19547.0989109
19542.2064062
19530.3458133
19516.730399
19538.8050997
19541.7177385
19545.1379863
19546.8283752
19545.2993034
19541.4846444
19535.5668115
19544.6400524
19544.5488258
19542.270697
19543.5752441
19545.1777696
19545.0210494
19543.2630348
19541.0148653
19538.008348
19548.413444
19545.3256043
19545.6910734
19544.4720242
19543.1651018
19541.8056836
19540.4719598
19551.183061
19542.9190165
19541.9864803
19551.3236696
19524.0126307
19533.5024721
19544.2128022
19548.964788
19552.0389481
19554.9469562
19554.1049619
19536.6664334
19533.561034
19527.704508
19536.4494698
19544.6462458
19549.3721594
19551.3800026
19549.1611942
19540.9970829
19526.6554043
19560.2514941
19539.4470997
19532.7606215
19539.5978607
19547.1277951
19550.9008486
19549.1680871
19544.4058219
19539.8879643
19539.5147235
19540.2877384
19536.5011408
19542.3569462
19547.3459645
19547.9118505
19544.0411573
19541.395453
19540.9710655
19544.5107708
19544.4920293
19547.1374024
19545.1763322
19542.2480411
19541.4730695
19542.157784
19546.3083403
19543.10993
19543.5879067
19546.3203578
1071.53251081
1201.51560502
1290.39548651
1278.67990434
1251.2779653
1291.21743644
1387.7748676
1419.01209093
863.845040455
989.950929317
1059.44591561
1195.52883474
1276.65674091
1247.29260822
1237.70257857
1305.68706204
1380.68808091
1411.8334402
874.637689575
990.317284606
1124.82998588
1240.73765913
1253.88928618
1223.47255159
1250.37514204
1319.25400932
1364.72433558
1410.35393262
1000.51849361
1165.03764078
1287.26103232
1292.59420922
1291.2052548
1313.98016255
1354.15464286
1376.60514977
1385.39543263
1292.52248247
1324.75528625
1317.04225849
1337.25646272
1376.04385852
1399.93408446
1395.04643016
1342.61266544
1391.24208466
1410.49866412
1.13892118303
0.503298337542
0.190844255551
-0.137853135187
-0.0271337452903
-0.125358699631
-0.176011050977
-0.0615094075296
-0.245474864079
1.57324297934
1.04775562143
1.36266507797
1.05454006634
-0.320524863079
-0.302313914314
0.112815686624
0.129711181777
-0.114744227071
-0.241673301441
0.756111711476
0.80017738824
0.153667947904
-0.211996587798
-0.0604650065342
-0.151832715855
-0.118078142984
0.969453045145
-0.127746400527
-0.254455913376
0.474794881769
-0.0300300417635
-0.431069142623
-0.189343412348
-0.296426138116
-0.0669727988541
1.45719269633
-0.167397300172
-0.271253315555
0.447495276828
-0.155421749966
0.199387265778
1.6830757643
-0.130041681867
-0.13646427274
-0.228557264602
0.801998011698
-0.12687975772
-0.295851030673
1.64344517328
19539.456424
19537.655245
19539.5106401
19536.5531349
19537.9652544
19537.0512213
19538.403166
19542.0284057
19541.3302838
19542.6980856
19539.8060798
19537.5380271
19539.6655547
19539.6099262
19540.0904556
19541.4413244
19541.1613677
19538.7116118
19539.9280911
19540.7838904
19541.0198048
19542.7032231
19541.8827194
19543.0202361
19541.0754064
19541.6159872
19542.0656654
19543.3648477
19535.3587105
19535.5804211
19535.9632707
19531.3906985
19532.7835806
19532.8316284
19534.0037276
19539.2996998
19537.4756167
19540.1756274
19535.4185115
19537.9778509
19535.9891868
19538.2554738
19539.0890133
19539.9902864
19540.4838207
19536.8132712
19537.0407076
19538.7785586
19539.0511092
19540.8145473
19541.3814458
19545.301486
19538.0625497
19536.8086427
19539.4254897
19543.3272633
19530.3229099
19531.1838547
19532.0497622
19526.3666492
19529.0462144
19528.706561
19530.6956468
19537.6841271
19535.5798909
19539.069194
19533.8248082
19537.9713076
19534.8543641
19540.0665848
19535.6888731
19536.7532899
19537.5452864
19531.476476
19533.7571771
19533.3822515
19535.4556229
19537.1705628
19538.9858285
19542.6689387
19537.1361536
19539.6682213
19538.4637799
19542.7631496
19523.3534903
19525.4764242
16764.1411691
16818.3527381
19527.3329673
19525.8664248
19529.1396806
16728.8055724
16780.3537312
16783.7554442
16892.5372669
19539.5978551
19534.9347754
19540.461224
16826.0729877
16990.0650046
16928.1700158
17035.1506314
19546.8549551
19544.31378
19546.604632
17055.9579241
17123.0731723
17081.6371405
17139.6295561
19550.3146544
19548.8530992
19550.439526
17146.9064322
17174.7615527
17160.8927065
17215.2789827
19554.0487893
19551.8787222
19553.2070734
17211.1051549
17295.9912088
17240.7653857
17271.8115864
19554.8614646
19553.0895839
19551.5597799
17259.6424366
17013.8709603
17220.7201802
16911.7677334
19547.3041441
19547.9107586
19537.8936707
16954.4276789
16828.8110339
16839.4500338
16588.4490683
19493.7979331
19519.3527847
19512.7172431
16851.6966267
15937.8651493
16653.9167226
16470.2033465
19562.1296974
19549.3843116
18418.8454193
17514.179058
18264.5303489
17530.8715645
19528.0215504
19537.5707514
19531.1815576
17253.2599509
16859.8167956
17298.0702063
16891.5912873
19530.9266292
19530.0417803
19532.8334234
16827.0657178
16922.73648
16888.1847034
16940.5673771
19541.253666
19537.8782148
19542.7154869
16946.6021172
17037.5580641
16973.4168918
17117.7498829
19547.1814548
19546.6897303
19549.7313103
17083.8674363
17151.0676853
17165.3281278
17271.9401573
19550.7032341
19551.7230465
19551.9881317
17178.7917503
17256.7533113
17299.7480515
17362.8607845
19551.1191159
19551.060188
19549.3527399
17274.1189371
17252.0399518
17353.5129564
17142.7768741
19545.7376057
19546.7477076
19543.4965902
17181.8843274
16872.356114
17030.095426
16787.5964393
19534.9690344
19539.8154109
19536.069656
16808.1731287
16583.2199282
16777.7403425
16640.9970541
19538.9676733
19532.1237349
19547.9659157
16662.0583524
16558.1030677
16709.9981929
16668.2415319
19549.1483334
19558.0081196
19547.77049
18215.6070532
17484.5430703
18086.261674
17278.1050267
19534.0795191
19539.8781171
19535.2654666
17262.7462628
16896.6635979
17105.7027527
16919.1176724
19535.4611473
19534.9472708
19537.7426184
16906.2600077
16955.5454706
16906.9857998
17000.3751687
19543.9075207
19541.1847584
19544.670655
16990.3418743
17130.4668519
17030.2821406
17138.4374556
19549.597543
19547.3593959
19549.5111001
17174.5228626
17290.9071961
17174.3067772
17260.1530649
19550.6712187
19550.0325149
19548.7647441
17315.9566458
17338.8510544
17258.6101249
17136.405226
19546.8236827
19546.5311545
19544.2120436
17305.6541426
17072.9042491
17045.6154101
16824.7173646
19542.1368328
19542.6308254
19541.2927618
16970.7340944
16787.8895902
16793.6846972
16776.2061291
19538.8879393
19540.5142463
19540.7986948
16783.6199769
16669.4064331
16782.1809498
16785.8427134
19552.441314
19542.6099197
19553.782869
16734.9286589
16705.1988472
16879.161054
16786.931626
18049.2173014
17283.3787061
19536.633881
19537.6453382
17115.1273826
16940.0011869
17017.0764377
19539.3378164
19537.8620923
19540.6695773
16923.2506455
16996.449229
16985.6651845
17000.8501573
19545.290046
19543.3922666
19545.8260982
17019.979253
17109.1091321
17008.8158374
17039.8102771
19548.4089248
19546.9324544
19546.9599091
17141.4225083
17195.8642316
17052.3465622
17000.501594
19546.0727422
19545.7766163
19543.9588896
17178.5950729
17022.7867322
16942.5633618
16777.5025947
19542.2260605
19542.4741373
19541.4502435
16944.9878879
16803.9767609
16776.2332398
16779.02566
19540.9516318
19541.1394414
19541.148032
16781.1131485
16769.1065064
16759.6821267
16747.4916491
19542.0656512
19541.6097731
19543.0485796
16778.7010577
16808.0897047
16764.9408449
16822.690809
19554.9088604
19545.6305162
19555.4290195
16906.3558109
16802.5217124
16920.4699608
16803.0745875
19546.5387254
19547.7260222
17033.2237886
17057.8610474
17188.6397417
19546.5403022
19547.9345436
19547.1459967
17062.0717465
16996.2336551
17181.0807532
17088.8565726
19543.4481286
19545.7941963
19544.1064055
16946.1454049
16829.9269187
17059.5190761
16951.0217241
19541.7172349
19543.0046285
19542.5759988
16817.7964274
16770.1883992
16909.3834198
16848.9735245
19541.5595311
19542.3701848
19542.3643724
16754.3204805
16749.4593502
16839.0890538
16812.735967
19543.7099933
19542.9383393
19544.2384428
16764.6516318
16823.8958248
16812.9364645
16825.4964789
19555.3906063
19546.5969565
19554.7155843
16917.5662112
16809.3474191
16900.9383917
16743.8492806
19543.29474
16873.1919698
19543.252932
16867.6598126
16843.742047
19544.4872118
16833.4915786
16808.8590687
19553.5464074
16878.8054108
16722.6909063
18.1209473364
22.7550673443
16.5375592298
23.7446033684
1054.17368669
1050.03689453
16.9406867089
15.3113977681
16.9713635303
16.3252754506
1129.79231429
1068.39647181
1117.12892519
13.8533978713
11.7536621547
15.7350718319
12.3993000736
1274.20497588
1185.45162246
1263.99287365
6.50789117466
4.08687664005
5.63818984874
3.40043304691
1291.12044895
1283.87252147
1285.19728996
4.09042347888
4.10228914904
2.92943558743
2.51783273021
1273.41721009
1269.0819908
1264.01199703
1.15293102912
0.535698944911
2.79213790597
1.14540074731
1261.10912335
1250.50303972
1266.55140461
0.662879166985
4.15990024463
0.939652038527
4.13117096982
1337.22174774
1300.78999828
1346.75937978
11.0289748558
16.7189504492
10.318361147
17.0995081504
1425.35984587
1388.74493129
1431.07752521
13.598632821
13.1041734116
13.9481304931
14.0388000772
1432.45017625
1407.51034986
1484.43056011
19.3627925452
49.312399418
21.3493922226
30.8409191958
932.250396376
867.521142198
925.171160299
14.2406201348
27.1227154401
13.1512401091
26.0408803616
1033.32501971
982.477195783
1036.83751802
24.4402419448
27.8704097164
23.5019596597
24.5272217482
1119.4000034
1087.73458063
1151.29725448
32.0994774312
20.28351906
23.2175457724
14.1210093778
1264.78526795
1217.07000279
1264.87571507
4.05820365626
2.13737520444
4.07339535434
2.18649081072
1270.18848672
1263.45139279
1247.53352085
1.60635002608
1.06492210504
1.58389337518
0.945439528962
1238.82259657
1226.92118038
1216.76707785
2.45460812986
3.99765135419
1.4032547351
2.58430169218
1266.96368135
1227.37506163
1265.86378302
2.63758834797
6.48862389505
6.85918694439
13.0725510246
1348.44642123
1310.8186446
1347.85868277
12.7742707658
16.5192151459
15.4349376484
15.6411266382
1425.11593422
1369.88644219
1410.0279178
13.6771439033
13.364227461
12.3212842305
12.3311742267
1497.99325137
1413.87872279
1489.66523961
19.6402977683
19.6890598039
16.7094379064
17.7895719745
928.119819931
876.222770862
931.954165185
12.3044954295
21.958820033
11.7634737299
21.0168790093
1050.20333688
998.878985308
1065.98507379
15.8999992619
15.0883225437
15.4061313273
14.0994200343
1187.77688397
1148.88057277
1208.42327363
11.1458130683
7.41600935249
9.22303328442
6.12078403197
1255.71248947
1263.42975131
1266.68639767
5.07762576852
3.06730167878
5.21176491514
3.65086685296
1236.11943969
1263.20715317
1249.2242376
2.05932514211
1.06704502477
2.87933871763
1.8426109769
1228.43069177
1249.31334201
1265.66482248
1.05136800282
1.92218739385
2.96433142178
5.34794612572
1275.13512534
1284.66075186
1297.1014848
7.98350950653
21.8728598593
15.1099589116
28.7129409586
1349.03130993
1334.83675852
1356.39315234
15.9761754829
14.5440441294
16.6474882995
14.1979152877
1398.85349059
1368.67629631
1390.94263299
12.1362391407
12.281951695
12.7407784157
12.3359741619
1468.31153311
1391.33669805
1444.80849844
14.3834893637
14.4207383743
12.3263123872
12.8429621854
1076.70056682
1062.53617436
14.4987627898
12.6475127727
11.4337554388
1234.30518035
1158.3476762
1241.89712804
8.56192839779
6.07125937652
7.82382020664
5.95749771737
1295.74844547
1304.54540167
1323.42624858
5.38961467324
4.15847926271
5.7210991856
4.89194655242
1289.0078368
1325.2705487
1327.11804016
3.63338401387
3.7342516389
5.31590176458
7.04336229035
1304.21649328
1330.04168179
1343.68959815
5.83462079236
9.42422146097
10.2917861305
13.7347515632
1322.93892778
1333.84957567
1340.64832436
22.84059291
31.6934371111
29.2719904696
30.1685949898
1368.99362927
1371.10847103
1382.59005805
16.6672411695
14.2772763193
16.5191328969
14.5989795601
1389.96997614
1386.87383281
1393.98753046
13.3792486479
12.6686159862
13.8963610328
12.7792212458
1433.2017582
1387.31106418
1427.40422329
12.7243894708
12.5949894759
14.0667618439
15.5687116524
1318.54230641
1285.72142604
6.833664906
6.67976000975
7.35223060181
7.53147013812
1325.28948854
1298.36124799
1299.20122209
8.83809268091
12.6991668533
11.3009113613
19.8853595304
1319.19678848
1280.74362017
1291.82107161
23.1973724132
29.8573211818
39.1101302465
35.1152549248
1356.79883227
1326.08554854
1339.81197498
22.0799458724
17.2786821931
17.3184962003
14.03937864
1391.02921085
1359.9308666
1385.95213626
14.3565191441
13.7894094595
12.3171742319
12.3253649796
1403.49538375
1400.13008953
1410.62071035
13.2776017645
12.5304676853
11.9648304756
12.9699253398
1426.68802364
1404.04158698
1428.10223628
14.748855877
20.6863754944
16.4087171125
30.9855299841
1318.36964942
10.4550794037
1369.95887395
10.7212673143
11.037678974
9.33243399277
9.04337455918
1417.39351309
10.5412598169
12.8646733771
9.23481593092
12.6941317342
1424.66937346
19.044348558
41.6401279477
22.0501774608
47.7217560399
19491.639526
19486.7589514
16833.3815935
16775.2167898
19488.2009938
16851.7290925
19490.4121445
19491.4167784
19489.1506823
16812.9982311
16899.3944813
19488.1468203
19492.7833026
16873.9875904
19489.8890223
19485.8945228
16694.7608909
16734.2302001
19487.0947172
16717.4091327
19488.4616415
19493.5332817
19497.8480004
16719.4942119
16813.0727038
19499.0909585
16751.4585429
19491.7584836
19490.804264
19488.0934178
16774.467518
16806.3775638
19487.5423852
19492.0219478
16756.4602711
19495.1522096
19503.0910234
16858.9336123
16845.518631
19501.240257
19496.8960636
16793.177496
19513.2308338
19505.1342988
16871.2234181
16854.3357881
19505.9342565
16893.8134013
19512.699417
19519.8776697
19523.8846061
16914.3357544
17002.0383975
19525.1843872
16932.6151757
19518.639576
19514.8498297
19509.3227024
16894.3930682
16962.4028757
19507.9548841
19516.2160099
16921.1831364
19520.8110829
19525.7448888
17011.3770803
16989.9635243
19525.6066004
19521.6252517
16950.4764421
19530.7477479
19528.0538423
17094.9283681
17061.4927792
19528.8526394
17097.5297475
19530.3400086
19531.0023285
19528.7832092
17110.6641556
17124.2111469
19529.2604545
17114.1754651
19530.6665802
19530.839664
19528.9897539
17066.9156043
17118.969214
19528.8706073
19530.9351057
17100.5965156
19531.3041706
19530.3071848
17120.2546768
17132.9929935
19530.0927428
19531.4531403
17113.7916547
19525.1469776
19526.398539
17158.0338344
17143.0797707
19526.6702807
17155.5963427
19525.1710065
19525.311598
19525.0993031
17164.1376152
17174.6352298
19525.9136236
17164.0674094
19524.7249724
19526.8472522
19528.674215
17141.4928698
17184.5228668
19528.1195752
19528.2101891
17162.5922898
19526.6296822
19528.7124442
17187.2366656
17201.4165806
19527.1913759
19528.3419419
17175.6741912
19531.7557096
19527.3074649
17272.6863078
17204.7875206
19527.5462967
17260.1621037
19532.8118905
19536.5837299
19537.6396778
17296.2720375
17280.8689577
19537.4121454
17276.7020291
19537.5318488
19531.5734813
19529.5255862
17211.2483659
17282.3561696
19528.3773805
19532.0265222
17258.2420789
19536.5031726
19537.263078
17276.936499
17281.2998976
19538.0181859
19536.4648625
17271.0163949
19533.9870854
19536.194081
17194.4622048
17245.8675713
19536.2829468
17187.5313955
19533.6836669
19530.6373788
19528.5492911
17102.6461932
16994.3579183
19527.7213461
17089.350428
19531.0266774
19533.9869303
19535.4804464
17236.3257776
17137.8261904
19536.7353601
19531.8421652
17163.5801091
19530.0784008
19522.5219492
16950.8453451
17021.6432538
19526.1166464
19527.0479864
17055.1956803
19520.0218956
19525.5757953
16915.6641611
16927.1153374
19524.5005217
16874.7473215
19523.8260084
19516.9394625
19518.1178915
16863.3188807
16743.8731206
19513.0215744
16799.0461106
19521.5169772
19515.2787916
19517.2800941
16880.8553347
16766.2859264
19521.4677379
19510.6938884
16819.8232165
19505.8481415
19494.2888898
16654.2570783
16670.7406812
19499.7287525
19501.6740566
16726.1499437
19488.1634841
19509.027964
16749.5106246
16774.8668319
19504.3812354
16670.3756194
19491.7243454
19446.0600561
19455.3685926
16315.3595451
16174.5682231
16128.1812713
19463.0342916
19444.1138963
19475.1215106
19485.7167704
16714.3576418
16599.6133234
19491.1926466
19471.40256
16625.8041209
19433.8399323
19465.883498
16396.8771093
16096.8314942
19433.9271949
16059.7607077
19461.1730149
19557.6788919
19570.9773433
18155.577795
18376.3406996
19558.4263858
18118.9147076
19569.8352441
19543.3659857
19526.5195139
17848.6132891
17536.3772403
19543.2846944
19526.6306369
17833.185751
19555.8738182
19565.7173028
18320.225672
18043.559876
19554.8183606
18084.3347327
19567.7971358
19541.7302846
19526.6926713
17541.0087826
17796.6894292
19525.4350833
19541.7622946
17820.4845064
19499.5763043
19511.5303579
17051.5482186
17296.3408491
19498.7464188
19511.8930219
17087.0308378
19490.8404974
19486.1020294
16946.4487455
16874.6607475
19490.0056335
19487.3193933
16953.0701009
19499.3808918
19513.1492646
17308.5086549
17089.0747924
19511.2945126
19501.0446881
17103.7400908
19491.3250937
19491.1258576
16894.5921636
16969.0634571
19488.216608
19493.1274204
16972.195304
19489.9047187
19484.5928741
16858.8493958
16869.8514163
19488.8030043
19486.2516975
16880.0402428
19494.1818406
19499.3272329
16895.757985
16934.2672198
19493.9630078
19498.7434158
16896.9694767
19491.1040416
19490.1883983
16878.878911
16903.8331524
19487.3036889
19493.6800218
16895.8959567
19495.2984494
19502.0042257
16944.2085366
16917.1263515
19499.5765693
19497.6722172
16915.7028809
19510.0427013
19505.1045361
16973.0849638
16962.2175789
19511.7170507
19504.174387
16992.0856065
19515.5787058
19520.4527403
16997.9986586
17071.4372151
19516.8895363
19519.880384
17024.0210884
19509.451535
19506.345479
16972.7859715
17026.1965606
19504.0828599
19511.6401259
17006.5400341
19515.0510145
19521.7174007
17084.6150673
17070.9366342
19519.7882348
19517.093326
17040.67458
19524.9539668
19523.2649412
17123.3043459
17114.0007835
19525.4759072
19522.6433364
17150.7761408
19526.5280612
19526.6918451
17141.2549639
17190.2732452
19526.5085636
19527.0634342
17173.8060581
19526.0077158
19525.1082697
17131.5119616
17215.4876333
19523.1925636
19527.8548503
17175.2808251
19528.1985832
19531.1491657
17229.9292293
17249.7761233
19529.4212893
19530.1073856
17207.6090814
19527.5489045
19526.5396507
17215.5666522
17217.0395633
19526.9996913
19527.3078834
17252.5436954
19528.1658455
19528.3215341
17240.1898709
17302.1274311
19527.6537845
19529.2421518
17283.7661949
19531.3460792
19531.9059059
17258.6179999
17332.5720909
19530.3167972
19533.173442
17296.3655518
19532.5020698
19534.623089
17335.4894834
17356.7209114
19533.3078629
19534.6376124
17324.8881496
19529.6733332
19528.8056883
17302.1347591
17310.3613445
19529.9333487
19529.6251213
17325.0626606
19530.0096072
19532.117335
17282.5382316
17238.6729753
19532.2316528
19528.5858669
17296.4532803
19531.6254044
19533.3002935
17334.5567678
17329.3135726
19532.9554965
19530.7976392
17333.1537926
19529.6154325
19523.0371288
17198.3023702
17251.0232425
19526.6619309
19527.3584223
17276.7286221
19521.288954
19529.8263146
17094.4422801
17146.3226806
19525.5027789
19525.7099806
17040.7985751
19515.9309095
19515.0764698
16982.2827254
16825.7382668
19520.2034689
19510.8663759
16926.5510187
19518.2036618
19518.6232771
17096.024854
16930.8368345
19522.8043663
19514.1956339
16992.9723478
19513.5006458
19510.0327378
16805.8992225
16849.0208055
19510.6820367
19510.8397842
16896.3680782
19500.2181127
19509.3510002
16745.0697934
16781.1028466
19502.199508
19506.3319968
16733.611352
19492.2431769
19484.859069
16658.8997582
16585.2592172
19493.1908667
19485.1531932
16656.9355054
19505.2620217
19509.6075809
16780.7660761
16757.275728
19508.6027966
19508.0949954
16744.854104
19500.0588062
19500.5199263
16607.5732619
16705.5339488
19494.9529074
19504.7578842
16679.5621022
19465.8723956
19476.0808035
16634.2926144
16662.4957539
19462.6857493
19477.9086982
16648.324994
19438.5333045
19469.8731566
16170.3062448
16594.4672027
19433.653723
16218.7096124
19474.8591458
19477.2469887
19494.7436073
16681.7874718
16702.3220649
19488.8005531
19483.1245562
16674.5028621
19451.2910103
19490.7596892
16624.808675
16302.4213493
19457.4510511
16266.8389052
19484.8962567
19549.267674
19562.958399
17990.8615318
18173.3835254
19551.9341664
17936.608133
19559.9843347
19536.8953349
19525.2183625
17743.3795408
17407.1458053
19539.1787715
19522.8279466
17675.6681549
19546.2722222
19556.2216725
18122.7303787
17817.7843155
19543.8526208
17868.6396264
19557.7451989
19533.706063
19517.9922021
17341.5341503
17539.50073
19520.4205589
19531.0427851
17603.8002681
19503.8025877
19513.1029044
17068.2021144
17195.7013407
19502.9796116
19511.5627657
17022.4672494
19499.2677885
19496.198221
16965.2581326
16905.1178126
19496.8230362
19499.6307316
16940.440551
19504.6307241
19508.7113462
17147.9606987
16965.9881258
19510.4628054
19504.5881057
16999.1727741
19500.5692218
19503.3807152
16922.4715184
16925.2369409
19501.9653669
19502.0353813
16943.7291229
19502.9619314
19496.5015321
16916.2654549
16895.6546281
19499.7333781
19500.5028561
16916.4818034
19507.0847915
19508.3846823
16929.376616
16971.5740719
19503.9998935
19512.0304963
16940.4480158
19505.1205759
19504.3293156
16913.5767613
16921.6278432
19502.4991964
19506.8131641
16931.4468609
19508.8242384
19514.7299712
16992.7499966
16954.0053753
19513.7233971
19510.2800679
16960.1117404
19519.5256473
19512.2996565
17042.3064753
17005.4041568
19516.3852188
19515.7858513
17057.8047931
19522.9292455
19524.660202
17088.1948437
17157.1351531
19520.5184695
19526.472156
17109.6191273
19521.1495563
19518.7935111
17016.5550128
17064.680517
19517.753202
19522.1640525
17055.0632373
19524.1340269
19527.7455319
17144.3531547
17100.0450752
19527.0259617
19524.968315
17100.8607946
19531.7354844