/*--------------------------------*- C++ -*----------------------------------*\
| =========                 |                                                 |
| \\      /  F ield         | OpenFOAM: The Open Source CFD Toolbox           |
|  \\    /   O peration     | Version:  v1906                                 |
|   \\  /    A nd           | Web:      www.OpenFOAM.com                      |
|    \\/     M anipulation  |                                                 |
\*---------------------------------------------------------------------------*/
FoamFile
{
    version     2.0;
    format      ascii;
    class       surfaceScalarField;
    location    "9";
    object      phi;
}
// * * * * * * * * * * * * * * * * * * * * * * * * * * * * * * * * * * * * * //

dimensions      [0 3 -1 0 0 0 0];
oriented        oriented;


internalField   nonuniform List<scalar> 
92311
(
0.203976272829
0.000128050122683
-0.0011306664027
-0.203901008519
0.000927352020393
6.88973030297e-05
0.203980708266
-0.00075746331327
0.000684222848485
0.203946153498
0.000420524066421
-0.00115383662458
-0.203994225558
0.000909516184613
0.000195826544523
0.203931414663
-0.000750720594564
0.000638584048867
0.20371667129
0.000286033071224
0.000246858949853
-0.00107687436418
-0.204041535677
0.000784755613697
0.000270812811665
0.00023388206633
0.000103766280248
4.34238466228e-06
1.34473157793e-05
0.203834092087
-0.00067002020377
0.000520601511551
0.000106309941911
0.051044796523
0.000115356983941
0.000115412295652
0.0001166890379
0.00011583308726
-0.000383472546203
-0.0511413342465
0.000302765223715
-0.0509960911369
0.0509501120233
4.02522712701e-05
6.11522860791e-05
6.1288950215e-05
3.56851200228e-05
-0.000251681231933
0.000203051427265
-0.000161561375471
0.00508239220154
-0.000132341257483
-0.000133606851796
-0.0001227393408
0.00160752003479
-0.00083937655986
-0.00750916307313
0.00220878169371
-0.0043528389197
0.00363345484781
-0.000753774208641
-0.000508481629629
6.13423591194e-05
5.67681489759e-05
4.71551920508e-05
4.10196553681e-05
0.00177550379778
-0.0906993581835
-0.00187114896565
-0.00136553680713
0.00199266648833
-0.0541872184488
0.129534106811
0.00762431894667
0.00136438920736
9.98957942779e-05
8.11883552181e-05
8.22649937714e-05
9.54330925922e-05
-0.00028743902808
0.000224254921559
-0.000159104769448
0.0118634670173
8.95771653052e-06
-1.1789480943e-06
-0.0118736123359
0.0118659049298
7.69696128965e-05
-9.37268049942e-05
-0.0118703713036
4.24796037164e-05
-2.12663266907e-05
0.000154842864065
3.70744495915e-06
0.0509561698297
-3.09218360502e-06
2.78025708072e-05
2.14376607511e-05
-0.000206409973079
1.32816391913e-05
0.0509116234056
1.78968257618e-05
3.52265253799e-05
3.3198811202e-05
-0.0509208668403
7.79487117022e-05
1.72832231208e-05
-7.81807893122e-05
0.0119002079651
4.14014400379e-05
-1.47238540092e-05
3.67007943207e-05
0.0126992142412
-4.55264666425e-05
9.38769219271e-06
-0.0126960604208
0.0126915403651
2.677592429e-05
1.88091976448e-05
-0.0126870915518
-5.02334726179e-05
0.204320246211
-0.00198959553028
0.00170149833559
-0.203981915933
0.204023844606
2.12942752228e-05
-0.000247272238502
0.000182750493687
-2.13211636946e-05
0.20412732935
-0.00012434391633
4.20848120182e-05
0.000121481748507
0.204438097235
-0.00206514996383
0.00177424141236
-0.204318811316
0.204074033899
2.93926106872e-05
-0.000388489015639
0.000237683366799
-5.59595838267e-06
0.204223281206
-0.000160978334902
-4.09360846306e-06
0.000133406982423
0.000290183820682
0.000303018136737
-0.00211756439139
0.204580831943
0.00179318856535
-0.205007734785
0.000146225068395
-3.35293982255e-05
-5.93352518276e-05
-4.19059023248e-05
-7.96073798192e-05
0.204217846463
-0.000318071280782
0.000178029057944
0.0514529312153
7.39070095759e-05
3.14938952813e-05
6.90306588457e-05
3.59708290364e-05
-0.000605370304144
-0.0515335400449
0.000608934126728
0.051019805255
0.000101293125075
-1.7987589136e-06
-4.2079294704e-06
-1.27189065315e-05
-1.49991868985e-05
-0.000164687536089
0.00214317942034
-0.000339271048257
-0.00700824840061
6.44452110297e-05
6.46398761761e-05
6.11426595053e-05
6.74877819671e-05
0.000594082823194
0.016451278423
0.0171368554616
0.0171609134146
-0.0870081148035
0.0252149397726
0.132151705107
-0.0293706585881
0.0163047609363
0.00400423053712
0.00345342593326
0.00414588476209
0.00362315586535
-0.0405877212946
0.0330961128819
-0.00714438149016
0.000487207421225
8.67336977153e-05
0.000113561116616
8.26692645109e-05
0.000116689311462
0.0513234135852
-0.000467339548558
0.000114855127818
0.000138212658208
9.90351728168e-05
0.000124943568513
0.0512388956488
0.000434931673983
-0.0513607528763
0.000143861309603
-4.43550189099e-05
0.0119096326615
1.09903839867e-05
-4.37295913608e-05
-0.0119764209144
0.000195835915632
-0.00013847919841
-0.0118245742239
2.10180767662e-05
-5.27086316995e-05
0.0117989425711
0.000156531447066
0.0128032156318
-0.000130467401896
0.000118431723815
-0.0128328668009
4.64615450584e-05
-1.28031709755e-05
-1.86131876028e-05
-1.367043361e-05
-1.94157644262e-05
0.0510983124172
-0.000119823137776
0.0509665376164
1.69671847849e-06
-1.90494275256e-05
6.20912237714e-06
-1.75143981245e-05
3.31072303164e-05
-2.3940631108e-05
-3.50035278441e-05
-2.00797163744e-05
-2.64133527931e-05
0.0510592041502
-2.04884354922e-05
2.54705704254e-05
-3.90300326369e-05
1.64336179492e-06
0.0127093962521
-3.89371386439e-05
7.43205528886e-06
-0.0120113296786
-7.31249739776e-05
0.0120075188548
0.000108442449221
1.48355161429e-05
4.85128957285e-06
0.0126990147956
-0.0127057806845
-3.60001093553e-05
0.0127302966993
2.6028937108e-06
-1.50545167293e-05
0.00495592266677
-9.3235879455e-05
-6.97224781286e-05
-8.91425043053e-05
0.00224913926539
0.00306095302283
-0.00485417204337
-0.00073652941213
2.15326073055e-05
9.57363579296e-06
-1.01351899609e-05
-5.11167520612e-06
0.00723759612645
0.00642355252187
-0.00930706156878
-0.00685786534365
-0.0198785102823
0.0151939425495
0.00893304146307
0.00917601454338
-0.0144643876939
-0.0036853719201
-0.00164940972819
8.53880899909e-06
-5.12579955064e-06
1.17633074076e-05
0.00234240078336
0.00375675061158
-0.00807028177392
0.00660462753391
0.010983347808
7.79245969521e-05
0.0127375500787
-9.30484023761e-05
-0.0127661879248
-0.0127333672422
0.000138411481756
-7.07102676756e-05
0.012718837792
6.22516651248e-05
2.36584532017e-05
-0.000142916685831
0.0118620475774
-1.17372100581e-05
-0.000152940227986
0.0118927648085
-0.0118978734101
3.33665183537e-05
-0.0127589081678
6.72079826495e-05
0.0118856043347
4.66957017587e-05
0.0127215906702
-8.18933698836e-05
0.0127049090591
0.000122058453311
-6.13191731072e-05
5.30859271012e-05
6.27854128868e-05
-0.0127075259127
0.0127030341211
-7.08040548582e-05
3.2570062301e-05
-0.000118652937706
-1.54935985969e-05
-8.99193920702e-05
-0.0118917966627
0.0118815981808
7.28649040981e-05
0.0127022150491
5.7851211289e-05
5.93914666805e-05
-7.04255984243e-05
-0.0126929694035
4.43308204545e-05
-5.58872241127e-05
0.0126924434268
5.2346174277e-05
5.53011299255e-05
0.0126934049645
-6.26746806834e-05
4.30725994233e-05
-4.08734965965e-05
0.0119139589988
-7.42572123682e-06
-7.43095162958e-05
0.0119119955669
8.01956126098e-05
5.14379517377e-05
0.0119212926842
8.99964843835e-05
0.0126936202662
-6.14359882077e-05
4.16554548028e-06
-0.0126995234963
0.0127023919999
-5.55995828874e-05
2.23458823819e-05
-0.0119502503371
0.0119774048598
1.60301172043e-05
-0.0119485349215
6.72041124335e-05
0.0119699095653
3.21238685134e-05
-5.17472265413e-05
4.38479186531e-05
3.30775423433e-05
-2.4589266837e-05
2.41595464265e-06
7.89706170031e-05
-6.07054260291e-05
2.70444821304e-05
-0.0126790492585
0.0126827500643
1.38776203582e-05
9.86006245622e-05
-0.0119599307884
0.0119688437609
-0.0119616854884
0.0119621922258
0.000134698088659
3.09019942778e-05
5.08154786362e-05
-0.0126897558101
-5.36470396214e-05
-0.000105028493241
-0.0119494009859
0.000136205102948
-0.0126863575421
1.74926883757e-05
-0.0119403045961
-0.00905086764009
0.00261476286465
-0.000190133396164
-0.000207830379419
-0.000198145860652
-0.000193770810957
-0.00328072916031
0.0110558621097
-0.000549038305823
-0.0213260967694
0.00240817173577
0.0272387279241
-0.000919570695388
-0.0168410191825
-0.0082981678221
-0.000161897177746
-0.000141294440077
-0.000154831200846
0.00245107286941
-0.00126840355629
0.0245582608351
-0.00845558803284
-0.00018134725357
-0.000191502469377
-0.000178875322342
-0.00938576088989
0.00436229605775
0.00166235349738
-0.0134672457002
0.0023972367957
0.0182490002432
-0.0149815825907
0.00403038328677
-0.000121676552947
0.00423400016524
5.81223066802e-05
4.36085314492e-05
6.3984537596e-05
7.63948283453e-05
0.00502636914277
-0.00228770367933
-0.0191266422424
0.0054236585239
-0.0152025068586
0.00157052758016
0.000241522994664
0.000451890453843
8.50046309276e-05
8.47032371701e-05
6.48338837326e-05
7.5563532064e-05
0.000785867380138
0.00244484640771
-0.00118615450328
-0.017546301387
0.00400086926334
0.000243229407742
4.28717982681e-05
5.12456058936e-05
5.47031899677e-05
-0.00788312436818
0.000895865446012
-0.0142136698351
0.00169040722255
-0.000137912652557
-0.0128875719752
9.62139393779e-05
0.0128534536753
0.000149676043993
0.012899937823
0.000148931755712
-0.000136569704364
-0.0129252839029
-9.21914151288e-05
1.26455173157e-05
0.0118736499109
-4.6488130109e-05
-5.19308619248e-05
0.0119088834994
-0.0119754878791
-1.18441757384e-05
0.0128651062583
-0.000126404817615
-0.0129164974814
0.000161680940535
0.0118730919825
-1.04325603173e-05
-0.000127891097484
0.0128234246952
0.000106739202004
0.00013788868726
-0.0128361466006
0.000114216639073
-0.000106627129288
0.0128035257173
-0.000101664536525
1.73633040338e-05
-4.80499995223e-05
-0.000139270841853
-0.0118244740274
-4.30512277987e-06
0.0117975372421
-0.000118081658715
0.000122808890782
0.0127921120558
-6.26005251768e-06
0.0118717552088
1.96613268538e-05
-1.90814701075e-05
-0.0119059709931
-0.000178575400329
1.39694250915e-05
0.0118403202878
-1.17486036977e-05
-0.00011524469473
0.0127745497109
0.000103460210535
0.0128138535189
0.000136682413059
-0.0128441816943
-0.000160688597846
-0.0118455911523
0.011817671009
0.01278559306
-0.0118894064392
-7.44782640141e-07
0.0127146490267
-5.46461923516e-05
-2.61581139537e-06
0.012002271377
4.15252554722e-05
0.0119939886086
3.96693762992e-05
-3.39777677491e-05
-1.16379868803e-05
0.0127235700434
1.87662642319e-05
7.82915627893e-06
-2.64268236743e-05
0.0120150286441
6.70238393919e-05
0.0127250953319
-5.14306384604e-05
0.0120083928135
1.50311624602e-05
-2.67995875618e-05
0.0127398094791
-1.3145546416e-05
1.0978002375e-05
-0.0127398679127
2.50969903093e-05
0.0127519783814
-4.8385778459e-05
7.55066372977e-06
-4.90812853553e-05
8.81881515406e-05
1.28151666022e-05
-0.0120093081899
-3.45729918402e-05
0.0120092318226
-4.76850038554e-05
6.65617292274e-06
0.0127516854556
-8.37607334922e-06
-0.0126899266061
-2.17195162114e-05
-7.56724201891e-06
-5.6106672044e-06
1.03130077752e-05
3.55851446168e-06
7.81757290635e-05
0.0119931989011
0.0119812690593
0.000112970329841
-5.72231888148e-05
0.0119904501005
9.02086412146e-05
-2.20233814371e-05
0.0127148389774
0.0120053955376
0.0120082493238
-3.1645595546e-05
6.31341687771e-05
4.30894281426e-05
-3.65936106745e-06
0.0120184543985
3.51794948489e-05
9.66122470206e-06
0.0127488813507
-2.01038386034e-05
0.0127353859435
-2.70055968658e-05
2.46783315189e-05
-0.0120138791849
0.0120158096167
0.0127500424692
-4.94071006999e-05
-4.87797115644e-05
-1.2091027808e-05
-5.72475394528e-05
0.204534221314
-3.56471200036e-05
-0.000118863257582
3.54297290077e-05
-4.12891970125e-06
-1.30260905047e-05
-1.22906546699e-05
-1.04392376949e-05
-0.000104163703344
0.0511574719842
3.33403057518e-05
-0.0027078050859
0.000712274325781
3.42538053935e-05
3.65767379709e-05
3.13242723913e-05
0.00185970917244
-0.00788260751802
0.00556072062233
0.00618515274783
0.00669984044134
0.0492603731548
-0.00641320895808
0.00594022274939
-0.00197461622607
0.000115269626495
0.000121687720299
0.000109761018512
0.000123988443018
-0.000294501631589
-0.000433393513189
0.051112612271
0.000167906962235
-0.000164349127099
-8.47609190788e-07
0.0118364376726
0.0511343335339
-3.37391027341e-06
-2.4380013218e-05
-1.422381909e-05
-1.41567538637e-05
-3.24671705804e-05
0.0511441832623
6.53313555584e-06
1.21430199669e-05
1.8601127638e-05
-3.03702227693e-06
-2.05416689809e-05
-3.58225092026e-05
5.51997570607e-06
0.0120009268399
-8.98987424957e-05
0.000124323288945
-6.12605736009e-05
3.5104406676e-05
1.51929083786e-05
0.0120122540105
1.71355730511e-05
0.0120094127379
1.85880241715e-06
-2.77046802524e-05
4.98306584421e-05
-0.0120096673593
-2.39738444221e-05
0.0511160417177
2.42495151999e-05
1.59530491661e-05
1.91675547082e-05
2.41048495747e-05
-1.16117167863e-05
-2.85987713157e-06
-4.09793864225e-05
2.29003874491e-05
2.71542267286e-05
2.67486011914e-05
2.21081498078e-05
-2.33775830173e-05
3.5808682209e-05
0.0510640037069
-5.94124735699e-05
2.87342532999e-05
-3.85027640432e-05
6.21045807011e-05
0.0119948993013
-3.8016142374e-05
3.58584160732e-05
-4.59740292391e-05
9.28291401654e-05
-0.0119808136184
0.0119735987307
-7.55399547557e-05
-0.000158360051648
-0.000143638914496
-0.000138423803456
0.00502926734948
0.00121962973145
-0.00731387394569
-0.0019840014728
0.000573236590865
4.17369223378e-05
4.89490749067e-05
2.93893507463e-05
-0.000692268619476
0.000529209964184
-0.00374515766303
-1.36711520143e-06
1.23929972344e-05
1.02556450435e-05
0.00496509762535
-0.00375261178482
0.00160705805235
-0.000289647617147
-0.00925831854908
-0.0107372287413
0.00157173629166
0.000965842453457
-0.00469825381814
0.000239286687852
-0.00456250290307
-1.89163465908e-05
-2.61079152991e-05
-1.70076279662e-05
0.00577985493066
-0.000475454678663
-0.00439633231224
-1.4490802491e-05
-2.20420219563e-05
-1.23912491653e-05
0.00476419691779
-0.0012147658931
-0.00452977127795
-0.00349727232986
-0.0127521496969
0.000142038478686
8.8279312295e-05
-9.63480888721e-05
0.0127334473894
-0.000103787745821
0.0127426020719
-0.000150548807866
0.0118159519639
-6.91289601364e-06
-6.40633971504e-06
-0.000148471367774
0.0118358917936
-0.000111159073469
-8.17476917551e-06
0.0118213432116
0.0127244546889
-2.52977781785e-05
-0.0127656471365
1.02962129682e-05
4.90327424933e-06
0.0127716067992
0.0127660103836
2.6665125873e-05
-4.81906971119e-05
1.42477363385e-06
-0.000103291658145
0.000137657043281
0.0119994088917
3.47174429789e-06
0.0120031061431
-5.06315387433e-05
-4.18886294754e-05
0.0127717533778
5.72506788376e-06
-6.33923451149e-05
0.0120048530213
-0.0127655374114
6.2668432894e-06
-8.80155793448e-06
0.0127696074968
1.18675913117e-05
0.0127702235735
-2.2520231738e-05
1.21438292633e-05
0.0120099691438
3.19020168696e-05
7.52215751315e-06
0.0120203024802
1.36557276118e-06
0.012014090577
0.0127734137427
-1.87175658918e-05
0.0127705254261
1.54754327253e-05
-5.08802262485e-06
-4.79207969809e-06
3.22001308946e-06
-0.012775070114
0.0127682531542
-1.21739662131e-05
-3.17174511095e-05
-0.0120095323258
0.0120076568237
8.20626742763e-05
4.3243689661e-05
-3.46089648417e-06
-1.69816770231e-05
0.012765091818
-4.51183693708e-06
7.34641869061e-05
-1.33853557153e-05
-0.0127530666155
3.55097035097e-05
4.33404223482e-07
0.0127443399592
-2.97774231078e-06
1.5730095005e-06
0.0127530953689
-9.08226953217e-06
-3.5219224786e-05
0.0119945924175
9.14355735548e-05
6.99587104749e-05
-4.19451100994e-05
0.0119864809831
-4.58013394356e-05
-2.52562290623e-06
0.0119864191255
9.65984905588e-05
0.0127418494831
-6.27201433794e-06
0.0127346037978
3.11253730362e-05
-2.986997176e-06
4.46963642484e-06
3.48560083925e-06
-0.0127314916856
0.0127173809657
-8.28746639892e-06
-3.61258556393e-05
-0.0119791965668
0.000119415786126
0.0119742132966
8.03576919418e-05
-3.77191234164e-05
-5.90338020658e-05
7.51713167277e-06
0.0127211202172
0.000106296379208
-8.30370332623e-06
-0.000522288249989
-0.0495401164162
0.0493684946059
0.000598863165519
6.40032108981e-05
5.03535861529e-05
7.17787352314e-05
4.71035591722e-05
-0.000138678182406
-0.000582708770222
0.0498044923968
4.51636969405e-06
9.15918950745e-06
1.56738817792e-05
1.02523617701e-06
8.08843444335e-05
-0.0498650014523
0.000531956068448
-0.000889108998392
-0.0498208366978
0.049947781794
0.000780330007973
-0.000106751848498
-6.12326691328e-05
-8.67527732056e-05
-7.99677930384e-05
0.000316527102807
-0.000735235997262
-0.000153889629518
-0.000125299464541
-0.000151606898941
-0.000124199340347
0.000418681545172
0.0502150627859
0.000717170440743
-0.0500606559273
-7.28702432843e-05
-0.00332364808574
-0.0128201817818
0.0162694254665
0.00623533280715
-0.00608258255988
-8.03757433986e-05
-6.67432853073e-05
-7.03952410736e-05
-4.81201354833e-05
-0.0178042584469
0.0133070507625
0.0105808186796
0.000747139026005
-3.79431507006e-05
-4.26291357116e-05
-2.2171225524e-05
-0.00668166370541
-4.49166289689e-05
-0.00850985372492
0.0078473897984
0.000281992853425
-4.58780390755e-05
-2.89500648877e-05
-2.30996572989e-05
-0.00767173164201
0.0081946368283
1.6765782766e-05
-0.0114718140159
-0.00560351346163
0.000865073218948
0.00734273427473
0.00867225391124
5.84043877416e-05
3.72123976317e-05
8.24340632913e-05
9.6734010664e-05
-0.000274099206506
0.000142469113452
0.000108154813725
0.000150992228351
-0.00628054230217
-0.00515135700002
0.00929202980341
0.00191602436638
0.0749702365783
-0.00946412761554
0.00885407632135
0.00975279221659
0.00888997153132
0.00897991423268
-0.00376645891788
-0.0433803081298
-0.0339491319506
-0.00393219470731
-0.0164631757698
-0.00519549553555
-0.0161146466486
0.038745060595
0.0172480451317
0.0799849326626
-0.0245383214526
0.00812673453239
0.00689430957086
0.00624846524971
0.00354941643515
-0.0390208104058
-0.0388040461348
0.000266307529915
-0.0122799028807
-0.00625831058439
-0.0128242232343
0.13914840499
0.0649163476892
0.00160813119996
-0.00354363112411
-0.0066013806504
-0.0289104428153
-0.0114535393906
-0.00479047945255
-0.00724377098341
-0.0107299345959
-0.00929531606448
-0.0105350142085
0.0909974523896
-0.0105540470528
0.000201978060865
2.60623806057e-05
3.95816270968e-05
4.24510441609e-05
1.96502916485e-05
0.0492300132374
-3.88064326514e-05
-3.75153788121e-05
-0.0494835258196
0.0492283776754
0.000367443334149
2.57252634219e-05
5.16661959232e-05
4.43540267144e-05
3.07331861701e-05
-4.45171613764e-05
-0.0495019781181
7.43603734367e-05
-4.24031339893e-05
-0.012050544389
6.11780252069e-06
0.0120090996845
3.31678906978e-06
0.0120374864637
4.84152631111e-05
7.08518426382e-05
-5.24606783547e-05
-3.38139845621e-05
-0.0120705084622
8.04126676675e-05
6.42003893091e-05
6.5128697537e-05
8.50135420068e-05
-0.000314057892702
0.0122906365088
0.0122095041982
0.0121805420586
0.0122090234355
-0.000164451517044
6.41865165731e-05
7.04305496559e-05
-6.97855491956e-05
-4.62369694768e-05
0.0120189771033
0.000442596365953
3.00545048677e-05
5.04859204863e-05
3.1312510348e-05
4.82897469357e-05
-0.000131619720914
-0.049643829055
0.0496939438647
2.51663028956e-05
3.2563594944e-05
4.00220342578e-05
1.86564249622e-05
-0.000118968201546
-0.0497459913742
0.000497144258817
0.0120511786724
6.95519601415e-05
-5.40581768149e-05
-0.0120802670892
6.2048469693e-05
0.0120880344957
5.25984273129e-05
-3.20191042288e-05
-7.43428116755e-05
-0.0121121871293
7.79589969994e-05
0.000813684711186
5.81682022663e-05
7.41884291311e-05
6.48570175368e-05
6.49715564149e-05
0.0491374863474
-0.000197105529768
-0.0001564221947
-0.000185163745239
-0.000147714546228
-5.67157653099e-05
-3.33415300913e-05
-3.8933988186e-05
-2.95708785792e-05
0.0495641864302
4.93977338509e-05
2.77119695942e-05
3.59708225034e-05
3.84091276674e-05
-5.85738251827e-06
0.0495579795794
0.00072736676076
3.73011374511e-05
2.34841158921e-05
3.795383801e-05
2.6449207129e-05
-3.28379133345e-05
-6.6967426146e-05
0.0120326506794
7.66744144485e-05
0.0120305059784
7.1516477502e-05
-9.2361833006e-05
-0.0120238669608
0.000137827484178
-0.000123680200799
8.9047037632e-05
5.22664925883e-05
-4.01155114177e-05
-9.02278187671e-05
0.0120769830924
0.012085353314
0.000142289244259
3.35104658684e-05
-3.79694285546e-05
-0.000145190203082
-0.0120780543867
0.0496456133779
-2.24740401835e-05
-1.85467086939e-05
1.17022940007e-07
-4.41035585382e-05
-0.00101604312417
0.000124177982824
0.00113289603377
-8.66315568205e-05
-0.000154849218664
-0.000108358535915
-0.000130927492297
0.0503291961524
0.000135886883978
-0.00147169249259
-6.83381700876e-05
0.0120328487731
0.000159758113429
-0.000141939956254
-0.000131381173163
0.000113128740887
-0.0120324402101
0.000232407117917
0.0120372860229
-0.000219113360843
0.000154243153825
1.71004381204e-05
-4.33949887915e-06
-0.000162900237567
0.012081352165
0.000191903839016
-0.000190673656212
0.000220364617134
-0.000219157816323
-0.0120858913093
0.0120834573277
0.000642967819434
-1.51716981212e-05
-7.69554506415e-06
5.14297246683e-07
-2.66703749105e-05
0.000117005729823
0.0499636573246
-3.89184375202e-05
-6.24685804532e-05
-5.1176009294e-05
-5.08403327094e-05
0.000189034894872
-0.0499209004437
0.000614485850192
-3.37557496306e-05
0.0120932054586
8.5227048811e-05
-0.0121005818752
0.0120996989576
1.7045087106e-05
-1.30353789376e-05
-0.0120974722649
0.000136140278948
0.0121237722874
-4.47714126605e-05
6.72161939357e-05
-0.000110919431735
-0.0121295093982
9.42664072783e-05
0.000935476024861
-0.000166028398037
-0.00020860531392
-0.000155357766939
-0.000223792703233
0.0503756118562
0.000523325807774
0.0501168272543
-0.000130719667871
-0.000112748466441
-0.00010302110593
-0.0001411729864
0.000379595483966
-0.000184069503134
-0.00025313738931
-0.000188883185323
-0.000244199389341
0.0504671083099
0.000837610146837
0.000617916351464
2.85819617506e-05
0.0120961958456
0.000145655889281
-0.000214753245924
0.000254986749073
-0.0120859820633
0.000163056121733
0.0120746175534
9.70957301915e-05
-8.1051832642e-05
0.000113000371129
-0.00011418568946
0.0121089073791
0.000116554326682
-0.000309284928131
0.000330630243951
-0.000120887195431
-0.0120827047437
0.012065537091
0.000125811479232
0.0121090092322
8.12464583088e-05
-0.0121223585135
0.000315923051826
-0.0120863673855
0.0120724653748
-0.000289758405201
0.000104367077667
-0.000328111227976
-5.51268156871e-05
-7.57519650681e-05
-5.70728018454e-05
0.012328408507
0.0015360366057
-0.00920574949025
-0.00406822011615
0.0127133391986
0.00157728228586
-6.44911598628e-05
-5.36086791971e-05
-4.81711257478e-05
-0.00998091536413
-0.00440160888054
-0.00597102017365
-6.83863837738e-05
-8.50450497346e-05
-7.8341650999e-05
-0.000846362374019
0.0165071759389
0.0103037612503
-0.00233300990121
0.00590543358946
0.00224066391041
-0.00731266062379
0.000178038794038
0.013863534223
0.00699763103522
-0.000977714181502
0.0115432723343
-0.00336540003642
-0.00768131810905
0.0158497638414
-0.00143736014458
0.00625483152971
0.00698448689247
0.00154079942172
0.00399242417894
-0.00260593373992
0.00391931787389
-0.00131685816577
-0.00560550476966
-0.0064460539883
0.0121022714511
-0.00264552305104
0.00274592713685
0.000419348424487
0.00526467767013
-0.00577981673623
0.0045228981652
-5.603718108e-05
-6.55245859734e-05
-5.64803279138e-05
-0.00535724790035
-0.0101627391912
0.0107755228105
-7.03642066799e-05
-4.43453546162e-05
-6.21886118515e-05
-0.00821595873448
-0.00465798762612
0.00685018025242
0.00841065396398
-0.00460913031566
-8.01541627508e-05
-6.5523312794e-05
-7.01018848946e-05
-0.00507817896205
0.0128198051107
-0.00407316973124
-6.70736358848e-05
-5.55595803701e-05
-7.12623191554e-05
-0.00126583531707
0.0121110129323
0.0105904237917
-5.76876977411e-05
-4.97506362337e-05
-6.41925509007e-05
0.00960150076631
-0.00368349872815
-0.00723568109869
-0.00242965410778
0.0128783100183
0.00934943649517
-0.00357445415275
-0.00732451520872
0.0120771730602
-0.00287109399317
0.0106302524796
0.00846698188857
4.24843266055e-05
0.000159628739699
6.88469960083e-05
0.00139411312749
-0.00761037600382
0.00615827183108
0.00507797055418
-3.59711913702e-05
3.01436117684e-05
4.91316629869e-06
0.00843991976073
0.0093309612536
0.000163569301779
0.000121059566915
9.46296648854e-05
-0.00155340627676
0.0134728326747
-0.00212296530877
0.00107988351804
0.00900181464762
0.0108533184398
-0.00210690882218
7.71059165606e-05
0.00745325946936
0.00850635522199
0.00438689360986
-3.52979633472e-05
2.34939307564e-06
-1.14792657626e-05
0.00903040806101
0.0021288887832
2.78221111306e-05
2.48536917768e-05
8.54410092765e-06
-0.00450904203868
0.00174782415792
0.00694694139749
-0.00560494024783
-0.00304754949592
-0.00306782606174
0.00799636293182
0.00760064169215
-0.00535271507192
-0.0028956606596
0.00414768109376
0.00831289269709
0.000147164902151
0.000240745128138
0.000162566138551
-0.00303054088653
-0.00164985999504
0.0104583441955
6.71045042803e-05
0.000127388233894
0.000111235898787
0.00831973545935
0.000283608218113
0.000228538506455
0.000197820404384
-0.00482247656307
-0.00201623045513
0.00922130583209
-0.00190055188525
-0.00149334508731
0.00838638493484
0.00941268140838
-0.00255848245497
0.00843921053881
-0.00275087062821
0.0124323596661
1.88562787005e-05
-2.86239699822e-05
4.51674529421e-05
-0.0124417132721
3.75244133435e-05
-0.0124279090922
0.0124011218493
-1.36469199284e-05
1.43342608596e-06
-1.0804559742e-05
5.23017613665e-06
-0.0121017555568
-4.64376785463e-05
-0.0120574086025
1.67715436483e-05
0.0120172100544
5.84914104894e-05
0.0124073495838
9.20850218711e-06
-0.012103629172
-7.94817244288e-06
-0.0124397985078
0.0124386621243
6.53668080757e-05
1.57253734794e-05
-0.0124488806402
-8.10347809471e-05
-0.0124480596192
0.0124327296029
9.54904446535e-05
-4.40527931298e-05
-0.0120625692357
0.0120249349852
-2.22030972102e-05
-2.22256197985e-05
3.56096734304e-05
-0.0121155644352
0.0124164102575
8.21375418184e-05
-0.0124563505866
-0.0121082737671
-0.0123896559867
0.000110139467843
9.04852212029e-05
-8.37969520379e-05
0.0123532141585
-8.94462081753e-05
0.0124080424526
0.000108395311853
-6.90126600673e-05
0.0120071729947
-2.78891749468e-05
-9.57057359154e-05
-6.02075269397e-05
8.01223450126e-05
0.0120097433755
-6.67793462659e-05
0.000130461641005
0.0123768762749
-3.84738913425e-05
0.0119976158172
-9.11128710703e-05
0.0124763965247
2.55946705278e-05
9.8086075339e-05
-0.0124789193819
-0.0124634062113
0.000103734853658
0.0124515655495
-2.62196071069e-05
4.81212939713e-05
-0.0121227245437
-4.93785836309e-05
-0.0120894925954
7.25112354021e-05
0.0120628583769
-0.0124673592933
0.000111144177238
0.0124678771544
5.75026857817e-05
-0.0121298672661
0.0124891605525
9.79584399159e-05
2.72181806685e-05
-0.012491122567
-0.00011113597808
-0.0125031118236
0.0124981311598
0.000116630977125
-4.667616353e-05
-0.0121023800353
0.0120767103814
-1.26761240474e-05
-6.0167732573e-05
-0.0121480157694
6.42203125515e-05
0.0124824886037
-0.0125031273816
0.000103921785051
-0.0121401484098
-0.000138000820381
-0.0124453714039
8.03806637246e-05
0.0124209860864
0.000146001533679
0.0124271841168
0.000116092036019
-9.3576396237e-05
9.62431640292e-05
0.0120297908611
-6.11923170022e-05
0.0120469127804
8.69263240789e-05
0.0123977290607
0.000124419605719
0.0120462734113
0.000107041424749
-0.000153472481404
0.0123977040284
7.76448235426e-05
0.000157126762895
-0.012367707492
0.000186413154186
0.0123413670856
-0.000178255578488
-8.84582852773e-05
0.000114050760471
-9.99788903226e-05
-7.85454664122e-05
-0.0120454545598
0.000145606634357
0.0120504599906
-0.000147150234103
0.00019003116238
0.0123803992802
0.000122121950598
-0.0124644776451
0.000141397737928
7.12791054893e-05
0.0124471549042
-0.000121917481448
0.0124818625745
0.000125692607654
-5.63452385589e-05
0.0120627954143
-5.29576798232e-05
-0.000109086158468
0.0120766866772
0.000106853792934
0.0124665071928
0.000142148950502
0.0120607272258
0.0124236289818
0.000149313560673
6.86630198415e-05
-0.000178069898725
-0.0124442335545
0.0124362065981
0.000171463913819
-6.38048258125e-05
-0.0120618614631
0.0120682851357
-4.8083496227e-05
-0.000125562484946
0.00012228641494
0.012409552466
0.000149771226558
-0.000239555758363
-0.0123652731872
2.01987992986e-05
0.0123733867993
0.000241142709784
-3.01735217328e-05
0.0123259397661
0.000201335820102
-5.14252310507e-05
-0.00020291513429
-3.8988731821e-05
0.000182563771206
0.012016095396
-0.000164549553539
-5.18143117941e-05
0.0120527082084
0.00016609857173
0.012335627819
-4.5421271783e-05
-0.000242998604413
0.000205976104448
-4.17378813929e-05
0.0120447359539
0.000187449593883
-0.000263902131062
-4.4474964574e-05
0.0124091449104
0.000270930127984
1.26821192128e-06
-0.0123813086333
0.000297966809175
0.0124847043125
-0.000310374948798
2.20121024494e-05
9.65197868682e-06
0.000204569604506
-0.00018834800485
-0.0120600648998
0.000140822881553
0.000246534596552
0.0120641211684
-0.000275121155337
-2.48869966867e-05
0.000212793563106
0.000302487607097
0.0125035342898
4.18653201022e-05
-0.0123934313205
0.0002148099208
-1.02319741929e-05
0.0124074648259
-0.000193543993231
0.012421105842
0.000185602267086
-2.8270665485e-05
0.0120637538609
4.78105041014e-05
-0.000184787800139
0.0120750153687
0.00017353045745
0.0124366827034
0.000202359836916
0.0120607908825
0.000244396075891
-9.28534491551e-05
0.0124399998242
-0.0124680042724
-0.000272237762871
0.000259543879289
0.0125461179541
-0.0120777655754
0.000189946302104
0.0120792243188
0.000129046280028
-0.00019763803051
0.000178751407303
0.000233580025732
0.0125293235189
-0.000130794765834
-0.0125062893885
1.97902356532e-05
0.0124935476174
0.000128251360059
0.0124965284153
0.000115947593603
-0.0125114746318
-4.21171653624e-05
0.000101254792069
0.0120950912266
-1.63992114403e-05
0.0121069144571
-0.0121153314412
8.10846730294e-05
0.0124813496896
-0.0125215646424
0.000115717648807
0.0121092755326
9.55173594891e-05
-0.000138767971276
0.012476290494
5.28643291146e-06
0.000135534397855
-0.0124614743522
0.00015579834507
0.0124562515182
-3.11725376937e-05
0.000115646171405
1.40611923658e-05
-0.01211016808
0.000123914236648
0.0121105813016
0.000148583001999
0.0124705522937
0.000108373509526
0.0124875972827
0.000132052692713
-1.79453502883e-05
-0.0125052141374
-0.000144900881811
-0.0124998370922
0.012499027152
0.000150336956657
4.43382636282e-05
-0.0121242047221
0.0121206628162
4.13911110098e-05
-9.89876689792e-05
-0.0121323879275
8.52953415269e-05