/*--------------------------------*- C++ -*----------------------------------*\
| =========                 |                                                 |
| \\      /  F ield         | OpenFOAM: The Open Source CFD Toolbox           |
|  \\    /   O peration     | Version:  v1906                                 |
|   \\  /    A nd           | Web:      www.OpenFOAM.com                      |
|    \\/     M anipulation  |                                                 |
\*---------------------------------------------------------------------------*/
FoamFile
{
    version     2.0;
    format      ascii;
    class       volVectorField;
    location    "9";
    object      U;
}
// * * * * * * * * * * * * * * * * * * * * * * * * * * * * * * * * * * * * * //

dimensions      [0 1 -1 0 0 0 0];


internalField   nonuniform List<vector> 
28582
(
(0.815889320377 0.00411519703629 -0.000241514243363)
(0.816469611141 0.00301967034904 -0.000220335546403)
(0.816336079864 0.00419074915283 0.00117940690269)
(0.81656921151 0.00298192704177 0.000655563806345)
(0.816096881197 0.00371552183871 0.00193292748459)
(0.81610827617 0.00266293103899 0.000767689750126)
(0.818232649066 0.00567770033178 0.00499839605842)
(0.816205688324 0.00385624666166 0.00143812064082)
(0.0625629232301 0.0108518148818 0.0107749859968)
(-0.0415845852791 0.0201732789524 -0.0156600817417)
(-0.589003864197 -0.0809427845234 0.033876342707)
(0.816374872647 0.00429324412471 0.00389945967085)
(0.75970209161 0.000310352866757 0.00916534737033)
(0.759846453606 0.00183000131109 0.00714947970357)
(0.815630963492 0.00310953714905 -0.000404077938374)
(0.815076408298 0.00203917530141 -0.000317115166855)
(0.760469596212 0.00139562250693 0.00638874087053)
(0.812733247925 0.00281363500519 0.000294954445482)
(0.812206657975 0.00220764109514 0.000950273480284)
(0.815513916386 0.00750001992017 -0.000612618602285)
(0.817316272523 0.000787452633603 -0.00020551439891)
(0.816472690616 0.000164189942022 -0.000443051565406)
(0.816375047029 0.0077278033902 0.00030477048528)
(0.817180018745 0.0012025249572 0.000369293743091)
(0.816556578494 0.000132495566572 0.000329493036272)
(0.818249808762 0.00789082018207 0.000796311804468)
(0.81709151523 0.00105925671015 -0.00021529615633)
(0.824012147382 0.0096395285592 0.0032456873112)
(0.815854516134 0.00235149051415 -0.000665196849209)
(-0.105166396745 0.0129042073628 -0.0153549396164)
(0.230520002643 0.713201527773 -0.416161798088)
(-0.21068665908 -0.267130393263 -0.344815447722)
(0.821640248682 0.00770170013942 0.00657165828111)
(0.820220017762 0.00767836439938 0.00657191371721)
(0.764626610165 0.00226097618107 0.00140347008671)
(0.75662209377 0.00304886803344 0.00667940347632)
(0.820549576121 0.00798099959726 0.00914086241564)
(0.817204978581 0.00150986196226 -0.00108839329318)
(0.815110568819 0.00121862854362 -0.000975353876195)
(0.816643627952 0.00024041952302 -0.00164348915965)
(0.813150370445 0.00215529923018 5.25068149861e-05)
(0.768529486006 -0.00661452574357 0.000309078173178)
(0.812672987499 0.00140745765863 0.000278012997547)
(0.813775068783 -0.000635823740809 -0.00208557472768)
(0.0945843864602 0.0133254194539 0.00312731598534)
(0.135828319878 0.0854828470792 -0.0102037556389)
(-0.279956762171 0.123810476762 0.00255358046882)
(-0.180098697907 0.0773704089449 0.00194054362983)
(0.05696984479 0.0177760349161 -0.010353785885)
(-0.134817031796 0.134863153156 -0.053472794852)
(0.816533652524 0.00558058380476 0.00987114592884)
(0.814515758273 0.00430026016359 0.00956485362042)
(0.759466080422 0.00108026665903 0.00878572304796)
(0.761359035892 0.00108978606533 0.00908074284863)
(0.816084125044 0.00468172132992 0.00978746114028)
(0.761213206889 0.00201035940059 0.00885761999029)
(0.814800317874 0.00501254321515 0.00968185658015)
(0.814079388102 0.00366931909969 0.00864024747625)
(0.813372676212 0.0044793226408 0.00671387125567)
(0.759523930503 0.00134418507986 0.00817142410453)
(0.760911720686 0.00360129718854 0.00688928029925)
(0.813238612869 0.00388976672281 0.00667889270735)
(0.761037735405 0.00281991203894 0.00852848137056)
(0.814228936999 0.00440040152249 0.00826144349767)
(0.812375079119 0.00353519673833 0.00324611812862)
(0.812623071856 0.00389451987831 0.00568172965923)
(0.761919692371 0.00106007775927 0.00398936637493)
(0.761440362349 0.00396143046306 0.00604681548052)
(0.812536768573 0.0034620443414 0.00561729966407)
(0.762460391084 0.00456678152251 0.00426174984632)
(0.812370903157 0.00388468398168 0.00287530042112)
(0.813021127397 0.00326441069464 -0.000180171768079)
(0.765726584422 -0.000460390215612 0.00114672792813)
(0.765299145802 0.00331528336936 0.0016488610782)
(0.812624484086 0.00317535651047 0.00241567050434)
(0.763829704237 0.000356669901335 0.00250802749171)
(0.764128702429 0.00398195115968 0.00325178448825)
(0.812763877002 0.00369703386814 0.00190776903473)
(0.8117145305 0.00135253919929 0.00136373038688)
(0.76613411795 0.00504250386479 0.00282629494219)
(0.765876823634 0.00786023787802 0.0037935675328)
(0.812304701319 0.00248860631465 0.00351126422733)
(0.76524471649 0.00808328107204 0.00534232785967)
(0.811983461078 0.00160762663243 0.00351100226785)
(0.764915229034 0.0056598087638 0.005024371907)
(-0.0910331148505 -0.025022982567 0.0214469201998)
(0.0458954557455 0.448709469731 -0.266935576295)
(-0.335585083433 -0.0248692410277 0.0258421380698)
(-0.188471158653 -0.0630909125869 0.024623087276)
(-0.00356259005332 0.26483387259 -0.250501876839)
(0.0717896440921 0.304864077631 -0.263484755438)
(0.0920790004495 0.0533087977642 -0.0152323947571)
(-0.331040391073 0.0567993943737 0.0274590766882)
(-0.268747847877 0.0083168908748 0.0313028041343)
(0.0428531706188 -0.000157578874412 -0.014981116329)
(-0.30870773236 0.0427055883204 0.0332966254555)
(-0.117621095199 -0.0130110797631 -0.0107806266941)
(-0.236402389853 -0.0112967608126 0.0367821518662)
(0.824045608103 0.0091948752252 0.00643374191395)
(0.826319231396 0.00906160466722 0.00216811946063)
(0.761494657809 0.00242090976691 0.00311181065858)
(0.764633266601 -0.000676311543268 0.00177723416374)
(0.824817419685 0.00838428845509 0.0059905437692)
(0.82566356017 0.00994386422096 0.00261279529473)
(0.761314676002 -0.000625796137659 0.0031754805468)
(0.82170357707 0.00857975597075 0.00626553838685)
(0.82029792095 0.0069615092063 0.00878419257193)
(0.75828470967 0.00272403438575 0.00449448683608)
(0.756416668698 -0.000107053246379 0.00654571615915)
(0.822486016283 0.00775825926399 0.00591023861661)
(0.819561475009 0.00766330605941 0.00907442628756)
(0.758444447474 -0.000259845547371 0.00481807417736)
(0.760990683463 -0.00165046399288 0.00803015378209)
(0.759104608292 -0.0011894625571 0.00944039496854)
(0.818206445398 0.00700558671542 0.0112812010831)
(0.8211090632 0.00872279331901 0.0076442434137)
(0.757641776797 -0.000427885084086 0.00815520329508)
(0.818951188973 0.0078261427246 0.0100582404365)
(0.759579846398 -0.000641368867215 0.0069205689767)
(0.813475997615 0.00305168619521 -0.000196210947894)
(0.767346424875 -0.00210725007593 0.000251416301114)
(0.766858530635 0.00170611149674 0.000441986804473)
(0.813743451674 0.00178712380835 -0.00109808562432)
(0.76823895652 -0.00367478087412 9.85137673981e-05)
(0.813875008359 0.00285177173638 -0.000964867059291)
(0.767781488394 9.75811512119e-05 1.74624090036e-05)
(0.814629491734 0.00124979418075 -0.000937814979428)
(0.815761031425 0.00259858146765 -0.00135672792188)
(0.768658102389 -0.0051840326899 -0.000105561421764)
(0.768385947016 -0.00320324860878 -0.000270009197018)
(0.814781256085 0.002526026866 -0.00085349110893)
(0.815807362419 0.000944463701855 -0.00146127998639)
(0.768315202866 -0.0014745523334 -0.000412974519051)
(0.81274580051 2.24207422955e-06 -0.00190859519084)
(0.81218819132 0.000602566831891 0.000523330494239)
(0.766874722525 0.00346472347801 0.00110125896615)
(0.766304493831 0.00654657945915 0.00196890000513)
(0.767297557556 0.00526932308292 0.000293832445871)
(0.813304365976 0.000889835570275 -0.0016267078926)
(0.767857249404 0.00188204484353 -0.000237269476872)
(0.767823754612 0.00363423102671 -0.00121547506355)
(0.768281452987 0.00176347898532 -0.00142170656547)
(0.815358936333 -0.000990045241032 -0.00310567617733)
(0.814093975647 0.000336839584735 -0.00147926669922)
(0.768446696702 -0.00129216461992 -0.000750631742705)
(0.815642751466 -0.000128893081992 -0.00201805979043)
(0.768349011609 0.000308440001385 -0.00117497979875)
(0.817454329384 -4.80253133106e-05 -0.000417289376174)
(0.817938786029 0.00134413163097 -0.000680623950832)
(-0.131092162569 -0.0423381520652 -0.00798278592627)
(-0.0813675258185 -0.102411151269 -0.416755746138)
(0.819749222718 0.00684553343361 0.00541679387704)
(0.757744461197 -0.000235727313507 0.00928318526523)
(0.8171642951 -3.65311088018e-06 -0.000619398531284)
(0.817812554157 -0.00027328004535 0.000111187415998)
(0.768474923024 -0.0076453556424 0.000257008923269)
(0.768958807383 0.0005956429833 -0.00153581332643)
(0.768536167178 -0.00221931297708 0.00140950436197)
(0.817834530445 -0.000454894513313 5.42181576669e-05)
(0.817351996825 -0.000838228562469 0.000236520578452)
(0.76832150451 -0.00302083115272 0.00225196227408)
(0.766568441998 -0.00540559228987 0.00243593342237)
(-0.00825519675838 -0.0589405905809 0.0127097445436)
(-0.0159227161304 -0.0456793561669 -0.00783544624154)
(-0.049925692264 -0.0825039171253 -0.002597743869)
(-0.189678544847 0.0384080515928 0.0414515084023)
(-0.213730322233 0.0131502201092 0.0324357156881)
(-0.141843785631 -0.0146345558072 0.0233312064197)
(-0.070537458092 -0.0885860910795 0.0014017146278)
(-0.068708853389 -0.0782793113362 0.00139153869765)
(0.815703387276 0.0061633109253 0.00948534058287)
(0.816967011785 0.00630802976385 0.0102562104438)
(0.756280882541 0.000388341926467 0.00847768146336)
(0.757505888489 0.000373796018929 0.00858609894213)
(0.817729146327 0.00715759912672 0.00913128245539)
(0.756387836591 0.000513180278649 0.00806885672153)
(0.815115129255 0.00548700081346 0.0102826422876)
(0.817260120724 0.000782300762387 -7.32700537416e-05)
(0.81647736459 0.00275460706898 -0.0011404265901)
(0.768155942546 -0.00835819237288 0.00065938991588)
(0.768548567497 -0.00429451268647 6.80741060899e-05)
(0.817256483518 0.00261417096846 -0.00101879796173)
(0.816499942457 0.000927246178616 -0.000774915095552)
(0.768490565761 -0.00502480692966 0.000996519854613)
(0.817069354467 -0.000117136969514 -0.000119523243969)
(0.816246989865 -0.00120745205718 -0.00250578971632)
(0.768931500939 -0.00236442240227 -0.000521429641617)
(0.768893786932 -0.000608479623413 -0.000360520094577)
(0.816304952108 -0.00022120756392 -0.00128504187288)
(0.768989107403 -0.00336893705769 0.000621810320393)
(0.817302652124 -0.00104368523045 -0.00112736310841)
(0.817205744378 -5.22640942662e-05 0.000484652609436)
(0.817175334292 -0.000585962042019 0.00126819817378)
(0.768417807025 -0.00443870092661 0.00165883155979)
(0.769093191536 -0.00179675499076 0.000444238881858)
(0.816910904307 6.14246872435e-05 0.00168729358249)
(0.768900828006 -0.00398800709376 0.000950297413726)
(0.817499507757 -0.000682940711739 -0.000289546532888)
(0.815919288115 0.000224320047761 0.00242547400454)
(0.816666715642 -0.000370314240765 0.00176442537661)
(0.768097029668 -0.00506752893624 0.00182812721005)
(0.767797078601 -0.0035955109742 0.0021887896356)
(0.816495516822 8.86624552207e-05 0.00197736482366)
(0.767685613257 -0.00545236046254 0.00163242738523)
(0.815887548369 -0.000190955507058 0.00250366256339)
(0.815475456685 -0.00015770958285 0.00239005509121)
(0.814626530988 -0.0002671489174 0.00287812081654)
(0.766535138148 -0.00679341421757 0.00128917701151)
(0.767114089515 -0.00436455585182 0.00186255467386)
(0.81481278286 -0.000287083868139 0.00283196062452)
(0.767046184791 -0.00603060116904 0.00108986617883)
(0.815200165262 -0.000326039581943 0.0023484142339)
(0.793441325969 0.00899107188913 0.00279298201097)
(0.798420721771 0.00908046813659 -0.000673760962921)
(0.79834948674 0.0136866695201 -0.00549975085653)
(0.802028827149 0.0116313113689 -0.00758947496348)
(0.229649974156 0.0768349989352 0.00321885068961)
(0.268464899733 0.139455618098 0.000486325985172)
(0.127794975677 0.144063130543 0.00185501144883)
(0.0551637185311 0.172103152492 -0.00325783815648)
(-0.0632694113458 -0.0438426833605 -0.00901596244043)
(0.218321998544 0.00110907685231 -0.208648801844)
(0.409802561158 -0.124387316616 0.382059555986)
(0.158215355435 -0.0893913155862 -0.19047984551)
(0.566242498198 -0.180780433647 -0.0775101804267)
(0.114985410597 -0.0837733145149 -0.136497479934)
(0.482807623882 -0.0942627976326 -0.0603904801623)
(0.791008421003 0.00206845088822 0.00199869229959)
(0.792401701803 0.00460140380246 0.00217871057831)
(0.769734096887 -1.77517734222e-06 0.00202811538793)
(0.771344676428 0.00265862681216 0.00268212928565)
(0.789639634733 0.00679438538441 0.00410881866049)
(0.769818857265 0.00356768850153 0.0038315066308)
(0.794518760351 0.00641253635545 0.0031530746885)
(0.796624275446 0.00739538884073 0.00268543653743)
(0.772076350881 0.00346191357221 0.00269386671206)
(0.774278718338 0.00486972421737 0.00134158647627)
(0.791472168739 0.0125939569248 0.00361215679482)
(0.796539366807 0.00953332180958 0.00182978950024)
(0.794842785848 0.0125801068343 0.00122710917342)
(0.770609893217 0.00448390656817 0.00389522900319)
(0.770485805689 0.0082400332505 0.00544343078182)
(0.773148312679 0.00568178276796 0.00226171546713)
(0.773307427978 0.00931559468592 0.00282002977249)
(0.795501600935 0.0160421992566 -0.0022771521501)
(0.799033280464 0.0209382652623 -0.00496766315917)
(0.770966333199 0.00960703071311 0.00476029263737)
(0.770296994856 0.0143323834779 -0.0046694777981)
(0.773955508726 0.0104028098696 0.00158105251526)
(0.773410793246 0.0136626699038 -0.00895829284368)
(0.797688686819 0.0113449356879 -0.00195325412864)
(0.799303227252 0.0101721291255 -0.00355467627794)
(0.774029806806 0.00564150239724 0.0022972215053)
(0.774258126352 0.00898776037458 0.0019251734923)
(0.776152756591 0.0067234702928 -0.00246484962007)
(0.802572674629 0.0166697844217 -0.0109317030368)
(0.800556163995 0.0122335851008 -0.00690341448587)
(0.804791804661 0.0141771675037 -0.0123951954948)
(0.774683321355 0.00959473843165 0.000170549552329)
(0.773214580202 0.0111997407766 -0.0102341905622)
(0.775731758689 0.0069598303744 -0.00422322428712)
(0.773160307428 0.00774370617955 -0.0137208609943)
(0.775639339364 0.00576134206177 -0.00483738090385)
(0.773389773943 0.00683777617192 -0.0131349643476)
(0.172162354422 -0.0145514224918 0.00824892814923)
(0.180199924799 0.00600726479003 0.00645770774366)
(0.236354258182 0.0322024488979 0.00391093510857)
(0.139531691817 -0.0408114067359 -0.157404403352)
(0.206252809565 0.00558057995694 -0.185480039662)
(0.147942663987 -0.0357617286306 -0.158004385642)
(0.233456701164 -0.00108118579026 -0.164106604779)
(0.211443813328 0.0452796064955 -0.111692662329)
(0.022848591459 0.104963925868 0.1781790473)
(0.248526623935 -0.00437763430414 -0.0788272765041)
(0.148822605556 0.0123556889231 0.178030995227)
(0.182586667822 0.049221021531 0.00592501123013)
(0.151062993832 0.0933607236512 0.00605779736989)
(0.289783160101 0.106794147495 0.00265350154562)
(0.191063716403 0.120900758238 0.00341435935198)
(0.210479198827 0.159988504879 0.00147423836007)
(0.129032369611 -0.0652004570022 -0.153774865539)
(0.166737520916 -0.0388428773173 -0.117315350417)
(0.127163182745 -0.0614874514003 -0.0998271300929)
(0.165583490251 -0.0482160776296 -0.0242021850925)
(0.136360025305 0.157356956772 -0.0121653549703)
(0.158737328673 0.192301129086 -0.00141302299307)
(0.0352689728169 0.178807904581 -0.0143926556263)
(0.237061067726 -0.0649275507064 0.0241465097154)
(0.207478086535 0.00430356229762 0.281013461782)
(0.198295122653 -0.0209170439699 0.162549283931)
(0.170201489597 0.0247234761354 0.296664709486)
(0.109822819178 0.170535261685 0.000108955910615)
(0.0545236983648 0.0872179971806 -0.00123902910287)
(0.0984889955603 -0.0558044890392 0.0111211124673)
(0.109007157883 -0.0459498834871 0.140358674843)
(0.0945123932256 -0.0407826155789 0.246810313799)
(-0.0158355396032 0.123331937084 -0.0176195360114)
(0.00613043834109 0.0558359631004 -0.00560219734874)
(-0.0532112077451 0.00722968331236 -0.0244603304463)
(0.150801609019 -0.0298391546012 0.232157963044)
(0.152105116435 -0.0200622716994 0.263265354153)
(0.146816506342 -0.0316989277936 0.284943674144)
(0.150746046696 -0.0360835199106 0.267869819104)
(0.796216353092 0.00244179911974 0.00135458125395)
(0.794871952368 0.00155668783421 0.00281856456079)
(0.772725192122 -0.000206801292968 0.000272719553713)
(0.770211359311 0.000749982620151 0.00232687624883)
(0.795225820866 0.00306864048746 0.00303074552823)
(0.77304947063 0.000375315812298 0.000637226039224)
(0.796021385626 0.00108088055546 0.000782629780832)
(0.796694629162 0.00346608746364 0.00111730033207)
(0.7966937933 0.00558839581547 0.00356396777296)
(0.770629736234 0.00152724202811 0.00221479302053)
(0.773773301729 0.00187629404852 0.00102703325784)
(0.79587496642 0.0045515727699 0.00290410627309)
(0.797284707661 0.00474826115632 0.0015388009759)
(0.77335730637 0.00090303856345 0.00057941525864)
(0.792763861393 0.00616476995622 0.00612625557393)
(0.795541258284 0.00630968423395 0.00452599932572)
(0.768979160697 0.00224953179111 0.00360066577955)
(0.769257436052 0.00450149488838 0.00510091477554)
(0.794415256662 0.00492748583963 0.00461914833401)
(0.79384966999 0.00766353761132 0.00660481424282)
(0.768297331898 0.00302265183488 0.00479334669129)
(0.798807981896 0.00605794491867 0.00155395798387)
(0.797631071428 0.00630312065005 0.00359112266095)
(0.774290258242 0.00267133112386 0.00128303789214)
(0.772728291901 0.00437495354225 0.00225065229543)
(0.798069529575 0.0054815169192 0.00163974639607)
(0.798502103599 0.00687877859549 0.0034341719177)
(0.774773813686 0.00341918075119 0.00127213774047)
(0.799580489736 0.00626385919771 0.0014280798274)
(0.800184743016 0.00731200742226 0.00221834569005)
(0.773560175142 0.00467556234581 0.00230234182433)
(0.776118321477 0.00400191529154 0.000470718715197)
(0.799228332834 0.00707582352999 0.00298491482573)
(0.8004111575 0.00642359409566 0.000764867835875)
(0.775526036628 0.003748302586 0.00152158138764)
(0.796495786107 0.00908164430295 0.0053734627876)
(0.79651606151 0.00712761363486 0.00395437527992)
(0.770116025799 0.00549057875275 0.00513478336757)
(0.771460403068 0.0052274735645 0.00346079933395)
(0.795241080671 0.00855599494766 0.00610609749451)
(0.797470224541 0.00767764805907 0.00366228911413)
(0.771098135802 0.00659192395469 0.00427068945066)
(0.794847950455 0.00986439962369 0.00469398598392)
(0.792152800051 0.0117530871903 0.00623654420944)
(0.770247757529 0.00673660207787 0.00524392205654)
(0.771667033037 0.00910012610767 0.00471806914717)
(0.793386481649 0.0096284411269 0.00533528750994)
(0.793774382145 0.012050491159 0.00535419790069)
(0.771391516153 0.00757035353332 0.00457115305559)
(0.797579500277 0.00915340152805 0.00440313487468)
(0.799484442342 0.00795661920868 0.00223083872773)
(0.772402358965 0.00572819532883 0.00337270940833)
(0.772840484737 0.00683182459812 0.00287496133772)
(0.79848110999 0.00786439088961 0.00305528263141)
(0.798563811176 0.0091262704875 0.00333110838787)
(0.771948313179 0.00693741960324 0.00405347709805)
(0.796310925375 0.00971359495301 0.00366932857033)
(0.796421255636 0.011270772426 0.00222203841964)
(0.772459023596 0.00922431019464 0.00433782571714)
(0.773114748381 0.0078886284198 0.00312151881006)
(0.795171431437 0.0117742249306 0.00373289412)
(0.797385519469 0.00958500408771 0.00254931177882)
(0.772246683483 0.0080057770423 0.00446942435171)
(0.792597193348 0.0155641025788 0.00192215872672)
(0.790487223262 0.0129613422304 0.00448406220535)
(0.770526809366 0.011009379721 0.0034363509098)
(0.772132558277 0.0105320779641 0.00386679935463)
(0.7907286549 0.0156710337007 0.00344938741401)
(0.792300853203 0.0130517874496 0.00350397553834)
(0.771839814262 0.0119730450279 0.00219194751419)
(0.793432007064 0.0171242893115 -0.00271207757627)
(0.794259671489 0.0198235420377 -0.0050507382883)
(0.770151946692 0.0124665843925 0.000789150681544)
(0.771874334576 0.0157761537643 -0.00594893002943)
(0.791370250546 0.0174456386437 -0.000711031104929)
(0.771993736124 0.0136706422942 -0.000718196801152)
(0.796244950299 0.0192408949389 -0.00714129847536)
(0.794291252445 0.0145664897526 -0.00109126101986)
(0.795514551899 0.012227656906 -0.00039806672208)
(0.772903191628 0.0104191939109 0.00314352848133)
(0.773403608769 0.0116874880636 -0.00107422350344)
(0.794006427933 0.0128106107563 0.00130241116767)
(0.795982419055 0.0135169522247 -0.00304959504903)
(0.772678954064 0.0118785242462 0.000545902602229)
(0.79566047093 0.0166686018823 -0.00617499541014)
(0.800105117168 0.0170535830289 -0.0137592322339)
(0.772892459646 0.0148437900194 -0.0073499056948)
(0.773816260237 0.0125041735767 -0.00443338136738)
(0.797318427914 0.0154191954273 -0.00817227599167)
(0.772949967185 0.012978739505 -0.00244066513168)
(0.798331658189 0.0184587609691 -0.011619220948)
(0.80000554892 0.00838858190029 0.000987685609855)
(0.800371554418 0.00773478568704 0.00150180765564)
(0.773855909814 0.00673494831326 0.00279215104572)
(0.774963439147 0.00522023688836 0.0012162300212)
(0.799352214716 0.00873508052228 0.0022008725394)
(0.801012562686 0.00748271216145 0.000578903482148)
(0.774788226656 0.00626296349844 0.00149757313725)
(0.799100162749 0.00884331633729 -0.000220410244239)
(0.797399553768 0.0105088289494 0.00037507682884)
(0.774251062243 0.00769392142391 0.00262606535623)
(0.775098952203 0.00833248476632 0.000178548481717)
(0.798316841243 0.00932022980362 0.00117794535168)
(0.798247977995 0.00982395947321 -0.00133767710704)
(0.775115476611 0.00716076746223 0.00123687921216)
(0.799797279272 0.00859151260794 -0.0016973372048)
(0.799792133157 0.00951179312196 -0.00430792749227)
(0.77585101209 0.00759288756845 -0.0012310406451)
(0.776522561466 0.00603506230462 -0.0012328200943)
(0.798986926024 0.00944163677396 -0.0030250418613)
(0.800547064167 0.00869818520925 -0.00294116593458)
(0.775993569795 0.00660386423773 4.56429074892e-05)
(0.798279171032 0.0115244528464 -0.00780019244176)
(0.796733941086 0.0114363448155 -0.00265790878943)
(0.773900142259 0.0107301397116 -0.00276501715342)
(0.775287877291 0.00883050518815 -0.00163902196566)
(0.797137478173 0.012364511403 -0.00573915621824)
(0.797791250236 0.0106577816372 -0.0045248894104)
(0.774095377737 0.00988259689892 -0.00464900474999)
(0.8005360145 0.0131771782776 -0.0114840067512)
(0.801751276992 0.0158606132932 -0.0164470486428)
(0.773894632747 0.0107660880174 -0.00586454277612)
(0.772982277574 0.00988103127285 -0.0117485884554)
(0.798929853747 0.0142066956884 -0.0101434890855)
(0.774048384752 0.00954022296138 -0.00738204062953)
(0.80332980598 0.0147701804783 -0.0182836722842)
(0.799282888758 0.0112792150602 -0.00998573501075)
(0.799923511117 0.0103833727045 -0.0073767505823)
(0.77567652757 0.0077706098751 -0.00309550816386)
(0.77421807924 0.0074779472474 -0.00701570835395)
(0.798860626074 0.010378850311 -0.00624677478426)
(0.800300678808 0.0114384308079 -0.011270160385)
(0.774271754624 0.00860719725622 -0.00605882543885)
(0.801925800165 0.0128746766667 -0.012990884656)
(0.805948802838 0.0141809535947 -0.0210957003567)
(0.773014682839 0.00802774827002 -0.0128901133063)
(0.773675259317 0.00767024492246 -0.0091890348062)
(0.803156248122 0.0128891726814 -0.0139549234697)
(0.773643514634 0.00796023120122 -0.00833137705748)
(0.804725472922 0.0141506320989 -0.0200252289451)
(0.802469186527 0.0121973631328 -0.0121612443245)
(0.800954016026 0.0107805279635 -0.00822598174254)
(0.774432235469 0.00621837007116 -0.00756656810912)
(0.775911007475 0.00469124882093 -0.00508616708364)
(0.801479406721 0.0118793043791 -0.0120139115221)
(0.801869264278 0.0111359827195 -0.00844578639537)
(0.774869572923 0.00495241417756 -0.00785229526604)
(0.807106340563 0.014241907699 -0.0204678760138)
(0.773834961392 0.00678386518285 -0.0093703246939)
(0.804426860449 0.0131401279738 -0.0141303776786)
(0.817820545857 0.00494027350456 -0.00032225168862)
(0.818535878676 0.00337093180136 -0.000379235903088)
(0.818772671783 0.00138777092015 -0.000519858516993)
(0.81617165137 -0.00128501014698 -0.000171335206623)
(0.810424695592 -0.00242190660767 0.000208034486074)
(0.830593581329 -0.0474406067402 0.000467721350604)
(0.818368855983 0.00514431922096 0.000984667010947)
(0.818331517362 0.00342307648216 0.000769402371373)
(0.818777248923 0.00222368321465 0.000166774230673)
(0.816703551061 -0.00128170091632 0.00151167672123)
(0.81105580703 -0.00282804861107 0.00342451368933)
(0.833012513308 -0.0508078109298 0.00420083004821)
(0.818169667595 0.00576332395064 -2.19723297312e-05)
(0.813105619648 0.00593540255017 0.000967247840644)
(0.788641889954 0.010283553958 0.00275398527373)
(0.784427967953 0.0104729826575 0.00216634121818)
(0.781472804632 0.0125865053792 0.00110084214072)
(0.77521522651 0.0142319802625 0.00250677777816)
(0.78234103615 0.0163577156487 -0.00695717246781)
(0.725987153976 -0.0257962795633 0.0279960822472)
(0.82795127646 0.0054227343554 1.24095830644e-05)
(0.824847897924 0.00298783813894 -1.9197360914e-05)
(0.819754015926 -8.75041230534e-05 -0.000798524580578)
(0.817415411966 -0.00177549919491 -0.00231988330476)
(0.816235530603 -0.000413392629985 -0.0031069811681)
(0.817453919354 0.00114359157506 -0.00238449379226)
(0.813128060339 0.00470541892738 0.000993758018995)
(0.83237974504 -0.0851578751193 0.0133692194253)
(0.821592364284 0.00695684796661 -0.00124420670554)
(0.823349792085 0.0048275839018 -0.000715324786106)
(0.822483590516 0.00315741360121 -0.000999204980174)
(0.820720691082 0.00255302464883 -0.00147035537632)
(0.819176388868 0.00205507353571 -0.00141114130401)
(0.819701901312 0.00131291027772 -0.000699408848038)
(0.814117322743 -0.000431035266863 0.00145223657388)
(0.837025897744 -0.0680250094257 0.00507846728532)
(0.817830789384 0.00792546946696 -0.000804534569647)
(0.820512982596 0.00454017762069 -0.000381210851637)
(0.820225379521 0.00240779313279 -0.000511077499425)
(0.819436993446 0.000731246298695 -0.000700598724566)
(0.818164971293 -2.20053006624e-05 -0.000964564096013)
(0.818436297588 -0.00115857677736 -0.000489407389514)
(0.812659879074 -0.00259890055886 0.000595174771915)
(0.834865410528 -0.0688698146628 0.00215672082463)
(0.817644174042 0.000959315146135 -0.00065050095619)
(0.817466433976 -0.000340363691782 -0.000201732384479)
(0.811312432511 -0.00204347944605 0.000506012708246)
(0.833467437267 -0.0527844066975 0.00109984432751)
(0.641302152815 0.0408254079957 0.0114810452438)
(0.63715720759 0.0397903199164 0.0156425455982)
(0.645900878483 0.0241373891205 0.0206167534404)
(0.643197243232 0.0205239367807 0.015904865165)
(0.642108769845 0.0214230962582 0.0146777502015)
(0.628393740603 0.0243801542632 0.0161088197528)
(0.682565602911 0.0373877662513 0.0141917455888)
(0.39885691912 -0.0876585615302 0.0569813251443)
(0.775532651558 0.0129825505207 0.00647530937172)
(0.770840581922 0.00932974904931 0.00912041723053)
(0.775955093012 0.00281486410117 0.0127763746335)
(0.77268291509 0.000827430550391 0.0127853687251)
(0.772879011928 0.00159989015862 0.013075805687)
(0.775450684432 0.00310316725052 0.0152534268166)
(0.783754333641 0.022050557785 0.0240721490156)
(0.804464280917 -0.160540693861 0.0384839898693)
(0.823526641263 0.00751945846116 7.33997952291e-05)
(0.823483649254 0.00580799036797 0.000962135437183)
(0.822033738653 0.0046726701935 0.000672817983947)
(0.820059332312 0.00516343271366 -0.000117765768104)
(0.820244003075 0.00517772282994 0.000544669697693)
(0.822709417939 0.00407549387339 0.00253798417071)
(0.819072633154 0.00160603177232 0.00733929157505)
(0.864353350593 -0.107066024991 0.0121977756156)
(0.819095309183 0.00829877673865 7.71163053439e-05)
(0.82086140565 0.00444003150871 0.000789969232163)
(0.819880806155 0.00287982415936 0.000580648054138)
(0.818956574414 0.00218943121044 0.000286973516232)
(0.818514040094 0.000958612764188 0.000796593337789)
(0.820247811829 -0.00128224254186 0.00256377920734)
(0.815143433791 -0.00374208242927 0.00576795662148)
(0.844595460723 -0.0853484041616 0.0084652584548)
(0.817945189301 0.00132169440622 0.00029112656698)
(0.818375987201 -0.000102360444586 0.00157207353066)
(0.812584721373 -0.00235075214326 0.00389407820898)
(0.837838129461 -0.0609806317442 0.00499091804365)
(0.639357153497 -0.0163878818598 0.0183413114516)
(0.633439679947 -0.0172453087785 0.023502460191)
(0.636525995031 -0.0213884040933 0.0266157409904)
(0.633478817444 -0.0203531490442 0.0224069430544)
(0.632579304905 -0.018215750511 0.0189526067519)
(0.625709970735 -0.0111082654034 0.0210823941178)
(0.684230813117 0.0172546988604 0.0438855632757)
(0.473503228236 -0.274000091786 0.00924125399114)
(0.739456843793 0.00496745169494 0.0202629691751)
(0.735054628951 0.000311186688176 0.0254222642042)
(0.782806466065 -0.00121839784474 0.0110527005182)
(0.781024843353 -0.00233172640424 0.0101880253548)
(0.782670097951 -0.00109317363832 0.0088679896805)
(0.789807849173 0.000163690537398 0.00778305785419)
(0.803946735935 0.0165137278675 0.00818806692288)
(0.860869800909 -0.17760112095 3.92037561896e-06)
(0.826642506034 0.00764017786964 -0.00149463500394)
(0.824357553619 0.0059651344251 0.00100606986353)
(0.822471444837 0.00223622610497 0.000135670040853)
(0.82059578422 8.09282068105e-05 -0.00164120577418)
(0.821985469258 -0.000555995360305 -0.00299092742721)
(0.826664867982 -0.00230999880234 -0.00200425028574)
(0.823139107679 -0.00604499815177 -0.00165072070961)
(0.887590249127 -0.14307338908 -0.00258930759827)
(0.818085454091 0.0122080420269 -0.00366418978976)
(0.821275301597 0.00852794043383 0.000233052795578)
(0.821649277041 0.00469571700807 0.00166595245526)
(0.819645145925 0.00214963185251 0.00024176758172)
(0.819485086514 0.00140781911069 -0.00138022437492)
(0.820137445825 0.000365599187431 -0.000893158179579)
(0.823464572395 -0.00244172598891 0.0003486671644)
(0.81852042407 -0.00562240530209 -5.88435435227e-05)
(0.860485069072 -0.0935612608635 0.000147029921324)