/*--------------------------------*- C++ -*----------------------------------*\
| =========                 |                                                 |
| \\      /  F ield         | OpenFOAM: The Open Source CFD Toolbox           |
|  \\    /   O peration     | Version:  v1906                                 |
|   \\  /    A nd           | Web:      www.OpenFOAM.com                      |
|    \\/     M anipulation  |                                                 |
\*---------------------------------------------------------------------------*/
FoamFile
{
    version     2.0;
    format      ascii;
    class       surfaceScalarField;
    location    "13.5";
    object      alphaPhi0.water;
}
// * * * * * * * * * * * * * * * * * * * * * * * * * * * * * * * * * * * * * //

dimensions      [0 3 -1 0 0 0 0];
oriented        oriented;


internalField   nonuniform List<scalar> 
92311
(
0.20377567383
-1.06333656617e-05
-0.00112290145342
-0.203520612757
0.000880985844297
-8.30376676543e-05
0.203953511771
-0.000754666277492
0.000662344432755
0.203776392136
4.82644898199e-06
-0.0011711829756
-0.203525341888
0.000905452374812
-0.000109857086414
0.203950536117
-0.000744346936751
0.000598084311787
0.203592390323
5.59713576135e-05
8.0779608465e-05
-0.00118383449041
-0.203564994465
0.000888953512406
5.36832298513e-05
8.22617722079e-05
2.2789148182e-05
-7.56265299332e-05
-8.16956065942e-05
0.203775724546
-0.000735670606893
0.000548475159708
2.89203986139e-05
0.0510701743616
1.99270590824e-05
1.38882353606e-05
1.35315018475e-05
1.98478208292e-05
-0.000344361157934
-0.0510289562467
0.0002920021679
-0.0511357448955
0.0511786292409
5.87646783295e-06
1.81051919736e-05
1.11989417549e-05
1.30647993596e-05
-0.000208108592532
0.000139862492171
3.96942793131e-06
-0.000672726380977
4.03369760841e-06
5.21917313004e-06
5.19607674877e-06
0.00012421412802
0.000501855224212
-4.75465544906e-07
8.85750070324e-05
-0.00132142305497
-0.000180661709723
9.62166725747e-07
0.00117303200289
5.40923898169e-06
8.01235089374e-06
3.36776229054e-06
4.26611608922e-06
0.000291213437022
-5.84469548224e-09
0
0
2.07130702706e-09
6.31191326421e-29
-4.17462459864e-27
0
3.77338845517e-09
1.71595615102e-05
2.0738408468e-05
1.38763480239e-05
2.52883245795e-05
-0.000263447158526
0.000201713695155
-1.8628901991e-05
0.0100281983855
4.65049745236e-06
1.74814142673e-05
-0.0100263491024
0.0100619031932
-6.62284381118e-06
-1.97234546521e-05
-0.0100464833473
2.69741575014e-05
3.02734149023e-06
7.71927132722e-05
-2.94844046749e-05
0.0512323792301
-1.84551938544e-05
-1.20804137063e-05
-4.7311336714e-06
-0.000141730836548
-4.39965783306e-05
0.0511710839074
-5.3495015529e-05
-2.50709470611e-05
-3.03964344818e-05
-0.0510853951948
6.29835527745e-05
-4.72945136815e-06
-2.17680703247e-05
0.0100795664772
2.76714444251e-05
-8.49631015662e-07
-1.49929052913e-06
0.0127584137168
-4.97726170216e-06
-2.97895650964e-05
-0.0127498358594
0.0127463532602
1.12486744953e-07
-5.44481300851e-05
-0.0127346615383
-0.000160564035627
0.203984888757
-0.00196070940093
0.00164466245084
-0.203508904727
0.204064203322
-8.07634736262e-05
-0.000333150272738
0.000304942658471
-8.233564859e-05
0.204181596252
-0.00018407392063
0.000149463779389
-0.000110135734128
0.204032119349
-0.00207863866262
0.00167939247309
-0.203682848898
0.204162765108
-0.000190486120687
-0.00043614511907
0.000334944643289
-0.000153684014297
0.204352548902
-0.000270853043926
0.000153176649484
-3.59487330368e-05
3.07517014479e-05
3.81113339233e-05
-0.00214585076381
0.204089083322
0.00170560841772
-0.203775989082
-1.54916631026e-05
-0.000190836183007
-0.000224841498912
-0.000181703698465
-0.000240581405873
0.204409322811
-0.000287353373923
0.000301513467878
0.0511446020278
7.19303301873e-06
-1.10732976247e-05
-5.44281823625e-06
1.51633004997e-06
-0.000682088720809
-0.0511016597991
0.000611143995692
0.0512981855532
2.07292979168e-05
-4.81498919015e-05
-3.83712003775e-05
-6.5011373546e-05
-5.14985005156e-05
-7.42653229858e-05
-0.000351080823682
4.06616372096e-07
-0.00134105604506
8.78217726831e-06
1.34012307253e-05
8.9357708748e-06
1.31088688856e-05
0.00031620074726
0
0
0
1.20868975721e-31
6.01158654162e-33
0
-4.00213665808e-30
0
3.42950909144e-11
7.12925474109e-10
4.69236879847e-10
4.26156863073e-08
5.228786727e-30
1.01702230614e-08
-1.24851380441e-08
0.00052479315443
1.03941954514e-05
1.78211743034e-06
1.65804677392e-07
1.19368404958e-05
0.0512156367337
-0.00058924717938
2.44279239191e-05
2.33718103931e-05
2.05065302133e-05
2.01645577986e-05
0.0511195704889
0.00041927914571
-0.0510642187297
1.16744990164e-05
7.6712129922e-06
0.0100986432642
-7.44119655308e-05
7.57751293541e-05
-0.0101220703212
4.96772679339e-06
5.63615968672e-07
-0.0100459517902
-9.11156406021e-05
0.000102603748277
0.0100234443462
4.46848633895e-05
0.0127190689508
-0.000113346174703
9.07899906663e-05
-0.0127173020133
-3.34820198917e-06
-6.46858108539e-05
-6.01551050861e-05
-5.29603385087e-05
-7.05497526563e-05
0.051350940007
-2.58691025712e-05
0.0512719947383
-5.82915639609e-05
-8.21841008605e-05
-6.69941066029e-05
-7.15174145965e-05
1.73221373428e-05
-8.26263490095e-05
-8.71824449404e-05
-7.27372790002e-05
-7.64628663467e-05
0.0513398398205
7.42351418865e-06
-3.06263582116e-06
-4.06157644865e-06
-4.5450637996e-05
0.0127641558117
-1.15857398124e-05
5.32348262954e-05
-0.00994907764702
-8.6663392621e-06
0.00990029309233
3.74569731879e-05
-4.33052530687e-06
-6.37023149312e-05
0.0127550680937
-0.0127581580609
-9.82397235637e-05
0.0127717118957
6.28977180686e-07
2.55001633601e-06
-0.000914049302292
5.33331927047e-06
5.16006745808e-06
5.31612980381e-06
0.000134827978043
0.000117846144569
-1.34017884152e-07
2.55995648485e-06
1.20516389253e-05
1.4596680203e-05
1.25042006906e-05
1.08059757975e-05
-0.000512885001129
4.65229723844e-05
0.000217769448313
-3.03432106189e-06
-1.57170409831e-06
1.43840700594e-06
3.27152150031e-06
1.60902823883e-06
-1.3839800931e-06
-2.86932072145e-06
-6.1427201357e-09
3.72304615413e-06
3.21927268415e-06
2.87473887105e-06
0.000224335311917
2.92470399674e-05
-9.91697052872e-07
1.43248830059e-06
1.55658974568e-06
6.65921284867e-05
0.0127209095218
-7.43914070966e-05
-0.0127132853154
-0.0127105877923
1.19704888774e-05
-5.9508973218e-05
0.0127162319901
5.45704140248e-05
1.42344710124e-05
-1.78334897261e-05
0.0100326569607
1.00980101631e-05
-1.01330073335e-05
0.0100396194154
-0.0100501105135
3.01425190368e-05
-0.0127032329442
6.09444844484e-05
0.0100389512274
4.08276016251e-05
0.012729394086
-6.68800128898e-05
0.0127238075112
1.51630793162e-05
-4.87656780625e-05
4.30041196928e-05
4.11741491936e-05
-0.0127403335412
0.012748294436
-4.80199288941e-05
1.95411215563e-05
-2.1926235619e-05
6.55400102149e-06
-1.31770395797e-05
-0.010050890517
0.0100610854275
5.29399357002e-05
0.0127308233544
3.49105460595e-05
4.62389963487e-05
-5.63749934202e-05
-0.012737679306
7.85607906375e-06
-2.15471870241e-05
0.01274703535
1.1506780541e-05
2.91715498756e-05
0.0127534008765
-3.7420735428e-05
1.93808776374e-05
-1.68917621725e-05
0.0100889559976
5.28258745758e-06
-1.37346968673e-05
0.0100775339419
4.37058001387e-05
2.02797114177e-05
0.0100849978618
3.54547834408e-05
0.0127592575791
-2.98771207529e-05
-8.75387182116e-06
-0.0127613313584
0.0127670312037
-1.88899463559e-05
6.37004615224e-06
-0.0100893527851
0.0100765515241
1.77989132849e-05
-0.0100867250276
2.54735931811e-05
0.0100644848185
-2.97888404539e-06
-1.2049847041e-05
2.6567619191e-06
1.49916183203e-05
-7.43623233586e-06
8.02025494756e-06
2.9419360137e-05
-2.3982237876e-05
-7.01294420413e-05
-0.0127261080409
0.0127393582535
6.34972636626e-06
3.53090914847e-05
-0.0100796636185
0.0100510274368
-0.0100694827094
0.0100344643984
4.55037617771e-05
7.51276640545e-06
-3.38183517322e-05
-0.0127277803307
4.44197152506e-05
-3.82100555493e-05
-0.0100803788526
4.30831616512e-05
-0.0127168174781
1.5447987405e-05
-0.0100893884072
-1.23616684043e-06
0.000454015635146
-1.92288869582e-05
-1.29232367783e-05
-1.19278142088e-05
-1.75625174218e-05
-0.00049984882197
0.000378104565509
-0.000197719385458
-1.11394680625e-06
-9.56222632346e-07
1.58602602662e-06
1.49724361745e-06
-0.000564504607542
-1.3531418345e-06
-1.58743026572e-05
-2.8928554682e-05
-3.46130311216e-05
0.000468440978294
-0.000377318084149
0.000604649361569
-9.87211900689e-07
-9.39706026011e-06
-1.6981160726e-05
-1.98976769845e-05
-0.000667653955071
0.000651501128368
-1.72423906788e-06
-3.92068440091e-07
2.23179992425e-06
1.07291626197e-06
-3.50424817243e-07
-1.51251793503e-06
3.57412490152e-06
-0.000838832161834
1.17536004416e-05
1.49530192705e-05
1.46254692377e-05
1.1989545291e-05
-0.000120055572555
-7.7027616545e-07
-1.64560841596e-06
9.34130857364e-07
-1.1041132598e-06
-1.8300822427e-06
2.17393881091e-06
0.000459316262343
1.24919299514e-05
1.19956164229e-05
9.42120952374e-06
9.61207933356e-06
-0.00105279244932
-0.000319891674518
-2.95338901912e-07
-1.35920052563e-06
5.92961460948e-07
3.40060285506e-07
9.15901988597e-06
1.09380834414e-05
1.13572390426e-05
-0.00129520057709
0.000362687306827
-6.33207196704e-07
-4.96844236386e-07
-0.000159181916365
-0.0127408686216
2.33497412013e-05
0.0127396713096
0.000144247203465
0.0127509068677
0.000168695640612
-0.000171998154902
-0.0127508027077
2.39262078159e-06
-8.12112978332e-05
0.0100711573624
8.48063358957e-05
-1.4511122837e-05
0.0100725213634
-0.0100938341466
-7.63091401444e-05
0.0127514925597
-0.000162500234419
-0.0127430792524
0.000157852019456
0.0100497457575
-8.18008854263e-05
-0.000146253546018
0.0127412894385
2.10191610309e-05
0.000133894335906
-0.0127544483208
0.0001360536633
-0.000140348877173
0.0127610944643
-6.18133146136e-07
-8.82089501658e-05
9.61875617212e-05
-1.9818280273e-05
-0.0100353832909
-8.21529247605e-05
0.0100231524852
-0.000149586153104
0.000123020247178
0.0127462283214
-8.27682665923e-05
0.0100407133317
5.97345544104e-05
-3.46222743086e-05
-0.010053648272
-3.74595384264e-05
5.63032010351e-05
0.0100272634391
-2.76864564371e-05
-0.000103103168805
0.0127247578184
8.27093112207e-05
0.0127296352637
4.06300201484e-05
-0.0127294582737
-3.39970276235e-05
-0.0100343082346
0.0100235784432
0.0127354413625
-0.0100453346787
-2.47977922521e-05
0.0127683574746
-1.81954139607e-05
2.47793450971e-06
0.0100469458877
2.59957524716e-05
0.0100259224997
3.04085223938e-05
-2.69190730687e-06
-5.75432170957e-05
0.0127637988008
-3.76596580852e-06
3.88192216871e-05
-1.82985175275e-06
0.00999807857347
3.2638302402e-05
0.0127703091296
-1.69075631981e-05
0.00997474839932
2.79151617522e-05
-1.01034695598e-05
0.0127696239383
-6.14906257631e-05
1.14202223582e-06
-0.0127747635403
1.42121476453e-05
0.0127760829068
-2.34210672429e-05
4.52708419074e-05
-3.69625862828e-06
3.04199828946e-05
6.49907024571e-05
-0.00992213384589
1.33464105994e-05
0.00987005545677
-2.24242210123e-05
3.64777471354e-06
0.0127740878376
2.30462816419e-05
-0.0127507078738
-9.22531550078e-05
5.40470976523e-06
-9.49125121464e-07
-8.11882124857e-05
9.33950301368e-07
3.57200412055e-05
0.0100179261523
0.00999773257358
4.09212442811e-05
-3.34085308174e-05
0.00995257313807
3.77616005657e-05
-7.3358450971e-05
0.0127600473205
0.00997727201663
0.00990008407287
-2.69420546998e-05
3.01054254187e-05
0.000101415140224
-1.49143558416e-05
0.00984857441805
1.0021057849e-05
-4.83026765272e-06
0.0127795444667
1.14543879711e-05
0.0127694923605
-7.9742315775e-05
8.30974209672e-05
-0.00993026794737
0.00987982608451
0.0127746997863
-0.000220718110346
-0.000222960192845
-0.00013614710464
-0.000106511230912
0.204941195254
-0.000167368188443
0.000168237955058
1.02621606352e-05
-6.58496150015e-05
-5.62662448618e-05
-6.04939368286e-05
-6.56317353205e-05
-2.20952210062e-05
0.0513902833661
1.09445204338e-05
-0.000496851538673
2.08191646652e-06
1.09849633865e-05
9.53716235461e-06
8.90567552887e-06
0.000299866406086
-0.00116740350613
0
0
0
-5.54548032938e-30
-2.90285529517e-29
0
-2.98480035469e-30
1.65342937598e-05
2.43800729357e-05
2.24407025688e-05
2.00010979959e-05
-3.77894202366e-05
-0.000439526334348
0.0511693079178
-3.63224113959e-06
-3.29973221854e-05
4.98158009694e-05
0.0100301724369
0.0513958631228
-6.98306124109e-05
-8.42343253673e-05
-7.18753214092e-05
-7.77644707553e-05
3.51691236678e-05
0.0514349250899
-5.71111283685e-05
-4.53132594843e-05
-4.54914044844e-05
-6.28416898943e-05
2.19327658979e-06
3.35406042034e-05
5.68059984897e-05
0.00985134097377
-1.82377753057e-05
4.836715561e-05
-8.6833266782e-06
0.000101610577069
1.12607373469e-06
0.00978633733431
-6.08130365669e-06
0.00967576297499
-5.3882760514e-07
4.20179434039e-05
6.27734567279e-05
-0.00969889046087
-6.54789951485e-05
0.0514245254778
-2.22243110305e-05
-3.38024064053e-05
-3.45901911576e-05
-1.7498874164e-05
8.43318793275e-05
-8.79122807974e-06
4.31092291509e-05
-1.89198882206e-05
-1.04847405682e-05
-1.90047415385e-05
-1.05851636509e-05
8.41059314809e-05
-7.33472729866e-06
0.0513704525907
3.62893250385e-05
-1.83621005391e-06
2.45099292541e-05
8.88760494252e-05
0.00966899170075
-9.0238131089e-05
-1.4742502558e-06
1.33465742832e-06
0.000157510177679
-0.00967468940425
0.0096826008331
-0.000155241886071
3.34714638195e-06
5.01545563317e-06
4.50456896408e-06
0.000498332163024
-0.000839517869105
-4.47922494608e-07
-0.00111622726348
2.38956320625e-06
7.47747560663e-06
6.60231993602e-06
6.62854654557e-06
-0.000500370098547
9.50753619211e-07
-0.0010525052513
3.77591281921e-06
2.63858293188e-06
4.90582724329e-06
0.000430577283085
-0.000529680504683
7.29276225948e-08
-3.66344031071e-07
4.24221411318e-07
1.00302849485e-07
-4.98968463598e-07
1.46138306548e-07
9.5277651183e-07
-4.03125883485e-07
-0.000790279038992
3.93957088112e-06
2.56274748407e-08
2.89056737457e-06
0.000104690236112
-3.91276798141e-08
-0.000374258651648
3.05306120071e-06
1.33959472556e-06
3.24715469869e-06
-0.000163934948494
-1.54734122691e-08
-0.000528885147553
-0.000100004312668
-0.0127465997018
2.16515306578e-05
8.47529966821e-05
-0.00010194567512
0.0127585394063
-9.34832885153e-05
0.0127346941707
-2.9864939827e-05
0.0100237324261
8.16890697589e-05
4.73357390536e-05
-2.62219045457e-05
0.0100313042945
-0.000112298676297
7.99999615325e-05
0.0100202750524
0.0127461158489
-2.64476593746e-05
-0.0127806607615
-6.24875142269e-05
1.96434177879e-05
0.0127835116216
0.0127784634773
2.21830452477e-05
-2.56695685238e-05
5.81239135887e-05
-3.45821435395e-05
6.22761534172e-05
0.00980749062711
6.58790267684e-05
0.00982044901007
-2.34805924274e-07
-3.02822197509e-05
0.0127780919168
1.5041466552e-05
-1.93327398188e-05
0.00978017437564
-0.0127836947337
-7.77511774748e-05
2.52389094121e-05
0.012786359434
-1.81445347457e-05
0.0127911812151
2.3761240828e-05
8.45612418451e-05
0.00982530167434
2.16406375727e-05
7.86977002629e-05
0.00973884085489
-2.45456249094e-05
0.00978110442532
0.0127901013759
2.85683614314e-05
0.0127911235527
-6.73360206454e-05
3.44966677621e-05
-2.7424133885e-05
-3.85563797509e-05
-0.0127925857575
0.0127945795981
3.59063420743e-05
5.03685804937e-05
-0.00974278199221
0.00971290128218
6.3862762432e-05
4.26508574956e-05
6.27854602038e-05
-4.65292912585e-05
0.012792827523
-3.34525627538e-05
4.05119276627e-05
3.43157703407e-05
-0.0127931731524
-2.04086121675e-05
3.89121478616e-05
0.0127944213683
-3.95182748468e-05
-3.79673815702e-05
0.0127923628842
3.3723423773e-05
3.44186075738e-05
0.00969551558134
9.10922624361e-05
0.000112745325467
8.99670535793e-06
0.00966710758398
-0.000110701499176
-3.61906446475e-05
0.00968934476035
0.000117054440575
0.0127914103679
3.3990003418e-05
0.0127926910138
-1.29858044566e-05
3.40037503368e-05
-3.58404662209e-05
-3.33707938585e-05
-0.0127880350771
0.0127879623802
2.61189403708e-05
1.48554345745e-05
-0.00969106448911
0.000159522428246
0.0096914603585
0.000136179058217
2.36303089109e-08
-0.000133904328042
-3.40521310185e-05
0.0127914491152
0.000140019000905
2.88479953611e-05
-0.000404770073544
-0.0494759672204
0.0493850153031
0.000606856464535
-5.86830070678e-05
-4.3842986054e-05
-3.91578028236e-05
-5.86562065698e-05
8.9598278407e-05
-0.000729178070891
0.0500063073257
-7.19301363766e-05
-7.32326325218e-05
-7.71017512583e-05
-6.96417016575e-05
0.000227379661052
-0.0499237188163
0.00071136019604
-0.00117829444688
-0.0501616212817
0.050358894772
0.00103045403865
-7.48826818845e-05
-7.62486327632e-05
-8.99122531072e-05
-7.09095519633e-05
0.000262679669155
-0.000845336780364
-1.83837029212e-05
-2.13773618519e-05
-1.9838604731e-05
-1.99371449633e-05
0.000124945205974
0.0505801306029
0.000671706823259
-0.0504520193219
-2.38687750189e-05
-0.000410507598092
-0.000286036289994
0.00044637591114
0.000327469494734
-5.48470935732e-08
-2.51601696442e-05
1.62840515538e-06
1.69534698875e-06
5.5645510697e-06
-0.000561540928347
0.000568222796888
0.000295581080886
3.88737958692e-06
1.0475836031e-05
1.0207983594e-05
1.7633987765e-05
-0.000384404405321
4.11939301315e-06
-0.000175336083656
-0.000406038520791
-5.04197152119e-08
4.17920527545e-06
3.3416467347e-06
3.14320457715e-06
0.000541704638119
4.05635697392e-05
9.2541501985e-06
-0.000178509076572
0.00028365713136
-0.000198718355237
4.52655326694e-05
1.14288532123e-06
1.09956661879e-05
7.22973537162e-06
7.90724100103e-06
4.29292443958e-06
4.55988744212e-05
4.63530845334e-06
4.38948060873e-06
4.97919573114e-06
-0.000720882611994
-8.17319835417e-05
-2.74713669158e-07
0.00079218528664
-1.5950225184e-08
-5.201546333e-11
6.61893248307e-09
0
6.8688749245e-09
2.58026074401e-09
-6.58275042257e-11
-1.44961985789e-26
-1.56934462125e-07
-5.20336741696e-08
-1.11789235845e-06
-2.17917961917e-08
-1.02949535474e-06
1.86801458448e-08
4.03872222856e-07
1.35378019808e-10
7.65979968219e-29
1.53144572554e-08
7.03386067377e-09
-3.08566306424e-09
-3.5909858443e-08
-2.66869126641e-09
-1.71073180993e-09
-6.23446941886e-08
-7.85365687742e-07
-1.61127856138e-07
-5.22541326704e-07
1.87972121793e-07
0
0
0
0
5.00078388838e-32
-5.71552425779e-32
0
6.05348768832e-10
-7.66053108667e-08
1.94469402974e-08
1.0556753451e-08
5.53831152686e-09
-2.80916055511e-28
8.01717313606e-05
-7.51125730731e-06
3.47779219566e-06
1.88644404467e-06
-5.74980672251e-06
0.049245547246
3.65583797209e-05
5.36617852702e-05
-0.049407908854
0.0492824406272
0.000232494216955
-1.45426393437e-05
-1.53531602085e-05
-8.03557709829e-06
-2.24826006596e-05
5.75060667491e-05
-0.0494317598727
5.61468962281e-05
-8.63205808137e-06
-0.0106549724719
0.00010671688573
0.0106007655819
-9.83012433227e-05
0.0106598625906
0.000104384992316
3.7798700622e-05
2.31497203265e-05
-0.000109942047358
-0.0107094041611
1.03408125616e-05
-1.041474507e-05
2.33030041944e-06
1.16945680346e-06
-0.000160612265452
0.0123069193422
0.0122248938908
0.0122374564969
0.0122999790875
-3.43918229525e-05
0.000118057565796
3.72800443736e-05
1.58441957772e-05
-0.000126156948825
0.0106204679964
0.000393958578495
-5.85086984306e-05
-3.83889540949e-05
-4.39122145416e-05
-5.63092793856e-05
9.50177153314e-05
-0.0495351228674
0.0497016071306
-7.07492975636e-05
-7.90439499277e-05
-7.12884200397e-05
-7.69419030232e-05
0.000129825036595
-0.0496793431503
0.000540114536844
0.0106692036251
2.50960060386e-05
4.91339610922e-05
-0.0107161453728
8.64815800022e-05
0.0105783327583
-4.23293379399e-06
0.000109132464308
-5.8098893097e-05
-0.0106323651403
4.26859330699e-05
0.000866472791783
-5.40056628377e-05
-3.49508826669e-05
-3.26328794929e-05
-5.91687261574e-05
0.0492959856627
-0.00018213493691
-0.000142328874157
-0.000171750013258
-0.000139900441265
-3.77467349819e-06
1.24241458918e-05
1.1174756415e-05
1.97878362512e-05
0.0496842104449
-7.98916388119e-05
-7.79093807931e-05
-7.30514049161e-05
-8.58558703455e-05
0.00021205696326
0.0498255063836
0.000933217900032
-7.70504157566e-05
-9.33782975024e-05
-8.78238914411e-05
-8.04371354479e-05
0.00013090023408
4.48015997585e-05
0.0106299803485
9.74448420714e-05
0.0105373428862
8.52000211231e-06
5.28030980101e-05
-0.0105694670367
0.000149579577864
-0.000173417164215
4.04900972482e-05
-4.77380033608e-06
0.000102334926155
-6.04157075386e-05
0.0105375359053
0.010406090328
6.15634272174e-05
-9.08546737043e-06
0.000127873763972
-9.18543249182e-05
-0.0104554050794
0.0500383067151
-0.000110550494251
-9.76286112234e-05
-9.06277494926e-05
-0.000112578512065
-0.00117082791939
0.000191444901667
0.00144602720499
-9.67188900988e-05
-0.000114928404818
-9.92400927584e-05
-0.000125124349806
0.050644946407
8.04882126963e-05
-0.00169676390342
6.69953518989e-05
0.0105164699581
0.000176911550207
-0.00020056734355
-3.95279460696e-05
0.000208154705962
-0.0104328205248
0.000261917962987
0.0103691752724
-0.00028776853865
7.4813516994e-05
-1.27807958525e-05
0.000124942901894
-0.000111443745525
0.0103706979315
0.000124112040186
-2.08164207585e-05
0.000154921478186
-0.000178103806417
-0.0102993247327
0.0102701226119
0.000883716885019
-6.17090809157e-05
-7.65524861178e-05
-6.61436708903e-05
-6.78008833365e-05
0.000166547524396
0.0503384529228
-4.01882615859e-05
-3.64167922951e-05
-4.32995502457e-05
-3.75220932695e-05
0.000156843700287
-0.0502034072418
0.000749226562125
7.9877535688e-05
0.0104835319574
3.45923927912e-05
-0.0105275406048
0.0103652957739
-6.46749660582e-06
9.08402371558e-05
-0.010406281441
4.37785248956e-05
0.0103048912918
-1.46964880654e-06
1.77791151978e-05
-2.91732481856e-05
-0.0103295773396
3.22159898152e-05
0.00119910238975
-8.17986126671e-05
-0.000102238754545
-8.79945760474e-05
-8.48212122637e-05
0.0506636042881
0.000299192510233
0.0504884212812
-4.64502396265e-05
-3.45372193764e-05
-4.11198750574e-05
-3.28857981172e-05
0.000190103515341
-4.97621157989e-05
-4.24828889383e-05
-4.41527633297e-05
-5.31061116278e-05
0.0506850093857
0.000969097953324
0.000222865837498
8.76452810971e-05
0.0103391358845
5.04371580321e-05
-1.63628023586e-05
0.000116779776198
-0.0102905541535
8.59895669546e-05
0.0102668418526
2.94203510427e-05
-3.93056633913e-06
1.68177601406e-05
-2.88532490868e-05
0.0102877053268
2.82077339221e-05
-7.94294551636e-06
2.19905379714e-05
-3.66737822728e-05
-0.010266363126
0.0102702405327
9.94533435671e-06
0.0102816428456
3.49218145756e-05
-0.010296084468
1.42026798714e-05
-0.0102673111813
0.0102708739395
-7.75311310905e-06
2.64120192972e-05
0.000333123088866
-4.60829118064e-05
-5.66824979986e-05
-4.72935709e-05
0.000546612363552
-0.00021670592807
-0.000350131824269
-4.34607903496e-07
0.000461423017191
0.000396623607556
-5.17955131819e-05
-3.61621389863e-05
-4.5497701105e-05
-0.000269896835724
-4.18101329407e-07
-8.08840081141e-08
-4.96793995799e-05
-3.8327175932e-05
-5.33959400438e-05
-0.00034100060362
0.00063528608254
-9.47498791097e-08
1.45570315709e-08
1.06299945682e-07
-8.36119862238e-08
7.15756549598e-08
2.92064386463e-08
-1.07296327083e-07
1.84380306497e-07
-8.60531389582e-07
-4.46070862492e-08
-1.36405410929e-08
6.68319689404e-08
-2.59743019252e-08
-1.41576174746e-09
6.38113429972e-08
-1.71264900803e-06
-3.15997355707e-08
6.64145993206e-09
-5.69015624655e-07
9.28844181375e-07
-9.29686096422e-06
-4.50263288801e-06
-1.65251075897e-06
-1.13716209014e-06
-6.21671709189e-08
-5.5254362765e-07
7.50718917179e-07
-8.35074170604e-06
-6.50062588007e-06
0.000314283475824
-2.2467357884e-05
1.73046025129e-06
1.71401211668e-06
-2.45789884687e-07
-0.000102928925712
-7.60568722158e-05
3.04636821889e-06
4.21922573132e-06
3.2694866574e-06
0.000233518412662
-3.41365027158e-08
0.00016789528416
0.000321533553258
-1.17324179453e-08
-1.54787458122e-05
4.86354052481e-06
2.65100683439e-06
-0.000403937382655
5.91976527114e-05
7.70680567254e-07
3.56825812335e-06
5.36744020472e-06
4.3766481531e-06
2.12250275957e-06
0.000148671142392
0.000181195361739
7.94676331579e-06
7.66491906092e-06
6.30773402434e-06
-3.08530262952e-08
-9.47652694737e-08
5.68237685784e-08
-1.2126439032e-07
-3.87471727783e-09
-4.25449127859e-08
-2.06514403156e-07
9.77266971903e-08
-4.21676065922e-10
-2.07306243333e-07
0.00026840919622
8.08282385186e-06
2.60723725403e-05
3.62571122522e-05
2.75857323881e-05
0.000449594913053
-0.000351291507402
0.000168976596767
3.80395470702e-06
1.19334688551e-05
1.45002453587e-05
1.52992330204e-05
6.37172744676e-06
0.00017079412711
2.72992587184e-05
1.89662358826e-05
2.11834001301e-05
9.69109557893e-05
-2.01617022026e-07
-3.01644872636e-07
2.51475086458e-07
-4.21907380866e-06
-7.24355446543e-08
-4.6372927421e-07
-1.89004578445e-07
-1.72342114369e-06
3.90038821516e-05
1.23121709139e-07
5.57451771094e-06
4.78988081357e-06
4.45253247728e-06
-2.11157785331e-07
-0.000594001035083
2.76670677612e-06
1.50667539506e-06
2.41887247167e-06
0.000716457558224
-4.57487211122e-05
8.37519115729e-08
-1.66806244475e-08
-1.99740671562e-07
-1.94084860878e-07
1.49028301768e-07
1.65805041947e-07
-6.55789123502e-08
-1.97242127971e-07
5.55177935331e-05
2.83834522232e-06
1.37758160712e-05
1.19193562113e-05
1.10379741173e-05
-0.000173790383597
-0.00049066246104
-1.53039342629e-07
5.30753304119e-06
4.39812431701e-06
6.11540154327e-06
-3.7075244713e-08
9.68895324578e-06
7.2999765011e-06
8.92835636284e-06
-0.000423444705916
-2.91886802557e-05
2.61665069808e-07
-3.10139399473e-07
-2.66934975735e-07
7.2942357772e-07
2.56871256539e-07
-3.0720121602e-07
5.83189675748e-07
-4.16822054137e-07
0.0123809616038
-7.72213661306e-06
7.54190894223e-06
4.40991422556e-06
-0.0123922348371
-2.9327541774e-06
-0.0123774011518
0.012356929463
1.92497200828e-05
9.81714167224e-05
6.01928312276e-06
-9.05479544811e-05
-0.01071463617
-6.34526265708e-06
-0.0106680649065
0.000111927430579
0.0106144768693
1.18709021269e-05
0.0123627735608
0.000102693421049
-0.0107282548863
2.03119624228e-05
-0.0123894255583
0.0123881720548
1.38339071853e-05
-1.47048474154e-05
-0.0123969099868
-2.56986294768e-05
-0.0123987487738
0.0123899594203
4.35220329538e-05
5.19825341823e-06
-0.0106884114464
0.0106361377079
3.02695730948e-05
-0.000100602224147
9.43822140866e-05
-0.0107657939345
0.0123727010554
3.0054347055e-05
-0.0124066401468
-0.010745174022
-0.0123519639806
5.7514532024e-05
1.32257892079e-05
-3.24869228509e-05
0.012326012673
-3.60390539362e-05
0.0123725839044
6.09520481981e-05
-5.90701382268e-06
0.0106025657022
-0.000132795147962
4.98554797486e-06
-0.000141940862901
0.000135098266484
0.0105881002757
-1.7081759307e-05
8.53275252669e-05
0.0123532204416
-0.000147820824543
0.0105723184319
-4.4093558992e-05
0.0124310692945
-9.06497284694e-05
7.60575117104e-05
-0.0124293834657
-0.012415171668
5.80398955543e-05
0.0124131865793
5.47729907854e-05
8.09317058375e-05
-0.0107715760608
8.96622602027e-05
-0.0107229772347
7.19798488437e-05
0.0106756385546
-0.0124172283423
9.28890256633e-05
0.0124317400822
6.93228750451e-05
-0.0107728780853
0.0124485166165
0.000102086854474
-9.95331128153e-05
-0.0124438668607
-0.000120645334575
-0.0124680538127
0.0124719568301
0.000149260343733
9.88774844925e-05
-0.0106758446798
0.0106260415598
0.000109393196286
-5.99458429025e-05
-0.010687186526
4.69958029074e-05
0.0124507903343
-0.0124611631909
0.000129696245147
-0.0107286854078
-0.00010360700967
-0.0124223275279
-8.59486025556e-05
0.0124144564983
0.000141872251734
0.0123988531638
7.87108959468e-05
4.16773335199e-05
0.000111757581416
0.0105938929659
8.41462119501e-05
0.0106349088449
7.8217178169e-05
0.0123856178477
0.000116552493458
0.0105940973124
8.91100254832e-05
-0.000137428100722
0.0124076733571
-8.44475310348e-05
0.000177325358564
-0.0123698739964
0.000174445374566
0.0123623680462
-0.000148317016139
3.95572067715e-05
0.000131670594446
-0.00015538734234
0.000101537738852
-0.0105638514062
0.00011975269917
0.0105250824638
-0.000113003373437
0.000216435632991
0.0124098988359
0.000102731978703
-0.0124443980477
0.000172849953971
-0.000105903329683
0.0124427704831
-0.000146940567707
0.0124695294707
0.000176773997184
9.39218077106e-05
0.0105848750789
0.000112719917527
-6.87329286902e-05
0.0104916070122
4.49734507112e-05
0.0124707103981
0.000201729802445
0.0105385859093
0.0124426197241
0.0002056727709
-0.000102439474163
-0.000241571492671
-0.012477020189
0.0124927515893
0.000262820503451
0.000122599351772
-0.0105028579127
0.0104565158286
0.000110234006252
-7.90949183485e-05
5.13946218861e-05
0.0124544292684
0.000232221729509
-0.000266514879924
-0.012418152607
-0.000153003593865
0.012447972599
0.000312262948153
7.90157360056e-05
0.0123615908294
0.000217639650453
3.60602579915e-05
-0.000185144800768
0.000118770829308
0.000199680993942
0.0104716725136
-0.000228664383722
0.000111754738585
0.0104913494345
0.00014605946056
0.0123957151884
5.65682749032e-05
-0.00023748642163
0.000262913995538
5.99242828617e-05
0.0104278651695
0.000174500014458
-0.00031437009068
-0.000167908537493
0.0125201368655
0.00035554069164
5.62649878197e-05
-0.0124775751936
0.00035393818641
0.0125929138243
-0.000330331391294
7.09325345575e-05
0.000151682768259
0.00022467858724
-0.000255557599241
-0.0103753724754
0.000207288162823
0.000226960658596
0.0103134464203
-0.000284478579019
4.11161845977e-05
0.000197384815571
0.000391186170075
0.0126093124524
8.28865761336e-05
-0.0124678381528
0.000324286869186
-0.000151760040981
0.0124990491633
-0.000282181561855
0.0125090970402
0.000295480400173
0.000121262366759
0.0104250229676
0.000141983612698
-0.000132204445386
0.0103252674843
9.05633311308e-05
0.0125360994962
0.000328930335067
0.0103767568923
0.000358892904595
-0.000152810838572
0.0125538478539
-0.0125765606356
-0.000388430733238
0.000380360870227
0.0126267720617
-0.0103442329033
0.000188120281905
0.0102968858584
0.000136863957912
-0.000151927285395
0.000105626904962
0.000358252868201
0.0126217874292
-0.00020888279766
-0.0125234785995
-6.63016969377e-05
0.0125274292969
0.000202065424344
0.0124980203849
0.000185149257706
-0.0124970044116
8.42279616322e-05
3.5608794763e-05
0.0104381481661
6.69049172684e-05
0.0104388891349
-0.0104859852945
3.41089692291e-05
0.0125010124233
-0.0125195132163
0.000181037348669
0.0103962853295
3.07572708373e-05
-0.000236459437319
0.0125376945283
-5.82859249374e-05
0.000225130070784
-0.0125100426209
0.000263828502302
0.0125250789078
7.69206446768e-05
3.70377746893e-05
6.52693460416e-05
-0.0103655873084
3.05285477863e-05
0.0103315678359
0.000247874861652
0.0125525144286
2.8942783512e-05
0.0125628890724
0.00020711890641
-2.9052170145e-05
-0.0125541848081
-0.000226128963217
-0.0125827783406
0.0125946439228
0.000196384142052
3.38185905883e-05