/*--------------------------------*- C++ -*----------------------------------*\
| =========                 |                                                 |
| \\      /  F ield         | OpenFOAM: The Open Source CFD Toolbox           |
|  \\    /   O peration     | Version:  v1906                                 |
|   \\  /    A nd           | Web:      www.OpenFOAM.com                      |
|    \\/     M anipulation  |                                                 |
\*---------------------------------------------------------------------------*/
FoamFile
{
    version     2.0;
    format      ascii;
    class       surfaceScalarField;
    location    "11.65";
    object      alphaPhi0.water;
}
// * * * * * * * * * * * * * * * * * * * * * * * * * * * * * * * * * * * * * //

dimensions      [0 3 -1 0 0 0 0];
oriented        oriented;


internalField   nonuniform List<scalar> 
92311
(
0.204127385385
-0.00019990684607
-0.00109378079531
-0.20377396252
0.000940597815256
-0.000129101051873
0.204286718705
-0.000874155080986
0.000843880133959
0.204264032482
-0.00039468968869
-0.00116789206119
-0.203911052489
0.00100989568548
-0.000119885277722
0.204321600355
-0.000902608470657
0.000835800792444
0.204522052747
-0.000261552837608
-0.000151176012702
-0.00120477527835
-0.203938508314
0.00102234719557
-0.000234659188097
-0.000148577423398
-1.38607442021e-05
-8.46652889327e-06
4.2433840646e-05
0.204452724536
-0.000997018044907
0.000922903665067
3.30506393289e-06
0.0513443994534
-8.211266499e-05
-6.89266671069e-05
-7.965074713e-05
-7.22875512098e-05
-0.000313481448325
-0.051281111713
0.000291585871868
-0.0513904340501
0.0514145986545
1.0702965912e-05
-2.2259757447e-05
-9.63675898563e-06
-7.07499479713e-06
-0.000342127301401
0.000332224676319
1.61897197813e-05
-0.000682753444795
1.24945211988e-05
1.43292433405e-05
1.0480963054e-05
8.51090956463e-05
0.000408063826983
6.21440357065e-06
3.89218008677e-05
-0.00126552868811
-0.000111963751119
-1.35003636672e-06
0.00118108944601
-3.15151363065e-06
-2.94330380125e-05
-1.0449293579e-05
-2.85533592619e-05
0.000266648987796
4.23126978378e-29
0
0
0
1.23334870496e-27
0
0
0
-5.12291381286e-05
-3.82576641594e-05
-3.12624979123e-05
-5.59469138045e-05
-0.000338871387192
0.00031818080048
9.49358402832e-05
0.0101457826245
-2.72897729496e-05
3.54154638394e-05
-0.0101833792515
0.0100505882817
1.7465738029e-06
3.40619202051e-05
-0.0100827318139
-8.86495071036e-05
8.98316210737e-05
0.000336780843697
1.78541979588e-05
0.0513807717385
-4.18305391263e-06
1.59260782259e-05
-2.2519812348e-06
-0.000338821564196
4.62402174701e-05
0.0513554351809
5.75644269452e-05
3.90834017505e-05
4.09858847298e-05
-0.0514206405022
0.000260324445051
1.28607494168e-05
1.93074494507e-05
0.0100202001705
-9.87279515933e-05
0.000101582637905
0.000109053202153
0.0128011065008
-0.000121134802731
3.77718967161e-05
-0.0128078933362
0.0128028116243
9.42979596589e-05
7.60333162827e-05
-0.0128177867699
-0.00025235393176
0.20413394821
-0.00176290300175
0.00152325774011
-0.203641683087
0.204304621533
-1.39021480595e-05
-0.000480145642963
0.000475954829452
-1.27039850187e-05
0.204359635197
-0.000368366736175
0.000325048233877
-0.000535683959344
0.20419127573
-0.00164533468832
0.00146699143222
-0.203729489723
0.204427944437
-3.01016357606e-05
-0.000647311595346
0.000556952841985
-3.28117537826e-05
0.204573306755
-0.0004830041076
0.000356792439072
-0.000199594108704
-0.000295542569328
-0.000316044796804
-0.00158290520667
0.204132681128
0.00143767978318
-0.203502207003
-0.000209854877352
-4.09632207501e-05
-7.70347087822e-05
2.32079598311e-05
-1.39403109706e-05
0.204616782136
-0.0006337028213
0.000548299850375
0.0512093108377
-8.05229804776e-05
-7.13117881707e-05
-7.93540937131e-05
-7.04971472189e-05
-0.000417146088142
-0.0510706566631
0.000380719517564
0.051350241176
0.000341897549634
9.21849823236e-06
-1.48803464317e-05
-1.58707882304e-06
-2.62646942402e-05
-0.000318817079851
-0.000302410838639
2.13385585436e-07
-0.00128430334166
4.03022981431e-06
-5.49558710837e-06
4.54301456455e-06
-2.0760782838e-06
0.000304191992647
-1.60887616314e-08
2.88032833846e-08
1.12427142914e-09
-1.80880856416e-27
6.18702279055e-09
1.16660141119e-07
1.77373736e-08
1.96985484242e-08
0
0
0
0
1.15056783135e-29
0
2.76195606013e-28
0.000347535843126
-8.867259015e-05
-0.000100554412569
-8.69088550365e-05
-0.000104557022689
0.0512963214164
-0.00034929371575
-9.22278072588e-05
-0.000103099652556
-9.05551675968e-05
-0.000101587073209
0.0512823353324
0.000321985690223
-0.051185280145
-1.52246680253e-05
7.22597411349e-05
0.0102828978204
2.10473722913e-06
-2.96538095549e-06
-0.0102923753486
-1.68835781155e-05
0.000116749612339
-0.0102595845381
-1.05616434012e-05
-8.75332557243e-06
0.0102315596161
-0.000103604355085
0.0127828317523
-8.36250440002e-05
8.34099443057e-05
-0.0127699735753
0.000291615196738
-9.62539738811e-06
-3.43313639595e-05
-3.08882002122e-05
-1.64264797012e-05
0.0513529730499
-0.000280031157822
0.0512766420582
4.12275712832e-05
4.99703616348e-05
5.70705185878e-05
3.16418873141e-05
0.000263843810773
3.76263956915e-05
1.83388656759e-05
1.3788356845e-05
-1.22518030666e-05
0.0512454853359
0.000251278613312
0.000108057231991
-0.000119610445566
2.93367540072e-05
0.0127941149821
-4.12111844859e-06
2.57783303144e-05
-0.00992428353216
-0.000113470133257
0.00990046004982
0.000117422622656
9.8089554935e-05
7.0825414378e-05
0.0127838683459
-0.0127658220989
6.39151931315e-05
0.012758075204
-8.50445929935e-05
6.67167069902e-05
-0.000981038043719
4.91976151685e-06
-6.40386683117e-06
2.62325960801e-06
0.000220912776625
4.19737418975e-05
9.84718431573e-07
-3.42274270704e-06
-6.43666847171e-05
-7.11702957806e-05
-6.55436528522e-05
-6.07115643517e-05
-0.000643495292385
0.000117016679643
0.000723338992178
-1.7938078998e-06
-1.89374127367e-06
3.1941212238e-06
1.6590849086e-06
4.70251833285e-06
-2.51049424928e-06
-3.61993508562e-06
-1.55958838866e-06
-1.93821714024e-05
-2.08527983649e-05
-2.63569151018e-05
0.000270356333574
1.40506363506e-05
-1.50067649922e-06
5.81111157603e-06
1.9910427731e-06
8.97296708661e-05
0.0128192721977
-9.16811934184e-05
-0.0128036069238
-0.012826645783
-6.29287980228e-05
-9.48108582277e-05
0.0128258637886
8.94829668774e-05
-5.18937395368e-05
7.38444149617e-05
0.0101188959715
5.73169960342e-05
8.90353644884e-05
0.0101443107813
-0.0101826236457
-2.29201799139e-05
-0.0128084576405
8.18545111055e-05
0.010115928682
-4.78994535454e-05
0.0128208898483
-9.48210800965e-05
0.0128289295269
-5.023811219e-05
-9.79083694505e-05
9.25669645978e-05
9.785826906e-05
-0.012824739533
0.0128179062647
-9.76211743742e-05
-7.02399025782e-05
6.19434282132e-05
7.36577107363e-05
2.20040781337e-05
-0.0100780411564
0.0100492918676
-8.75379986114e-05
0.0128226754194
9.24477476253e-05
-6.716580098e-05
-9.67633032493e-05
-0.0128215801081
1.57803984106e-05
-0.000105968748455
0.0128204556156
0.00010184486167
0.000100920357661
0.0128129621692
-0.000100051809143
-0.000105083560437
7.88680158059e-06
0.0099980969771
0.000105703612801
4.88468557425e-06
0.0100148378441
-9.58187914054e-05
9.53408090233e-05
0.00999036918786
-9.82075445632e-05
0.012811891581
-0.000103924876671
-7.81561180287e-06
-0.0128026201797
0.0128027393324
-0.000115977050763
-0.000108508120762
-0.00999269146902
0.00998112707179
0.000114998301413
-0.00998007393581
-9.69521421578e-05
0.00996833747398
3.68558400359e-05
-0.000115988848395
0.000107886558725
-0.000109621340819
-3.38040557245e-06
0.000112047387914
-9.92771563214e-05
-0.000111451324506
9.76093773641e-05
-0.0128241772209
0.0128038067709
7.41312268125e-05
-9.99870440494e-05
-0.0100024615293
0.00999581546181
-0.010013294421
0.01000565006
-9.52744407595e-05
9.19625665767e-05
6.88255300346e-05
-0.0128320439527
-7.38889324808e-05
9.99269210319e-05
-0.0100316150048
-9.66991528037e-05
-0.0128389723579
7.32096942025e-05
-0.0100132260962
7.70232180006e-06
-1.91109931771e-05
2.08408493126e-05
2.20133380184e-05
2.18335962813e-05
1.9855463405e-05
-0.000275846499481
9.59054825793e-05
1.37376525511e-05
-2.03270869756e-06
-9.2220496346e-06
5.52574722784e-06
5.19490088174e-06
-0.000177684742988
4.93939144846e-06
1.55479753033e-05
1.76794478906e-05
1.92066910244e-05
-0.000188833468523
0.000119786873891
0.000123097044142
6.78403673649e-06
1.51184402905e-05
2.06565954198e-05
1.83614689205e-05
-0.000357152258048
-2.78564316994e-06
-5.45070662757e-06
-5.72234627158e-07
4.45495704692e-06
2.64304223281e-06
5.69540750364e-07
-8.16455983976e-06
-2.27406642086e-06
-0.000666314255953
-4.15297610576e-05
-6.25903130017e-05
-5.58366058684e-05
-2.96493358701e-05
-7.08915479372e-05
8.83652741743e-07
-1.45372625826e-06
8.19885571743e-08
-1.74241118275e-06
2.30447252397e-06
-7.29426365882e-07
0.000480947583456
-3.06355802414e-05
-1.60154725309e-05
2.15246984677e-06
-4.0392876977e-06
-0.00078093879709
-0.000313461452292
9.24830837219e-07
-1.20932581007e-06
5.04526044666e-07
3.68561726706e-07
3.94177834969e-06
1.08762074294e-06
2.96113487706e-07
-0.00122656325916
0.000393820786159
-1.24550014029e-06
2.21740087684e-06
-8.28276791932e-05
-0.0127538379516
-9.23672402914e-05
0.0127644032905
8.55388800255e-05
0.012761319654
8.55061651287e-05
-9.27848161273e-05
-0.012751215995
8.1939323347e-05
-4.22404230537e-07
0.0102724676534
-6.25479436452e-06
7.98635084563e-05
0.0102844164117
-0.010301205989
8.68472665607e-06
0.0127687900848
-8.63339372256e-05
-0.0127417647703
8.49076841457e-05
0.0102689028123
-4.73468575668e-07
-7.6545690262e-05
0.0127736456697
-0.000104063402864
8.35171528364e-05
-0.0127748187941
7.6250806121e-05
-7.00647887483e-05
0.0127850216277
9.38863454934e-05
-5.86182388033e-06
-7.12025896846e-06
0.00012520988177
-0.0102481328867
-2.18787503462e-05
0.0102145038941
-7.4912716247e-05
8.55126405922e-05
0.0127853272611
-1.00493403386e-05
0.0102145652816
4.0005210193e-06
6.79593092212e-06
-0.0102426149648
0.000114669799253
1.78183146065e-05
0.0101767147646
-1.07322467615e-05
-8.96421557443e-05
0.0127949770564
9.00005044316e-05
0.0127776281362
-0.000100353846381
-0.0127667789251
0.000117386846521
-0.0102329674421
0.0101964636541
0.0127901834574
-0.0102551830466
-1.78929731943e-05
0.012803944525
-0.000115966119322
-0.000114585677725
0.0099668052282
0.00012236612157
0.00997044714367
-9.8364204082e-05
-0.000115765720436
1.46190076118e-05
0.012792344565
0.00010308925769
2.77789629853e-05
-0.000117682899625
0.00994578450804
0.000123863558146
0.0128057415237
-0.000114030611525
0.0099614720034
-0.000100822199679
-0.000105049035918
0.0127930466689
5.96509250412e-06
9.05168182257e-05
-0.0128082983048
9.09659184173e-05
0.01280866022
-9.88306308771e-05
2.87243475163e-05
-0.000117272812695
0.000120018879638
3.70945727255e-06
-0.00995116281458
-0.000104642499604
0.00993245796291
-0.000107939113945
7.55330984669e-05
0.0127970179262
-0.000106517641527
-0.0127789565233
8.50528360589e-05
-9.64091145541e-05
7.44771067153e-05
0.000101159299802
7.85830183336e-05
-9.20329927023e-05
0.00999995942434
0.0100096542647
-8.53475073818e-05
9.2202219526e-05
0.010009237472
-8.47934377031e-05
4.61656604096e-05
0.0127769946069
0.00999506166979
0.0100153664483
9.38908848002e-05
-8.4257563089e-05
-3.48231560424e-05
9.53873798278e-05
0.0100109351946
-8.58919308048e-05
-7.05548880845e-05
0.0127576789126
5.49159425411e-05
0.0127753647503
2.18853200092e-05
8.4501993396e-06
-0.00998914070912
0.00996231449873
0.0127768421191
-9.17051980668e-05
-9.23130010781e-05
-8.20843608833e-05
-0.000316710385565
0.20499738409
-6.20549071385e-05
0.00023154903408
0.000228198617328
-2.16611774664e-05
-3.16559193763e-05
-3.29959439518e-05
-1.78263683197e-05
-0.000242247672272
0.0513796187833
2.55343980205e-06
-0.000503528220481
5.46132365856e-07
1.77760485308e-06
1.84071565107e-06
2.15382871745e-06
0.000387315774095
-0.00114716402233
0
0
0
-4.58544548693e-29
-4.76075588899e-29
0
-2.38309153479e-29
-9.73538505036e-05
-9.64025108129e-05
-9.76644106492e-05
-9.25036254649e-05
0.000313745784986
-0.000315290795685
0.051354412807
-1.84633762419e-05
0.000114414968423
3.64785433432e-05
0.0101380809723
0.0512655842321
-3.15910978728e-05
-3.36065345647e-06
-2.21275573951e-05
-2.34367233004e-05
0.000196408339601
0.0512923852987
-2.579839645e-05
-2.66718126653e-05
-2.25433630278e-05
-2.63268497123e-05
-0.000132869566133
0.000125529928479
2.31453928885e-05
0.00986857573992
-0.000104955819808
0.000112603351166
-1.18324330754e-07
-7.85067852237e-06
9.2621249454e-05
0.00999817053489
-8.59496349678e-05
0.00989260167652
-1.77527016123e-06
1.98864032397e-05
5.69024223506e-05
-0.00992367358482
-6.26503277125e-05
0.0513123118644
-1.20390743103e-05
-2.33320031038e-05
-2.00067291898e-05
-1.87012276843e-05
6.1936408107e-05
-5.0238680421e-05
4.27181587817e-05
-2.82834747447e-06
-5.09111834998e-06
-3.62810234505e-06
-9.25566009786e-06
2.32567024552e-05
6.42645246041e-05
0.0512877806033
-4.1900870218e-05
1.16879454832e-06
1.36613388264e-05
3.49167115052e-05
0.00987304587878
-4.39519729436e-05
6.76985219291e-06
-2.08518669766e-06
-8.38803463944e-06
-0.00985962866038
0.00984904267319
5.96044797915e-06
1.93315699436e-05
1.41172338412e-05
1.53536637944e-05
0.000179757460527
-0.000560967706013
8.16386304148e-06
-0.000853949212016
5.31214812629e-07
2.11126331999e-06
3.50765888917e-06
1.80323143593e-06
-0.000460577106875
3.08557331291e-07
-0.000839726561866
-1.75044697204e-07
2.51734996814e-06
7.64083427816e-07
0.000449394507572
-0.000490550958514
-2.06092269611e-07
1.21722686214e-06
-7.20726969572e-07
-5.65953560363e-07
8.64830524348e-07
2.31493235571e-07
2.15074699738e-07
6.74115003718e-07
-0.000791574272454
1.14412049575e-07
-3.7333853013e-06
-4.45060982035e-06
0.000266240755333
-2.41374510039e-08
-0.00032748727687
1.8770946385e-07
-4.47767847293e-06
-2.48020841258e-06
-0.000114683350489
-2.72458105172e-07
-0.000649124641273
-1.18219466246e-05
-0.0128083581371
-0.000109883918092
9.25958137168e-05
-8.34658402835e-05
0.0128118965147
-9.06831223782e-05
0.012812624472
0.000121956809892
0.0101556872279
3.38361620746e-05
5.04401595101e-05
9.67560700979e-05
0.0101126238545
-8.39715263881e-05
4.15621397736e-05
0.0101236269081
0.0128145903643
-5.87819423609e-05
-0.0127996526298
-1.16607074086e-05
4.76653272615e-05
0.0128011207651
0.012811463244
7.44750845756e-05
-8.50177600152e-05
1.90086667495e-05
-9.7098259754e-05
0.000106244499304
0.00983423071791
7.54080076027e-06
0.00990656407396
-9.3054916586e-05
-7.16007784935e-05
0.012811012442
6.19744538702e-05
-8.27443175975e-05
0.00987310918211
-0.0127794035685
-2.01641622832e-05
3.38534978204e-05
0.0127818399983
-5.512026775e-05
0.0127590111736
4.28517596274e-05
1.76525712138e-05
0.00993651626832
8.73645443942e-05
2.15678420516e-05
0.00996401553589
-8.56880029436e-05
0.009912431195
0.0127653455885
2.57686882637e-05
0.0127875454805
-1.90734591157e-05
1.58370774899e-05
-2.81959004973e-05
-2.56781834859e-06
-0.0127743779956
0.0127753982349
-5.5258005229e-06
1.35155881509e-05
-0.00988625793466
0.00986669004854
4.94662241951e-05
6.97816930039e-05
2.87890171179e-05
-7.22512043078e-05
0.0127888755322
-1.2635612261e-05
6.53394421081e-05
9.2261806379e-06
-0.0127885696145
-9.55933607343e-07
-1.94911502059e-05
0.0127828084613
1.47316703118e-05
8.6707128747e-06
0.012774518224
-1.79690928476e-05
1.19840896074e-05
0.00984833883288
2.86229328157e-05
1.8570967718e-05
7.4468059505e-06
0.00986462387954
-2.82984954882e-05
1.36986394679e-06
0.0098329712419
1.43476199283e-05
0.0127710072116
-2.71240448188e-05
0.0127771432346
5.64815558617e-06
-2.79630874892e-05
2.57844290651e-05
3.3744451645e-05
-0.0127671081177
0.0127639734827
-3.74773894455e-05
1.22829378423e-06
-0.00982981952237
-9.47719315923e-06
0.00982863457668
2.20745472857e-06
4.3265348919e-07
-8.99219859516e-06
3.56735472907e-05
0.0127736266225
-3.41483257013e-07
-3.27016388663e-05
-0.000628144861296
-0.0500898220342
0.0498491950381
0.000649121795261
0.000170124575955
0.000140448739726
0.000175727437283
0.000138208977264
-0.000404980954478
-0.00070715864092
0.0502588797564
8.50479748693e-05
7.8245714808e-05
8.71733163111e-05
7.87703666891e-05
-0.000176456188355
-0.0503982348152
0.000693673681327
-0.000985144558948
-0.0502199920668
0.0503061875495
0.00088028486848
3.08716574511e-05
4.7749555476e-05
4.03217012574e-05
4.10531413928e-05
-0.000141393630078
-0.00075781685032
1.74860314422e-05
2.74030455257e-05
1.79681478742e-05
2.7121096202e-05
-4.0622844907e-05
0.0504388882473
0.000671609796056
-0.0504020032258
-0.000178785896977
8.33404906836e-05
0.000968445962726
-0.00068623332862
0.000147841992433
-5.95370845046e-06
-0.000200222665956
-0.0001703907252
-0.000187317323999
-0.000214879292653
0.000282837561366
0.00017705781353
0.000235878243326
-1.87956802077e-06
-0.000217050401033
-0.000182183673545
-0.000172659370555
1.0615604107e-06
-0.000106534196546
-0.000204960220747
-0.00105717705
-2.85217980615e-06
-0.00010857300728
-9.67348253259e-05
-9.99095681704e-05
0.00136731715096
9.16108928067e-05
-0.000106258419148
-0.000277821987673
0.000656233989215
-0.000213654945196
0.000146613807343
-1.56671725294e-06
-0.000102332061296
-7.99389669156e-05
-7.71804975631e-05
-4.10542827623e-05
-2.46599187548e-06
-3.67285599988e-05
-3.68314122221e-05
-3.4139169655e-05
-0.000394436435812
-0.00012095326701
-9.82859514849e-07
0.000675745474942
1.28503248452e-07
-4.90638314654e-08
7.85942500901e-08
7.04033716008e-07
9.74968417478e-08
1.20056928458e-06
5.06443701877e-08
-4.56043809658e-07
-2.97076272813e-26
1.17793550261e-07
1.94102600383e-07
3.43549168132e-07
3.48751698291e-07
-1.94522115773e-09
5.52582465214e-07
4.31559342894e-08
1.93200763075e-26
4.77322582835e-08
7.14723946021e-07
4.06353784233e-08
3.97582455937e-07
-1.92414458617e-07
9.67070815864e-29
1.39675360857e-08
2.91883982038e-08
0
0
0
-3.35230048041e-26
0
2.56992681404e-08
1.78065813761e-08
-4.35058495166e-08
-2.16399390375e-27
0
0
0
0
0
0
-8.59893621531e-46
0.000344654559218
5.27169812334e-05
8.99255107123e-05
0.000107127379019
3.57283305239e-05
0.0499682897041
-0.000117973547384
-0.000186602783224
-0.0502940566804
0.0499654624746
0.000470914451274
6.39176441077e-05
0.000123825380018
0.000118297544773
7.30970255011e-05
-0.000149494583562
-0.0503216885715
0.000116989012036
-0.0001338177492
-0.0106236977981
-1.05299588122e-05
0.0106170816479
1.23843839879e-05
0.0106519024133
-7.36253181568e-07
0.000149428966628
-0.000179432258167
2.76627159138e-06
-0.0106735072492
0.00019388077046
0.000163429160626
0.000155084192335
0.000200166618255
-0.000482032176242
0.0124161704049
0.0123394523082
0.0124105351974
0.0124215302571
-0.000480691327005
2.55171308526e-06
0.000189209927364
-0.000200572471933
4.74068783948e-07
0.0106032466357
0.000562324470707
8.18456577074e-05
0.000120264296268
7.6956616761e-05
0.000118479052817
-0.000199059308177
-0.0503801174916
0.0502341013765
7.50224660374e-05
0.000107742323203
0.000104234327559
7.99035029425e-05
-0.000216980949087
-0.0504308449061
0.000608989456256
0.0106915208515
0.000137774455078
-0.000161637959674
-0.0107099035783
-4.45843573175e-06
0.0107877153179
9.98863357973e-05
-0.000124151266341
1.51229507097e-05
-0.0107838523192
-2.0999765865e-05
0.000895253592471
0.000167753816245
0.000200629723154
0.000174261864433
0.000185973692321
0.0496005567914
-0.000222208959393
-0.000183215855363
-0.000217668216907
-0.000182563483742
-0.000167489666733
-0.000119663491554
-0.000159705298352
-0.000122509243877
0.0500305258147
0.000127205268624
0.000103245799032
0.000104723685934
0.000116722256068
-0.000306325516292
0.0500127526796
0.000819478379021
0.000118507793931
0.000106429051948
0.000126767662296
0.000106390683672
-0.000364541619858
-0.000177814918781
0.0106409513571
-3.73599244257e-06
0.0105204902545
0.000236297558041
-0.000243338433427
-0.0105685450705
3.89000712224e-05
-4.19216376239e-05
-2.99490350661e-05
0.000121931951216
-0.000119545950096
2.32468238573e-05
0.0107597410359
0.0106447236924
-1.04314805883e-05
0.00014018515279
-0.000108660514123
-8.3563162443e-06
-0.010691817891
0.0500881008343
0.00010776054201
8.55211681596e-05
0.000106654399751
8.1839254071e-05
-0.00106448427054
-0.000377929011954
0.00117796794143
0.000100697822878
6.69040986699e-05
7.68747773047e-05
9.31498173722e-05
0.050584267572
-0.000504397404661
-0.00150760787303
-0.000225082377155
0.010481286129
5.65611881162e-05
-6.61001129513e-05
0.000128241123348
-0.000191401914623
-0.0104730587043
0.000136216571998
0.0104946131879
-0.000143734275611
3.5452597611e-06
0.000118442178446
-8.03912427956e-05
-2.72255595618e-05
0.0105945518227
7.24057351554e-05
6.56093087851e-05
-3.92819341428e-05
-9.99423737807e-05
-0.0105238587836
0.0104931266069
0.00076764370221
6.76490613868e-05
6.87104603402e-05
6.92836448836e-05
6.35468540668e-05
-0.00017851048081
0.0503482601524
6.0127661291e-05
5.52436503345e-05
5.48964292236e-05
6.09859922647e-05
-0.00014556730996
-0.0503783464105
0.000712075561358
-0.000103066142377
0.0107611677952
-3.78796403718e-05
-0.0107855774672
0.0106626496209
0.000123113412415
-8.48166860251e-05
-0.0107067756222
-3.54175344854e-05
0.010698741447
8.29475791555e-05
-7.05734131119e-05
5.07519421318e-05
-0.0107357656631
-5.06778332786e-05
0.000978390846132
2.31227316109e-05
2.17456173361e-05
3.21081434571e-05
1.05712576589e-05
0.0505664519012
-0.000148343016865
0.0504060237423
2.21683895124e-05
3.44846415066e-05
3.14647945001e-05
2.3805138561e-05
-4.72249550239e-05
1.197758589e-05
-7.70444537341e-07
1.4201943381e-05
-3.55017895684e-06
0.0505401347708
0.000813550209259
8.78454886756e-06
-5.66310494345e-05
0.0106108618323
-2.71645815645e-05
7.02500056829e-05
-1.39790555407e-05
-0.0105293662213
2.40255093314e-05
0.0104936707014
-5.08080780204e-05
5.73205181091e-05
-4.40395724652e-05
5.0188281846e-05
0.0106603776893
-3.85043418694e-05
2.93181797149e-05
9.02296861688e-07
3.04682915455e-05
-0.0105752679443
0.0105337096518
-3.58522832647e-05
0.0106585245263
-4.11328864767e-05
-0.0106974716278
6.83132991066e-07
-0.0105782546642
0.0105387078854
1.83768577513e-05
-3.6567095746e-05
-0.000262263177697
-6.31150478414e-05
-0.000141193175107
-8.29957736408e-05
-0.000925875636252
0.000244620582764
0.000925780810899
-1.48677068099e-06
-0.000901915551382
-0.000135310972589
-0.000142349961807
-9.60041068718e-05
-8.79553185946e-05
0.000944351361115
-6.81494375988e-06
-7.35804430023e-06
-0.000180866592347
-0.000222598077513
-0.000213775329092
0.000315336155227
-0.000599297775344
-1.62381200176e-06
-1.47348373287e-06
6.44471143432e-06
1.1501549441e-06
5.13403858632e-06
-3.52741491176e-07
2.02605126539e-07
6.45127401451e-06
1.5795023055e-08
-1.26476703819e-06
-1.43616985005e-06
4.23281313928e-06
1.34184007192e-07
-3.54957297187e-07
5.95098789235e-06
3.22037386652e-07
-1.03761457456e-06
5.39291898148e-06
1.53689965869e-06
-1.33086135615e-06
-5.26433597025e-08
4.29312341504e-06
2.12976717254e-06
1.2024305827e-07
-4.03617109381e-07
3.81741007755e-06
-5.27872576718e-07
-2.01739882398e-07
3.32342431977e-06
2.20353577925e-05
-9.43329793755e-05
-0.000117640779446
-9.22989128497e-05
-7.64045621084e-06
0.0010298926989
-0.00116318565469
-0.000103772380948
-9.2195867946e-05
-8.69091330614e-05
0.00124091659518
-5.58854019603e-06
0.00010478211661
0.000221158141512
-4.21923305366e-06
-0.000213283859147
-0.00021267761917
-0.000186364505841
2.40943447509e-05
-0.000885327351282
-4.32216830606e-06
-0.000144543432939
-0.000129309545503
-0.000154706859169
-3.34096491771e-06
-0.000489085397157
0.000253093525275
-0.000183037195523
-0.000131715816565
-0.000167158173308
-1.07451497989e-06
-1.58652811918e-06
3.27735897009e-06
-7.32084092966e-07
2.73089515881e-07
-8.37618020632e-07
-1.7663976147e-06
2.80416700623e-06
4.50098798824e-07
-9.24554116099e-07
0.000188598985163
-1.67518723915e-06
-0.00015803931756
-9.6371303718e-05
-0.000111244632847
0.000526013179897
4.70124655424e-05
-4.2095250079e-05
-1.72354304509e-06
-0.000161349894303
-0.000119511131969
-0.00016114172433
-1.40668496331e-06
0.00027735021498
-9.97731084372e-05
-7.5650249715e-05
-0.000112062600426
0.000287816206945
4.40063534828e-07
-4.22935380264e-07
-2.5903497123e-07
4.34979258346e-07
6.28106589273e-07
-5.74403831414e-07
-8.97013561901e-08
7.13488099346e-07
0.000112880348024
-2.23033198141e-06
-0.000110992313884
-0.000103620770522
-9.74313226381e-05
-1.68673686643e-06
-0.000685455244741
-8.48602813396e-05
-7.98557533702e-05
-8.2946489816e-05
0.00100631414159
-2.23869278777e-05
-9.41901832617e-08
1.24081978569e-06
-1.39112239992e-06
-8.44757344955e-07
8.24210948899e-07
1.10649380929e-06
-2.13345475594e-07
-5.97941138005e-07
0.00021217802448
-1.11418261444e-06
-7.43176062132e-05
-4.82020095413e-05
-5.39087265477e-05
0.000146969462996
-0.000327792842003
-1.31939751176e-06
-6.39056691337e-05
-5.53653184792e-05
-5.73113091036e-05
-9.4637877154e-07
-4.00935490128e-05
-3.66499512389e-05
-4.71276186414e-05
-4.00238783751e-06
7.94767798461e-05
9.92203080908e-07
-6.39804378687e-07
-1.51321330949e-07
1.29148534253e-06
1.39154576662e-06
-5.00902456913e-07
1.88963566516e-06
-3.47521558791e-07
0.0126337789373
7.73901744918e-05
-8.76206902635e-05
9.11274589539e-05
-0.012662377038
9.49003388054e-05
-0.0126258273152
0.0125558450708
-6.953620019e-05
-7.86769060734e-06
-3.83084856672e-05
8.63695570991e-06
-0.0106350721517
-0.000168212883246
-0.0106146573146
-8.67723861071e-06
0.0106015643529
0.000100958575283
0.0125657850151
-3.29259600004e-06
-0.0106306987921
-6.45690869394e-05
-0.0126515948032
0.0126421214868
9.8378611876e-05
8.49928060056e-05
-0.012670955532
-0.000108732630665
-0.0126455619746
0.0125889314342
0.000108607341223
-0.000172420944583
-0.0106492441383
0.01062839259
-9.86909513585e-05
3.62423822544e-07
2.21343582866e-06
-0.0107012069356
0.0125788167672
0.000101589132944
-0.0126752982379
-0.0106745139629
-0.0125343633523
0.000129926309692
0.000246344017187
-0.000120904231351
0.0124719912181
-0.000121968318153
0.0125495667407
0.000122611058997
-0.000190097527966
0.0105785675505
7.92260269984e-06
-0.0002562238915
-4.60776077602e-06
6.79945014053e-06
0.0105794141806
-0.000113664026949
0.000129904918317
0.0124922378582
1.41621631523e-06
0.0105640405451
-0.000110217533377
0.0126536218597
9.86037498616e-05
0.000119019561401
-0.0126802243609
-0.012651211639
0.00011038699711
0.0126069024936
-9.58286403224e-05
-1.64911261761e-06
-0.0107330886422
-0.000145043010584
-0.0107420260001
-6.87273997369e-06
0.0107382471551
-0.012679841236
0.000118877882866
0.0126171109299
-5.2005570115e-06
-0.0107577003779
0.0126571295195
0.000127078535931
9.12292791321e-05
-0.0126819239644
-0.000129125297055
-0.0126584829039
0.0126292888712
0.000140859254263
-0.000123275676224
-0.0107652062992
0.0107643289966
-9.7862516941e-05
1.19765931467e-05
-0.0107961600879
-1.92061543299e-05
0.0126266179019
-0.0126839069752
0.000133744732253
-0.010777683561
-0.00012796185356
-0.0125802556319
0.000203059326659
0.0125384509808
0.000134990806252
0.0125678193037
0.000122531082898
-0.000219574600757
5.48292938168e-06
0.0106113160226
-0.000167791429889
0.0106891522496
-1.04130235279e-05
0.0125245976096
0.000127917703404
0.010652888159
2.48166498661e-06
-0.000150064832087
0.0125167184988
0.000188449785835
0.00015028102715
-0.0124956840438
0.00016803880076
0.0124589044216
-0.000174527410618
-0.000209169042375
1.44960015315e-05
-2.31164055441e-05
-0.000214980096561
-0.0106123774391
3.67809645932e-05
0.0105692519733
-0.000156839263033
0.000168593747438
0.0124866708554
1.05628938578e-05
-0.0125897772099
0.000139215274723
0.000155832290597
0.012554879492
-0.000132078184403
0.0125984732592
0.000145255799911
-0.00013566608293
0.0107256075745
-0.000131505150924
1.23900194962e-05
0.0107359244089
-2.28752711757e-05
0.012566697864
0.000154376813709
0.0106956375407
0.0125340706157
0.000147955454506
0.000140368997217
-0.000165459764623
-0.012550633505
0.0125355371021
0.000177471246634
-0.000150256106017
-0.0106503741589
0.0106048686387
-0.000107470012915
1.16658958083e-05
-2.62366448031e-05
0.0125131853416
0.00016149737044
-0.000220112011741
-0.0124744933878
0.000187945638815
0.0124643700357
0.000224516022098
-0.000182487223747
0.0124371100358
0.000189741163852
-0.000193523883179
-0.000200218589936
-0.000233146927085
8.54347994258e-05
0.0104554930212
-9.65905037852e-05
-0.000189370683468
0.0105204820402
5.90178633385e-05
0.0124237555408
-0.000206059221835
-0.000234599933715
0.00019046686826
-0.000178025460089
0.0104852783021
8.64909831904e-05
-0.000252490833271
0.000169399781249
0.0124912524119
0.000256467683209
-0.000200890614971
-0.0124518035318
0.000296327418047
0.0125185973409
-0.000324584814767
-0.000231340170338
-0.000221632861573
0.00011674827255
-0.000126625205949
-0.0104944300128
-0.000142136704893
0.000140195685991
0.0104948798631
-0.000273747130542
-0.000229287441211
0.00012240057751
0.000294973550304
0.0125471173333
-0.000197562565967
-0.0125047843708
0.000208487132131
0.000123400522855
0.0125048246882
-0.00018176497496
0.0125303570212
0.000191521340834
-0.000123391810647
0.0105549269728
-7.6770927704e-05
-4.74493635601e-05
0.010544840281
2.04695959673e-05
0.0125335691259
0.000209878589224
0.0105139985228
0.000230166925605
0.00010458664899
0.0125267713196
-0.0125525085938
-0.000259377520352
0.000249400447541
0.0125891105198
-0.0105071969706
-8.09626809807e-05
0.0104896827468
-5.97120970681e-05
-8.05660465113e-05
5.24386015013e-05
0.000227858493643
0.0125736497568
-0.000157210272365
-0.0126167528152
0.000103428794884
0.0125923382246
0.000162068225242
0.0126076580167
0.000147808647968
-0.0126360748393
-0.000109374993356
-3.40488983361e-05
0.0107427321954
-9.77672971444e-05
0.0107773182018
-0.0107978876219
-4.19887043945e-05
0.0125811847838
-0.012641998201
0.00015327650277
0.0107607401692
-4.190646797e-05
-0.000160376569481
0.0125770523179
7.72881384056e-05
0.000164626447323
-0.0125647373908
0.000173222242426
0.0125515497557
-8.54101728898e-05
-4.36117019418e-05
-7.19665661706e-05
-0.0107259734545
-5.11246941805e-05
0.0106825313736
0.000175499343086
0.0125650758515
-5.5260546356e-05
0.0125867480735
0.000159491441052
7.86980270175e-05
-0.0126014124814
-0.000167640604875
-0.0125966828652
0.0125881302419
0.000159647790774
-7.03702736689e-05
-0.0107271106496
0.0106882700115
-7.75619180283e-05
5.10671918338e-05
-0.0107686971619