/*--------------------------------*- C++ -*----------------------------------*\
| =========                 |                                                 |
| \\      /  F ield         | OpenFOAM: The Open Source CFD Toolbox           |
|  \\    /   O peration     | Version:  v1906                                 |
|   \\  /    A nd           | Web:      www.OpenFOAM.com                      |
|    \\/     M anipulation  |                                                 |
\*---------------------------------------------------------------------------*/
FoamFile
{
    version     2.0;
    format      ascii;
    class       volScalarField;
    location    "8.75";
    object      p;
}
// * * * * * * * * * * * * * * * * * * * * * * * * * * * * * * * * * * * * * //

dimensions      [1 -1 -2 0 0 0 0];


internalField   nonuniform List<scalar> 
28582
(
17096.7668849
17095.8872605
12198.5335541
12198.1197778
7300.29480807
7301.32294966
3625.4786516
3629.26936798
47.6484802368
51.2870210904
-27.2162547224
3627.96558043
645.815764319
654.317420874
3629.49056933
3630.06984523
655.702683638
1796.24157202
1796.74722922
17097.8021238
17095.3625367
17095.1383151
12198.8491797
12197.6956535
12197.1207929
7297.99496991
7300.44810457
3618.60006533
3628.67473009
51.308936405
-27.2410290917
-27.2187440081
3620.05402207
3621.30617332
630.276628653
642.690739796
1782.09657934
3627.06336214
3629.48113178
3627.90568737
1795.30813453
652.481826112
1795.95354882
1794.18259815
50.1863737299
47.8313048077
-22.9005236042
-22.8307502832
51.2156660403
-22.8083559741
1789.02436595
1792.58312238
649.285467857
645.642998899
1790.04929912
648.826297027
1791.78407065
1794.6531693
1795.82203421
652.291647311
653.178130663
1796.3387413
651.473006282
1794.05360611
1797.17747982
1796.85835724
656.144045488
654.430456635
1797.16375559
654.864734926
1796.95258829
1795.757782
655.649297276
654.811958238
1796.91851054
656.093308326
654.880093558
1796.5534704
1797.21504468
653.431125851
652.249125369
1797.22038278
651.712491274
1797.48399872
653.115829617
45.429630277
-22.7143992655
41.9668033854
46.737620885
-22.8311092789
-22.8245389725
48.6475357439
-22.8861180365
-22.8305858441
49.7238180147
-22.8719880058
51.6457591194
-22.8179256827
1778.0832013
1776.20916446
634.258347659
630.176798596
1777.48456512
1776.79961292
634.049695273
1780.40048865
1782.41307756
638.605418507
642.523914164
1779.76553311
1783.10582632
638.368394176
637.83800472
641.88015854
1784.98672234
1781.15587602
642.075245422
1783.9447055
637.987954938
1794.78939118
654.895695564
654.39744859
1794.12627657
654.122208239
1793.5097225
653.85009772
1792.69571211
1790.66660737
653.221421857
652.113261814
1792.08046487
1791.17545174
652.963443535
1795.38075775
1796.60046187
653.575105308
652.850034373
652.951166601
1794.73670538
653.364863281
652.375292378
651.531491704
1792.40598601
1793.44397807
651.82010405
1791.74772455
652.654778981
7298.49548636
3625.42212942
52.1506033417
-27.1203573663
3624.07754043
645.977542421
3626.03738743
3624.34767253
651.806275291
650.47807513
649.395590387
3623.26594164
3622.76642624
650.146743588
654.762683711
49.0700866226
50.8655663597
52.0982362146
-22.7646081435
-22.8138581836
-22.7908966201
53.5991413245
55.9437850841
1789.7763723
1787.90786284
646.106163513
649.565808674
1786.78702663
649.757492748
1790.85985286
1788.46123842
1789.36903116
651.351023938
651.319538906
1788.21486415
1789.75666083
650.823037599
1788.57711244
1790.40957105
650.90392623
649.685349196
1790.12475924
650.254481044
1788.47761321
1787.40142292
1786.41502171
650.00431566
649.200305122
1786.66115031
649.899343165
1787.1770576
1786.40646091
1786.04030654
650.464530833
651.486785113
1786.30528413
651.526400634
1786.235311
1786.73271156
1787.14663995
654.353387701
653.216441912
1787.20268567
652.952084851
1786.67327136
3657.13378824
3652.51229806
3653.52674965
3650.99888119
10.7720019521
14.7745407225
9.8636453535
14.1313438042
14.5190216643
-27.0961330349
-27.1570807868
-27.1032504867
-27.126570744
-27.0281652193
-27.0300789192
3657.74275785
3657.06066829
624.885018253
624.278995656
3659.7358921
625.756788918
3655.19173421
3653.26363186
623.930654309
622.31314013
3659.3899262
3654.50879692
3655.72051305
625.222509312
629.974308916
623.374453199
627.631266602
3655.99488769
3653.84760126
631.903232801
639.325895258
629.632208624
637.520123767
3653.44755234
3652.2645245
622.78320772
627.046304542
626.343849342
3651.46752822
3652.25515117
3650.05691189
629.260777345
637.690947739
628.817464255
639.101079518
629.055898999
638.681883822
9.41402283442
9.38666107624
11.0493000726
-23.1942776869
-23.1745464959
-23.1947639591
-23.1824492208
-23.1692105229
-23.1376643324
-23.1819672482
-23.1361289072
9.39747755758
9.14606775471
12.4813892223
10.3869790163
12.0926641197
-23.1940598457
-23.1856707785
-23.2020415918
-23.1939005426
18.0727866829
14.4023234818
18.2205622922
-23.1688646367
-23.1358233808
-23.1890781589
-23.1584467315
11.5042291998
11.0379230421
-23.2056704984
-23.1896301442
-23.1749541436
18.5342044137
13.8977092531
18.8893761579
-23.1634869691
-23.1293745026
-23.1429413411
-23.1282279301
1819.29682445
1820.90706237
623.357293534
624.742134742
1820.75446054
623.32043378
1819.36485053
1819.0670805
1819.77344835
624.588028884
623.120112663
1820.40061021
1818.61398978
623.27083367
1823.29524484
1821.0464172
626.229928709
627.342950301
1821.79786422
1822.42417407
627.931688831
1817.24432404
1818.99299648
622.883808313
623.456516311
1817.97748542
1818.16238975
622.44655554
1816.47482221
1816.4810296
622.923615159
621.430703742
1817.30912761
1815.71482601
621.969427991
1820.2842309
1820.12634786
626.661130788
624.668846696
1821.37650319
1819.18179716
625.953663887
1821.47738175
1824.13883907
628.2382495
629.075403925
1822.72610397
1822.70759298
627.370850554
1819.17156899
1817.31429498
624.055106939
624.567521833
1818.19538854
1818.24165313
625.27836711
1820.22486747
1820.29065277
628.317521107
626.005302943
1821.32434307
1819.23344741
626.71679855
1824.86809157
1825.4836525
634.113252293
630.948184727
1826.43578375
1823.93603651
633.129820081
1824.99896475
1824.9651346
636.715506347
638.403123961
1826.59826766
635.877515206
1823.65224595
1823.20977948
1821.27647908
630.241970252
632.078969424
1822.3935589
1822.06036485
632.571478458
1823.27288915
1821.21064884
637.790997035
634.924045941
1822.22845977
635.287970393
1822.15167618
1816.83823852
1816.50009748
623.941058318
622.237586345
1817.4077917
1815.8929761
623.418557406
1817.82371158
1819.45530192
625.346457922
626.561438453
1818.36809249
1818.93240893
624.852165191
1817.35789597
1818.22858074
626.313352564
624.36393545
1818.51505497
1817.02834548
624.516478294
1820.91357661
1820.4674532
631.884974387
628.889576002
1821.32791807
1819.99511221
631.758582042
1821.15439531
1820.56883934
634.95547829
638.097724956
1821.49822514
635.118820151
1820.29498452
1820.64276741
1819.36339337
628.70815216
631.940501472
1819.64656706
1820.33433559
631.804095961
1820.92418334
1819.31717829
638.802983663
635.835535512
1820.5332282
635.527630582
1820.00251914
1818.71955152
1818.86322151
632.160636607
629.192715755
1819.67237359
1818.19349424
632.114163113
1818.00377177
635.832143083
1819.57717144
17095.949013
17095.1376294
17095.0585951
17094.951275
17095.0709209
17102.8469996
12197.5695817
12197.3971965
12197.3846028
12196.5055033
12196.3112009
12204.2364623
18312.6020174
18315.9635891
17089.289746
17095.2439961
17100.1179313
17103.4760656
17107.9021239
17093.9372608
18314.6708221
18316.6741696
17094.3591677
17096.4248563
17098.0689582
17097.9033766
17096.2728838
17104.4297335
17094.4935863
17092.9709891
17093.9622552
17095.6887977
17096.9661664
17096.8339788
17095.8904322
17105.5294891
17096.7216352
17094.8066871
17094.8310216
17095.6210207
17096.2315168
17095.8068322
17095.1549374
17104.8189727
17095.0687443
17095.061658
17094.9852826
17103.6823296
13412.0493995
13414.9726032
12194.424957
12198.5537601
12202.2355136
12206.7906115
12231.4550017
12144.8011239
13415.9663584
13417.3520909
12198.8736848
12201.1689539
12201.1313255
12199.2649561
12193.8935495
12185.1050236
12194.8465194
12194.9226947
12197.1317005
12198.8309738
12198.9548443
12197.5050133
12194.6156099
12201.3350722
12197.5186411
12196.4596362
12197.4690434
12198.3036818
12198.2180544
12196.9657798
12195.2436761
12203.8575511
12197.1705304
12196.4459596
12195.8123162
12204.393463
8509.7399198
8513.681925
7297.04966264
7301.81046235
7305.44541993
7308.56718299
7320.43705611
7236.23506717
8514.23605625
8517.31029614
7297.25827922
7301.70433882
7302.71148249
7298.57250125
7287.34703729
7274.03667774
7292.87527576
7295.28006252
7299.81296999
7302.04112319
7301.11468302
7297.65570536
7291.38006083
7299.5691639
7300.1695781
7295.87669315
7297.23393937
7300.03594855
7300.60254318
7299.2729971
7296.4909993
7292.94781978
7302.69294775
7298.72753094
7300.10151016
7299.78225504
7298.31212486
7296.33972722
7294.54893849
7304.89074576
7296.84411089
7295.58014942
7304.89771772
3606.99973091
3612.22885662
3623.01349876
3629.73106284
3634.60439684
3637.63998297
3637.89277203
3625.41458915
3619.78892274
3609.79787179
3614.91624492
3624.09843507
3630.44359995
3633.61958947
3632.58421264
3625.24004631
3611.38779962
3645.40394317
3624.6373742
3613.65130563
3618.26926867
3627.30675049
3632.15879414
3632.34878135
3628.02574138
3622.65790358
3622.05190457
3624.39590389
3616.52291305
3620.89514505
3628.17199592
3630.94577856
3627.95780332
3624.09584346
3622.3852646
3625.88192936
3622.78486653
3627.93613202
3628.13075154
3624.8698338
3622.72669273
3622.45942536
3626.60829555
3623.19380023
3623.03805567
3626.47746196
38.0804545213
45.0106411806
53.2424644079
50.9320960544
47.7960171726
50.1064111155
56.9419027392
58.9851322418
23.6613575164
31.7095446502
37.4382537044
44.5883332378
50.6172433964
48.4804729087
47.6606591996
50.5817378543
57.0205253106
58.1324296779
24.149727787
32.6964006664
39.1601716464
45.8843885237
47.9889178533
46.5466613956
47.7573025124
52.4710510494
56.2036613213
55.9193240629
34.4236913542
42.9610023942
49.2101904828
50.0949664788
49.9892531563
52.540796821
54.5516685651
54.9662709101
54.0610218805
50.3901828655
53.7184392099
54.1082305408
54.6096207576
55.0401099543
55.1300079196
54.7432742588
53.8174648425
56.5025623334
56.5778235248
-27.3182930083
-26.9620219584
-26.9498386029
-27.151010906
-27.1027036518
-27.1072733387
-27.1872310357
-27.0713120479
-27.2066254257
-27.7191865577
-27.6399097918
-27.7037120497
-27.9403317602
-27.2821732064
-27.2918507438
-27.1631576218
-27.2263811408
-27.0844762822
-27.2053292432
-27.5664529095
-27.5146223235
-26.9696713134
-27.1596628759
-27.0388813079
-27.1286899869
-27.109598852
-27.4160146947
-27.1006959195
-27.2157413013
-27.4719314067
-27.10115445
-27.4232252807
-27.1542986691
-27.2508519961
-27.0516892877
-27.5199734967
-27.1279174052
-27.2229608848
-27.4663168339
-27.1639841387
-27.1920543771
-27.4321121768
-27.1198363799
-27.0984454009
-27.1777688386
-27.5799895698
-27.0910006231
-27.2499680208
-27.7881607634
18314.3866432
18312.8837194
18314.6344536
15862.7231753
15864.6083675
15863.4489673
15864.8177492
18317.0526574
18316.3869835
18317.753579
15866.2008754
15863.5222106
15865.9815759
15865.7021719
18315.311612
18316.8850114
18316.3921586
15865.2322957
15866.2036448
15867.2351526
15867.2442662
18317.7595927
18317.0189674
18318.0794216
15867.2006722
15867.6829922
15868.170824
15869.4639314
13413.6955312
13413.4156988
13414.4218895
10960.8455792
10962.5955772
10962.51478
10963.8698496
13416.1329458
13415.318519
13417.2757821
10964.1887747
10965.6948233
10965.1698302
10966.2707873
13416.5280187
13417.3968173
13417.668069
10965.4100485
10966.4586863
10967.1032925
10967.2700703
13418.3246371
13418.4802932
13422.5232231
10967.3752483
10965.3194208
10967.8478896
10971.6338574
8511.54842235
8511.66351404
8513.20651218
6058.80812868
6060.27480448
6060.57631518
6061.67181876
8515.90479045
8515.11533164
8517.40537937
6063.0394915
6066.3668305
6064.20303118
6068.5372269
8515.75357014
8515.94245578
8516.51375812
6062.3878021
6063.75516761
6063.79221155
6064.73070208
8516.08824258
8517.77102525
8521.29873771
6066.2821668
6068.39807719
6067.17803223
6071.44624768
3608.92088303
3610.64399176
623.244384463
622.026769138
3608.22956078
3608.63560735
3609.60435863
621.668547687
624.585301731
621.906857844
626.998282588
3617.8588592
3613.38946542
3618.61017509
629.567691147
646.076428371
631.420996043
646.186221441
3626.99538692
3623.35738421
3627.05355982
651.610853841
655.239902088
651.012329051
654.232012847
3632.0097544
3629.77489509
3631.88334279
655.045557575
654.48302866
653.933856673
653.896458012
3636.47914206
3634.08721827
3635.62469876
654.76237985
656.788432487
654.31079177
656.188616637
3637.88174201
3635.94448542
3634.86482992
657.641592775
660.167270028
657.092790415
658.406786733
3632.96953184
3631.72200359
3622.34876102
661.336329145
662.8609132
658.721082035
657.130782246
3580.38394251
3604.65669607
3598.19075856
663.455483224
617.184669718
656.534491673
636.546572845
3646.48147502
3634.91014591
641.096880861
634.784157533
639.518749797
635.583481672
3612.2400601
3623.12714296
3614.83094718
630.190924308
621.76000575
631.245038081
622.500523231
3611.04988044
3611.55414673
3612.45652684
622.051805633
628.318259017
622.696253428
632.396086152
3619.67113916
3616.5225466
3621.69830125
632.637776355
646.479590862
636.631486623
648.129173054
3627.80316796
3626.66591917
3630.23800613
650.785549269
653.802785067
650.710978316
653.471988798
3632.0045842
3632.34889631
3633.02302289
653.391777347
653.807336779
653.213927805
653.978943174
3634.10266241
3633.5777117
3632.85834764
654.51225165
656.05080797
654.645833968
655.366157757
3629.67169639
3630.45134182
3627.09656173
656.648794152
657.154546207
654.775827112
653.800561348
3619.20613817
3623.23336101
3619.29059083
657.257208998
656.09849025
654.043317566
654.761363756
3622.8072054
3615.65237683
3630.9911707
655.803490439
639.09471245
654.814852715
641.684774995
3635.42319725
3644.08751423
3634.50755766
639.747516283
635.256506009
641.005665213
632.554569352
3616.91885079
3624.6288666
3617.98128755
630.871649902
622.739468969
627.552286208
623.654405877
3614.41666315
3615.30813875
3616.39278551
623.140548635
634.066358516
626.865576349
639.194015127
3623.27870194
3619.72367202
3624.2367321
638.067627961
648.754299471
642.958285745
650.939138723
3630.15134986
3627.96506413
3630.65368455
650.665363539
653.26206753
652.113417412
654.469104952
3632.70067666
3632.54921065
3632.25984788
653.241365402
654.446454847
654.855704784
655.294919057
3630.5502669
3630.48473378
3628.19418242
654.616008615
654.625520438
654.780584575
652.206344848
3625.28088276
3625.88525517
3623.91451419
653.911785306
653.101047312
651.922429948
652.017314046
3621.29295043
3622.45113459
3622.55858746
653.425011793
654.547970317
652.319543794
653.902803608
3635.2932994
3624.52124577
3636.29557834
654.808356314
641.34493522
655.189868612
640.240607096
640.065880477
631.450974025
3618.74711527
3619.61150532
627.046376271
624.58810865
627.218381827
3617.91840915
3617.81735938
3618.96433998
628.421475578
640.874658554
630.436126538
642.996279286
3624.98653859
3621.78782825
3625.45119446
644.488208509
651.865888419
646.816430878
654.389907714
3630.25632864
3627.92895604
3629.13215382
653.013149054
655.357130731
655.694709101
657.096721961
3629.85077749
3629.02386403
3627.41316977
655.531865039
655.024575963
656.458551774
653.79831025
3625.7726985
3625.79555194
3624.01068552
654.020627385
651.831542602
652.822641599
651.92838227
3622.94146145
3622.96660818
3622.42487957
651.836567446
651.819672854
651.933124303
651.513903719
3623.32512439
3622.3727529
3623.68977812
652.048068417
653.701411654
651.729899547
653.859443809
3636.72958693
3626.30601237
3636.51569521
655.170445262
639.694214435
655.417432204
637.861548761
3625.99539
3626.8991209
646.659597455
654.932128549
654.90175899
3628.6215474
3628.47517277
3628.87057381
656.326926842
657.166735243
656.201663883
656.29308317
3626.3794412
3628.20317864
3626.55308209
656.096435463
653.478785752
655.103448916
652.684832907
3623.56360089
3625.08213906
3623.83734272
652.78499167
652.049405241
652.136409524
651.281694225
3622.2655823
3622.92692388
3622.43130879
651.933629336
651.660929866
651.328221176
652.677876035
3623.98640299
3622.67926966
3624.21575555
651.940156667
654.161847472
653.624465879
655.647770581
3636.0282087
3626.68573829
3635.15968313
655.624787399
637.707018938
656.758137786
635.77627195
3624.08496654
650.884028463
3622.79974742
650.933948501
653.204418261
3624.29680718
654.327555327
656.276555425
3634.17485582
657.116885373
636.053305149
-23.0699993994
-22.9804536089
-23.0884966834
-23.0164030125
35.5871368678
34.7971081098
-22.8575054766
-22.8482866583
-22.8831882367
-22.8435688488
40.3389638876
37.5335686656
40.0977341536
-22.8524875466
-22.8751468161
-22.8049616647
-22.8134471341
49.253726762
44.6680233859
48.7357458272
-22.9541843895
-22.9485184717
-22.9536966491
-22.9763866297
52.5527667683
52.2106417478
51.5699790638
-23.0179933256
-22.9959806079
-23.0416325404
-23.0251264756
49.1847482492
49.9805892697
48.6819575395
-23.0163381147
-23.0336169802
-23.0116444862
-23.0308183046
48.0572837945
47.7306213743
48.0670468227
-23.0063288364
-22.9832738413
-22.991734776
-22.9771367744
53.8941325851
50.197012406
53.9307920518
-22.8898542158
-22.8234122093
-22.8670489604
-22.791016418
58.4675192244
57.0201363847
59.3902423177
-22.8221317307
-22.8609478912
-22.7865258751
-22.8381686273
62.4739127475
58.3636167413
63.0562604121
-22.9679488194
-22.931368383
-22.9596526723
-22.904870195
28.7995597974
23.5498372776
28.736838994
-23.116416752
-23.0492181699
-23.1272478103
-23.0396665279
34.4516905457
31.9096448986
34.9136243929
-23.0048106366
-22.9738139388
-23.0145885594
-23.0077736958
40.5609054309
37.9435678184
41.692517565
-22.9310532456
-22.9614439762
-23.0008796867
-23.0036708269
48.257476265
45.165624348
48.0964742596
-22.9969198927
-23.0514311483
-22.9871633888
-23.0631557833
49.9194941346
48.9468020105
48.4460589788
-23.0878880054
-23.0636723518
-23.0981733255
-23.0882232455
47.9203215801
47.0368705379
46.8642264652
-23.0712005447
-23.0390885153
-23.1006862807
-23.0451339176
48.4255125635
47.1956588906
49.153320803
-22.9834291303
-22.9550976715
-22.9562744151
-22.9228759537
54.1457108861
51.5514868935
54.5405505742
-22.8234609075
-22.7465547473
-22.7788858043
-22.7105180966
59.620738329
56.7114099198
59.0678729947
-22.7503746215
-22.803120018
-22.7271079855
-22.7812003116
62.1308176742
57.2962171258
61.0263587694
-22.9153058831
-22.8628459343
-22.8916428198
-22.8415417706
29.3039796512
25.0313111204
30.2319159451
-23.0998809909
-23.015311269
-23.1087381758
-23.0050281466
35.8962256585
33.8011664829
37.2538736072
-22.8859556871
-22.8487365549
-22.8562879992
-22.8251456569
43.121465587
41.2421333781
45.0772852991
-22.8922113157
-22.9241540305
-22.8856816425
-22.8978428877
48.1996559169
47.37282742
48.9009411715
-22.9563269771
-23.0203445494
-22.938332688
-22.9988181109
47.5130672085
48.4479096504
47.9186448771
-23.0541058182
-23.0605461846
-23.0321947344
-23.0391437975
46.6636416906
47.4891288288
48.0624745457
-23.0504101672
-23.0078699785
-23.0311813621
-22.9960170271
50.1402828205
49.8442104789
51.9557161816
-22.9533068003
-22.8620074489
-22.9212903663
-22.8204251892
54.8222877778
53.5860733763
54.9525759854
-22.7311861153
-22.6977269831
-22.7191881512
-22.6983976278
57.7440929801
55.4735867397
55.8546838213
-22.7259475361
-22.7823145272
-22.7357609994
-22.7931182216
59.3968114271
54.7111823025
57.756546371
-22.9043292306
-22.8678932776
-22.9145768059
-22.8680231526
38.1953955383
38.4689517254
-22.8583355756
-22.8118637273
-22.8401701076
46.8417107212
43.0374913542
47.4638344917
-22.8800925819
-22.8833944089
-22.8608233908
-22.858641834
50.3987247918
50.5619611315
52.2020416606
-22.9220583106
-22.9729984206
-22.9054419332
-22.9443956299
49.8021261015
52.4719428273
52.6091647527
-22.9956784095
-22.9962712183
-22.9393965507
-22.9102849794
51.0116203891
53.1558596831
53.8348391867
-22.9768448397
-22.9175019922
-22.8791686786
-22.7996454376
53.8429120358
54.5246023832
55.0332055975
-22.8442773199
-22.7790120339
-22.7656151341
-22.7640997192
55.0461495326
55.0095596268
55.0510943063
-22.7039240831
-22.7007250796
-22.6949949377
-22.7008401854
54.932643763
54.8025769092
54.963878617
-22.7438795268
-22.8009245107
-22.7474889215
-22.8077055053
56.9972909153
54.2363360284
56.7206869178
-22.9220961367
-22.8701547072
-22.9200125174
-22.8628891858
52.8893518819
51.9020438763
-22.8792841384
-22.9142847747
-22.7576697602
-22.8015698253
53.9403599013
53.0763296618
53.3477138895
-22.9157956201
-22.8891651195
-22.8332491071
-22.8255498269
54.5959184826
53.4053259896
53.5886047524
-22.8525898328
-22.7785315563
-22.8153765477
-22.8158270891
55.0376980489
53.5919740709
54.0754641394
-22.6247622844
-22.6476496692
-22.6767485778
-22.6693252559
55.1618696462
54.4708467718
55.2432767049
-22.6840541643
-22.6992580688
-22.6961459453
-22.7154120507
55.3553789047
55.9454843747
56.060167818
-22.7433812589
-22.8071848821
-22.7565375869
-22.8091337444
56.8879853153
55.516834176
57.6678959823
-22.9177580383
-22.8408919929
-22.918081834
-22.8522602565
52.9578389335
-22.7416530899
55.2908182409
-22.7357614378
-22.7557870332
-22.7837412255
-22.8044761468
57.0685510593
-22.7838139524
-22.8160716381
-22.8115348223
-22.8265818133
58.901496326
-22.9422154772
-22.883187046
-22.9630101375
-22.9182789767
1770.71192062
1766.3848696
624.513562552
622.816237289
1766.6170441
623.888431206
1770.75148035
1770.78208838
1767.50556031
622.256801253
623.147910446
1766.92789046
1771.32277886
623.143487357
1762.52872919
1763.21090539
621.081799194
621.795062991
1763.86808284
621.440371847
1761.65685387
1763.59344937
1764.77873957
621.268833753
625.001625095
1765.53644484
621.737339279
1762.78485317
1763.96376626
1765.66866403
621.776600037
622.33906012
1764.7254047
1765.42747071
621.97569983
1765.05005105
1768.55762346
625.951098053
623.375601301
1766.8993649
1766.67293134
622.626898329
1773.45456451
1768.34187698
634.847398594
629.763604508
1768.94309013
634.914044237
1773.0130095
1778.45582241
1783.41079147
640.493506398
645.960839815
1783.60881587
640.433110511
1778.11973208
1774.32695927
1771.50494714
630.487146172
636.130867683
1770.01273189
1775.51045022
635.389557294
1779.2109174
1784.9544979
645.980358514
641.14589789
1784.17195393
1780.14634725
640.684569375
1791.07998151
1787.94442961
654.228815386
651.395317295
1788.00848957
653.918882134
1791.05453888
1793.12060114
1794.6961235
654.931061377
655.037390495
1794.64311999
654.639265119
1793.13903587
1791.30435205
1788.97672932
651.135595812
653.180470171
1788.37068326
1791.83880593
653.547917659
1793.2788893
1795.16892476
654.640578164
653.90855811
1794.7663594
1793.78018658
654.271932488
1796.32077841
1795.74498786
654.653391835
654.871363903
1795.70984046
654.436052275
1796.3534508
1797.1298555
1798.37705005
654.358196526
654.199931354
1798.34818448
654.145148171
1797.21759922
1796.42019967
1796.17784937
654.372541109
653.622319107
1795.78911185
1796.84223805
654.040964962
1797.22579233
1798.58594066
654.014773664
653.607575135
1798.4153629
1797.59950969
653.868083511
1800.35564827
1799.43793366
655.413979937
654.465189893
1799.5458807
655.103389097
1800.34593316
1801.4477374
1802.80761742
656.283268916
656.543692624
1802.59817644
655.867486763
1801.51332913
1800.33669203
1799.62581757
654.335695206
654.862538351
1799.61448228
1800.41043741
654.91555341
1800.97560685
1801.70914088
656.377160581
655.647936479
1802.16138771
1800.95593979
655.766691967
1802.32013311
1803.10206567
658.368171989
657.503177728
1802.83467147
658.323466241
1802.66498379
1801.27080942
1801.26136818
659.060309315
659.90279615
1800.32098662
659.123795325
1801.79267029
1801.58968468
1801.52594799
657.391610724
657.742732663
1802.28120834
1800.44489947
658.152697711
1800.20774211
1796.77492234
659.32344488
658.137275598
1798.75296853
1798.66663865
658.80789986
1798.22646101
1801.16261006
662.119768587
660.818197806
1799.54242462
661.295800233
1800.72462269
1795.68937067
1794.72398215
662.711602112
660.880654798
1791.29665785
661.289344684
1798.89491228
1795.22788617
1794.78078819
659.87833393
658.853576821
1797.27657848
1792.33638292
660.143903415
1792.00678874
1784.89618886
658.509866362
658.371453534
1787.33405199
1789.00067389
659.654781202
1776.60680445
1787.96642395
666.077885871
660.804123856
1784.78758856
662.564270989
1778.80405174
1765.55340878
1770.53722633
670.670270143
625.694496559
664.517328927
1775.78722075
1766.6645055
1774.87921002
1780.20966533
657.884259087
658.771296664
1781.48992593
1775.04954649
659.717623932
1765.55845307
1789.75327229
633.636421559
663.716064451
1766.50690201
663.775284047
1784.46953426
1814.34106976
1820.99632861
640.609997037
640.304368374
1814.54823517
640.211433605
1820.08480881
1806.4072741
1796.39132271
638.650120263
635.243663501
1805.89359204
1797.32310416
638.726510391
1813.79417724
1818.28566232
639.702397925
639.744301188
1813.27223995
639.857421722
1818.99518609
1806.55393349
1797.6661834
635.546957382
638.602859171
1797.8201948
1806.13771173
638.735792484
1779.51729754
1787.05509624
626.223650731
630.80173501
1778.395693
1788.12350919
626.797753975
1772.96584085
1767.92284569
622.964526218
622.043647501
1771.98720881
1768.42348285
623.469134948
1780.11487654
1788.76456131
631.06108003
627.229869817
1788.72519214
1780.15201492
627.039665344
1773.57208953
1769.45369863
622.31858731
623.833346337
1768.97838477
1773.72339902
623.744488174
1767.48397909
1766.34186428
622.884652689
622.016577929
1766.56086483
1766.72920377
623.361589262
1769.32275663
1770.04570952
624.592012668
629.585667858
1767.94163019
1771.53370985
625.959967731
1768.43764108
1768.27497925
622.358861043
624.776952902
1767.39181159
1769.46676758
624.052436738
1770.59844693
1774.26058196
631.172650429
628.317210773
1772.98698131
1771.73260747
627.249786233
1778.31717877
1772.99327323
637.089563553
633.94247679
1776.80996395
1774.54839203
638.099189096
1782.59635875
1785.68487281
641.807612304
646.984815683
1781.18354729
1786.9050078
642.684051568
1779.80687599
1777.49722205
635.401971355
640.559793004
1775.99884327
1781.32237787
639.47766114
1784.08874821
1789.52789086
647.581841946
644.728186786
1788.26048684
1785.51298424
643.81282212
1793.19625874
1789.40557325
652.817091538
650.798604557
1792.14374152
1790.46569793
652.557733492
1795.0853366
1795.43681943
653.539985957
653.634702166
1794.08993632
1796.38729009
653.360114358
1794.21076312
1792.68040441
650.629051336
652.096572677
1791.60095329
1795.16965388
652.228383181
1796.00556078
1798.11843835
653.514127245
653.07581307
1797.24550164
1796.89444187
653.158783677
1797.97488899
1796.42463709
653.184720878
653.203650826
1797.15521837
1797.319108
652.974217696
1798.54015731
1798.62509647
653.355086518
653.72637494
1797.87262582
1799.13878125
653.134773804
1798.69369336
1798.99729718
653.155446703
653.119408236
1798.15389512
1799.34301189
652.970228895
1799.07073185
1799.68512863
653.793504545
653.406423983
1799.37332286
1799.5154257
653.204586446
1800.57681205
1799.53780055
655.217121657
654.499444574
1800.45103451
1799.82008333
655.192081395
1800.86519603
1800.97183018
655.697109198
655.97913015
1801.01077702
1800.3008814
655.623390785
1800.42897963
1799.94683246
654.589067848
655.099693944
1799.64647973
1800.32990045
655.315441463
1800.36703569
1797.84498698
655.83219054
655.544183416
1799.13076167
1799.60163943
655.8189094
1796.72790124
1800.22183568
657.007343811
656.160071905
1798.61193438
1798.81294449
656.128514368
1794.387809
1794.2385291
657.104098827
655.848232771
1796.50755221
1791.94689342
655.93970374
1794.81974927
1795.49945786
655.553713215
654.320443209
1797.16052506
1792.97523155
655.259072136
1792.46063188
1788.79890959
654.752592719
653.880541834
1790.17278563
1790.71220415
654.826610712
1787.31474151
1791.91202293
657.436745428
655.929288955
1789.31604638
1789.63589393
656.213539832
1784.91991138
1783.12715781
657.149334421
655.642196205
1786.30951871
1782.62616633
656.295563069
1786.27344895
1787.2134356
654.889925945
654.545056982
1788.15590582
1785.79931912
655.295718165
1784.36895736
1783.04230807
655.081687688
654.846221319
1782.64541568
1784.35444268
655.475188238
1777.76932969
1780.24293623
658.974704465
655.556811496
1776.69952629
1780.62901566
659.176952999
1771.24914551
1793.79160816
664.675993386
640.608806208
1769.78823761
665.171076453
1795.611961
1778.99303232
1781.88056125
655.059136086
658.776395412
1781.3085173
1779.76386535
658.998573011
1773.10566369
1797.02485234
641.462585087
664.21586132
1773.64089865
664.906881188
1796.69053544
1811.83880787
1817.75213408
639.965744446
640.305244905
1812.63423832
640.318201792
1817.33116371
1804.09800981
1796.80167833
638.448113733
634.72162467
1805.32902229
1795.27964998
638.294523116
1810.70600491
1815.59906362
640.982291861
640.192387386
1809.24476336
640.510686787
1816.67719362
1802.49825525
1791.26468548
633.667521486
636.8273218
1793.34850527
1800.62037637
637.64548022
1778.48981474
1788.10581031
626.957114535
630.07935242
1779.68398145
1786.65615888
626.21530818
1772.9422074
1769.93367365
623.818643894
622.839102004
1773.5593892
1770.42947436
623.502684348
1777.15803192
1783.09694398
628.829174828
624.434770132
1784.87972889
1775.9707861
625.187072626
1772.5099282
1771.83920037
623.114679828
622.885484256
1771.08481462
1772.4706909
623.087008262
1771.7609324
1769.24764418
625.735097361
623.949468141
1770.74029189
1770.21211249
627.462334806
1773.83163
1775.58347817
629.932878119
635.702583572
1772.70523913
1776.89021627
631.721907755
1772.82866697
1772.5473381
625.408133941
631.188778166
1771.36293145
1773.90826324
629.525060799
1775.16191134
1779.32373095
637.605158838
635.442698915
1778.21847065
1776.37622486
633.782198227
1784.27110455
1778.9691627
641.897345113
639.619568286
1782.87505319
1780.32184244
643.232982694
1788.10734715
1790.56337311
645.882533556
649.430747463
1786.93518282
1791.40664324
646.945296739
1785.43385621
1782.59807041
641.430699422