/*--------------------------------*- C++ -*----------------------------------*\
| =========                 |                                                 |
| \\      /  F ield         | OpenFOAM: The Open Source CFD Toolbox           |
|  \\    /   O peration     | Version:  v1906                                 |
|   \\  /    A nd           | Web:      www.OpenFOAM.com                      |
|    \\/     M anipulation  |                                                 |
\*---------------------------------------------------------------------------*/
FoamFile
{
    version     2.0;
    format      ascii;
    class       volVectorField;
    location    "8.75";
    object      U;
}
// * * * * * * * * * * * * * * * * * * * * * * * * * * * * * * * * * * * * * //

dimensions      [0 1 -1 0 0 0 0];


internalField   nonuniform List<vector> 
28582
(
(0.815829649686 0.00381448145151 -0.000214582294049)
(0.816385093187 0.00262163846837 -0.000148624092007)
(0.816379412895 0.00389610723573 0.0012965357191)
(0.81645203907 0.00266422326891 0.000888429089172)
(0.816486788668 0.0035521015555 0.00237569725606)
(0.81605888937 0.00257445671649 0.0013365003808)
(0.819327059458 0.00554538676267 0.00608760621728)
(0.815884559522 0.00415730483828 0.00283573287787)
(0.00767046261945 -0.0283822360847 0.0181850795012)
(-0.0319119743129 -0.0291822450924 -0.0098843515107)
(-0.660250653805 -0.0846921624781 0.121124568678)
(0.81651320443 0.004386294593 0.00548056950198)
(0.763166454261 -0.000129427358373 0.00993974995326)
(0.761907097595 -0.000888161419446 0.00914050877961)
(0.814695394284 0.00333706697056 0.000901111899835)
(0.814327776841 0.00210665646129 0.00136594800628)
(0.76268352096 -0.00178809466404 0.00770311097481)
(0.811032518961 0.0035380497731 0.00221289193065)
(0.810722575296 0.00289538752011 0.00371773848572)
(0.815381894559 0.00718939298043 -0.000665813332069)
(0.81709390648 0.000337855705325 -0.000180308906842)
(0.816154523894 -0.00027976342776 -0.000446682040279)
(0.816307222628 0.00746749167397 2.68103555211e-06)
(0.816881270529 0.000784193665641 0.00051197577662)
(0.816186008603 -0.000294782585314 0.000314374546246)
(0.818501198165 0.00778036191201 -9.32441547169e-05)
(0.816549557883 0.000809177452296 7.46091153726e-05)
(0.824277681261 0.00986274750919 0.0015635169931)
(0.814992305735 0.00278452549488 -1.19858124687e-05)
(-0.096300712259 -0.028947737656 -0.0119445984268)
(0.277394230189 0.81331162411 -0.273250320213)
(-0.250281409194 -0.272396583191 -0.365282630709)
(0.823457133979 0.00822563060387 0.00588615515882)
(0.821934178746 0.00823388689384 0.00632709154759)
(0.769502376219 0.00182117763141 -0.00398150151957)
(0.761454047987 0.00217201709121 0.00578594250762)
(0.823103255553 0.00861507210614 0.00789505828553)
(0.816589823536 0.00194737489723 -0.00115860756033)
(0.814351567994 0.00154246807736 0.000117476329042)
(0.815674443928 0.000665267047718 -0.00117316598416)
(0.811711077007 0.00305753564785 0.00147492896522)
(0.768465661627 -0.00922543454424 -6.93509503125e-05)
(0.811357369868 0.00219681356519 0.00269985182191)
(0.812258101259 0.000234977437365 -0.000490119452958)
(0.0604858609081 -0.0344765699432 0.0102822620365)
(0.147297815538 0.0319261007511 -0.00621166113137)
(-0.26771116406 0.110866494904 -0.0392749171386)
(-0.188726979013 0.0823193680622 0.0144643177034)
(0.0548337394728 -0.033943201069 -0.00314747521905)
(-0.143232714208 0.14807751981 -0.0873906885844)
(0.818535710761 0.00626701959409 0.0114166385414)
(0.81580139017 0.00420464094798 0.012750391814)
(0.761853200212 -0.000408385984352 0.0108130650069)
(0.763976003822 0.000471817200723 0.0107175432867)
(0.817869242359 0.00494921721717 0.012137479617)
(0.762766070951 0.000341561510206 0.0111924292083)
(0.816202601949 0.00545195590554 0.0124227506197)
(0.814748145679 0.00387002798124 0.0111405300483)
(0.812755486415 0.0049597102975 0.00993800538502)
(0.761270463672 -0.000715607164923 0.0101657590468)
(0.762568267273 0.00071723843106 0.0095026315418)
(0.812765801023 0.00412793314466 0.0101961826644)
(0.762163451283 0.00057609914328 0.0103201413945)
(0.81489667993 0.0050448148677 0.0108916495745)
(0.811052310039 0.00413496473463 0.00594360063202)
(0.811506901196 0.00435684748739 0.00804889816413)
(0.764245095666 -0.00216850397495 0.00494908993228)
(0.763302066438 0.000653204933203 0.00869416409753)
(0.811570580862 0.00375067507261 0.00894832571386)
(0.76443161965 0.000886980609345 0.00618974740927)
(0.811046467201 0.00458471622576 0.00510977433219)
(0.811179415741 0.00391852523941 0.00154264793229)
(0.767114970122 -0.00358216388846 0.00199284589085)
(0.766796022036 -0.000238755374564 0.00283005492528)
(0.81092916172 0.00371603977705 0.00473415275874)
(0.765626755826 -0.00293005011657 0.00406600056234)
(0.765759187318 0.000185166678416 0.00489849668829)
(0.811080291099 0.00412152512353 0.00396061558497)
(0.810443849377 0.00177340180567 0.00428709466874)
(0.767138555637 0.00118871299795 0.00436792889897)
(0.767060807186 0.00426351622241 0.00531843551866)
(0.810755012681 0.00295756229345 0.00596222173347)
(0.766639120092 0.00451177822741 0.00736015398948)
(0.810561776138 0.00186649083492 0.00644878413704)
(0.766570603844 0.00157475746407 0.00630343477002)
(-0.176161126677 -0.053486192979 0.0214394064862)
(-0.00599024296115 0.379021624799 -0.263004930652)
(-0.378765814121 -0.0425328507564 0.019681256103)
(-0.27317326546 -0.08401791009 0.0222975275846)
(-0.0533610893642 0.22478375426 -0.126520183828)
(0.00565935919184 0.266761061938 -0.235736448984)
(0.112811807384 0.000671100602565 -0.0100927066686)
(-0.335626517002 0.0452009641688 0.023480858491)
(-0.271308051207 -0.00844698320487 0.0595566079208)
(0.0647479823752 -0.0374111679643 -0.0143053818722)
(-0.311627576746 0.0350487390921 0.0450750077131)
(-0.108403475866 -0.0458502921585 -0.0116584436796)
(-0.234783645872 -0.0278166306407 0.0515868300734)
(0.826061914826 0.00966367249775 0.00283313947112)
(0.827626626997 0.00908526700504 -0.00377980991304)
(0.765548848973 0.00199737985016 -5.14634740513e-05)
(0.769289262314 -0.00113825117128 -0.00335145020966)
(0.826623094577 0.00869976784917 0.00247532183107)
(0.826890490877 0.009806572586 -0.00295674844733)
(0.765495531606 -0.000776785310166 0.000255077034539)
(0.824017490092 0.00903841351523 0.00446253361631)
(0.822909552709 0.0073482479591 0.00837268280755)
(0.762899787041 0.00213500850041 0.00303724824154)
(0.761028196575 -1.24568916214e-05 0.00538836419062)
(0.824703535986 0.0080341411323 0.00411157081739)
(0.821842707791 0.00813201700951 0.00879587690135)
(0.762974186258 -0.000346613985509 0.00338049183463)
(0.765245218959 -0.00139607143399 0.0070970288945)
(0.762994096546 -0.000903611522731 0.00879212229137)
(0.820676870256 0.00769524739775 0.0118715055586)
(0.823692236237 0.0094423167577 0.00603300833576)
(0.762061765367 -0.000226150267201 0.00742895752413)
(0.8214022773 0.00854157510388 0.0104491501557)
(0.764245522524 -0.000616222849646 0.00550962082505)
(0.811694108042 0.00389624865042 0.000624314707155)
(0.767984941093 -0.0049107301276 0.000393094200334)
(0.767711681922 -0.00169716146976 0.00159419120281)
(0.812489382811 0.00283160686861 -0.000799668531115)
(0.768253366774 -0.00626852139608 -0.000246536527528)
(0.812654130897 0.00366123555344 -0.00156811456818)
(0.767804890115 -0.0030391626398 0.000552485396032)
(0.813440366312 0.00218599292961 -0.000941470794048)
(0.81496690968 0.00354700396226 -0.00207273579495)
(0.768304962569 -0.00782192543352 -0.00049358376329)
(0.768280542238 -0.00614109726893 -0.000285115112079)
(0.813820919066 0.00350832158866 -0.00147956884163)
(0.814742069645 0.00174432428791 -0.00170865747352)
(0.767928698397 -0.00467942724624 -0.000262132624732)
(0.811443831533 0.000806191704705 0.00020200131752)
(0.811006570285 0.00122773274163 0.00308336198386)
(0.767336389345 -0.000153249271472 0.00286531700176)
(0.766987431299 0.00322443087284 0.00402212724673)
(0.767192254215 0.00217965963659 0.00216501903797)
(0.811862860166 0.00185542720783 -0.000166591850244)
(0.76770768592 -0.00129300143637 0.000931036349826)
(0.767231456612 0.000474074918074 0.000192234430798)
(0.767990619811 -0.00116986282009 -0.000599368555257)
(0.813561132785 -0.000453728598697 -0.00250332557096)
(0.812754032976 0.00125825103479 -0.000624500596423)
(0.768259294393 -0.00413447503877 -0.000476640593135)
(0.81423660796 0.000590200227292 -0.00186709413495)
(0.767781893752 -0.00277461250036 -0.000485832734869)
(0.816897767545 -0.000401077512909 -0.000531279496766)
(0.817207119546 0.00173195813379 -0.00116017074887)
(-0.122658365642 -0.0649702822056 -0.00933904904437)
(-0.0881822874927 -0.125018109168 -0.435744829334)
(0.820725800103 0.00692686935348 0.0059128398232)
(0.761549657875 -0.000405336236763 0.00920237887021)
(0.816186230748 0.000230025129203 -0.000749378118279)
(0.817119064374 -0.000467258844831 -0.000615649180408)
(0.768463883978 -0.010044219881 -3.56661923478e-05)
(0.768958361159 -0.00239284044499 -0.00130664685353)
(0.770387305316 -0.00416887260557 0.000511475998004)
(0.817339864044 -0.000797188352027 -0.000198872734283)
(0.816722777996 -0.00139756212198 0.000745900208842)
(0.770509467598 -0.00455884404201 0.00130459363294)
(0.769055857294 -0.00655913766067 0.00277589822282)
(-0.0746097287823 -0.0985096989342 0.0182325803854)
(0.00230145588775 -0.0687059765228 -0.00972115984297)
(-0.0288597000668 -0.0956680248574 -0.00452058005505)
(-0.184558705258 0.0137057394645 0.0393939865176)
(-0.222405057196 0.0148803909757 0.0310246305285)
(-0.155879784867 -0.0170913437687 0.0144606084997)
(-0.0556416104664 -0.0959913733334 0.00150696537329)
(-0.0546651384332 -0.0815413916242 0.00354743858512)
(0.816956715204 0.00688042086229 0.0109108608787)
(0.818932218918 0.00707369945237 0.0110099225329)
(0.760711473656 9.89929653269e-05 0.00850918647326)
(0.760457608944 -0.000515329437283 0.00970668371354)
(0.819635011251 0.00786709833157 0.00977069075925)
(0.759949371709 -0.000317771835102 0.00853674361117)
(0.816439010774 0.00620969868811 0.0120496732512)
(0.816371179261 0.000856668310257 -0.00063028767789)
(0.81588040617 0.00332700751122 -0.00178633296896)
(0.768286822744 -0.0104708482976 0.000387630527754)
(0.768639234316 -0.00687216992384 0.000140382196445)
(0.816571313661 0.00297591425062 -0.00165025714241)
(0.815613591429 0.00131173389707 -0.000922599788761)
(0.768825784799 -0.00736577027312 0.000852761509226)
(0.816002552502 -0.000149318141039 -0.000767198996534)
(0.81463832339 -0.0010350103139 -0.0022589819346)
(0.768983026238 -0.00513978993338 -0.000397086522968)
(0.769671083006 -0.00361895446381 -0.000863761744194)
(0.814937010233 0.000160910448182 -0.00118156864337)
(0.769470639148 -0.0059866599949 0.000223295550275)
(0.816096879892 -0.00114614488778 -0.00195595099414)
(0.816204063988 -0.00018289687822 -0.00016733630837)
(0.816439611149 -0.000927671827735 0.000421299661727)
(0.769744813701 -0.00628647324799 0.000800187542297)
(0.770468477871 -0.00421994276752 -0.000419847251819)
(0.816285762657 -7.21137870817e-05 0.000976323976077)
(0.769794714847 -0.00616175066175 0.000353487000667)
(0.816383260615 -0.00102644495885 -0.00121630280873)
(0.815929375382 -0.000112907882985 0.00254078514331)
(0.81625836826 -0.000556634181401 0.00128038399461)
(0.76989247139 -0.00631796576014 0.000985282059606)
(0.769818224829 -0.00487290668705 0.00148263138994)
(0.816225370519 -2.6664610953e-05 0.0015701003608)
(0.769501644076 -0.0064111613961 0.0010563422368)
(0.815781711292 -0.000501213477343 0.00236656424957)
(0.815310451185 -0.00052734040464 0.00337123571809)
(0.81390811479 -0.000555127078363 0.00417184611817)
(0.769109306384 -0.00751910461214 0.00159532660939)
(0.769379413717 -0.00567586857998 0.00239407305147)
(0.814217189449 -0.000805442039802 0.00399255204949)
(0.769208187938 -0.0069327336929 0.00143552275915)
(0.81508342565 -0.000556467133748 0.00322813116439)
(0.793618746351 0.0090383878908 0.00335553405403)
(0.79883715582 0.00921233892431 -4.78480809567e-05)
(0.798227990883 0.0141115636542 -0.00333952144196)
(0.80125349223 0.0111549591333 -0.0052577868968)
(0.227657077544 0.0895559766218 0.00127441989669)
(0.316251234855 0.160353395006 0.00277126150136)
(0.146419470196 0.153758029687 -5.46987937256e-05)
(0.176659617856 0.172559641992 0.00204294414612)
(0.0787859937354 -0.027550746188 0.000415443739485)
(0.222743486792 -0.00119525975578 -0.244017830477)
(0.371833036402 -0.111614473257 0.398787626488)
(0.155335866607 -0.0861746240645 -0.22037172809)
(0.524565322599 -0.195372423353 -0.0742577398733)
(0.112703971145 -0.0729488694495 -0.164603762547)
(0.42070640277 -0.0939328213986 -0.0655325832102)
(0.792273899144 0.00189809013042 0.00236563448787)
(0.79333545279 0.00433462602254 0.0025671505961)
(0.770565499786 -0.000463067442982 0.00365277401547)
(0.772103711038 0.00308474546468 0.00426806014842)
(0.789912748941 0.00653679838889 0.00484362750086)
(0.772256280033 0.00380402238109 0.0050353351239)
(0.795424858721 0.00613176007072 0.00361442433645)
(0.797555470918 0.00715500833277 0.00312551946046)
(0.772738617602 0.00393530445393 0.00416160904268)
(0.775307690516 0.00544464934667 0.00231775237309)
(0.790845436908 0.0129369159766 0.00491178988314)
(0.796767726969 0.00964551906779 0.00252675083248)
(0.794656804069 0.0128524330381 0.00229865984449)
(0.772911480297 0.00487984886838 0.00511677344966)
(0.775846740836 0.00877486907921 0.00613066365002)
(0.775735281695 0.00652822902644 0.00309557739972)
(0.779171271232 0.0106235052002 0.00282306446211)
(0.795492474929 0.0168261524143 -0.000410827546496)
(0.798315039244 0.0212806165019 -0.00220244005124)
(0.776548151765 0.0100657129781 0.00566712738399)
(0.774865888918 0.0146147242309 -0.000136322509532)
(0.779840515704 0.0117370210518 0.00168429777096)
(0.777519804929 0.0133726531995 -0.00552119449874)
(0.797749513401 0.011725112153 -0.000498272255199)
(0.79946298284 0.0103818952751 -0.00178820398552)
(0.776908864652 0.00659647492059 0.00304040452606)
(0.780084299359 0.0100646420619 0.00180219170344)
(0.781485121748 0.00741679290937 -0.000904612435971)
(0.801223191354 0.0167445265924 -0.00748423720203)
(0.800153866693 0.0122395898701 -0.00415298720732)
(0.802700564865 0.0137159076723 -0.00881054358824)
(0.780447571314 0.0106596981772 0.00057113617946)
(0.776927885634 0.0106569660934 -0.00599833530158)
(0.780957117432 0.00725428758247 -0.00164278568841)
(0.775456725577 0.00657864137889 -0.00681096493763)
(0.780655721967 0.00555787305256 -0.00222156004219)
(0.775472921654 0.00543797776828 -0.00746390064191)
(0.155439341158 -0.0300050316079 0.00363873356728)
(0.164985765294 0.00528531413393 0.00247085444333)
(0.241938845342 0.0315753161333 0.00200641209957)
(0.157872842564 -0.0401949434233 -0.225237565306)
(0.233339952994 0.0026993169041 -0.252365032915)
(0.165163191685 -0.0340157859781 -0.216857168074)
(0.256073588172 -0.00210177870378 -0.231547399727)
(0.236906590221 0.0387624586444 -0.213188624584)
(0.0593836634969 0.0845705704096 0.0542999733209)
(0.265586366735 -0.00866205169848 -0.160713491182)
(0.161181130662 0.00408266670326 0.0862043724873)
(0.159988663456 0.0573336000465 0.00238188788884)
(0.127865333964 0.102931384872 0.00267310955211)
(0.307912432849 0.125878191671 0.00261734282147)
(0.187780769047 0.138303299871 0.000714513463237)
(0.231317080011 0.18148161503 0.000808948797614)
(0.145062645649 -0.0614143911564 -0.1922298508)
(0.196032222523 -0.0357534949608 -0.178686177268)
(0.141536973507 -0.0601827013839 -0.135791035551)
(0.185156004755 -0.0435133626331 -0.0721861292353)
(0.233745596164 0.169127500822 -0.00252655128394)
(0.234490864185 0.208703037965 0.00155674719634)
(0.159470205839 0.191435339351 -0.00294792957345)
(0.261798250411 -0.0652805105377 -0.065468672627)
(0.233415668398 -0.0182396111993 0.179925993639)
(0.228133839027 -0.0330490025656 0.0771518263843)
(0.22349715949 -0.00522586699841 0.269679893066)
(0.171205235966 0.173394591229 0.000536394667101)
(0.150925514867 0.0861274664099 0.0013598769557)
(0.116860679641 -0.0536968507937 -0.0243385624838)
(0.139155501945 -0.0482240180326 0.0615089069256)
(0.129636216709 -0.045786905126 0.144686709077)
(0.125159460459 0.129445575498 -0.00349760516953)
(0.147471703102 0.0603906286901 0.00216492552191)
(0.0971149676567 0.0147213301066 -0.00444460346621)
(0.197138822036 -0.0472391093197 0.166296140425)
(0.206948696419 -0.0493899678225 0.283823788553)
(0.19562570205 -0.0459144232872 0.211380655392)
(0.212784615163 -0.0459674770855 0.300854730216)
(0.797842318923 0.00237355800108 0.00330369375777)
(0.795877291821 0.00152435581407 0.00481945582099)
(0.771377857618 -0.000614039762892 0.00216684650059)
(0.771140143472 0.000632682103892 0.00421096986092)
(0.796239313264 0.00297697787702 0.00504258707117)
(0.771820999337 0.000379080834467 0.00249781786685)
(0.797641876573 0.00111388766752 0.00277779669158)
(0.79814322599 0.00337730516121 0.00324883795895)
(0.797547498356 0.00538490188849 0.00562506010298)
(0.771477493598 0.00170448074127 0.00391223691494)
(0.772442464794 0.00220140736801 0.00280396274237)
(0.796735114068 0.00442478289092 0.00494226160161)
(0.798732969683 0.00459171407563 0.0031470935445)
(0.772032752589 0.00116695770997 0.00242043647956)
(0.793074937053 0.00602669283049 0.00810759328339)
(0.795929176554 0.00616263801961 0.00648603199119)
(0.771570702205 0.0022532965115 0.00502550822143)
(0.772969964799 0.00480004541065 0.00572644102272)
(0.794977562862 0.00467256556539 0.00680632537331)
(0.79407511124 0.00746235765635 0.00824793311711)
(0.772124661481 0.00304429780465 0.00581656871223)
(0.80021328126 0.00579507502961 0.00296269170373)
(0.798398453208 0.00609565321147 0.0053063563616)
(0.773129423722 0.00300645169893 0.00292427220208)
(0.77361549044 0.00480514407143 0.00337533137584)
(0.799528723571 0.00519889609418 0.00321609325447)
(0.799306502005 0.00663531322047 0.00488559022384)
(0.773662806378 0.00377454650705 0.00252958443292)
(0.800941220576 0.00608376837075 0.00265516732228)
(0.801164827537 0.00718294489283 0.00348248271043)
(0.774414744459 0.00530542295286 0.00325143489267)
(0.775451859251 0.00438738435488 0.00153337655338)
(0.800148003767 0.00687942835214 0.0042768388316)
(0.801809680844 0.00629253482533 0.00198176741289)
(0.774589435431 0.00420276574418 0.0024021595887)
(0.796865767403 0.00899502648477 0.00673344452116)
(0.797045708503 0.00704466928388 0.00577818202945)
(0.773843161038 0.00591958735241 0.00567199794749)
(0.773908341292 0.00580329086265 0.00453918363172)
(0.795490408525 0.00851296139722 0.00736532249056)
(0.798177762526 0.00752495092591 0.00508917751746)
(0.774924119176 0.00718188175839 0.00488485145932)
(0.795436464794 0.0100352956806 0.00618625914223)
(0.792747596004 0.0117092404035 0.00809051323176)
(0.774934090976 0.00733132166585 0.00572084564194)
(0.777039804821 0.010063329126 0.00509483138318)
(0.793934795985 0.00971433847929 0.00676787883265)
(0.794431786472 0.0120883754878 0.00701545774129)
(0.776089772294 0.00835611077595 0.005172336886)
(0.798073414801 0.00911117740038 0.00581484782695)
(0.800302249306 0.00789624637671 0.00351767063563)
(0.774807428895 0.00640354180364 0.00436843353879)
(0.776874612023 0.00783007673115 0.00338242581333)
(0.799358446591 0.00773893877606 0.00446845744502)
(0.79912658009 0.00918022468829 0.00453362058654)
(0.775802407334 0.00757971417539 0.00471847606564)
(0.796846199708 0.0100353830344 0.00491287329078)
(0.797375197675 0.0116455186446 0.00332700291351)
(0.777932817834 0.0101825466068 0.00405470809552)
(0.778078073622 0.00910467770498 0.00342890843969)
(0.795908491475 0.0120084916502 0.00487568471257)
(0.798052946242 0.00992957965612 0.00357437627995)
(0.776972123509 0.00878874069785 0.00484777351775)
(0.793585081089 0.0158885519029 0.00502237688221)
(0.791084410156 0.0134434363637 0.00694527771102)
(0.776294922838 0.0114114921736 0.00509597224991)
(0.777876650029 0.0114503108003 0.00437179849769)
(0.791519248216 0.0162457464696 0.0070354476091)
(0.792969900437 0.0134470980389 0.00549450463121)
(0.777860311873 0.0130001211177 0.00346064097473)
(0.793763639273 0.0175120258578 0.00158894780573)
(0.79490558856 0.0202526937947 0.00157047932149)
(0.77567879605 0.0128291658915 0.00328295813558)
(0.776346916546 0.0160117582533 -0.00192616854905)
(0.791733919918 0.0182273269223 0.00410008619315)
(0.77742795402 0.0145025665388 0.00151023067118)
(0.796618355342 0.0193254876183 -0.000637050669528)
(0.795538938197 0.0153117905231 0.00109944094411)
(0.796530524303 0.0126785964008 0.000934940076455)
(0.77880787758 0.011635050157 0.00286266215327)
(0.779338985336 0.0127723715944 -0.00018167841834)
(0.794806155315 0.0131834684162 0.00243236462895)
(0.797069102253 0.0143439624797 -0.000684538561285)
(0.778691574464 0.0128796485922 0.00137731027579)
(0.795997508689 0.0171723086621 -0.00316969218977)
(0.79949171843 0.0171343563289 -0.00788270766882)
(0.777207413946 0.0149467700346 -0.00428380496278)
(0.779109475073 0.01314173159 -0.00267696454835)
(0.797350322438 0.0159974601855 -0.00501915683379)
(0.778409049978 0.013802693381 -0.00097551304896)
(0.798172892382 0.0184663167467 -0.00601986523463)
(0.800953874397 0.00860105643409 0.00205910954891)
(0.801127068835 0.00788246943951 0.00279893423135)
(0.778094281132 0.00788418853735 0.003076704994)
(0.778076962256 0.00629219393207 0.00198116892406)
(0.800098155954 0.00889099455936 0.00329324776153)
(0.801835837397 0.00766693486301 0.00182444783936)
(0.779195077733 0.00758355767624 0.00190710088221)
(0.800008272092 0.00930220221507 0.000861801595663)
(0.798503016938 0.0109266244504 0.00153704181587)
(0.779235835243 0.0089428286266 0.0026367495692)
(0.780875892208 0.00950198473202 0.000484357896521)
(0.79910568555 0.00973527417768 0.00213111369822)
(0.799600880162 0.0103450248939 0.000221476303655)
(0.780230514606 0.00852726310404 0.00148835336013)
(0.800934242831 0.00906533163058 -0.000160051978156)
(0.80129710732 0.00970388358294 -0.00175201909409)
(0.781435472122 0.00848884121328 -0.000182210623944)
(0.781519912259 0.00712225821298 -0.000163886174106)
(0.80053953344 0.00997726591973 -0.000870272759326)
(0.801761760199 0.0089238102186 -0.00103004278471)
(0.781145107446 0.00791582879615 0.000635623486242)
(0.799357524139 0.0125317455809 -0.00385362236723)
(0.797823672909 0.0121286836453 -0.000961637768067)
(0.779533900349 0.0112726712168 -0.00133082819514)
(0.780865205832 0.00987801681429 -0.000686901236962)
(0.798238687385 0.0133366073432 -0.00268423699738)
(0.799032748347 0.0114403446701 -0.00225229129948)
(0.779693664788 0.0103090185923 -0.00246089781842)
(0.800002461289 0.013985461143 -0.00727979320344)
(0.800548466108 0.015995428498 -0.00975296169767)
(0.778836101147 0.0107834482757 -0.0034010404521)
(0.776352515557 0.00956284569152 -0.00633966789614)
(0.798780181001 0.0150298145357 -0.00658377077865)
(0.778692092769 0.00957094536102 -0.00395464621447)
(0.801322281391 0.014706996641 -0.0106953837774)
(0.800183543749 0.0119505897965 -0.00469249966897)
(0.801025456092 0.0105431643836 -0.00378698323846)
(0.781058234577 0.00849443267383 -0.00118775996901)
(0.779553930262 0.00723858365852 -0.00252290447779)
(0.800139581116 0.0110198727358 -0.00317915757314)
(0.800863221256 0.0113964786657 -0.00521334179442)
(0.779608980152 0.00860960681169 -0.00244034031405)
(0.800919687729 0.0131043608114 -0.00764378086507)
(0.802360427789 0.01284512375 -0.0122922936787)
(0.77589042168 0.00761606446844 -0.00650463940678)
(0.778090291731 0.00665410598616 -0.00384801378145)
(0.801647888469 0.0123268084169 -0.00793242734466)
(0.778309718778 0.00763447272924 -0.00384305618726)
(0.801823272283 0.0135263575872 -0.0116617279596)
(0.802060886572 0.0109229155399 -0.00652164617424)
(0.801821238915 0.0103897843509 -0.00451617166219)
(0.779236695293 0.00549663920382 -0.00313056000462)
(0.780664243621 0.00403517542635 -0.00254874412664)
(0.801558366428 0.0110230539183 -0.0060495051376)
(0.802303679899 0.010354052787 -0.00481628089754)
(0.77916773857 0.00418409906365 -0.0037283306224)
(0.802939637836 0.0124395810951 -0.012948062743)
(0.777711306615 0.00506905865883 -0.00440295159571)
(0.802338319511 0.0117577157825 -0.00859675235725)
(0.817789265264 0.004591414833 -0.000335892379629)
(0.818469641951 0.00293676535497 -0.000356154139549)
(0.818615209629 0.000911197732279 -0.000514227136804)
(0.81590883081 -0.0017011695592 -0.000204079246995)
(0.81036645552 -0.00286682763135 0.000167827645281)
(0.829586651378 -0.0472456566118 0.000420879905976)
(0.818386641016 0.00479749912279 0.000944353963982)
(0.818267002113 0.00303261328785 0.000854141906835)
(0.818596631437 0.00173943769593 0.000124695779453)
(0.816385270599 -0.00167515621051 0.00139181601817)
(0.810980868925 -0.00326095608202 0.00333389059469)
(0.831857705262 -0.0503750264958 0.00405618875448)
(0.817619644909 0.00576865118503 -7.42155330759e-05)
(0.813134277332 0.00589995742166 0.00082483289692)
(0.789026417227 0.0101949838618 0.00277403646763)
(0.784871869601 0.0103574694067 0.00204013439968)
(0.781781189976 0.0124766395505 0.0012417221231)
(0.775794192183 0.0134593296237 0.00319660615729)
(0.782427837546 0.0152105543454 -0.0046563466034)
(0.72811094296 -0.0270575116524 0.0281174135914)
(0.827569848305 0.00510725096236 7.3319004462e-05)
(0.824645760005 0.00287591790369 -1.43975631386e-05)
(0.820015670686 -0.000323579055493 -0.000748040544515)
(0.81757965295 -0.00181807646661 -0.00212416658984)
(0.816398989001 -0.00103583008356 -0.00304032946895)
(0.817484789878 7.82560373352e-06 -0.00225339420087)
(0.813203576852 0.00296150513279 0.00121213647265)
(0.830128386075 -0.084814382439 0.0132002939115)
(0.821477850084 0.00666245438058 -0.00133612101761)
(0.823451771098 0.00443509257418 -0.000647881384863)
(0.822550644797 0.00277898404697 -0.000881366679376)
(0.820677833351 0.0020854875191 -0.00130625684221)
(0.819038378327 0.00146334974168 -0.00143716597499)
(0.819617794167 0.000438640390769 -0.00071847564253)
(0.81413069273 -0.00136968124306 0.00155562563768)
(0.83515212838 -0.0680146727224 0.00512198202686)
(0.817759613477 0.00767659496601 -0.000921838785376)
(0.820522972419 0.00413909204397 -0.000368218393447)
(0.820135225065 0.0019071889034 -0.000420634778451)
(0.819272679124 0.000107309109685 -0.000656580997057)
(0.817939830452 -0.00064223086971 -0.000994601853581)
(0.818264510535 -0.00184666090226 -0.000554651147362)
(0.812698827655 -0.00327334588024 0.00055479446928)
(0.833467414566 -0.0688522788908 0.00203927132309)
(0.81731227452 0.00049503595763 -0.000642511073814)
(0.817168375097 -0.000854356171025 -0.000214405603551)
(0.811281734175 -0.00259031287343 0.0004792013986)
(0.832368517445 -0.0528474054143 0.00102708021666)
(0.640920172962 0.0408736202377 0.0109753436562)
(0.637583984186 0.039789289782 0.0150987335057)
(0.646378768068 0.0238760363981 0.020607989151)
(0.64386293852 0.0203556842237 0.0161145413387)
(0.643045791117 0.0211326524862 0.0152261942543)
(0.631440106887 0.0237528461176 0.0171445463831)
(0.683069029366 0.0355491616453 0.0157506991919)
(0.421349157031 -0.08612079793 0.0563728407881)
(0.775244804693 0.0129188099418 0.00630491441994)
(0.770948081609 0.00916278226128 0.00894214134438)
(0.776511769999 0.00253745437653 0.0130004340181)
(0.773007210298 0.000347922739056 0.0131168942896)
(0.773156824232 0.000975789373395 0.0134434674433)
(0.775779073292 0.00196078968434 0.0154440874691)
(0.784605433812 0.0183301286442 0.0238231030262)
(0.802207509732 -0.157478948578 0.0372858519656)
(0.823495499947 0.00731486823015 -0.000368212175196)
(0.823789191233 0.00546916132992 0.00083301912413)
(0.822215025476 0.00410526235784 0.000932071444035)
(0.820029378814 0.00449748652195 0.000302251814398)
(0.820083585122 0.0043506669759 0.00085976043584)
(0.822391556566 0.00307075388926 0.00243737414073)
(0.819017588409 0.000689921570902 0.0069349896289)
(0.860479844216 -0.104635628098 0.0117962817406)
(0.819041312572 0.00788073872591 -0.000331775931661)
(0.820985907689 0.00400653280278 0.000671327723135)
(0.819816224542 0.00248062399173 0.000785113606282)
(0.818764193313 0.0014276419243 0.0004741984797)
(0.818240172513 9.57608049258e-05 0.000712655678055)
(0.819965105665 -0.00217250619771 0.00225500203406)
(0.815084265993 -0.00453377521254 0.00546781118138)
(0.842530308724 -0.0843463869756 0.00820803767022)
(0.817563509555 0.000793660094397 0.000141484188346)
(0.81802484594 -0.000583315691539 0.00133545436204)
(0.812506941915 -0.00279049214772 0.00370653048836)
(0.836379738657 -0.0607431668049 0.0048655477541)
(0.639429222457 -0.0164566403556 0.0166911100816)
(0.634036658153 -0.0171153436362 0.0228402575785)
(0.637564806955 -0.0214708547806 0.0267835979251)
(0.633991196718 -0.0203854352557 0.0224050752943)
(0.633038967421 -0.0187513036571 0.0198037841821)
(0.627067353338 -0.0127914917163 0.0220010526444)
(0.684251936916 0.012335070753 0.0420881237993)
(0.479656722897 -0.255306261154 0.00759405302291)
(0.739176218153 0.00508093419634 0.0193766028847)
(0.735965375747 0.00022051012607 0.0249990052925)
(0.783518182956 -0.00166963766266 0.0115769073584)
(0.78152324898 -0.00264715268886 0.0111174544373)
(0.782827212514 -0.00168504750153 0.00947391226923)
(0.789005422703 -0.000676203417228 0.00823223000736)
(0.803068622967 0.0140371020014 0.00808865829542)
(0.853463229587 -0.173544500082 -0.000232359182869)
(0.826865528919 0.00749491343031 -0.00244597861598)
(0.825233269415 0.00556916588142 0.00129119740411)
(0.823063147814 0.00147723167542 0.000916179152427)
(0.820499033742 -0.000890161820553 -0.000606710331284)
(0.821407749324 -0.00179990947772 -0.00257348875103)
(0.82567866608 -0.00325007614438 -0.00180258785936)
(0.822789806052 -0.00660398814519 -0.00147872901841)
(0.882447673178 -0.138146385869 -0.00288524750082)
(0.817252508356 0.0119525237952 -0.00512583757824)
(0.821652443032 0.00828972343846 -0.00081154849653)
(0.822121688838 0.00422357796248 0.00168034038198)
(0.819708298579 0.00153900187218 0.000627028624475)
(0.819117293567 0.000510445093422 -0.00116811076302)
(0.819745450883 -0.00101800562792 -0.00115473604731)
(0.822928387632 -0.0032906601794 2.55429123576e-05)
(0.818406676522 -0.00610905866799 -4.72413635955e-05)