/*--------------------------------*- C++ -*----------------------------------*\
| =========                 |                                                 |
| \\      /  F ield         | OpenFOAM: The Open Source CFD Toolbox           |
|  \\    /   O peration     | Version:  v1906                                 |
|   \\  /    A nd           | Web:      www.OpenFOAM.com                      |
|    \\/     M anipulation  |                                                 |
\*---------------------------------------------------------------------------*/
FoamFile
{
    version     2.0;
    format      ascii;
    class       volScalarField;
    location    "10.35";
    object      p_rgh;
}
// * * * * * * * * * * * * * * * * * * * * * * * * * * * * * * * * * * * * * //

dimensions      [1 -1 -2 0 0 0 0];


internalField   nonuniform List<scalar> 
28582
(
19548.6309004
19547.53445
19549.0591458
19547.7478209
19550.1240654
19548.251722
19552.4822053
19549.5613637
1154.61154551
1253.58638493
-0.112375734269
19551.2358072
17425.9931854
17290.1138921
19547.9338547
19547.7189398
17216.6627674
19522.8575582
19521.1572917
19547.8834099
19546.7035351
19546.5375436
19548.1752895
19546.8256254
19546.5503286
19549.2354407
19546.5882771
19550.75656
19547.0550474
1280.41118032
-0.145153858144
-0.0835842654319
19550.4430167
19551.9450121
17441.0588191
17398.6792456
19531.3006879
19546.752595
19546.5191809
19546.4126614
19522.6735257
17021.9805466
19520.6937139
19517.2966537
1190.40419717
1277.86394431
11.8411468736
11.2965119502
1227.13845181
11.6705605995
19534.38605
19536.1438866
17404.2793118
17432.6863744
19535.1696641
17406.0495634
19534.4258437
19535.0971148
19530.7059864
17354.3421694
17292.9899735
19533.0490334
17355.4269082
19533.1039061
19527.3157484
19527.9858426
17150.1325673
17214.4653122
19530.2071014
17142.394407
19525.4242694
19523.1250051
17095.3002244
17056.9032647
19524.4652067
17115.7062144
17093.2370801
19523.4571424
19518.6812495
17016.8246412
16974.4691058
19523.2218456
17038.4006906
19521.1669248
17056.1329407
1120.73459724
1.17082751652
1115.26775563
1120.22000956
0.775301296767
1.01749488719
1295.93453035
11.056271378
8.96441049922
1316.01019335
10.4758714663
1309.00993045
8.42516491246
19532.8956846
19534.0586621
17427.935445
17455.5208826
19531.9645362
19534.9877713
17445.2109549
19530.7539775
19527.8421453
17414.2619941
17424.1050381
19529.9671094
19528.5233303
17436.211888
17451.9235876
17444.3991339
19531.2355954
19530.9234769
17434.7386447
19530.1582989
17444.9695429
19523.3929662
17072.8851163
17033.0800414
19523.3107339
17061.2858967
19524.4215713
17013.9127399
19524.4759541
19526.6904254
17044.5259766
16984.6099217
19525.6609677
19525.9696322
16991.4558187
19516.5072523
19516.5662341
17001.1846531
16944.2974393
16920.0440605
19521.1104826
16986.2692974
16924.9922684
16930.5377412
19518.8833519
19521.8664732
16984.6578232
19523.339975
16983.0560619
19545.9059919
19546.4777261
1335.87023038
-0.0856673488676
19551.2780047
17431.6590532
19546.659204
19546.8203934
16988.4099029
16925.7504947
16880.0344396
19546.5273374
19545.8215303
16851.9827271
16767.7494142
1145.27361369
1350.95321274
1385.66021585
7.90365041846
9.4883963407
9.47310988128
1413.6027794
1431.20102099
19527.6001973
19531.1184597
17419.4759255
17414.1118118
19529.3770591
17403.2145383
19530.4723994
19527.7990212
19526.7875086
16950.2290778
16971.6755525
19526.5769465
19527.3058453
16955.4916717
19525.9760295
19520.6965247
16973.6467345
16917.308883
19525.2946312
16953.4750944
19521.8189325
19525.7089113
19521.8016656
16883.9048611
16900.1468336
19524.691711
16921.4262747
19522.0964829
19521.7604724
19520.9448777
16849.4543444
16822.7628251
19523.2633582
16824.3079316
19519.4589832
19520.0531025
19515.9554878
16778.7344219
16793.9004222
19517.9411252
16802.9024194
19517.8513125
19569.5473805
19557.6032404
19542.0687938
19541.0451137
868.493724094
972.625583419
881.857681756
961.936963862
956.344390721
0.0175483361168
0.661252795387
0.146261339824
-0.00724265658722
0.132119046841
0.0101993146792
19579.1039388
19578.4328343
18625.955409
18632.1843874
19574.4565597
18523.2261822
19575.4097153
19570.3189824
18572.2514573
18237.1990225
19560.4961671
19562.976063
19553.4531854
18442.2313222
17767.0755259
18067.3023021
17462.6660385
19544.2764066
19538.1367636
17474.3030615
16758.3554406
17273.0914495
16878.5628595
19548.8248741
19546.1189906
17962.6972194
17440.5724169
17367.1721224
19537.7985494
19541.2906807
19538.7719045
17277.5689578
16938.7360392
17264.9732934
17115.4355318
17273.4614057
17169.0742852
744.130095108
755.080090622
861.746170641
5.03119089064
7.99202445838
5.78290695382
8.6874807649
15.1271381595
29.8934581484
13.5675310384
25.764485207
782.610367152
806.137955373
929.716671152
870.047218381
929.98543012
6.77149194108
9.80611065143
8.07790517117
11.0125917374
995.71684457
967.883803081
988.659804857
12.0457000512
20.6126619533
12.5067931634
18.1342865047
932.143347394
936.079285448
9.50119959102
11.3376305775
11.7880328021
986.783993509
957.438127391
989.014375283
11.4555379537
13.4527546791
11.2086859692
11.962965416
19584.457982
19582.9976264
18666.4687216
18647.3792434
19584.12431
18684.264429
19584.0992948
19584.9570972
19583.305754
18647.599857
18681.4153611
19584.4075163
19584.673928
18687.7090573
19573.0883745
19578.8220723
18551.9253067
18369.9722435
19580.6043525
19570.5274179
18423.7925907
19580.5947984
19580.1636776
18645.8519509
18500.2244649
19583.0188708
19576.6034358
18597.6444372
19576.3846912
19564.9537921
18371.6673278
18384.6649543
19571.2160464
19571.5444991
18496.471079
19558.7280001
19574.0099092
18262.4589473
18345.865554
19564.6983962
19569.554738
18138.749532
19546.6745631
19539.0552036
18034.3406231
17626.2441307
19552.6271063
19531.614432
17901.3529854
19551.9508027
19556.4771712
18218.530415
17878.416721
19562.175064
19545.8400348
18016.1776155
19540.7450582
19523.0204347
17554.7503274
17671.8357047
19527.7198562
19535.0106449
17791.6592524
19504.2882578
19524.9352684
17174.6435257
17350.4693606
19509.5583352
19516.9564053
17085.605086
19496.2778287
19497.3423145
16964.9857305
16772.8548101
19498.9663994
16925.1201135
19497.0450275
19502.3540372
19511.9197084
17316.7456834
17083.6380599
19514.480189
19502.1078778
17084.2492796
19495.4481614
19498.1677944
16825.8787839
16982.1394858
19496.8872951
16942.4596897
19495.9392908
19536.0270218
19550.3429097
17800.4298564
17872.4768576
19541.0755793
19545.7591632
17719.2556415
19526.9021248
19520.7636762
17625.3594385
17407.9516084
19531.4828964
19517.3680942
17566.5207204
19525.5171914
19515.3511202
17388.0825104
17505.8124749
19516.346018
19523.6628337
17535.791925
19503.7259773
19511.2456423
17119.409428
17267.3666016
19503.3806841
19509.4080741
17136.6061506
19501.8769554
19501.3829582
17020.7420419
17000.152621
19499.9385023
17068.50347
19503.6976817
19505.6641427
19509.6865673
17270.6103314
17174.9175006
19509.2896893
19507.3506359
17165.3009396
19505.3974037
19510.4300504
17068.9224335
17146.8772062
19507.9940719
17113.6562536
19507.2635281
19510.4388547
19510.4549842
17197.3781741
17266.5735455
19509.8508535
19510.363846
17205.9010028
19513.0663691
17187.6946304
19510.9646712
19546.7761539
19545.7523979
19545.2625816
19546.7549194
19547.2285145
19556.4863946
19547.1383692
19546.1094514
19545.5804139
19546.4482312
19546.3953749
19555.6788784
19534.5895513
19539.3388008
19537.0145855
19542.1640422
19546.3737612
19549.3997194
19554.5650816
19536.0319146
19536.5615291
19539.9238811
19542.1162621
19543.3308257
19543.9670175
19543.6490101
19542.2989938
19552.9399963
19542.2900409
19541.7583167
19542.1867104
19542.9590189
19543.6660133
19543.7902483
19543.7573007
19555.6280215
19545.630236
19544.472534
19544.0785562
19544.3809958
19544.7672225
19544.60579
19544.4020616
19556.2295041
19545.3408863
19545.5278024
19545.8333859
19556.40282
19532.3762168
19537.1025582
19539.7820186
19543.2958468
19546.8711623
19551.6256004
19591.4034555
19471.0873142
19535.8901725
19539.6093093
19544.531938
19545.1828939
19544.350966
19542.2525693
19537.0628691
19531.7708922
19541.443667
19542.2160003
19543.3486342
19543.6737484
19543.0526808
19542.0412952
19540.3708647
19550.1556177
19545.6460246
19544.8382332
19544.7234681
19544.9273647
19544.6731044
19543.5572145
19541.7393881
19552.6488181
19545.3510924
19544.8994734
19544.281803
19554.8844133
19529.900816
19536.5536667
19541.296331
19543.7571694
19545.1231065
19544.625782
19551.4974391
19470.4282719
19532.9220673
19540.136166
19540.1513515
19541.4249527
19540.7609318
19536.2860605
19524.2208914
19511.3845636
19541.9343626
19542.7009236
19542.9182203
19542.1793508
19540.9345339
19538.1541461
19531.4147181
19544.4125114
19546.6505122
19546.2281187
19545.4114851
19544.8475942
19544.2121689
19543.2829188
19540.7899684
19535.9575401
19547.7573265
19548.0053012
19546.6343951
19545.5376066
19544.6148153
19543.1643939
19540.2012487
19551.6701481
19544.9074761
19542.8416499
19553.1215861
19532.5918396
19539.7247103
19544.3937466
19547.4468151
19546.9767303
19546.3909492
19546.0229979
19518.4325497
19528.6537449
19535.581582
19540.5420525
19543.3944503
19543.8606361
19541.9372821
19539.8381109
19535.7000637
19523.0225674
19536.3913744
19539.0186069
19541.3457617
19542.9698611
19544.0882996
19542.5861992
19540.0238715
19538.5267125
19536.1848548
19535.8311308
19545.2237557
19547.1661994
19546.3980613
19545.7897603
19544.6967485
19543.3324807
19541.4081257
19538.7217606
19539.505695
19549.7492825
19547.8381897
19546.5450529
19545.6104239
19543.9297561
19542.0110377
19542.5489116
19545.6347246
19544.4599793
19545.2244198
1276.51049997
1221.76005009
1194.06539093
1198.00292636
1253.91558259
1361.98093963
1461.56601581
1466.93429034
1032.78415039
1218.17195306
1292.35510483
1265.53086025
1254.54013234
1272.97347404
1331.2525835
1444.46757769
1495.92209724
1470.14073122
1061.8904953
1199.51743174
1238.72615118
1229.76729412
1251.00241669
1312.39245093
1376.97066519
1471.77678232
1481.5846683
1482.59529476
1148.2827531
1161.69427546
1178.33908956
1220.45506706
1276.29616168
1331.94449555
1414.90801421
1448.03303212
1468.89122292
1146.60988287
1199.40831273
1234.54831099
1322.41760965
1371.30035462
1412.61446425
1445.20834905
1385.96325286
1416.0983163
1431.94635754
0.628144452104
-0.122965454553
-0.0722492419024
-0.0881194174915
-0.0972114649157
0.126102284603
-0.108900885908
-0.0917163892887
-0.26335867819
1.62884841204
1.7599205144
1.05326174676
-0.019722618261
-0.220952104009
-0.209828726092
0.869607490678
0.449079019244
-0.143896599731
-0.256759635176
0.80291397107
0.963280878581
-0.0116122635704
-0.113013913633
-0.0785320433786
-0.158282299409
-0.117319072169
2.05223062982
-0.138023355525
-0.311810573253
0.870729129205
0.00558801294301
-0.153424613806
-0.115727276456
-0.195456189765
-0.0885653187396
0.581769003958
-0.129743506052
-0.295011024676
0.983477205369
-0.123583164588
0.113644179687
0.884989595648
-0.124986386455
-0.135197217142
-0.282363188824
1.17578418036
-0.118819126153
-0.291417644169
1.60336773375
19537.2220646
19534.9852706
19537.4866217
19533.8149219
19536.6434832
19534.4761766
19536.8424984
19540.6326007
19539.7269533
19541.3280414
19538.8331368
19536.1236023
19538.5942627
19538.4301906
19538.1183283
19538.9700574
19539.3469161
19536.1708233
19538.1351741
19538.3687538
19539.3924666
19541.289411
19540.3973747
19541.6958447
19539.931206
19540.5365522
19540.945007
19542.33374
19535.1964136
19533.6631029
19535.9506632
19530.6818193
19534.1362959
19532.2094502
19535.3117345
19537.718138
19537.3894012
19539.2059308
19536.3761598
19537.0489133
19537.1742144
19537.1343734
19538.0002218
19537.7097242
19539.2136372
19534.4978793
19537.7324061
19536.8266886
19538.5549954
19540.5422527
19540.8349615
19544.9158544
19539.430609
19536.7633218
19539.8516592
19543.5522586
19533.9610907
19531.1634093
19535.2443509
19529.6306271
19534.8045556
19531.4201882
19535.8286274
19537.3889088
19537.7339397
19538.3654979
19537.9425581
19539.6088537
19538.7240952
19541.540354
19537.4443047
19536.6404333
19538.5784631
19533.9665995
19537.6507949
19536.9780406
19539.0987975
19537.1488953
19540.0971613
19542.9073444
19540.2183008
19540.7215332
19540.9459619
19543.6249016
19525.1557074
19529.0871624
16857.1157891
16840.2454109
19536.9794115
19534.1844881
19537.7882161
16909.099224
17067.8588513
16889.4715146
17012.5006578
19542.2133086
19540.2171908
19542.2257121
17095.1553564
17172.8070985
17046.895667
17099.3023591
19546.2698446
19543.8442502
19545.1264858
17201.104829
17281.0072202
17121.8182248
17169.5831926
19547.5251752
19545.7028191
19545.2490716
17301.4529845
17242.4129492
17158.6297892
17021.4989263
19546.444665
19544.3694224
19543.7501107
17188.3216859
16930.0193919
16946.0773583
16730.9320206
19546.8707297
19543.4753407
19543.4068671
16881.1081983
16822.6075643
16715.4342263
16667.9972901
19536.5828704
19542.2632602
19533.988506
16797.9242596
16656.1984526
16658.6387133
16496.8231834
19496.7884061
19517.5201825
19518.7626995
16692.5305019
16020.6086759
16566.1794171
16480.7426807
19534.2359971
19533.6714052
16781.1463965
16816.5742079
16899.3503041
17003.1293566
19532.039554
19534.5296946
19536.2724968
16830.9061839
16875.0248553
17028.950521
17043.4858349
19538.3897517
19538.0568971
19539.7493359
16901.6620149
16984.7322504
17037.1707449
17027.616522
19542.2831128
19541.4399706
19543.1454573
17017.9782583
17068.7980335
17031.0332415
17079.5397398
19543.8235462
19544.1801627
19544.1755503
17092.9839602
17108.0558269
17088.0906646
16983.4375696
19543.3094252
19543.3017579
19541.8304985
17088.3004159
16945.0620261
16927.3978427
16735.4948155
19540.9014903
19540.2386232
19539.1056582
16873.6707471
16705.7464333
16694.5063112
16621.1427869
19538.4624692
19538.3012676
19537.1624061
16673.319596
16614.6172286
16598.6170401
16577.8371087
19530.8673666
19535.3361994
19532.6281758
16611.2698886
16459.3418378
16582.1670517
16436.7113244
19540.1260058
19529.7798989
19548.8492652
16537.4028919
16520.7405745
16526.2063143
16540.4766409
19537.5881486
19538.5988694
19540.4594913
16954.9236882
17050.2165078
17126.5114043
17255.3473002
19540.5482355
19542.6762872
19544.2004448
17080.2456024
17097.4898512
17271.5610237
17306.9634586
19542.1106772
19544.6338982
19544.6880189
17092.2242367
17069.5014468
17299.1135444
17207.5353199
19543.6939847
19544.5647444
19544.6256293
17070.5583644
17103.6711166
17176.4754376
17152.8686275
19543.6676609
19544.7352419
19544.1991138
17087.7416422
16970.7501225
17125.1915418
17015.6873165
19541.2222091
19543.3697437
19542.3947808
16920.1825889
16716.4523456
16978.0154732
16852.3366788
19539.2927164
19541.5478926
19540.7321666
16700.5726529
16639.7554991
16820.7056198
16791.4982919
19537.4525946
19539.9129806
19538.6266603
16616.6006254
16553.6571141
16757.4986777
16600.4379366
19535.3428048
19537.2730178
19536.8287684
16552.9248272
16445.6402541
16585.2876296
16482.0370493
19551.6530492
19537.7305626
19551.9665076
16531.2318885
16555.8928766
16555.1479365
16526.2599844
17178.5932034
17298.5246238
19546.6209929
19548.7661862
17313.1026178
17339.3411349
17430.1957415
19546.8092307
19549.1815009
19548.8296935
17330.4244882
17252.1586877
17418.3924276
17362.5084078
19546.0658683
19548.2692523
19547.5819488
17226.1707048
17181.9967852
17340.6179506
17271.412402
19545.3520941
19546.9299051
19546.2595945
17153.3679922
17059.4071907
17224.9648379
17114.7158832
19543.9938052
19545.7878645
19545.3145837
17016.9591283
16904.3859236
17104.8319918
17048.7758291
19542.4332901
19544.9070916
19544.4051078
16881.947425
16830.3965113
17040.1041927
16926.3109586
19540.0335181
19543.1875744
19541.6816342
16777.495733
16625.0244622
16863.1271938
16749.9386572
19538.5028449
19540.4479361
19540.2315824
16613.4372633
16521.6128539
16735.4130491
16619.2784591
19552.2796247
19541.0991953
19552.5827716
16582.7087486
16509.8541742
16669.4376588
16491.1141083
19548.822417
19550.2123794
17378.1496397
17283.9731036
17293.5853589
19546.9610229
19548.9127747
19547.7479107
17236.5131364
17145.8211298
17222.5527413
17148.0597731
19546.2464825
19547.2117073
19546.8770829
17136.5037594
17080.7018313
17145.0391063
17054.3013541
19544.6987928
19546.1925911
19545.5364274
17027.6463392
16919.0510467
16996.9285305
16914.1661454
19542.9535724
19544.8635291
19544.1124891
16900.3177312
16790.7918055
16904.613886
16839.9473052
19541.8828675
19543.3528064
19543.2608336
16769.5126877
16644.0094257
16826.2062803
16700.1834324
19553.2475205
19543.856502
19553.9699657
16691.443616
16476.2298739
16741.2785922
16518.0390494
19546.1645582
16898.7523136
19545.0405974
16882.6018259
16817.3262248
19544.4848242
16814.578416
16700.346765
19554.8134397
16745.063314
16548.317156
26.4175089038
9.61052815591
31.0227112625
11.6454341095
1261.37805163
1293.37720098
2.35618274436
1.90251028539
2.7835574193
2.37070611556
1249.85266426
1302.12404126
1275.36349735
2.24743279697
1.94578909617
2.97116480155
2.43836873964
1202.66504893
1243.27222274
1226.09406852
1.63112565994
1.0292133178
1.84201107471
1.05205134966
1194.42238569
1222.64689423
1222.05281891
1.11428398042
1.65898609714
1.13367275886
2.41524267598
1225.94043331
1234.30850253
1264.76980461
2.40861590737
8.93018628305
5.930522292
12.4670951179
1303.12120716
1295.19430128
1343.67911345
14.2224667023
16.5591746615
16.8247777583
18.1661315198
1417.86198528
1396.09107568
1447.54986825
14.152128007
10.9159470605
14.1618394751
10.7417144952
1491.18500773
1479.74978801
1505.70628595
10.4357884643
11.9669111636
10.6780680002
12.6837548761
1491.5160558
1459.35838082
1549.79521023
19.8292488649
55.6477028809
18.139214715
28.2993838712
1135.52792385
1053.12991323
1143.15811298
40.1607954399
26.3896009845
37.5181954977
23.2494746022
1280.90382474
1218.28823259
1264.5871161
15.402337511
12.7737954529
7.90070076346
5.08451399512
1286.41333352
1272.80017161
1273.31725438
8.65453754723
4.59524433398
3.99431923986
2.74249101548
1255.44127617
1260.93602485
1258.59345696
1.14780362244
0.867237707676
1.57454992171
1.33989510727
1260.31950918
1262.81918535
1278.54956088
1.08886209527
3.68745769333
2.45885940296
5.72962992581
1297.86423273
1303.43534171
1330.36790819
10.4480452615
21.3630327812
13.9835607275
25.843480333
1380.33897903
1364.26152802
1419.63714029
23.8213055863
23.3391560682
29.476900255
25.2713249568
1480.6533121
1471.62460826
1493.89926875
12.7259147248
10.1492133453
12.0678252964
10.0294213751
1513.56362691
1494.11720185
1508.1422114
10.6582668557
13.0585229416
11.5557807894
13.2080255432
1564.3719234
1475.54118067
1553.71012161
16.0359837296
20.4775773126
15.8189558611
20.3305662061
1145.7361931
1052.56401452
1117.11001969
26.7314844469
10.133211938
22.5253543721
7.92007057295
1232.44381344
1173.56420245
1190.64270963
0.99453407418
0.802888958604
0.748221769871
0.586133565375
1232.41493487
1196.41647865
1198.83785884
1.17312053838
1.22284407708
0.863099095789
1.16518923566
1234.00528359
1205.27777932
1213.41660386
1.86260412085
1.93601169747
2.02115348285
2.20418564312
1278.10303097
1235.84068943
1266.32124363
3.0607592606
6.37410804721
2.98203055122
4.99649668944
1353.44647353
1301.21864815
1332.63827165
10.1609925437
14.725012801
8.39947138727
12.2144417311
1426.81328257
1360.19689478
1405.0952565
37.8896291371
33.7460617806
34.6698728874
29.6919410037
1483.31952247
1447.72433061
1465.14221473
12.9762246919
11.146650992
11.7750025428
10.2100770762
1499.7325911
1466.45445162
1485.63409989
11.7080127422
12.9327110516
10.7409232865
11.7073522687
1542.82570465
1482.14984107
1524.22444256
17.3528020695
21.8545845901
17.4759207394
24.1000451216
1157.76684324
1130.9538025
0.801402459038
0.6013839483
0.569593338823
1164.85624479
1131.12203545
1133.81011872
0.914814291265
1.27447662089
0.798524671289
1.10323824158
1197.65425336
1155.43435271
1182.13553593
2.05685127089
2.1890785397
1.7692696743
2.25738262098
1247.45199651
1211.37197109
1234.31185179
2.96208455562
4.40135509878
3.88390264923
6.59273490429
1302.58314982
1252.99841396
1284.48291029
7.05682805611
11.2847424363
8.25691427723
10.0473681173
1371.3491702
1308.99458813
1351.22893248
22.9291871177
21.7131283918
16.5728468821
14.8762303894
1440.72474514
1386.14487937
1413.06955411
10.1954717719
8.88971008528
8.42142635879
7.27472731207
1468.49684962
1427.6815593
1453.87917717
9.05171864404
9.71669338328
7.18894002514
7.97642208375
1505.29242611
1454.00358649
1494.30018006
16.2578462405
26.6480763437
14.6972555826
31.3541105451
1179.45645867
1182.01199427
1.80207455079
3.01344891508
2.14828385861
4.42272545844
1213.12953435
1205.87622352
1214.35289999
8.33032616625
15.8752194613
12.5536174524
22.3260976171
1278.88257285
1230.96610435
1288.00043704
21.8380676542
16.1794516379
27.2793318643
14.325590437
1350.36876067
1327.00993503
1351.40648114
7.33491969802
6.76293136638
6.79015089898
6.35750634876
1398.16729097
1368.37572212
1393.49807346
6.82063330626
6.84787596896
6.53246747912
6.75156373575
1443.86160651
1407.0268869
1443.24180149
6.66905409404
7.24722291148
6.23716959099
6.77715946011
1493.46623185
1439.66409662
1493.64273976
13.572256555
34.3855508958
12.6184615434
38.4351779724
1363.89246257
8.13191835293
1406.22655395
8.19088138375
8.52388118989
10.0050462139
10.3207556694
1444.66125938
7.3284520589
7.48194769031
9.11096503844
8.7576274185
1472.43789274
13.0966021294
44.5280997097
12.9888081673
43.1019461648
19506.7903755
19509.7172277
16814.7047505
16819.2050487
19508.6055919
16778.4703693
19507.7755543
19506.5402359
19510.9018455
16822.3862628
16801.8329935
19508.6823197
19509.1439284
16778.2944249
19514.2123009
19512.4443901
16969.6242267
16880.6240596
19511.318229
16950.5884124
19515.1520775
19516.6977702
19518.9037036
17028.0000778
17047.3103282
19518.8422179
17006.1234591
19517.6263887
19513.7095871
19512.9167853
16875.1258095
16934.5792479
19511.1165153
19514.9450015
16941.3135703
19516.5080385
19518.4376792
17034.8608141
16975.0648106
19518.5131517
19517.1743337
16998.7591186
19520.3859172
19519.7245056
17114.7021901
17083.3730765
19519.8826614
17102.8788789
19520.1985422
19520.6686581
19521.285946
17142.2223133
17144.5849821
19521.2319754
17121.663353
19520.4504446
19519.241448
19519.0342518
17065.5867689
17060.9531497
19519.1307968
19519.1135743
17083.7983547
19519.0530385
19518.5717482
17122.6996613
17079.0490595
19519.3867903
19518.7960085
17103.8028036
19523.5358276
19522.5005441
17223.1616452
17175.6869679
19522.3699627
17202.4955145
19523.8672829
19524.9730316
19527.1173895
17246.505436
17254.7973897
19526.9659778
17224.2758489
19525.2390323
19521.5147951
19519.2909915
17148.9258967
17137.6254899
19520.3714247
19520.0589753
17174.8140859
19522.971003
19521.0765961
17221.8462008
17148.6824245
19524.6014744
19520.4179905
17193.7361583
19530.9036877
19530.1965175
17301.3567782
17264.4677829
19529.2503888
17262.2771395
19532.7131296
19532.018567
19532.2560538
17275.1253114
17188.6230691
19530.5169129
17233.6102962
19533.4476171
19528.7726403
19522.8809847
17213.9396085
17140.1619695
19526.849027
19525.2787201
17201.4953772
19528.9532199
19522.3807825
17105.2926989
17092.1961682
19526.9353327
19524.7107034
17159.567114
19524.95611
19530.3449782
17116.8937853
17126.7840976
19528.0848231
17049.8642512
19527.4838793
19521.4297272
19519.8767126
17025.7802003
16872.1998125
19517.6541024
16964.7315548
19523.9685112
19520.9419763
19519.4377549
17038.9970606
16865.3231365
19524.2136286
19515.9118912
16963.4756385
19517.4378786
19510.6040217
16809.0790504
16801.733644
19514.5521449
19512.8477484
16885.8657805
19509.8637553
19515.1565372
16842.3947319
16830.8554005
19513.497153
16805.7468063
19511.6131011
19506.1269595
19504.90908
16832.7084003
16779.0016533
19503.076352
16793.053277
19507.6486314
19508.64448
19507.6085622
16786.6671287
16706.2751036
19511.7187751
19504.315686
16777.6173428
19504.6002171
19496.5276533
16738.0339767
16688.5997118
19501.1514869
19500.4937227
16761.2136099
19501.0931121
19505.0984688
16783.9500686
16753.8575785
19502.021876
16741.3637803
19504.9051336
19499.2313326
19502.2141383
16722.8176788
16591.6040786
19497.8337186
16673.3089149
19503.6621153
19498.4082787
19495.084065
16710.820653
16664.4688591
19499.4875959
19494.0591247
16703.1604173
19495.574283
19490.8430149
16531.6685555
16594.6535108
19493.6249007
19491.5426297
16627.2343177
19473.4745709
19492.4614651
16582.6355567
16626.2227836
19489.3674644
16536.1359066
19473.0182754
19431.3183549
19428.5740331
16014.2199326
16345.7381072
16030.5218581
19452.431422
19414.7240759
19473.3830864
19486.183329
16595.0674273
16524.0838688
19487.1002662
19475.5442411
16527.8429449
19435.1515403
19476.3595279
16425.4237956
16019.7153255
19443.9203553
15965.2077195
19464.3323721
19498.0342605
19495.2960292
16806.918224
16792.9807632
19496.3880678
16842.7892995
19496.1449357
19501.4134887
19502.0062577
16804.14586
16888.078241
19499.5901321
19505.4721855
16858.8115418
19499.9331544
19499.5989858
16852.6259183
16956.880698
19503.6855157
16904.4042377
19496.4093046
19503.8869811
19511.7861862
16949.1605945
16981.2815389
19508.1711287
19508.0786941
16921.0199337
19510.1580783
19504.1114968
16843.788507
16909.3893196
19506.7317963
19507.7696094
16920.7643431
19511.5919348
19509.7633889
16851.1377197
16940.5844611
19508.6450656
19512.5128858
16923.551149
19512.2543286
19513.8322206
16969.6669914
17048.7766317
19510.354407
19515.8169853
16973.9870085
19512.9397023
19516.0202177
16978.7535293
17044.1029153
19512.9439292
19516.58428
16971.421446
19512.4865069
19510.7878794
16927.9469247
16950.7044755
19511.6396966
19512.7105021
16954.7016349
19511.9132377
19511.6815759
16955.3714788
16975.0369889
19512.064289
19510.755537
16964.0997817
19511.0105016
19514.6223626
16981.7369281
17031.8695848
19512.1741104
19513.1180337
16978.0544772
19509.5704401
19509.7854276
16982.8762827
17031.6635909
19507.7719956
19511.6058749
16979.0324583
19508.667543
19511.3062058
17033.267865
16993.8825386
19510.8536664
19509.5923636
17011.9589021
19508.1961859
19509.8460025
17049.0378587
17052.9185989
19510.213015
19508.1088368
17035.3435823
19506.625234
19508.6955258
16999.6874039
17041.9963763
19506.7117912
19508.74841
17020.1297662
19506.9229509
19509.2634299
17057.0715459
17062.2990925
19507.1467209
19509.269322
17041.2054613
19506.8406533
19510.3171755
17119.8725533
17069.0986148
19510.3570826
19507.7471104
17101.2904418
19506.4576079
19510.5975496
17111.0962315
17072.2465309
19510.2624623
19506.07385
17094.4828656
19506.869778
19508.7552606
17070.5641546
17076.7341626
19507.104388
19507.7766455
17084.5590429
19506.7498549
19506.1527808
17023.1474311
17037.2916221
19506.5900755
19507.0164769
17060.8771952
19507.4823116
19512.525853
17065.1153706
17034.1431022
19514.7404034
19506.412605
16985.7409227
19506.6678039
19511.8384434
17015.6819239
16848.2053677
19514.0822586
19504.6183382
16925.7955964
19506.4118597
19505.5901134
16976.2994581
16866.6084543
19507.0154007
19504.4673138
16927.3265652
19505.104619
19502.1912783
16795.0324119
16804.3059767
19503.5241818
19503.2363514
16865.0405471
19499.2202042
19508.6057555
16797.9108945
16784.03991
19504.9740588
19501.9452405
16715.022102
19496.075392
19499.4368352
16753.950301
16654.0695306
19502.0254057
19493.4763522
16684.2677995
19500.5839856
19500.7083048
16742.9213801
16662.1368127
19502.0846207
19499.3600756
16680.977401
19498.7218285
19495.8197832
16636.3907857
16635.4582418
19496.1458164
19497.850739
16657.8760874
19486.9139674
19496.2138738
16654.1110323
16615.2840689
19492.8866013
19490.4846661
16592.7938143
19483.8009399
19486.8127233
16633.9445688
16588.2442629
19489.1774788
19483.1634365
16586.8068391
19490.0029444
19492.9116542
16601.4829879
16581.9645639
19493.0702419
19490.0724951
16568.1665006
19487.3901361
19487.3634594
16562.0305537
16577.0799392
19485.7736764
19488.2258819
16563.2637909
19481.0651372
19485.9535938
16618.8501915
16587.7414711
19484.666916
19482.3945575
16600.9054737
19477.4597612
19478.1558075
16554.6674867
16450.0573972
19480.8383649
19475.5401063
16537.1322754
19481.8424474
19485.9035043
16559.6005017
16571.6501195
19484.0101452
19483.4389763
16562.9305003
19478.7034553
19479.2853218
16442.8384221
16510.6907565
19478.0881804
19479.8465958
16511.3395847
19465.5220193
19474.3516665
16521.5800507
16535.9678387
19465.6087576
19472.8458081
16530.3343602
19443.8436763
19477.9574363
16053.960763
16527.8924356
19441.540318
16090.1429024
19481.7196386
19472.2142144
19478.356016
16530.9240415
16526.5037309
19477.7337946
19472.7256218
16530.634555
19454.9125115
19491.7794351
16540.0641972
16129.0639069
19455.1322144
16127.2163129
19490.7166894
19510.6802974
19503.4487499
17002.3557605
17011.2642494
19507.7999284
17059.6949839
19506.4831263
19514.9215397
19514.9592798
17029.2273107
17121.0739654
19511.8544062
19518.3320155
17097.5002147
19514.9993415
19513.5318194
17079.4697524
17164.9631876
19517.3472424
17118.7503907
19510.5054378
19518.5758956
19524.3092991
17184.3396709
17216.7438085
19521.4156555
19521.3149425
17158.9846764
19521.6479171
19516.9552488
17108.800641
17144.3656716
19518.7140544
19520.2228211
17183.7702332
19521.9445141
19518.477686
17103.4017769
17180.8327056
19519.2708724
19521.5080033
17184.764964
19524.2836187
19525.9748671
17204.463724
17293.4068361
19523.2889398
19526.4720414
17240.0224357
19524.361693
19526.7753153
17236.3206539
17307.8808382
19523.9628517
19526.7774321
17241.7364374
19518.8998605
19516.7343498
17087.2155398
17171.9817412
19515.5126066
19520.0265946
17164.6720147
19518.553193
19514.8803157
17081.5765006
17138.7562773
19515.1801332
19518.429933
17159.1654873
19522.2048678
19526.3134513
17226.2428091
17283.3146197
19523.1111231
19525.5184704
17217.0408783
19522.0132373
19523.5749651
17169.9062817
17251.9536172
19521.3163361
19524.6187031
17197.5265439
19517.960202
19514.5632574
17078.4525215
17133.4906918
19514.5376874
19518.3927776
17121.6671829
19517.8283569
19514.9475118
17093.0684646
17118.7894162
19514.9687295
19517.4369254
17124.7885539
19520.9318366
19523.0081892
17147.3822017
17155.4225455
19521.0303768
19522.4923177
17124.078906
19520.9490472
19522.1350681
17132.1262398
17158.5427447
19520.7343605
19522.3736113