/*--------------------------------*- C++ -*----------------------------------*\
| =========                 |                                                 |
| \\      /  F ield         | OpenFOAM: The Open Source CFD Toolbox           |
|  \\    /   O peration     | Version:  v1906                                 |
|   \\  /    A nd           | Web:      www.OpenFOAM.com                      |
|    \\/     M anipulation  |                                                 |
\*---------------------------------------------------------------------------*/
FoamFile
{
    version     2.0;
    format      ascii;
    class       volScalarField;
    location    "14.6";
    object      alpha.water;
}
// * * * * * * * * * * * * * * * * * * * * * * * * * * * * * * * * * * * * * //

dimensions      [0 0 0 0 0 0 0];


internalField   nonuniform List<scalar> 
28582
(
0.999992602856
0.999973923684
0.99998187888
0.999983297724
0.999993878321
0.999994854593
0.999977639147
0.999979640845
0.0550496427948
0.0583692498468
-3.87729848505e-28
0.999977784491
0.846315780697
0.843601553244
0.999981126323
0.999971547301
0.843092354982
0.997782187234
0.997365592259
0.999992725402
0.999961254283
0.999975869234
0.999981794377
0.99997917152
0.999979764306
0.999993932478
0.99999524256
0.999982095506
0.999982439085
0.0598938219969
-5.38098610301e-44
-4.69912730822e-29
0.999978745584
0.999975768601
0.849632524807
0.840846683236
0.998476999836
0.999981611533
0.999972252502
0.999971996005
0.997660649756
0.834005148786
0.997178555144
0.996947249896
0.0559612559587
0.0578841080899
0.000255510576725
0.00029125373542
0.0569974934614
0.000170977574203
0.998261317917
0.998170123589
0.844143615952
0.847973860053
0.998326773427
0.845905815488
0.998095116586
0.998001039627
0.997853534836
0.84362868071
0.845113430429
0.99790458532
0.845155768203
0.997917034202
0.997891282615
0.99788033855
0.842532797787
0.844418372382
0.997903950532
0.843366705714
0.997926136722
0.997888675422
0.839252112822
0.839195660136
0.997861478583
0.841101803394
0.841533054995
0.997921839525
0.99726100804
0.839432922509
0.839017904639
0.997525938792
0.840853615991
0.997432697593
0.841074433885
0.0551927599377
0.00013706730006
0.0552552296479
0.0564506154265
0.000184888838431
0.000221283361086
0.0592492761359
0.000271590571264
0.00032214670855
0.0606785933929
0.000263434744937
0.0614123317688
0.000261798061536
0.998390662599
0.998562343158
0.84721804418
0.852639203005
0.998281718103
0.998608146536
0.850075522788
0.998121906032
0.997647111033
0.844127589001
0.84302911449
0.997965854413
0.997817696302
0.846654466746
0.849993167405
0.846370064864
0.998287407727
0.998390470789
0.844866347734
0.998166347195
0.848448700014
0.997821064646
0.837367781382
0.837215545935
0.997506843777
0.835915092649
0.997751392073
0.835332155312
0.997407667767
0.99760615512
0.835088378105
0.834655029337
0.997676011617
0.99740651354
0.834660789538
0.996957718128
0.997076463915
0.838205907056
0.837857211404
0.837357181071
0.997030130547
0.837164555764
0.837017911139
0.836901987096
0.996965074291
0.997010313047
0.836424368509
0.997020576262
0.836734115909
0.999996083513
0.999979950961
0.0627981265829
-8.08588541312e-28
0.999974554667
0.844100550799
0.999971254317
0.999970380837
0.833277320414
0.836795323252
0.835983640632
0.999970153372
0.999970049266
0.835240716179
0.835157818579
0.0561661695652
0.0621447794194
0.0633994656618
0.000233457830702
0.000238751676503
0.000198364794752
0.0642488842352
0.0645183374091
0.997752389696
0.998102188436
0.84240554738
0.842224177291
0.99795275325
0.840586475769
0.997935291145
0.997438007116
0.997559714665
0.832524429224
0.834727101532
0.997557165228
0.997417892377
0.834647449138
0.997123290248
0.997017366493
0.836136401572
0.836507181257
0.99705926559
0.835699790813
0.99707431357
0.997128036634
0.997023043368
0.835108527377
0.836301931358
0.997085391516
0.835525472722
0.997073381575
0.996829811928
0.996896578849
0.834386084046
0.834771899553
0.996978825527
0.833659818325
0.996681825268
0.996605176423
0.99615450866
0.833863168409
0.83483020956
0.996309319449
0.833696942835
0.996388754619
0.999979144777
0.999980949737
0.999965635593
0.99997003157
0.0452016844366
0.049241729189
0.045860138943
0.0496698282491
0.0495740050267
6.10272849294e-06
1.88985069102e-05
3.46487611702e-06
2.31089261494e-06
2.76943691268e-07
3.12203552637e-06
0.999986621876
0.999990595124
0.898441873141
0.893288593459
1
0.891850341861
0.999986502405
0.999990202548
0.89022037099
0.885275414379
0.999968548791
0.999982002697
0.999967180365
0.888717106965
0.875231839025
0.883654537728
0.872759963081
0.999950684108
0.999941099887
0.867881576233
0.847234684586
0.867391675005
0.85002862859
0.999969596523
0.99997443366
0.882524613281
0.871992754139
0.869410793008
0.999961620352
0.99996699867
0.999966251333
0.866909281658
0.849524708465
0.864922157524
0.850599769244
0.86417375374
0.851133345496
0.0408831208015
0.0422698946335
0.0443357418194
0.00015101321486
0.000420915702074
0.000133582450361
0.000359045201413
0.000593827236934
0.000671761012134
0.000657597342232
0.000737084182283
0.0436149134901
0.0443406957729
0.0471604321348
0.0455229373864
0.0473823280567
0.000191664463446
0.000320543428186
0.000138945682999
0.000223306843545
0.0511927928821
0.0493310030826
0.0512178587087
0.000524366362355
0.00081987259493
0.000380351675542
0.000737060707441
0.0476928760571
0.0478513689917
6.86274196145e-05
9.0743719815e-05
0.000103121910168
0.0515836280094
0.0497967943488
0.051632060881
0.00018129430993
0.000483516423361
0.000134801128681
0.000232279980626
0.999428350121
0.999387706345
0.89879647266
0.897797481644
0.999379637007
0.898170062352
0.999431801243
0.999381265899
0.999250174295
0.895850719301
0.893712101574
0.999314955918
0.999354014354
0.896333344596
0.998950243553
0.999058299639
0.894634474197
0.8889048138
0.99917437767
0.9987649709
0.892218749424
0.99934890957
0.999197885276
0.89092485238
0.888463026597
0.999339795767
0.999199578817
0.889361809583
0.999206500405
0.999046103585
0.886618461199
0.885790500645
0.999081168017
0.999163042712
0.887327039599
0.998518361987
0.99896426956
0.885799084169
0.886645608605
0.998577591088
0.99893895268
0.883358769986
0.998067534875
0.99772213171
0.881252128483
0.873297007554
0.998144876109
0.997596056625
0.878904283318
0.998438449353
0.998819522797
0.884973468766
0.880855274519
0.998841086673
0.998442610122
0.882026198896
0.997999466371
0.997582554148
0.873279335982
0.877121449552
0.997551866031
0.998003192183
0.878102478853
0.997062372199
0.997451484206
0.859914794827
0.866701060125
0.997231294185
0.99726930046
0.859630142852
0.996828506731
0.997120500941
0.853261025817
0.847679684939
0.997049326347
0.853469351493
0.996879652917
0.997029072899
0.997303319306
0.867370740685
0.861659417126
0.997250800791
0.997112310971
0.860781038798
0.996822415465
0.996847418373
0.848541045061
0.855563894673
0.996913326954
0.854466175604
0.996742343447
0.998375098893
0.998774710756
0.879763255292
0.881266444164
0.998398079503
0.998741369977
0.878686622237
0.997969034779
0.997589146977
0.87611412051
0.871352418998
0.997972603963
0.997615303019
0.875253081644
0.997883907295
0.997552722301
0.870479711243
0.8730029816
0.997583780439
0.997852598329
0.874216767825
0.997264487517
0.997364668275
0.861450392204
0.866530266471
0.997201800516
0.997392654168
0.861490852996
0.997168459101
0.997020271667
0.855410434041
0.850232553223
0.997066349386
0.855770592368
0.997153788216
0.997313941183
0.997391941609
0.865841001558
0.860425649864
0.997417945629
0.99729527104
0.861089281012
0.997268490336
0.997310995753
0.850329164497
0.8553896802
0.997272979949
0.855719644077
0.997279971875
0.997060171508
0.99721165222
0.859973962524
0.862654169128
0.997157192833
0.997064378341
0.858831846367
0.997267776598
0.855419500367
0.99717670748
0.99997652404
0.999968776014
0.999977859544
0.999992202118
0.999994274706
0.999984850395
0.999988096153
0.999987942618
0.999987179454
0.999988642069
0.999993869459
0.999987525671
0.999826255637
0.999904201132
0.999984508744
0.999961906691
0.99992201389
0.99994837803
0.99997851911
0.999961780116
0.999967951092
0.999979794111
0.999929870065
0.99993410753
0.999972035601
0.999990617351
0.999991272245
0.999988114568
0.999985017606
0.999976337282
0.999968819375
0.999977451507
0.999989512733
0.999993926282
0.999995366876
0.999992618668
0.999992568806
0.999982212177
0.999968700736
0.999973611271
0.999989952614
0.999997447112
0.999997494586
0.99999215099
0.999991772871
0.999997434054
0.999996931427
0.999990537872
0.999548080445
0.999968488591
0.999990413386
0.999938330305
0.999848288133
0.999864434818
0.999903168587
0.999949875047
0.999637064248
0.999847750103
0.999981241302
0.999969161174
0.999914167018
0.999922029056
0.999951581751
0.999961521082
0.999930411953
0.999967920461
0.999992218679
0.999990789319
0.999974835884
0.999961867465
0.999971918282
0.999987918639
0.999987068836
0.999986916479
0.999988317253
0.999991276109
0.999994807428
0.999995007643
0.999994824173
0.999993790341
0.99999004163
0.999995437892
0.999997531637
0.999995038209
0.999416176103
0.99996715306
1.00000226727
0.999951173709
0.999790426516
0.999840971956
0.999929478749
0.999975765302
0.999518589498
0.999931805781
0.999999245125
0.999993736812
0.999945762351
0.999901394202
0.99993501006
0.999984841006
0.99997407163
0.999987148191
0.999994673823
0.999997348751
0.999997636658
0.999997651909
0.999996894621
0.999997327641
0.999996640843
0.999995784276
0.999996295205
0.999997679478
0.999999113852
0.999999169873
0.999999006808
0.999998230605
0.999998533784
0.999994721472
0.999996111591
0.999997977437
0.999999082416
0.999999182583
0.999998958548
0.999999450099
0.999995907271
0.999996038946
0.999996794088
0.999594485397
0.999923772169
1.00000738016
1.00000015466
0.999898721436
0.999811462554
0.999923683325
0.999953335782
0.999953653744
0.999945117096
0.999960324322
0.999969780186
0.999964303342
0.999951018885
0.999954003892
0.999960523737
0.999944476131
0.999962123331
0.999967027183
0.999964478474
0.999947357173
0.999935655503
0.999946736509
0.999973118487
0.999976851487
0.999966712997
0.999945732371
0.999973139254
0.999967557122
0.999955068095
0.999955542042
0.999981243257
0.999986101818
0.999977814806
0.999953939283
0.999934695891
0.999973923534
0.999977654569
0.999984493183
0.999978793594
0.99996861162
0.999942007129
0.999939920416
0.999972117272
0.999964391878
0.999967108322
0.0562651022467
0.0587094176244
0.0618067737686
0.0637114147005
0.0667731904773
0.0673770554902
0.0667634012122
0.0666828432324
0.0528978415995
0.0548567038311
0.0577175757593
0.0612064087972
0.0647138415835
0.0657394737158
0.0663723545285
0.0651937766914
0.064977356998
0.0639317329309
0.0526683507945
0.0571288904494
0.0603068562675
0.0639379228525
0.0656495337375
0.0653533326396
0.0611085220571
0.0624489586919
0.0634829673657
0.062997067899
0.0559515566948
0.0588453154221
0.0618618271734
0.0628926862292
0.0619508400777
0.0613171008983
0.0623545052446
0.0633897820033
0.063612760724
0.0575584811317
0.0592701841608
0.0602930834036
0.0628053959205
0.0640197427561
0.0650345745769
0.0643684484528
0.0646065265714
0.0651072020282
0.0639219574915
-2.02476120315e-24
1.62016761766e-05
5.59083814809e-05
2.81161580116e-05
1.09398545714e-26
2.64350292386e-28
-6.13838523138e-27
-8.38057682262e-29
-1.60818815771e-27
1.91297440806e-05
3.70542745651e-05
6.70707707021e-05
3.71419643159e-05
-1.8143811887e-26
8.47457535085e-25
5.73184468014e-05
-3.23978413324e-27
-4.16285051189e-26
-7.67375830926e-26
2.29699502699e-05
6.61478827678e-05
-3.92932228439e-25
-2.20777706607e-24
-4.84341269006e-27
-5.32658740143e-28
-3.42283324022e-26
2.73962436411e-05
-4.44915598473e-25
-2.13264956606e-24
3.01188622456e-05
-9.22514859348e-30
-7.5117413893e-29
-7.09822907807e-28
-5.98460699047e-27
-3.36010614754e-25
-2.90184707955e-24
-5.73841831373e-25
-1.47010241745e-24
3.31153456216e-05
4.90600266322e-25
-1.66228164745e-27
3.76384947479e-05
-1.13667537088e-26
-3.80301506082e-26
-2.29234591879e-25
3.67002579337e-05
-7.26808938278e-28
-5.0374316062e-26
3.40838524805e-05
0.999789356309
0.99995561803
0.999959264484
0.999476313739
0.999759744888
0.999706801306
0.999750292868
0.999980290253
0.999970141823
0.999959563587
0.99993074444
0.999983146129
0.999871897974
0.999963484555
0.999978327272
0.999948731465
0.999948714207
0.999936673836
0.999947941674
0.999982872323
0.999985008139
0.999959135442
0.999977230139
0.999963272022
0.999956729393
0.999930060215
0.999978481612
0.999934478362
0.999791011495
0.999275511935
0.999664846093
0.999275511935
0.999676429476
0.999276876981
0.99959307167
0.99999290612
0.999930977157
0.999984978952
0.999947641951
0.999991934389
0.9999286391
0.999986490057
0.999658604189
0.999923779751
0.999941891819
0.999338717058
0.999606482012
0.999717893296
0.999766903485
0.999957134386
0.999939614109
0.999932160588
0.99988944044
0.999973722746
0.999910219342
0.999981289252
0.99971976365
0.999523624357
0.999774481942
0.999424063046
0.999793972632
0.999549402974
0.999840168061
0.999995093352
0.999952748451
0.999992382857
0.999982545822
1.00000700119
0.999977701725
1.00000590685
0.999715021939
0.999819183703
0.99985264665
0.999703663269
0.999849475419
0.999932930309
0.9999461805
0.999987912407
0.999941230234
0.99999046884
0.999965211816
0.999996098725
0.999975718763
0.999993448284
0.999675602244
0.999716262433
0.83463556417
0.832626423538
0.999709570017
0.999761990677
0.999850500905
0.834195074233
0.834111953239
0.832391325468
0.834344537045
0.999995996884
0.999949157907
0.999996069226
0.834482291429
0.839902436393
0.834789349585
0.836909104349
1.0000048771
0.9999976197
0.999999513156
0.841377590227
0.843482499668
0.837082392558
0.836349574071
0.999973861833
0.999996171936
0.99998426483
0.842602010189
0.834366960439
0.834279977308
0.829074291915
0.999810216422
0.999940193911
0.999884335778
0.831451266312
0.823797255225
0.828499845394
0.827562333835
0.999855958171
0.999873055826
0.999890157195
0.822562034565
0.824581091155
0.826756731228
0.826742936998
0.999963865813
0.999947471893
0.999964518688
0.825820105661
0.832029283513
0.8264690051
0.824806236354
0.999752386914
0.999958895243
0.999919015856
0.842397818199
0.82496615155
0.832794901025
0.816925672606
0.999939209563
0.999942148784
0.844457209424
0.838646190124
0.846800881763
0.839128815244
0.999943231665
0.999943931656
0.999949850836
0.837512032985
0.83203048585
0.83594796651
0.828111446258
0.999949932106
0.999951728453
0.999951982001
0.831501240667
0.832472627662
0.827090260366
0.82622032011
0.999967951535
0.999949116393
0.999943249693
0.832747402123
0.835029440206
0.826403218638
0.829069803071
0.999967676044
0.999938929616
0.999942205741
0.835578245699
0.834303818883
0.82941206689
0.829356165523
0.999956874624
0.999943234031
0.999949568417
0.833135189537
0.82993139389
0.830397059047
0.835019720111
0.999951340129
0.999958810062
0.999968206458
0.829202500181
0.829226187577
0.836289695505
0.838886967224
0.999955843004
0.999974602434
0.999975022808
0.828597145537
0.827518312828
0.838385470884
0.833519586714
0.999960562771
0.999974859735
0.999973069989
0.826926096237
0.823415719409
0.831070338171
0.826222947699
0.999949985907
0.999964442975
0.999970019174
0.830930442715
0.821826593956
0.83381443667
0.827002294759
0.99996373646
0.999967784163
0.999970684571
0.846028448558
0.837182185863
0.847175093519
0.837836679073
0.999966406083
0.999971576705
0.999970838003
0.834265628834
0.82741605138
0.835427669095
0.831226638981
0.999959054635
0.999967264427
0.999960164374
0.826220611386
0.824579202489
0.829951887619
0.82610655353
0.999936284337
0.999947363989
0.999939198837
0.824795250082
0.827417832086
0.825928418763
0.828127081936
0.999937168951
0.999937653182
0.999943229987
0.828274645628
0.830672430857
0.829647636885
0.835593526448
0.999961021051
0.999956200333
0.999969753003
0.8310055822
0.836359734317
0.837086419641
0.840475393945
0.999978490938
0.999978199744
0.999979163962
0.839898733461
0.842233063935
0.84250344787
0.843306235903
0.999972775719
0.999976507201
0.999969160638
0.840819282717
0.834261871706
0.840906235954
0.836059592228
0.999959903529
0.999960122773
0.999947624139
0.83190818785
0.82784964326
0.835057905506
0.831758949559
0.999958085436
0.999943285217
0.999959310646
0.835353925831
0.828377651479
0.838272657336
0.827694641586
0.848083759233
0.839448219704
0.999969906387
0.999979096287
0.837601562805
0.834011380179
0.847882612193
0.999959143887
0.999971215441
0.999963382311
0.832805923092
0.828099348066
0.846487546712
0.83850520893
0.99995071329
0.999955940384
0.999956551602
0.827430768942
0.829093535537
0.836811376935
0.836313402138
0.999966458523
0.999961937603
0.999974245486
0.830680590596
0.837098248903
0.836837921992
0.837536728445
0.999985940548
0.999984961635
0.999987002716
0.838511179019
0.839936606251
0.837655545505
0.836005195941
0.9999843255
0.999985588368
0.999981434232
0.839633243121
0.839390579584
0.834978955266
0.834098548714
0.99996875611
0.999972583431
0.999960153442
0.839222545746
0.837014097793
0.834480710672
0.833203887501
0.999939087004
0.999943628872
0.999934610587
0.835863388162
0.831572507053
0.832905089935
0.829186846348
0.999955059901
0.999936689925
0.999962394557
0.838156981669
0.826829108978
0.836097921213
0.824871557747
0.999973320665
0.999975404221
0.838604178555
0.83743303106
0.841678985021
0.999981771804
0.999978827623
0.999984323935
0.837602222482
0.837678318464
0.84132491222
0.838371210834
0.999982397083
0.999985414264
0.999984015201
0.838038589341
0.834733648555
0.83843652367
0.832614880231
0.999974610774
0.999981213628
0.999979606938
0.833513791901
0.832724563897
0.831846911484
0.831873113711
0.999958448318
0.999975720358
0.999969819997
0.832933533171
0.832113712791
0.831844975456
0.831261662582
0.999938084613
0.999956557036
0.999948123979
0.832491213505
0.828847108229
0.832037508086
0.830570099316
0.999967829451
0.999950213953
0.999973337598
0.835936095231
0.824563728736
0.837633435796
0.82781558731
0.99997616492
0.832831264868
0.999968316861
0.832639649103
0.83193963697
0.999964735345
0.83277044858
0.831343705634
0.999983526533
0.838274624304
0.829124598512
0.000299653168956
0.000233831751241
0.000370247203392
0.000314043371192
0.0548453343954
0.0557427540318
0.00037615717614
0.00034147364868
0.000591310054261
0.000666780333969
0.0572290873447
0.0565689187297
0.0577133629123
0.000478998716686
0.000599143816414
0.00113715834515
0.00117894113867
0.0606164784696
0.0593681046386
0.0614460706149
0.000826253428301
0.000426808977024
0.000757277458086
0.000469947291838
0.0623176324903
0.0629923449938
0.0638109356175
0.000284553756579
0.00030899276818
0.000355535852382
0.00047538299716
0.0657897425623
0.0658234618578
0.0671819616878
0.000226933848988
0.000418840144041
0.000505486143959
0.000533120204562
0.0671401202511
0.0670602160095
0.0666251034146
0.000544759468043
0.00062473008164
0.000542981965268
0.000525411731429
0.0672004688444
0.0665484172728
0.0662441525668
0.000581160647853
0.000490458150994
0.000476569695986
0.000398190909218
0.0654648721172
0.0658422489262
0.0655123801702
0.000396679899942
0.000193697872697
0.000312214806444
0.000190664916517
0.0741096801942
0.0640113818426
0.0694902932398
0.000146417755018
0.000122268828601
0.000153329070293
0.000371705020704
0.054299832633
0.0526279291059
0.0544221585525
0.00102333681405
0.00104485555651
0.00112218655915
0.000935718250631
0.0560247653197
0.0561009277405
0.0574622861027
0.00119667308027
0.00120409369516
0.000848252220313
0.000865550505409
0.0592302653911
0.0593499712593
0.0612984575068
0.00120750717193
0.00094499789533
0.00080875899252
0.000686320882474
0.0632919547113
0.0629756505134
0.064590142093
0.000377642537854
0.000264636028928
0.000395165488227
0.000333544984315
0.0657618451699
0.0659062069831
0.0665836615125
0.000226014389589
0.00044743084432
0.000295623281641
0.000465859904664
0.0663472828629
0.0654321369824
0.0645590532752
0.00150818666218
0.00110619654831
0.00136241262072
0.00110680288096
0.0654269968446
0.0644016848514
0.0636762964617
0.000504672035211
0.00043175979716
0.00042207612728
0.000231396726146
0.0650565913318
0.0636151325326
0.0637805167821
0.000360693670994
0.000313076495641
0.000185442911108
0.000194098763024
0.065403836798
0.0640885490573
0.0648465284383
0.000247712413199
0.000180329869011
0.000178214451492
0.000143345011523
0.0699584133425
0.0634467182157
0.069134375014
0.000169534373672
0.000339853359148
0.000162650931214
0.000312741676868
0.0550633153976
0.0526324179337
0.0548125714762
0.00110345335225
0.00069313369154
0.000835206485503
0.000654059007694
0.0585221328697
0.0567887241389
0.0583603725205
0.000373446699398
0.000404832830645
0.000338758872839
0.000369713308905
0.062460594463
0.0600650961806
0.0620488564069
0.000442073998979
0.00046194966594
0.000436016205689
0.000498020648448
0.0649148117585
0.0635845262231
0.0644255204929
0.000464542757655
0.000450065509463
0.000546978216032
0.000557377999224
0.0658388130966
0.0646444571863
0.0643084560418
0.000461870378759
0.000530612578115
0.000542282026383
0.000486756312785
0.0634186685772
0.0633944091127
0.0618227237001
0.000531774400818
0.000402849721309
0.000373984899622
0.000342688163582
0.0611767809567
0.0597757602084
0.0599862435353
0.000685263509218
0.000577555391197
0.000794103161627
0.00096167813376
0.0629803293512
0.0618020926545
0.0627699048917
0.000244650553361
0.000154547254118
0.000432754929148
0.000143250325536
0.0642366906192
0.0631641896397
0.0640509306528
0.000139993466032
0.000132116378743
0.000110257206317
0.000112809793878
0.0684560255309
0.0630806434512
0.0680066423226
0.000173950159117
0.000344640363201
0.000168425764075
0.000406527621805
0.0572641738014
0.0556280790582
0.000282560938687
0.000345095247929
0.000227594309889
0.060533238343
0.0568550733083
0.0582122644825
0.000423784911492
0.000501669400071
0.000305014517654
0.000357541163651
0.0626401989181
0.0593375622487
0.0601287852324
0.000558471946582
0.000551292088466
0.00038875326359
0.000388101033518
0.0625914475637
0.0606843513051
0.0611268769963
0.000507733631441
0.000435394641041
0.000376887523653
0.000387555834038
0.0613038749351
0.0613996845387
0.061581232475
0.000345322772717
0.000310871953827
0.000360064930935
0.00031110220264
0.0618062697178
0.0620291455579
0.0625293502738
0.000271182462732
0.000265087120599
0.000243454239907
0.00021595245782
0.0627948647802
0.0631756074015
0.0637022591501
0.000235496200648
0.000179228186031
0.000201994558629
0.000207155836596
0.0645545589582
0.0642964760323
0.0655556834517
0.000143938279571
0.000135033977459
0.000192251562236
0.000197484880974
0.067743883777
0.0641199462059
0.0676911807548
0.000185542504496
0.000458128526781
0.000257713409428
0.000500378880614
0.0583940924851
0.0571574428343
0.000230774329915
0.000208846884153
0.000134465394204
0.00012424347289
0.0599830486831
0.0582615020861
0.0591988174483
0.000229337096811
0.000440280785817
0.000132695974426
0.000426297733205
0.0616724315097
0.0593633044383
0.0615274766372
0.000740175998624
0.000520838695625
0.00108884038042
0.000543161683605
0.0633092763046
0.0631661387941
0.0639265529828
0.000310317001777
0.000280890801798
0.000237678463251
0.000246929448517
0.064711179728
0.0646162796906
0.0652746168575
0.00025648489123
0.000263671468416
0.000246850912175
0.000262662471791
0.0661987970992
0.0653277568803
0.0662757582059
0.000227418658423
0.000238338918792
0.000220442018641
0.000226954686011
0.0676226936609
0.0641655065449
0.0676304548383
0.000306941902214
0.00053502550433
0.000294489587854
0.000538058542648
0.063845087664
0.000228841085416
0.0651368373554
0.000227823680086
0.000241736798904
0.00017956221847
0.000175316394055
0.0660002061339
0.000197881418394
0.000203010344853
0.000142522644978
0.000135804275329
0.0675879513901
0.000257587826711
0.000513137408617
0.000172302649051
0.000492076311217
0.998957655775
0.998999010881
0.834904625122
0.834836554312
0.998871089962
0.835289821089
0.999041496072
0.99861164045
0.998254216502
0.833906432457
0.834642276026
0.998527821899
0.998336328855
0.834665545423
0.9984297915
0.99884535393
0.833315677313
0.834542639563
0.998688712573
0.833993773626
0.998618455691
0.998169068814
0.998175680699
0.834080983036
0.834568795657
0.997943930517
0.834180191046
0.998392687992
0.998116021872
0.998083519128
0.834116313076
0.832639513142
0.998339744977
0.997905662449
0.834098512712
0.997950852294
0.997771651871
0.834809283883
0.833582582403
0.997865922138
0.997796348397
0.834391597401
0.99751170224
0.997893926569
0.835673002894
0.835237362943
0.997693487678
0.836540535721
0.997651914619
0.997491640349
0.997624847643
0.837483355831
0.839967644271
0.997513048885
0.838143658973
0.997604708163
0.997750374593
0.997763207115
0.835406490983
0.835437561182
0.997808725527
0.9977596088
0.836475592324
0.997732434536
0.997658955953
0.838927313626
0.836085863329
0.99773486811
0.997732563891
0.837557590918
0.997559737595
0.997648040037
0.842529159919
0.840976560308
0.997557278755
0.842182061137
0.997639978184
0.997529543961
0.997404155368
0.843609564359
0.842540429911
0.997421702994
0.842842640015
0.997586320289
0.997699717886
0.997582506521
0.839562261762
0.83729623889
0.997722069174
0.997525734598
0.840497235522
0.997642702396
0.997381586653
0.83972523656
0.837087652065
0.997508789324
0.997485815533
0.84043199857
0.996515524395
0.9969857668
0.84085035752
0.841273757504
0.997113833816
0.83852142145
0.996310110328
0.995911410922
0.995138163569
0.838187722133
0.831776481866
0.995391318232
0.835168660282
0.995665933643
0.996738337484
0.997117585184
0.837738074527
0.830890700151
0.997198868898
0.996675857877
0.833916129754
0.996313449996
0.995802126309
0.829535858176
0.829767883486
0.99589378827
0.996196625017
0.831669134431
0.995194478643
0.995018889306
0.828466683714
0.829348472969
0.995195135501
0.827630235749
0.995043679397
0.995395608824
0.995977392502
0.826080663649
0.824268001697
0.995968345379
0.825889564592
0.995338713733
0.995695086563
0.995652716782
0.828476302679
0.828538538127
0.99570181361
0.995666566229
0.827661459642
0.995843907187
0.996398890432
0.825437734168
0.828084306768
0.996317658864
0.995893454946
0.826714259025
0.997015343343
0.996506184028
0.822256948717
0.822921167152
0.996573525193
0.823112484837
0.996911898813
0.997233370024
0.997272212228
0.822965111533
0.825362932102
0.99739130902
0.823901305111
0.997107838059
0.997418538639
0.996948306625
0.824092763136
0.826035757996
0.996903689879
0.997452054363
0.823762927564
0.997650260997
0.997948670675
0.825181927796
0.826264493584
0.997755454756
0.99782180323
0.824203499212
0.997587802599
0.997384383404
0.827630064063
0.825730616533
0.997464956962
0.826398192117
0.997516573772
0.997588065349
0.997670701678
0.829908675703
0.829240369615
0.997531021546
0.827797006722
0.997673925708
0.997740444209
0.997926922443
0.825517619652
0.825700916276
0.997741281161
0.997901121952
0.825872004139
0.997686012083
0.997587420458
0.82687437387
0.824520953998
0.997560987646
0.99779125434
0.826078619697
0.995984426113
0.997299221476
0.833193549112
0.836759721903
0.997140192368
0.833310927693
0.995935822876
0.992095278576
0.989305354767
0.791945808774
0.817782567484
0.811926389932
0.990497150547
0.988185094532
0.995971172301
0.997115172569
0.835339082072
0.827966192013
0.997158326747
0.995963063222
0.829314048394
0.99209571103
0.994134983362
0.805590957712
0.779626786481
0.992786649498
0.777406156688
0.993294633239
0.997144452119
0.997227267586
0.842678491413
0.845075231481
0.997404407523
0.843888431823
0.996981559672
0.997304268602
0.997654506582
0.840563679518
0.839953181968
0.997553983264
0.997415254733
0.842188093972
0.996838580717
0.99681531639
0.845149955613
0.844610931803
0.996868060879
0.843267442479
0.996761688219
0.996933686715
0.997011348418
0.839208860946
0.841981942798
0.99704011871
0.99694809817
0.841076658723
0.997546745068
0.997754583195
0.83590234408
0.838149294357
0.997777058196
0.997549391425
0.836250084722
0.997529135821
0.997700649204
0.833790990162
0.831284694134
0.997768274902
0.997461176403
0.833978308014
0.997233810448
0.997100611712
0.837069810608
0.832675568638
0.997189063419
0.997137700186
0.834762014677
0.99724643303
0.997173784166
0.830299214792
0.830231111768
0.997222520326
0.997183085614
0.832475721119
0.997291135668
0.997578560788
0.831693566761
0.830252072934
0.997462785001
0.997366810484
0.830130444334
0.997216591884
0.997316010747
0.832077599276
0.829901347674
0.997375421151
0.997149356325
0.829995811222
0.997064921883
0.997117274295
0.829356463614
0.826624691075
0.997163194126
0.997015207283
0.828822233909
0.996930479454
0.996686635541
0.827935830789
0.82611808476
0.996769288446
0.996870833421
0.827931850481
0.996973791376
0.997261487138
0.833237112816
0.830130224199
0.997207727484
0.997074824681
0.830579479648
0.99681992674
0.996966737273
0.833987865508
0.832353321797
0.997107997164
0.996629123448
0.831163724728
0.996339923076
0.996448769471
0.82823151969
0.826798325331
0.996572285931
0.996166571683
0.828685532303
0.996022794023
0.995445869885
0.830697013497
0.827628194216
0.995735372018
0.995799747292
0.829394213401
0.996404302081
0.996842217957
0.836369942087
0.833229975238
0.996761451278
0.996491584594
0.833636447637
0.996332130546
0.99650327304
0.835873897495
0.83126316459
0.996666601014
0.996267405473
0.832885857516
0.995585250736
0.995265004743
0.831502859071
0.829841200302
0.995607871133
0.995254374011
0.831935032871
0.99558924788
0.995263396193
0.830900508933
0.829483659161
0.995605159415
0.995240618644
0.83146406046
0.996050440883
0.996292704704
0.832657962013
0.830700696966
0.996129511665
0.996143837098
0.831056189779
0.995921798922
0.995706933491
0.831841773939
0.831273903768
0.99596113305
0.995712675664
0.831569055686
0.995817797379
0.995329354096
0.831336436071
0.832245374568
0.9956576666
0.995466226357
0.833169030144
0.995956723254
0.99605933876
0.833767489673
0.833852152487
0.996097494845
0.995701373195
0.834128116262
0.995659433026
0.99558322832
0.829316689077
0.831483143614
0.995599968318
0.995616787016
0.831408568821
0.995834742608
0.996096842754
0.829266981337
0.832442070006
0.995774471851
0.996120068254
0.831654765297
0.996221109522
0.996400670269
0.833742935807