/*--------------------------------*- C++ -*----------------------------------*\
| =========                 |                                                 |
| \\      /  F ield         | OpenFOAM: The Open Source CFD Toolbox           |
|  \\    /   O peration     | Version:  v1906                                 |
|   \\  /    A nd           | Web:      www.OpenFOAM.com                      |
|    \\/     M anipulation  |                                                 |
\*---------------------------------------------------------------------------*/
FoamFile
{
    version     2.0;
    format      ascii;
    class       volScalarField;
    location    "2.75";
    object      p_rgh;
}
// * * * * * * * * * * * * * * * * * * * * * * * * * * * * * * * * * * * * * //

dimensions      [1 -1 -2 0 0 0 0];


internalField   nonuniform List<scalar> 
28582
(
19560.1717542
19561.9928088
19560.498363
19562.6701164
19561.1281107
19564.2397615
19560.4219567
19564.7305548
471.705277156
531.698674076
0.0168633916768
19562.6992232
18587.6833455
18618.9468221
19566.6331519
19566.8639039
18628.6625934
19568.5540298
19568.3119868
19557.5132127
19563.4070081
19563.9192688
19557.2897656
19564.3285146
19564.8948723
19556.8493138
19566.605925
19554.7862339
19568.3835653
553.170829485
-0.000551042560246
0.0204639193032
19556.6538563
19557.4836796
18482.1642821
18481.6666836
19555.8281371
19569.9829447
19568.4794429
19570.060861
19569.5662577
18656.1329889
19569.287442
19571.3444333
487.175403446
538.776117069
0.556958674063
0.207785215495
508.597893501
0.392824615695
19559.2375964
19560.7155353
18599.8408524
18600.371583
19559.2096076
18617.7676631
19560.7020361
19562.2518941
19563.683776
18606.2615989
18632.9264457
19563.53881
18631.2219936
19562.1623924
19566.1142392
19565.0176491
18632.9120284
18635.4849274
19564.8119705
18639.7495193
19566.2961565
19568.7008643
18642.2188667
18645.7463759
19567.3734563
18636.9456049
18643.1831692
19567.5149965
19568.4481545
18634.8103359
18620.8720138
19567.1957286
18616.1472098
19567.3429166
18633.1311321
481.322720912
1.42585711393
482.914486716
488.297338166
1.26358662084
1.3392252507
560.053492877
1.2753323694
0.21483728007
576.154141673
2.41808693572
568.91919336
0.522790335916
19552.5639932
19552.6387441
18466.864146
18422.9085008
19553.0654636
19551.7378518
18437.2373816
19554.067068
19555.372468
18458.8360504
18504.8809697
19553.9585591
19555.6578032
18488.5474901
18503.4075399
18524.0425262
19557.4522994
19554.7427891
18524.1475513
19556.4403358
18498.5098606
19569.7776328
18647.8986717
18647.3706415
19570.3552024
18652.6618331
19570.6028774
18650.2426512
19571.2925509
19572.0459655
18653.7426357
18664.096798
19571.2733081
19572.2082491
18657.5395163
19570.3434237
19569.447125
18638.4929247
18625.2784609
18632.6972807
19570.212188
18644.7836834
18641.9988351
18630.9219054
19571.8078778
19571.1587261
18653.3696012
19571.8907345
18649.4818328
19567.3792705
19571.0972471
582.88114021
0.0736438677503
19559.7089304
18567.1109991
19571.0315943
19571.3046261
18661.8689363
18611.6025339
18574.6017301
19570.4081852
19567.6343683
18541.378001
18378.0017945
485.244578742
596.450470322
621.606508479
1.70101788321
3.56600453093
4.29351161643
666.484941029
729.340830547
19559.436317
19559.1499241
18532.832979
18580.4815069
19557.7296908
18555.6358303
19560.5238963
19573.1475401
19572.7607147
18663.5416076
18662.9295978
19573.3622346
19572.7737878
18651.3614279
19572.5540689
19571.9542868
18646.3166445
18601.0540831
19572.3101071
18625.2516964
19572.2333005
19572.752913
19572.7603515
18582.1341668
18590.9027187
19572.9209025
18603.8765428
19572.5182107
19571.8172467
19572.6792635
18551.5773157
18506.3339998
19572.7687197
18511.6679868
19572.2863193
19569.6872603
19567.5336376
18337.7461508
18450.8513242
19565.9730925
18438.7929973
19570.7566207
19567.8748469
19561.6530439
19559.6122411
19556.7059559
275.243576585
329.272025174
278.673257241
330.902476084
344.231906374
0.0620910365874
0.0757266717597
0.0601262602577
0.043111411272
0.0507711207625
0.0782588675032
19569.2138161
19568.1993046
19030.1025198
19061.01801
19571.3004648
19098.944621
19566.1703235
19563.6321904
19049.4735123
18977.6415682
19568.2725051
19564.4930608
19564.2472758
19082.6714503
19083.1469602
19007.5914408
18963.4339283
19561.8648173
19557.7395259
19087.4928922
18786.2042591
18955.7230166
18670.2406653
19561.2636878
19559.05818
18976.0810547
18930.6808965
18845.6494814
19556.9359851
19558.0221447
19556.266972
18923.1559351
18658.5944839
18836.5263453
18646.5757222
18809.4472559
18632.5972999
288.669693391
272.415092682
279.415600725
0.271830469291
0.794464613526
0.237676699814
0.756337235398
1.46091015373
1.73884555704
1.34529424278
1.40697001612
267.50183569
268.2684424
293.80138223
274.076033963
293.381588759
0.235137415816
0.787235852059
0.21088358512
0.766272907328
362.112802546
331.982973554
363.729888965
1.32531928206
1.21044944687
1.34655903893
1.27943174428
296.967360281
302.63944524
0.191013663437
0.726905873092
0.725430158355
362.960872061
334.436954611
360.899625687
1.35929422757
1.55935663489
1.33959019222
1.8474151881
19567.8236538
19569.9241128
18994.1146552
19069.4330484
19570.0927163
19036.8598467
19567.6698887
19567.654006
19568.795981
19071.0888289
19027.8931129
19569.7103308
19566.944384
19048.7951146
19573.3102736
19570.6153968
19090.1450155
19121.8760354
19571.4491314
19571.7473479
19136.4714111
19565.1849523
19567.6479712
19019.3982894
19032.6993128
19566.108219
19566.356331
19020.7179827
19564.0262309
19563.7050445
19010.421617
18960.3383421
19565.0684685
19562.7624554
18998.8307933
19568.2479807
19569.19903
19099.197135
19039.7632925
19570.0566389
19567.3708119
19063.7232801
19568.6413134
19570.3344094
19070.6763345
19044.2129681
19570.2107154
19567.5821357
19093.9675541
19566.5320806
19564.5162019
19016.6535882
19009.9764325
19566.0154329
19564.7034517
19038.8943277
19566.7730239
19564.1285026
19008.8671627
18973.5425061
19565.6413172
19564.4107551
19058.638929
19564.0495669
19569.3492217
18951.6429955
18906.1817418
19565.6558718
19565.4794591
18920.8797114
19561.0749053
19557.4136087
18733.3805431
18694.139805
19560.3660219
18911.6214554
19554.8386349
19562.1323351
19562.9155706
18869.0120755
18830.1119409
19563.5235287
19559.446572
18871.845067
19559.6077577
19554.3912755
18675.0171736
18631.0774558
19555.2964485
18864.6488102
19554.2890512
19561.886824
19563.0410102
18978.4641027
18928.6988136
19563.2867744
19561.4686901
18937.8590569
19561.8364816
19562.5900783
18948.6923716
18913.7137693
19562.9548864
19560.7507953
18948.1422109
19560.6266187
19559.0718365
18897.7805397
18863.543157
19559.9046222
19559.4501288
18918.8538121
19558.2660923
19561.7062883
18821.1809076
18799.4179803
19558.7117628
19559.1670481
18787.5870241
19556.6231745
19554.1812038
18639.9716071
18676.1348821
19554.8015565
18782.3794332
19553.7676484
19557.604235
19558.262335
18800.5058696
18786.7665127
19558.4624419
19556.7906781
18767.9402359
19556.3971227
19554.0280938
18694.4368943
18658.9600518
19555.2117934
18766.4770011
19554.2203792
19555.2306752
19557.4986273
18779.5570912
18728.479968
19556.3181745
19556.2263391
18691.3030074
19553.6969272
18662.6048394
19554.6845485
19559.2231923
19561.3811056
19563.0407074
19563.5175138
19562.3088357
19560.661263
19559.4886035
19562.030233
19563.8875335
19564.3063602
19562.4294292
19560.2490736
19544.8054631
19552.2053826
19557.3574184
19561.2461309
19562.823596
19562.6302536
19561.7258562
19559.5619802
19547.2217038
19554.3970849
19559.8638222
19562.3242073
19563.1109704
19562.7984075
19561.8809337
19559.6245923
19553.3159796
19556.2880463
19559.7433749
19562.1126744
19563.0802733
19562.9179498
19561.9994261
19559.7971283
19555.7163771
19557.9072069
19560.7159114
19562.7010725
19563.4384877
19563.1817311
19562.1121475
19560.1208815
19563.6642963
19563.3646276
19562.2172983
19560.3992945
19540.5642499
19548.8163838
19556.0854646
19561.1842375
19563.5287284
19563.3503674
19561.8000295
19559.1063162
19545.1497393
19551.7620755
19561.296393
19563.488905
19564.0901833
19563.5655536
19561.9666665
19559.1623488
19552.9750451
19556.5605022
19559.9897654
19562.6198406
19563.8815645
19563.6718132
19562.1899372
19559.3043393
19555.568482
19558.1247704
19561.3367766
19563.5746258
19564.420427
19564.0292117
19562.3759975
19559.6249791
19564.6645808
19564.193059
19562.3842507
19559.9292378
19535.2678432
19548.8069973
19559.0439166
19564.327652
19566.2263316
19565.3070912
19562.265217
19557.0879084
19541.8002835
19551.9426859
19561.6064624
19565.0432084
19566.3233392
19565.3949902
19562.3485414
19557.1788972
19552.7763176
19556.9976963
19561.3751827
19564.8877182
19566.3629501
19565.7187833
19562.849644
19557.3876182
19554.1547093
19555.2892598
19558.6402392
19562.752769
19565.7183343
19566.8789632
19566.1039046
19563.0976779
19557.724956
19559.983674
19563.521061
19566.2461856
19567.2210854
19566.1289714
19562.6423951
19558.0646939
19566.0506021
19562.4550629
19558.5803046
19538.513975
19550.002601
19559.240029
19565.6782028
19569.0324788
19569.7262624
19565.4544587
19558.2672379
19539.621238
19544.3439425
19552.961731
19560.6986067
19565.8377013
19568.7295423
19569.6134458
19564.7613063
19557.5718578
19554.0844829
19548.8754508
19549.9488909
19555.9530512
19561.6083739
19566.1900255
19568.9665223
19569.9898785
19565.3641947
19557.3268348
19552.7007426
19553.5392596
19557.6525393
19562.8979459
19567.0365419
19569.6870909
19570.7401071
19566.3283987
19557.6538953
19558.906371
19563.5488958
19567.5595146
19570.4353161
19571.0064432
19565.0469404
19557.6005501
19570.4631048
19563.4656321
19557.759759
517.679696464
533.128074039
568.977614136
600.793591157
619.555786288
663.168682284
792.669602419
936.114362328
379.859870571
432.27350423
490.383774493
524.123308627
561.272404454
601.123791321
620.458513642
663.249239182
799.896758133
952.142565864
380.699647489
411.711617282
452.443071791
496.798696777
537.47925997
578.092687448
607.234434684
656.782658704
791.930023916
939.764318971
396.772311066
445.246887695
492.873032176
532.05760532
566.112220295
588.245836629
635.966946821
776.176682037
917.911248107
498.83076234
532.991941501
566.360714553
584.387199669
636.409170004
780.611614635
894.083699753
666.545767003
785.904465974
856.42812445
0.000909960790525
-0.0440085667173
-0.0345600534442
-0.0302582347997
-0.0430316304665
-0.020219371316
-0.0472870281176
-0.0736163344339
0.157262585335
1.13913545649
-0.010021592501
-0.0247141926336
-0.0300899137153
-0.0343390380738
-0.0436093224333
-0.0451726248117
-0.0705990865127
-0.101270697373
0.163273853672
1.06966185877
0.0207198056003
-0.0137419016886
-0.0235013964527
-0.0253075432216
-0.000137715320786
-0.00900211403475
-0.0374940337305
-0.0507274198734
0.0948659825131
0.770263949732
-0.0233087109862
-0.029384790854
-0.00313260104613
0.0124295827517
0.00251565699193
-0.0187970866292
-0.0380371483574
0.0309849175575
0.648853829972
-0.00482857264751
-0.0103614939737
-0.0192331674798
-0.0318918111715
-0.00327605857024
0.156726427805
0.692351247964
0.0473438305202
0.143946067245
0.830049737025
19548.4189718
19545.2588675
19549.8470364
19543.0715822
19546.4308652
19543.6545074
19547.9259827
19554.5732857
19553.4363269
19556.1400424
19550.3699692
19552.9295238
19551.514428
19554.767915
19551.2731034
19549.4402281
19552.2174277
19546.3561839
19550.3001408
19548.8277108
19551.8027456
19556.3829355
19554.8683874
19556.9822464
19553.5440655
19555.9061842
19554.5559144
19556.9056752
19544.0635358
19541.3358578
19544.9118715
19536.6880573
19543.1599838
19538.4945283
19543.3934899
19552.3320184
19548.943406
19553.7901988
19548.7902226
19552.0826079
19548.9080786
19553.2541541
19548.649695
19548.4777516
19551.3628625
19541.871879
19546.2063314
19547.7063656
19550.55717
19555.102261
19553.9349185
19557.1160715
19551.3558625
19554.8029
19553.6960749
19556.5832918
19543.2217744
19538.7253686
19544.4344866
19537.188611
19544.0003492
19539.2432319
19545.3636368
19552.6586095
19549.6008814
19554.0805438
19549.8062966
19553.5277239
19550.4630686
19555.5041735
19546.8908895
19547.217728
19550.5010324
19543.5022208
19548.0708506
19547.1253447
19550.9469557
19555.2434566
19554.0263929
19556.740205
19552.5651688
19556.5657471
19554.5355873
19557.962735
19532.0948508
19537.1435949
18162.3343152
18240.6039714
19544.7200183
19541.5421878
19546.39804
18186.1787316
18288.4038147
18257.1610509
18329.6336463
19554.8779904
19551.0910399
19555.7161569
18319.6712004
18423.1068918
18356.4681886
18429.6850179
19562.7886855
19559.8052787
19563.120613
18442.7815346
18472.028047
18449.7953083
18478.343046
19567.8673354
19565.6072118
19567.5917878
18496.4110742
18539.2639804
18489.8347442
18531.8657906
19569.6658588
19568.7798395
19569.4658417
18543.2700282
18508.9490404
18537.580932
18525.1571621
19568.4780694
19569.5650292
19568.1105086
18503.8399416
18445.3536366
18522.7571274
18411.3911774
19561.2758647
19564.9755678
19560.9295641
18340.6134371
17764.0190594
18273.2670409
17702.6418778
19556.5462363
19557.932679
19556.789209
17649.7999099
17463.4022532
17593.6342607
17428.770802
19553.4216275
19548.5422162
18784.8592099
18321.9311444
18685.4319156
18455.6903354
19540.6386463
19544.8512589
19544.3762217
18367.4461855
18276.6457298
18475.599276
18409.3754442
19548.7037638
19547.1083582
19550.9773724
18285.6161832
18345.1297774
18405.5853329
18430.3391848
19557.052879
19554.7301709
19557.9998952
18368.7622098
18439.5341725
18443.6929105
18488.1737318
19563.6052339
19561.1613837
19563.7631186
18454.1302281
18485.2379199
18491.4101396
18521.0657257
19567.5902238
19565.9536093
19567.5450082
18495.0675751
18531.6854356
18524.5483083
18533.6051672
19569.5279183
19568.6966466
19569.5033258
18536.3968455
18527.3017171
18535.8946038
18528.7229504
19568.0742791
19569.7200676
19568.2048519
18526.8037311
18408.0551382
18527.5003658
18408.3156833
19560.7223699
19564.9108813
19560.604644
18263.9557601
17707.2876478
18273.2256944
17711.5030218
19556.4770578
19557.3046716
19556.1269674
17604.6378653
17416.6385004
17607.9420891
17413.9636732
19551.1038583
19554.3174307
19552.4568466
18679.5600659
18486.6872319
18666.3527032
18578.3278728
19548.3508324
19551.3799536
19551.1600276
18503.0227031
18449.0151673
18581.0800456
18534.5508098
19552.8925327
19552.1606542
19554.33911
18442.5045369
18459.9593859
18515.7890971
18521.1666749
19558.9225249
19556.9325965
19559.758614
18467.652279
18505.5994722
18518.9701021
18559.8643674
19564.1500753
19562.3144888
19564.7164888
18507.454255
18533.7639573
18561.5101525
18574.5972098
19567.81631
19566.7157088
19568.2427998
18536.8361606
18544.3835709
18575.4983953
18580.3607446
19569.8360134
19569.4460007
19570.19842
18544.3104341
18535.3900211
18577.9039795
18564.1277222
19568.5796577
19570.4428792
19569.1568781
18536.1570258
18436.6622785
18560.7712633
18494.7451622
19560.8578092
19566.07121
19561.2971838
18304.8507892
17721.0027028
18394.6134079
17805.9841818
19555.8388228
19557.6375732
19555.9260194
17605.1801903
17421.9574423
17663.7386429
17401.6394071
18655.9765783
18582.5845167
19552.7844542
19553.5355
18592.6147783
18545.6474479
18503.4535044
19555.3276166
19554.4505989
19556.0765394
18524.9000597
18523.6284996
18502.124364
18487.9448072
19560.4151306
19558.3550945
19560.9211411
18524.438494
18560.6047561
18516.6335238
18542.2349357
19565.1857803
19563.2937598
19565.4937315
18564.3693686
18581.5422433
18556.7397591
18580.9174881
19568.540376
19567.2819921
19568.7788858
18586.3316983
18592.2268207
18589.3821938
18611.2078677
19570.5548159
19570.0158008
19570.9643096
18591.6489338
18578.0846964
18619.1597875
18615.5575221
19569.4869637
19571.0383237
19569.3946936
18576.8207836
18523.0780466
18613.8156813
18509.171264
19561.5117767
19566.027687
19561.2634608
18420.6826446
17812.5606409
18374.5271764
17777.1557797
19556.021107
19557.7050605
19556.6473272
17664.9498755
17404.2723
17673.0611832
17478.8687788
19561.3519572
19562.0814075
18517.6642201
18545.4749751
18601.67479
19565.6919409
19564.2374888
19566.3207384
18558.4069158
18580.6692625
18612.2349798
18630.3203283
19569.1710133
19568.130363
19569.6808843
18591.0011258
18613.7023144
18642.1854806
18651.1599964
19571.3346389
19570.93511
19571.5467724
18624.870906
18625.6337815
18657.2233832
18640.4150189
19568.8534788
19570.8031822
19568.085546
18624.7284775
18476.9751582
18609.3603015
18334.2243292
19560.6483038
19563.9928001
19560.0188313
18329.7362469
17775.1190085
18172.3936513
17767.8041016
19557.313244
19557.6636077
19557.9781803
17697.5212422
17527.6041466
17752.6888043
17638.2005226
19571.480759
18630.3005394
19567.5923376
18587.514747
18308.7007644
19559.8152197
18161.1924404
17774.578118
19558.3439085
17777.7675543
17716.5379923
1.45518127039
0.317768850551
0.824864016692
0.0822074883646
492.17187458
483.124449021
0.0445724473365
0.0568229300497
0.0522979366821
0.0506762407482
526.273928517
508.473104432
518.404512835
0.0845203533476
0.076706465268
0.0885287020434
0.176733179387
546.052689842
527.469293499
544.600943619
0.0383050198386
0.0309884825831
0.166328516766
0.109021384085
595.392949645
565.864688926
589.992775077
0.0746163594316
0.464075236626
0.121323574711
0.108353037188
609.635743415
603.218866446
612.365854185
0.554825832708
0.275833963416
0.100538876848
0.0730715501334
636.761863248
620.93727608
634.78730045
0.340361320799
0.471903530112
0.102576771531
0.17897026757
716.062007399
662.931100933
722.449165204
0.598628276187
2.28357974979
0.529096761563
3.16640730575
872.874147888
797.537788339
883.841546272
5.83814351683
10.2680586578
7.46768096937
11.730988157
967.927819757
949.45395231
973.530370468
17.2084394936
22.202513674
17.9756536822
22.0408169802
399.416413063
383.215723232
400.510033649
0.441664241517
0.0939484939352
0.683748843462
0.272055477405
465.099515839
418.060209338
446.503963464
0.0596439484904
0.0531260568953
0.102877106781
0.0511555641822
506.740544817
469.152023601
491.908512787
0.0757346466587
0.145260359222
0.0650080497608
0.0520403236974
538.743783416
509.847539062
527.919094105
0.17391530568
0.165283258415
0.131074658547
0.176630569575
583.585503075
549.797055545
571.257977618
0.151286557997
0.147960756781
0.308289847231
0.21898525919
611.042912934
591.306306577
605.707115176
0.0715775880407
0.0606747996533
0.191904749165
0.0747198423837
635.12307462
616.967531158
633.326143293
0.0499621502862
0.133301089057
0.0965974321511
0.181795461033
725.171249989
663.239977864
726.37412197
0.481197002804
3.58490497907
0.907808647956
4.0018581216
886.48632484
799.276370593
882.648841494
8.25449553008
12.5324848427
8.23376410809
12.5318462013
972.170540695
948.067204045
967.923497486
18.1344161405
21.4617587695
18.0630094637
21.1122382331
390.585607008
375.05005085
384.545774573
1.17782435991
0.616179384609
1.57025162153
0.774051989463
426.964101886
396.552764882
417.467726456
0.161829697907
0.0621826356888
0.186637753636
0.0708230056451
476.247307321
443.942836437
465.022258533
0.0499668745857
0.0363390517639
0.0495540208536
0.0307823831717
518.058778416
490.306554242
507.454768189
0.0256673146671
0.115408778466
0.0152787655161
0.806372531379
559.035714779
528.38393817
549.527743301
0.436979393111
0.903964048909
1.75403623297
2.1843905561
592.397880275
569.268537463
581.351012777
0.645117252028
0.483594317039
2.05037569174
1.36329016543
626.642029612
595.537443051
615.958017991
0.302373425463
0.394296566782
0.972260038434
0.757571421667
719.319185308
646.927423449
706.350169035
1.00905257161
3.72113669985
1.36142985872
3.39892797316
873.494897496
782.174564078
863.550410039
7.35475827522
11.4920409094
6.80377932971
10.8533443607
965.34215491
927.481462176
956.43182555
16.5076772436
19.2637140373
15.8243849847
18.8555481714
420.910501867
435.95103281
0.105057439332
0.0611975409104
0.40682225678
471.435742127
460.871770409
485.197606361
0.0404107203077
0.045336331328
0.519236561593
0.858586059012
511.249190892
498.81196045
516.967719711
0.652218394972
1.4047861257
1.09869697361
1.09863865667
550.902725089
536.179820393
553.004336094
1.76815092081
1.89332745061
1.07220130661
0.855373809566
576.655455736
567.777763396
575.620674798
1.46283629488
0.987321413826
0.736123520505
0.540698419699
606.28941848
584.506856023
600.661308193
0.429716092443
0.375108622168
0.466711405761
0.379236512424
695.576860327
632.109779869
698.962850251
0.733099277677
2.84304182556
1.1593176661
3.62727291485
857.47375378
776.421402372
851.624775656
6.39888032261
10.4489471107
6.99623951545
10.5252911464
945.933952781
907.543909731
931.069958835
15.1735712846
18.0682577066
14.8123203477
17.4639275116
513.191634547
499.278062628
0.995125965418
0.481789732944
1.06029300817
0.372319559363
551.47882971
518.513530822
539.273751328
0.0676737821995
0.0254057017116
0.119076987022
0.119998857702
576.08904127
555.396977971
567.946423868
0.0238588168767
0.0692454918975
0.0768719477216
0.0284634793511
600.571859686
582.655716018
604.209776163
0.0746844876673
0.402880950906
0.272520979418
1.64783947484
710.074825798
652.872760377
725.14195188
1.66937911141
4.78149350935
3.83088550989
6.35501625309
846.424843018
785.782637009
840.211352558
8.21263590798
11.4671610212
9.03744846536
11.4362514325
910.77064801
874.703463455
883.444564451
14.8986489276
17.2071334272
14.2843858387
16.2738398652
612.351902973
3.57324518397
734.747078766
4.96578883364
6.58083295997
4.83949330566
5.62193450948
833.430529303
8.77577343824
11.0540925713
7.23403699438
9.83848014534
857.05544636
14.5814199279
16.9132456965
13.8623516166
16.6917640429
19534.1877875
19535.2715829
18068.2948291
18158.1860233
19536.1269526
18167.4850615
19532.2210526
19535.8748851
19539.3459584
18185.0312125
18185.558712
19537.5347918
19536.4689627
18196.4877108
19541.2120999
19538.2476136
18197.4567835
18189.0006821
19538.6700975
18240.3208772
19540.7050264
19543.6295031
19545.6809291
18238.8768699
18278.4657242
19546.0556413
18259.5201359
19543.1637873
19542.1443683
19541.6221538
18211.1782209
18262.1878143
19539.7226932
19543.1060772
18262.4665674
19544.4129921
19547.4041977
18301.5755802
18289.8825601
19546.6780345
19545.0434669
18282.714896
19551.2338347
19548.1597481
18351.5047499
18315.7011688
19548.6694838
18358.3295146
19550.6582509
19553.2268598
19555.7724064
18389.2594724
18416.5176775
19554.7085783
18393.3917036
19553.1803538
19551.5627244
19549.7644964
18334.9084613
18383.35309
19549.1184726
19552.2276656
18369.1173779
19553.6489289
19557.0501224
18425.0372364
18408.6507055
19555.7520731
19554.6558142
18398.3897525
19557.7781096
19557.9329779
18450.5081956
18426.6279743
19555.954542
18433.9640444
19560.0514879
19559.5584782
19563.6041266
18458.0673674
18464.1860831
19561.3862421
18445.5516424
19561.8461471
19559.4142486
19559.1205162
18440.3785663
18463.8230004
19557.5145663
19561.1157885
18450.1364321
19561.2080078
19564.1486142
18473.9563891
18471.3734282
19562.874173
19562.7360779
18460.5952971
19565.678048
19565.1647266
18516.8299363
18489.453672
19563.3055792
18519.0101817
19566.7629347
19568.0264851
19569.515985
18528.1277265
18534.9518254
19569.2263985
18534.0304961
19568.3139934
19566.3089143
19565.4747709
18491.4000396
18502.8782208
19564.4969919
19566.7835771
18515.166164
19568.0114083
19568.7670162
18528.6669808
18515.2221337
19569.0820184
19567.9399406
18528.3130024
19570.333254
19570.1601169
18539.56031
18529.8346659
19569.923694
18526.1852073
19570.816127
19570.6947372
19571.6238307
18523.339373
18520.0048302
19570.9248949
18524.6993237
19571.2877743
19570.5950079
19569.4886464
18527.4198257
18536.1790349
19569.9201523
19570.0395152
18529.7242222
19571.2146399
19571.1478655
18526.7263857
18529.6735292
19571.6761208
19570.6742361
18530.7385695
19571.8870512
19572.1006917
18500.3413885
18511.1576357
19571.4329512
18506.7286949
19572.6912379
19571.8978534
19571.1305797
18483.8512562
18443.3755162
19570.2856484
18489.1925639
19572.6260132
19572.3747764
19571.7334966
18515.5171437
18516.9046921
19572.1047666
19572.2580901
18510.6538867
19571.7511657
19569.3600738
18423.8468161
18484.8243775
19569.5984647
19571.6971247
18482.6091868
19560.6616601
19567.6684355
18177.6169662
18327.2524307
19566.5444374
18145.5361536
19562.046609
19553.8687826
19548.7430155
17960.4825494
17717.0561317
19547.8768831
17912.167211
19555.3438294
19559.8900929
19565.0667334
18299.9930683
18085.8458511
19565.7212268
19559.055455
18113.9366579
19553.3607854
19548.0515228
17696.2786629
17884.7220136
19547.8630171
19552.9620606
17887.7946984
19541.7354161
19543.922051
17586.7908957
17655.0501988
19544.4744719
17612.7557778
19540.500249
19537.4030861
19539.8118391
17458.0130095
17453.2410828
17474.3917971
19540.2148476
19536.1905205
19542.5305757
19544.9728183
17643.9826992
17581.2188092
19544.8360921
19542.5547511
17615.7467331
19538.2918099
19541.4182871
17402.5508827
17540.0199027
19539.2657719
17526.5670922
19540.1151443
19547.6517415
19553.7202607
18503.1499624
18456.0629874
19546.0044745
18536.7395416
19549.7610364
19545.1466454
19538.143068
18235.8711204
18371.7619609
19540.78933
19540.9423045
18562.1721532
19548.4028136
19552.4811024
18462.4668932
18539.2681671
19549.1292881
18531.2126389
19549.6883759
19547.188761
19545.2229717
18417.7275556
18396.0946055
19543.3235772
19546.5274039
18570.0815701
19539.8854017
19538.3273083
18252.2694014
18257.268531
19537.344501
19538.7324326
18320.8379668
19541.3862871
19540.9712337
18237.4468143
18300.002643
19538.7501235
19542.1584252
18331.2548734
19542.0157865
19544.9975773
18319.8385777
18409.2416179
19541.2197452
19543.9406174
18370.3407312
19543.0129843
19545.2672294
18345.3134482
18398.5606041
19543.7262264
19544.1891717
18375.7858536
19545.4976944
19542.7452648
18287.9439372
18306.5357592
19544.0453132
19543.7129452
18333.8881611
19547.3625247
19548.0102492
18310.9178094
18362.6272399
19545.8110156
19549.5120228
18347.726455
19546.7163182
19546.4538496
18350.1736328
18402.2999381
19545.0527841
19547.7588647
18371.2293573
19548.3960485
19551.4140657
18393.200348
18413.5459556
19550.2138627
19549.4497184
18380.3635901
19554.0086916
19550.2670274
18395.7030905
18389.2838373
19552.6175492
19551.8796303
18414.890357
19555.8641695
19557.1762605
18421.6875686
18463.9253445
19554.9618438
19557.6519893
18438.6471183
19554.2104523
19553.4479601
18419.5265756
18465.4761293
19552.2309355
19555.5920293
18440.9252349
19556.0170921
19559.2345885
18474.7904699
18485.0441502
19557.8877469
19557.6291448
18455.2776997
19561.0991261
19559.0998837
18469.1074928
18473.7208248
19560.9334698
19559.4412335
18476.6281616
19562.6725995
19563.8664309
18477.858588
18494.6472687
19562.5474262
19564.1088754
18482.8639904
19561.3901142
19560.7081939
18488.123868
18505.3403633
19559.6743631
19562.3103647
18492.2362927
19562.9219366
19565.0269617
18508.1485794
18518.0638499
19564.2953828
19563.7910253
18497.2520699
19566.6917624
19565.1354941
18506.3630786
18504.6163333
19566.4109739
19565.428084
18514.6758152
19567.8771937
19568.6147916
18517.6981386
18528.0448602
19567.6206683
19568.7149311
18525.7423708
19566.6541703
19566.152521
18515.7124587
18530.707668
19565.5172269
19567.2198223
18521.0560547
19567.6641705
19568.8708188
18531.5160593
18531.8737132
19568.4558674
19568.1353031
18528.2530013
19570.0000349
19569.5551107
18534.6493345
18527.3992323
19570.3077424
19569.4437128
18530.0565928
19570.6072843
19571.456703
18529.5499713
18529.8407602
19570.9038794
19571.260434
18531.9372001
19569.6454653
19569.4789265
18530.6485217
18535.6403775
19569.0864083
19570.0448903
18531.339565
19570.293881
19571.4740096
18530.5494552
18530.9733875
19571.0217818
19570.7104479
18532.0633495
19572.2985816
19572.0262687
18522.4912118
18524.1779225
19572.4193084
19571.9851345
18517.9961391
19571.4753176
19568.9370302
18486.3284292
18407.9362054
19571.5832867
19568.9197164
18480.9419531
19572.1225487
19572.1907786
18526.8529391
18518.7251866
19571.8256862
19572.4936981
18521.7430787
19571.3117228
19569.3168721
18407.4887644
18482.140494
19568.777106
19571.7891814
18482.3355766
19558.2339212
19564.4287352
18076.5051163
18273.9334646
19558.1755099
19564.5131293
18078.7741624
19551.7816313
19547.4248231
17878.507472
17665.1259534
19552.1418513
19546.5606693
17856.9620591
19558.1534046
19565.0045388
18273.0736889
18089.622561
19564.4115685
19558.8566589
18078.2256025
19551.6917468
19547.4624611
17664.3578961
17886.857877
19546.5620356
19552.5774095
17856.7381937
19542.7434509
19544.1874863
17588.6083109
17626.3419626
19542.0687685
19544.306749
17626.3410648
19538.9280423
19540.6330116
17553.4257884
17381.5134377
19538.9514299
17568.7856538
19540.011958
19542.7092147
19544.156115
17625.4597251
17594.1280461
19544.2374425
19542.0811007
17626.0614991
19539.1985294
19540.7707204
17384.6647963
17558.7601781
19539.0866801
17568.6681302
19540.0716813
19550.6905334
19553.4174882
18565.6437744
18533.1387079
19550.5147195
18561.7994578
19552.0911086
19549.8102007
19546.8774899
18441.9245418
18526.715111
19547.9765348
19548.2849569
18592.0623629
19551.2693756
19553.2162792
18563.3535427
18628.088837
19551.9291715
18574.1838966
19552.5031308
19551.0944335
19550.6298725
18558.44752
18562.0290027
19549.7815674
19550.8717652
18608.1360297
19547.8267791
19547.1747846
18451.6003671
18491.2701776
19546.2548296
19547.6684692
18504.1156108
19548.0627805
19547.249977
18443.0309717
18478.9916723
19546.2059327
19548.5650812
18498.8230148
19549.4428542
19550.7488104
18529.1821066
18556.1556142
19549.1842321
19550.4723299
18535.5230396
19549.7428719
19551.0454781
18505.8822767
18542.6424652
19550.014027
19550.5203679
18526.4164274
19550.5341221
19548.3193673
18438.4762237
18477.7538731
19549.4292825
19549.4562367
18476.5598041
19551.7827208
19552.7602446
18447.8406489
18482.6108564
19550.9488939
19553.3141491
18475.3981896
19551.6947396
19551.6861982
18505.2532699
18512.4358451
19550.72631
19552.5309126
18504.5089118
19552.7323563
19555.0944339
18503.6646377
18519.1468194
19554.0269031
19553.7177715
18500.1703068
19556.6541485
19554.4821378
18482.9983923
18499.8793965
19556.2778048
19555.0012436
18506.9041483
19558.1870639
19559.5248049
18502.0002216
18522.1726444
19558.0353678
19559.7246989
18509.8894338
19557.0326609