/*--------------------------------*- C++ -*----------------------------------*\
| =========                 |                                                 |
| \\      /  F ield         | OpenFOAM: The Open Source CFD Toolbox           |
|  \\    /   O peration     | Version:  v1906                                 |
|   \\  /    A nd           | Web:      www.OpenFOAM.com                      |
|    \\/     M anipulation  |                                                 |
\*---------------------------------------------------------------------------*/
FoamFile
{
    version     2.0;
    format      ascii;
    class       surfaceScalarField;
    location    "2.75";
    object      phi;
}
// * * * * * * * * * * * * * * * * * * * * * * * * * * * * * * * * * * * * * //

dimensions      [0 3 -1 0 0 0 0];
oriented        oriented;


internalField   nonuniform List<scalar> 
92311
(
0.20112123237
7.96092885352e-05
0.000855651478109
-0.201520228784
-0.000536264350393
4.09992016853e-05
0.200733881632
0.00108692315396
-0.000740743594443
0.201096313588
0.000117645280465
0.000901160469783
-0.20152464927
-0.000511022552206
6.99623096141e-05
0.200653992125
0.00113349602583
-0.000720342391591
0.201003581264
3.45755144745e-08
1.4436716959e-05
0.0009938154089
-0.201524827584
-0.000540129702626
7.60290463308e-05
9.45687143866e-05
-9.33205873521e-06
-2.95104778794e-06
9.56488880552e-05
0.200427165579
0.00120548210759
-0.000731541445747
8.89183312772e-05
0.0503795316318
3.60177953348e-07
2.3274685519e-06
8.47035086509e-08
4.76630702877e-06
0.000178012401542
-0.0504399901032
-0.000125094241816
-0.0502932538284
0.0501848839074
8.78968278372e-06
7.08039836566e-06
7.26147186367e-06
1.0734594362e-05
0.000258755941797
-0.000193603535458
-1.15463553328e-05
0.0319632404271
-3.38919210179e-05
-3.06158197821e-05
-1.31524794319e-05
-0.00708088757608
-0.0334329506721
0.0053561480603
0.00328367855233
0.0340782722704
0.00239715533353
0.00203722633061
-0.0327870840769
-3.451045501e-05
-3.50360211936e-05
-3.41071126335e-05
-3.15912909015e-05
-0.00559032852723
-0.00259541262021
-0.00122936641804
-0.00139432544573
-0.00255094273074
0.0031485451534
0.00208430140416
0.00037612826143
-0.000550890261974
4.13266990702e-06
9.91392357014e-06
1.12425759889e-05
7.3870156954e-06
0.000230683690444
-0.000162689823891
1.28977698541e-07
0.012467123894
1.10230977765e-05
-1.2889929601e-05
-0.0124768893189
0.01243841431
2.84688848496e-05
-1.74946993178e-05
-0.0124425944494
-2.55667078359e-06
-4.2492988175e-06
-0.000220761805861
1.07657840487e-05
0.0500971501144
7.25685536252e-06
7.57047350098e-06
5.96007035953e-06
0.000273961730487
2.89713285838e-05
0.0500749653206
3.34598005375e-05
2.74396564229e-05
3.65561813496e-05
-0.0501616790002
-0.000164848384789
3.03609118916e-05
-1.91373825178e-05
0.012434715984
-5.42895075498e-06
-2.09535499448e-06
-6.00361304889e-05
0.0125123983861
6.24599213066e-05
2.14807085901e-05
-0.0125255413776
0.0125076135366
-4.34308562744e-05
2.52318061568e-05
-0.0125204849289
8.47393501778e-05
0.2019062225
0.000570295160443
-0.000284695550667
-0.202276561478
0.200494272995
-4.49154625661e-05
0.00104115132863
-0.000756769771164
-0.000143865992944
0.200394808348
0.000982873405426
-0.000739407147998
0.000244037133916
0.201849031533
0.000570604536472
-0.000309699072561
-0.202269396866
0.200372185511
-9.95628270597e-05
0.0010861062497
-0.00074976504759
-0.000328204854298
0.200278284394
0.00101812273212
-0.000739687914884
5.21484233265e-05
4.82730265843e-05
0.000154081929742
0.000707821560481
0.201888920011
-0.00036810015651
-0.202380976477
0.000141727816362
-6.84078282423e-05
-7.511992135e-05
1.00893891355e-05
-1.63817339148e-05
0.200073427265
0.00114821020769
-0.00074436596724
0.0506376127923
1.28139000229e-05
1.47466981938e-05
2.32275336788e-05
2.45536409964e-05
4.83303157927e-05
-0.0506645536164
-4.46207987906e-05
0.0499943345062
-0.000238598728598
-1.68398690193e-06
-1.30407276735e-06
-5.32607161531e-06
-2.24101780564e-06
0.000283546187444
0.00312944474013
0.00137789873985
0.0346379771678
-2.91992944775e-05
-2.98266276515e-05
-3.15035236407e-05
-2.52082274781e-05
-0.00495111738757
-0.00386388864495
-0.00158317550755
-0.00211353039289
0.0111605296523
0.00425834139918
-0.00658588521316
-0.00517815050983
-0.00428434596513
-0.00195390700024
-6.89233072892e-05
-0.00423712933236
-0.000541655033077
0.0089137816532
0.00292883640432
0.00405913220383
-0.000156754568545
7.48215541008e-06
1.52519941905e-05
2.09142160883e-05
1.44310389036e-05
0.0505867967515
0.000197716258023
3.55209674816e-05
3.37616775416e-05
2.98383794682e-05
3.44600700425e-05
0.0504891711796
-0.000109242221369
-0.0505161881717
1.95196097317e-05
-2.0025030269e-05
0.0125305575203
2.9922649928e-05
-2.52497074711e-05
-0.0125347832057
4.1151426183e-05
-2.26513951971e-05
-0.0124960317246
8.7973867666e-06
-1.61624664911e-05
0.0124848472662
3.27184000331e-05
0.0126125000816
2.89224354781e-05
-2.32775619481e-05
-0.0126153424346
-0.000254051392821
-1.33759106592e-05
-1.62630952831e-05
-1.13914593865e-05
-1.75079462403e-05
0.0499390795242
0.000292718605098
0.0499806488671
1.29078795524e-05
1.08435957539e-05
1.55048986674e-05
6.00882731556e-06
-0.000179490733924
-5.16300676708e-06
-1.9096960221e-05
-8.70641714953e-06
-1.52037910286e-05
0.0499437838862
-0.000185441858907
-6.36979638951e-05
6.55372250724e-05
1.24016020398e-05
0.0124964695001
1.60734141026e-05
4.92905862012e-06
-0.0123965262259
-1.67576918268e-05
0.0123861272578
6.1521776962e-06
-4.7550147568e-05
1.27314410955e-05
0.0124916434701
-0.0124776350818
-1.20679919819e-05
0.0124679843712
5.40266400852e-05
-3.75303941974e-05
0.0317591942005
-3.08457040531e-05
-2.45945054704e-05
-1.97064101356e-05
-0.00677482348685
0.00253578606148
0.0045471731699
0.0011932137155
-2.94159400933e-05
-4.44486575326e-05
-5.05047400025e-05
-3.36430727156e-05
0.0351165913594
0.000373198017473
-0.0341276328201
-0.00293845382471
0.00711564952039
-0.00586489510465
0.00165331169359
-0.00459560776025
0.00391733590141
-0.00161269671238
0.00320876093187
-3.46234862839e-05
-2.74515714164e-05
-2.74629298792e-05
-0.00617648135186
0.00206020440507
-0.00053701303244
-0.00549977134244
0.00210261109957
-3.61714765646e-05
0.0126039914821
3.75867961216e-05
-0.0126049328789
-0.0125986045723
1.06433964043e-06
4.31663157684e-05
0.0125943972946
-3.76951002332e-05
2.3894548829e-06
-1.20514481532e-05
0.012452120535
-9.19035413571e-06
-1.08264443076e-06
0.0124616659934
-0.0124810793444
9.37095635813e-07
-0.0126007625896
-3.50189885641e-05
0.0124537611513
-1.65204510655e-06
0.0125965369982
4.33179006861e-05
0.0125856517615
6.26935589684e-06
4.73640897816e-05
-4.07523946233e-05
-4.91969315064e-05
-0.0125868654811
0.0125755065714
5.29791302457e-05
7.80504648059e-07
-1.54696479447e-05
-6.58625388426e-06
-1.60168346255e-05
-0.0124451010142
0.0124412723509
-7.26481606326e-06
0.0125740118662
-4.23288403151e-05
-3.93535008221e-06
4.89578879485e-05
-0.0125576066513
1.87434202356e-05
5.66708928975e-05
0.0125419446261
-5.09676251973e-05
-5.33575861885e-05
0.0125601902516
5.66246568748e-05
-7.80185622086e-06
-2.37504232338e-05
0.0124320912118
-3.98849160714e-07
-1.70177865043e-05
0.0124365029735
-1.10441343929e-05
-4.67239464603e-05
0.0124340035368
-1.39686559678e-05
0.012543963518
5.98777503029e-05
1.90023888481e-05
-0.0125279180098
0.0125154674639
6.31645726901e-05
-1.22905269972e-05
-0.012427279896
0.0124223963694
1.68907232444e-06
-0.012429489614
-2.12407294177e-05
0.0124249065095
1.89778317003e-05
5.96100736106e-05
-5.46234175042e-05
-1.0170682664e-05
-1.96628869177e-05
5.62359082564e-07
-1.823046958e-05
6.19502442951e-05
3.58021387929e-05
-0.0125160398663
0.0125028634657
-3.2602921252e-05
-2.14022101831e-05
-0.0124212479528
0.0124172369918
-0.0124231828376
0.0124182440397
-2.5105858876e-05
-3.83885982209e-05
2.7581137419e-05
-0.0125368646274
-4.37991369465e-05
1.91434679242e-05
-0.0124258650516
-2.31528765421e-05
-0.0125321607819
-2.95267432244e-05
-0.012426389531
0.00341696440207
-0.00855915999092
-6.13527239626e-05
-2.73392944572e-05
-3.75752667723e-05
-5.34771430627e-06
0.0334728701964
-0.0347350262185
0.00653601077782
-0.000403788625666
0.0100960076176
0.00126645511394
-0.0114035027298
0.0338991190912
-0.000526004807547
-6.04506713737e-05
-9.22210654568e-05
-3.33321960521e-05
-0.00774315071457
0.00716327254942
-0.0325875850434
0.00130315833379
-8.20482622174e-05
-4.90271299981e-05
-1.12301807806e-05
0.033661334964
-0.00944025277833
0.00593556841619
-0.00339462140614
-0.00768021757846
0.00303493936295
-0.000104284599297
0.00484228288902
0.00316724279304
0.0343779632937
-1.93353353544e-05
-2.63521503322e-05
-2.1802709179e-05
-1.17882933829e-05
0.000780324225359
-0.00437390076049
0.00986169262216
0.00284290695172
0.00385410605008
-0.00299886874557
0.00535659589121
-0.00373539381206
9.21128166564e-06
3.05673131993e-05
2.3181069252e-05
1.29850400398e-05
0.0318409005799
0.000838858568996
-0.00366741398098
0.0132165892931
0.00143176544215
0.00189007525095
-2.42145885321e-05
-1.09741372246e-05
-1.18370239808e-05
0.0340270712346
-0.00495115990002
0.00458609849843
-0.00304498312925
2.68222661708e-05
-0.0126368905481
1.65879827204e-05
0.0126352034219
-2.89102557429e-05
0.0126619518076
7.32095322724e-07
-2.3244546695e-06
-0.012665620969
-4.11612689705e-05
1.19198745248e-05
0.0125216781641
-2.22884620157e-05
-4.94320572795e-05
0.0125188003125
-0.0125393089532
7.67985421051e-06
0.0126539151703
1.68490099854e-05
-0.0126481574217
-1.29340701438e-05
0.0125101771926
4.01339773023e-06
4.25925073667e-05
0.0126369543526
4.35187611466e-06
-4.12277563668e-05
-0.012645825569
-4.93817690128e-05
4.59616730381e-05
0.0126418740996
-3.92208037025e-05
3.50641920385e-06
-2.06220650194e-05
-2.151443575e-05
-0.0125044105605
-8.07628720812e-08
0.0124858452666
3.23379170097e-05
-5.19164046558e-05
0.0126323691214
2.52624614801e-06
0.0124926096203
-1.82778487288e-05
1.64353995301e-05
-0.012519339796
-2.28475947088e-05
-6.40116527666e-06
0.0124802116361
1.43672784219e-05
4.25593982713e-05
0.0126125029476
-3.16133375674e-05
0.0126248365935
1.46444720677e-05
-0.0126219133535
-2.7631344144e-05
-0.0124993445143
0.0124829564675
0.0126221864298
-0.0125056622743
1.42343815492e-05
0.0124998092176
6.56535684874e-05
-1.38149822316e-05
0.0124172367917
4.02631103002e-06
0.0124176235825
-2.39369036188e-05
6.90340618799e-05
4.92698287977e-06
0.0124842342437
-6.7046452576e-05
-1.19967038298e-05
-1.4348923808e-05
0.01240734607
4.75573597788e-06
0.0124863567389
6.82354929643e-05
0.0124077788951
-2.47664180277e-05
7.28255762372e-05
0.0124727757041
-3.80008306362e-06
-7.09616431988e-05
-0.0124754046225
-7.52514561468e-05
0.012467722928
7.15968904386e-05
-2.64781774622e-06
-1.65767794753e-05
5.8119430631e-06
1.14593017233e-05
-0.0124021431928
-2.73233788617e-05
0.0123902579602
6.97223639841e-05
-7.39160287513e-05
0.0124653865467
-2.65875423708e-05
-0.0124880392112
6.95249095666e-06
5.13968499983e-05
-3.70873162624e-05
1.7390224773e-05
-3.46190686851e-05
-2.35554659234e-05
0.0124102569581
0.0124120709545
-2.63312629067e-05
2.39928106872e-05
0.0124012151641
-2.7968755158e-05
1.82399545357e-06
0.0124801743256
0.0123995523108
0.0123984714613
2.6535763955e-05
-2.68221808107e-05
3.85730767574e-05
2.59440972346e-05
0.0123898395983
-2.5408282577e-05
5.59198847437e-05
0.0124675695956
-3.60025204206e-05
0.0124705079385
-1.59366434419e-05
2.87398208957e-05
-0.0123965659694
0.0123896592834
0.0124660276131
-0.00017725376196
-0.00012555786263
-0.000170291012602
0.00108344909468
0.200087612774
-0.000221760814369
-0.000730939376233
-0.000257215163327
-4.58330668511e-05
-3.19019300475e-05
-3.64101454541e-05
-3.82389780324e-05
0.000299505255135
0.0498719011529
-3.35826147047e-06
0.00365917743276
0.00331658828541
1.10060628289e-06
5.75137158149e-06
2.73097032023e-05
-0.0051611049738
0.0321814259955
-0.000919366879806
-0.00389275950061
-0.00364024781908
0.00363740704788
0.0329546700896
-0.00350899499349
0.00322550836371
3.97156879965e-05
3.43492674531e-05
3.68289195201e-05
3.88722441501e-05
-0.000145377566879
0.000246980712035
0.0504158226205
1.6583383151e-05
-1.97015715136e-05
-1.65406180051e-06
0.0124720480185
0.0499025564012
-4.31290048527e-05
-3.9235396301e-05
-3.66404200903e-05
-4.395680473e-05
-0.000178584198588
0.0499070416999
-5.97813290665e-05
-6.51400297644e-05
-6.41136972506e-05
-5.95297425354e-05
0.000233052250953
-0.000159296358883
1.64661861714e-05
0.0123751222644
-1.43258530625e-05
5.5190636365e-06
-4.25188752582e-05
5.38709433422e-05
2.3018741213e-05
0.0123785190654
-2.29505906656e-05
0.0123285990748
-6.22206723566e-05
8.05512191544e-05
9.12660639399e-06
-0.0123468452836
-9.13494527912e-06
0.0499466333336
-9.68793303408e-05
-8.30908253111e-05
-8.29892778029e-05
-8.9669183414e-05
0.000252825556679
0.000206173983104
-0.000146060489567
-0.000119355254996
-0.000144684088239
-0.000150259638431
-0.000114659322415
0.000359190986768
0.000183503644506
0.0500731599891
-0.000140398441052
-5.79538119224e-05
8.4282487863e-05
1.94470754761e-06
0.0123037152376
-3.26296593614e-06
-0.000173696892117
0.000185975703491
-1.52737657811e-06
-0.0122689991725
0.0122563144262
1.99336645815e-06
-4.95102424134e-05
-4.28119344585e-05
-2.94079981289e-05
-0.00904459937213
0.0327168635074
0.00285925274511
0.0288128831374
0.00588792182786
3.60503478984e-05
5.24311543572e-05
4.67964082776e-05
0.000621058824388
0.00611938934557
0.025037111856
6.07150097869e-05
6.51653448292e-05
4.26377920298e-05
-0.00330528475976
0.000730694759953
-0.000869548498236
-4.74569548303e-05
0.0079036751387
0.0150042378349
-0.000674362410753
0.00305648490546
0.0152381920542
-0.000819976744496
0.0200286682221
8.71441631221e-05
7.38256056559e-05
9.98964739923e-05
-0.00321563041683
0.00647889328283
0.00142618065027
0.000186622999919
0.000129277678718
0.000139801693415
-0.003406189513
0.00602714326768
0.0146906988726
0.00208749030017
-0.0126146780797
3.25430675671e-05
-5.7901703332e-05
7.20223644971e-05
0.0126077303485
5.42356628312e-05
0.0126105563186
-3.40727061919e-05
0.0124637507591
2.18977746696e-06
-5.32569980883e-06
-3.26577666644e-05
0.0124581300982
6.44970867262e-05
3.68083409421e-06
0.0124580099618
0.0126022038274
7.82802531824e-05
-0.0124554615599
-5.21496595597e-05
-6.89598464085e-05
0.0124524469044
0.0124554181574
-7.82293885499e-05
7.50982981135e-05
2.73386851268e-05
-1.20158180639e-05
4.19928832204e-06
0.0123567308394
3.32578401286e-05
0.0123741090024
-2.56484331839e-05
7.66979737463e-05
0.0124479260472
-7.33068085785e-05
-2.12296578463e-05
0.0123584785291
-0.0124580371512
-6.13713296231e-05
-4.93252915551e-05
0.0124566488023
5.34314528108e-05
0.0124623532042
-3.35111748219e-05
4.85158499322e-05
0.0123745799789
2.21931187296e-05
6.325731293e-05
0.0123657771055
-2.03896980038e-05
0.01236100685
0.0124621969766
-2.98365408939e-05
0.0124509853188
-6.99396719076e-05
-4.86303982966e-05
6.44463304391e-05
4.0160978576e-05
-0.012458314318
0.0124588581539
-2.53341425553e-05
8.15313639706e-05
-0.0123401128642
0.0123158818496
1.25309270662e-05
2.26835656023e-05
7.58914320257e-05
-1.45302784531e-05
0.0124507997363
5.77588529672e-05
1.62617680945e-05
-2.83856874095e-05
-0.0124477707752
-0.000121121383433
-3.37722084052e-05
0.0124585476264
4.72246099986e-05
3.42840430938e-05
0.0124511964369
-2.54868086626e-05
9.69038187115e-05
0.0123000937934
7.9713007301e-06
-3.42148210692e-07
0.000103347707814
0.0122725595849
1.9165649103e-06
5.11809861854e-05
0.0122734620555
5.01663272671e-06
0.0124569135127
-2.59371688905e-05
0.0124705830984
-0.000141628048809
-3.47940527793e-05
4.50117776447e-05
4.01013147582e-05
-0.0124667318354
0.0125009871813
-3.30702808265e-05
0.000191736659039
-0.0122653254951
1.39086874754e-06
0.0122572800565
9.52682797896e-07
0.000130790850807
1.16106883591e-06
4.83763145153e-05
0.0125037323754
7.2236805164e-06
-2.85075637501e-05
-0.000532326061874
-0.0493982079124
0.0492891887347
0.000655350771202
-1.00327373083e-05
1.0193744297e-05
-4.60074649521e-08
5.15833346511e-06
-1.95078079394e-05
-0.000665050708636
0.0498196528844
-1.09323394932e-05
4.3418833103e-06
-5.17545607633e-06
5.61072161025e-06
3.82431267717e-05
-0.0497681434749
0.00058139996765
-0.000995137344981
-0.0499840511046
0.0502777609726
0.000830261257751
-5.29124411523e-05
-4.04267398431e-05
-4.85125751927e-05
-3.76958934824e-05
5.07135043956e-05
-0.00063175765741
-3.71028715379e-05
-2.88065963502e-05
-3.0362952343e-05
-3.09338795422e-05
9.27149341385e-05
0.0503723953051
0.000487409929066
-0.0501935563602
-1.61433705725e-05
0.00425104356292
-0.0508326715926
0.0477985102035
-0.00586876614577
0.0046602347874
-5.64895056587e-06
-2.60995939956e-05
1.8853103994e-05
7.18247663105e-05
-0.0374844804988
0.0249898734351
-0.00763939456279
0.0132658825403
0.000136143468172
9.4785363829e-05
9.94492990453e-05
0.00647253814278
-3.54336279751e-06
0.00594546988653
0.0475429756181
0.0016562801986
-1.13779217953e-05
-5.31709261471e-05
1.09847351426e-06
-0.0509294368929
-0.00414912557228
9.17601115354e-05
0.00698073276749
-0.0387426779877
0.029327799598
-0.00541972948096
0.00765301238935
5.71168487937e-05
-1.80880048168e-05
7.00327289208e-05
9.15049094311e-05
0.00404916318839
1.04981266947e-05
-6.3136310366e-05
6.09854341332e-05
0.0314470830576
-0.0033021153672
0.00602040165345
-0.0383144238079
0.00609916383739
0.00101892725498
-0.00513240296599
-0.0133159387948
-0.00420386427055
-0.0120645380984
0.00754317726814
0.0091844332844
0.00712549089695
-0.0209913634732
-0.0168966246328
-0.0185990106175
-0.0133426551175
0.0287444442079
0.00241045687053
0.0081888211109
0.00940065449097
-0.00220990516467
-0.00905960798229
-0.00121327040107
-0.00683500309451
0.0113256086707
0.0164599805384
-0.0133423142822
-0.00827492231578
-0.010455029249
-0.00684991679472
0.0255243690868
0.0251106844264
0.000953811749112
-0.00426585296897
-0.00275912768791
0.0021236902368
0.00338528782379
0.00223999958184
-0.00985137225228
-0.00740299488788
-0.00820755263881
-0.00688738042317
0.0298850370858
0.0102932705612
0.000216692009603
3.34280126069e-06
8.61653595341e-06
6.12348242297e-06
1.11255108903e-05
0.0491300748249
8.55293336172e-06
2.97433857367e-06
-0.0493876262241
0.0492359408045
0.000381614196902
1.0738027111e-05
9.29917161489e-06
1.12019202766e-05
1.13868161039e-05
-1.76480996961e-06
-0.0494418466182
4.33246757703e-06
-7.36022452205e-06
-0.0124184390413
1.27378805045e-05
0.0124127067918
-4.27930733803e-06
0.0124301723048
3.33007549795e-05
-8.19733507185e-07
-5.86718633375e-06
-2.27180981042e-05
-0.0124341907922
1.64823831876e-05
2.11329255532e-05
1.99593779464e-05
1.89829692564e-05
-0.000294295124188
0.0122788447495
0.0122645932549
0.0121974596445
0.0122658209559
-8.54869193542e-05
4.47051918183e-05
1.86844673729e-05
-1.11749461371e-05
-3.25473277587e-05
0.0124099877032
0.000481819779291
1.2700224637e-05
1.16346918351e-05
1.2297664242e-05
1.21553467615e-05
-2.45684095709e-05
-0.0495226619057
0.0495872953374
1.54867349826e-05
1.31444368712e-05
1.64963648871e-05
1.86157174337e-05
-2.41237734029e-05
-0.0496482530309
0.000503083713319
0.0124422461723
3.51922195629e-06
-8.2753045678e-06
-0.012445807588
4.16045843707e-05
0.0124734203434
8.59266125275e-06
-1.51452902794e-05
-4.01359663197e-05
-0.0124713392913
4.43456650008e-05
0.000921753654891
-8.43987060764e-06
-2.81882579234e-05
-4.35288759175e-06
-2.71797304371e-05
0.0493433856
-0.00021943643472
-0.000191420916207
-0.000220931436743
-0.000185226776651
-3.2535131454e-05
-1.31833364137e-05
-2.46138418805e-05
-2.05334482951e-05
0.049557272027
-5.41769701625e-06
9.98935671169e-06
9.78073597527e-06
-1.83848129147e-07
6.07200576916e-06
0.0497516388505
0.000828498003447
-1.02911233942e-05
-3.20899752713e-05
-2.77372250732e-05
-1.03150596389e-05
-2.06766295912e-05
-9.89323667055e-06
0.0124258403294
5.47551615766e-05
0.0123981334999
-5.21732973408e-05
6.82454653981e-05
-0.0124135344213
8.94406297727e-05
-9.01133034675e-05
5.52743465054e-05
5.05548517871e-06
-7.08038048778e-06
-4.79103534076e-05
0.0124678313223
0.0124501647406
8.56597976119e-05
-4.38418693357e-05
6.09298182337e-05
-9.69291198589e-05
-0.0124560718327
0.0500960827731
-5.20448496311e-05
-2.95535063422e-05
-3.05159563195e-05
-3.98890962517e-05
-0.0011199150638
-6.74084545673e-05
0.00118500062599
-2.53214076957e-05
-3.99400624149e-05
-3.1930500355e-05
-2.20197923341e-05
0.0507268928799
-0.000191602956903
-0.00150486624161
7.74868645746e-05
0.0123926062847
0.000118348336899
-0.000118566033474
-0.000168087139607
0.000127043159087
-0.012478986471
0.00017810281763
0.012519418333
-0.000177649759353
0.000104393926486
-8.4375914881e-05
7.32249128664e-05
-0.000105578502328
0.0124623378309
0.000123401419555
-0.000105934260456
8.64494779875e-05
-0.000135119874262
-0.0124916418899
0.0125225543752
0.000704593525049
-1.95078870172e-05
-3.64141448555e-05
-1.51948571807e-05
-3.18274343106e-05
6.25061380404e-05
0.050118465227
-6.65152674083e-06
-2.12387132652e-05
-1.62883003908e-05
-4.44353785905e-06
3.52747789795e-05
-0.049960317445
0.000559822619432
-1.04764297787e-05
0.0124809442482
6.52430538769e-05
-0.0124843782103
0.0124638642459
-4.65920806972e-05
5.18356990068e-05
-0.0124678744819
8.42522813193e-05
0.0124807108982
-3.38695077829e-05
2.92782283031e-05
-6.29969108856e-05
-0.0124774997985
6.41648112171e-05
0.000906611103689
-4.38076068998e-05
-5.27260800169e-05
-4.37849761633e-05
-3.68754831556e-05
0.0506619970612
7.14215422843e-05
0.0503269656512
-3.57367589755e-05
-2.56561120193e-05
-2.12688254133e-05
-2.8760979007e-05
0.000101503752817
-2.93365598184e-05
-2.61037670479e-05
-2.31270558793e-05
-2.44149384178e-05
0.0505876502172
0.000676580591424
7.25215712664e-05
6.70261771719e-05
0.0124802679815
0.000112648837534
-0.000102375176961
7.45145996757e-05
-0.0124994762517
0.000119432798829
0.0125309914278
6.95648916808e-05
-9.50151321906e-05
4.95392280697e-05
-4.95755503105e-05
0.0125059436378
6.76815497475e-05
-6.2908524839e-05
3.80754848037e-05
-6.58336313249e-05
-0.0124882707045
0.01251092832
4.76592390492e-05
0.0125117285352
9.06872251653e-05
-0.0124891070559
3.8495770863e-05
-0.012490715632
0.0125133098827
-6.54220717511e-05
7.175584437e-05
-0.000941416194096
-6.08438302886e-05
-2.62469173842e-05
2.21048131369e-05
0.0513449978738
-0.00377821554336
-0.0511250966708
0.0045674512426
0.0509934426009
-0.00439158942245
-2.69614408019e-05
-4.24554483075e-05
1.43626714403e-05
-0.0504649697765
0.002973717506
0.00573012148758
-2.81008519164e-05
-9.66913556655e-06
6.25634263662e-06
0.000962873442413
0.0486025897828
0.00812995646227
0.00157280004982
-0.00665519527198
0.000633867702173
-0.00880928057234
0.0002273228254
0.00947557129864
-0.015889848588
0.000987132603932
0.00778986331455
0.00181569703911
-0.00653907762444
0.0092331996401
0.00110535470755
-0.0143828221627
0.00844141685248
-3.1860186616e-05
-0.0204836645436
0.00055236548618
0.000120340897247
0.00579130764299
-0.0145688235709
0.00019769968273
0.00744236676376
0.000794971137528
-0.0176283075585
0.00159583363403
0.00450400683169
-0.0118968810414
-0.00597839920846
-4.05819668385e-05
-2.61170225886e-05
-2.93138804897e-07
0.00125405182944
-0.050429307191
0.0510431811486
-3.06180835765e-05
-5.49853367854e-05
1.7275594566e-07
-0.0507627930126
-0.000371413224453
-0.00579519838442
-0.00681912853195
0.0117339204924
2.557570636e-05
6.85314017256e-05
3.11025774213e-05
0.0052258970467
0.0476117481646
0.00353387491328
-3.02753475403e-05
-5.96005958109e-06
1.56853273668e-05
0.00946967272695
0.0382238374462
-0.007034901027
5.29223578267e-05
-4.12936933747e-06
3.66235338233e-05
0.00834932078789
0.0026338497808
-0.00672792213057
0.00276862777401
0.00931127702365
0.010246960004
0.00322078864091
-0.00850674908075
0.0115249883269
0.00412818035478
-0.0061942208534
0.00732958321169
0.000146478811191
8.46826699339e-05
9.61694590709e-05
0.0174528715439
0.00589726682378
0.0278039312634
0.00942526862192
6.44277229095e-05
8.56621359488e-05
9.82453659654e-05
0.00530736382617
-0.0048901740033
5.13756183553e-05
2.02140639736e-05
0.000100529307748
0.0209143906685
0.00698206731058
0.0030104270307
0.00365812552655
0.00396109975068
0.00872928285363
0.00477292694147
0.00476494245865
0.00608361036977
-0.00538752504281
0.00704887614149
-1.27188804598e-05
2.92742082245e-05
3.83577948794e-05
0.0055476997409
0.0384010284775
9.46693843418e-06
-5.1747937279e-05
3.18548790883e-05
-0.0468146973225
-0.00254571951563
0.0134137866539
-0.0114171532755
0.00381773598179
0.00484592890097
0.0154730626204
0.021821473735
-0.0189281601662
0.00474303865873
-0.00271368984756
0.00368067114874
-3.59272137684e-06
9.84044259444e-06
0.000111287346522
0.0232501620179
0.0307086206144
0.00615628670924
-2.66871562905e-05
2.11773778742e-05
7.4641035966e-05
0.00399249259257
7.26079069102e-06
-5.36416620414e-05
0.00010903176
0.0250731805343
-0.00119649052927
0.0128014939515
0.00521740419771
0.00440255656772
0.00943378116507
0.020074661761
0.00490057825966
0.0169919064121
0.00459302314679
0.0123295370851
-7.41352013968e-06
-1.12567585766e-05
4.17540839253e-05
-0.0123492699141
2.24868562069e-05
-0.012317668056
0.0122868078333
9.66132517922e-06
-3.08914229862e-06
-2.09070520428e-05
-5.79188812726e-06
-0.0124494744601
-7.93881620827e-06
-0.0124370432231
1.62176799234e-05
0.0124155732836
5.34758331836e-05
0.0122966304108
1.34997026141e-05
-0.0124387935489
9.57576814178e-06
-0.0123483830014
0.0123386864764
7.09536719493e-05
1.79757478994e-06
-0.0123590316653
-7.99201148247e-05
-0.0123460397687
0.0123267822131
0.000102598576657
-1.40904937541e-05
-0.0124405691239
0.0124213803102
-1.72154266472e-05
-3.30526946574e-05
2.54782145276e-05
-0.0124518062908
0.0123091380998
8.86622204769e-05
-0.0123696464255
-0.0124438815146
-0.0122829225399
0.000120371122358
-2.81414003808e-06
-8.24037356735e-05
0.0122642276865
-9.59339879086e-05
0.0123070144497
0.000125413526557
-1.53394351966e-05
0.0123991081843
-2.27077396581e-05
-3.63570229499e-06
-4.60191728046e-05
5.5612704781e-05
0.0123942809362
-6.50658276599e-05
0.000149272554652
0.0122931996325
-2.70800634663e-05
0.0123834405687
-0.000101215505088
0.0123839122274
8.48551781276e-06
0.00011545950468
-0.0123939529866
-0.0123625869112
0.000119708169138
0.0123488872624
-1.96477013272e-05
1.9342924762e-05
-0.0124605403453
-1.48989412116e-05
-0.0124617932424
4.09238676106e-05
0.0124513172065
-0.0123825499457
0.000131032041792
0.012369742935
3.01929214168e-05
-0.0124643464153
0.0124014117603
0.000124502338159
1.53791008304e-05
-0.0124104004838
-0.000135388588895
-0.0124145582476
0.0124099727512
0.000137948042672
-2.25893721543e-05
-0.0124715240077
0.0124644920935
-3.28350965696e-05
-4.63617823981e-05
-0.012483991588
3.6889044869e-05
0.012390861453
-0.012426768487
0.000122423546626
-0.0124720739492
-0.000160872237724
-0.0123544038862
-2.27866742683e-05
0.0123528492216
0.00017510933814
0.0123327392515
0.000141854010123
1.38029837851e-06
5.91904771755e-05
0.0124157464467
-9.31751065203e-06
0.0124382143703
5.12218420117e-05
0.0123224638847
0.00015291843653
0.0124292207285
6.35707670547e-05
-0.000189549920645
0.0123673422775
-3.79101683397e-05
0.000204553733883
-0.0123288023197
0.000231819604081
0.0123554634291
-0.000218411322396
2.31598603232e-05
7.74810485796e-05
-7.27823332318e-05
6.38526649281e-05
-0.0124182323242
9.79762439073e-05
0.0124148155473
-0.000177277242752
0.000237390737474
0.0123984349936
8.1366230133e-05
-0.0123806214975
0.000182081915487
-1.75248971083e-05
0.012385733842
-0.000157223563703
0.0124082115288
0.000161876057933
-1.57276570689e-05
0.0124534571366
3.08459309307e-06
-6.89597659021e-05
0.0124622028207
6.53694427063e-05
0.0124132651863
0.000179886177713
0.0124459507475
0.012402543627
0.000211289587707
-3.39183152904e-05
-0.00023268701988
-0.0124267052503
0.0124594159449
0.000228777717475
5.52192207186e-05
-0.0124408175216
0.012439554604
1.60605815819e-05
-8.90082107228e-05
7.48288763209e-05
0.0124346584758
0.000203556486667
-0.000305823372988
-0.0124394674064
-0.000110875149276
0.012500042938
0.000308642719449
4.75558130772e-05
0.0124019654643
0.000266323347263
1.72896675085e-05
-0.000252646483316
9.74705061969e-05
0.000151061060871
0.0124218517932
-0.000141747819421
6.85436573446e-05
0.0124420670937
0.000117665248452
0.0124644971445
3.48704910087e-05
-0.000305792295377
0.000267075770482
2.68529143023e-05
0.0124485773384
0.000132513142954
-0.000325247833633
-8.7713514705e-05
0.0125923028424
0.00032997438851
-9.23697067059e-06
-0.0125564802059
0.000374518897089
0.0126727727129
-0.000379366952477
1.55348211913e-05
8.83910359943e-05
0.000168448119308
-0.000167589644948
-0.0124688849646
5.68526037332e-05
0.000165531762426
0.0125107437919
-0.000335350792222
6.23367050196e-06
0.000155925200761
0.00035938974402
0.0126732392196
-8.71198139096e-06
-0.0124751898802
0.000292796107742
-9.68469639996e-05
0.0125358527339
-0.000253890646408
0.0125069153686
0.00025009579804
5.78843847561e-05
0.0124580051585
7.17378640692e-05
-0.000124007562062
0.0124843065629
0.000115910313906
0.0125591704334
0.000272402980791
0.0124677811704
0.000312991911858
-8.27822981017e-05
0.0126103398059
-0.0126031095883
-0.000313929173424
0.00029506368871
0.0126684352175
-0.0124880684633
4.42851637015e-05
0.0125257324042
4.42221577344e-05
-0.000153057621244
0.000121627147926
0.000281273672784
0.0126777192936
-0.000166304593154
-0.0124487520903
-6.56652349379e-06
0.0124570229179
0.000153664122187
0.0124335147253
0.00015417685947
-0.0124319813417
-1.86267095429e-06
5.94490833944e-05
0.0124772317077
-2.38143209969e-05
0.0124816131098
-0.01249740867
5.18709276073e-05
0.0124399947437
-0.0124513380674
0.000138557569157
0.0124781774563
5.73180623321e-05
-0.000185902944844
0.012477351533
-2.69168126587e-05
0.000172934370363
-0.0124524168294
0.000211378327254
0.0124852704083
1.00599174274e-05
6.14014263254e-05
3.73885318011e-05
-0.012483116418
7.45868624803e-05
0.0124846564328
0.000186892800695
0.0125073629676
6.80787949008e-05
0.0124955351224
0.000159641720851
-1.33431437722e-05
-0.0124755851944
-0.00016523320825
-0.0125020940734
0.0125260050191
0.000149313529168
2.04307638242e-05
-0.0124928203499
0.0124933561542
-7.62951362348e-06
-8.11380699562e-05
-0.0125022956495
6.16893662603e-05
0.0125212456144
-0.0124923983513