/*--------------------------------*- C++ -*----------------------------------*\
| =========                 |                                                 |
| \\      /  F ield         | OpenFOAM: The Open Source CFD Toolbox           |
|  \\    /   O peration     | Version:  v1906                                 |
|   \\  /    A nd           | Web:      www.OpenFOAM.com                      |
|    \\/     M anipulation  |                                                 |
\*---------------------------------------------------------------------------*/
FoamFile
{
    version     2.0;
    format      ascii;
    class       surfaceScalarField;
    location    "4.55";
    object      alphaPhi0.water;
}
// * * * * * * * * * * * * * * * * * * * * * * * * * * * * * * * * * * * * * //

dimensions      [0 3 -1 0 0 0 0];
oriented        oriented;


internalField   nonuniform List<scalar> 
92311
(
0.201993770931
-0.000120038590369
0.000210199251341
-0.201908586995
-0.00017505252577
-0.000169508256299
0.20191135855
0.000926023150982
-0.000673869718315
0.20196463657
-0.000214229915123
0.000207848939999
-0.201897084027
-0.000180927380248
-0.000333827295934
0.20188729451
0.000933672368007
-0.000691753341653
0.201817198618
-7.03503919988e-05
-6.83371346131e-05
0.000178386675368
-0.20186027115
-0.000181999554857
-1.72158122406e-05
-1.15380332817e-05
-0.000124126690858
-0.000163971903416
-9.16502790905e-05
0.201724728737
0.000947775363951
-0.000738911832565
-7.0348206431e-05
0.0505011562589
-1.26243235723e-05
-4.85951864043e-06
-1.31528705098e-05
-6.56113468544e-06
-2.37337596389e-05
-0.0505166363464
6.05781030115e-06
-0.0504646127444
0.0504099811321
-1.83848249566e-05
-1.99609217108e-05
-1.69485962719e-05
-2.35161864844e-05
0.000122098399188
-0.00011282191742
1.84339217095e-06
0.000731158638157
1.08489319035e-06
6.88421825559e-07
1.41991673813e-08
-8.93995473239e-06
-0.000749422115177
1.76235087871e-07
4.04470500408e-05
0.000492320709905
0.000155631949924
2.54812602346e-06
-0.000607853470642
2.56048502827e-06
1.81661246159e-06
1.65081916498e-06
9.43910426743e-07
-0.000121800848075
-7.26826863984e-08
-1.08189360831e-07
-1.78991932837e-07
-1.19052228789e-07
7.92470417634e-10
4.11751882216e-08
-4.07313424956e-10
-1.7667534368e-08
-7.97574970763e-06
-7.57781588683e-06
-3.6753977634e-06
-8.70529656334e-06
4.29529711344e-05
-4.68340245597e-05
6.96351584196e-06
0.0116745695317
4.48442680684e-05
-2.88434544559e-05
-0.0116903128725
0.0116437750635
-5.31609952385e-07
-1.20542290861e-06
-0.0116531321706
1.95301937983e-05
-3.55800174239e-06
-0.000184122649734
-3.98456183756e-05
0.0503919894596
-4.54517551166e-05
-3.38359866781e-05
-3.83967438989e-05
0.000195655307573
-2.23602469703e-05
0.0503077963981
-1.90241781835e-05
-1.87412371997e-05
-1.32037728853e-05
-0.0503302497099
-0.000180042485466
-6.96390107732e-07
9.39098119779e-06
0.0116264949413
1.38844416019e-05
3.35924071036e-06
-5.00947619841e-05
0.0125674057313
4.74873477252e-05
-3.50363793444e-05
-0.0125698476212
0.0125568405769
-4.43113833208e-05
-2.4287850126e-05
-0.0125607678698
-0.000106453268095
0.202440137984
-0.0006806604658
0.000535459734302
-0.20218824647
0.201849092701
-0.000225867681456
0.00130352696843
-0.00101522896473
-0.000225304851051
0.201773544521
0.00145442500834
-0.00115351000427
-0.000167858114247
0.202432192481
-0.000649078775656
0.000557627986604
-0.202279193731
0.201868284551
-0.000533742329024
0.00133530345946
-0.00100815997711
-0.000534871987237
0.201841721418
0.00151086228912
-0.00117441382548
-8.75412701292e-05
-6.24771557445e-05
-3.71571316444e-05
-0.000671470738391
0.202365259718
0.00059375533662
-0.202219764863
-4.84837628126e-05
-0.000233521443484
-0.000304696847023
-0.000177312279329
-0.000245959241068
0.201863449028
0.00141360072627
-0.00112436542669
0.0506444428209
-1.43540519247e-05
-2.86542265372e-05
-1.70177371006e-05
-2.04031980254e-05
-0.000278844304403
-0.0506048419312
0.000232095965784
0.0504058376948
-0.000261958275878
-5.56180493611e-05
-5.72537780491e-05
-6.93143069354e-05
-7.19544026088e-05
0.000268737418269
0.000241356285465
2.9721808285e-06
0.000360519376036
3.70731847248e-06
2.96092078322e-06
5.08859183414e-06
5.04666259589e-06
-0.000198043222955
-2.03110059769e-08
-9.88033721574e-09
-1.60842980428e-08
-3.32588156637e-09
-6.76342506633e-09
-1.29978406017e-08
8.19413718475e-09
4.56213350689e-09
-9.70547274745e-08
-7.89943750696e-08
-1.60669902269e-07
-8.94769299914e-08
5.13054333108e-08
-4.12744663383e-08
8.66653872663e-08
0.000128295760793
-1.0784663969e-05
-1.49819035232e-05
-1.4586198569e-05
-1.29907686728e-05
0.0506503336574
-0.00014334831107
-4.82770511e-06
-4.85919529296e-06
-2.15710034577e-06
-3.93187688691e-06
0.050554095912
9.18901596759e-05
-0.0505391709032
-1.84748328058e-06
3.16710067689e-05
0.0117011740706
-4.22456901457e-06
1.41645817688e-06
-0.0117182254264
-1.34347385727e-06
1.39768177177e-05
-0.0116885382972
-3.57572927522e-05
3.39446686046e-05
0.0116788150267
-4.80558840752e-06
0.0126372634884
-2.9134462817e-05
2.46309225805e-05
-0.0126327844676
-0.000338016023766
-8.19812119249e-05
-9.96322127744e-05
-8.37310106524e-05
-9.98140770147e-05
0.0504754968052
0.000328801056732
0.0503294677506
-4.27478489894e-05
-6.1330993562e-05
-4.51899393289e-05
-5.8784845279e-05
-0.000252993139155
-8.15686239596e-05
-0.000104141419942
-7.62144425065e-05
-9.99788405378e-05
0.0504209545947
-0.000313612679699
-6.1733846828e-05
5.8089812756e-05
-4.67661261663e-05
0.0125618003427
-8.32512917354e-06
9.96182383977e-05
-0.0113025826089
5.63508996339e-06
0.0112098611571
-4.14969894424e-07
-5.53486926042e-05
-4.30948168888e-05
0.0125505146711
-0.0125471292036
-9.92689921101e-05
0.012557986683
8.13530655668e-05
-7.46436326676e-05
0.000689648111729
6.16831838627e-07
-6.95423398647e-06
-8.78350879201e-06
-2.60626794148e-05
5.80205808261e-05
7.53958546242e-07
1.72119792876e-06
5.65577432256e-07
-2.91013161517e-06
-1.99557059267e-05
-7.09604098495e-07
0.000545850702349
0.000219411805865
-0.000644529583282
-3.66866505777e-07
1.70074446764e-07
-3.25094591856e-07
4.31463174642e-07
-4.66440465745e-07
6.88353849823e-08
7.99314996456e-08
1.64761563992e-06
1.5040803922e-06
-8.26283155153e-06
1.20041789243e-07
-6.5422811568e-05
9.36769071355e-05
2.03005382565e-07
-8.58616155492e-07
2.43559864e-07
1.71817895457e-05
0.0126305763692
-1.96646641891e-05
-0.0126338758197
-0.0126262394638
1.2536219924e-05
-9.88007290141e-06
0.0126169528056
1.61785515969e-06
3.6635020481e-05
-3.59488019316e-06
0.0116649304464
-1.95335510552e-05
1.99028455516e-06
0.0116618935113
-0.0116690381634
5.05349046161e-05
-0.012629222398
8.74178731734e-06
0.011658742504
4.49858692611e-05
0.0126239045952
-1.35215824673e-05
0.0126069509202
1.09172611242e-05
-2.8230753099e-06
-6.1596591829e-06
-6.61634370827e-06
-0.0126168711229
0.0126102941661
4.4196069151e-06
2.72860222912e-05
-5.41278357527e-07
-1.00911884839e-05
-1.21311532769e-05
-0.0116477691715
0.0116398878116
2.84918743675e-05
0.0125994500035
-1.49213837848e-05
3.6025482705e-05
-5.09745393871e-06
-0.0125874015154
-5.85379001059e-06
2.42903382683e-05
0.0125808924742
-3.03228015367e-05
-1.38991500387e-05
0.0125994976308
1.41550912222e-05
8.46821317608e-06
2.03663326837e-05
0.0116020817036
6.97102175263e-06
-3.14094480945e-06
0.0116215296558
2.36690707939e-05
-2.18995278793e-05
0.0116032050003
1.95539486588e-05
0.012593131236
2.7594205329e-05
-4.47478612104e-05
-0.0125825979513
0.0125788462107
5.06322205546e-05
3.52076680703e-06
-0.0115634697562
0.0115110558837
1.02476957114e-05
-0.0115737294967
1.69389966419e-05
0.0115284052116
-1.88815663461e-05
3.44697803779e-05
-3.84140486185e-05
4.51106519964e-06
3.25130423668e-05
9.73384836062e-06
1.74426520946e-05
3.92785206594e-05
-1.47726246652e-05
-0.012548617104
0.0125434724377
-4.3516630261e-05
2.26122595269e-05
-0.0115717669138
0.011535959904
-0.0115571411404
0.01152830676
2.49376145927e-05
-3.17759680202e-05
-1.37001156517e-05
-0.0125725183285
-1.38505878848e-06
-2.09177332588e-05
-0.0115856207319
1.98103008523e-05
-0.012561423276
-3.36125119348e-05
-0.0115951283795
1.01548103259e-07
-2.4006403641e-06
2.99168674104e-06
3.65768440387e-06
2.90676517391e-06
1.98525501682e-06
0.000752007639055
-0.000741184205008
1.62948119734e-05
-9.05517814675e-08
3.29116820312e-07
5.05015696336e-08
-2.11542462981e-07
0.000673343045367
-2.98787163909e-08
1.34660022815e-06
2.29835228665e-06
1.70359623289e-06
1.79520322668e-05
-5.22204683931e-06
-0.00066782503407
-2.06796168091e-08
1.31325384541e-06
2.22149412185e-06
1.58336704052e-06
0.000702496035947
1.12078404585e-07
1.84458184195e-07
-2.0354437379e-07
-1.87207520932e-07
8.30551074159e-08
-1.05235959496e-07
1.3367021498e-07
3.48371824099e-06
0.00039809295662
2.56099503168e-06
2.22723784116e-06
4.38619979791e-06
5.15266916293e-06
0.000283800074589
-8.12811299532e-07
2.26610365998e-07
1.45195524741e-06
-3.01566389502e-07
1.44715931543e-08
3.9578725887e-06
-0.000300869530567
7.90498077815e-06
1.13645945339e-05
1.06864737403e-05
7.86065681222e-06
0.000228903984428
0.000337733959184
-1.41020233378e-06
2.38204388029e-08
2.55569873992e-06
2.92507276384e-06
6.76885992853e-06
9.38499541083e-06
7.1988013742e-06
0.000219558066123
-0.000251806014837
-1.18478956672e-06
-5.60088689548e-08
-5.11906060362e-05
-0.0126559519277
-6.45403597901e-06
0.0126543322184
4.47387150738e-05
0.0126725921271
6.58158020341e-05
-6.89410799789e-05
-0.0126662880984
1.29694100758e-05
-1.57817211848e-05
0.0116940383015
1.43838431747e-05
2.15962840083e-05
0.0117433833073
-0.0117540984001
6.27350896143e-06
0.0126713939664
-5.41293042344e-05
-0.0126488620798
5.99871529288e-05
0.01172927342
-2.14100983833e-06
-3.53596121992e-05
0.0126516717835
-5.61284290354e-06
3.24375039328e-05
-0.0126687353071
2.03235069892e-05
-1.98053654618e-05
0.0126666818477
1.04117989848e-05
-2.43144438237e-05
2.36786560723e-05
1.30365019521e-05
-0.0117097979757
-2.46789254321e-05
0.0116927335712
-3.73923648457e-05
2.14201103496e-05
0.0126502523819
-1.2493213944e-05
0.0117281250895
-6.97912218001e-06
3.47798344111e-05
-0.0117436207128
4.35427143229e-06
-1.0085763036e-06
0.011705843301
3.38565839042e-05
-2.34765144411e-05
0.0126375141309
2.25506764579e-05
0.0126439159254
3.21191034006e-07
-0.0126433488851
3.96330573717e-06
-0.0117246935179
0.0117041373442
0.0126413619601
-0.0117444198441
-5.43813282238e-05
0.0125752224524
5.86245912695e-05
2.65678256856e-06
0.0114553179837
9.32750902091e-06
0.0114737536005
1.30380846291e-05
7.03727581342e-05
-7.45626931715e-05
0.0125714676707
-7.52140236205e-05
7.58989958497e-05
4.24160905434e-06
0.0113807750181
6.98885397649e-06
0.012582736322
6.63874055393e-05
0.0113956743144
1.5779984121e-05
8.21471501781e-05
0.0125797077505
-8.4125262096e-05
-8.84699522578e-05
-0.0125919161377
-9.10250421229e-05
0.0126051513861
7.7612155823e-05
8.36652684677e-05
2.31093141676e-06
4.18342818059e-06
0.000109194601944
-0.0113192002827
1.58508413045e-05
0.0112247524419
7.25275350368e-05
-9.80011764388e-05
0.0125960149162
1.16965542661e-05
-0.0125366925155
-7.59569294851e-05
6.82473619114e-05
-6.43681076403e-05
-4.07297397401e-05
-5.32832153708e-05
2.15108026681e-05
0.011482887304
0.0114865639693
2.44716543708e-05
-2.68433741299e-05
0.0114211108272
3.07630554164e-05
-7.47892928652e-05
0.0125590975297
0.0114079308061
0.0113439154682
-2.07540915466e-05
2.57402468011e-05
0.000135056668042
-2.38008341345e-05
0.01124616089
3.08922828175e-05
9.11398589189e-05
0.0125793219231
-8.11983833081e-05
0.012568194498
-9.2679306044e-05
0.000124254508183
-0.0113302961707
0.0112329921721
0.0125858063019
-0.000319388276178
-0.000262934883116
-0.000284601891918
0.00160901614629
0.202228480806
-0.000329183139216
-0.00131257769369
-0.000388121332626
-0.000111467748265
-9.70705877481e-05
-0.000107827327516
-9.79242729449e-05
0.000376332172412
0.0505821876257
9.65192986833e-06
0.000326112956617
2.94516709816e-06
1.0923939737e-05
1.06532610937e-05
1.32632564742e-05
-0.000274121118548
6.23422075536e-05
2.29205864697e-07
1.3392198769e-07
2.80741861363e-08
9.83186977945e-08
8.48777396163e-08
4.05499276245e-08
9.89040324622e-08
-1.36554255651e-05
-9.27133530378e-06
-7.22876052372e-06
-1.01164443789e-05
5.92547618827e-05
-2.76645390512e-05
0.0505389670452
-3.04268520668e-06
8.57902373956e-06
3.18037780272e-06
0.0116794877545
0.0505530240314
-0.000112895066207
-0.000102253407543
-9.79967826732e-05
-0.00011894026723
-0.00035100952354
0.0506347808086
-0.000100442296592
-0.000103486508658
-9.95483732066e-05
-0.00010548544142
0.000405989671906
-0.000363221851256
9.97121284865e-05
0.0111285528832
5.06986557631e-06
5.69125133414e-07
-1.44560843568e-05
0.000142552697199
-1.91314682108e-05
0.0111599629155
2.95871588173e-05
0.0109266269982
-1.69543599233e-05
0.000133168568397
-3.00248976379e-05
-0.0109917874793
4.16537714615e-05
0.0506733024995
-5.15311395535e-05
-7.75821048206e-05
-7.36258906326e-05
-5.43392324231e-05
0.000174555895761
0.000402813165549
-0.000358626882524
-3.67971507117e-05
-6.24774979487e-06
-3.90713515411e-06
-3.84895302768e-05
6.9763567007e-05
0.000425432840456
0.0506348314369
-0.000371233784758
-1.24642935895e-05
0.000107243906284
-3.59570232197e-05
0.0108757555481
4.74486828544e-05
7.01507543023e-06
5.77777243108e-06
-4.05050864317e-05
-0.0108339676419
0.0108274344919
4.93750380106e-05
3.15578467864e-06
2.77430712194e-06
3.54854051998e-06
-1.13080645435e-05
0.000754210239201
6.16447779941e-07
1.99568763965e-05
4.50035584038e-06
1.23512254997e-05
1.73208925888e-05
1.57796602839e-05
0.000369131778898
4.38071330299e-06
-0.000199284720099
1.6061746112e-05
1.64489085672e-05
1.61639503734e-05
-0.000330408318807
0.000381755235291
9.9090467369e-07
1.30705534832e-06
-1.33729167338e-06
-8.25349470314e-08
3.51209384204e-06
-6.57466314746e-07
1.11254011558e-07
3.68189848078e-06
-0.000328459275963
1.21437856769e-05
8.81489048355e-06
8.85225823508e-06
-0.0003572913343
1.91068918436e-06
0.000405003546152
-1.16728553251e-05
2.30041108144e-06
2.11796683799e-06
-0.000390570909875
-2.80481663292e-07
-0.000357256693902
0.000410331646924
-0.0126405162971
-2.01910401362e-05
1.05392081437e-05
-2.68484974247e-06
0.012639258232
-1.71971231013e-05
0.0126341489299
1.19935605599e-05
0.0116859138505
2.93243325214e-05
8.37343114583e-06
9.56936403309e-06
0.011658757872
-1.18957853302e-05
3.51970633133e-05
0.0116598586501
0.0126303410339
0.000108220012884
-0.0126156096947
-0.000123185108714
-0.000114122376139
0.012633816376
0.0126241620776
-0.000101657058775
8.5406736526e-05
0.000108170203981
5.3117259128e-06
-4.5075438156e-06
0.0110528820315
0.00010975912938
0.0111380014321
1.19395300497e-05
9.33086083251e-05
0.0126397006724
-0.000109262478401
1.19543346551e-05
0.0110528488677
-0.0126085670821
-0.000142365426494
-0.000104663646337
0.0126294642625
0.000102107090891
0.0126069677223
-8.87210851365e-05
0.000127332224609
0.0111416809933
-2.18747842048e-05
0.000155701630129
0.0110699472408
3.38737439493e-05
0.0110513129372
0.0126298631128
-8.98814117972e-05
0.0126539857644
-0.000135783308815
-0.000104519653454
0.000116414096881
0.000103678936999
-0.0126558545395
0.0126729509153
-8.95562066142e-05
0.000126941117438
-0.0109804126631
0.0109196202057
-1.80206682001e-05
-2.89615702779e-05
0.000144844138187
3.86637370342e-05
0.0126694395064
0.000116749786942
-1.69017459225e-05
-8.98807155242e-05
-0.0126859999706
-5.67549408717e-05
-9.93168015975e-05
0.012680039105
0.000111315960418
9.94141700698e-05
0.0126903578805
-8.56983369833e-05
0.000103036870472
0.0108683432982
-2.55102233548e-05
-3.83371888013e-05
5.84885634688e-05
0.0108566467086
4.92664572247e-05
0.000113355860855
0.010849211255
-2.81520046708e-05
0.0126820687655
-8.60356886792e-05
0.0126646870138
-3.36934101625e-05
-9.74647799009e-05
0.000110276243966
9.66413243092e-05
-0.0126657663302
0.0126509430858
-8.18160723978e-05
2.25684117407e-07
-0.0108219380243
-3.03809566898e-05
0.010798372903
-3.90225980998e-05
3.44634358259e-05
4.94456560362e-05
0.000109656449431
0.0126483490766
-2.95800165736e-05
-8.47976588382e-05
-0.000479327379266
-0.0490195568288
0.0489717480849
0.00056174999725
-2.20559363873e-05
2.30215134009e-05
-8.5345148038e-06
2.93296435274e-06
-2.9707526032e-05
-0.0006072971386
0.049526671408
-8.61881884155e-05
-5.32543676175e-05
-8.33892907328e-05
-5.77917437027e-05
0.000166113608777
-0.0494099891073
0.00060512856304
-0.000990435943818
-0.0497181643048
0.0499812535973
0.00084766167041
-7.29404512505e-05
-8.17968048978e-05
-6.5928130051e-05
-9.27660025855e-05
0.000193178193306
-0.000769445762051
-6.55842521394e-05
-8.06332657873e-05
-7.1141952518e-05
-7.48651056259e-05
0.000205304546615
0.0500801279855
0.000699125688314
-0.0499227330406
-1.34472152206e-06
-0.000218028180562
-0.00100661989795
0.00089871690962
0.000245985658144
2.20001039621e-06
1.85904775752e-06
1.01545386454e-06
3.3531176824e-06
2.45381711497e-06
-0.000796289531273
0.00072838813619
0.000177766536971
1.23675391516e-06
3.05795674293e-06
4.64330448193e-06
2.96254221203e-06
-0.000156189814707
5.02403842066e-06
-0.000204533584327
0.000792079482095
5.03840368542e-06
8.14755792095e-06
5.20978831569e-06
9.1861225211e-06
-0.000853473752985
8.26471910384e-05
5.93946231147e-06
-0.000155289366493
-0.000726002304751
0.000697549838905
8.27525107863e-05
2.40168915558e-06
6.11073492414e-06
1.09838194851e-05
6.50406712143e-06
6.1577243758e-06
3.02520301453e-05
7.0383783945e-06
7.10720445297e-06
5.3253874833e-06
0.000691589533169
-0.000124391217049
2.54560954771e-06
-0.000715280323564
7.95994004472e-07
-1.21490041528e-07
2.3149105571e-07
-7.27243169598e-09
8.89635900023e-08
-8.95027799412e-08
1.96331831487e-08
2.34285843777e-29
-5.1930661998e-07
-8.72037547e-07
-8.74276009198e-07
-1.04026141743e-06
-7.34525315228e-07
1.24457526651e-07
-6.36979531158e-08
6.63591936043e-07
-2.94336748826e-08
6.72681653983e-08
-2.94770321098e-08
-8.53871399975e-08
-1.03639183673e-07
-2.05274273141e-26
-1.80144135314e-07
-7.01670950413e-07
-3.70128377288e-07
-8.14376968088e-07
-5.91256693237e-07
2.39129678563e-07
6.85978582496e-07
-2.55162355338e-07
-3.42590478629e-07
-3.47578514586e-07
-1.75415795064e-08
3.32400622846e-08
-2.57547874822e-07
-1.0284615958e-06
-7.77599200983e-07
-9.00864587155e-07
-8.08883094819e-07
7.71623836013e-07
3.57290000856e-08
0.000167438326513
7.49499424087e-05
7.10985383814e-05
7.08004835429e-05
7.0194461748e-05
0.0487358074132
-0.000106520952968
-5.92111115519e-05
-0.0490245525655
0.0487831865443
0.000284569672375
7.68407987828e-05
6.79889336544e-05
7.466583803e-05
7.20408650772e-05
-0.000123173909505
-0.0490686536973
5.80783446684e-05
-8.99915197408e-05
-0.0117852558369
1.02804685151e-05
0.0117839518891
2.04989463391e-05
0.0117770621859
8.70794501922e-05
6.09183689436e-05
-7.4982452214e-05
-6.95729801899e-05
-0.0117835711878
5.71716784305e-05
6.1769211573e-05
7.3909708204e-05
3.26781639638e-05
-0.000275075366365
0.0121820055704
0.0121422802403
0.0120616854175
0.0121308777464
-0.000163383462494
9.40214293336e-05
2.27128888561e-05
-5.22909898031e-05
-7.2265077502e-05
0.0117864367288
0.000360395797491
4.16987453204e-05
4.25220578447e-05
5.52208383946e-05
2.6143099968e-05
-8.75822397475e-05
-0.0491734602981
0.0492130240415
1.91690541331e-05
-1.41699853921e-05
-2.46494618257e-06
7.80799692382e-06
-3.37551559422e-05
-0.0492837266846
0.000454495374169
0.0117887421447
3.10210681533e-05
-4.58228017916e-05
-0.0117861918961
9.97606289368e-05
0.0118004405731
-9.64515486678e-07
3.16353790477e-05
-0.000101446024238
-0.0118190175485
9.375135902e-05
0.000851605262659
-1.89136187211e-05
-2.55792221235e-06
-5.9309064584e-06
-1.21514367782e-05
0.0490059707585
-0.000191966263208
-0.00015589782952
-0.000195601439124
-0.000160242913389
-4.61082958926e-05
-3.21798120892e-05
-3.74727093901e-05
-2.6675447285e-05
0.0492497395922
-4.39230639538e-05
-3.02997403027e-05
-1.87165558155e-05
-5.55971486906e-05
6.64907752746e-05
0.0494871668995
0.00077519148866
-4.62061886159e-05
-5.41661839344e-05
-4.58459599761e-05
-5.72847842416e-05
4.27053876658e-05
-2.07283212256e-05
0.0117957452199
0.000104373345531
0.0116994926709
-3.09302520435e-06
3.03685129038e-05
-0.0117330618219
0.000133272951107
-0.000129380399013
9.37872958802e-05
-3.71606181813e-06
5.72756643125e-05
-0.000103732191131
0.0117699774359
0.0116270789768
0.000106714913326
-6.85236702803e-06
8.26365101147e-05
-0.000118861648556
-0.0116730309168
0.0497661600337
-1.78068648557e-05
-5.07612498924e-05
-4.3433186438e-05
-3.83012221794e-05
-0.00111253341451
-6.46065089896e-06
0.00117285562967
-5.49867757841e-06
-6.25469247049e-06
-2.50605317528e-05
3.55739382664e-06
0.0503230396456
-0.000153141169103
-0.00154332817202
2.25009664138e-05
0.0116728927345
0.00014181656377
-0.000140930151147
-1.29806886315e-06
-1.48841906067e-05
-0.0117110742267
0.000178079643185
0.0117225912149
-0.000181449307984
0.000117210742173
-4.09524101145e-06
6.15224624931e-05
-0.000133286110268
0.0115821562161
0.000148042184998
-2.37642891908e-06
1.9890977442e-05
-0.000160704305962
-0.0116114537049
0.0116140776167
0.000732109396116
-9.1365341472e-05
-8.69795668584e-05
-8.41760757754e-05
-9.72922699026e-05
0.000211432455389
0.0498580955759
-9.7518091348e-05
-0.000101699519182
-0.000103829561325
-9.84581037538e-05
0.000243809869376
-0.0496713889549
0.000703335994447
7.48699104955e-05
0.0117693449925
8.76942398338e-05
-0.0118065281619
0.0116010876675
-9.79845434832e-06
0.000114273397231
-0.0116576691624
9.84800027643e-05
0.0116253047633
-1.18515110408e-05
0.000137968714683
-0.000103554464926
-0.0116686481322
0.000102286390202
0.000950602878855
-5.80093974616e-05
-3.27652348457e-05
-5.40401023159e-05
-4.05448443158e-05
0.0502694781958
0.000119402466364
0.0500588937878
-7.79068149704e-05
-9.10998893557e-05
-9.64926562082e-05
-7.52788064987e-05
0.000218502110828
-6.26480879275e-05
-4.76612402465e-05
-6.64968788477e-05
-4.59708907413e-05
0.0502484567716
0.0008009425466
0.000183073685362
8.54415326701e-05
0.0115431366531
0.000103679560122
-1.75852740538e-06
2.10523745844e-05
-0.0115789124062
0.00013246438626
0.0115924539669
0.000106857671109
-8.05683232711e-06
0.000110752974966
-0.000112897344249
0.0115751129471
0.000111968508607
-4.14304313352e-06
4.81275009267e-05
-0.000116240527614
-0.0116045634948
0.0116196936692
9.6448722707e-05
0.0116257970667
9.55886479506e-05
-0.0116623470396
5.87986487669e-05
-0.0116406389197
0.0116570058884
-4.67140423435e-06
0.000102870669934
4.95307249656e-05
-6.15851034249e-05
-6.47265087434e-05
-6.94008569027e-05
0.0010568631906
8.79140415723e-05
-0.000982943129737
-1.30747415632e-07
0.00108157568644
0.000194374929815
-6.52254382989e-05
-6.41910680911e-05
-6.8365669964e-05
-0.00101574385369
-3.02074714163e-07
3.26386927359e-07
-4.69490214297e-05
5.35331207342e-07
-1.07545330712e-05
-0.000115019938356
0.00099391176349
6.20947406575e-07
3.7385852013e-08
2.43928114905e-07
-1.90666709382e-08
-9.60731375144e-08
-2.48560502386e-08
3.90705011327e-06
-1.24565855037e-06
-1.00045202149e-07
2.50533639088e-06
-2.03303164953e-08
-3.58709755228e-07
5.75910195143e-06
-9.72580298151e-08
-2.05308838055e-06
4.68555059407e-06
-8.51188828436e-08
-6.47204482327e-07
-1.12305073612e-07
-2.39653953316e-08
2.35464971129e-06
-4.71777716585e-07
-1.75875566412e-07
4.97478446234e-06
-1.45795176612e-07
-8.19770938761e-07
-2.417894168e-08
2.14084766026e-06
-2.4070882982e-07
0.000259233120296
-5.94037924933e-05
-1.62456686164e-05
-4.45386073841e-05
-2.57420537197e-07
-0.000984569167342
0.000909599260029
3.56425243142e-09
-1.5181180784e-05
-2.69937084401e-05
-0.000911177848273
1.61939043445e-06
0.000214958854323
0.000218061961534
3.03071172525e-06
3.50759335687e-06
4.12932932412e-06
4.02813795849e-06
-0.00020234783433
0.000830449327213
3.5742945536e-06
2.89592126915e-06
5.96028983738e-06
4.35313219488e-06
3.67349554246e-06
0.000745235630544
0.000184543624332
4.85357624351e-06
7.50531669171e-06
5.08005940135e-06
3.64120047799e-06
1.14593982938e-07
-1.09374200588e-06
3.82914304142e-07
5.91750716042e-06
3.70665729683e-06
2.45864639616e-07
-1.64973720199e-06
6.01665942986e-06
6.51892791573e-07
0.000118811491395
2.394895646e-07
1.91556270097e-06
1.72245399033e-06
2.9545750852e-07
0.000688627824393
-0.000111286172988
0.000695936372463
1.79514208961e-06
4.51682919489e-06
5.02215775667e-06
2.06093936617e-06
5.84886263482e-07
8.66941168686e-05
2.39028039769e-06
4.12862143942e-06
2.33677146683e-07
0.000702265329876
4.96449857122e-06
6.12747200253e-07
8.31970383991e-07
2.58103652607e-06
5.61649696321e-06
9.62611229504e-07
1.30234675882e-06
3.69726545205e-06
7.27095590294e-05
4.82415655472e-06
9.87408392936e-06
1.27463140735e-05
1.12846857093e-05
4.96649691432e-06
0.000718314607575
1.35821603741e-05
1.18598948821e-05
1.16682458691e-05
-0.000769725122267
-6.87946725683e-05
3.37142550925e-06
-1.37533995923e-06
9.96119303553e-08
3.13691495147e-07
6.03965413502e-06
5.93133129426e-06
-3.21097946872e-06
-3.15121135534e-07
1.62163224403e-05
1.27508279646e-06
4.57573058032e-06
3.44982635191e-06
1.36465528807e-06
0.000707879910963
0.000701605139076
2.84742448897e-06
1.21841494122e-05
7.72386018362e-06
7.61360117861e-06
1.87532070656e-06
4.05081994652e-06
7.29241094956e-06
2.27043643597e-06
0.000693850896216
-6.67950805228e-05
6.33095075298e-06
4.77508794756e-07
8.55603876477e-07
5.09761557441e-06
6.82440686207e-06
-4.08625894164e-07
6.8681179078e-06
-4.4156419772e-07
0.0122332793516
0.000102330427895
-3.18886924942e-05
3.71666121802e-05
-0.0122659705778
3.19528885646e-05
-0.0122333250108
0.012199338108
-1.69181496804e-05
7.23804829241e-06
-9.45229658256e-05
2.15520683669e-05
-0.0117853943233
-9.21437221773e-05
-0.0117837862972
3.95386948243e-05
0.0117779937848
4.38087677136e-05
0.0121999971492
3.39548634375e-05
-0.011782703478
-2.21376846434e-05
-0.0122674214012
0.012235439497
4.31956216048e-05
0.000103593485659
-0.0122683175566
-5.52365323679e-05
-0.012243443357
0.012224281508
6.73101529137e-05
-9.07261554513e-05
-0.0117820038955
0.0117727178577
-9.48835887384e-05
-6.13453632634e-05
8.35807797341e-05
-0.011781203785
0.0122078045781
5.19450453229e-05
-0.0122751375251
-0.0117804290661
-0.0121915954182
8.94415986494e-05
4.07941128348e-05
-6.40013109182e-05
0.0121825782127
-6.45520097795e-05
0.012215201589
8.30438241057e-05
-7.44691985031e-05
0.0117726157983
-4.56087989806e-05
-1.35878100019e-05
-8.24257345922e-05
0.000104336868999
0.0117779929249
-4.89206405437e-05
0.000111150636596
0.0122126400817
-5.12290825859e-05
0.0117750934233
-5.60770096611e-05
0.0122743477524
5.11591844171e-05
6.61146573778e-05
-0.0122940886828
-0.012257607989
7.26083891883e-05
0.0122488582569
-7.66019553167e-05
9.58223244118e-05
-0.0117873705226
-2.16838068194e-05
-0.0117953089553
0.000103611561667
0.0117965440628
-0.012283262227
8.06103117422e-05
0.012270725255
9.95876804776e-05
-0.0117971860149
0.0122935470079
7.57878459779e-05
2.46948239862e-05
-0.012308841313
-8.81156298327e-05
-0.0123077930648
0.0123090551446
0.000104221945733
6.79640442733e-06
-0.0118092997146
0.0118050468558
-7.4368516253e-06
-9.6016832075e-05
-0.011819530266
8.83381793982e-05
0.0122903234774
-0.0123239670319
9.22050815218e-05
-0.0118110189476
-0.000120483097098
-0.0122702213623
-4.87511829268e-05
0.0122888232417
0.000128456379742
0.0122440449352
9.01336281762e-05
2.52095625002e-05
0.000112069223744
0.0117650125137
4.76976234763e-06
0.0117915399332
0.000106725926439
0.0122515063599
9.8228282899e-05
0.0117446344662
0.000112955608877
-0.000153491600259
0.0123147467857
-5.28266081314e-05
0.000161445598138
-0.0122729699283
0.000191140044804
0.0122945086607
-0.00018480506456
3.91577456553e-05
0.000124185207881
-0.000118174145977
4.61080557081e-05
-0.0116959794362
0.00013087866965
0.0116772825968
-0.000141694167997
0.000199676494343
0.0123404977163
0.000119612217766
-0.0122996889941
0.000129789569177
-7.25764780924e-05
0.0123269302561
-0.000107366225439
0.012322685435
0.000120772245287
3.73381028438e-05
0.0117803836504
9.59824139852e-05
-0.000106062416578
0.0117165701956
9.50442438534e-05
0.0123541470294
0.000138842701492
0.0117265679322
0.0123561668708
0.000155807013009
-6.97616446331e-05
-0.00018987347951
-0.0123906990846
0.0124234594255
0.000185574849557
6.53379912226e-05
-0.0116743909544
0.011652270827
9.90597373438e-05
-0.000109711823418
9.88399273872e-05
0.0123857261992
0.000161098508615
-0.000278656557208
-0.0123706417549
-1.0963987573e-05
0.0123976486258
0.000281044833359
-1.89712443828e-05
0.0123193841946
0.000234858532891
-5.34135267157e-06
-0.000231742882997
4.36754169706e-06
0.000159514921371
0.0116964511493
-0.000154604531525
4.52435154933e-05
0.0116714774491
0.000141148420287
0.0123556850165
-3.13298656569e-05
-0.000279567189066
0.000242651417639
7.37235271206e-06
0.0116650325745
0.000155986473167
-0.000316980669741
-1.63959029952e-06
0.0124533085285
0.000317242210494
-5.48452444835e-05
-0.0124254806347
0.000342397256554
0.0125091431013
-0.000351497386202
-8.95326023688e-05
4.83686699501e-07
0.00017219014965
-0.000165940078822
-0.0116549554282
-6.36424633494e-06
0.000172655826548
0.0116811686037
-0.000319387230261
-6.74305687474e-05
0.00016405629471
0.00034390660817
0.0125192404059
-7.38135152571e-05
-0.012412633037
0.000257366521146
-2.1591113342e-05
0.0124393400678
-0.000227956301012
0.0124461417242
0.000216087927305
5.57475377718e-05
0.0116419481795
4.61993721934e-05
-0.000138501997789
0.0115958578894
0.000127973484477
0.0124673456637
0.000243839454969
0.0116299992365
0.000285779580746
-1.10775965341e-05
0.0124757417051
-0.0124979283854
-0.000309468055035
0.000286709488783
0.0125343855812
-0.0116189120874
1.43947846315e-05
0.0116426509917
3.96832744904e-05
-0.000146463195728
0.000139925437914
0.000269726551147
0.0125280609733
-0.000142539264218
-0.0123608621031
-0.000132208334603
0.0123967081714
0.000152984723248
0.0123437754201
0.000126843919691
-0.0123281276818
0.000121394837471
8.79854197771e-05
0.0117079240086
8.62392299137e-05
0.0117750059853
-0.0118135195299
7.91151365287e-05
0.0123782635944
-0.0123431048406
0.000137609824319
0.0117087165356
8.39185542567e-05
-0.000161108550372
0.0124335386341
-0.000135689037233
0.000169005810534
-0.0124170392501
0.000177602487611
0.0124526944305
0.000122852028945
9.38898531509e-05