/*--------------------------------*- C++ -*----------------------------------*\
| =========                 |                                                 |
| \\      /  F ield         | OpenFOAM: The Open Source CFD Toolbox           |
|  \\    /   O peration     | Version:  v1906                                 |
|   \\  /    A nd           | Web:      www.OpenFOAM.com                      |
|    \\/     M anipulation  |                                                 |
\*---------------------------------------------------------------------------*/
FoamFile
{
    version     2.0;
    format      ascii;
    class       volVectorField;
    location    "3.85";
    object      force.turbine;
}
// * * * * * * * * * * * * * * * * * * * * * * * * * * * * * * * * * * * * * //

dimensions      [1 -2 -2 0 0 0 0];


internalField   nonuniform List<vector> 
28582
(
(0 0 0)
(0 0 0)
(0 0 0)
(0 0 0)
(0 0 0)
(0 0 0)
(0 0 0)
(0 0 0)
(0 0 0)
(0 0 0)
(0 0 0)
(0 0 0)
(0 0 0)
(0 0 0)
(0 0 0)
(0 0 0)
(0 0 0)
(0 0 0)
(0 0 0)
(0 0 0)
(0 0 0)
(0 0 0)
(0 0 0)
(0 0 0)
(0 0 0)
(0 0 0)
(0 0 0)
(0 0 0)
(0 0 0)
(0 0 0)
(0 0 0)
(0 0 0)
(0 0 0)
(0 0 0)
(0 0 0)
(0 0 0)
(0 0 0)
(0 0 0)
(0 0 0)
(0 0 0)
(0 0 0)
(0 0 0)
(0 0 0)
(0 0 0)
(0 0 0)
(0 0 0)
(0 0 0)
(0 0 0)
(0 0 0)
(0 0 0)
(0 0 0)
(0 0 0)
(0 0 0)
(0 0 0)
(0 0 0)
(0 0 0)
(0 0 0)
(0 0 0)
(0 0 0)
(0 0 0)
(0 0 0)
(0 0 0)
(0 0 0)
(0 0 0)
(0 0 0)
(0 0 0)
(0 0 0)
(0 0 0)
(0 0 0)
(0 0 0)
(0 0 0)
(0 0 0)
(0 0 0)
(0 0 0)
(0 0 0)
(0 0 0)
(0 0 0)
(0 0 0)
(0 0 0)
(0 0 0)
(0 0 0)
(0 0 0)
(0 0 0)
(0 0 0)
(0 0 0)
(0 0 0)
(0 0 0)
(0 0 0)
(0 0 0)
(0 0 0)
(0 0 0)
(0 0 0)
(0 0 0)
(0 0 0)
(0 0 0)
(0 0 0)
(0 0 0)
(0 0 0)
(0 0 0)
(0 0 0)
(0 0 0)
(0 0 0)
(0 0 0)
(0 0 0)
(0 0 0)
(0 0 0)
(0 0 0)
(0 0 0)
(0 0 0)
(0 0 0)
(0 0 0)
(0 0 0)
(0 0 0)
(0 0 0)
(0 0 0)
(0 0 0)
(0 0 0)
(0 0 0)
(0 0 0)
(0 0 0)
(0 0 0)
(0 0 0)
(0 0 0)
(0 0 0)
(0 0 0)
(0 0 0)
(0 0 0)
(0 0 0)
(0 0 0)
(0 0 0)
(0 0 0)
(0 0 0)
(0 0 0)
(0 0 0)
(0 0 0)
(0 0 0)
(0 0 0)
(0 0 0)
(0 0 0)
(0 0 0)
(0 0 0)
(0 0 0)
(0 0 0)
(0 0 0)
(0 0 0)
(0 0 0)
(0 0 0)
(0 0 0)
(0 0 0)
(0 0 0)
(0 0 0)
(0 0 0)
(0 0 0)
(0 0 0)
(0 0 0)
(0 0 0)
(0 0 0)
(0 0 0)
(0 0 0)
(0 0 0)
(0 0 0)
(0 0 0)
(0 0 0)
(0 0 0)
(0 0 0)
(0 0 0)
(0 0 0)
(0 0 0)
(0 0 0)
(0 0 0)
(0 0 0)
(0 0 0)
(0 0 0)
(0 0 0)
(0 0 0)
(0 0 0)
(0 0 0)
(0 0 0)
(0 0 0)
(0 0 0)
(0 0 0)
(0 0 0)
(0 0 0)
(0 0 0)
(0 0 0)
(0 0 0)
(0 0 0)
(0 0 0)
(0 0 0)
(0 0 0)
(0 0 0)
(0 0 0)
(0 0 0)
(0 0 0)
(0 0 0)
(0 0 0)
(0 0 0)
(0 0 0)
(0 0 0)
(0 0 0)
(0 0 0)
(0 0 0)
(0 0 0)
(0 0 0)
(0 0 0)
(0 0 0)
(0 0 0)
(0 0 0)
(0 0 0)
(0 0 0)
(0 0 0)
(0 0 0)
(0 0 0)
(0 0 0)
(0 0 0)
(0 0 0)
(0 0 0)
(-0.00171857583289 2.24158874611e-05 0)
(0 0 0)
(0 0 0)
(0 0 0)
(0 0 0)
(-2.5258594162e-05 3.10727671748e-08 0)
(0 0 0)
(-2.54537081454e-06 -6.08135966226e-09 0)
(0 0 0)
(0 0 0)
(0 0 0)
(0 0 0)
(0 0 0)
(0 0 0)
(0 0 0)
(0 0 0)
(0 0 0)
(0 0 0)
(0 0 0)
(0 0 0)
(-0.0160808377829 0.000446311401406 0)
(0 0 0)
(0 0 0)
(0 0 0)
(-0.0299382100129 0.000534231881438 0)
(0 0 0)
(0 0 0)
(-0.0285516177603 0.000775573992239 0)
(-0.127959366207 0.00347587857635 0)
(-0.0811052533727 0.00144728131993 0)
(-0.776837948108 0.0138823713724 0)
(-0.00607000745048 2.90970858336e-05 0)
(-0.0807364573781 0.00144070034605 0)
(0 0 0)
(0 0 0)
(0 0 0)
(0 0 0)
(0 0 0)
(-0.0160806630015 0.000446306550483 0)
(0 0 0)
(0 0 0)
(0 0 0)
(-0.0297340139457 0.000530588108176 0)
(0 0 0)
(0 0 0)
(0 0 0)
(0 0 0)
(0 0 0)
(0 0 0)
(0 0 0)
(0 0 0)
(-1.64315862128e-05 4.51081927353e-08 0)
(0 0 0)
(-1.0179086158e-05 2.79437526199e-08 0)
(-0.000152463061337 1.2434325088e-06 0)
(-0.000695608722414 5.67312824019e-06 0)
(-9.2988385927e-05 7.58378986942e-07 0)
(-0.000414555901819 3.38096507126e-06 0)
(0 0 0)
(0 0 0)
(-0.000171127288862 6.66466173344e-07 0)
(0 0 0)
(0 0 0)
(0 0 0)
(0 0 0)
(0 0 0)
(0 0 0)
(-0.00799599738481 0.0001042941336 0)
(-0.000351089920591 3.44234532956e-06 0)
(-0.00172514108773 2.25015200011e-05 0)
(-3.268550525e-05 2.14815963125e-07 0)
(-0.000148864210238 1.21408160628e-06 0)
(-4.16244956561e-06 -9.94485861939e-09 0)
(-3.19666558194e-05 2.10091534617e-07 0)
(0 0 0)
(0 0 0)
(0 0 0)
(0 0 0)
(0 0 0)
(-0.000179652991505 6.99670067667e-07 0)
(0 0 0)
(0 0 0)
(0 0 0)
(0 0 0)
(0 0 0)
(0 0 0)
(0 0 0)
(0 0 0)
(0 0 0)
(0 0 0)
(0 0 0)
(0 0 0)
(0 0 0)
(0 0 0)
(0 0 0)
(0 0 0)
(0 0 0)
(0 0 0)
(0 0 0)
(0 0 0)
(-0.00517618296749 2.79285433985e-05 0)
(0 0 0)
(0 0 0)
(0 0 0)
(0 0 0)
(0 0 0)
(-0.00476430609348 2.2838097724e-05 0)
(0 0 0)
(0 0 0)
(0 0 0)
(0 0 0)
(0 0 0)
(0 0 0)
(0 0 0)
(0 0 0)
(0 0 0)
(0 0 0)
(0 0 0)
(0 0 0)
(0 0 0)
(0 0 0)
(0 0 0)
(0 0 0)
(0 0 0)
(0 0 0)
(0 0 0)
(0 0 0)
(0 0 0)
(0 0 0)
(-0.0361974596419 0.000780658429544 0)
(-0.00884998411239 0.000112013324213 0)
(-0.014548362835 0.000184137108306 0)
(-0.010273627985 0.000151169233192 0)
(-0.0193749269184 0.000417852528057 0)
(0 0 0)
(0 0 0)
(0 0 0)
(0 0 0)
(0 0 0)
(0 0 0)
(0 0 0)
(0 0 0)
(0 0 0)
(0 0 0)
(-0.00536046833373 2.56958510327e-05 0)
(0 0 0)
(-0.00800095366461 0.000117728423887 0)
(0 0 0)
(0 0 0)
(-0.130212770666 0.00280020998429 0)
(-0.101405187497 0.00218070637032 0)
(-0.196479877259 0.00351116552679 0)
(-0.0432991075482 0.000772650191182 0)
(-0.243262230122 0.00523132502368 0)
(-0.0526666835623 0.00113584463898 0)
(-0.10381602318 0.00185254326705 0)
(-0.27565890727 0.00592801167234 0)
(-0.962125953094 0.0206904029936 0)
(-0.41545907462 0.00742440193343 0)
(-0.415153623743 0.00741894341725 0)
(-0.514999323702 0.0110749985639 0)
(-0.222913210119 0.00398353861861 0)
(-0.514978348602 0.0110745474969 0)
(-0.0615084996004 0.00132273289185 0)
(-0.00906651597028 0.000133407426174 0)
(-0.0204824731676 0.000365499145477 0)
(-0.0204598172272 0.000365094861933 0)
(-0.0248786235988 0.00053654890205 0)
(-0.0248793370307 0.000536564288395 0)
(-0.0490973717727 0.000876117218916 0)
(-0.130213068585 0.002800216391 0)
(-0.101408045034 0.00218076782131 0)
(-0.196191708157 0.0035060158421 0)
(-0.0431573455774 0.000770120522095 0)
(-0.0526689441467 0.00113589339225 0)
(-0.103801399842 0.00185228232114 0)
(-0.243257633481 0.00523122617347 0)
(0 0 0)
(0 0 0)
(0 0 0)
(0 0 0)
(0 0 0)
(0 0 0)
(0 0 0)
(0 0 0)
(0 0 0)
(0 0 0)
(0 0 0)
(0 0 0)
(0 0 0)
(0 0 0)
(0 0 0)
(0 0 0)
(0 0 0)
(0 0 0)
(0 0 0)
(0 0 0)
(0 0 0)
(0 0 0)
(0 0 0)
(-0.00533048099633 2.55521042354e-05 0)
(0 0 0)
(-0.00800122639642 0.000117732436945 0)
(0 0 0)
(0 0 0)
(0 0 0)
(-0.0361978075816 0.000780665933443 0)
(-0.0144360511997 0.000182715591673 0)
(-0.00876580377045 0.000110947862421 0)
(-0.0193761687936 0.000417879311163 0)
(0 0 0)
(-0.0102737715347 0.000151171345425 0)
(0 0 0)
(0 0 0)
(0 0 0)
(0 0 0)
(0 0 0)
(0 0 0)
(0 0 0)
(0 0 0)
(0 0 0)
(0 0 0)
(0 0 0)
(0 0 0)
(0 0 0)
(0 0 0)
(0 0 0)
(0 0 0)
(0 0 0)
(0 0 0)
(0 0 0)
(0 0 0)
(0 0 0)
(0 0 0)
(0 0 0)
(0 0 0)
(0 0 0)
(0 0 0)
(0 0 0)
(0 0 0)
(0 0 0)
(0 0 0)
(0 0 0)
(0 0 0)
(0 0 0)
(0 0 0)
(0 0 0)
(0 0 0)
(-0.0150638070009 0.00029354867636 0)
(0 0 0)
(0 0 0)
(0 0 0)
(0 0 0)
(0 0 0)
(0 0 0)
(0 0 0)
(-0.00336116968539 6.54991737554e-05 0)
(0 0 0)
(0 0 0)
(0 0 0)
(0 0 0)
(0 0 0)
(0 0 0)
(0 0 0)
(0 0 0)
(0 0 0)
(0 0 0)
(0 0 0)
(0 0 0)
(0 0 0)
(0 0 0)
(0 0 0)
(0 0 0)
(0 0 0)
(0 0 0)
(0 0 0)
(0 0 0)
(0 0 0)
(0 0 0)
(0 0 0)
(0 0 0)
(0 0 0)
(0 0 0)
(0 0 0)
(-0.322464278235 0.00880145341083 0)
(-0.00773222430449 0.00015067799327 0)
(0 0 0)
(0 0 0)
(0 0 0)
(0 0 0)
(0 0 0)
(0 0 0)
(-0.0708092397247 0.0019500715409 0)
(0 0 0)
(0 0 0)
(0 0 0)
(0 0 0)
(0 0 0)
(0 0 0)
(0 0 0)
(0 0 0)
(0 0 0)
(0 0 0)
(0 0 0)
(0 0 0)
(0 0 0)
(0 0 0)
(0 0 0)
(0 0 0)
(0 0 0)
(0 0 0)
(0 0 0)
(0 0 0)
(0 0 0)
(0 0 0)
(0 0 0)
(0 0 0)
(0 0 0)
(0 0 0)
(0 0 0)
(-1.51699333872 0.053232662339 0)
(-0.0432558320724 0.00156612544935 0)
(0 0 0)
(0 0 0)
(0 0 0)
(0 0 0)
(0 0 0)
(0 0 0)
(-0.332774543222 0.0115467642198 0)
(-0.00657741789654 0.000257774173272 0)
(0 0 0)
(0 0 0)
(0 0 0)
(0 0 0)
(0 0 0)
(0 0 0)
(0 0 0)
(0 0 0)
(0 0 0)
(0 0 0)
(0 0 0)
(0 0 0)
(0 0 0)
(0 0 0)
(0 0 0)
(0 0 0)
(0 0 0)
(0 0 0)
(0 0 0)
(0 0 0)
(0 0 0)
(0 0 0)
(0 0 0)
(0 0 0)
(0 0 0)
(0 0 0)
(0 0 0)
(0 0 0)
(0 0 0)
(0 0 0)
(0 0 0)
(0 0 0)
(0 0 0)
(-2.57008913147 0.0698137073995 0)
(-0.0775947569686 0.00210777812816 0)
(0 0 0)
(0 0 0)
(0 0 0)
(0 0 0)
(0 0 0)
(0 0 0)
(-2.57010828481 0.0698142276795 0)
(-0.573467435309 0.0155776261771 0)
(-0.0160806536722 0.000446306291555 0)
(0 0 0)
(0 0 0)
(0 0 0)
(0 0 0)
(0 0 0)
(0 0 0)
(-0.0470729458862 0.00127868595306 0)
(-0.077610137219 0.00210819591612 0)
(-0.0160806389659 0.000446305883393 0)
(0 0 0)
(0 0 0)
(0 0 0)
(0 0 0)
(0 0 0)
(0 0 0)
(0 0 0)
(0 0 0)
(0 0 0)
(0 0 0)
(0 0 0)
(0 0 0)
(0 0 0)
(0 0 0)
(0 0 0)
(0 0 0)
(0 0 0)
(0 0 0)
(0 0 0)
(0 0 0)
(0 0 0)
(0 0 0)
(0 0 0)
(0 0 0)
(0 0 0)
(0 0 0)
(-0.0373685301941 0.000488789847451 0)
(-0.00112226611689 1.46380453491e-05 0)
(0 0 0)
(0 0 0)
(0 0 0)
(0 0 0)
(0 0 0)
(0 0 0)
(-0.0216419841557 0.000283082638762 0)
(-0.0340589490739 0.000445499687456 0)
(-0.00756973978314 9.87343309744e-05 0)
(-0.000187829066158 7.3151231342e-07 0)
(0 0 0)
(0 0 0)
(0 0 0)
(0 0 0)
(0 0 0)
(0 0 0)
(-0.000582344731334 5.70973858414e-06 0)
(-0.000997432892733 1.30098090789e-05 0)
(-0.000177874312764 6.92742889532e-07 0)
(0 0 0)
(0 0 0)
(0 0 0)
(0 0 0)
(0 0 0)
(0 0 0)
(0 0 0)
(0 0 0)
(0 0 0)
(0 0 0)
(0 0 0)
(0 0 0)
(0 0 0)
(0 0 0)
(0 0 0)
(0 0 0)
(0 0 0)
(0 0 0)
(0 0 0)
(0 0 0)
(0 0 0)
(0 0 0)
(0 0 0)
(0 0 0)
(0 0 0)
(0 0 0)
(-0.000192834437732 5.85812331728e-07 0)
(-0.000191671052644 5.82278080588e-07 0)
(-2.47360687975e-05 3.04299638229e-08 0)
(0 0 0)
(0 0 0)
(0 0 0)
(0 0 0)
(0 0 0)
(0 0 0)
(0 0 0)
(-2.48124506538e-05 3.05239277079e-08 0)
(-2.47383671777e-05 3.04327912578e-08 0)
(-2.51050801091e-06 -5.99806600363e-09 0)
(0 0 0)
(0 0 0)
(0 0 0)
(0 0 0)
(0 0 0)
(0 0 0)
(0 0 0)
(0 0 0)
(0 0 0)
(0 0 0)
(0 0 0)
(0 0 0)
(0 0 0)
(0 0 0)
(0 0 0)
(0 0 0)
(0 0 0)
(0 0 0)
(0 0 0)
(0 0 0)
(0 0 0)
(0 0 0)
(0 0 0)
(0 0 0)
(0 0 0)
(0 0 0)
(0 0 0)
(0 0 0)
(0 0 0)
(0 0 0)
(0 0 0)
(0 0 0)
(0 0 0)
(0 0 0)
(0 0 0)
(0 0 0)
(-0.00336107493421 6.54973273375e-05 0)
(-0.00913656465525 0.000178044398795 0)
(-0.0020386452059 3.97271155774e-05 0)
(-0.0868414783963 0.00204463862273 0)
(-0.0177937026367 0.000346746201426 0)
(-0.0526727720079 0.00124015373762 0)
(-0.010792447067 0.00021031260896 0)
(0 0 0)
(0 0 0)
(0 0 0)
(-0.0024081541589 4.69277431513e-05 0)
(0 0 0)
(0 0 0)
(0 0 0)
(0 0 0)
(0 0 0)
(0 0 0)
(-0.0177954543938 0.000346780337947 0)
(-0.00397071658658 7.73774251173e-05 0)
(-0.00397075747079 7.73782218287e-05 0)
(0 0 0)
(0 0 0)
(0 0 0)
(0 0 0)
(0 0 0)
(0 0 0)
(0 0 0)
(0 0 0)
(-0.0708052070503 0.0019499604819 0)
(-0.195585764698 0.00533838664312 0)
(-0.0429421732506 0.00118261840243 0)
(-0.803644031212 0.0253992365902 0)
(-0.177201189571 0.00567109386752 0)
(-0.48740522096 0.0154044826337 0)
(-0.107454249869 0.00343893367165 0)
(0 0 0)
(-0.00468879715019 9.13706738995e-05 0)
(0 0 0)
(-0.0228329519159 0.000753488329892 0)
(0 0 0)
(-0.0122118943018 0.000391038580338 0)
(0 0 0)
(-0.014957365985 0.000401191927067 0)
(-0.0149588259828 0.000401231087662 0)
(-0.00284515549891 5.54435960774e-05 0)
(-0.177237926309 0.00567226957909 0)
(-0.0376610994076 0.00124281779242 0)
(-0.0376634211271 0.00124289440926 0)
(-0.00741028613369 0.000237285690327 0)
(0 0 0)
(0 0 0)
(0 0 0)
(-0.00335994692564 6.54753458143e-05 0)
(0 0 0)
(0 0 0)
(0 0 0)
(-0.332664308042 0.0115429392288 0)
(-0.904563972126 0.0313869769206 0)
(-0.201797551558 0.0070020642968 0)
(-2.22929408937 0.0746708101867 0)
(-0.491518623885 0.0163238906867 0)
(-1.33661942919 0.0443906464407 0)
(-0.298186359589 0.00990310702722 0)
(0 0 0)
(-0.0262360500274 0.000949905334606 0)
(0 0 0)
(-0.0665212103679 0.00220924480503 0)
(0 0 0)
(-0.0403538757332 0.00134019795842 0)
(0 0 0)
(-0.0742476497836 0.00257627911566 0)
(-0.0742521238023 0.00257643435722 0)
(-0.0140366036992 0.00055365251084 0)
(-0.491725902947 0.0163307746594 0)
(-0.109713694777 0.00364371617545 0)
(-0.109719375392 0.0036439048351 0)
(-0.0244816599628 0.000813063679874 0)
(0 0 0)
(0 0 0)
(0 0 0)
(-0.0133587445752 0.000496670488467 0)
(0 0 0)
(0 0 0)
(0 0 0)
(-7.17588162726 0.200751014118 0)
(-4.26311038907 0.116591249231 0)
(-4.38918814621 0.0784363585962 0)
(-2.08622291505 0.0372815480278 0)
(-0.573390786753 0.0155755441015 0)
(-1.55884319239 0.0423442989517 0)
(-0.347811591242 0.0094479278418 0)
(-2.66305176752 0.0475896854816 0)
(-0.281379460784 0.00502835138354 0)
(-1.26505734206 0.0226070261792 0)
(-0.133367887921 0.00238333175377 0)
(0 0 0)
(-0.0470701652775 0.00127861042082 0)
(0 0 0)
(-0.101956684706 0.00181936433315 0)
(0 0 0)
(-0.0482953221444 0.000861805057909 0)
(0 0 0)
(0 0 0)
(0 0 0)
(0 0 0)
(0 0 0)
(0 0 0)
(0 0 0)
(0 0 0)
(0 0 0)
(0 0 0)
(0 0 0)
(0 0 0)
(0 0 0)
(0 0 0)
(0 0 0)
(0 0 0)
(0 0 0)
(0 0 0)
(0 0 0)
(0 0 0)
(0 0 0)
(0 0 0)
(0 0 0)
(0 0 0)
(0 0 0)
(0 0 0)
(0 0 0)
(0 0 0)
(0 0 0)
(0 0 0)
(0 0 0)
(0 0 0)
(0 0 0)
(0 0 0)
(0 0 0)
(0 0 0)
(0 0 0)
(0 0 0)
(0 0 0)
(0 0 0)
(0 0 0)
(0 0 0)
(0 0 0)
(-0.347829663391 0.00944841875229 0)
(-0.573472538686 0.0155777648048 0)
(-1.27757888046 0.0228307905391 0)
(-2.69314393639 0.0481274432786 0)
(-0.135280889082 0.00241751776725 0)
(-0.28600169437 0.00511095234733 0)
(-1.55884975173 0.0423444771289 0)
(-0.573471565231 0.015577738362 0)
(-0.347826574141 0.00944833483613 0)
(-2.68980571195 0.0480677880166 0)
(-1.26880771272 0.0226740466412 0)
(-0.2859121833 0.00510935275256 0)
(-0.134710405866 0.00240732302857 0)
(-0.127957716529 0.00347583376462 0)
(-0.127957827359 0.00347583677521 0)
(-0.028551181601 0.00077556214444 0)
(-0.769127055547 0.0137445749704 0)
(-0.0797598249309 0.00142327284489 0)
(-0.0803554649164 0.00143390173252 0)
(-0.00598012373528 2.86662207651e-05 0)
(0 0 0)
(0 0 0)
(0 0 0)
(-0.0293421153077 0.000523594879569 0)
(0 0 0)
(0 0 0)
(0 0 0)
(0 0 0)
(0 0 0)
(0 0 0)
(0 0 0)
(0 0 0)
(0 0 0)
(0 0 0)
(0 0 0)
(0 0 0)
(0 0 0)
(0 0 0)
(0 0 0)
(0 0 0)
(0 0 0)
(0 0 0)
(0 0 0)
(0 0 0)
(0 0 0)
(0 0 0)
(0 0 0)
(0 0 0)
(0 0 0)
(0 0 0)
(0 0 0)
(0 0 0)
(0 0 0)
(0 0 0)
(0 0 0)
(0 0 0)
(0 0 0)
(0 0 0)
(0 0 0)
(0 0 0)
(0 0 0)
(0 0 0)
(0 0 0)
(0 0 0)
(0 0 0)
(0 0 0)
(0 0 0)
(0 0 0)
(0 0 0)
(-0.0776102295826 0.00210819842508 0)
(0 0 0)
(0 0 0)
(-0.0490439097271 0.000875163216349 0)
(-0.103745918127 0.00185129227862 0)
(0 0 0)
(0 0 0)
(-0.0470729593144 0.00127868631783 0)
(0 0 0)
(0 0 0)
(-0.103703752882 0.00185053986162 0)
(-0.0488255087441 0.000871265963707 0)
(0 0 0)
(0 0 0)
(0 0 0)
(0 0 0)
(0 0 0)
(-0.0295944239177 0.000528097196287 0)
(0 0 0)
(0 0 0)
(0 0 0)
(0 0 0)
(0 0 0)
(0 0 0)
(0 0 0)
(0 0 0)
(0 0 0)
(0 0 0)
(0 0 0)
(0 0 0)
(0 0 0)
(0 0 0)
(0 0 0)
(0 0 0)
(0 0 0)
(0 0 0)
(0 0 0)
(0 0 0)
(0 0 0)
(0 0 0)
(0 0 0)
(0 0 0)
(0 0 0)
(0 0 0)
(0 0 0)
(0 0 0)
(0 0 0)
(0 0 0)
(0 0 0)
(0 0 0)
(0 0 0)
(0 0 0)
(0 0 0)
(0 0 0)
(0 0 0)
(0 0 0)
(0 0 0)
(0 0 0)
(0 0 0)
(0 0 0)
(0 0 0)
(0 0 0)
(0 0 0)
(0 0 0)
(0 0 0)
(0 0 0)
(0 0 0)
(0 0 0)
(0 0 0)
(0 0 0)
(0 0 0)
(0 0 0)
(0 0 0)
(0 0 0)
(0 0 0)
(0 0 0)
(0 0 0)
(0 0 0)
(0 0 0)
(0 0 0)
(0 0 0)
(0 0 0)
(0 0 0)
(0 0 0)
(0 0 0)
(0 0 0)
(0 0 0)
(0 0 0)
(0 0 0)
(0 0 0)
(0 0 0)
(0 0 0)
(0 0 0)
(0 0 0)
(0 0 0)
(0 0 0)
(0 0 0)
(0 0 0)
(0 0 0)
(0 0 0)
(0 0 0)
(0 0 0)
(0 0 0)
(0 0 0)
(0 0 0)
(0 0 0)
(0 0 0)
(0 0 0)
(0 0 0)
(0 0 0)
(0 0 0)
(0 0 0)
(0 0 0)
(0 0 0)
(0 0 0)
(0 0 0)
(0 0 0)
(0 0 0)
(0 0 0)
(0 0 0)
(0 0 0)
(0 0 0)
(0 0 0)
(0 0 0)
(0 0 0)
(0 0 0)
(0 0 0)
(0 0 0)
(0 0 0)
(0 0 0)
(0 0 0)
(0 0 0)
(0 0 0)
(0 0 0)
(0 0 0)
(0 0 0)
(0 0 0)
(0 0 0)
(0 0 0)
(0 0 0)
(0 0 0)
(0 0 0)
(0 0 0)
(0 0 0)
(0 0 0)
(0 0 0)
(0 0 0)
(0 0 0)
(0 0 0)
(0 0 0)
(0 0 0)
(0 0 0)
(0 0 0)
(0 0 0)
(0 0 0)
(0 0 0)
(0 0 0)
(0 0 0)
(0 0 0)
(0 0 0)
(0 0 0)
(0 0 0)
(0 0 0)
(0 0 0)
(0 0 0)
(0 0 0)
(0 0 0)
(0 0 0)
(0 0 0)
(0 0 0)
(0 0 0)
(0 0 0)
(0 0 0)
(0 0 0)
(0 0 0)
(0 0 0)
(0 0 0)
(0 0 0)
(0 0 0)
(0 0 0)
(0 0 0)
(0 0 0)
(0 0 0)
(0 0 0)
(0 0 0)
(0 0 0)
(0 0 0)
(0 0 0)
(0 0 0)
(0 0 0)
(0 0 0)
(-0.00177763709973 1.45253794711e-05 0)
(-0.00258269073491 2.11036116353e-05 0)
(-0.00104778183113 8.545322254e-06 0)
(-0.00154199487534 1.25999061959e-05 0)
(-0.098870485779 0.00129325101657 0)
(-0.0583112729429 0.000762726231361 0)
(-0.00245844565324 2.00883836346e-05 0)
(-0.00148877037526 1.21649996218e-05 0)
(-0.00148979405865 1.21733643155e-05 0)
(-0.000901758630673 7.35441087591e-06 0)
(-0.00833839047573 0.000108760066873 0)
(-0.0218353910398 0.000285612449833 0)
(-0.00490219312108 6.39407393098e-05 0)
(-0.000547018794853 4.46128358228e-06 0)
(-0.000122089258227 9.95714970717e-07 0)
(-0.000331796632178 2.70601098485e-06 0)
(-7.41128067274e-05 6.044367232e-07 0)
(0 0 0)
(-0.000629024903477 6.16742552739e-06 0)
(0 0 0)
(-1.44613104157e-05 3.9699367364e-08 0)
(0 0 0)
(-8.78832666511e-06 2.41258225406e-08 0)
(0 0 0)
(0 0 0)
(0 0 0)
(0 0 0)
(0 0 0)
(0 0 0)
(0 0 0)
(0 0 0)
(0 0 0)
(0 0 0)
(0 0 0)
(0 0 0)
(0 0 0)
(0 0 0)
(0 0 0)
(0 0 0)
(0 0 0)
(0 0 0)
(0 0 0)
(0 0 0)
(0 0 0)
(0 0 0)
(0 0 0)
(0 0 0)
(0 0 0)
(0 0 0)
(0 0 0)
(0 0 0)
(0 0 0)
(0 0 0)
(0 0 0)
(0 0 0)
(0 0 0)
(0 0 0)
(0 0 0)
(0 0 0)
(0 0 0)
(0 0 0)
(0 0 0)
(0 0 0)
(0 0 0)
(0 0 0)
(0 0 0)
(-0.0347678811332 0.000454772698499 0)
(-0.0046545860869 6.07111283107e-05 0)
(-0.00752130805452 9.81026217663e-05 0)
(-0.000376054788818 3.06696419059e-06 0)
(-0.000573572605498 4.67784667041e-06 0)
(-8.38399914192e-05 6.83768054729e-07 0)
(-0.000128995588156 1.05204045097e-06 0)
(-0.0203462817914 0.000266134523391 0)
(-0.00739824211842 9.64974367515e-05 0)
(-0.00443141271684 5.78002127422e-05 0)
(-0.000556707944367 4.54030471292e-06 0)
(-0.000331825966787 2.7062502271e-06 0)
(-0.000125539262595 1.02385193419e-06 0)
(-7.44049527856e-05 6.06819358724e-07 0)
(-0.00173480875444 2.26276182068e-05 0)
(-0.00163920212959 2.13805930234e-05 0)
(-0.000352144345389 3.45268369038e-06 0)
(-0.000122062569961 9.95497311066e-07 0)
(-2.65620588984e-05 1.74571395522e-07 0)
(-2.65472697704e-05 1.74474198286e-07 0)
(-3.4325405915e-06 -8.20097165135e-09 0)
(0 0 0)
(0 0 0)
(0 0 0)
(0 0 0)
(0 0 0)
(0 0 0)
(0 0 0)
(0 0 0)
(0 0 0)
(0 0 0)
(0 0 0)
(0 0 0)
(0 0 0)
(0 0 0)
(0 0 0)
(0 0 0)
(0 0 0)
(0 0 0)
(0 0 0)
(0 0 0)
(0 0 0)
(0 0 0)
(0 0 0)
(0 0 0)
(0 0 0)
(0 0 0)
(0 0 0)
(0 0 0)
(0 0 0)
(0 0 0)
(0 0 0)
(0 0 0)
(0 0 0)
(0 0 0)
(0 0 0)
(0 0 0)
(0 0 0)
(0 0 0)
(0 0 0)
(0 0 0)
(0 0 0)
(0 0 0)
(0 0 0)
(0 0 0)
(0 0 0)
(0 0 0)
(0 0 0)
(0 0 0)
(0 0 0)
(-0.00100107523527 1.30573172184e-05 0)
(0 0 0)
(0 0 0)
(-1.01202685401e-05 2.77822857711e-08 0)
(-1.5648848911e-05 4.29594126594e-08 0)
(0 0 0)
(0 0 0)
(-0.000575024474741 5.63796537273e-06 0)
(0 0 0)
(0 0 0)
(-1.50376574747e-05 4.12815624049e-08 0)
(-8.98167474358e-06 2.46566040656e-08 0)
(0 0 0)
(0 0 0)
(0 0 0)
(0 0 0)
(0 0 0)
(0 0 0)
(0 0 0)
(0 0 0)
(0 0 0)
(0 0 0)
(0 0 0)
(0 0 0)
(0 0 0)
(0 0 0)
(0 0 0)
(0 0 0)
(0 0 0)
(0 0 0)
(0 0 0)
(0 0 0)
(0 0 0)
(0 0 0)
(0 0 0)
(0 0 0)
(0 0 0)
(0 0 0)
(0 0 0)
(0 0 0)
(0 0 0)
(0 0 0)
(0 0 0)
(0 0 0)
(0 0 0)
(0 0 0)
(0 0 0)
(0 0 0)
(0 0 0)
(0 0 0)
(0 0 0)
(0 0 0)
(0 0 0)
(0 0 0)
(0 0 0)
(0 0 0)
(0 0 0)
(0 0 0)
(0 0 0)
(0 0 0)
(0 0 0)
(0 0 0)
(0 0 0)
(0 0 0)
(0 0 0)
(0 0 0)
(0 0 0)
(0 0 0)
(0 0 0)
(0 0 0)
(0 0 0)
(0 0 0)
(0 0 0)
(0 0 0)
(0 0 0)
(0 0 0)
(0 0 0)
(0 0 0)
(0 0 0)
(0 0 0)
(0 0 0)
(0 0 0)
(0 0 0)
(0 0 0)
(0 0 0)
(0 0 0)
(0 0 0)
(0 0 0)
(0 0 0)
(0 0 0)
(0 0 0)
(0 0 0)
(0 0 0)
(0 0 0)
(0 0 0)
(0 0 0)
(0 0 0)
(0 0 0)
(0 0 0)
(0 0 0)
(0 0 0)
(0 0 0)
(0 0 0)
(0 0 0)
(0 0 0)
(0 0 0)
(0 0 0)
(0 0 0)
(0 0 0)
(0 0 0)
(0 0 0)
(0 0 0)
(0 0 0)
(0 0 0)
(0 0 0)
(0 0 0)
(0 0 0)
(0 0 0)
(0 0 0)
(0 0 0)
(0 0 0)
(0 0 0)
(0 0 0)
(0 0 0)
(0 0 0)
(0 0 0)
(0 0 0)
(0 0 0)
(0 0 0)
(0 0 0)
(0 0 0)
(0 0 0)
(0 0 0)
(0 0 0)
(0 0 0)
(0 0 0)
(0 0 0)
(0 0 0)
(0 0 0)
(0 0 0)
(0 0 0)
(0 0 0)
(0 0 0)
(0 0 0)
(0 0 0)
(0 0 0)
(0 0 0)
(0 0 0)
(0 0 0)
(0 0 0)
(0 0 0)
(0 0 0)
(0 0 0)
(0 0 0)
(0 0 0)
(0 0 0)
(0 0 0)
(0 0 0)
(0 0 0)
(0 0 0)
(0 0 0)
(0 0 0)
(0 0 0)
(0 0 0)
(0 0 0)
(0 0 0)
(0 0 0)
(0 0 0)
(0 0 0)
(0 0 0)
(0 0 0)
(0 0 0)
(0 0 0)
(0 0 0)
(0 0 0)
(0 0 0)
(0 0 0)
(0 0 0)
(0 0 0)
(0 0 0)
(0 0 0)
(0 0 0)
(0 0 0)
(0 0 0)
(0 0 0)
(0 0 0)
(0 0 0)
(0 0 0)
(0 0 0)
(0 0 0)
(0 0 0)
(0 0 0)
(0 0 0)
(0 0 0)
(0 0 0)
(0 0 0)
(-7.12613846574 0.153849399928 0)
(-5.5369968715 0.119072452289 0)
(-6.38513453052 0.114104632802 0)
(-3.8802072725 0.0693406887367 0)
(-4.88642519425 0.105081986555 0)
(-5.64249304819 0.100833364477 0)
(-8.08354749262 0.174829322488 0)
(-5.53708497083 0.119074346855 0)
(-2.61547231238 0.0562454177519 0)
(-3.02720418835 0.0540972192013 0)
(-3.03594270783 0.054253379663 0)
(-3.80563107746 0.0818396389625 0)
(-3.80542187165 0.0818351400168 0)
(-4.4022890118 0.0786704757397 0)
(-1.58639792158 0.0341152966513 0)
(-3.35834785793 0.0722208670808 0)
(-1.42695754157 0.0255002405238 0)
(-2.35459267389 0.0420774113949 0)
(-2.96378473272 0.0637358344914 0)
(-1.26070925725 0.0225293243518 0)
(-1.79756457961 0.0386564102544 0)
(-0.749350092922 0.0161146836919 0)
(-0.353946771112 0.00761158277568 0)
(-0.674586575018 0.0120551028436 0)
(-0.248497716243 0.00444074287369 0)
(-0.312368357991 0.00671744399838 0)
(-0.595772820981 0.0106466729317 0)
(-0.849086890713 0.0182595115421 0)
(-1.23550625316 0.0265694134918 0)
(-1.58638046196 0.0341149211843 0)
(-1.8370127217 0.0328280729341 0)
(-0.677272976107 0.0121031097898 0)
(-2.30823351746 0.049638284391 0)
(-0.849125670648 0.0182603454999 0)
(-0.983642248378 0.017578038023 0)
(-0.583608964177 0.0125504406369 0)
(-0.167200260346 0.00359562150472 0)
(-0.193835742893 0.00346391390204 0)
(-0.319927266881 0.00571721443553 0)
(-0.243281062221 0.0052317300057 0)
(-0.401095641059 0.00862551355757 0)
(-0.464790362167 0.00830596964736 0)
(-0.0361981271903 0.000780672826337 0)
(-0.130209457907 0.0028001387438 0)
(-0.0331255469017 0.00059110826056 0)
(-0.0900210401214 0.00160637892554 0)
(-0.114912673365 0.00247118323057 0)
(-0.0292390432352 0.000521755611718 0)
(-0.0410170286539 0.000884600452361 0)
(-0.00906636713787 0.000133405236209 0)
(0 0 0)
(-0.00862566199087 0.00010917410256 0)
(0 0 0)
(0 0 0)
(-0.00592653490288 2.84093382375e-05 0)
(-0.0102734009337 0.00015116589229 0)
(-0.0281919439746 0.000608006167469 0)
(-0.0615096336116 0.00132275727863 0)
(-0.0702035211121 0.00125274554328 0)
(-0.0142441743036 0.000180287025847 0)
(-0.0894969523288 0.00192462120414 0)
(-0.0193759958492 0.00041787558133 0)
(-0.0227971250131 0.000406802911125 0)
(-0.00517606303945 2.79278963163e-05 0)
(0 0 0)
(0 0 0)
(0 0 0)
(0 0 0)
(0 0 0)
(-0.00461987502705 2.21457553881e-05 0)
(0 0 0)
(0 0 0)
(0 0 0)
(0 0 0)
(0 0 0)
(0 0 0)
(0 0 0)
(0 0 0)
(0 0 0)
(0 0 0)
(0 0 0)
(0 0 0)
(0 0 0)
(0 0 0)
(0 0 0)
(0 0 0)
(0 0 0)
(0 0 0)
(0 0 0)
(0 0 0)
(0 0 0)
(0 0 0)
(0 0 0)
(0 0 0)
(0 0 0)
(0 0 0)
(0 0 0)
(0 0 0)
(0 0 0)
(0 0 0)
(0 0 0)
(0 0 0)
(0 0 0)
(0 0 0)
(0 0 0)
(0 0 0)
(0 0 0)
(0 0 0)
(0 0 0)
(0 0 0)
(0 0 0)
(0 0 0)
(0 0 0)
(0 0 0)
(0 0 0)
(0 0 0)
(0 0 0)
(0 0 0)
(0 0 0)
(0 0 0)
(0 0 0)
(0 0 0)
(0 0 0)
(0 0 0)
(0 0 0)
(0 0 0)
(0 0 0)
(0 0 0)
(0 0 0)
(0 0 0)
(0 0 0)
(0 0 0)
(0 0 0)
(0 0 0)
(0 0 0)
(0 0 0)
(0 0 0)
(0 0 0)
(0 0 0)
(0 0 0)
(0 0 0)
(0 0 0)
(0 0 0)
(0 0 0)
(0 0 0)
(0 0 0)
(0 0 0)
(0 0 0)
(0 0 0)
(0 0 0)
(0 0 0)
(0 0 0)
(0 0 0)
(0 0 0)
(0 0 0)
(0 0 0)
(0 0 0)
(0 0 0)
(0 0 0)
(0 0 0)
(0 0 0)
(0 0 0)
(0 0 0)
(0 0 0)
(0 0 0)
(0 0 0)
(0 0 0)
(0 0 0)
(0 0 0)
(0 0 0)
(0 0 0)
(0 0 0)
(0 0 0)
(0 0 0)
(0 0 0)
(0 0 0)
(0 0 0)
(0 0 0)
(0 0 0)
(0 0 0)
(0 0 0)
(0 0 0)
(0 0 0)
(0 0 0)
(0 0 0)
(0 0 0)
(0 0 0)
(0 0 0)
(0 0 0)
(0 0 0)
(0 0 0)
(0 0 0)
(0 0 0)
(0 0 0)
(0 0 0)
(0 0 0)
(0 0 0)
(0 0 0)
(0 0 0)
(0 0 0)
(0 0 0)
(0 0 0)
(0 0 0)
(0 0 0)
(0 0 0)
(0 0 0)
(0 0 0)
(0 0 0)
(0 0 0)
(0 0 0)
(0 0 0)
(0 0 0)
(0 0 0)
(0 0 0)
(0 0 0)
(0 0 0)
(0 0 0)
(0 0 0)
(0 0 0)
(0 0 0)
(0 0 0)
(0 0 0)
(0 0 0)
(0 0 0)
(0 0 0)
(0 0 0)
(0 0 0)
(0 0 0)
(0 0 0)
(0 0 0)
(0 0 0)
(0 0 0)
(0 0 0)
(0 0 0)
(0 0 0)
(0 0 0)
(0 0 0)
(0 0 0)
(-1.23540908212 0.0265673238404 0)
(-1.58626711485 0.0341124836684 0)
(-1.85469152467 0.0331439994524 0)
(-0.684071054261 0.0122245938725 0)
(-2.30806501097 0.0496346606791 0)
(-0.995875809354 0.0177966561236 0)
(-0.849056847503 0.0182588654664 0)
(-1.58633135448 0.0341138651338 0)
(-3.35818488029 0.0722173622662 0)
(-2.37894329051 0.042512565604 0)
(-1.44340243384 0.0257941166174 0)
(-2.96360283809 0.0637319228693 0)
(-1.79751593682 0.0386553641971 0)
(-1.27739004562 0.022827415993 0)
(-0.583555050329 0.0125492812261 0)
(-0.16719338398 0.0035954736293 0)
(-0.323274346264 0.00577702793862 0)
(-0.196538016878 0.00351220450254 0)
(-0.243269782653 0.00523148743995 0)
(-0.471015169277 0.00841720917194 0)
(-0.40106080911 0.00862476450068 0)
(-0.749306165567 0.0161137390394 0)
(-0.353961146285 0.00761189191205 0)
(-0.684271522404 0.0122281763097 0)
(-0.252273709067 0.00450822121303 0)
(-0.849074313671 0.0182592410743 0)
(-0.312370715074 0.00671749468716 0)
(-0.604799562699 0.0108079840277 0)
(-1.58633965812 0.0341140437027 0)
(-3.35819069213 0.0722174872491 0)
(-2.37068129477 0.0423649207917 0)
(-1.44315881181 0.0257897630049 0)
(-2.96362590408 0.0637324189007 0)
(-1.79752088382 0.0386554705816 0)
(-1.27357281893 0.0227592007898 0)
(-1.23544150755 0.0265680211453 0)
(-1.58635395103 0.0341143510698 0)
(-1.84685132724 0.0330038923263 0)
(-0.681293004923 0.0121749491394 0)
(-2.30809713675 0.0496353515402 0)
(-0.849121156095 0.018260248415 0)
(-0.991511978582 0.0177186729103 0)
(-0.749336458392 0.016114390483 0)
(-0.353963411942 0.00761194063473 0)
(-0.683732021175 0.0122185352302 0)
(-0.252107183994 0.00450524535055 0)
(-0.849094156725 0.0182596677968 0)
(-0.312374781703 0.00671758213952 0)
(-0.603114201637 0.010777866024 0)
(-0.583588766689 0.0125500062923 0)
(-0.167200711017 0.00359563119634 0)
(-0.322424814878 0.00576184650957 0)
(-0.196211083485 0.00350636208614 0)
(-0.401096035845 0.00862552204738 0)
(-0.243276867693 0.00523163980288 0)
(-0.46932536864 0.0083870118315 0)
(-0.275670764594 0.00592826666267 0)
(-0.962191575676 0.0206918141994 0)
(-0.411690631703 0.00735705851362 0)
(-0.412990625499 0.00738028986669 0)
(-0.515026541755 0.0110755838849 0)
(-0.515021005703 0.0110754648328 0)
(-0.220873637185 0.00394709072237 0)
(-0.130217380877 0.00280030912632 0)
(-0.101414028317 0.00218089649109 0)
(-0.194430520589 0.00347454279173 0)
(-0.0427794972474 0.000763378013971 0)
(-0.243280661651 0.00523172139149 0)
(-0.0526700512221 0.00113591726817 0)
(-0.102635104499 0.00183147038365 0)
(-0.130215782202 0.00280027474701 0)
(-0.101411819863 0.00218084899855 0)
(-0.195500352723 0.00349366107377 0)
(-0.0429958156166 0.000767238103446 0)
(-0.24327718739 0.00523164667793 0)
(-0.0526685974886 0.00113588591599 0)
(-0.102928329143 0.00183670282585 0)
(-0.0615092005419 0.00132274796552 0)
(-0.00906637489058 0.000133405350285 0)
(-0.0202484645139 0.00036132338202 0)
(-0.0202992621282 0.000362229839189 0)
(-0.0248792427533 0.000536562255146 0)
(-0.0248786934256 0.000536550407982 0)
(-0.0485898895151 0.000867061460367 0)
(0 0 0)
(-0.0361998021292 0.000780708949179 0)
(-0.00865320107339 0.00010952266185 0)
(-0.0142928053311 0.000180902543681 0)
(-0.0102740319947 0.000151175177911 0)
(-0.0193762496141 0.000417881054191 0)
(0 0 0)
(0 0 0)
(0 0 0)
(0 0 0)
(0 0 0)
(0 0 0)
(0 0 0)
(0 0 0)
(0 0 0)
(0 0 0)
(-0.00526594148117 2.52427286988e-05 0)
(0 0 0)
(-0.00800127443743 0.000117733143835 0)
(0 0 0)
(0 0 0)
(0 0 0)
(0 0 0)
(0 0 0)
(0 0 0)
(0 0 0)
(0 0 0)
(0 0 0)
(0 0 0)
(0 0 0)
(0 0 0)
(0 0 0)
(0 0 0)
(0 0 0)
(0 0 0)
(0 0 0)
(0 0 0)
(0 0 0)
(0 0 0)
(0 0 0)
(0 0 0)
(0 0 0)
(0 0 0)
(0 0 0)
(0 0 0)
(0 0 0)
(0 0 0)
(0 0 0)
(0 0 0)
(0 0 0)
(0 0 0)
(0 0 0)
(0 0 0)
(0 0 0)
(0 0 0)
(0 0 0)
(0 0 0)
(0 0 0)
(0 0 0)
(0 0 0)
(0 0 0)
(0 0 0)
(0 0 0)
(0 0 0)
(0 0 0)
(0 0 0)
(0 0 0)
(0 0 0)
(0 0 0)
(0 0 0)
(0 0 0)
(0 0 0)
(0 0 0)
(0 0 0)
(0 0 0)
(0 0 0)
(0 0 0)
(0 0 0)
(0 0 0)
(0 0 0)
(0 0 0)
(0 0 0)
(0 0 0)
(0 0 0)
(0 0 0)
(0 0 0)
(0 0 0)
(0 0 0)
(0 0 0)
(0 0 0)
(0 0 0)
(0 0 0)
(0 0 0)
(0 0 0)
(0 0 0)
(0 0 0)
(0 0 0)
(0 0 0)
(0 0 0)
(0 0 0)
(0 0 0)
(0 0 0)
(0 0 0)
(0 0 0)
(0 0 0)
(0 0 0)
(0 0 0)
(0 0 0)
(0 0 0)
(0 0 0)
(0 0 0)
(0 0 0)
(0 0 0)
(0 0 0)
(0 0 0)
(0 0 0)
(0 0 0)
(0 0 0)
(0 0 0)
(0 0 0)
(0 0 0)
(0 0 0)
(0 0 0)
(0 0 0)
(0 0 0)
(0 0 0)
(0 0 0)
(0 0 0)
(0 0 0)
(0 0 0)
(0 0 0)
(0 0 0)
(0 0 0)
(0 0 0)
(0 0 0)
(0 0 0)
(0 0 0)
(0 0 0)
(0 0 0)
(0 0 0)
(0 0 0)
(0 0 0)
(0 0 0)
(0 0 0)
(0 0 0)
(0 0 0)
(0 0 0)
(0 0 0)
(0 0 0)
(0 0 0)
(0 0 0)
(0 0 0)
(0 0 0)
(0 0 0)
(0 0 0)
(0 0 0)
(0 0 0)
(0 0 0)
(0 0 0)
(0 0 0)
(0 0 0)
(0 0 0)
(0 0 0)
(0 0 0)
(0 0 0)
(0 0 0)
(0 0 0)
(0 0 0)
(0 0 0)
(0 0 0)
(0 0 0)
(0 0 0)
(0 0 0)
(0 0 0)
(0 0 0)
(0 0 0)
(0 0 0)
(0 0 0)
(0 0 0)
(0 0 0)
(0 0 0)
(0 0 0)
(0 0 0)
(0 0 0)
(0 0 0)
(0 0 0)
(0 0 0)
(0 0 0)
(0 0 0)
(0 0 0)
(0 0 0)
(0 0 0)
(0 0 0)
(0 0 0)
(0 0 0)
(0 0 0)
(-0.0281912819824 0.000607991890506 0)
(-0.0615058251134 0.00132267537733 0)
(-0.0712610664034 0.00127161689231 0)
(-0.0144399958369 0.000182765518534 0)
(-0.089492533193 0.00192452617116 0)
(-0.0231569731403 0.000413224214936 0)
(-0.0193755027565 0.000417864946965 0)
(-0.0361984167316 0.000780679070776 0)
(-0.130214315416 0.00280024320396 0)
(-0.0914914410389 0.00163261746981 0)
(-0.0337140445379 0.00060160969666 0)
(-0.114914257299 0.00247121729289 0)
(-0.0410187865401 0.000884638364101 0)
(-0.029761922299 0.000531086118314 0)
(-0.00517602910358 2.79277132125e-05 0)
(0 0 0)
(0 0 0)
(0 0 0)
(0 0 0)
(-0.00469263388914 2.24945310482e-05 0)
(0 0 0)
(-0.00906660111725 0.000133408679052 0)
(0 0 0)
(-0.00876899991402 0.000110988315676 0)
(0 0 0)
(-0.0102738173568 0.000151172019664 0)
(0 0 0)
(-0.00602827176172 2.88970223365e-05 0)
(-0.0361987652915 0.000780686588051 0)
(-0.130214954352 0.0028002569442 0)
(-0.0914433118147 0.00163175862868 0)
(-0.0336840456962 0.000601074382837 0)
(-0.11491491247 0.00247123138228 0)
(-0.0410187863621 0.000884638360261 0)
(-0.0296959179878 0.000529908305502 0)
(-0.0281913826428 0.000607994061416 0)
(-0.0615085683761 0.00132273437087 0)
(-0.0711398237364 0.0012694533796 0)
(-0.0144007037393 0.00018226820256 0)
(-0.089495018933 0.0019245796267 0)
(-0.0193755256145 0.000417865439935 0)
(-0.0230970771712 0.000412155402329 0)
(-0.00906653642283 0.000133407727119 0)
(0 0 0)
(-0.00875699067771 0.000110836316027 0)
(0 0 0)
(-0.0102736790509 0.000151169984591 0)
(0 0 0)
(-0.00601010040571 2.88099164293e-05 0)
(-0.00517601498602 2.79276370399e-05 0)
(0 0 0)
(0 0 0)
(0 0 0)
(0 0 0)
(0 0 0)