/*--------------------------------*- C++ -*----------------------------------*\
| =========                 |                                                 |
| \\      /  F ield         | OpenFOAM: The Open Source CFD Toolbox           |
|  \\    /   O peration     | Version:  v1906                                 |
|   \\  /    A nd           | Web:      www.OpenFOAM.com                      |
|    \\/     M anipulation  |                                                 |
\*---------------------------------------------------------------------------*/
FoamFile
{
    version     2.0;
    format      ascii;
    class       volScalarField;
    location    "3.85";
    object      p_rgh;
}
// * * * * * * * * * * * * * * * * * * * * * * * * * * * * * * * * * * * * * //

dimensions      [1 -1 -2 0 0 0 0];


internalField   nonuniform List<scalar> 
28582
(
19560.2943055
19558.9256729
19560.6000232
19559.0913122
19561.2977764
19559.3833253
19562.4214607
19559.8328411
566.252944363
612.777012999
-0.0183500219632
19560.9935956
18517.444395
18411.1552059
19559.0128771
19559.1536352
18374.442035
19554.6561805
19554.5715191
19560.5875528
19557.5813894
19556.035399
19560.8618392
19557.572113
19555.8531959
19561.8881332
19557.5807682
19563.0392583
19558.3530083
633.286280235
-0.0137288434398
0.0562873683382
19562.4484986
19563.1186741
18511.3056657
18523.8062453
19563.3186744
19557.5129012
19558.6785758
19558.2383178
19554.6618146
18228.0943191
19554.7700496
19555.8242718
579.505976933
609.974425938
2.03774432759
2.39804538724
596.537476324
2.88724150647
19562.36965
19560.4497925
18485.8451654
18494.5955619
19561.9224997
18447.4677788
19561.2687889
19558.8904267
19558.6462018
18451.3237696
18372.6312835
19557.5122725
18401.9461863
19559.9248262
19555.5339073
19557.4100122
18345.4765416
18352.8488614
19556.44698
18336.1333133
19556.3770086
19555.5331244
18321.3550977
18310.7304202
19554.9728293
18332.852686
18322.9619091
19555.7617193
19554.7790933
18308.5127093
18313.8209432
19554.8039852
18326.8250136
19555.0213676
18320.1791614
547.536357617
1.04054896243
558.004888661
545.933946612
0.776444641763
0.793253899573
621.634324183
2.67111030954
2.62350828515
646.445202247
4.15317437833
666.701248361
3.86837079904
19562.4291226
19562.0998583
18501.2410923
18526.7021985
19561.7156112
19562.7950315
18532.9977194
19562.3866476
19562.0879553
18505.0714754
18542.4019177
19561.7767922
19562.5749988
18541.8188731
18543.6157405
18548.8266241
19563.2047603
19563.2195931
18541.373341
19563.5749112
18540.9843339
19555.3810884
18307.0553172
18298.3477604
19554.7238457
18289.8819988
19555.3965464
18280.445203
19554.523515
19554.3319169
18268.1809685
18225.8122184
19555.090861
19554.1057679
18253.5118507
19555.2120632
19554.8081085
18297.6689773
18302.5466
18296.3230397
19554.9065307
18281.4156146
18289.7993066
18280.086859
19556.49036
19554.7446352
18245.9744777
19554.7023823
18262.4202732
19555.2754751
19556.0348489
713.753453517
0.147838089098
19562.3712266
18544.9664748
19557.0583016
19554.891573
18169.2041797
18259.7539872
18054.298063
19552.1607308
19549.8379082
17939.2394178
17620.6599994
547.211934928
686.614040237
742.154374366
5.97036599047
5.80719183707
7.69995889148
807.794037667
875.975862663
19562.742569
19562.7653219
18540.1159866
18532.0957526
19563.5188694
18536.418028
19562.2280534
19551.43881
19552.8045008
18090.7236728
18183.3399195
19550.5466963
19553.2097548
18127.2688464
19553.3536024
19556.4709834
18219.6566889
18222.9498756
19554.4325719
18175.5551492
19555.6257351
19551.2809448
19549.935363
18014.3996782
18152.0104792
19548.3305773
18103.0675693
19553.4369922
19541.1284714
19546.0662833
17911.895805
17828.9939346
19544.9185681
17803.0962304
19542.1537463
19537.4929484
19536.0613994
17617.121331
17726.2698817
19535.2593816
17696.1209087
19538.5650056
19575.3539443
19571.6956338
19570.3218182
19568.1093405
464.10466917
545.625934504
420.684753413
503.910440459
493.917142679
0.0518991403856
0.259169861116
0.100026317121
0.166573040918
0.0627546087841
0.17643286442
19576.2557186
19575.3452432
18861.977386
18887.9374652
19577.5530107
18891.6975608
19573.9501186
19572.7012514
18892.6830869
18912.2936596
19575.2225863
19573.5573815
19573.1859088
18889.2690438
18730.0563894
18924.5072258
18801.3581434
19571.5161754
19569.2221762
18669.2275446
18553.8459477
18743.8564005
18585.2153377
19571.4597195
19570.1340026
18919.5831139
18822.8609011
18797.9573314
19568.7013467
19569.3979262
19568.1377716
18767.1524046
18604.8479293
18753.5592842
18619.1558201
18727.0959047
18621.655881
460.71929632
455.564511522
468.338063138
1.20598033638
3.14456796986
2.1828376004
3.72540579573
5.80260373847
6.36971042382
5.96039665202
5.82909009316
442.969426663
425.349745067
505.363623602
440.762413821
480.475339141
2.29013727726
3.61412419494
1.59347297239
3.07683175321
567.222893192
527.736103433
547.866920824
5.39168222385
5.13397825343
4.95732301587
4.77589249304
454.91730997
447.026901575
0.809740824988
2.28607405499
1.84717124532
531.726423747
493.932297251
521.890615159
4.30283247616
4.67781652401
3.4650582314
4.46340382757
19574.5288373
19576.4555642
18847.0702179
18861.6942225
19576.0933994
18840.1020557
19574.9325233
19573.9721681
19575.4925595
18867.0415887
18851.9379566
19575.5268589
19573.8703818
18841.7412029
19577.1728877
19576.2222322
18895.4831563
18861.0004422
19576.7634554
19576.1011525
18886.4978254
19573.2440358
19574.7051806
18865.0896011
18891.1632409
19573.6390698
19574.1946342
18876.2430982
19573.166201
19573.6271193
18910.1677017
18896.588845
19574.1114443
19572.7742687
18887.960479
19574.5770445
19575.4465185
18847.397489
18882.0375882
19574.8301198
19574.6074317
18864.2819482
19573.7695159
19572.3048469
18775.7422135
18722.6200478
19573.7166734
19571.313889
18820.0006581
19574.4438527
19574.1088317
18909.8648283
18910.2248714
19574.4449747
19574.1131909
18896.8718804
19573.6434026
19572.2589056
18756.3969698
18853.2477359
19571.2338969
19573.4117596
18853.5612379
19569.4682821
19570.8308313
18559.9029131
18620.7345865
19569.7373019
19569.7099326
18612.0826085
19568.3420691
19566.7106937
18538.5507589
18524.7418391
19568.6408675
18581.8723776
19565.8258094
19569.0356934
19570.5495806
18646.3498471
18626.5325369
19569.8053388
19568.9973199
18633.1011302
19568.0673656
19566.2178742
18531.9751125
18560.6498385
19567.3767535
18609.7139318
19565.6643354
19572.922033
19573.7775682
18923.4349642
18911.0739357
19573.5564529
19573.024628
18922.3524763
19572.6057307
19571.9484289
18877.1516101
18827.1454288
19573.039889
19571.4984058
18897.6566795
19571.7765748
19569.9279744
18824.1707328
18850.4606818
19570.8176129
19570.648453
18888.0345255
19568.9343224
19570.0906657
18653.9105918
18720.549579
19568.7629975
19570.0662144
18684.7257996
19568.1214213
19566.34122
18580.547367
18601.184889
19567.6268402
18666.3024887
19566.8326792
19568.7089748
19568.9860443
18723.6743295
18669.8518432
19569.7799276
19567.9801988
18683.5381782
19567.9766958
19566.4880612
18612.764154
18606.7997928
19566.9809521
18668.7978524
19566.8000319
19566.1880426
19567.4288851
18661.3597386
18640.0846577
19566.847247
19566.3950753
18638.2311218
19565.9852957
18613.7111103
19566.2906228
19559.1041002
19558.0681259
19557.0011721
19554.4030928
19553.1114684
19553.2430786
19559.4241201
19558.3195408
19557.0405791
19553.9665817
19552.7089443
19553.104075
19549.0723369
19551.5209219
19550.4401305
19554.0231487
19555.4728135
19553.9186111
19552.1349989
19550.1598599
19550.5983004
19553.8565946
19555.5666417
19556.4485524
19555.5541472
19553.8041312
19552.1240458
19550.4932374
19555.8570818
19555.6731227
19556.1416585
19555.9217349
19554.8748355
19553.3253067
19551.7900278
19550.7935045
19558.577118
19557.4079292
19557.1853264
19556.6547053
19555.3086631
19553.5452581
19551.9355736
19551.528357
19555.4967538
19553.7684334
19552.3438213
19552.3068865
19546.4444852
19547.6497553
19551.312623
19553.7454734
19555.6025757
19554.1333186
19551.3347858
19548.5434459
19550.5201345
19551.3340739
19556.8361897
19557.6110243
19556.1553915
19553.743531
19551.3884652
19549.2311801
19555.5764465
19556.1391846
19556.5576674
19556.0874499
19554.7454051
19552.8628854
19551.1280517
19549.6710567
19558.8945835
19557.8276182
19557.5438613
19556.8586235
19555.2983242
19553.1161395
19551.3680132
19550.5954917
19555.2694564
19553.2102142
19551.7719701
19551.6459288
19545.0275211
19543.5180275
19553.6698542
19555.9787173
19556.9684725
19553.342751
19548.1935828
19545.4106142
19550.1637874
19550.631657
19554.6861339
19556.885176
19556.8093396
19552.7442694
19548.0863685
19545.9441229
19556.6094158
19557.1906319
19557.0771332
19556.8578789
19555.0168671
19551.6347809
19547.5527613
19546.4376448
19562.333185
19559.8372675
19558.8549125
19558.1118254
19557.09405
19554.9132111
19551.1658283
19547.0494278
19547.3764721
19560.3821609
19558.9060665
19557.1375072
19554.627856
19550.9075748
19547.7264886
19548.6379003
19552.0937415
19549.4650423
19550.1559623
19549.2341816
19549.0258167
19553.5238458
19557.029062
19559.9713554
19555.1064957
19546.7472937
19544.4522329
19552.8413856
19552.7507316
19554.9616774
19555.7182552
19558.4306061
19560.4321173
19555.5329038
19547.3916563
19544.6504599
19566.5992954
19561.2262956
19557.8691273
19558.2509449
19558.1309989
19558.4558445
19559.231355
19553.9219864
19546.2252179
19544.0434933
19563.884323
19560.9723125
19560.0324866
19558.9015819
19558.5333872
19558.0095097
19551.7366106
19544.7517233
19543.4936504
19561.940458
19560.1381432
19558.491705
19556.1642364
19549.705176
19545.1985051
19545.4768957
19550.890112
19547.7475054
19548.6804601
588.61577288
588.829835907
570.667318923
559.326974351
610.718478632
788.598485404
908.823249951
927.698569799
561.349620912
534.722679206
535.728758818
556.580392978
554.35333415
550.311899865
607.322999324
779.894745189
891.835169328
900.348898977
531.143556674
521.189470311
526.095044392
528.892513587
550.364877279
573.545700179
641.546244746
801.711458094
905.855827902
941.191081815
547.170487514
569.305572636
553.760312678
566.822389802
593.469594793
678.457507663
828.900922253
936.715503909
996.28827366
539.664176537
578.105481627
624.194168673
724.603825531
855.442144261
943.172803947
967.925852233
834.100083376
928.87596445
950.640560861
0.00974609055312
-0.0729971242841
-0.0719149271624
-0.0618074004586
-0.0456731378641
-0.0129377061489
0.0427529636597
0.232242412928
-0.119385140022
1.16951290771
0.0139709485244
-0.0211683186094
-0.0353216802968
-0.0426927632173
-0.0326731706234
-0.00240996723899
0.0605243715229
0.158457579483
-0.120786326407
1.32008731726
0.0922467476979
0.00452633099383
-0.0106925036217
-0.00999787870527
-0.00341740796419
0.0109897194172
0.0660798116158
0.220251561321
-0.147270493868
0.86127194232
-0.00822777777145
-0.0122435561471
0.00138108673806
0.0167073993454
0.0195517758495
0.11586369308
0.309002365048
-0.148591710178
0.780095121237
-0.0247364148355
-0.0416797881184
-0.000198977244943
0.16560891796
0.14699932146
-0.0699061144833
1.3250756904
0.0265639233415
-0.0897491530337
1.58561939107
19550.4735124
19549.1729539
19551.3967194
19547.807983
19549.192618
19548.5021439
19549.7010492
19552.663875
19552.7126308
19553.6627019
19550.3174719
19548.3416857
19550.6340414
19551.1008889
19552.450261
19552.6042441
19553.2875978
19550.359627
19552.1078427
19552.264924
19553.1898025
19554.4192166
19554.5265914
19555.4668288
19553.0288243
19553.4074032
19554.5058698
19555.6484083
19547.6018324
19547.7431403
19548.1654264
19545.2113065
19545.0889516
19546.2328189
19544.9062168
19547.4230543
19547.1379203
19549.7324318
19543.9876995
19545.4532952
19545.8414131
19546.5706903
19551.0485392
19552.1363858
19553.1916783
19549.9731554
19550.9084756
19552.3324578
19552.8186346
19552.1628784
19554.5611608
19557.6938619
19549.2987791
19547.0631882
19553.297696
19555.7840809
19543.5800035
19547.1620733
19546.964615
19545.871434
19543.0281464
19548.3089678
19547.5631927
19545.9997267
19545.4315406
19548.4827273
19545.137017
19549.5769128
19548.5301017
19552.1736134
19551.1201755
19552.7841871
19553.4540152
19551.1375511
19552.1062115
19553.5621657
19554.7109396
19549.000697
19553.8801618
19555.6637284
19552.8881618
19553.5733914
19555.7510163
19557.2234061
19547.2614003
19549.9188716
18219.0444009
18328.9191499
19548.9862032
19551.111296
19551.6766588
18225.9770416
18271.5656622
18325.2579744
18331.119814
19551.1076161
19552.1260604
19553.1905705
18284.5397132
18322.4387886
18333.1594138
18352.4835758
19555.3963799
19554.1528257
19555.8640597
18335.1371945
18371.4536588
18364.4169857
18403.8665965
19559.0350309
19557.4860983
19559.400565
18391.2279805
18417.3753521
18422.2053626
18463.1543941
19558.706732
19560.3352693
19559.1065807
18419.8068544
18316.2362369
18470.8969666
18341.7831247
19550.1744134
19555.5467188
19550.7753772
18172.7789039
17603.0503968
18201.9345762
17693.6052187
19544.8931387
19547.2414575
19545.148512
17502.4443447
17405.1114944
17589.478035
17466.7736455
19545.0019791
19544.6480366
19545.1171248
17455.0368292
17417.23166
17516.5547319
17413.4567287
19566.3263776
19562.2192518
18508.0067553
18426.0903904
18590.3036697
18563.4848959
19551.7189118
19558.1708483
19555.5092099
18402.8714443
18377.2446441
18557.1943849
18509.2256781
19554.1031832
19555.1695447
19556.0213507
18367.2176561
18362.5861347
18494.8239961
18469.3599448
19555.4995435
19556.862648
19557.2967135
18362.9425442
18376.4573393
18460.2116244
18459.0516439
19556.9755833
19557.6687668
19558.0670369
18385.8685477
18419.8986185
18459.575055
18419.8409909
19559.8519264
19558.6877019
19559.5731283
18436.5617558
18476.7502196
18408.3908894
18415.0786689
19558.9098551
19559.9225014
19558.3318183
18475.976433
18328.600873
18415.7927622
18257.2361546
19550.8980912
19554.8324041
19550.3670322
18191.1204702
17704.8047321
18122.650394
17666.3148717
19545.2912472
19546.9625414
19544.9667767
17605.4231801
17482.1796622
17575.1590407
17470.4739433
19545.1649436
19544.292928
19545.2898667
17529.6947534
17405.9973941
17508.6125552
17377.1605108
19564.0554154
19566.6989526
19564.9351018
18612.5020045
18596.9074702
18633.8405387
18598.6246292
19559.0198415
19562.9149725
19561.0711914
18589.1242635
18528.3555446
18579.3308693
18500.7049295
19557.820544
19559.6730126
19559.140443
18516.0864289
18498.1696954
18484.4863668
18472.700783
19558.3445446
19559.1578443
19558.8974626
18492.898748
18480.5803319
18476.261201
18441.9706777
19558.0432761
19558.4028837
19558.1833955
18464.4073556
18392.3487571
18411.0723346
18341.1067932
19559.2323497
19558.4755662
19558.976328
18381.3721368
18403.097728
18345.6898297
18359.8907082
19557.3873723
19558.6885572
19556.4499611
18402.8025162
18238.0056211
18354.3558697
18162.3456616
19549.4894507
19552.8677229
19548.4770834
18104.7630952
17645.6189
18022.2068582
17527.5504925
19544.4055507
19545.4176269
19543.7385106
17552.0887763
17460.6328917
17435.0922239
17361.3811372
19545.713498
19543.5524556
19546.2615452
17491.1783765
17376.8269432
17384.4913676
17356.788842
18635.561557
18595.334337
19562.2782484
19563.1523475
18568.3196777
18476.1802764
18503.161517
19560.2585704
19562.0578983
19561.3815148
18461.5968372
18464.1094453
18487.1601188
18496.2633242
19559.6119008
19561.0659269
19560.5422925
18480.0564386
18443.4856716
18519.3069412
18498.7616477
19558.5052366
19559.6731467
19558.9358412
18410.1095417
18338.2835448
18464.2329727
18352.6167266
19558.7294221
19558.585134
19558.2979309
18340.5425635
18348.4232676
18326.4429343
18312.1163163
19555.4560407
19557.0922147
19554.3897167
18343.6226923
18136.1333945
18277.0638152
17962.1694835
19547.3882247
19550.4749379
19546.6590301
17991.0658657
17493.5550139
17806.8010973
17398.2567974
19543.2239942
19544.6721929
19543.4154187
17405.9008012
17354.4218589
17355.7232694
17376.5426231
19546.7600399
19544.1049792
19547.5118619
17375.8010359
17358.7824335
17421.2992192
17389.2395636
19561.149386
19561.2790196
18538.8872661
18511.9110179
18447.6581413
19559.1744885
19560.0999965
19559.1680825
18475.3200543
18346.3190512
18397.4903044
18331.7443882
19557.7409842
19558.4318858
19557.4940777
18311.233813
18266.7406799
18312.3287483
18226.6804411
19553.277661
19555.781156
19553.0905951
18218.9523182
17901.8996755
18158.3521937
17869.1109574
19546.6410628
19549.9677501
19547.5311144
17761.1232686
17411.0390796
17770.2848265
17519.3449334
19544.671118
19546.5237915
19546.4414024
17381.1117726
17413.6439159
17500.1990442
17535.5298064
19548.289303
19547.1308847
19549.455769
17463.373068
17373.0430443
17592.9853398
17313.3600873
19553.6277097
17908.1819775
19548.721659
17813.8628601
17561.7389849
19547.7768305
17530.0814614
17559.8096805
19550.8883244
17613.1140131
17300.037948
4.56971270869
1.24119203183
3.80664389504
0.857736513224
572.387746667
555.96232122
0.0700692819118
0.0407262593887
0.0453799730562
0.0312723520698
592.200435465
566.31481873
573.379481349
0.0438565163729
0.0521893296067
0.0425129307887
0.0735541804968
579.496593732
575.061781379
571.684949528
0.0512322613566
0.0510413818239
0.0991933585952
0.0937316466791
565.205868171
564.800833601
558.158467529
0.0728922027386
0.197628368465
0.101377851005
0.108023135907
569.633584943
553.768763783
562.696305251
0.386192697337
0.394983391885
0.125321383738
0.195733991227
689.385162031
603.334394748
683.578652753
1.08859251289
4.20671240512
1.22775449176
4.01058274783
871.549073623
780.413557036
859.339121958
7.42999432942
10.3064242836
6.93270728076
9.80749018787
919.227762014
897.291148699
906.971568613
9.91975474008
8.37336692556
9.57463051472
8.24325267685
916.993070949
907.291944647
899.651738522
13.0945187056
27.4049222147
13.00858668
28.0788850691
546.363953468
543.601546693
532.293972987
3.13868228046
1.15685538503
3.11539434586
1.34849637698
526.391504344
523.217583397
516.459212901
0.434176871384
0.0412799771251
0.690791121446
0.157142321084
550.744746294
519.373138208
529.215933288
0.0494032410641
0.0643877026007
0.0493399810804
0.0528248730189
556.666390878
537.996827349
541.794451593
0.0871290564121
0.0999374453154
0.08707150025
0.118074996428
550.687186313
545.560144439
550.919263579
0.115263850603
0.128215835907
0.209472577119
0.204578628595
563.469347804
559.323580615
578.680485675
0.104072706972
0.328604049308
0.286890624911
0.761846299477
687.275226515
623.804387573
701.883847699
1.6257019261
4.29786334697
2.18979248483
4.72275345145
854.844246196
789.258981279
858.866029936
6.87140149003
9.49399806632
7.30308950221
10.029375639
901.270267638
895.075714571
906.679776003
9.51126577047
8.53331072778
9.78788581052
8.83398592765
886.821345472
910.655827229
895.690017434
13.7035694367
28.9303678707
14.6823649842
29.7794177511
523.258688092
525.502585336
527.613639369
3.61450721958
1.94235597703
4.10161249161
3.23119855065
524.060937493
538.593203501
546.810343262
0.960448735555
0.599203882032
2.24656660061
1.63776087983
525.732510256
549.479729104
546.532954736
0.2584546085
0.0548816647401
1.22848733612
0.675026989124
538.406790192
546.146932808
552.409823579
0.0617202193555
0.124748783923
0.318971216761
0.943812346888
561.791920171
560.941877657
569.917209467
0.393652428745
0.912802570007
2.16756864783
3.17779441367
594.941963159
581.923031351
609.727138368
1.23461257422
1.6636458497
3.32165155005
3.24089853433
718.980302519
659.951311964
737.590588951
2.87019989322
5.30617139304
4.02970672638
6.17191719292
868.343258205
815.495772885
881.983071164
7.88034649015
10.7029841535
8.60446484013
11.2986400632
921.07028211
921.822840057
943.700398102
9.61243676355
8.37733339848
10.1709998425
8.76106429269
929.433508934
974.352260783
961.691957109
13.0023652312
25.0342206199
13.0914424813
25.405568345
565.828586594
561.772551482
2.71782173118
2.23839452842
1.91316982741
562.097762793
566.64484481
557.495006296
1.67810053767
0.826545181455
1.29019445013
0.782063635755
558.602074606
546.095437433
553.838038139
0.762571416077
1.67703279049
0.869434260115
1.082844546
575.985077074
570.069850241
586.28116802
2.80658656148
3.30618485628
1.77970322463
2.21704956012
626.082959369
606.131719644
639.642138037
3.21001099602
3.06595001485
2.39724995747
2.9529139984
755.282430822
700.78643934
776.891832784
4.15359886698
6.69633898518
4.88599769027
7.82903097962
896.5104873
844.914732607
907.504050602
9.10674757454
11.9563068061
10.1122023887
12.7502349899
963.452443905
944.870970897
973.903285223
10.6750456699
9.14352494723
11.119250846
9.43000413764
980.756558245
990.831080104
970.546939278
12.6516194857
24.5543081025
12.9970514833
25.2129244369
550.492345884
561.642656741
0.756092712942
0.560177512271
1.25497252271
1.49049427023
600.837635849
586.503021136
607.917006083
0.361525319549
1.00720565526
1.42417397572
1.55489088842
662.69267757
633.412778161
673.798522058
1.744388779
3.21274758671
2.32088890331
3.8401698707
792.606624402
729.442784237
789.601331182
5.79524725236
8.81049078476
6.32791301221
9.59153500186
911.844584035
851.638080784
906.405681782
10.2965881553
12.1081820808
10.819943332
12.0562651926
961.795475197
936.342453264
951.067805794
11.8540735078
11.0348577306
11.5782507871
11.1874995512
950.761783201
954.569664452
948.956104306
15.8586589477
29.2365685195
16.8775967863
29.5579946252
770.61210543
8.53920304304
892.746575665
9.86243359701
10.7003403554
8.67036236021
9.7009781588
948.823401672
11.1853547522
11.1977586544
10.4419245246
9.91162922707
948.10002823
17.4346265846
32.7851155148
14.5226221508
32.1912239224
19547.3446613
19547.6003783
18214.7345196
18249.9900005
19548.6027059
18238.6805751
19546.4737244
19549.0909065
19550.9004222
18281.0299949
18331.2955451
19550.1658623
19549.9612593
18270.7342702
19550.8728818
19548.7828529
18245.9519659
18259.5095187
19549.8158069
18265.6391436
19549.8162488
19551.5172354
19550.7485238
18260.6952436
18284.1575096
19551.6769856
18273.7408595
19550.3924744
19551.8844826
19551.7545667
18290.6863374
18329.6400396
19551.0407701
19552.4267698
18297.8684143
19552.517114
19553.0467784
18311.8951064
18330.5694206
19552.7512605
19552.8429011
18304.1025966
19552.1300488
19551.2537715
18297.8375508
18292.9903128
19551.9331043
18301.1181222
19551.6626359
19552.5112913
19552.6091952
18309.8516932
18317.8281805
19552.7730443
18309.8904546
19552.2087638
19553.0333959
19553.395634
18316.8237916
18337.9641934
19552.9133741
19553.6667368
18320.9828424
19553.3246981
19554.0684242
18331.9349507
18343.888529
19553.528181
19553.9765268
18326.2733305
19553.8431471
19553.1527775
18344.6933606
18328.3846557
19553.2844465
18341.8663336
19553.6995331
19554.4342837
19554.4090961
18356.6504378
18373.1391461
19554.7665093
18356.7188213
19554.169804
19554.2747721
19554.2178561
18340.643829
18375.9009659
19553.7436223
19554.5101384
18353.1967741
19554.7245787
19555.6644796
18387.5690109
18388.1020816
19555.157637
19554.942873
18369.2879641
19554.8566754
19554.8766035
18405.8489845
18392.5347235
19554.3435963
18417.2111799
19555.8850475
19555.8735064
19559.0139427
18414.2425645
18452.9150544
19557.4271593
18439.0578876
19557.0583585
19556.476573
19556.4415679
18406.5229786
18440.3763367
19555.5277878
19557.5012784
18425.0619362
19557.68882
19560.4280865
18454.5968707
18456.3723605
19559.3312306
19558.727465
18440.9638865
19559.635872
19560.8469687
18419.2361359
18455.8447867
19558.9989904
18449.8274239
19561.9383599
19558.9403691
19558.6545441
18388.9338705
18333.5736583
19557.021747
18409.4068524
19561.4464381
19561.9724572
19561.8170082
18462.1628252
18463.4601921
19561.0042333
19562.8660017
18455.5464431
19561.6630813
19560.0597765
18340.8148519
18420.8413351
19559.4968824
19562.392753
18415.619146
19547.087387
19553.942084
17977.9380836
18191.6174913
19552.9506436
18014.8072756
19546.4178342
19540.3421475
19531.9852494
17764.5021311
17634.0403834
19533.0463956
17821.2433403
19538.547041
19549.1683687
19556.0026549
18208.0363375
18033.8146956
19555.1718125
19549.8790784
18036.1466385
19542.4929374
19536.5562419
17665.05072
17850.2123384
19535.121424
19543.0674466
17843.3244349
19526.1218667
19527.606623
17422.328487
17510.2933135
19528.0602338
17444.272447
19525.386367
19525.3425454
19525.7573063
17386.9973029
17433.7983247
19525.6548816
17419.9254815
19525.1705625
19527.4972547
19531.5972589
17542.0524672
17505.8334163
19529.962124
19528.4022788
17472.7841624
19526.8746638
19527.1083145
17449.3464971
17457.8373001
19527.033547
19527.1066476
17441.22956
19524.5990299
19526.6738217
17491.8709285
17476.1071016
19526.647478
17512.5156355
19524.8556896
19518.0322848
19525.0402609
17303.22442
17418.3050025
17319.6193215
19524.3876309
19518.6616152
19524.8323008
19527.2415445
17494.4494395
17530.2324091
19527.2089989
19524.9356591
17516.0605844
19517.8032458
19524.4096874
17409.6279595
17325.2213751
19517.9909639
17315.6077992
19524.033135
19562.829232
19564.4129732
18466.0821574
18512.985265
19561.8860068
18522.2079559
19564.1524194
19560.7443132
19555.2852755
18444.9432961
18450.1916564
19558.4852746
19557.613697
18502.366135
19563.0860067
19565.3041012
18520.3292225
18562.2995139
19564.3459102
18544.8372028
19563.9489304
19561.4946391
19561.8640032
18515.4096229
18555.3115901
19559.356118
19563.313868
18544.2932697
19554.3919697
19552.8840038
18379.1451393
18446.0544151
19551.6695503
19555.4689541
18444.93842
19553.6504363
19552.0467845
18384.3256543
18433.7062772
19551.5602578
19553.8548679
18438.1001215
19556.7680554
19560.4912685
18500.2454277
18541.4606095
19557.9081745
19559.2876301
18491.0779388
19555.9034664
19557.1885544
18467.8376271
18528.8290023
19555.5101448
19558.0948518
18475.7776545
19554.4209978
19552.8240329
18368.2057402
18423.7910014
19553.45939
19554.1209897
18409.3355893
19554.7459541
19554.123838
18365.385569
18398.7022956
19553.8606025
19555.0383541
18400.3785867
19555.4071045
19556.7173074
18462.3756491
18488.5247454
19555.4323861
19556.5022617
18451.0081874
19555.5133528
19556.5310659
18434.707707
18479.4588808
19555.8659299
19556.4814896
18440.2904671
19555.5523683
19554.4879555
18365.9182922
18398.1601635
19554.8007829
19555.3093095
18399.1565683
19555.7436649
19555.0786547
18370.0243337
18404.2972243
19555.0671057
19555.7841412
18401.5764989
19556.3362072
19556.6555414
18430.4897895
18457.66539
19556.0965119
19556.8405325
18430.8368766
19556.5094494
19557.1569964
18433.5121634
18457.5944281
19556.6455378
19557.0697286
18431.622428
19556.0421296
19555.0046294
18395.2766898
18407.7457516
19555.0444084
19555.851777
18413.9525865
19556.3411953
19556.0401093
18405.1424353
18436.1507556
19555.4289472
19556.866209
18425.3034081
19556.6336599
19557.0329769
18435.7415835
18451.3621712
19556.7185172
19556.824664
18442.0968417
19556.6054008
19556.471595
18434.8808091
18439.2938097
19556.4987169
19556.4526221
18438.4711633
19558.0235461
19556.744205
18458.0774193
18445.8972721
19557.6673001
19557.3245428
18449.309677
19558.932769
19560.3749029
18471.0338056
18460.6523798
19558.7368903
19560.1197831
18454.1022638
19557.3086313
19556.9465365
18433.8457657
18401.9690344
19556.5037663
19557.5711667
18431.1196232
19558.2853528
19560.0343854
18438.2391719
18407.6323319
19559.6641291
19558.5924717
18434.2252636
19562.082692
19561.7033722
18461.8601542
18461.8873067
19562.3600173
19561.4631761
18447.8173537
19561.3357096
19559.0788603
18412.6838797
18308.9814705
19561.5186751
19558.9951885
18395.8420887
19561.4311113
19561.1177169
18437.6243867
18402.2705685
19560.9345285
19561.571712
18422.8649068
19560.5372594
19557.6530863
18283.5487565
18349.2206903
19558.1144609
19560.4550477
18370.2485826
19549.1858064
19555.0318379
18029.2523573
18173.5802945
19549.1931827
19554.6935625
18014.4307707
19543.1299449
19536.7446814
17855.8710797
17690.9611785
19542.9073403
19536.8271964
17840.7637438
19548.0835254
19553.460509
18150.0659145
17970.1759824
19553.8065951
19547.7589099
17992.8689158
19541.8760671
19535.6056564
17680.4559736
17807.1444739
19535.7630104
19541.51549
17825.7286936
19529.5238002
19532.1530098
17523.7019271
17591.8440848
19529.1453588
19532.0725811
17529.577772
19528.0671406
19527.802653
17478.5400098
17487.1315157
19527.9528078
19527.8037433
17497.4071116
19528.7823238
19531.1215077
17586.041199
17506.8325044
19531.2090787
19528.2129236
17525.5658126
19527.5571117
19527.3285431
17488.3528092
17469.7709741
19527.4635595
19527.3367541
17495.2365066
19524.7626737
19527.5588811
17533.6740043
17528.3792456
19524.8260938
19527.4923845
17532.1920486
19516.7569288
19523.3558532
17328.76993
17398.1851686
19516.8020746
17328.2051311
19523.070884
19524.1027328
19527.0856631
17526.6759067
17510.2707263
19527.0097708
19524.1223882
17527.6320478
19515.8885087
19523.191338
17390.3931463
17305.120934
19516.0126829
17320.6897525
19522.6274136
19565.3948436
19565.2247517
18587.0390595
18585.2062722
19564.6549264
18604.1842874
19565.687095
19564.8731056
19563.118424
18584.5762646
18614.8153459
19564.2230784
19564.1636539
18621.0196448
19565.8394221
19566.289507
18592.3692268
18620.4218953
19566.1216126
18609.0341707
19566.0908934
19565.5281001
19564.8355643
18607.258129
18605.1047863
19564.6766986
19565.5778049
18617.5660792
19561.7807534
19561.9410763
18573.7611409
18598.4075305
19560.8047845
19563.0043394
18579.7697756
19560.563235
19558.488036
18553.9448432
18534.3048814
19559.541125
19559.5183355
18555.8667189
19562.4132247
19563.7419847
18582.39885
18546.8219974
19563.3753245
19562.5372997
18562.4515737
19561.335047
19560.3264998
18518.1901583
18520.1350509
19560.234527
19561.2691915
18539.7346528
19558.0908063
19557.8402251
18508.2868955
18521.8667889
19557.3779741
19558.6364644
18510.5811973
19557.7589341
19557.5812287
18502.8148201
18505.2702321
19557.3392358
19557.8728641
18505.1431011
19558.6582778
19559.4132571
18503.6535557
18469.3436692
19559.1550556
19558.55191
18488.3362597
19558.5178451
19558.2693044
18483.645184
18469.6469978
19558.3656035
19558.171542
18485.7279656
19557.9832556
19557.6517853
18490.2687039
18503.3149798
19557.8001731
19558.0949154
18499.0355564
19557.886249
19557.7014969
18483.9934082
18476.5394857
19557.7678194
19557.4788682
18490.9348397
19558.6639894
19558.5699524
18483.4789837
18475.7804994
19558.384138
19558.5928852
18481.8185145
19558.3682096
19557.5807538