/*--------------------------------*- C++ -*----------------------------------*\
| =========                 |                                                 |
| \\      /  F ield         | OpenFOAM: The Open Source CFD Toolbox           |
|  \\    /   O peration     | Version:  v1906                                 |
|   \\  /    A nd           | Web:      www.OpenFOAM.com                      |
|    \\/     M anipulation  |                                                 |
\*---------------------------------------------------------------------------*/
FoamFile
{
    version     2.0;
    format      ascii;
    class       surfaceScalarField;
    location    "6.8";
    object      alphaPhi0.water;
}
// * * * * * * * * * * * * * * * * * * * * * * * * * * * * * * * * * * * * * //

dimensions      [0 3 -1 0 0 0 0];
oriented        oriented;


internalField   nonuniform List<scalar> 
92311
(
0.203531623829
-0.000387918673142
-0.000654964035204
-0.203084246908
0.000595591566236
-0.000271795893797
0.203754818269
-0.000188329080633
0.000236950010072
0.203653629743
-0.000893958095785
-0.000620964099277
-0.203113063609
0.000586553058222
-0.000575805968271
0.203892391898
-0.000218456397006
0.000283731870167
0.204133399115
-0.000441665528986
-0.00045136255766
-0.000479708651659
-0.203210947934
0.000523574910157
-0.000485172155148
-0.000482123995669
-0.000331520871602
-0.000163592542636
-0.000122389847369
0.204287366682
-0.000201732917757
0.000408241713828
-0.000318810771286
0.051068706393
-0.000153867473048
-0.000177742730171
-0.000159540857231
-0.00016689904811
-8.98484290326e-05
-0.0508103965278
4.80607451636e-05
-0.0511955191844
0.0512297985155
-8.12099936864e-05
-0.000103635147164
-0.000109711221093
-7.75735388161e-05
-5.06521914503e-05
5.69720514708e-05
1.8571201364e-05
-1.82892456854e-05
2.20470448378e-05
2.23248426214e-05
2.62182736031e-05
-0.000291816193689
-0.000188737732887
7.48879182005e-06
0.000248156156434
-0.000609950871796
0.0001873548906
5.42545208759e-06
0.00050762592501
1.01210848283e-06
4.17274294885e-07
4.81971796385e-06
4.62740188419e-06
-0.000240612604989
1.15597142528e-24
-3.14344196542e-06
-3.46915278929e-06
-4.241529434e-06
-1.36229231961e-06
-1.04821096742e-06
-1.76694341151e-07
-4.42881606419e-06
-0.000152319229142
-0.000134794350787
-0.00014233322245
-0.000143322192779
-4.86394507012e-05
4.32607492448e-05
0.000179951297751
0.0110700754207
1.91188423535e-05
-3.39910154114e-05
-0.0111565172418
0.0108288272242
-2.17261020152e-05
0.000150751990442
-0.0108909664507
2.42909504096e-05
-2.66215529628e-05
4.22264370723e-05
-2.41969119053e-05
0.0511808198326
-1.99617932662e-05
-5.83857544643e-05
-5.23938894743e-05
-1.9500525587e-06
-1.61978040007e-05
0.0511612952569
-1.12659154806e-05
-4.89643995114e-05
-5.83683784671e-05
-0.0512227073659
0.000115952095504
-1.67486773788e-05
0.000119294028869
0.0107804848941
3.52790136944e-05
-3.34655097752e-05
1.84677254791e-05
0.0127756416761
-1.07090294821e-05
-9.19077451298e-06
-0.0127983349965
0.0127700051205
3.95510126227e-05
-1.3752339021e-05
-0.0127932614161
-0.000375714217432
0.20350067609
-0.00139984597515
0.00116550556639
-0.202890452306
0.203710439245
-9.96230028573e-05
0.000301473357155
-0.00015768388627
-5.88141285365e-05
0.203575473054
0.000584454352181
-0.000390446910101
-0.000718589599712
0.203473991412
-0.00138859932439
0.00112453594419
-0.202866873289
0.203772855604
-9.93312627057e-05
0.000221359343021
-0.000102125136145
-5.07600296196e-05
0.203575384476
0.000507903283267
-0.000318163165141
-0.00028045582861
-0.000382734100334
-0.000377391653063
-0.0013073919912
0.203532903387
0.00100779143324
-0.202636915884
-0.000274354040879
-2.1151200299e-05
1.35270120231e-05
5.47852632279e-06
6.7011714148e-05
0.203900620965
0.000229624356255
-6.96954436165e-06
0.0507128864649
-0.000103003378093
-8.10496169855e-05
-9.75932911158e-05
-8.86933055322e-05
-0.00029990568095
-0.0505575676632
0.000234499204608
0.051093415499
2.6288471761e-05
-1.48772250732e-05
-6.44326300373e-06
6.38630766205e-06
1.28875627395e-05
4.19806056703e-05
0.000154049853393
4.92731679101e-06
-0.000583754896035
-2.09668227246e-05
-2.02134252003e-05
-2.71433699771e-05
-2.79854188837e-05
-0.000290239841056
-1.61235550071e-06
-8.8461240572e-07
-1.3349429307e-06
-2.4047944355e-07
2.19194486045e-06
-5.56960546499e-08
-1.36702384877e-07
-1.09703115697e-06
0
0
0
0
1.69496596225e-29
0
-4.78815075395e-25
0.000171827771399
-0.000114349510177
-0.000128857024895
-0.000109153523101
-0.000133789682005
0.0508854134182
-0.000240908239513
-0.000120587028942
-0.000145262038148
-0.000114604597638
-0.000136635427484
0.0508437497449
0.000120904562466
-0.0506531124049
-6.70295861671e-06
8.91338826144e-05
0.0114079719762
0.000131479477907
-0.000148399066935
-0.0114512393234
-1.28834331937e-05
0.000139850100163
-0.0112903767014
0.000107006623482
-0.000118568597121
0.0112139048733
-0.000137186990519
0.012653570505
-2.84037099298e-05
2.12259230014e-05
-0.0126292583599
-1.32190003703e-05
3.46024302457e-06
1.10322975018e-05
1.00004706697e-05
6.2887469742e-06
0.0510043183898
8.51640245024e-05
0.0510584587356
-9.65875863737e-06
1.88417935042e-05
7.46231106365e-07
7.93938088744e-06
0.000116724129848
1.86567938554e-05
2.72020949962e-05
6.45116837976e-06
1.15037738611e-05
0.0509707431963
7.7916210742e-05
1.46788015389e-05
-3.14877250728e-06
-4.11497666081e-06
0.0127535002059
3.50176481867e-05
-1.46022730406e-05
-0.0107644926264
2.55934726212e-05
0.0107597710526
-1.76418113195e-05
4.0298329111e-05
-1.08392162214e-05
0.0127460317873
-0.012725735356
2.1874914191e-05
0.0127067810738
-3.91797193449e-05
5.58319447825e-05
-0.000291975720786
2.15385387705e-05
2.55950155515e-05
2.56457892059e-05
-0.00016468462763
0.00017090218141
7.96810549172e-06
6.22967162114e-06
-8.40396872533e-06
-1.6832102933e-05
-1.14887541607e-08
1.51015347488e-06
-0.000658442409375
5.55478608364e-05
0.000620739504092
-9.28813153136e-07
-4.71439900106e-06
5.50516089941e-06
-1.62228107188e-06
4.38575497394e-06
-6.58530928553e-06
-2.95643325523e-06
6.5002726386e-06
1.2792219027e-05
1.81768953617e-05
1.35609411634e-05
-0.000133319508362
0.000140181983732
-3.69225941394e-06
-1.60229306002e-06
6.08542581406e-07
-7.49178029963e-06
0.0127224397604
-7.34150389024e-06
-0.0126804990504
-0.0127235706627
-0.000209565198262
6.32922805039e-06
0.0127615795672
-1.10636794004e-05
1.82822396873e-05
0.000189942829464
0.0109722668194
-2.83944631834e-05
0.000198205898771
0.0110349719809
-0.0111247087054
7.33820317488e-06
-0.0126742613448
-1.69697658949e-05
0.0109397338508
1.1916694411e-05
0.0127581491245
-5.14324533061e-06
0.0128025610596
-0.000188351338672
3.08756230809e-06
-6.38154211111e-06
7.63877635448e-06
-0.0127963780893
0.0128174640226
-1.1441329677e-05
1.93215318945e-05
0.000170542081728
-2.45697509453e-05
0.000160190458286
-0.0108583639384
0.0107912848554
2.87027733733e-05
0.0128222943332
7.29199518107e-06
1.72283386478e-05
-6.47733713716e-06
-0.0128330264756
-6.84963867009e-05
-1.83280561784e-05
0.0128182583438
2.08151592299e-05
1.54236537338e-05
0.012832915733
-1.41949737257e-05
4.30864802319e-05
6.84665918483e-05
0.0107636344323
-3.84403288849e-05
0.000121801287411
0.0107381534258
4.36700124832e-05
1.78152310037e-05
0.0107277274282
5.11996357868e-05
0.0128223589016
-1.63375792859e-05
-7.89922269597e-06
-0.0128051123973
0.0127843587947
-2.07882687131e-06
5.39918047615e-05
-0.0107488031637
0.010757596726
-4.56212862231e-05
-0.0107114343395
6.15089676414e-05
0.0107215492706
-4.48633885144e-05
-1.72656618139e-05
2.35406972913e-05
4.9365589931e-05
4.24396419795e-05
-4.1456072144e-05
5.95131132577e-05
-1.03845590816e-05
-4.80202431332e-06
-0.0127911351621
0.0127693206897
5.56315652018e-05
5.49450408497e-05
-0.0106993332528
0.0107146668087
-0.010649143069
0.0106765292228
4.73929948664e-05
4.28153926437e-05
-4.5389722384e-05
-0.0128161342517
4.0411285094e-05
-5.51835613901e-05
-0.0106405025139
5.15477436436e-05
-0.0128181086404
5.26703598192e-05
-0.0106994608664
5.60658390129e-06
-0.000351681612005
1.17550798233e-05
1.47949936493e-05
1.32325415986e-05
1.00243432854e-05
0.000176076189125
-0.00034298617013
0.00033179965332
-4.4668437299e-06
3.99482230658e-06
3.28574186247e-06
-3.71433972268e-06
0.0003336175614
4.34592638534e-06
9.19563775645e-06
6.40213968194e-06
7.98164649421e-06
-0.000261122260355
0.000339128560454
-0.000547425332888
4.59911690109e-06
1.07321844088e-05
1.22670515346e-05
9.70558642359e-06
7.12489498862e-05
-0.000249592849986
1.99783231294e-06
-2.01701964787e-06
-2.06442753927e-06
2.51929635786e-06
-3.64771226655e-06
4.34865078223e-07
2.61817948186e-06
-0.00050967706198
-2.61535464115e-05
-4.33993908178e-05
-5.23861809596e-05
-2.76929255309e-05
-5.00008171742e-05
3.31921902226e-07
-1.08389053148e-06
1.58451923741e-06
-1.88489971014e-06
1.47795446709e-06
-3.35562316475e-07
-3.71399472293e-05
-6.84185079395e-05
-7.32782751967e-05
-4.16456249577e-05
-3.66523866245e-05
-0.000276238131945
-0.000152898537677
4.61413921699e-07
8.81432570587e-08
8.33333448978e-07
2.12369984462e-06
-3.68630904221e-05
-3.7483502336e-05
-3.85601595185e-05
-0.000449574309105
-0.000211348664095
4.13604571216e-07
1.25775180445e-06
-6.23322241926e-05
-0.0126254194957
-0.000116000560145
0.0126497813088
5.11817665365e-05
0.0126316958499
6.76557108316e-05
-7.59686102294e-05
-0.0126150435434
0.000113593216662
0.00012836460145
0.0113481109093
-0.000140801936368
9.53797410226e-05
0.0113913719437
-0.0114287587392
0.000105516169548
0.0126576990421
-7.21346700149e-05
-0.0126096437577
5.87934239513e-05
0.0113332000777
0.000102369960125
-5.38917567181e-05
0.012670936637
-0.000122246180835
4.09317251293e-05
-0.0126798424083
4.59529401492e-05
-5.94428303023e-05
0.0127048301391
0.000119216421
0.00011589093713
-0.000128623140101
0.000145695502996
-0.0112696056888
8.38497907841e-05
0.0111973947587
-6.56903359131e-05
3.29043227516e-05
0.0126963880652
9.22617927644e-05
0.0112588634747
-7.06120438883e-05
4.85149535057e-05
-0.0113130977148
0.000168369578849
-6.5494178164e-05
0.0111778561529
4.41807569559e-05
-2.09105263804e-05
0.0126844001743
1.37979138022e-05
0.0126627421143
-0.000123444318365
-0.0126408762483
0.00015226462969
-0.0112640668183
0.0111849169656
0.0126908779555
-0.0113263361598
3.44106550176e-06
0.0127629858095
8.48102296977e-06
5.21283977537e-05
0.0107539441576
-4.44461860678e-05
0.0107219321207
5.62918404201e-05
4.99191454742e-06
1.14771072287e-05
0.0127348614192
9.12415544085e-06
-2.37675060899e-05
4.85419391029e-05
0.0107649625935
-3.8698861139e-05
0.0127399446483
1.77462011898e-05
0.0107351011585
4.95514960372e-05
7.98241809274e-06
0.0127201795642
4.89494563196e-06
6.35675712586e-06
-0.0127218901932
-9.3501530275e-06
0.012708622561
2.05529128169e-05
-1.70050094749e-05
3.87365685535e-05
-3.08161358202e-05
-9.97876545222e-06
-0.0107335158751
2.58594612746e-05
0.0107277998631
2.01999208781e-05
1.9577826963e-06
0.0127067312664
3.68630447213e-05
-0.0127490332501
2.56241654075e-05
-4.12179704629e-05
5.8458002357e-05
1.92962058427e-06
5.9968971431e-05
4.75763211275e-05
0.0107152391671
0.0106792853641
3.28351525999e-05
-3.95293781969e-05
0.0106916358327
2.21398501085e-05
-3.75094810332e-06
0.0127263526779
0.0107268487363
0.0106868959862
-2.59628408515e-05
5.78881733147e-06
-3.00863630869e-05
-1.41459336755e-05
0.0106819922314
-7.62410583436e-06
-3.08910769928e-05
0.0126922910202
4.36214543645e-05
0.0127100167904
-8.81724811883e-06
3.48781201865e-06
-0.0107224040096
0.0107066888892
0.0126977190863
-3.29564715518e-05
1.02699518257e-05
-1.5019844649e-05
0.00055369683324
0.203641685171
-6.07709326569e-05
-0.00024696246471
-2.6501522229e-05
-1.08967386181e-05
-4.55723181008e-06
-9.97640950566e-06
-7.52664049789e-06
9.99082015652e-05
0.0509309603268
-1.0877306528e-05
-4.39473286286e-05
3.18484361257e-06
-7.55468300281e-06
-1.6647115573e-05
-1.20360266607e-05
-0.00016056187967
-0.000318134731708
0
0
0
0
5.82502433883e-29
0
-3.69872331025e-29
-0.000139589881167
-0.000132757048699
-0.000125313058701
-0.000147193725931
0.000358390717439
-0.000136036932565
0.0510764318131
-1.55209860093e-05
0.000162106216955
-5.72629346682e-05
0.0110986789105
0.0508804650226
-3.18418852989e-06
1.28480705336e-05
5.75757737953e-08
1.30537985673e-05
5.14754116718e-05
0.050829984127
-9.19954354757e-06
-7.96877713071e-06
-1.58262825176e-05
4.92481897054e-06
5.97013503763e-05
3.91849788563e-06
3.28503677401e-06
0.0107536702621
9.32227709694e-06
-1.79634103407e-06
4.32804484928e-05
-1.74377287838e-05
3.95471745177e-06
0.0106813008053
-2.32781854348e-05
0.010674506571
8.84065277916e-06
1.08345546015e-05
3.63975491076e-05
-0.0106801502974
-4.78789071493e-05
0.0507953617382
-4.43384022379e-05
-2.3740757055e-05
-2.81756250658e-05
-4.23384684027e-05
0.00011347822065
0.000118645773929
-5.88557514852e-05
-5.45915611535e-05
-7.11190506315e-05
-7.20826262162e-05
-5.27812654771e-05
0.000190399666618
0.000181405151865
0.0508044759105
-0.000130289530468
-6.28091904118e-06
2.36856198614e-05
4.27372309571e-05
0.0106806455496
-4.87735599473e-05
-1.54893610921e-05
8.80301665088e-05
5.72843315013e-05
-0.0106497550419
0.0106207799053
-5.93120320366e-05
1.52162093525e-05
1.82614004369e-05
1.63931369701e-05
-0.000286604908205
-1.9604962587e-05
5.56090283397e-06
-7.8449842498e-05
-2.23701520719e-07
-1.77222823919e-05
-4.11401340146e-05
-1.50001747813e-05
-0.000209267375879
1.32598627867e-06
-1.60320512686e-06
5.51940036321e-07
-1.81387844358e-05
-3.34521346055e-07
6.28597068126e-05
-0.000171701887326
-2.2634254054e-07
1.58941474932e-06
7.78119573617e-07
3.78542525788e-07
5.5902115009e-07
2.73944643198e-07
3.73582152008e-07
3.30171233311e-07
-3.94842299915e-05
6.41363404216e-06
1.04094445714e-05
1.00282412921e-05
2.92005096384e-05
2.74176947009e-06
-6.70576565034e-05
1.4899312828e-05
1.51910210754e-05
1.42039866049e-05
-4.45491171371e-05
3.60018605502e-06
-0.000147648141607
4.94837077443e-05
-0.0127270463075
-0.000161480637487
1.14465057401e-05
-2.05162071875e-05
0.0127587732464
-1.5148218871e-05
0.0127222819677
0.000149736681139
0.011118500082
-7.28541474187e-05
-4.72615013507e-05
0.000172907925227
0.0110070907535
-2.62607272174e-05
-6.45241250729e-05
0.0110393667657
0.0127552637046
1.24805539747e-05
-0.0126941253899
-8.10015024039e-06
-5.90183645502e-06
0.0126862287054
0.0126976886997
-1.02043001802e-05
2.13379520872e-05
1.29898398405e-05
-4.47952107802e-06
1.16478833794e-05
0.0107376140619
1.47468839922e-06
0.010723355376
8.9273336928e-06
2.22271990242e-05
0.0126924567301
-2.03337960262e-06
-2.07600944781e-06
0.0107135323201
-0.0126856151047
-1.63619489082e-05
1.74498097634e-05
0.0126768720986
-2.38587924742e-05
0.0126777353607
3.47768982175e-05
1.21160809352e-05
0.0107004952482
1.46437232967e-05
-1.38680628023e-05
0.0106739028813
-3.20519777903e-05
0.0106933607091
0.0126678907669
2.71592888299e-05
0.0126678590735
-1.86554528931e-05
4.59792963899e-06
1.50217409794e-05
3.25264772756e-06
-0.0126576711964
0.012651791265
6.18987842483e-06
2.69369343089e-05
-0.0106958067249
0.0106837675822
2.60091441452e-05
2.83125252635e-05
-6.36080272794e-06
-4.22301349076e-05
0.0126625879777
2.02692462045e-05
1.57777875593e-05
1.40319572279e-05
-0.012652551179
-6.06685681851e-05
-2.22215127327e-05
0.0126544475889
3.69677686558e-05
1.43310462023e-05
0.0126414411798
-3.60903923556e-06
3.33338375982e-05
0.0106805929187
3.24930623043e-05
4.70224149157e-05
5.59963574412e-05
0.0106701219941
-5.0188987997e-05
3.00340834228e-05
0.0106660093542
3.75323167217e-05
0.0126444827202
-1.12765267234e-05
0.0126609440956
-7.48111677708e-05
-3.06687900366e-05
4.46516203637e-05
3.84177972393e-05
-0.0126528889105
0.0126603558836
-2.85233383291e-05
9.04092074489e-05
-0.01064703198
5.05179688224e-05
0.0106198043451
5.42276783289e-05
7.33406411864e-05
-5.35223036547e-05
5.17840913799e-05
0.012666263175
4.67118456431e-05
-1.82293543273e-05
-0.000699810370253
-0.0493953332576
0.0493206033751
0.000876034064806
1.29034874503e-05
-1.29666358739e-05
-6.93678189457e-07
-8.65588273963e-07
-9.97319242102e-05
-0.000871545156147
0.0498565281272
5.3381925257e-05
3.31307256008e-05
4.34312352677e-05
4.33144090739e-05
-8.26324269438e-05
-0.0497976966726
0.000722149150646
-0.00122980218953
-0.0499521005562
0.0500372312548
0.000962333687442
6.91417038789e-05
6.04424858271e-05
6.20978479831e-05
6.50431579735e-05
-7.4362443925e-05
-0.000724046815539
4.78342517122e-05
4.84601823035e-05
5.46529666808e-05
4.4114358725e-05
-4.43239927357e-05
0.0501910350027
0.000517480601458
-0.0501351585167
-6.27307509959e-06
0.000178263823114
-0.000559479418255
0.000612979606289
-0.000194746198974
-7.08618131909e-08
-7.23552689281e-06
-3.37085948496e-05
-4.6301805958e-05
2.78016557717e-07
-0.000697494837369
0.000744587326414
-0.000245926594351
3.3466831988e-08
1.49333369233e-06
-1.41270203041e-05
-8.78538479147e-07
0.000197753447717
-4.65235686827e-05
9.94681349731e-05
0.00063307922464
-8.38141379477e-07
-5.88999612128e-05
-5.67955255286e-05
-6.96170608875e-05
-0.000503985150178
2.16886946101e-05
-7.83973943026e-05
0.000123420227814
-0.00081041402897
0.000969274159907
6.23974751789e-05
-6.98993168039e-07
-7.24646048535e-05
-7.58337302432e-05
-6.97027723394e-05
-5.05418151204e-05
-0.000206453639661
-5.57225767283e-05
-5.03477917732e-05
-5.12836028947e-05
0.000858631561122
0.000326345110171
-7.7488646988e-07
-0.000718946003137
1.9199405663e-07
4.74625252892e-09
-5.40463473621e-08
4.00332722017e-08
5.48086144156e-09
1.16013406707e-07
7.75206097045e-09
-1.68416565702e-07
-2.60482286507e-07
-5.13484428299e-07
-1.07861762626e-06
-6.26575467927e-07
-1.20112472596e-06
4.32823728895e-07
4.38573656198e-09
0
-4.04143011466e-27
0
0
6.26460649545e-09
1.04416549182e-08
-1.19600088847e-08
-5.17388146893e-08
-1.45490837829e-07
-3.97586946112e-07
2.2174744229e-07
1.0000908749e-07
3.70914470614e-07
0
0
6.5785239737e-09
5.35805712868e-09
-1.19365811024e-08
-2.87121002365e-29
0
7.04232979967e-08
6.97761524609e-08
6.55064672378e-08
6.2315139494e-08
3.8411583102e-07
-8.43055866012e-08
0.000256588018414
-2.49673327987e-05
-2.14357010883e-05
-1.84157147547e-05
-2.58165270165e-05
0.0490322253058
5.21648790996e-05
-1.14418840759e-05
-0.0492386039985
0.0490794172528
0.000493581974196
-1.93836693078e-05
-7.67641494667e-06
-7.60802677688e-06
-1.82890486774e-05
3.06149650425e-05
-0.049293949559
-2.05915820202e-06
3.61947705716e-05
-0.0115128256056
1.05595776778e-05
0.0114676969666
1.47572746868e-05
0.011464027896
4.09984017683e-05
2.02607232719e-05
8.53107633337e-06
-3.95716681089e-05
-0.011497570458
1.48835139523e-05
1.90219577509e-06
3.58452035861e-06
1.80603135081e-05
-0.000385239632502
0.0122683120752
0.01222136942
0.0121740880205
0.0121659231715
-0.000102989818697
5.766476673e-05
1.87604086802e-05
6.57909783873e-06
-5.33210695202e-05
0.0114349404222
0.000652449564564
-1.16275416896e-05
-1.14011905396e-05
-1.96370007705e-05
-8.05032440734e-06
-4.39601074097e-05
-0.0494595440379
0.0495874480492
-2.39906721578e-06
2.00766077743e-05
-1.18662262503e-06
1.44893234035e-05
-4.80343486401e-05
-0.0496005152911
0.000682577808315
0.0115100301743
1.80351730505e-06
3.1053808932e-05
-0.0115394100809
3.66991918815e-05
0.0115660265652
4.24354333448e-05
-2.43553113728e-05
-1.87509668231e-05
-0.0115977833846
1.62137430805e-05
0.00112662948423
1.97758078961e-05
1.85274130877e-05
5.57406219209e-06
3.2637252468e-05
0.0491826185287
-0.000240854846699
-0.000204145934604
-0.000232762196423
-0.000193063491561
-6.26828237248e-05
-4.15650761361e-05
-5.0687858944e-05
-3.92930690394e-05
0.0495751632302
1.73319540341e-05
2.69012102205e-05
7.2876354782e-06
3.69472036081e-05
-7.15821013172e-05
0.0496708787383
0.00104858207596
2.17289385992e-05
5.91979960917e-05
3.38453901264e-05
4.48503977112e-05
-0.000177382781097
2.90215352519e-05
0.0114781603338
5.62209581591e-05
0.0114381108982
5.8109079333e-07
1.56600488465e-05
-0.0114427495246
0.000115778055079
-0.000119322126396
2.12498470559e-05
6.55130656254e-05
-3.38410666386e-05
-3.29625976909e-05
0.0115291654597
0.0114616207913
6.20267085135e-05
9.6288273121e-05
-8.11205066421e-05
-8.29270287498e-05
-0.0114788606768
0.049810699973
3.06143047595e-05
4.90962107609e-05
2.35159309878e-05
5.35245302302e-05
-0.00135395428577
-0.000172600486854
0.00144212762475
2.51365428339e-05
4.26959844446e-05
4.63439559788e-05
2.19895309493e-05
0.0503113213976
-0.000304706346134
-0.00177436047247
1.79482464338e-05
0.0114337633583
0.000134250742752
-0.000143733770963
-5.85610793862e-06
3.76120444037e-05
-0.0114442483909
0.000191966301944
0.0114679688226
-0.000208332008148
7.67008408554e-05
8.44749901758e-05
-7.30112647877e-05
-0.000100020536435
0.0114579122741
0.000119978850193
3.67553538781e-05
-3.27770375947e-05
-0.000146716024147
-0.0114871654575
0.0115108439291
0.00083723800148
5.96210815193e-05
6.87817682281e-05
5.45029017934e-05
7.00494874306e-05
-0.000137179202282
0.0500781931978
4.95425545066e-05
5.52702900611e-05
6.04408891146e-05
4.67404512288e-05
-0.000113832393001
-0.0499949564318
0.000655882953169
-5.15936591699e-05
0.0115383974706
3.94752894147e-05
-0.011567314364
0.0114700094007
8.64884711597e-05
-0.000105249044024
-0.0114905664425
7.34555282668e-05
0.0114993727717
5.90661036201e-05
-7.91859142978e-05
-0.00011526112337
-0.0115144758896
0.000136220958149
0.00107855545887
6.31832441918e-05
5.0372415188e-05
5.37321565648e-05
6.30772867689e-05
0.0502773059936
-0.000106869091076
0.0501509071323
7.09543569921e-05
5.84123286082e-05
6.41836856481e-05
6.56154578622e-05
-9.35983331606e-05
6.82686947168e-05
6.68830975363e-05
6.52838392328e-05
6.8547347824e-05
0.0502807468554
0.000781067014059
-0.000101325251068
-0.000102072013387
0.0114649053789
8.68152433511e-05
5.08665472416e-05
-7.37801216652e-05
-0.0114916419246
0.000114582522003
0.0115123069359
0.000146076243496
5.61024110205e-05
-8.80037781216e-05
-0.000124937491713
0.0114935299827
0.000167729440877
4.87230526024e-05
-9.81795724596e-05
-0.000146703515489
-0.0115040048167
0.0115206390006
-7.93227851221e-05
0.011499485894
0.000165809338588
-0.0115048303958
-8.7675115555e-05
-0.0115058494877
0.0115186329206
4.65172703999e-05
0.00018593922366
-9.54805021521e-05
2.64614023599e-06
5.66682056197e-07
1.17945445912e-06
0.000685210855182
1.77024020443e-05
-0.000705825329977
3.35553611009e-06
0.000662650472161
-0.000141149653097
-1.79072417424e-05
-9.04314598572e-06
-1.02651728671e-05
-0.000666064589693
2.25140396663e-06
1.49550243901e-06
-1.44794218275e-05
-2.38203935895e-05
-2.16956027112e-05
0.000133047239832
0.000672388884463
3.46625024342e-06
-7.15724324563e-07
-2.52963015213e-06
3.01663863352e-07
-2.49048697758e-06
-2.89930051419e-07
3.80142474981e-06
-1.42025043195e-06
-1.05201377795e-07
3.53333321696e-06
-7.08814449953e-07
-2.57167312511e-06
4.06387448961e-06
-4.57230314154e-07
-3.07788969753e-07
2.72505656945e-06
5.93330568666e-08
-8.72404025643e-07
-3.53169143941e-07
1.57289739024e-07
4.25416820732e-06
-8.81949857754e-07
-1.20501832238e-06
4.35736190058e-06
-4.80885061032e-07
-7.84179034828e-07
-6.22470741597e-07
5.3463719954e-06
-9.23979594961e-07
-0.000172831339567
3.58877787783e-08
-1.10777081058e-05
-1.08235620185e-05
9.46763518493e-07
-0.000540063299354
0.00049554465566
-1.25617600361e-05
-3.51028790801e-05
-1.56331278958e-05
-0.00043499512116
-7.19473017016e-07
-0.00011961482026
-0.000225911467241
-3.60796034524e-07
2.43666593752e-08
-3.86006036061e-05
-3.87366481389e-05
0.000201493664186
0.000615793428244
-9.21120751145e-07
-3.05482420323e-05
-7.44582827878e-05
-4.61754990521e-05
-7.90126544343e-07
0.000784359621139
-0.00010080445507
-5.49002233757e-05
-8.18047003039e-05
-4.70879042284e-05
1.75978008732e-06
-2.53474180363e-07
-1.81773091066e-06
-1.57273639614e-07
2.10126215484e-06
7.83009339632e-07
-9.02780308552e-08
-9.82395401131e-07
8.0233996142e-07
-5.14217800884e-08
-0.000221709549824
6.04193762196e-07
4.00778221107e-06
4.62285813548e-06
2.72936755317e-06
0.000753629429007
0.000179026968783
0.000922455378522
-9.51720104429e-07
-3.76659536393e-05
-7.79313771056e-05
-3.90431565552e-05
-9.66321972081e-07
-0.000127577375465
6.35634982476e-07
-5.56133656922e-05
-2.19175938357e-05
0.000964763575963
2.82660876478e-06
-1.79438078457e-07
-2.60415184774e-07
4.39154169974e-06
1.03327070702e-06
-5.05819419415e-08
-3.65682203571e-08
1.33534898148e-06
6.60109029341e-05
-6.11362809466e-07
-6.87209772076e-05
-7.59613623507e-05
-6.02743381296e-05
-5.14719257377e-07
0.000760629707027
-6.63218652008e-05
-4.38631131211e-05
-5.26504227481e-05
-0.000618423917965
0.000181355612953
5.37391813381e-07
-6.98449982524e-07
-4.29107371034e-08
-3.1849961989e-08
5.08152061227e-07
5.53739140191e-07
-6.0693121953e-07
-2.14317676269e-08
5.14042985434e-05
-7.90007025146e-07
-5.50118254698e-05
-5.19421518387e-05
-6.17730713725e-05
0.0010646857599
0.000934602483647
-6.49992021887e-07
-6.61226554322e-05
-5.99883202997e-05
-7.0654874253e-05
-7.02094996362e-07
-5.48610719786e-05
-5.39093845401e-05
-5.8038626841e-05
0.00104901793298
0.000210739568037
5.88682992144e-07
-2.12330016544e-08
-1.55944596011e-08
7.4627803452e-07
5.8895489583e-07
-2.51159178123e-08
7.54492040442e-07
-4.30470026734e-08
0.012375175271
-3.32076970378e-05
-4.72724774782e-05
6.82794588934e-05
-0.0123876390727
5.3338093602e-05
-0.0123674972333
0.0123421532685
-1.28314692955e-05
7.70955323367e-06
5.06796040729e-05
7.59037742542e-06
-0.0115696912584
1.77295678633e-05
-0.0114803533205
3.36825140662e-05
0.0114404117922
8.12164668229e-05
0.0123467186871
2.30754255036e-05
-0.0115422251527
-1.14963573668e-05
-0.0123783042036
0.0123819762702
9.02178100035e-05
-2.48828321093e-05
-0.0123983822743
-0.000105248426798
-0.0123947986568
0.0123771025075
0.000124105454221
8.08949441045e-06
-0.0114823555998
0.0114452026388
2.47326962821e-05
-2.31698396419e-05
2.32590732559e-05
-0.0115439947226
0.0123584224597
0.000109226382021
-0.0124073088041
-0.0115414048246
-0.0123368327658
0.000143856328205
9.08124590421e-06
-0.000108865167479
0.0123080021546
-0.000119383826363
0.012358239218
0.000147095621139
5.67668870468e-06
0.0114176395404
-4.25237850911e-05
-1.18842617396e-05
-6.35417254036e-05
7.43928966026e-05
0.0114206854415
-8.82792721926e-05
0.000173589874148
0.0123350701225
-5.12923629903e-05
0.0114063358321
-0.000136995429123
0.0124358617047
-2.97565114639e-05
0.00015975189733
-0.0124402868391
-0.0124150503269
0.000156306080711
0.0124030620721
3.90437300507e-05
1.99815345298e-05
-0.0115836951408
2.47106461256e-05
-0.0115651450177
2.30671793569e-05
0.0115332975478
-0.0124229424796
0.000180009387549
0.0124291529205
1.18396104692e-05
-0.01161123654
0.0124596657801
0.000174511144462
-1.36250916585e-05
-0.0124632838126
-0.000195107428865
-0.0124810172425
0.0124789393431
0.000192868730612
1.14770646129e-05
-0.0115873675202
0.0115566370123
-1.54931298637e-05
-1.18443428725e-05
-0.0116326274954
1.39155220297e-05
0.0124548656883
-0.0124823676463
0.00017467159939
-0.0116318320479
-0.000211905180698
-0.0124194054023
8.09803893657e-06
0.0124055930172
0.000230658388198
0.0123856403713
0.000181030481233
2.0503195972e-05
7.44079325286e-05
0.0114544860298
1.2168891761e-05
0.0114963231877
4.05790519701e-05
0.0123673757664
0.00020253643608
0.011465756888
5.80510711352e-05
-0.000243346255171
0.0123978618025
7.52650633348e-06
0.000263220224126
-0.0123539854395
0.000279202524694
0.0123469979102
-0.000237781272422
2.15974034163e-05
9.62928013162e-05
-0.000100230037796
-1.81402393925e-05
-0.0114473783777
0.000103022492529
0.0114374320657
-0.00020251861187
0.00029922787791
0.01239229374
7.83130013727e-05
-0.0124505016628
0.000244326558088
1.1702838255e-05
0.0124424716136
-0.000219235844996
0.012476484057
0.000214760508401
4.96117147046e-06
0.0115203504593
-4.80712054723e-05
-4.6680125481e-05
0.011501344127
3.22199810957e-05
0.012474119951
0.000235700067174
0.0114850708039
0.0124364279647
0.000273185254586
1.776690801e-05
-0.000304514761739
-0.0124705328454
0.0124683307064
0.000284628570797
-3.16587812236e-05
-0.0114594340383
0.0114485622403
-6.19972123073e-05
-5.91003804268e-05
4.29097986031e-05
0.0124332416159
0.000259546116171
-0.000350190188732
-0.0123939569893
4.82004721571e-06
0.0124060173149
0.000368127674129
-3.45630980546e-05
0.0123461015313
0.000315044727716
-1.69885674102e-05
-0.000279017107045
1.47146385682e-05
0.000155268578487
0.011439786901
-0.000166161393525
-5.82859802771e-06
0.0114428790397
0.000122651379433
0.0123645299792
-3.00147392324e-05
-0.000323701698402
0.000333989530224
-2.63440425787e-05
0.011460041718
0.000146692379357
-0.000381040143473
-1.94475276084e-05
0.0124572263088
0.000398276207866
-4.87260602577e-05
-0.0124297385321
0.000403429877288
0.0125165878823
-0.000389834891148
-6.22578666214e-05
3.29811028274e-05
0.000176141903897
-0.000188545213754
-0.0114631994936
2.68555242786e-05
0.000181973775637
0.0114779187693
-0.000361025293727
-5.19744492892e-05
0.000166441305311
0.000419376403004
0.0125287598029
-6.01251915907e-05
-0.0124350324603
0.000361474954304
2.54115664848e-05
0.0124468570228
-0.00033372359982
0.0124676694616
0.00031021299779
-2.19620155991e-05
0.0114510650946
-7.38420571631e-05
-0.000116524047371
0.0114680886582
9.13252519258e-05
0.0124748340428
0.000333843825489
0.0114651106342
0.000385402315939
7.73134040198e-06
0.0124771303618
-0.0124955922612
-0.000404115740308
0.000376206704054
0.0125334403538
-0.011484464238
1.75607217666e-05
0.0115107865697
-5.31019456032e-05
-0.000132096341905
0.000103900302426
0.000357776622004
0.0125320365391
-0.000213821889013
-0.0125192832883
8.21598680217e-05
0.0125176707674
0.000186565040569
0.0125021623319
0.000198287922492
-0.0125040381349
-6.59628402496e-05
5.01418238832e-05
0.0115123081132
-6.93970621207e-05
0.0115440482646
-0.0115708150613
6.2580903215e-05
0.0125015040379
-0.0125217930009
0.000174677680154
0.0115154812724
7.08358973473e-05
-0.000231845679253
0.0125185417714
8.90759990392e-05
0.000201309680291
-0.0125003746086
0.000249222693869
0.0124990163907
-8.31694112278e-05
5.81445140109e-05
-0.000104058972813
-0.0114983107892
9.54803768768e-05
0.0114838941862
0.000214455701686
0.0125189914853
8.35819559364e-05
0.0125338934744
0.000175252307934
7.2918926343e-05
-0.0125313070415
-0.000185892285548
-0.0125438941396
0.0125455525951