/*--------------------------------*- C++ -*----------------------------------*\
| =========                 |                                                 |
| \\      /  F ield         | OpenFOAM: The Open Source CFD Toolbox           |
|  \\    /   O peration     | Version:  v1906                                 |
|   \\  /    A nd           | Web:      www.OpenFOAM.com                      |
|    \\/     M anipulation  |                                                 |
\*---------------------------------------------------------------------------*/
FoamFile
{
    version     2.0;
    format      ascii;
    class       surfaceScalarField;
    location    "6.8";
    object      phi;
}
// * * * * * * * * * * * * * * * * * * * * * * * * * * * * * * * * * * * * * //

dimensions      [0 3 -1 0 0 0 0];
oriented        oriented;


internalField   nonuniform List<scalar> 
92311
(
0.203543839406
-0.000386091216467
-0.000661625646187
-0.203098370269
0.000602247309378
-0.000265520984353
0.203761432975
-0.000195233856975
0.000243412847139
0.203667990179
-0.000888254219596
-0.000629465755578
-0.203132697528
0.000596630520436
-0.0005598125137
0.203896203168
-0.000226523504526
0.000292929669013
0.204158556887
-0.000444758786718
-0.000448445176671
-0.000496019554451
-0.203244305741
0.000548298460482
-0.000487654420381
-0.000473853565947
-0.000321531429624
-0.000154194208384
-0.000109631198206
0.204276610693
-0.000216922637118
0.000426917476139
-0.000302477991341
0.051083171443
-0.000156905868847
-0.000179561150942
-0.000162606415359
-0.000168917485211
-9.54686793007e-05
-0.0508231796125
5.87136758142e-05
-0.0512065125552
0.051235832785
-7.72087970862e-05
-0.000101774805874
-0.000107607681602
-7.44529251252e-05
-5.74397409301e-05
6.76077178333e-05
0.000176142529584
-0.00100629306414
0.000182020226835
0.000199692317895
0.000208041153621
-0.00695108146756
-0.0041908194608
0.00577293948046
0.00560949960077
-0.0125313043865
0.0037493110509
0.00275198242952
0.0109240831498
3.72806261756e-06
-1.70969059893e-06
3.08985058818e-05
2.87830360867e-05
-0.00495596613538
-0.065484931071
-0.0113116593033
-0.0119526901711
-0.0130311985514
-0.0225657781548
-0.0153103282161
-0.0270152537274
-0.0134273933952
-0.00015296948262
-0.000133669356622
-0.00014118877743
-0.000143774291384
-5.57983936318e-05
5.55843847867e-05
0.000187768325336
0.0122825530857
1.98706695837e-05
-3.5853253577e-05
-0.012278283856
0.0122989691676
-0.000161311762422
0.000152973083423
-0.0122882239231
2.69442663403e-05
-2.94922846364e-05
5.14469050961e-05
-1.89566094318e-05
0.0511802658187
-1.51104709947e-05
-5.6108414655e-05
-5.07773755378e-05
-9.17019137665e-06
-1.04521141912e-05
0.0511556149022
-3.16323455728e-06
-4.54863884304e-05
-5.26659551453e-05
-0.0512266653921
0.000124586282379
-0.000125609781496
0.000119647038114
0.012302098312
4.02783829561e-05
-3.74938632033e-05
2.11688596601e-05
0.0127896163396
-1.31863918133e-05
-4.7355131377e-06
-0.0128118406206
0.012784251686
4.29027910128e-05
-9.30442175034e-06
-0.0128072077573
-0.000379482190949
0.203513664019
-0.00140820370487
0.00117238942508
-0.202898367238
0.203716799344
-9.66365855605e-05
0.000296528368102
-0.000154517806869
-6.0100277002e-05
0.203587092165
0.000579120043939
-0.000388726661426
-0.000730081838395
0.203490242745
-0.00139490123818
0.00113266703188
-0.202877153709
0.203775192626
-9.24970650453e-05
0.000216339353217
-9.897062787e-05
-5.56475080617e-05
0.203585908996
0.000502345576888
-0.000317026796304
-0.000286292587709
-0.000389812652162
-0.000385169175609
-0.00131735573953
0.203559116179
0.00102025173847
-0.202650549731
-0.000280161337408
-1.53766502986e-05
1.31255306042e-05
1.04982337485e-05
6.56341325925e-05
0.203889303658
0.000224004751649
-3.21017263269e-06
0.0507205772714
-0.000106171822571
-8.34352797926e-05
-0.000100684505069
-9.11343013077e-05
-0.000301891739721
-0.0505597075576
0.000236150730488
0.0510842467483
3.11619537653e-05
-9.17558604342e-06
-1.2726340631e-06
8.3052722724e-06
1.4456207613e-05
3.70612796656e-05
0.0030213519807
0.00233335727725
-0.0117491220616
-3.12127709862e-05
-3.24493843004e-05
-3.87494337394e-05
-4.16178814059e-05
-0.00599303211424
-0.0105005708682
-0.00987469209991
-0.00972665359959
-0.0458031918467
0.0685508378176
-0.00104576950546
-0.0528627787047
-0.0106056657328
0.0088918090735
0.00470411925803
0.0140884656589
0.00797899961544
-0.0200198565653
0.0180121535901
0.0274803097039
0.000173254645469
-0.000116779314172
-0.000131480495037
-0.000111684930382
-0.000136281696597
0.050896112413
-0.000242434561607
-0.000123465670979
-0.000148849436888
-0.000117770527224
-0.000139615446849
0.0508543944763
0.000123983978159
-0.0506606197632
-7.89489334069e-05
9.26119552134e-05
0.0123320542079
0.000141139246588
-0.000160795187526
-0.0123259404695
-0.0001237107121
0.000144280827712
-0.0123341879768
0.000117318496785
-0.000130710991855
0.0123270888464
-0.000142543355917
0.0126606845663
-2.85380433177e-05
2.14614282288e-05
-0.0126345431261
-1.23066331945e-05
4.32593447244e-06
1.05237774365e-05
1.07054089195e-05
5.54321006758e-06
0.0509938870176
8.470768043e-05
0.0510461856535
-4.15055846618e-06
2.03689816414e-05
4.73934190808e-06
9.66415460793e-06
0.000120404130915
1.88511926994e-05
2.52897298273e-05
6.73450390629e-06
9.87671495822e-06
0.0509600424132
7.87927710966e-05
1.63358147686e-05
-4.96842979135e-06
1.55479469104e-06
0.0127674312652
4.61747795626e-05
-1.36919649238e-05
-0.0121912425235
2.9743572809e-05
0.0121496958544
-2.07386313503e-05
4.33037117862e-05
-7.05130711172e-06
0.012760185194
-0.0127359876777
2.2665203389e-05
0.0127157767085
-4.00525042305e-05
5.66062806113e-05
-0.00681061285968
0.000177305778463
0.000183770558732
0.000205482057763
-0.00350703899779
0.00351028444146
0.00507343749595
0.00305697481331
-1.52748197139e-05
-2.85342240647e-05
-6.63798891112e-06
5.04876376808e-06
-0.0132448967701
0.000986437369508
0.0129958581803
-0.000969075090491
-0.0101239565133
0.00560395802031
-0.00276672697346
0.0044961056251
-0.0116354331151
-0.00303303472628
0.0036117206773
9.07424495412e-05
0.000129976267183
8.98075741959e-05
-0.00270380685392
0.00276964488532
-0.00386053266242
-0.00157381159508
0.000510890159358
-4.84283826012e-06
0.0127339454178
-8.64550835619e-06
-0.0126896641425
-0.0127358732311
-0.000215475853091
2.89777270019e-06
0.0127752827486
-6.42375221283e-06
1.95885754853e-05
0.000195872956447
0.0122797467415
-3.06640360495e-05
0.00020537483617
0.0122755282651
-0.012268331106
6.96437699027e-06
-0.0126846758088
-1.32848178809e-05
0.0122743481221
1.31723801425e-05
0.0127710801947
-7.22937503533e-06
0.0128180099941
-0.00019380935358
-7.11245594074e-07
-1.16117071616e-06
1.14766401669e-05
-0.0128106080115
0.0128327840396
-1.43392547689e-05
2.09193367632e-05
0.000175026522949
-2.70355345653e-05
0.000162643855778
-0.0122868305609
0.0123017045943
3.32944112373e-05
0.0128384560466
1.25933956061e-05
1.99797101443e-05
-8.88646762314e-06
-0.0128485800336
-6.49846208676e-05
-2.2169531979e-05
0.0128334228103
2.50807507651e-05
1.97005136655e-05
0.0128481301561
-1.71713581716e-05
4.95482248537e-05
6.66680656277e-05
0.0123195649934
-4.29347433414e-05
0.000121258254493
0.0122994699574
5.12847718817e-05
2.31619832196e-05
0.0123136203636
6.01109274685e-05
0.0128372996219
-1.91062227049e-05
-4.45452836317e-06
-0.0128185120428
0.0127982905824
-3.7092461562e-06
6.12762712304e-05
-0.0123006973108
0.0122895056535
-5.0795609487e-05
-0.0122882216157
7.05481492269e-05
0.0122725002609
-4.10070314628e-05
-2.04846772199e-05
2.68674413976e-05
5.59418768687e-05
3.96101084152e-05
-4.58266392434e-05
6.90978265047e-05
-1.30094240325e-05
2.36642612008e-06
-0.0128048631369
0.0127823659517
5.98383380417e-05
6.38625896242e-05
-0.0122784269387
0.0122605076073
-0.0122625481921
0.012243815097
5.6463103129e-05
4.59474087397e-05
-4.02478199234e-05
-0.0128316009641
3.40580801005e-05
-6.52652043478e-05
-0.0123002237367
6.23754661782e-05
-0.0128328400004
5.53126971666e-05
-0.0123098698012
0.00544670872742
-0.00944050215225
0.000123152317551
0.000139826309665
0.000124407210624
0.000105261736448
0.00399386880644
-0.00911567202152
0.00862303089169
-0.00963219327596
0.00715580255067
0.0066394212654
-0.00921489547359
0.00906308266028
0.00511640432037
9.88503116863e-05
7.64469250598e-05
8.61213135875e-05
-0.00769647358318
0.00983503289012
-0.0166583395041
0.0046123597413
0.000116124465783
0.000116383222048
0.000102214651992
0.00131953377851
-0.00676765516096
0.0054787487768
-0.00827632497864
-0.00980157778402
0.00783814311126
-0.00998920606089
0.000719379857302
0.00114187988273
-0.0099877066918
-3.93063072521e-05
-6.3000690765e-05
-7.47702630054e-05
-4.02038685469e-05
-0.00116019602212
0.00103363863158
-0.00564694402571
0.00452659270328
-0.00637425315462
0.00280678143478
-0.000564288577546
-0.000624510069913
-9.44491134479e-05
-9.81910561569e-05
-5.51443689373e-05
-5.02027412315e-05
-0.00524255628044
-0.00325902132968
0.00279031108241
0.000390078491111
0.00469763212008
0.00116323144293
-5.03566103522e-05
-4.91073084496e-05
-5.30222121122e-05
-0.00898679836817
-0.00435086952778
0.00178493563379
0.00375802414379
-6.25983029207e-05
-0.0126295700385
-0.000121236776936
0.0126557026649
5.15219405332e-05
0.0126356041903
6.79769958394e-05
-7.67318059565e-05
-0.0126176204703
0.000117972861552
0.000138882490378
0.012327383022
-0.000153292630131
9.97441990569e-05
0.0123207126228
-0.012315539693
0.00011267600169
0.0126630251198
-7.28684943411e-05
-0.0126122480773
5.91533754525e-05
0.0123147465408
0.000109999577206
-5.42363365808e-05
0.0126783529906
-0.000126460060932
4.11952133001e-05
-0.0126868789022
4.6065053367e-05
-5.96796621258e-05
0.012713272782
0.000123566666749
0.000126513247077
-0.000140787761107
0.000150112848076
-0.0123174977393
9.12496806303e-05
0.0123097428985
-6.62779208247e-05
3.30678069321e-05
0.0127050632326
9.97261478624e-05
0.012300239594
-7.46616032473e-05
5.00297260343e-05
-0.012295038439
0.000174982428664
-7.00133124127e-05
0.0122893084577
4.57779971452e-05
-2.09624222888e-05
0.0126934899702
1.42407534407e-05
0.0126699040794
-0.000128441447327
-0.0126466037311
0.00015708861033
-0.0123096550034
0.0122980402842
0.0126993650542
-0.0123076148106
7.58406409644e-06
0.0127767942375
7.62847077874e-06
5.93866726837e-05
0.0122562535073
-4.98072438099e-05
0.012236315863
6.46817250471e-05
3.92759280059e-06
1.59194882158e-05
0.0127461652464
9.7196667664e-06
-2.697101515e-05
5.54262801571e-05
0.0122323628611
-4.33440386402e-05
0.0127511998875
1.7069510273e-05
0.0122088243768
5.7234805763e-05
7.52714742561e-06
0.0127295788263
6.71405315461e-06
6.70375002914e-06
-0.012730925083
-9.55149376852e-06
0.0127164206453
2.0915163027e-05
-1.84930654858e-05
4.43752481572e-05
-3.50309639824e-05
-8.29413763516e-06
-0.0121642807539
2.99143126226e-05
0.0121233782797
2.0131242604e-05
1.98623658271e-06
0.0127153881886
4.26639489461e-05
-0.0127608728047
2.83962757993e-05
-4.26246482441e-05
5.95012724178e-05
6.76550592262e-06
6.27453382473e-05
5.48320364927e-05
0.0122240946327
0.0122036092528
3.87872988472e-05
-4.55942610659e-05
0.0121771790956
2.56276923336e-05
-1.46868992279e-06
0.0127384495773
0.0121939944174
0.0121294497604
-2.9667667086e-05
6.07466594428e-06
-2.75459746166e-05
-1.54716185977e-05
0.012084804642
-1.0311844535e-05
-3.12845347953e-05
0.0127007338357
4.41518497838e-05
0.0127203988493
-8.48777577868e-06
6.07511728711e-06
-0.0121482306798
0.0121014488314
0.0127070989592
-3.65439223967e-05
2.91038746695e-06
-2.09877234679e-05
0.000549882920157
0.203651576753
-6.73538614515e-05
-0.000245738231708
-2.60203346869e-05
-1.42001321139e-05
-6.80131917046e-06
-1.31902700926e-05
-9.86823567508e-06
0.000101457042719
0.0509259612422
-1.12965895716e-05
-0.00101239253062
0.00179467930867
-5.48104676434e-06
-1.93619529291e-05
-1.23890030979e-05
-0.00328647203874
-0.0064337312651
0.00509444980596
0.0082626035149
0.00648379681006
0.049264159396
-0.00806292610979
0.00454250545475
0.0396945720582
-0.000141467450274
-0.000135680629549
-0.0001276920801
-0.000149424990157
0.000363022850031
-0.000139150394123
0.0510892402843
-0.000147354062745
0.000168841223023
-6.18697987785e-05
0.0122939130763
0.0508744113522
-7.09686310645e-06
1.05087417953e-05
-2.37405490197e-06
9.70486076907e-06
5.183494584e-05
0.0508326775076
-1.34239164609e-05
-1.18483627896e-05
-2.0435181017e-05
1.88512708997e-06
6.03729612769e-05
4.24682508562e-06
6.14081654093e-06
0.0121242516495
1.12959848513e-05
-3.24403884432e-06
5.45366044431e-05
-1.30193912148e-05
5.1906264147e-06
0.0120660002904
-2.79796224979e-05
0.0120289820389
6.84271794762e-06
1.78305334115e-05
4.31280598623e-05
-0.0120402019203
-5.65766687037e-05
0.0508058178171
-4.67017846289e-05
-2.71270227551e-05
-3.19182650951e-05
-4.50213004743e-05
0.000117494937395
0.000119885729899
-5.97937589662e-05
-5.55578346951e-05
-7.07419301679e-05
-7.12961357554e-05
-5.41672341513e-05
0.000194294414581
0.000184450551816
0.050813680544
-0.00013482510233
-4.71852448657e-05
2.99111071181e-05
5.05108966584e-05
0.0120528981513
-5.73053636654e-05
-9.92125997495e-05
8.8476428864e-05
6.71508386462e-05
-0.0120959382843
0.0121091996114
-6.94609137571e-05
0.000143592671811
0.000152428310507
0.000139622944617
-0.00707415204547
-0.00108006767302
0.00461392564653
-0.00144859912282
-0.000342291487857
-2.09794397425e-05
-5.20912553654e-05
-1.68686653168e-05
-0.00431835640391
0.000806190884338
-7.3737106063e-05
8.9301873864e-06
-2.26681365426e-05
4.79318873733e-06
0.00138854103169
-0.00355380261745
-0.00165734840878
0.00597978860847
0.00435116806241
0.0029339152457
0.00377108895486
0.00300835758268
0.00392623233199
0.0033464520952
-0.000853686302934
4.86772255417e-05
7.30227552871e-05
7.00009701779e-05
0.00068364012138
0.00127905397877
-0.00142122075349
9.41202083482e-05
0.000103489042152
9.50113716463e-05
-0.000805391791489
0.00166088061702
-0.00297395527179
0.0008734080048
-0.0127370489736
-0.000166386222302
1.25028454762e-05
-2.09389251512e-05
0.0127703926984
-1.55365134699e-05
0.0127334896628
0.000154360723439
0.0123051758695
-7.98861885239e-05
-5.18262540134e-05
0.000178446747333
0.0122891222656
-2.66356298323e-05
-7.15048959184e-05
0.0122980393904
0.0127676765476
1.24881840947e-05
-0.0127016053627
-1.32585866594e-05
-5.80160676823e-06
0.0126939698766
0.0127043722654
-1.04505606669e-05
2.18046619334e-05
1.85033243617e-05
-4.35674633378e-06
1.18796536541e-05
0.0120927035654
4.03670398279e-06
0.0121007510788
1.05684660758e-05
2.25447814874e-05
0.012699561973
-2.50215452524e-06
-2.3716831605e-06
0.0120729959111
-0.0126945571711
-2.21503647317e-05
1.78684795064e-05
0.0126859346251
-2.37742568479e-05
0.012687090931
3.4894517343e-05
1.6094977874e-05
0.0120801325273
1.78138512543e-05
-9.49294079442e-06
0.0120433264402
-3.78106135291e-05
0.0120563892378
0.0126777805408
2.74302577144e-05
0.0126775981587
-2.54184330762e-05
5.29310682604e-06
1.50376753199e-05
3.2989129301e-06
-0.0126671833977
0.0126630258864
6.7655142928e-06
3.45246475967e-05
-0.0120504330419
0.0120372249158
3.08383866601e-05
3.32957210947e-05
-3.30873390887e-06
-4.95421066377e-05
0.0126742629892
2.05867834724e-05
1.85510820903e-05
1.43872148134e-05
-0.0126665867787
-6.4814863436e-05
-2.30346003687e-05
0.012670098341
3.76230824856e-05
1.48580931346e-05
0.0126547039573
-3.801759407e-06
4.00486330832e-05
0.012057559007
3.87964279619e-05
5.50629405348e-05
6.05788092592e-05
0.0120691897338
-5.87666368736e-05
3.06932943981e-05
0.012073714977
4.40782085738e-05
0.0126593834404
-1.20275893218e-05
0.0126777586329
-7.69315363987e-05
-3.20016088217e-05
4.57397424699e-05
4.02427257151e-05
-0.0126692576286
0.0126772281382
-3.03344539592e-05
8.99725415529e-05
-0.0121008952811
5.93761114755e-05
0.0121127950483
6.37933959958e-05
7.63298372538e-05
-6.30593999177e-05
5.32105040521e-05
0.0126835103592
5.47998699585e-05
-1.95780314959e-05
-0.000698583803517
-0.0493872526674
0.0493115248512
0.000876084988563
1.29964884635e-05
-1.24925532494e-05
5.81346677399e-09
-1.38760248428e-06
-0.000100853948057
-0.000871316088925
0.0498523382954
5.18100066643e-05
3.20298571958e-05
4.17304310496e-05
4.17523419191e-05
-7.89849135617e-05
-0.049793076583
0.000723761874084
-0.00123402033183
-0.0499509747042
0.0500376613833
0.000964242738816
6.79947003149e-05
5.97790711043e-05
6.1613759959e-05
6.36309673057e-05
-6.9925209817e-05
-0.000726473402669
4.65775945649e-05
4.66084305763e-05
5.29635002039e-05
4.24760560997e-05
-4.00331823503e-05
0.0501904250196
0.000520341903501
-0.0501328824035
-8.21139530394e-06
0.00551641405807
-0.0188213458543
0.0200794756863
-0.00631955951599
-0.000352944358889
-9.25575483657e-06
-3.77979798571e-05
-5.3128814315e-05
3.99612151925e-06
-0.0226979958953
0.0242820501694
-0.00783038437779
-8.1528493044e-05
1.63439303388e-05
-1.83643914455e-05
-1.21020064048e-06
0.00631640377721
-5.35153189541e-05
0.00330745116701
0.0217582938288
-0.00770031964583
-6.56758042223e-05
-6.24929966099e-05
-7.82668817604e-05
-0.0178808285107
0.00077532317179
-9.18212413172e-05
0.0038583104629
-0.0270679673968
0.0321687629744
0.00220113948323
-0.0108184781406
-8.43679088651e-05
-8.60991766915e-05
-7.95044840834e-05
-5.65656601701e-05
-0.00703468719207
-6.35145298211e-05
-5.70085617795e-05
-5.90263679477e-05
0.0294863804134
0.0111706708602
-0.00844015645724
-0.0249462613709
0.0976004311929
0.00253397362073
0.000167299302405
0.00171413100547
0.00199743106653
0.00377989552536
0.00379381547448
-0.0463956012354
-0.017875173847
-0.0103331034542
-0.0097903417461
-0.00996269207173
-0.00966860104667
0.017166690563
-8.12334350603e-05
0.0758229227044
0.00657579350419
0.00670270383408
0.00717018316217
0.0137805574537
0.0151131410558
-0.0358739442289
-0.0125647235861
-0.00382697691154
-0.00550486573713
0.00465957423163
0.00191060804137
0.0261792575833
0.0809464920464
0.0148312169494
0.0169918311433
0.0148488181143
-0.0377475403272
-0.00762150193048
0.0137204432022
0.00974471085059
0.00785434110204
0.00927056677289
0.00771507719178
0.0583995232835
-0.0240739817252
0.000257523492314
-2.36622888028e-05
-2.03898203007e-05
-1.66875341262e-05
-2.49296372195e-05
0.0490274189715
4.90452892809e-05
-1.48726091604e-05
-0.0492332660711
0.0490718014221
0.000492353080881
-1.78580313636e-05
-5.61206800446e-06
-4.70017056409e-06
-1.61469551485e-05
2.58342280951e-05
-0.049288041842
-2.50465806874e-05
3.49388817651e-05
-0.0122292783268
1.14816711657e-05
0.012192129246
1.67421887285e-05
0.0122172323872
4.31859479751e-05
2.81907024585e-05
6.3600326679e-06
-4.25025728992e-05
-0.0122522367027
1.59735560789e-05
3.83378840431e-06
5.70093738189e-06
1.91405953789e-05
-0.000385052874888
0.0122664860513
0.0122185630496
0.012172016676
0.0121634926567
-0.000106840976717
6.25003878566e-05
2.24099302774e-05
5.1047645425e-06
-5.76479200047e-05
0.0121845613307
0.000651011470749
-1.08838339797e-05
-1.03346651043e-05
-1.83108690347e-05
-7.38751202504e-06
-4.56806952858e-05
-0.0494533393421
0.0495811670901
-2.00080761111e-06
2.00119114159e-05
-8.66497095787e-07
1.44150633364e-05
-4.85330635638e-05
-0.0495949054138
0.000681699918556
0.0122380971587
3.61912557384e-06
2.96577034671e-05
-0.0122674122094
3.91110336974e-05
0.0122914813145
4.79880125921e-05
-2.40191104292e-05
-2.09390485895e-05
-0.0123130292346
1.85024243929e-05
0.00112946834859
2.01319690801e-05
1.88745178985e-05
5.86651468648e-06
3.33009464731e-05
0.049169835101
-0.000240218698862
-0.000203831930432
-0.000232213262131
-0.000192705334387
-6.35005304458e-05
-4.23592460613e-05
-5.13751105788e-05
-3.97397754498e-05
0.0495689616896
1.6561013898e-05
2.61714555351e-05
6.36131614208e-06
3.60113807211e-05
-6.80950587374e-05
0.0496662565849
0.00105101126496
2.10158810992e-05
5.83736408354e-05
3.36809966298e-05
4.32826113266e-05
-0.000175340100807
2.86883793678e-05
0.0122034630907
6.03703063046e-05
0.0121445303956
3.75244112449e-07
1.60870545983e-05
-0.0121572318237
0.000123600012855
-0.000127313006214
2.36028650411e-05
7.50533517028e-05
-3.29420223259e-05
-3.57456347308e-05
0.0122614116507
0.0122157931588
6.70674361867e-05
0.000108838258731
-7.94017342705e-05
-8.84471948871e-05
-0.0122237028585
0.049808234636
3.05475170919e-05
4.91098794251e-05
2.3554571239e-05
5.36173106252e-05
-0.00136162820791
-0.000171382550025
0.00144762813233
2.56862476305e-05
4.26381028614e-05
4.66333334469e-05
2.16224519664e-05
0.0503133325772
-0.00029788864345
-0.00179153975863
1.80125983193e-05
0.0121400876853
0.000143512625351
-0.000153081140909
-6.74276825199e-05
3.42944892668e-05
-0.0121842135724
0.000205165952503
0.0122353273897
-0.000223436909877
8.28030308326e-05
9.85896370007e-05
-7.30718654085e-05
-0.000107274352686
0.0122147650788
0.000128514655725
4.27729892366e-05
-3.28386731448e-05
-0.000156546983777
-0.012243600572
0.0122618320036
0.000839584367155
5.79436978725e-05
6.71620362655e-05
5.21071593721e-05
6.84845323158e-05
-0.000133017729115
0.0500763229702
4.81190951163e-05
5.34467037827e-05
5.82508894408e-05
4.53589498938e-05
-0.000109565997957
-0.0499905568887
0.000658157149858
-5.04647930631e-05
0.0122745083022
4.25026712041e-05
-0.0122965892921
0.0122337694073
9.79723870965e-05
-0.000102866588254
-0.0122410026479
7.93382689238e-05
0.0122641285827
6.7118047943e-05
-7.70087679371e-05
-0.000123464969076
-0.0122763850164
0.000145542329558
0.00108025769118
6.20591767253e-05
4.97126085947e-05
5.31935305712e-05
6.21072739374e-05
0.0502782528816
-0.00010035785755
0.0501513443266
6.93675184971e-05
5.62454158279e-05
6.20351963308e-05
6.37595816762e-05
-8.87304267677e-05
6.70431229091e-05
6.56323402094e-05
6.37319447046e-05
6.75697349532e-05
0.0502813889698
0.000782507776375
-9.63211364617e-05
-0.000101945761631
0.0122332697275
9.34422096831e-05
5.80523433413e-05
-7.31964966989e-05
-0.0122611555977
0.000123070274291
0.0122817522122
0.000156240592334
6.26466128895e-05
-8.50995254202e-05
-0.000134098436247
0.012264499489
0.000179767902028
5.55139326603e-05
-9.71872055352e-05
-0.000157437440994
-0.0122826318535
0.0123019796683
-7.68585886331e-05
0.0122714988092
0.000177063306219
-0.0122720577954
-8.67366392775e-05
-0.0122855641127
0.0122998504139
5.31578267361e-05
0.000199058116189
-0.00307313949007
3.55212561539e-05
4.2946318351e-06
1.37292537531e-05
0.021778297946
0.000887317594787
-0.0237890037866
0.00411747379698
0.0212302391877
-0.00453118438736
-2.53644905677e-05
-1.46169647336e-05
-1.49206279845e-05
-0.0225173649878
0.00282765571359
0.001371031751
-1.75456205423e-05
-2.83243925675e-05
-2.50254594968e-05
0.00421081694186
0.0212574965225
0.0163740967924
-0.00335892298041
-0.00258750079863
0.00153272236542
-0.0117999645623
-0.00166996712308
0.0220780467724
-0.00161148634258
-0.000714781113637
0.0180784618729
-0.00487707126468
-0.0132191774918
0.0239657899155
-0.00365839561453
-0.000131611280054
0.0157440065643
0.000313181243453
-0.000958426549356
-0.00335369027569
0.000470281267669
0.0101171730832
-0.00109767450831
-0.00354342570953
0.0180998949671
-0.00298822807742
-0.000818372143885
-0.00205944114602
0.0119439429702
-0.000994118482494
-0.00588652945329
-1.78358972547e-06
-1.27049263887e-05
-1.16290219488e-05
0.00138010526921
-0.0188165318437
0.0173150427295
-1.48974843276e-05
-3.95194794541e-05
-1.80124434279e-05
-0.0157242847836
-0.00312969597549
-0.00422700005644
-0.00712171828974
-0.00169578851861
7.16832663783e-08
-4.47812412638e-05
-4.49963805306e-05
0.00628622296862
0.0207751260353
-0.00622572814289
-3.49148571374e-05
-8.4463318124e-05
-5.19874680125e-05
-0.00874859670269
0.0258479516483
-0.00312844127425
-6.45353186419e-05
-8.98264048203e-05
-5.41681987433e-05
0.0182456231505
-0.00390791257107
-0.0128674066822
-0.00359313655073
0.0236915032056
0.0189778634559
-0.00226129502245
-0.0130568443985
0.024195165319
-0.00245705363351
-0.0071850694049
0.000630293128138
4.48021039504e-05
5.48014935571e-05
3.42267235626e-05
0.0249011224521
0.0057287931988
0.0303968426937
-0.00824038544823
-4.46119074909e-05
-9.0453992686e-05
-4.62397154387e-05
-0.00524952448104
-0.00409883069734
9.1863722585e-06
-6.497217718e-05
-2.440727764e-05
0.0326828412807
0.0198032821494
-0.00298426220099
-0.00270054551901
0.0155779233791
0.0197099338964
-0.00208312371835
-0.00120002064647
0.0148646809322
0.00233380303917
-0.0104449236962
-7.51279624827e-05
-8.64451906773e-05
-6.84637462615e-05
-0.00816838050355
0.0260008342794
-7.50116485462e-05
-5.0567021838e-05
-6.07715587949e-05
-0.0215353027692
0.00629020125651
0.018682079472
-0.012772181494
-0.0010342361742
-0.00150310101835
0.0242743843199
0.0245790689042
-0.0185226783053
-0.000876851785256
0.00178803532775
-0.0094001763843
-6.34210661645e-05
-5.89451605654e-05
-7.03160636158e-05
0.0359323784285
0.0316378199967
-0.0101845202028
-7.40385108204e-05
-6.86433400172e-05
-8.1069517349e-05
-0.00906512276719
-6.2944364172e-05
-6.16555104723e-05
-6.70635749104e-05
0.0355984669533
0.00713960219223
0.0220827044291
-0.000958373139481
-0.000617768722084
0.0199608114538
0.0236285325742
-0.000922652436121
0.0228593516743
-0.00119222628212
0.012376660588
-3.16482516581e-05
-4.84522542783e-05
6.88973186899e-05
-0.0123890987098
5.40837714024e-05
-0.0123692952496
0.0123441377721
-1.41380443293e-05
8.93374247223e-06
5.01097783957e-05
8.48008897377e-06
-0.0122613002483
1.5547111563e-05
-0.0122324057615
3.69649245647e-05
0.0121960186241
8.14497061808e-05
0.0123479450304
2.59662126523e-05
-0.0122672723953
-1.29868513519e-05
-0.0123796710763
0.0123832030618
9.03362133854e-05
-2.28681156543e-05
-0.0123997627899
-0.000105339813397
-0.0123960981704
0.0123785025287
0.000123639556242
5.75128841835e-06
-0.0122420483278
0.0122050641036
2.17698476512e-05
-2.53820646739e-05
2.45966347362e-05
-0.0122879156974
0.0123600642076
0.00010848378487
-0.012408811596
-0.012279198971
-0.0123390264804
0.000143286004826
1.0943875256e-05
-0.000108847050189
0.0123096211055
-0.000118944391864
0.0123599749448
0.000146439795385
3.58779957707e-06
0.0121717132536
-4.54855259451e-05
-1.3625271701e-05
-6.84035127083e-05
8.0245452703e-05
0.0121583622659
-8.84552609093e-05
0.00017262474869
0.0123363229543
-5.41440099949e-05
0.0121434796829
-0.000135619295247
0.0124376440981
-2.95659176089e-05
0.000158728385005
-0.0124420687004
-0.012416562021
0.000155279353177
0.0124042353095
3.72883764885e-05
2.15241902786e-05
-0.0123035019227
2.45467244854e-05
-0.0122814988997
2.54089554603e-05
0.0122579420957
-0.0124246531337
0.000179397303122
0.0124307477567
1.40886660558e-05
-0.0123153485712
0.0124610357926
0.000173591486197
-1.33807805503e-05
-0.0124644839626
-0.000194419441233
-0.0124824521354
0.01248043563
0.000192410863356
1.11009235083e-05
-0.0123005035135
0.0122789537093
-1.51784448105e-05
-1.41585268178e-05
-0.0123394466115
1.6209521704e-05
0.0124562100534
-0.0124836265078
0.000173988815514
-0.0123317811588
-0.000211157080314
-0.0124208107
7.6476522409e-06
0.0124071597971
0.00023009127414
0.0123867865509
0.000180105538203
2.03058804666e-05
7.97851406425e-05
0.0121742245618
1.33915836158e-05
0.0122230658175
4.39358396267e-05
0.0123686237066
0.000202043763943
0.0121947659674
6.26315521084e-05
-0.000242728564681
0.0123995862176
7.68473005498e-06
0.000262637264738
-0.0123549628956
0.000278823315286
0.0123478820023
-0.000236713999842
2.16388965236e-05
0.000102861710052
-0.000107063217418
-1.85664446304e-05
-0.0121756690478
0.000110537617624
0.0121623319638
-0.000201386176751
0.000299157662872
0.0123940108354
8.4005255388e-05
-0.0124517636325
0.000243772168032
1.04637409173e-05
0.0124441736209
-0.000218568050637
0.0124777759442
0.000214424333407
5.73242493888e-06
0.0122468912119
-4.63421012097e-05
-5.06051985547e-05
0.0122385259994
3.53470077191e-05
0.0124755523956
0.000235596748453
0.0122173234669
0.0124386149369
0.000272450949031
1.66924300994e-05
-0.000304146415322
-0.0124727247839
0.0124709906528
0.000284780593101
-3.16760266561e-05
-0.0122011036858
0.01219066311
-5.87874671112e-05
-6.30208602391e-05
4.67574362637e-05
0.012435455841
0.000259548014073
-0.000350236323023
-0.0123953345273
5.59774739887e-06
0.0124074001663
0.00036922682771
-3.66443365107e-05
0.0123472154932
0.000315093370998
-1.83248158753e-05
-0.000278112224033
1.32985198261e-05
0.000165369655095
0.0121549869929
-0.000177207558874
-7.18148168999e-06
0.012163202057
0.000131475816002
0.012365779528
-3.21591281172e-05
-0.000323383847082
0.000334569097684
-2.79742104486e-05
0.0121762099331
0.000156867535828
-0.000381221118923
-1.7902646114e-05
0.0124595478116
0.000399749838439
-5.28803168785e-05
-0.0124321740944
0.000404475435603
0.0125200791475
-0.000391786879906
-6.62226151903e-05
2.99577480519e-05
0.000187173228072
-0.000201575296982
-0.0122015432796
2.52241328163e-05
0.000193711820696
0.0122427633408
-0.000361213758301
-5.63205332557e-05
0.000177625251569
0.000420829548412
0.0125319430352
-6.32454946437e-05
-0.0124371154429
0.000362200122163
2.54948950604e-05
0.0124491452026
-0.000334072228761
0.0124703971852
0.000310656163272
-2.23099876238e-05
0.0121925364664
-7.4122626629e-05
-0.000124724722283
0.0122248780625
9.82947608636e-05
0.0124776111264
0.00033442449887
0.0122037677606
0.000386201142545
8.35839302977e-06
0.0124800607746
-0.0124983557568
-0.000405138189085
0.000376947947542
0.0125363258104
-0.0122241651175
1.79002462064e-05
0.0122526490423
-5.35912688674e-05
-0.000141726492901
0.000111627184699
0.000358358160167
0.0125351380863
-0.000214244111558
-0.0125200403194
7.99113928573e-05
0.0125187607361
0.000187415260475
0.0125027488882
0.000198210056645
-0.0125050129192
-6.33464397883e-05
5.40492429111e-05
0.0122533824907
-6.71166588458e-05
0.0122836164335
-0.0123036658055
6.72553930573e-05
0.0125024256981
-0.0125223793433
0.000175158823627
0.0122632038167
7.60218087651e-05
-0.00023257837037
0.0125200875854
8.68900488622e-05
0.00020229715011
-0.0125021901017
0.00024966277284
0.0125015013638
-7.91585748231e-05
6.31116582556e-05
-0.000101921667689
-0.0122548468809
0.000102774616317
0.0122469379057
0.000215083182322
0.0125211025111
8.99757257038e-05
0.0125347286104
0.000176215040746
7.14899906427e-05
-0.0125321124411
-0.000186687763839
-0.0125449567278
0.0125468708051
0.000161231356056
-8.48120671067e-05
-0.0122656304655
0.0122546496934
-6.6183928662e-05
-0.000111251968308
-0.0122852817243
0.000135792103238