/*--------------------------------*- C++ -*----------------------------------*\
| =========                 |                                                 |
| \\      /  F ield         | OpenFOAM: The Open Source CFD Toolbox           |
|  \\    /   O peration     | Version:  v1906                                 |
|   \\  /    A nd           | Web:      www.OpenFOAM.com                      |
|    \\/     M anipulation  |                                                 |
\*---------------------------------------------------------------------------*/
FoamFile
{
    version     2.0;
    format      ascii;
    class       surfaceScalarField;
    location    "10.25";
    object      phi;
}
// * * * * * * * * * * * * * * * * * * * * * * * * * * * * * * * * * * * * * //

dimensions      [0 3 -1 0 0 0 0];
oriented        oriented;


internalField   nonuniform List<scalar> 
92311
(
0.203922668294
-0.000109078351055
-0.00111456411313
-0.203687952664
0.000988927465153
-0.00014334653964
0.204079433416
-0.000764612982452
0.000751233133038
0.203919516139
-0.000213469705969
-0.00114995963426
-0.203697806633
0.00103268415473
-0.000326873076386
0.204134359378
-0.0007024012512
0.000671193756487
0.203903368343
-0.000124889373431
-0.000205689312603
-0.000987081893038
-0.203452930875
0.00100485244617
-0.000125736085574
-0.000225333430467
-0.000202054068294
-0.000169292859519
-0.000240433676973
0.204321432809
-0.000460239872759
0.000554673872327
-0.000227525519269
0.0510706752299
-4.132612484e-05
-5.67363828949e-05
-4.2489602986e-05
-5.31494636046e-05
-0.000261752404815
-0.0510151154203
0.000275060664163
-0.0511442257673
0.051228417389
-7.12309586888e-05
-6.85976816609e-05
-7.01620501817e-05
-6.22774268471e-05
-0.000132131497383
0.000118190867574
1.62064973697e-05
0.00195880859573
2.52466654772e-05
2.43049494602e-05
3.75632644389e-05
-0.00372640412875
-0.00368373986342
0.00116401744826
0.00418408118338
-0.0143228853673
0.00659356174128
0.0010353784999
0.00946748854128
2.72271886355e-05
5.85843023866e-05
3.34557537397e-05
6.45950843335e-05
-0.00295727884192
-0.0423217314831
0.0021406239705
0.00330797989955
0.00439672426636
-0.0281404955906
0.078431887032
0.0578157108152
0.00141834192893
-6.55198896672e-05
-7.47671050576e-05
-7.96024180487e-05
-6.19102864627e-05
-0.000174886045861
0.000177512717059
3.61763502002e-05
0.0117958731366
-6.65075157795e-05
5.07395928016e-05
-0.0118000956296
0.0117911946966
-7.2728962756e-05
7.96505684177e-05
-0.0117886474313
-2.93915198654e-05
1.99329170937e-05
5.86824381693e-05
-4.922965075e-05
0.051275152029
-3.91837934765e-05
-5.91687247598e-05
-5.15307613705e-05
-7.55290866169e-05
-6.36501307945e-05
0.0512288147732
-7.82954029651e-05
-8.07370741501e-05
-8.78027364947e-05
-0.0511718733359
7.17853730734e-05
-7.83597382747e-05
7.52011172368e-05
0.0118019261699
-1.71957467075e-05
9.61367085863e-06
-1.02135284755e-05
0.0128202702759
8.46431945391e-06
-4.49131149547e-05
-0.0128228358639
0.0128175888545
-1.67761879536e-05
-5.41512833298e-05
-0.0128204682862
-8.29956975082e-05
0.204166064799
-0.00192272313479
0.00170435699661
-0.203864702767
0.204157802419
-6.57476317946e-05
-0.000275319663127
0.000262879647992
-6.44982756201e-05
0.204281207304
-0.000125354774552
6.67087182653e-05
-5.35143911293e-05
0.204179913395
-0.00193879186763
0.0016975258037
-0.20396803244
0.204299384133
-0.00016939540355
-0.000374621369142
0.000313411968316
-6.99192888704e-05
0.204402839372
-0.000150488246618
5.26839084764e-05
-3.05118934293e-05
-1.11686250977e-05
-1.69869092364e-05
-0.00178287323288
0.204069204678
0.00159158367794
-0.203847209632
-2.54642420571e-05
-9.91932118383e-05
-8.89465971944e-05
-0.000152046416707
-0.000115826502749
0.204555418165
-0.000123445815405
0.000176030563797
0.0511342882256
-1.63294402009e-05
-9.20916766552e-06
-1.53998486934e-05
-1.0886842197e-05
-0.000459809242872
-0.0510873892645
0.000434261176408
0.0512876497377
2.1942405602e-05
-4.08008253678e-05
-3.12722452213e-05
-2.8340527522e-05
-1.74332275408e-05
-1.57308071062e-05
0.00557528479857
0.00043600560259
-0.0160202686226
2.61420046606e-05
4.27714919929e-05
2.03191647489e-05
3.35544454627e-05
-0.0044365291217
0.00624657626081
0.00961133656119
0.00830660075067
-0.0384079535268
0.0145272376678
0.0741081049251
0.0164116172061
0.00662378694831
0.00211404525244
0.00218347685837
0.00288125819608
0.00248699896525
-0.016668815001
0.0340515074925
-0.00712790785193
0.00035149699267
-9.72714949242e-06
-9.66823692811e-06
-7.98098192097e-06
-9.7944195645e-06
0.0511949083892
-0.000386045304512
-1.47645986474e-05
-1.7565165317e-05
-1.21554109791e-05
-1.36181837603e-05
0.051104986268
0.000333657194459
-0.0510460276669
4.03644898968e-05
1.87935355656e-05
0.0118142035561
2.98735659949e-05
-7.28028257352e-05
-0.0118304181695
3.97837443115e-05
1.88618662997e-05
-0.0117788577813
2.88123304177e-05
-7.04086321861e-05
0.0117618347378
-2.50543424216e-05
0.012768043918
-8.18768671654e-05
8.56101608231e-05
-0.0127614814177
-6.52506389626e-06
-2.37347802996e-05
-1.09718225524e-05
-1.17172657216e-05
-1.53127474558e-05
0.0512648008087
2.23069711327e-06
0.051247424272
-4.7025264286e-05
-4.60189761662e-05
-5.96373891631e-05
-3.29161127105e-05
3.6898498338e-05
-4.04908027605e-05
-2.92799755275e-05
-2.67620964207e-05
-2.14651863501e-05
0.0512226969527
2.02568323567e-05
-8.95513263445e-06
3.89886169219e-06
-3.10057123985e-05
0.0128155346763
-4.19199463179e-05
-2.38087222523e-06
-0.0117953431897
8.32262346773e-05
0.0118075112372
-5.11697941578e-05
-1.47849230333e-05
-3.91801616128e-05
0.0128155952263
-0.0128137945979
-3.68112638636e-05
0.0128030726983
3.39895999499e-06
3.64917388088e-06
-0.0028603926658
6.14134472934e-05
7.67035008705e-05
6.56854781246e-05
-0.00300281020624
0.00561016650521
0.0019355351367
0.0018328948945
6.55972341454e-05
9.92046823086e-05
0.00011627401419
8.66875033106e-05
-0.00827323093064
0.00852028206954
0.00414597476661
-0.00352859109008
-0.0177497614566
0.0187109808692
0.00653947243405
0.0141115496114
-0.0133194196988
1.70069640873e-05
0.00178189442285
6.20747208589e-05
9.15656576243e-05
8.0297361764e-05
-0.00229950678343
0.00681231468626
0.000170000374168
0.0138717461896
0.00624718671794
6.18141812527e-05
0.0127656529764
-6.60322695244e-05
-0.0127665774398
-0.0127525831334
-6.64520494749e-05
-5.23094892181e-05
0.0127609147405
5.36941834654e-05
-5.60398211779e-05
5.58420418964e-05
0.0117788105485
4.24622486406e-05
4.40191017057e-05
0.0118151359646
-0.0118183898022
-8.29713880969e-05
-0.012752969288
6.37615561865e-05
0.011799431863
-6.92689331949e-05
0.0127744550958
-5.84243987626e-05
0.0127706996281
-7.37739913584e-05
-4.00042646773e-05
3.85055985949e-05
2.35908757046e-05
-0.0127846837343
0.0128001057856
-3.40812794726e-05
-4.33758127581e-05
6.46652905754e-05
3.03148977685e-05
8.9632785785e-05
-0.0118078177816
0.0118072043079
-4.17419421959e-05
0.0127847040147
1.95801618604e-05
-5.97869246633e-05
-4.74261140087e-05
-0.0128035446577
-7.78577623684e-05
-3.56379708475e-06
0.0128148009466
-1.07115381801e-06
1.13255141371e-05
0.0128172342118
-2.18138031036e-05
-1.14032248337e-05
5.77417464628e-05
0.011811485641
6.26904067967e-06
8.67926651282e-05
0.011821318468
-2.64891201781e-05
9.20125134704e-06
0.0118273369182
-1.49551121675e-05
0.0128235106338
-1.42519654165e-05
-2.4978320466e-05
-0.0128222480694
0.0128174466481
-9.03743620028e-07
9.65577358393e-06
-0.0118063341635
0.0118012896315
-2.38914019837e-06
-0.0118212411725
2.33255877976e-05
0.0118212702963
-6.64261440674e-05
9.3449345457e-06
-1.01092288724e-05
8.44061463191e-08
3.94560267335e-05
-9.43845860844e-07
4.28874206507e-06
-1.39338472307e-06
-8.59744449296e-05
-0.0128117143098
0.0128152655629
-1.26522349729e-05
2.7504419383e-05
-0.0118539416779
0.0118612895579
-0.0118786923932
0.0118885585733
3.0908986846e-05
-1.4392155821e-05
-8.81610234855e-05
-0.0128087016011
0.000109557343199
-5.80553990559e-06
-0.0118710620669
4.97842783428e-06
-0.0127946764927
-9.50832466367e-06
-0.0118568212634
-0.00151593138657
-0.00302646839486
-1.21926588671e-05
-1.39375713102e-05
-2.76091581071e-05
-2.3143716975e-05
0.00340754760697
-0.00228046094385
0.00349209580666
-0.0150803827793
-0.00451878026412
0.0227405535862
0.00158973217288
-0.000482264321045
-0.00262457189234
-3.74015016196e-05
-3.08456270589e-05
-3.2556343854e-05
-0.00227463665516
0.00280892505023
0.00271368403322
-0.00285805181958
-3.72755637212e-05
-3.92146838805e-05
-3.62708502763e-05
0.000153658324693
-0.000652081608826
-0.002309015706
-0.00999868103272
0.00513179035428
0.0141632054233
-0.00789160133017
-0.00404833694555
0.001032577966
-0.0100341194498
3.82688238219e-05
6.6754237121e-05
5.35751825739e-05
3.12367580615e-05
0.00611386204098
0.00182252363848
-0.0139202999362
-0.00250378094413
-0.0113995875565
0.00252269417455
0.000961843259332
-0.0021853438932
2.81956438921e-05
2.17378572575e-05
3.02249833052e-05
2.89663149551e-05
-0.0105055160536
0.00158502857889
0.00409058244364
-0.0101072044901
-0.0040582182809
0.000499700888669
3.11513834155e-05
3.54495831941e-05
3.70580433549e-05
-0.0157328920971
-0.00311763169934
-0.0089476214137
0.00462437453653
-9.04084164629e-05
-0.0127711659185
-2.92697469445e-05
0.0127809155974
9.3611921512e-05
0.0127815896419
9.96496587166e-05
-9.92942884842e-05
-0.0127723467072
2.73562745886e-05
2.95766206895e-05
0.0117940298518
-7.4171055807e-05
2.14612634503e-05
0.0118206221439
-0.0118345611302
-8.49618843229e-06
0.0127920247392
-8.88650739921e-05
-0.0127609725234
0.000100051262401
0.0117975866636
-9.21420224234e-06
-7.95767461169e-05
0.0127883781701
-2.11985199411e-05
8.3593140913e-05
-0.0128018220101
7.10597942653e-05
-6.62476161329e-05
0.0128061725168
1.97409995512e-05
3.27648330496e-05
-7.46147247798e-05
1.95705848675e-05
-0.0117805654139
-1.02512516147e-05
0.0117608762499
-7.76540841363e-05
7.70990309147e-05
0.0127920686302
-7.72155294248e-06
0.0117971387773
3.29146978932e-05
-5.86014734549e-05
-0.011808664996
2.73230036155e-05
3.36013688243e-05
0.0117794927674
-5.71763305286e-05
-7.4417737767e-05
0.0127731356954
7.90649900742e-05
0.0127798924491
-1.76549703866e-05
-0.0127726692449
1.55616119529e-05
-0.0117870352509
0.0117672129072
0.0127844986431
-0.0118026494429
-1.73742882528e-05
0.0128114956617
-4.02272594707e-06
3.07759179e-05
0.0117927422307
-1.34626376503e-05
0.0118137144427
5.00883518227e-05
2.8146928895e-06
-1.59958763057e-05
0.0128104111948
-1.00560346681e-05
4.99620730826e-06
4.70785751807e-05
0.0117836109568
-2.26754154214e-05
0.0128058174821
-3.96816223071e-06
0.0118047066618
7.36219246172e-05
1.39834599264e-06
0.012801656343
-8.36046524689e-06
-8.03068619406e-06
-0.0128005621589
8.15128966026e-07
0.0127977368061
-1.12999685565e-05
-2.5277676557e-06
6.60370065385e-05
-4.40229454567e-05
1.00649468558e-06
-0.0118029420724
0.000114103947991
0.0118065160814
-7.47865015859e-06
-7.24386947992e-06
0.0127954926928
9.64721491091e-05
-0.0128211242232
-4.25345584768e-05
1.23508383866e-05
-8.47795409611e-06
-6.86804382174e-05
-1.16007717287e-05
5.50727200629e-05
0.0118555035558
0.0118792999158
6.23977345708e-05
-8.26487269094e-05
0.0118798277851
9.32078068302e-05
-2.51281408711e-05
0.0128101484492
0.0118525918052
0.0118609663983
-0.000110450960236
0.000120565237744
2.44542957962e-05
-0.000131579291296
0.0118482585014
0.000141541734694
-7.52388738717e-07
0.0127909179287
8.0306029092e-06
0.0128019197589
-2.30658427236e-05
1.99814098562e-05
-0.0118445726907
0.0118373482073
0.0127924762765
-8.90432107131e-05
-0.00010783847074
-8.91318377133e-05
7.44807074131e-05
0.204756228434
-8.54377975049e-05
2.61567716858e-05
-4.25572270478e-05
-1.53696912032e-05
-1.47352735621e-05
-1.49230597851e-05
-1.65521868504e-05
2.8826853134e-05
0.0512510902864
5.69231791489e-05
-0.00146639170344
0.000648540981986
5.53736919326e-05
4.62919686171e-05
4.3762873681e-05
-0.000885817366528
-0.0142314151847
0.00487114585712
0.00461717928923
0.00495158076723
0.0395188647961
0.0110675562728
0.00543297993938
0.00227537623148
-3.13231623083e-05
-2.49140945936e-05
-2.02369122143e-05
-3.55070990146e-05
7.13403661758e-05
-0.00026513942848
0.0511490389218
-3.52755417049e-06
2.96933406356e-05
2.89095796685e-05
0.0117752117275
0.0512005913487
-2.96196968645e-05
-3.62815284157e-05
-2.61465656776e-05
-3.38035050259e-05
-2.48237134117e-06
0.051186390709
-3.1709578347e-05
-3.45746905524e-05
-3.23058900012e-05
-3.65981350073e-05
8.94977979427e-05
-2.91874170006e-05
-2.73494859291e-07
0.0118238511309
8.30055481701e-05
-4.21042687557e-05
-2.79427628011e-05
2.94935495396e-05
-0.000138004562712
0.0118369531912
0.000147549926779
0.0118122149021
-4.13906058399e-05
4.19285073796e-05
-9.87432409221e-05
-0.0118191800556
0.000105024664875
0.0511671890065
-2.9702303585e-05
-3.35784355755e-05
-3.01128695695e-05
-3.49051220044e-05
8.55701194821e-05
0.000131515541895
-6.95711121448e-05
-2.58108941422e-05
-3.55152196782e-05
-2.74172749465e-05
-3.25109646737e-05
8.0158004031e-05
0.000181755835172
0.0511480661473
-0.000121428531986
-5.22401794673e-05
4.04633740341e-05
-7.14246783828e-05
0.0118175185527
7.81431469498e-05
-6.83833208667e-05
4.77194457326e-05
2.2647038997e-06
-0.011835105086
0.0118458997688
7.65265322273e-06
-1.4610895362e-05
1.2580042319e-05
-5.87505153304e-07
-0.00192792397351
0.00163050062384
-2.27466217542e-05
-0.0105197360179
0.00109757133108
4.59497274725e-05
3.13001827363e-05
5.20604097713e-05
-0.00270624757082
0.00106197729499
-0.00963458727773
6.02984427592e-05
4.014658253e-05
5.87690462821e-05
0.00299437660037
-0.00514150973684
-0.00283172831137
0.00500465542248
-0.00559967769456
-0.00487758761685
-0.00232554007423
0.00284755842065
-0.00125832896633
-0.000428658462196
-0.00906570591924
6.11705228265e-05
5.9938958697e-05
5.61090289445e-05
0.00283489502168
0.00106572319544
-0.00469872378524
5.48949091847e-05
6.77418129121e-05
5.54372795998e-05
0.000358942282864
0.00112429550175
-0.00872491253692
-0.00207037694018
-0.0127830704353
-3.61956883158e-05
5.30587532112e-05
-5.53702341558e-05
0.012790256591
-6.05778960923e-05
0.0127724261003
1.58435958897e-05
0.011758544632
7.12308233711e-06
2.57683479013e-05
4.87540061639e-05
0.0117557739601
-6.36359016677e-05
9.05832753772e-06
0.0117385375252
0.0127801908203
3.22082901842e-06
-0.0127894524389
2.30904715998e-06
-1.2208142274e-05
0.0127807622643
0.0127945483421
7.19895153921e-07
-1.2486027298e-05
-4.31331182414e-06
7.14764074611e-05
-2.6899549514e-05
0.0118389902922
2.12466990189e-07
0.0118188129393
0.000116843032072
-6.94843461752e-06
0.0127855215457
-9.56306047921e-06
0.000110137921311
0.0118263146491
-0.0127820611991
-3.24467649033e-05
1.09481418149e-07
0.0127725691953
-7.99161444917e-07
0.0127758012646
9.14144974347e-06
2.60660394515e-05
0.0118359656158
-0.000133987542393
3.4205710464e-05
0.0118245205426
0.000143324348191
0.0118317120043
0.0127658665672
1.05065059659e-05
0.0127661120414
-3.87268200508e-05
-4.04821042162e-06
1.75601341963e-05
1.05776180013e-05
-0.0127569647272
0.012750416549
3.37890646889e-06
4.05351231705e-05
-0.0118276131452
0.0118237285685
-7.5166007312e-05
-0.000121334063477
3.96781416756e-05
0.000127021136981
0.012761664814
2.32986937567e-05
-9.71682282255e-05
7.98180327061e-06
-0.0127573985285
-3.28658030013e-05
-2.78386027869e-05
0.0127535072042
3.49061156799e-05
1.86023414463e-05
0.0127458101636
-6.96743822557e-06
3.61536665083e-05
0.0118288435645
-5.15291916166e-05
-4.39965438975e-05
4.39522912216e-05
0.0118231890666
5.44037240948e-05
2.90243307038e-05
0.0118360525143
-2.78712347149e-05
0.0127451843232
-1.7966823627e-05
0.0127535933673
-3.03936767003e-05
-3.76663449251e-05
4.22314456601e-05
4.32340395853e-05
-0.0127466973425
0.0127504298145
-3.46562117656e-05
3.35129907991e-05
-0.011846170734
1.58641890945e-05
0.0118539971709
-1.60196420422e-05
4.40417198721e-05
2.80891226995e-05
4.65369049197e-05
0.0127564817432
-1.10541973054e-06
-2.75145505739e-05
-0.000503774882014
-0.049279839966
0.0494284825706
0.000733988412264
-0.000284537875631
-0.00020945928001
-0.000265273706984
-0.000214375984158
0.000594897694673
-0.000850747127795
0.0502529587838
-0.000273117034793
-0.000235986870334
-0.000278928762616
-0.000239412742522
0.000623986989632
-0.0498821587483
0.00088349504836
-0.00133237248264
-0.0506992047959
0.0511574490164
0.00120058499597
-0.000175311833307
-0.000210702821846
-0.000198854818758
-0.000195806556842
0.000454263714008
-0.00103405641194
-8.83572732679e-05
-0.000127902261951
-9.86646551197e-05
-0.000123606268345
0.000339571343002
0.0511893218146
0.000850623508023
-0.0509069672757
0.000195174525316
0.00165085201558
0.00606009740152
-0.0102782911966
-0.00373875749611
0.00522615427145
0.000280802123828
0.00025104823478
0.000335867822515
0.00047135571224
0.0174908627764
-0.0273863223075
0.00485416407535
0.00364163239915
0.000460853893141
0.000439074504964
0.000394202298341
-0.000383894289625
0.000265992984466
0.00356240619469
-0.0243669047977
0.0023003537038
0.000279318334035
0.000241433855963
0.000244136796652
0.020173643925
-0.00270043379156
0.000252745666902
-0.00694877042714
0.0270032781811
-0.0264078533454
0.00473169107095
0.000768580049793
0.00021841640123
0.000207091810122
0.000175042641344
0.000131823365384
-0.00197930669254
9.41333446727e-05
0.000110015387106
6.99002175497e-05
-0.0256442249701
-0.000597947966318
0.000828687797946
0.0269871539575
0.114411889879
-0.0115269405992
-0.00868699969001
-0.00912403274454
-0.00920114460934
-0.00902775414622
0.00613739144998
-0.0511238021917
-0.039705340685
-0.0114718630106
-0.00740140637657
-0.011667925442
-0.00767987272708
0.0532889098122
0.0393805257814
0.103885132586
-0.0169228110679
-0.00793799518808
-0.00740645117546
-0.0063900302298
-0.00635322376283
-0.0490575697043
-0.0307603966944
-0.00131816808199
0.000978658093939
0.00122538588909
0.00376787762824
0.171160359141
0.0882047171897
0.000411700681873
0.000702067210142
0.00164722173943
-0.0396442264573
-0.0109062720818
0.00130757443454
0.00461371244847
0.00532101633919
0.00539727979145
0.00608140202007
0.132642022387
-0.00843149910828
8.26985537356e-05
-9.41800173979e-05
-0.000108358799748
-0.000106052850928
-9.33947757768e-05
0.0490160130702
0.000393186810169
6.5037691162e-05
-0.0491545620753
0.0490165965017
0.000282895815654
-0.000104559801415
-0.000127375427817
-0.000119077437589
-0.00011164742342
0.000406209384611
-0.0491604032412
-4.33627306058e-05
9.9389208301e-05
-0.0121660959977
4.53928311286e-05
0.0121157506999
-5.072624116e-05
0.0120949271417
3.41008743809e-05
-6.62739267107e-05
0.000133185171214
-4.10833783417e-05
-0.0121554008231
-0.000208369893792
-0.000185596944625
-0.000177344033209
-0.000215282512549
-0.000220853313859
0.0122902775341
0.0122145227486
0.0122730584974
0.0122445387546
0.000497967617707
3.32498233157e-05
-0.000146323638858
0.00020390872623
-3.75182440317e-05
0.0120405734582
0.000481879528341
-0.000153531123075
-0.000162514195722
-0.000145462153121
-0.000180021645922
0.000478511537491
-0.0493158701777
0.0496069712323
-0.000183080398481
-0.000232670005117
-0.000208560343642
-0.000192232041508
0.000536047582849
-0.0494752523477
0.000630160676833
0.0120912515388
-0.000108919151503
0.000178891001522
-0.0121515447892
2.47700171117e-05
0.0121187310329
-0.000262632552162
0.000301961231406
-1.75839588299e-05
-0.0121628915204
2.34843754235e-05
0.00114896988364
-0.000272592520203
-0.000332973204267
-0.000259733860218
-0.000340247214937
0.0498235224383
-0.000234010493614
-0.000194238046456
-0.000249625461776
-0.000204348502086
0.000132811272515
0.000139144898822
0.000146418067791
0.000125213849871
0.0498641749116
-0.000296722009251
-0.000246877314471
-0.00023164861464
-0.000306019822844
0.000707848095104
0.0504178464011
0.00115913895135
-0.000271587532568
-0.000313128917458
-0.000322745542428
-0.000277118492905
0.000621244639115
0.000237619326896
0.0120480803043
3.32390106375e-05
0.011898002815
-0.000441487010082
0.000474719265818
-0.0119449413566
0.000111792276706
-9.86104511038e-05
6.07128319833e-05
-0.000309696217208
0.000319386128276
-4.70524074363e-05
0.0120954824725
0.0119555546703
0.000142273511353
-0.000333898871791
0.000395363913447
-0.000150770566749
-0.0120085448379
0.0509540872816
-0.000258598833307
-0.000248628950058
-0.000258292815185
-0.000237341836851
-0.00142213133742
0.000556433978159
0.00147675045129
-0.000158244016493
-6.475664497e-05
-0.000142387588292
-8.34084416543e-05
0.0515915564063
0.000113418904338
-0.00177888317741
0.000447302122902
0.0118953552374
0.000146664419515
-0.00011973078855
-0.000205436337438
0.000127944364844
-0.0118950142761
0.00024261342842
0.0119463444398
-0.000216972733326
0.000154578193016
-0.000296189421807
0.000337360937281
-0.000171575982323
0.0119316199757
0.00021684877009
-6.50470891462e-05
5.34611760772e-05
-0.000235601988757
-0.0119210979605
0.0119512141604
0.00105808259401
-0.000248642031545
-0.000283270660676
-0.000255687392701
-0.000266818443644
0.000709262998018
0.0508320875912
-0.000215522782615
-0.000217772302778
-0.000231199302739
-0.000205862990892
0.000664041206101
-0.0504822058251
0.000914601459417
0.000300902607465
0.0121146286505
4.87030966333e-05
-0.0121361041259
0.0119789977759
-0.000283316239864
0.000346183403596
-0.0120291345015
0.00012978081754
0.012038991678
-0.000200199994782
0.000245122188796
-8.98876471941e-05
-0.0120754784673
8.1412409893e-05
0.00122476527575
-0.000117725249503
-6.49127929874e-05
-0.000131034312672
-4.72452246703e-05
0.0514822127038
0.000288132472835
0.0512112055923
-0.000142257974044
-0.000156107218818
-0.000165273191429
-0.000124167128872
0.000375008183763
-9.23261000247e-05
-6.70835288032e-06
-8.024002768e-05
-2.67177429007e-05
0.0514318122376
0.00103238185084
0.000177826151433
0.000296372741011
0.0119492991509
0.00014063326824
-3.87541927783e-05
3.76110250218e-05
-0.0119431774717
0.000200033659026
0.0119612421158
0.000100312491448
-0.00015406907662
0.000195477617455
-0.000106463125801
0.0120037193261
0.000147506933146
4.4071535984e-05
-2.32530895928e-05
-0.000163590089558
-0.0119878201888
0.0119833999809
0.000167573060504
0.0120300744187
0.00010047903039
-0.0120659536648
-3.11884550923e-05
-0.0120050241289
0.0119926019247
5.04394734812e-05
0.000140929133327
0.00333305394201
1.71171420478e-05
3.99729610445e-05
1.43553093857e-05
-0.00128457158616
-0.00599759310994
-0.000877880903908
0.00471023668141
-0.00306869605997
-7.86704622856e-05
4.78434708828e-05
3.69374739256e-05
2.37481170309e-05
-0.000158467927518
0.00646054533729
0.00681294182635
0.000121275048301
0.000229895169908
0.000190289944609
-0.00171773269358
-0.00720368646985
0.00119298455813
-0.00431190668883
-0.00636101613528
0.00181216773463
-0.00102235972898
-0.00212469228341
-0.00100610320689
-0.00452825642631
-0.000274274343824
0.000595923463785
-0.00690464005186
-0.000456868376327
-0.00137391859974
-0.00474028598465
-0.00445072217786
-0.00759701686487
-0.0011526682968
-0.00476150284318
0.00104413092477
0.000732601853966
-0.0129358204916
-0.00355309625727
0.000736611404652
-0.00481214424494
-0.00442546853014
-0.00498633616336
-0.000880765684981
-0.00787586977986
-0.00301005754078
-0.00431071967992
7.0871097324e-05
0.000158035375868
0.000106083245682
0.00709544004878
0.00274939155263
-0.0107457734137
0.00021631468383
0.00020598922517
0.000159511354719
0.00774697465592
0.00481504025167
-0.00696928589678
-0.000264209702898
0.00425058377252
0.000370708760963
0.000458970006098
0.000404481469432
0.00155233234521
-0.015811893534
0.00363895325636
0.000268720488786
0.00033718990639
0.000336984706914
0.00350759474153
-0.0232992664922
0.00229441153694
0.000386913343892
0.000339404858769
0.00036385171739
-0.00254214480586
-0.00786336564269
0.000801618151215
-0.0055330041346
-0.00486468509267
-0.00465684809203
-0.00916596917304
0.003251658389
-0.00725975507665
-0.00578769374446
0.00595270948207
0.00184923182783
0.0003263558027
0.00014877720707
0.000260770010157
-0.0339879995347
-0.00214355618984
-0.028553704257
0.00190458975867
0.00037031884311
0.000258021961594
0.000333963551469
0.000160780525895
0.00703889363186
9.77285513158e-05
0.000149384231237
0.000220190407294
-0.0303322334032
-0.00463940154799
-0.00231755684925
0.00195403903735
-0.00461948372755
-0.00550193496554
-0.0009454462485
0.00227155515834
-0.00189163580208
0.00197517019734
0.0019154733509
0.000281852919477
0.000236667615966
0.000239966092055
0.0014837853708
-0.0257514173557
0.000214472259426
0.000208205613011
0.000219820158701
0.0262596247327
-0.00085874798745
-0.00865764102149
0.00882225923014
-0.00659573740264
-0.00440181909443
-0.00741601684205
-0.00522091830136
0.0087314907268
-0.00478016096261
0.00507454937545
-0.000666234942907
0.000130175085803
1.72901400556e-05
9.82888018702e-05
-0.0240616427305
-0.0241731178643
0.000593265200029
0.00017472180094
0.000114126299197
0.000139698621856
-0.000712899485935
-1.94108948977e-05
4.01731130447e-05
6.58155997341e-05
-0.0213603051307
0.00292976391802
-0.00131303414711
-0.00165696956619
-0.000219504392649
0.00583785759717
0.00181621120249
-0.00270256039825
0.00937067293054
-0.00241351155152
0.0122675057542
-6.01858371694e-05
6.23611062892e-06
5.02882481366e-06
-0.012312751426
-4.02971551179e-06
-0.0122688421256
0.0122408119859
2.27218489813e-05
4.98479747375e-05
6.13990287266e-05
-5.26995202092e-05
-0.0122071512279
9.67968034184e-05
-0.0121633306935
4.36937487961e-05
0.0121078795318
1.40163193504e-05
0.0122393133046
4.83039887369e-05
-0.0122075310169
1.72066330308e-05
-0.0123120417378
0.0122734183265
1.25965609532e-05
-7.07965963675e-05
-0.0123149701888
-3.04632464125e-05
-0.0122853870902
0.0122683936212
5.26468268686e-05
0.000110435565752
-0.0121598013299
0.012099267959
8.91241702725e-05
-4.42626760072e-05
3.65678114794e-05
-0.012199655923
0.0122474142963
2.50998944559e-05
-0.0123207108253
-0.0122029893886
-0.0122223497286
8.01729568513e-05
-0.000273981455572
-4.06757927811e-05
0.0122484819143
-4.51150290718e-05
0.0122576057161
7.38903957353e-05
0.000174342039177
0.0120458892433
-3.81064559955e-05
0.000298868161084
-3.74795077958e-05
4.62539454089e-05
0.0119638746958
-2.29353309996e-05
0.000123191612213
0.0122982927675
-3.42264880621e-05
0.0119596032112
-3.57209134467e-05
0.0123267198747
-0.000159033067398
6.2318283675e-05
-0.0123478092953
-0.0123023835256
7.08534826049e-05
0.0123003523999
0.000126312276191
2.23958839359e-05
-0.012193105421
0.000222292096535
-0.0121504515472
1.83225667434e-05
0.012092643297
-0.0123324228785
0.000102583944867
0.0123368214092
8.33315857872e-06
-0.0121889701312
0.012357686755
9.01258290443e-05
-0.000198906836624
-0.0123697937016
-0.000132973249545
-0.0123962035093
0.0124292321109
0.000169646258496
0.000264306563711
-0.0121541339071
0.0121064199621
0.000234695593391
-2.3106012069e-06
-0.0121889958343
-1.80318915963e-07
0.0123829352568
-0.0123928453478
0.000129469424116
-0.0121872841411
-0.000156458887116
-0.0123546526696
-0.000386393965189
0.012413765932
0.000199943266616
0.012300798323
0.000101567881368
0.000353276508054
4.76403002937e-05
0.0119735964066
0.000276388424517
0.0120563529597
4.36312589952e-05
0.0123563332848
0.000145962691771
0.0119917313949
6.54665966188e-05
-0.000219717193759
0.0125096073795
-0.000406438814276
0.000258568859448
-0.0124386399782
0.000292598742734
0.0125379217941
-0.000249780701275
0.000383727764015
8.16086422652e-05
-6.44805691726e-05
0.000471197762291
-0.0119590617408
0.000144659104308
0.0119152758946
-0.000176607077382
0.000326686358268
0.0126078480972
0.000113325137432
-0.0124137532969
0.000233008762695
-0.000389597408498
0.0124739455074
-0.000182207408749
0.0124710175657
0.00021352884271
0.000297303739202
0.0120764606003
0.000386169171876
-6.97582648038e-05
0.0120391721828
7.7285516663e-05
0.0125292399516
0.000255501371439
0.0120194213193
0.0125678304862
0.000284108694344
-0.000390324557433
-0.000343624649774
-0.0126150141402
0.0127016966198
0.000339435181002
0.000432539051444
-0.0119935446708
0.0119424974207
0.000372103858951
-0.000114937111209
0.000113225397273
0.0126615348663
0.000293770191378
-0.000396750709869
-0.0127356402153
-0.000380971538716
0.0128379092708
0.000401608455979
0.00027400621327
0.0126828226196
0.000330261631482
0.000267214431562
-0.000294434422012
0.000424032109897
0.000208071754605
0.0119018420171
-0.00017752157365
0.000427035060946
0.0119036237273
0.000170844474141
0.012802967046
0.000282841861471
-0.000374597535844
0.000356957793281
0.000273565255872
0.0119057739943
0.000219778446989
-0.000422585862328
-0.00025672729822
0.0129434497522
0.000422937669765
0.00015161669912
-0.0129264354089
0.00042765260053
0.0129682458373
-0.000423275190548
8.19298213531e-05
0.000306736143886
0.000218637025377
-0.000192010792575
-0.0119024437201
9.55156085285e-05
0.000248454846006
0.0119491944243
-0.000401437512957
0.000162546162195
0.000226706660689
0.000432095405393
0.0129659453942
6.88271149036e-05
-0.0127756803778
0.000397683979765
-0.000338351181237
0.0128596910019
-0.000368134337524
0.0128035636898
0.000355263184619
0.000382847594084
0.0119310707376
0.000283166094105
-0.000217873744454
0.0119304739455
0.000193993523742
0.0128729909558
0.000374544857173
0.0119300894373
0.000405656538178
-0.000225132264045
0.0129443350424
-0.0129383270802
-0.000405318747042
0.000382711931497
0.0129495533242
-0.0119246358113
7.68225333911e-05
0.0119592835638
0.000182219744069
-0.000227894688361
0.000204426807023
0.00038029005858
0.0129648049663
-0.000262843396678
-0.0125545454777
-0.000318443608371
0.0126113803363
0.000251324258572
0.0125188239112
0.000228167357848
-0.0124680318338
0.000344592234746
6.71207043566e-05
0.0120596502512
0.000284795756081
0.0121237305653
-0.0121477181569
2.9743729532e-05
0.0125771052615
-0.0125038411771
0.000223247045689
0.0120690410108
4.74670555061e-05
-0.000292424073011
0.012679282326
-0.000296949816868
0.000272823454688
-0.0126523612838
0.000329198095317
0.0127256504968
0.00032959509303
9.62034080363e-05
0.000307045515852
-0.0120359713424
0.000105475428025
0.0119899849457
0.000304894941478
0.0127439636479
7.23735949187e-05
0.012703921684
0.000256522174155
-0.000264904423229
-0.0126382784457
-0.000284226866415
-0.0127237920113
0.0127779005134
0.000257571168221
0.000268262707605
-0.0120588892716
0.0120207442324
0.000245598084454
-6.01564086451e-05