/*--------------------------------*- C++ -*----------------------------------*\
| =========                 |                                                 |
| \\      /  F ield         | OpenFOAM: The Open Source CFD Toolbox           |
|  \\    /   O peration     | Version:  v1906                                 |
|   \\  /    A nd           | Web:      www.OpenFOAM.com                      |
|    \\/     M anipulation  |                                                 |
\*---------------------------------------------------------------------------*/
FoamFile
{
    version     2.0;
    format      ascii;
    class       volScalarField;
    location    "10.75";
    object      alpha.water;
}
// * * * * * * * * * * * * * * * * * * * * * * * * * * * * * * * * * * * * * //

dimensions      [0 0 0 0 0 0 0];


internalField   nonuniform List<scalar> 
28582
(
0.999999279187
0.999998959244
0.999999131844
0.999998265974
1.00000017528
1.00000002185
0.999990559477
0.99998857987
0.0544703715956
0.0576905988262
2.42783691628e-07
0.99998840148
0.881177771123
0.868711607089
0.999988734588
0.999989084229
0.865097674818
0.99839590631
0.998273577451
0.999999479433
0.999992474374
0.999991348732
0.999999482623
0.999993831633
0.999992631096
1.00000080754
1.00000055631
0.999995650098
0.99999081919
0.0589837697341
-2.06279095036e-29
-6.84586899779e-28
0.999993883281
0.999996993757
0.885007567845
0.883809936625
0.998724302899
0.999992124015
0.999991125553
0.999994266823
0.998409211763
0.858377744929
0.998311045223
0.99826650275
0.0559307204783
0.0591306366566
0.000500086886003
0.000446074850063
0.0569335433423
0.000502032436448
0.99846385658
0.998409144972
0.878492007927
0.880812877274
0.99847593728
0.877512797961
0.998423916861
0.998378540316
0.998354053211
0.873743821143
0.867212163495
0.998345291821
0.872585084542
0.998386364333
0.998343504864
0.998327416902
0.862724207892
0.863202423489
0.9983201491
0.859820941043
0.998346499425
0.998396116366
0.862499394564
0.858516130834
0.998373820835
0.862383566243
0.858950890307
0.998373169844
0.99811025175
0.855632531107
0.851948646052
0.998241833627
0.85261844229
0.99807535511
0.855768431273
0.0521052955465
7.84289789349e-05
0.0511166784348
0.0515510381126
4.82423513514e-05
4.20597378055e-05
0.0598919139587
0.000460533435301
0.000383754342899
0.0611808197826
0.00043095073773
0.0603514142308
0.000368917372816
0.998895105615
0.998963366414
0.884631075696
0.885441721268
0.998851552652
0.999010126638
0.885253232556
0.998774916275
0.998645042127
0.884244076109
0.884640243987
0.998747748416
0.998664167122
0.884978780798
0.884825081228
0.884501188118
0.998554696121
0.998735619485
0.884593480659
0.998596857158
0.884813880374
0.998406526807
0.86230019448
0.85817278837
0.998420421177
0.861941075086
0.998409744851
0.85790467817
0.998442358675
0.998461325646
0.860570457866
0.856467864714
0.998420718201
0.998488485622
0.85703445449
0.99822303325
0.998160625835
0.856236506043
0.852832059636
0.854072536759
0.998357985669
0.857066399694
0.854803165825
0.855569655221
0.998284383003
0.998394472836
0.857194440296
0.99842113285
0.857292247898
1.00000076655
0.999993331866
0.0616690729379
-3.48465059857e-27
0.999995039773
0.882479727832
0.999996072624
0.999995806919
0.856059242941
0.854970248247
0.850328076896
0.999996575374
0.999996849672
0.84821424757
0.842824557475
0.0535147041903
0.0624757106875
0.0636074734454
0.000353930270354
0.000392532276423
0.000383821933285
0.0644563598582
0.0651780086388
0.998412207451
0.998456166753
0.882777640228
0.879519944937
0.998500397886
0.880438227042
0.998378680348
0.998638277214
0.998536162254
0.853968554688
0.855400449585
0.998623259349
0.998552773421
0.854044342377
0.9984126986
0.998267017493
0.85601056178
0.853869769745
0.998415581421
0.854070166837
0.998236030403
0.998428573444
0.998189995583
0.849850313492
0.852258748971
0.998434506661
0.851929072112
0.998217027356
0.9984306471
0.998168365616
0.848127770817
0.845994598682
0.998436205736
0.846796236567
0.998151084671
0.998420244355
0.998138986944
0.844799649802
0.844191475473
0.998402280174
0.84570458591
0.998142376516
0.999992494864
0.999998592605
0.999989296196
0.999997393046
0.040702813755
0.0446047513761
0.0405397904332
0.0449991161862
0.0458367989326
1.0111169807e-05
3.46780912616e-05
1.22591834073e-05
3.95315033032e-06
5.33323838553e-06
2.99535279624e-06
0.999994875359
0.9999996477
0.925503774088
0.915437938942
1
0.905416427891
0.999996177011
0.999994950433
0.910836623963
0.898989370375
0.999994998538
0.999996035265
0.999982302346
0.901116691424
0.868789937093
0.891961964149
0.871926924878
0.999977419602
0.999978217176
0.864104802514
0.85874097373
0.870172875232
0.865936515177
0.999997082686
0.999993425307
0.892234321963
0.874555746729
0.877261825499
0.999990317789
0.999995005479
0.999992669187
0.87274083218
0.868109748429
0.876100154742
0.874629043641
0.876553879119
0.87602722075
0.0376400682908
0.0385891278737
0.0400532226663
0.000298651348659
0.000454906893591
0.000351885149732
0.000502962940666
0.000880962282121
0.00113471593569
0.000760599725523
0.000944275267197
0.0390923067113
0.0392061797603
0.0425985527347
0.0407568524826
0.0424206947251
0.000409883853033
0.000503005910081
0.000432607099007
0.000488864688247
0.0495189360115
0.0445492493628
0.0495000441299
0.000491531487011
0.000604525304236
0.00044225852393
0.000471215013124
0.0424324236555
0.042566469345
0.000396732929295
0.000425512621757
0.000424008247032
0.0491701914713
0.0454424333091
0.0489077760285
0.000377666657433
0.000350622546836
0.000369077780367
0.00032118150593
0.999858161632
0.999792351592
0.934093145362
0.924180236996
0.999763814317
0.933469537312
0.999868989492
0.999837486166
0.999667437775
0.920495053429
0.925212800454
0.999752546827
0.999780152895
0.92997833407
0.999401271499
0.999490068526
0.910294704233
0.893704686563
0.999588020833
0.999274918045
0.898583061141
0.999580804251
0.99952621754
0.919573970544
0.90492202311
0.99963039368
0.999456230241
0.913275756896
0.999467320535
0.999311485657
0.902124077972
0.905839375091
0.999379011314
0.999412007478
0.909786790961
0.999119398883
0.999399609766
0.89014639345
0.895523261906
0.99917910061
0.999315657191
0.885732483366
0.998885064982
0.998518742538
0.879375821261
0.867283086739
0.998877129748
0.998557552285
0.877033404582
0.999045964271
0.999198029227
0.893700295953
0.884292547901
0.999231755697
0.999001290497
0.884940028139
0.998805033801
0.998535322971
0.870084782616
0.878479672798
0.998522774173
0.998765013199
0.877496886592
0.998152131441
0.998256290312
0.858241976445
0.863915190916
0.998182176284
0.998214601807
0.860483058364
0.998099367194
0.998175847034
0.857480319726
0.860371638678
0.998145434838
0.858903056324
0.998142776199
0.998252906519
0.998293081071
0.867261430723
0.867611864911
0.998299439888
0.99827888507
0.864225413068
0.998193299417
0.998251081066
0.862924596521
0.865251778919
0.998242164426
0.862179851954
0.998209970177
0.998968948913
0.999142837928
0.885865843491
0.891425750729
0.998971942421
0.999137274873
0.885475204747
0.998782097728
0.998584579046
0.880221435328
0.876269004202
0.998781860945
0.998573909108
0.880937153698
0.998835841514
0.998729104815
0.877068587009
0.880181903202
0.998687234393
0.998857861377
0.880745742368
0.998318923515
0.99841013019
0.870408580329
0.874579156582
0.998350846522
0.998416324421
0.872857478175
0.998326161375
0.998333590842
0.867813618097
0.870834385505
0.998312767608
0.870502646933
0.998362095128
0.998432680235
0.998532045775
0.875616752427
0.87544068912
0.998535124938
0.998481977992
0.874459081991
0.99842150828
0.998532308084
0.872822770076
0.874307481195
0.998493531567
0.872674519264
0.998451003916
0.998596119465
0.998635704321
0.876169972967
0.876615288481
0.998584984939
0.998661167129
0.876708355056
0.99862836469
0.875657457008
0.998590605698
0.999999286166
0.999997808408
0.999989591345
0.999994920357
0.999996505254
0.999992933436
0.999999097772
0.999997109937
0.999994006675
0.999995662256
0.999997208593
0.999994026946
0.999967812898
0.999998850524
0.999983846387
0.999934236636
0.999955830544
0.999986803858
0.999996241089
0.999993910293
0.999997446366
0.999993155562
0.999995952694
0.999993332069
0.999981892929
0.999977333494
0.999977327842
0.999986676664
0.999995757795
0.99999780838
0.99999676021
0.999988743703
0.999988728086
0.999994022236
0.999997540299
0.999997270814
0.999999315402
0.999998800414
0.999994450748
0.999988621678
0.999992691116
0.999997991782
0.999997953026
0.99999627899
0.999991450117
0.999996816891
0.999998678739
0.999996345116
0.999927495614
0.99999898767
0.999870764595
0.999891688291
0.999974711311
0.999998846178
0.999989093988
0.999973906452
0.999947817525
0.999993590146
0.999973678318
0.99991297132
0.99994558264
0.999986620001
0.99999722607
0.999996135693
0.999978619833
0.999993171189
0.999991624371
0.999980723487
0.999977587204
0.999986737987
0.999996696043
0.999998810463
0.99999884675
0.999998465511
0.999997262693
0.999997173899
0.999997555475
0.999998264884
0.999998310659
0.999997246016
0.999994579416
0.999997152588
0.999998664206
0.999997127721
0.999863330851
0.999997999099
0.999902823812
0.999931694612
0.999990620996
1.00000167389
1.0000017501
0.999997118108
0.999818603004
0.999981705148
0.999979779115
0.999960432035
0.999976623983
0.999997029921
1.00000158807
1.00000233926
1.00000084308
1.0000008055
0.999999870691
0.999998091995
0.999998465058
0.999999660591
1.00000057129
1.00000172054
1.00000046792
0.999999760343
0.999999916924
1.00000017576
1.00000048497
1.00000061801
1.00000058034
1.0000005618
1.0000009332
1.00000036118
1.00000048561
1.00000073261
1.00000080673
1.0000009727
1.00000106882
1.00000133874
1.0000002619
0.999999703955
0.999999989115
0.999820399324
0.999987838052
0.999997206548
0.999996172169
0.999995030244
1.00000271341
1.00000338659
0.99999984519
0.99998837134
0.999982457588
0.999984332875
0.999996951598
0.999991522853
0.999986097104
0.999983805233
0.999977920225
0.999956988306
0.999991969036
0.999991446944
0.999991202851
0.999989199581
0.999988232511
0.999989791353
0.999990921206
0.999986966212
0.999979802587
0.999977099859
0.999994788238
0.999988152988
0.999986267607
0.999989429524
0.999994295784
0.999995242775
0.999993075933
0.99998947008
0.999985363645
0.99999077305
0.999984741885
0.999986446701
0.999990002428
0.99998987707
0.999986852671
0.999983510135
0.999993305363
0.999992145295
0.99999341792
0.0547144812524
0.0542115090108
0.055214111336
0.0576376787073
0.0618593817571
0.0642789972539
0.0654614067311
0.0666606098726
0.0532196597807
0.0557020534811
0.0555775242605
0.0562634233761
0.0574394189183
0.0594910259504
0.0621119360445
0.0646536434599
0.0668805660492
0.068458411487
0.0526171565302
0.0550627384167
0.0544862152898
0.0555159569142
0.0572284503426
0.0585065207111
0.0599741599719
0.0647172397287
0.0677824196871
0.0700668021044
0.0532249789417
0.0529688791188
0.0539038349919
0.0552651589373
0.0562223700505
0.0583903139987
0.0629708428006
0.066396239786
0.0686868649544
0.0527230235054
0.054131117007
0.0552970701611
0.0595611550279
0.0625241130678
0.0645510899681
0.0661861762662
0.0637357366669
0.0647660679004
0.0646301444536
1.08186835751e-05
-4.94325238712e-28
-2.59636121084e-25
-2.09818921346e-25
4.27198201915e-06
2.91118454148e-05
-8.66625505762e-27
-2.50388465963e-29
-9.83468126318e-28
8.24407203806e-05
5.2558968065e-05
3.2409803359e-05
2.84707531436e-06
-4.24995053271e-27
1.00518546464e-06
6.31362851585e-05
5.74933229746e-06
-1.42173989754e-26
-8.55639685182e-27
5.5288223852e-05
4.17069847942e-05
2.12571600991e-27
-4.90999842849e-29
-1.85917262013e-28
-1.22907188738e-26
-1.84707482184e-27
7.10619045567e-05
-3.06512975382e-24
-1.07527287467e-24
6.1507719838e-05
5.99975805953e-07
-2.35108795027e-28
-2.01417212088e-27
-1.35144194342e-27
-5.42835026308e-29
1.87149785744e-05
-1.29242818997e-24
-4.91506635023e-25
6.54916811403e-05
3.5864377495e-07
9.9622146471e-07
3.95482163678e-05
-2.10513775372e-26
-1.3793627365e-25
-1.06035676334e-25
6.77390933962e-05
-3.14668581906e-27
-4.39468143356e-26
8.157851256e-05
0.999987692027
0.999993943793
0.999994050222
0.999945464694
0.99999433342
0.999960314239
0.999985958708
0.999999397781
0.999998033966
0.999998612621
0.999999310639
0.999994290532
0.999998743109
0.999998691278
0.999995952733
0.999997347753
0.999989949099
0.999992737914
0.99999381266
0.999996838394
0.999986308563
0.999994655154
0.99998031455
0.999988142112
0.999997343804
0.999997163619
0.999979880324
0.999990938107
0.999993185357
0.999914945702
0.999982267319
0.999898228739
0.999986001661
0.999894323839
0.999987678003
0.999985411858
0.999999002532
0.999998905736
0.999999002532
0.999987423635
0.999999049372
0.999981772769
0.999974503744
0.99998455038
0.999962829916
0.999890069853
0.999954017285
0.999909039229
0.999947028627
0.999997385603
0.999975083244
0.999994990901
0.999988097714
0.999992034217
0.999979912228
0.999997857364
0.999980193606
0.999890622295
0.999980380039
0.999670141216
0.999927313634
0.999722917908
0.999948951666
0.999983489135
0.999996333217
0.999980089698
0.999995091992
0.999992035046
0.999996222124
0.99999954954
0.999930840014
0.999937583203
0.999959720208
0.999892264677
0.999947973653
0.999999211294
0.999995832099
0.999991684093
0.999983100923
0.999998056063
0.999985455362
0.999998013698
0.99999646486
0.99999732734
0.999823881866
0.999918405625
0.863839896276
0.862937410636
0.999906267124
0.999924044214
0.999957381741
0.863948107682
0.86702097581
0.862925786762
0.864919026028
1
0.999994260165
1.0000001227
0.868477076617
0.871074482397
0.865924542487
0.867627456478
0.999997245784
1.00000095785
1.00000078624
0.871650768508
0.874393826712
0.86785689259
0.866394143674
0.999993879239
0.999998241446
0.999993328229
0.873061296531
0.862726953155
0.863794704547
0.851572039959
0.999999387357
0.999992147292
0.99999145939
0.857737742459
0.846283166082
0.848110088174
0.844510228839
1.00000617672
0.99999526895
1.00000017028
0.846879645395
0.850924367889
0.845053057676
0.846592402859
1.00000489958
1.00000356404
1.00000354292
0.850732819917
0.841042307358
0.846384598998
0.831337328895
0.999932201345
0.999998552781
0.999953754531
0.843527682588
0.809528112672
0.835064805543
0.833205839394
0.999982816414
0.999989959257
0.859503993609
0.865345591315
0.866716859164
0.870697153898
0.999987898169
0.999996338943
0.999995861862
0.865090272434
0.863181811653
0.871071911769
0.86922646046
0.999982472624
0.999994575774
0.999992130181
0.862853485124
0.864289906082
0.868248554308
0.865370448477
0.999990832188
0.999990161661
0.99998825637
0.864987834716
0.866820935016
0.865119485374
0.865439982211
0.999995664023
0.999987603503
0.999985249174
0.867050725432
0.863610617499
0.865113751394
0.858834654077
0.999988296936
0.999984882701
0.999983810536
0.860872336156
0.850636307984
0.856583306767
0.852107542173
0.99998753961
0.999986306935
0.999985714876
0.848369054162
0.846542000055
0.850654255401
0.84796624646
0.999981064846
0.999986009385
0.999984625626
0.846551912277
0.844424680175
0.847086770764
0.842603777322
0.999970721605
0.999980739939
0.999975603245
0.843671526086
0.82954185155
0.841169120329
0.829517034937
0.999942286431
0.999963642736
0.999972113524
0.833458361968
0.834509617184
0.833335626211
0.834174740047
0.999990672445
0.999992993178
0.999993467656
0.868690836688
0.872021587658
0.875590427586
0.87835635769
0.999991586147
0.999990867872
0.999992046803
0.873034189841
0.871460511159
0.879331083158
0.878468695945
0.999991005395
0.999990641781
0.999989968537
0.870498007937
0.867028292864
0.876303703304
0.869012439647
0.999989281617
0.999989372825
0.999988166745
0.866787355781
0.866364700343
0.868731844006
0.868628696939
0.999989266975
0.999988684118
0.999988567223
0.865362702157
0.859780094289
0.867546497654
0.863691353813
0.999992765561
0.999991686517
0.999991902564
0.857925033875
0.852645214046
0.862807625471
0.860473832529
0.999990007424
0.999993184678
0.999991677665
0.851538036818
0.849323980335
0.859806250181
0.856644471552
0.999983297712
0.999987894582
0.999983879564
0.847847876929
0.840511059026
0.853352604997
0.842079304834
0.999976498809
0.999979274287
0.999978988137
0.839125532876
0.83271558846
0.840299691926
0.837263684184
0.999984616116
0.999979047018
0.999985855792
0.835926403184
0.835064220103
0.840299322422
0.83564080027
0.876984922102
0.879392499803
0.999990413145
0.999994251595
0.880409334223
0.879780877364
0.884074083429
0.999985773544
0.999992359408
0.9999925126
0.877657998003
0.872108468726
0.883280737155
0.881578270723
0.999988104518
0.999993433702
0.999993128347
0.871461873665
0.869791136007
0.880768478874
0.874778966041
0.99999289558
0.99999357815
0.999993151006
0.868587205297
0.864834740824
0.871978561847
0.867954393642
0.999995955085
0.999995736414
0.999994951976
0.864002445257
0.861995212732
0.868033036237
0.866802028234
0.999994304073
0.999995101621
0.999993947252
0.861215156579
0.857023153587
0.866162115354
0.854932467651
0.9999906315
0.999991317239
0.999989930967
0.853488094603
0.843465940761
0.851980999491
0.846878766004
0.999985422284
0.999988649696
0.999986002656
0.841750065195
0.838745733511
0.84636758364
0.84151655386
0.999987968076
0.999984151187
0.999987796004
0.841792802962
0.835471971729
0.844702753961
0.836461934684
0.999988244681
0.999992451711
0.882375361657
0.874212592364
0.870182926071
0.999985437693
0.999991897703
0.999993320297
0.871766296177
0.870397488402
0.867579020665
0.867137946768
0.999988202138
0.999995496922
0.999995434366
0.870297153699
0.865486303556
0.867947365309
0.860796889299
0.999989158694
0.999994835572
0.999993757174
0.862430941352
0.855490468545
0.857077736473
0.85312685305
0.999988282699
0.999991381911
0.999988521168
0.853860523166
0.84761007323
0.852362528586
0.848914905387
0.999982516953
0.999988227131
0.999986542776
0.847036372649
0.84132156065
0.849049937379
0.842906400042
0.999990170559
0.99998704885
0.999994194393
0.844956524576
0.836512879522
0.846848901746
0.838441120595
0.999993223809
0.851899138029
0.999992344514
0.85101820519
0.848359972615
0.999991469812
0.848549217818
0.842370790567
0.999999685461
0.84644271827
0.839558015993
0.000517986970172
0.000152589386638
0.000587304117124
0.000181461926437
0.0539041553311
0.0553123901269
3.31645030228e-05
3.11012252748e-05
3.9943931057e-05
3.91123674775e-05
0.0547051640385
0.0556371090089
0.0554939079182
4.82808425443e-05
5.39653226944e-05
6.96742288356e-05
6.41651666958e-05
0.0543288162
0.0552369683625
0.0553826963374
5.1807179042e-05
3.10155767832e-05
5.74177090564e-05
3.07520442167e-05
0.056044325256
0.0562833412435
0.0574373267321
3.75970148143e-05
0.000167131963412
4.71569210716e-05
0.0003034139204
0.0596531915483
0.0589345435798
0.0607143334137
0.00051302724793
0.000837180941622
0.000702295144765
0.000947328984891
0.0635220105937
0.0625778206724
0.0637284856146
0.000842544447855
0.000827274744878
0.000825006912682
0.000732641901578
0.0646900442609
0.0645115798
0.0651382096599
0.000604072651134
0.000373946119797
0.000487330125584
0.000315093987845
0.0670528939879
0.0657756259422
0.0682398106808
0.00032462476783
0.000365028385309
0.000311573060963
0.000406313018864
0.0688186596715
0.0668775227357
0.0711650413054
0.000717795678264
0.00211838416278
0.000716703255003
0.00108298922755
0.0555209116818
0.0531305037208
0.0557650250264
0.000946624252885
0.000559997665278
0.000930605193786
0.000557015877044
0.0552771091668
0.0557287025613
0.0551430958833
0.000369461702869
0.000325416778801
0.000175508253001
0.000127984526884
0.0558158154174
0.0551946976366
0.0556503337134
0.000199414077318
0.000105958994366
0.000100422240226
6.89186889426e-05
0.0566254668421
0.0563430130445
0.0571484412656
2.84702947515e-05
2.25322883953e-05
4.65735486081e-05
4.68414092966e-05
0.0584750124155
0.0577638162159
0.0587299106912
5.57556485171e-05
0.000299080039681
0.000147846743755
0.000327486584486
0.0605188210409
0.0591444702035
0.0597751795896
0.000866751503391
0.00125673769437
0.000776116272672
0.00117823871317
0.0633367210965
0.0615334199099
0.0631842682471
0.000996679307445
0.000758303190254
0.000997788305057
0.000675921123783
0.0659282232976
0.0649687660154
0.0665115908459
0.000348195273662
0.000261630214971
0.000310386648046
0.000272007570096
0.0691877788341
0.0676465494774
0.069633522885
0.000285511602591
0.000429503182328
0.000328001533179
0.000468960708623
0.0725787091499
0.0696151294521
0.0729373465776
0.000673863531205
0.000845916720322
0.000687674032613
0.000910285540506
0.0553711257776
0.0518686657332
0.0544187955697
0.000687623027478
0.000247877702878
0.000600839636302
0.000264010895783
0.0546563998479
0.0540612604408
0.053836010801
1.82371546429e-05
1.9097891914e-05
1.68560284726e-05
1.71270407069e-05
0.0547848492019
0.053783864711
0.0543062288503
3.34479236226e-05
3.91929065201e-05
3.69939349288e-05
6.4198838897e-05
0.0564578980809
0.0549901416078
0.0556999355183
6.74216722368e-05
8.57378409874e-05
9.77283794942e-05
0.000110944203063
0.0579205374167
0.0562336414187
0.0565707446383
0.000171121375071
0.000270087042645
0.00014020528347
0.000189268674889
0.0593172436499
0.0569988916641
0.0578255909918
0.00034107680914
0.000489095708856
0.000269104082894
0.000400922121863
0.0624558313573
0.0585675752299
0.0613304788059
0.00137748074924
0.00101649962512
0.00114453115096
0.000955793438514
0.0664331866781
0.0640725436137
0.0658362914478
0.000367449227143
0.00032686820666
0.000359635784062
0.000313454850555
0.0694507304749
0.0673273149873
0.0687504673767
0.000369517743924
0.000454283773726
0.000344386963136
0.00038669458849
0.0726886717269
0.0696503247
0.0717754409017
0.000689171373267
0.00102660515109
0.000633897094622
0.0011600936953
0.0528805654479
0.0520093441815
2.01685127753e-05
2.54418530652e-05
3.20553057882e-05
0.0532863899552
0.0518683485323
0.0520002744655
5.85189657701e-05
7.88303949845e-05
5.9120469331e-05
5.93948788812e-05
0.0546949024536
0.0527746803871
0.0538534102669
0.000100081452073
0.000102412852967
8.34057872526e-05
0.000109879556477
0.0556829162225
0.0545332154552
0.0551811652211
0.000124656678148
0.000177513993746
0.000201966329459
0.00030842614617
0.0568811328236
0.0559812938721
0.0566460964171
0.000261567534891
0.000417896143993
0.000331044410119
0.000376770935517
0.0605155418439
0.0578344608099
0.060492664399
0.000715710757459
0.000750426660351
0.00058934155837
0.000544320942267
0.0648115911777
0.0624992794076
0.0641905634869
0.000335782904595
0.000295096681232
0.000293595867663
0.00026292216445
0.0679780474566
0.0652369211298
0.0671578006758
0.000303775684784
0.000340550863064
0.00025920514314
0.000307891201615
0.0707224065965
0.0674468701033
0.0695757932096
0.000575138973609
0.00125485409615
0.000519489672771
0.00138952071214
0.0538107136118
0.0547391565227
0.000106932957564
0.000194228486709
0.000170409675297
0.000321775889935
0.0544249610902
0.0550241031724
0.0553979414859
0.000413816257806
0.000609700794206
0.000569033662268
0.000816126629773
0.057423890445
0.0560082922857
0.0583754721718
0.000871449479407
0.000565318254383
0.00104140520534
0.000494590314576
0.0612727154887
0.0606958069178
0.0621228922632
0.000262699930396
0.000256381766648
0.000277116514876
0.000281477426364
0.0637684687539
0.0631311668295
0.0639737571614
0.00027899946215
0.000288591027885
0.00029849190757
0.000308347601653
0.066629519539
0.064514357989
0.0660023586803
0.000263865248577
0.000307739549896
0.00027208521077
0.000284599652927
0.0683975154282
0.0651686204806
0.0674451251385
0.000487894283774
0.00142065574665
0.00044103228099
0.00145024856121
0.0628350831194
0.000356710921469
0.0644015985657
0.000346577076137
0.000349989959
0.000387198917008
0.000401377963589
0.0659871082118
0.000309362201903
0.000317664660056
0.000365464591825
0.000380014667752
0.0667712161985
0.000466659211526
0.00162121601405
0.000524716625843
0.00166341221432
0.999126474602
0.999153263426
0.864420044644
0.86278343419
0.999092711447
0.862923971412
0.999176936425
0.999061620497
0.998942456516
0.862213901462
0.863324688931
0.999029383134
0.998964659382
0.862305271111
0.99884970324
0.999064912259
0.864421974886
0.862986957895
0.998996325477
0.863474974117
0.998918167139
0.998780377807
0.998805312193
0.865586438087
0.866425585289
0.998752875416
0.8646278227
0.99881775085
0.99881526488
0.998905112912
0.862453594094
0.862966182313
0.998939078014
0.998832216731
0.863159127273
0.998735655765
0.998757756537
0.865979625246
0.86370498046
0.998721347866
0.998771084285
0.864422284253
0.998795354489
0.998812923503
0.869791258362
0.867979237153
0.998760785851
0.868910824017
0.998822015728
0.998805858656
0.998798255976
0.870846764913
0.87021340084
0.998798764866
0.869836153257
0.998819051295
0.998763608647
0.998760855844
0.867384200424
0.866578860713
0.99873170868
0.998766196939
0.868201471978
0.998768646657
0.998745892515
0.869155195287
0.867569467701
0.998755294271
0.998762733013
0.868878623002
0.998726913866
0.99875004985
0.872706910124
0.870802159032
0.998769310916
0.871327146073
0.998707720494
0.998705234923
0.998665891998
0.873904957526
0.872002713448
0.998640740899
0.871928894951
0.998699736747
0.998650864847
0.998697461876
0.869700204936
0.868137482213
0.998711262439
0.998630964592
0.870092292892
0.998609835763
0.998371945805
0.869128656276
0.86770431477
0.998497227482
0.998534073968
0.87005145242
0.99843516199
0.998598284449
0.870953945925
0.870581178561
0.998540123169
0.86810653108
0.99848984206
0.998383567545
0.998432741239
0.867034036034
0.859151349898
0.998338706642
0.863931079463
0.998456520245
0.998219554835
0.998188503171
0.866742946787
0.860236871631
0.998352262896
0.997993339607
0.863841402022
0.998189415701
0.997992086082
0.855404131337
0.855755241581
0.998205925502
0.99796377273
0.859697036902
0.998299615092
0.998408711925
0.852493992203
0.854094081229
0.998311978805
0.849524216196
0.99836046953
0.998257349107
0.998267875617
0.848947896686
0.844811728601
0.998257785037
0.846470134815
0.998274161731
0.998245599352
0.998052157823
0.851062410386
0.845084132927
0.998225944773
0.99813445207
0.847174209565
0.998216013316
0.99817783625
0.84488272018
0.844296770361
0.998234561349
0.998151020713
0.845816136956
0.998250967352
0.998256896576
0.848061456397
0.845617870161
0.998247705783
0.846992123377
0.998259128203
0.998195208457
0.998049429428
0.850465309885
0.849831903663
0.998038823235
0.848939231222
0.998216037401
0.998235446117
0.998194222387
0.845669415878
0.84591733017
0.998242522072
0.998185497386
0.84684166816
0.998160545127
0.997978538364
0.848724365704
0.846444770603
0.997985449042
0.998118297125
0.848434399883
0.997601304189
0.99773942776
0.850219737321
0.84958928345
0.99778740904
0.848650612918
0.997589171287
0.997393613453
0.99753236144
0.846339951036
0.836883632902
0.9974020473
0.843646852366
0.997491110557
0.997587434094
0.997771961239
0.848277476229
0.845887451021
0.997755706477
0.997581905868
0.847154975741
0.997339030618
0.997207698608
0.832975248063
0.839929318081
0.997343243861
0.997251180366
0.840967689695
0.996623817879
0.997349600427
0.837851221963
0.839325077058
0.997238801695
0.83524720306
0.996676499872
0.994341187344
0.993750126916
0.809212756377
0.829603512342
0.811116700917
0.994915597561
0.993582738139
0.996637119113
0.997092735232
0.83701623094
0.833151795348
0.997226111712
0.996588999315
0.834055731296
0.994707778333
0.99585381667
0.831501119674
0.806899895101
0.99505391745
0.804700244744
0.995506244353
0.998413497346
0.998290415609
0.860791375047
0.861413145077
0.998448498884
0.862846992693
0.998251819798
0.998532625459
0.998662506963
0.86291446464
0.867841837553
0.998567901247
0.998624491896
0.864877516832
0.99836856217
0.998311727362
0.863579104059
0.867595834197
0.99843198958
0.864587442182
0.998271793989
0.998473924889
0.998642253226
0.868507850599
0.868363697882
0.998565277985
0.998540094079
0.865962568913
0.99876595282
0.998742531928
0.864530351704
0.867737278815
0.998797891215
0.998726262249
0.867161502043
0.998759719409
0.998771223425
0.863897040371
0.865346716274
0.998792727153
0.998747089714
0.866367820579
0.998707668042
0.998736607738
0.868705397192
0.870751700896
0.998665627974
0.998764635381
0.868340369409
0.998706405146
0.99874659427
0.866918484171
0.870152368862
0.998699840946
0.998761827207
0.86780885273
0.998675750712
0.99873528333
0.862865480781
0.864387015631
0.998664531988
0.998721504657
0.863468646926
0.998615057513
0.998559631639
0.863304803906
0.863805539988
0.998600059157
0.998553177303
0.863586317859
0.998607819932
0.998714246888
0.865862052188
0.867071138001
0.998672664066
0.99864829005
0.864621571647
0.99851866999
0.998448288415
0.864405483643
0.866221525216
0.99842557087
0.998552937483
0.864417965498
0.998388955058
0.998516176922
0.865515219706
0.864027490068
0.998453212288
0.998483906869
0.864093773654
0.998275266555
0.998299160538
0.86640164261
0.864989234871
0.998378015413
0.998156728403
0.864534860869
0.99819697245
0.998344939039
0.864392913161
0.864966255214
0.998324978955
0.998228015535
0.864254350319
0.998074999697
0.998041562566
0.865045530509
0.865083977854
0.997983983316
0.998112594706
0.864456429149
0.99796911827
0.998221422565
0.866840729937
0.865545940506
0.998127978955
0.998073643338
0.865668748137
0.997804411084
0.99778262817
0.865623660567
0.861736381801
0.997981058005
0.997554751456
0.864377253487
0.997863784214
0.997986015298
0.865399438293
0.863967612506
0.997936585709
0.997887621239
0.864822416966
0.997744956444
0.997591655927
0.859837793203
0.861674685108
0.997572075622
0.997756436484
0.862749080365
0.997238480186
0.997612149843
0.857560110219
0.858312979754
0.997491948628
0.997317161923
0.854942369382
0.997254104145
0.997566500976
0.854033948836
0.849522489331
0.997496297419
0.997344179732
0.852136685864
0.997510793422
0.997564903644
0.857292006764
0.854539544854
0.997498356147
0.997601016512
0.854665880872
0.997568072193
0.997785858423
0.851521625595
0.853257916624
0.997692480244
0.997680994467
0.853156202722
0.997608018404
0.997669609891
0.846064028982
0.847576104381
0.997787537221
0.997469451405
0.846718247179
0.997664773767
0.997790723637
0.846168175526
0.846292540733
0.997810054807
0.997659946378
0.846545860175
0.997888832237
0.997871670081
0.849923078045
0.84947518919
0.997820330202
0.997925360448
0.848786042971
0.997903584388