/*--------------------------------*- C++ -*----------------------------------*\
| =========                 |                                                 |
| \\      /  F ield         | OpenFOAM: The Open Source CFD Toolbox           |
|  \\    /   O peration     | Version:  v1906                                 |
|   \\  /    A nd           | Web:      www.OpenFOAM.com                      |
|    \\/     M anipulation  |                                                 |
\*---------------------------------------------------------------------------*/
FoamFile
{
    version     2.0;
    format      ascii;
    class       volVectorField;
    location    "10.75";
    object      force.turbine;
}
// * * * * * * * * * * * * * * * * * * * * * * * * * * * * * * * * * * * * * //

dimensions      [1 -2 -2 0 0 0 0];


internalField   nonuniform List<vector> 
28582
(
(0 0 0)
(0 0 0)
(0 0 0)
(0 0 0)
(0 0 0)
(0 0 0)
(0 0 0)
(0 0 0)
(0 0 0)
(0 0 0)
(0 0 0)
(0 0 0)
(0 0 0)
(0 0 0)
(0 0 0)
(0 0 0)
(0 0 0)
(0 0 0)
(0 0 0)
(0 0 0)
(0 0 0)
(0 0 0)
(0 0 0)
(0 0 0)
(0 0 0)
(0 0 0)
(0 0 0)
(0 0 0)
(0 0 0)
(0 0 0)
(0 0 0)
(0 0 0)
(0 0 0)
(0 0 0)
(0 0 0)
(0 0 0)
(0 0 0)
(0 0 0)
(0 0 0)
(0 0 0)
(0 0 0)
(0 0 0)
(0 0 0)
(0 0 0)
(0 0 0)
(0 0 0)
(0 0 0)
(0 0 0)
(0 0 0)
(0 0 0)
(0 0 0)
(0 0 0)
(0 0 0)
(0 0 0)
(0 0 0)
(0 0 0)
(0 0 0)
(0 0 0)
(0 0 0)
(0 0 0)
(0 0 0)
(0 0 0)
(0 0 0)
(0 0 0)
(0 0 0)
(0 0 0)
(0 0 0)
(0 0 0)
(0 0 0)
(0 0 0)
(0 0 0)
(0 0 0)
(0 0 0)
(0 0 0)
(0 0 0)
(0 0 0)
(0 0 0)
(0 0 0)
(0 0 0)
(0 0 0)
(0 0 0)
(0 0 0)
(0 0 0)
(0 0 0)
(0 0 0)
(0 0 0)
(0 0 0)
(0 0 0)
(0 0 0)
(0 0 0)
(0 0 0)
(0 0 0)
(0 0 0)
(0 0 0)
(0 0 0)
(0 0 0)
(0 0 0)
(0 0 0)
(0 0 0)
(0 0 0)
(0 0 0)
(0 0 0)
(0 0 0)
(0 0 0)
(0 0 0)
(0 0 0)
(0 0 0)
(0 0 0)
(0 0 0)
(0 0 0)
(0 0 0)
(0 0 0)
(0 0 0)
(0 0 0)
(0 0 0)
(0 0 0)
(0 0 0)
(0 0 0)
(0 0 0)
(0 0 0)
(0 0 0)
(0 0 0)
(0 0 0)
(0 0 0)
(0 0 0)
(0 0 0)
(0 0 0)
(0 0 0)
(0 0 0)
(0 0 0)
(0 0 0)
(0 0 0)
(0 0 0)
(0 0 0)
(0 0 0)
(0 0 0)
(0 0 0)
(0 0 0)
(0 0 0)
(0 0 0)
(0 0 0)
(0 0 0)
(0 0 0)
(0 0 0)
(0 0 0)
(0 0 0)
(0 0 0)
(0 0 0)
(0 0 0)
(0 0 0)
(0 0 0)
(0 0 0)
(0 0 0)
(0 0 0)
(0 0 0)
(0 0 0)
(0 0 0)
(0 0 0)
(0 0 0)
(0 0 0)
(0 0 0)
(0 0 0)
(0 0 0)
(0 0 0)
(0 0 0)
(0 0 0)
(0 0 0)
(0 0 0)
(0 0 0)
(0 0 0)
(0 0 0)
(0 0 0)
(0 0 0)
(0 0 0)
(0 0 0)
(0 0 0)
(0 0 0)
(0 0 0)
(0 0 0)
(0 0 0)
(0 0 0)
(0 0 0)
(0 0 0)
(0 0 0)
(0 0 0)
(0 0 0)
(0 0 0)
(0 0 0)
(0 0 0)
(0 0 0)
(0 0 0)
(0 0 0)
(0 0 0)
(0 0 0)
(0 0 0)
(0 0 0)
(0 0 0)
(0 0 0)
(0 0 0)
(0 0 0)
(0 0 0)
(0 0 0)
(0 0 0)
(0 0 0)
(0 0 0)
(0 0 0)
(0 0 0)
(0 0 0)
(0 0 0)
(0 0 0)
(0 0 0)
(0 0 0)
(0 0 0)
(0 0 0)
(0 0 0)
(0 0 0)
(0 0 0)
(-0.00285731816281 6.6682756296e-05 0)
(0 0 0)
(0 0 0)
(0 0 0)
(0 0 0)
(-2.25931826459e-05 5.08807450284e-07 0)
(0 0 0)
(-2.10418872745e-06 6.0952133454e-08 0)
(0 0 0)
(0 0 0)
(0 0 0)
(0 0 0)
(0 0 0)
(0 0 0)
(0 0 0)
(0 0 0)
(0 0 0)
(0 0 0)
(0 0 0)
(0 0 0)
(-0.0158031655364 0.000465670196395 0)
(0 0 0)
(0 0 0)
(0 0 0)
(-0.0260842970762 0.000647221419784 0)
(0 0 0)
(0 0 0)
(-0.0329418933758 0.000626258638886 0.000847029476981)
(-0.55509346988 -0.0166959152635 0.0966592593724)
(-0.0705225439848 0.00174985359626 0)
(-0.676171598007 0.016697840515 0)
(-0.0051456324135 8.6565444144e-05 0)
(-0.0706718630879 0.00175355860397 0)
(0 0 0)
(0 0 0)
(0 0 0)
(0 0 0)
(0 0 0)
(-0.0158030916394 0.000465668018882 0)
(0 0 0)
(0 0 0)
(0 0 0)
(-0.0260638988252 0.000646715284427 0)
(0 0 0)
(0 0 0)
(0 0 0)
(0 0 0)
(0 0 0)
(0 0 0)
(0 0 0)
(0 0 0)
(-1.89754944339e-05 3.79989574735e-07 0)
(0 0 0)
(-1.18887369844e-05 2.38075277911e-07 0)
(-0.000210390090569 4.77252133054e-06 0)
(-0.00106994199561 2.42707295894e-05 0)
(-0.00011945297796 2.70968981366e-06 0)
(-0.000591124739485 1.34091649496e-05 0)
(0 0 0)
(0 0 0)
(-0.000286099395234 5.20849596548e-06 0)
(0 0 0)
(0 0 0)
(0 0 0)
(0 0 0)
(0 0 0)
(0 0 0)
(-0.0141854190937 0.000331052683141 0)
(-0.000599241808075 1.25192263097e-05 0)
(-0.00316401124623 7.38402161847e-05 0)
(-3.61955848646e-05 7.79697074583e-07 0)
(-0.000179509950208 4.07203145404e-06 0)
(-4.12868554109e-06 1.19595827507e-07 0)
(-3.57033608364e-05 7.69093968257e-07 0)
(0 0 0)
(0 0 0)
(0 0 0)
(0 0 0)
(0 0 0)
(-0.000329220937343 5.99353215166e-06 0)
(0 0 0)
(0 0 0)
(0 0 0)
(0 0 0)
(0 0 0)
(0 0 0)
(0 0 0)
(0 0 0)
(0 0 0)
(0 0 0)
(0 0 0)
(0 0 0)
(0 0 0)
(0 0 0)
(0 0 0)
(0 0 0)
(0 0 0)
(0 0 0)
(0 0 0)
(0 0 0)
(-0.00485263281684 7.72404724569e-05 0)
(0 0 0)
(0 0 0)
(0 0 0)
(0 0 0)
(0 0 0)
(-0.00413810993397 6.9615801434e-05 0)
(0 0 0)
(0 0 0)
(0 0 0)
(0 0 0)
(0 0 0)
(0 0 0)
(0 0 0)
(0 0 0)
(0 0 0)
(0 0 0)
(0 0 0)
(0 0 0)
(0 0 0)
(0 0 0)
(0 0 0)
(0 0 0)
(0 0 0)
(0 0 0)
(0 0 0)
(0 0 0)
(0 0 0)
(0 0 0)
(-0.0349792985117 0.000921664656761 0)
(-0.00773639393117 0.000160589817803 0)
(-0.0125799544391 0.000261131039773 0)
(-0.00986044193097 0.000205770109059 0)
(-0.0187237962757 0.000493350696038 0)
(0 0 0)
(0 0 0)
(0 0 0)
(0 0 0)
(0 0 0)
(0 0 0)
(0 0 0)
(0 0 0)
(0 0 0)
(0 0 0)
(-0.00454054548365 7.63860114487e-05 0)
(0 0 0)
(-0.00767659835969 0.000160197128358 0)
(0 0 0)
(0 0 0)
(-0.125940061359 0.00328469553209 0)
(-0.0980924431837 0.00255839012925 0)
(-0.170863726197 0.00421942485939 0)
(-0.0377397241437 0.00093642384808 0)
(-0.235294085655 0.006136803679 0)
(-0.0508790924942 0.00134060611033 0)
(-0.0901736427424 0.00223745009928 0)
(-0.266601032339 0.00695333327878 0)
(-0.97243742414 0.0224201616964 0.00881469158983)
(-0.36139787445 0.00892460447588 0)
(-0.362615041034 0.00895466201389 0)
(-0.498099266745 0.0129911357702 0)
(-0.193762928481 0.00478491330755 0)
(-0.49809794135 0.012991101202 0)
(-0.0594958728053 0.00155173679823 0)
(-0.00869672656974 0.000181485412849 0)
(-0.0178959533868 0.000444046635627 0)
(-0.0179031762532 0.000444225854328 0)
(-0.0240356220887 0.000633311253368 0)
(-0.0240351276957 0.000633298226677 0)
(-0.0427800485574 0.00106148782483 0)
(-0.125945250443 0.00328483087078 0)
(-0.098091931817 0.00255837679208 0)
(-0.171794881411 0.00424241943843 0)
(-0.0377980446831 0.000937870937192 0)
(-0.0508804959541 0.0013406430899 0)
(-0.0903512499802 0.00224185701154 0)
(-0.23530063073 0.00613697438385 0)
(0 0 0)
(0 0 0)
(0 0 0)
(0 0 0)
(0 0 0)
(0 0 0)
(0 0 0)
(0 0 0)
(0 0 0)
(0 0 0)
(0 0 0)
(0 0 0)
(0 0 0)
(0 0 0)
(0 0 0)
(0 0 0)
(0 0 0)
(0 0 0)
(0 0 0)
(0 0 0)
(0 0 0)
(0 0 0)
(0 0 0)
(-0.00454223328048 7.64144054089e-05 0)
(0 0 0)
(-0.00767527791322 0.000160169572958 0)
(0 0 0)
(0 0 0)
(0 0 0)
(-0.0349728189327 0.000921493927239 0)
(-0.0125876409203 0.000261290593516 0)
(-0.00766133538537 0.000159031774313 0)
(-0.0187192109596 0.000493229878186 0)
(0 0 0)
(-0.00985536285031 0.000205664117564 0)
(0 0 0)
(0 0 0)
(0 0 0)
(0 0 0)
(0 0 0)
(0 0 0)
(0 0 0)
(0 0 0)
(0 0 0)
(0 0 0)
(0 0 0)
(0 0 0)
(0 0 0)
(0 0 0)
(0 0 0)
(0 0 0)
(0 0 0)
(0 0 0)
(0 0 0)
(0 0 0)
(0 0 0)
(0 0 0)
(0 0 0)
(0 0 0)
(0 0 0)
(0 0 0)
(0 0 0)
(0 0 0)
(0 0 0)
(0 0 0)
(0 0 0)
(0 0 0)
(0 0 0)
(0 0 0)
(0 0 0)
(0 0 0)
(-0.0151941181852 0.000268961439878 0)
(0 0 0)
(0 0 0)
(0 0 0)
(0 0 0)
(0 0 0)
(0 0 0)
(0 0 0)
(-0.00339036639193 6.00151858355e-05 0)
(0 0 0)
(0 0 0)
(0 0 0)
(0 0 0)
(0 0 0)
(0 0 0)
(0 0 0)
(0 0 0)
(0 0 0)
(0 0 0)
(0 0 0)
(0 0 0)
(0 0 0)
(0 0 0)
(0 0 0)
(0 0 0)
(0 0 0)
(0 0 0)
(0 0 0)
(0 0 0)
(0 0 0)
(0 0 0)
(0 0 0)
(0 0 0)
(0 0 0)
(0 0 0)
(0 0 0)
(-0.325892295788 0.00799371628831 0)
(-0.00780116334095 0.000138093708324 0)
(0 0 0)
(0 0 0)
(0 0 0)
(0 0 0)
(0 0 0)
(0 0 0)
(-0.0715448309485 0.00177569886704 0)
(0 0 0)
(0 0 0)
(0 0 0)
(0 0 0)
(0 0 0)
(0 0 0)
(0 0 0)
(0 0 0)
(0 0 0)
(0 0 0)
(0 0 0)
(0 0 0)
(0 0 0)
(0 0 0)
(0 0 0)
(0 0 0)
(0 0 0)
(0 0 0)
(0 0 0)
(0 0 0)
(0 0 0)
(0 0 0)
(0 0 0)
(0 0 0)
(0 0 0)
(0 0 0)
(0 0 0)
(-1.52989357236 0.0488246902077 0)
(-0.0439525451206 0.00138981725733 0)
(0 0 0)
(0 0 0)
(0 0 0)
(0 0 0)
(0 0 0)
(0 0 0)
(-0.335560162415 0.010581905462 0)
(-0.00665398466026 0.000236137424525 0)
(0 0 0)
(0 0 0)
(0 0 0)
(0 0 0)
(0 0 0)
(0 0 0)
(0 0 0)
(0 0 0)
(0 0 0)
(0 0 0)
(0 0 0)
(0 0 0)
(0 0 0)
(0 0 0)
(0 0 0)
(0 0 0)
(0 0 0)
(0 0 0)
(0 0 0)
(0 0 0)
(0 0 0)
(0 0 0)
(0 0 0)
(0 0 0)
(0 0 0)
(0 0 0)
(0 0 0)
(0 0 0)
(0 0 0)
(0 0 0)
(0 0 0)
(0 0 0)
(0 0 0)
(-2.53006361741 0.072375668709 0)
(-0.0764140831569 0.00218592146427 0)
(0 0 0)
(0 0 0)
(0 0 0)
(0 0 0)
(0 0 0)
(0 0 0)
(-2.53048824789 0.072387815801 0)
(-0.564624912239 0.0161518095087 0)
(-0.0158029971531 0.000465665234663 0)
(0 0 0)
(0 0 0)
(0 0 0)
(0 0 0)
(0 0 0)
(0 0 0)
(-0.0463476755398 0.00132583385936 0)
(-0.0764143586542 0.00218592934522 0)
(-0.0158031056123 0.000465668430619 0)
(0 0 0)
(0 0 0)
(0 0 0)
(0 0 0)
(0 0 0)
(0 0 0)
(0 0 0)
(0 0 0)
(0 0 0)
(0 0 0)
(0 0 0)
(0 0 0)
(0 0 0)
(0 0 0)
(0 0 0)
(0 0 0)
(0 0 0)
(0 0 0)
(0 0 0)
(0 0 0)
(0 0 0)
(0 0 0)
(0 0 0)
(0 0 0)
(0 0 0)
(0 0 0)
(-0.0705467839656 0.00164394067328 0)
(-0.00209810321642 4.89645525954e-05 0)
(0 0 0)
(0 0 0)
(0 0 0)
(0 0 0)
(0 0 0)
(0 0 0)
(-0.0416408129542 0.000970349351675 0)
(-0.0717972128875 0.00167307922288 0)
(-0.015886552894 0.000370752948974 0)
(-0.000375765050696 6.84087692294e-06 0)
(0 0 0)
(0 0 0)
(0 0 0)
(0 0 0)
(0 0 0)
(0 0 0)
(-0.00116296971696 2.4296504152e-05 0)
(-0.00213044952236 4.97194355706e-05 0)
(-0.000364103430756 6.62857482995e-06 0)
(0 0 0)
(0 0 0)
(0 0 0)
(0 0 0)
(0 0 0)
(0 0 0)
(0 0 0)
(0 0 0)
(0 0 0)
(0 0 0)
(0 0 0)
(0 0 0)
(0 0 0)
(0 0 0)
(0 0 0)
(0 0 0)
(0 0 0)
(0 0 0)
(0 0 0)
(0 0 0)
(0 0 0)
(0 0 0)
(0 0 0)
(0 0 0)
(0 0 0)
(0 0 0)
(-0.000172272888861 3.97879324297e-06 0)
(-0.000170433503313 3.93631102282e-06 0)
(-2.18377319995e-05 4.91794401559e-07 0)
(0 0 0)
(0 0 0)
(0 0 0)
(0 0 0)
(0 0 0)
(0 0 0)
(0 0 0)
(-2.29827115804e-05 5.17579796664e-07 0)
(-2.25437687509e-05 5.07694629734e-07 0)
(-2.10187611232e-06 6.08851438234e-08 0)
(0 0 0)
(0 0 0)
(0 0 0)
(0 0 0)
(0 0 0)
(0 0 0)
(0 0 0)
(0 0 0)
(0 0 0)
(0 0 0)
(0 0 0)
(0 0 0)
(0 0 0)
(0 0 0)
(0 0 0)
(0 0 0)
(0 0 0)
(0 0 0)
(0 0 0)
(0 0 0)
(0 0 0)
(0 0 0)
(0 0 0)
(0 0 0)
(0 0 0)
(0 0 0)
(0 0 0)
(0 0 0)
(0 0 0)
(0 0 0)
(0 0 0)
(0 0 0)
(0 0 0)
(0 0 0)
(0 0 0)
(0 0 0)
(-0.00339033335418 6.00146010117e-05 0)
(-0.00921593910763 0.000163137618255 0)
(-0.00205635418764 3.64009267578e-05 0)
(-0.0876432438873 0.00187313171449 0)
(-0.017950205307 0.000317748816131 0)
(-0.0531591031636 0.00113612866928 0)
(-0.0108872587792 0.000192722786667 0)
(0 0 0)
(0 0 0)
(0 0 0)
(-0.00242930819848 4.30028398495e-05 0)
(0 0 0)
(0 0 0)
(0 0 0)
(0 0 0)
(0 0 0)
(0 0 0)
(-0.0179501766959 0.000317748309665 0)
(-0.00400523010116 7.08993073455e-05 0)
(-0.00400524220786 7.08995216544e-05 0)
(0 0 0)
(0 0 0)
(0 0 0)
(0 0 0)
(0 0 0)
(0 0 0)
(0 0 0)
(0 0 0)
(-0.071548073701 0.00177577935017 0)
(-0.197661190803 0.00484837322302 0)
(-0.043395627014 0.00107705287303 0)
(-0.812074790816 0.023102165788 0)
(-0.179479195637 0.00510498206977 0)
(-0.492546336989 0.0140121171893 0)
(-0.10885981724 0.00309633332798 0)
(0 0 0)
(-0.00473164481796 8.37580692557e-05 0)
(0 0 0)
(-0.0231170777037 0.000682916217836 0)
(0 0 0)
(-0.0123452313441 0.000358348616136 0)
(0 0 0)
(-0.0151037765457 0.000367543231462 0)
(-0.0151039281397 0.000367546920431 0)
(-0.00286978394548 5.08000012051e-05 0)
(-0.179461994875 0.0051044928232 0)
(-0.0381119048914 0.0011258878945 0)
(-0.03811019233 0.00112583730264 0)
(-0.0074873721822 0.000217338127185 0)
(0 0 0)
(0 0 0)
(0 0 0)
(-0.00339033472816 6.00146253336e-05 0)
(0 0 0)
(0 0 0)
(0 0 0)
(-0.335614341301 0.0105836139957 0)
(-0.912212730144 0.0287666712345 0)
(-0.203560425752 0.00641928757454 0)
(-2.22991866305 0.0707796778208 0)
(-0.491899372671 0.0154852371588 0)
(-1.33684807818 0.0420846430919 0)
(-0.298358500773 0.00939247415122 0)
(0 0 0)
(-0.0266585218224 0.000842965375088 0)
(0 0 0)
(-0.0665758488293 0.00209584086796 0)
(0 0 0)
(-0.0403803391009 0.00127119317948 0)
(0 0 0)
(-0.0748819894734 0.00236140705055 0)
(-0.074882493946 0.00236142295912 0)
(-0.0142345712422 0.000498114393521 0)
(-0.491882148125 0.0154846949215 0)
(-0.109759851288 0.00345529476585 0)
(-0.109765469784 0.0034554716389 0)
(-0.0244919041714 0.000771017337357 0)
(0 0 0)
(0 0 0)
(0 0 0)
(-0.0136117037143 0.000431628015408 0)
(0 0 0)
(0 0 0)
(0 0 0)
(-7.06918870522 0.207065874697 0)
(-4.19772966465 0.120736827295 0)
(-3.91417601898 0.096659320068 0)
(-1.84699643034 0.045610983834 0)
(-0.564581935533 0.0161505801056 0)
(-1.53472007364 0.0439026081584 0)
(-0.342453741428 0.00979632226131 0)
(-2.37436481279 0.0586341767168 0)
(-0.251145283276 0.00620195213554 0)
(-1.12024489085 0.0276640879036 0)
(-0.118345358532 0.00292250063191 0)
(0 0 0)
(-0.0463477816228 0.001325836894 0)
(0 0 0)
(-0.0910103947839 0.00225821216324 0)
(0 0 0)
(-0.042864059768 0.00106357236845 0)
(0 0 0)
(0 0 0)
(0 0 0)
(0 0 0)
(0 0 0)
(0 0 0)
(0 0 0)
(0 0 0)
(0 0 0)
(0 0 0)
(0 0 0)
(0 0 0)
(0 0 0)
(0 0 0)
(0 0 0)
(0 0 0)
(0 0 0)
(0 0 0)
(0 0 0)
(0 0 0)
(0 0 0)
(0 0 0)
(0 0 0)
(0 0 0)
(0 0 0)
(0 0 0)
(0 0 0)
(0 0 0)
(0 0 0)
(0 0 0)
(0 0 0)
(0 0 0)
(0 0 0)
(0 0 0)
(0 0 0)
(0 0 0)
(0 0 0)
(0 0 0)
(0 0 0)
(0 0 0)
(0 0 0)
(0 0 0)
(0 0 0)
(-0.771573571406 -0.0105033779224 0.0966597034959)
(-0.569460219972 0.0159740397684 0.00084704008804)
(-1.11580789458 0.0275545177054 0)
(-2.37820102746 0.0587289108064 0)
(-0.118591068121 0.00292856835134 0)
(-0.252208912177 0.00622821810975 0)
(-1.53481798088 0.0439054089187 0)
(-0.564632742287 0.0161520334971 0)
(-0.342466906453 0.00979669886351 0)
(-2.37750015482 0.0587116029817 0)
(-1.12057687512 0.0276722861485 0)
(-0.252317340902 0.00623089572229 0)
(-0.11893405496 0.00293703830121 0)
(-0.125984848984 0.00360395589649 0)
(-0.125986372297 0.00360399947279 0)
(-0.0281112907468 0.000804159014847 0)
(-0.679406008844 0.0167777132522 0)
(-0.0705376334142 0.0017502280055 0)
(-0.0708603378504 0.00175823516869 0)
(-0.00511726668452 8.60882448941e-05 0)
(0 0 0)
(0 0 0)
(0 0 0)
(-0.0259702754189 0.000644392236435 0)
(0 0 0)
(0 0 0)
(0 0 0)
(0 0 0)
(0 0 0)
(0 0 0)
(0 0 0)
(0 0 0)
(0 0 0)
(0 0 0)
(0 0 0)
(0 0 0)
(0 0 0)
(0 0 0)
(0 0 0)
(0 0 0)
(0 0 0)
(0 0 0)
(0 0 0)
(0 0 0)
(0 0 0)
(0 0 0)
(0 0 0)
(0 0 0)
(0 0 0)
(0 0 0)
(0 0 0)
(0 0 0)
(0 0 0)
(0 0 0)
(0 0 0)
(0 0 0)
(0 0 0)
(0 0 0)
(0 0 0)
(0 0 0)
(0 0 0)
(0 0 0)
(0 0 0)
(0 0 0)
(0 0 0)
(0 0 0)
(0 0 0)
(0 0 0)
(0 0 0)
(-0.0764142995301 0.0021859276539 0)
(0 0 0)
(0 0 0)
(-0.0430008355321 0.00106696614226 0)
(-0.0913814068026 0.00226741796721 0)
(0 0 0)
(0 0 0)
(-0.0463476578114 0.00132583335222 0)
(0 0 0)
(0 0 0)
(-0.0914873981722 0.00227004789757 0)
(-0.0431377784293 0.00107036406309 0)
(0 0 0)
(0 0 0)
(0 0 0)
(0 0 0)
(0 0 0)
(-0.0261355205966 0.000648492412806 0)
(0 0 0)
(0 0 0)
(0 0 0)
(0 0 0)
(0 0 0)
(0 0 0)
(0 0 0)
(0 0 0)
(0 0 0)
(0 0 0)
(0 0 0)
(0 0 0)
(0 0 0)
(0 0 0)
(0 0 0)
(0 0 0)
(0 0 0)
(0 0 0)
(0 0 0)
(0 0 0)
(0 0 0)
(0 0 0)
(0 0 0)
(0 0 0)
(0 0 0)
(0 0 0)
(0 0 0)
(0 0 0)
(0 0 0)
(0 0 0)
(0 0 0)
(0 0 0)
(0 0 0)
(0 0 0)
(0 0 0)
(0 0 0)
(0 0 0)
(0 0 0)
(0 0 0)
(0 0 0)
(0 0 0)
(0 0 0)
(0 0 0)
(0 0 0)
(0 0 0)
(0 0 0)
(0 0 0)
(0 0 0)
(0 0 0)
(0 0 0)
(0 0 0)
(0 0 0)
(0 0 0)
(0 0 0)
(0 0 0)
(0 0 0)
(0 0 0)
(0 0 0)
(0 0 0)
(0 0 0)
(0 0 0)
(0 0 0)
(0 0 0)
(0 0 0)
(0 0 0)
(0 0 0)
(0 0 0)
(0 0 0)
(0 0 0)
(0 0 0)
(0 0 0)
(0 0 0)
(0 0 0)
(0 0 0)
(0 0 0)
(0 0 0)
(0 0 0)
(0 0 0)
(0 0 0)
(0 0 0)
(0 0 0)
(0 0 0)
(0 0 0)
(0 0 0)
(0 0 0)
(0 0 0)
(0 0 0)
(0 0 0)
(0 0 0)
(0 0 0)
(0 0 0)
(0 0 0)
(0 0 0)
(0 0 0)
(0 0 0)
(0 0 0)
(0 0 0)
(0 0 0)
(0 0 0)
(0 0 0)
(0 0 0)
(0 0 0)
(0 0 0)
(0 0 0)
(0 0 0)
(0 0 0)
(0 0 0)
(0 0 0)
(0 0 0)
(0 0 0)
(0 0 0)
(0 0 0)
(0 0 0)
(0 0 0)
(0 0 0)
(0 0 0)
(0 0 0)
(0 0 0)
(0 0 0)
(0 0 0)
(0 0 0)
(0 0 0)
(0 0 0)
(0 0 0)
(0 0 0)
(0 0 0)
(0 0 0)
(0 0 0)
(0 0 0)
(0 0 0)
(0 0 0)
(0 0 0)
(0 0 0)
(0 0 0)
(0 0 0)
(0 0 0)
(0 0 0)
(0 0 0)
(0 0 0)
(0 0 0)
(0 0 0)
(0 0 0)
(0 0 0)
(0 0 0)
(0 0 0)
(0 0 0)
(0 0 0)
(0 0 0)
(0 0 0)
(0 0 0)
(0 0 0)
(0 0 0)
(0 0 0)
(0 0 0)
(0 0 0)
(0 0 0)
(0 0 0)
(0 0 0)
(0 0 0)
(0 0 0)
(0 0 0)
(0 0 0)
(0 0 0)
(0 0 0)
(0 0 0)
(0 0 0)
(0 0 0)
(0 0 0)
(0 0 0)
(0 0 0)
(0 0 0)
(0 0 0)
(0 0 0)
(-0.0020722341467 4.69913173166e-05 0)
(-0.00259545298971 5.88561650784e-05 0)
(-0.00131219447488 2.97660222697e-05 0)
(-0.00161357314411 3.65904247591e-05 0)
(-0.18897706762 0.00440370305086 0)
(-0.1175601494 0.00273948577514 0)
(-0.00232709378612 5.27706787878e-05 0)
(-0.0014086416205 3.19432654265e-05 0)
(-0.00142069363379 3.22165646489e-05 0)
(-0.000859709056771 1.9501773113e-05 0)
(-0.0156416111025 0.000365036611885 0)
(-0.0434973356474 0.00101361160964 0)
(-0.00962144137553 0.000224540703521 0)
(-0.00052602999939 1.19325458048e-05 0)
(-0.000118008158238 2.6769152998e-06 0)
(-0.000325549489009 7.3848149228e-06 0)
(-7.22666478074e-05 1.63930780777e-06 0)
(0 0 0)
(-0.00121979151821 2.54836125606e-05 0)
(0 0 0)
(-1.37268896978e-05 2.74884799281e-07 0)
(0 0 0)
(-8.37008806405e-06 1.67613350737e-07 0)
(0 0 0)
(0 0 0)
(0 0 0)
(0 0 0)
(0 0 0)
(0 0 0)
(0 0 0)
(0 0 0)
(0 0 0)
(0 0 0)
(0 0 0)
(0 0 0)
(0 0 0)
(0 0 0)
(0 0 0)
(0 0 0)
(0 0 0)
(0 0 0)
(0 0 0)
(0 0 0)
(0 0 0)
(0 0 0)
(0 0 0)
(0 0 0)
(0 0 0)
(0 0 0)
(0 0 0)
(0 0 0)
(0 0 0)
(0 0 0)
(0 0 0)
(0 0 0)
(0 0 0)
(0 0 0)
(0 0 0)
(0 0 0)
(0 0 0)
(0 0 0)
(0 0 0)
(0 0 0)
(0 0 0)
(0 0 0)
(0 0 0)
(-0.0715678575672 0.00166773459172 0)
(-0.00921894887093 0.0002151475215 0)
(-0.015939199464 0.000371981590027 0)
(-0.000591838016094 1.34253450265e-05 0)
(-0.000782215500306 1.77438973014e-05 0)
(-0.000130971553612 2.97097896398e-06 0)
(-0.000174202781134 3.95164281052e-06 0)
(-0.043220867431 0.00100716911403 0)
(-0.0159290008219 0.000371743578883 0)
(-0.00956169737798 0.00022314642602 0)
(-0.000686825728456 1.55800609742e-05 0)
(-0.000403206487784 9.14639828501e-06 0)
(-0.000131585440034 2.98490445845e-06 0)
(-7.65906741811e-05 1.73739469032e-06 0)
(-0.0035596981781 8.3074572929e-05 0)
(-0.00352078476945 8.2166429979e-05 0)
(-0.000745278860637 1.55701998666e-05 0)
(-0.000134255904804 3.045481694e-06 0)
(-2.68540009585e-05 5.7846795587e-07 0)
(-2.67198574333e-05 5.75578340616e-07 0)
(-3.06174520234e-06 8.8689716726e-08 0)
(0 0 0)
(0 0 0)
(0 0 0)
(0 0 0)
(0 0 0)
(0 0 0)
(0 0 0)
(0 0 0)
(0 0 0)
(0 0 0)
(0 0 0)
(0 0 0)
(0 0 0)
(0 0 0)
(0 0 0)
(0 0 0)
(0 0 0)
(0 0 0)
(0 0 0)
(0 0 0)
(0 0 0)
(0 0 0)
(0 0 0)
(0 0 0)
(0 0 0)
(0 0 0)
(0 0 0)
(0 0 0)
(0 0 0)
(0 0 0)
(0 0 0)
(0 0 0)
(0 0 0)
(0 0 0)
(0 0 0)
(0 0 0)
(0 0 0)
(0 0 0)
(0 0 0)
(0 0 0)
(0 0 0)
(0 0 0)
(0 0 0)
(0 0 0)
(0 0 0)
(0 0 0)
(0 0 0)
(0 0 0)
(0 0 0)
(-0.00214216809299 4.99929180969e-05 0)
(0 0 0)
(0 0 0)
(-1.33470715574e-05 2.67278834959e-07 0)
(-1.62798477944e-05 3.26008498051e-07 0)
(0 0 0)
(0 0 0)
(-0.00120719941204 2.52205410846e-05 0)
(0 0 0)
(0 0 0)
(-1.32897874556e-05 2.66131704825e-07 0)
(-8.06746113944e-06 1.61553162067e-07 0)
(0 0 0)
(0 0 0)
(0 0 0)
(0 0 0)
(0 0 0)
(0 0 0)
(0 0 0)
(0 0 0)
(0 0 0)
(0 0 0)
(0 0 0)
(0 0 0)
(0 0 0)
(0 0 0)
(0 0 0)
(0 0 0)
(0 0 0)
(0 0 0)
(0 0 0)
(0 0 0)
(0 0 0)
(0 0 0)
(0 0 0)
(0 0 0)
(0 0 0)
(0 0 0)
(0 0 0)
(0 0 0)
(0 0 0)
(0 0 0)
(0 0 0)
(0 0 0)
(0 0 0)
(0 0 0)
(0 0 0)
(0 0 0)
(0 0 0)
(0 0 0)
(0 0 0)
(0 0 0)
(0 0 0)
(0 0 0)
(0 0 0)
(0 0 0)
(0 0 0)
(0 0 0)
(0 0 0)
(0 0 0)
(0 0 0)
(0 0 0)
(0 0 0)
(0 0 0)
(0 0 0)
(0 0 0)
(0 0 0)
(0 0 0)
(0 0 0)
(0 0 0)
(0 0 0)
(0 0 0)
(0 0 0)
(0 0 0)
(0 0 0)
(0 0 0)
(0 0 0)
(0 0 0)
(0 0 0)
(0 0 0)
(0 0 0)
(0 0 0)
(0 0 0)
(0 0 0)
(0 0 0)
(0 0 0)
(0 0 0)
(0 0 0)
(0 0 0)
(0 0 0)
(0 0 0)
(0 0 0)
(0 0 0)
(0 0 0)
(0 0 0)
(0 0 0)
(0 0 0)
(0 0 0)
(0 0 0)
(0 0 0)
(0 0 0)
(0 0 0)
(0 0 0)
(0 0 0)
(0 0 0)
(0 0 0)
(0 0 0)
(0 0 0)
(0 0 0)
(0 0 0)
(0 0 0)
(0 0 0)
(0 0 0)
(0 0 0)
(0 0 0)
(0 0 0)
(0 0 0)
(0 0 0)
(0 0 0)
(0 0 0)
(0 0 0)
(0 0 0)
(0 0 0)
(0 0 0)
(0 0 0)
(0 0 0)
(0 0 0)
(0 0 0)
(0 0 0)
(0 0 0)
(0 0 0)
(0 0 0)
(0 0 0)
(0 0 0)
(0 0 0)
(0 0 0)
(0 0 0)
(0 0 0)
(0 0 0)
(0 0 0)
(0 0 0)
(0 0 0)
(0 0 0)
(0 0 0)
(0 0 0)
(0 0 0)
(0 0 0)
(0 0 0)
(0 0 0)
(0 0 0)
(0 0 0)
(0 0 0)
(0 0 0)
(0 0 0)
(0 0 0)
(0 0 0)
(0 0 0)
(0 0 0)
(0 0 0)
(0 0 0)
(0 0 0)
(0 0 0)
(0 0 0)
(0 0 0)
(0 0 0)
(0 0 0)
(0 0 0)
(0 0 0)
(0 0 0)
(0 0 0)
(0 0 0)
(0 0 0)
(0 0 0)
(0 0 0)
(0 0 0)
(0 0 0)
(0 0 0)
(0 0 0)
(0 0 0)
(0 0 0)
(0 0 0)
(0 0 0)
(0 0 0)
(0 0 0)
(0 0 0)
(0 0 0)
(0 0 0)
(0 0 0)
(0 0 0)
(0 0 0)
(0 0 0)
(0 0 0)
(0 0 0)
(0 0 0)
(0 0 0)
(0 0 0)
(-6.8995419862 0.180414982091 0)
(-5.36047338204 0.139808753291 0)
(-5.69891285085 0.140732823108 0)
(-3.45002862036 0.0851973490825 0)
(-4.73031475337 0.123373321945 0)
(-5.02057873379 0.123981579879 0)
(-7.82723209677 0.204912238647 0)
(-5.35998220904 0.139795942802 0)
(-2.5315746297 0.0660270591075 0)
(-2.68511340749 0.0663080134912 0)
(-2.68856861355 0.0663933386956 0)
(-3.68373955651 0.0960771555305 0)
(-3.68350113865 0.0960709372543 0)
(-3.90723048359 0.0964878023017 0)
(-1.53533520184 0.0400437209838 0)
(-3.25100424611 0.084790804505 0)
(-1.27160217326 0.0314018073967 0)
(-2.09304117764 0.0516869798711 0)
(-2.86880441517 0.0748224905031 0)
(-1.12095701521 0.0276816735859 0)
(-1.73988183745 0.0453785875296 0)
(-0.725190711512 0.0189140029338 0)
(-0.342564379751 0.00893456518509 0)
(-0.601470550268 0.0148531221253 0)
(-0.221482911802 0.00546944939565 0)
(-0.302296148751 0.00788431257266 0)
(-0.530208734386 0.0130933344621 0)
(-0.821779450849 0.0214331743327 0)
(-1.19567907273 0.031185007103 0)
(-1.53542028684 0.0400459401214 0)
(-1.62905582713 0.0402290106117 0)
(-0.599651917777 0.0148082115799 0)
(-2.23409922102 0.0582684782775 0)
(-0.821791340751 0.0214334844382 0)
(-0.872683239756 0.0215506324142 0)
(-0.56475383044 0.0147295813863 0)
(-0.161808258411 0.00422018901473 0)
(-0.17240238445 0.00425742153092 0)
(-0.283497727123 0.00700088534897 0)
(-0.235421053067 0.00614011516929 0)
(-0.388163007973 0.0101238421219 0)
(-0.412828930624 0.0101946778952 0)
(-0.0349889788389 0.000921919722351 0)
(-0.126023351968 0.00328686786939 0)
(-0.0295914078917 0.000734242252075 0)
(-0.0802704045976 0.00199172418097 0)
(-0.111209418194 0.0029004994529 0)
(-0.0260879223672 0.000647311372983 0)
(-0.0396487645165 0.00104469976512 0)
(-0.00870118920003 0.000181578540107 0)
(0 0 0)
(-0.00766144417039 0.000159034032441 0)
(0 0 0)
(0 0 0)
(-0.00514364355146 8.65319853362e-05 0)
(-0.00985986918278 0.00020575815681 0)
(-0.0272485788871 0.000717969003832 0)
(-0.0595261162147 0.00155252558927 0)
(-0.0624718469388 0.00155009419476 0)
(-0.0125697514228 0.000260919248525 0)
(-0.0866074630047 0.00225884554691 0)
(-0.0187277046154 0.000493453676336 0)
(-0.020300727068 0.000503715524984 0)
(-0.00484956415961 7.71916279341e-05 0)
(0 0 0)
(0 0 0)
(0 0 0)
(0 0 0)
(0 0 0)
(-0.00400146896882 6.73170779952e-05 0)
(0 0 0)
(0 0 0)
(0 0 0)
(0 0 0)
(0 0 0)
(0 0 0)
(0 0 0)
(0 0 0)
(0 0 0)
(0 0 0)
(0 0 0)
(0 0 0)
(0 0 0)
(0 0 0)
(0 0 0)
(0 0 0)
(0 0 0)
(0 0 0)
(0 0 0)
(0 0 0)
(0 0 0)
(0 0 0)
(0 0 0)
(0 0 0)
(0 0 0)
(0 0 0)
(0 0 0)
(0 0 0)
(0 0 0)
(0 0 0)
(0 0 0)
(0 0 0)
(0 0 0)
(0 0 0)
(0 0 0)
(0 0 0)
(0 0 0)
(0 0 0)
(0 0 0)
(0 0 0)
(0 0 0)
(0 0 0)
(0 0 0)
(0 0 0)
(0 0 0)
(0 0 0)
(0 0 0)
(0 0 0)
(0 0 0)
(0 0 0)
(0 0 0)
(0 0 0)
(0 0 0)
(0 0 0)
(0 0 0)
(0 0 0)
(0 0 0)
(0 0 0)
(0 0 0)
(0 0 0)
(0 0 0)
(0 0 0)
(0 0 0)
(0 0 0)
(0 0 0)
(0 0 0)
(0 0 0)
(0 0 0)
(0 0 0)
(0 0 0)
(0 0 0)
(0 0 0)
(0 0 0)
(0 0 0)
(0 0 0)
(0 0 0)
(0 0 0)
(0 0 0)
(0 0 0)
(0 0 0)
(0 0 0)
(0 0 0)
(0 0 0)
(0 0 0)
(0 0 0)
(0 0 0)
(0 0 0)
(0 0 0)
(0 0 0)
(0 0 0)
(0 0 0)
(0 0 0)
(0 0 0)
(0 0 0)
(0 0 0)
(0 0 0)
(0 0 0)
(0 0 0)
(0 0 0)
(0 0 0)
(0 0 0)
(0 0 0)
(0 0 0)
(0 0 0)
(0 0 0)
(0 0 0)
(0 0 0)
(0 0 0)
(0 0 0)
(0 0 0)
(0 0 0)
(0 0 0)
(0 0 0)
(0 0 0)
(0 0 0)
(0 0 0)
(0 0 0)
(0 0 0)
(0 0 0)
(0 0 0)
(0 0 0)
(0 0 0)
(0 0 0)
(0 0 0)
(0 0 0)
(0 0 0)
(0 0 0)
(0 0 0)
(0 0 0)
(0 0 0)
(0 0 0)
(0 0 0)
(0 0 0)
(0 0 0)
(0 0 0)
(0 0 0)
(0 0 0)
(0 0 0)
(0 0 0)
(0 0 0)
(0 0 0)
(0 0 0)
(0 0 0)
(0 0 0)
(0 0 0)
(0 0 0)
(0 0 0)
(0 0 0)
(0 0 0)
(0 0 0)
(0 0 0)
(0 0 0)
(0 0 0)
(0 0 0)
(0 0 0)
(0 0 0)
(0 0 0)
(0 0 0)
(0 0 0)
(0 0 0)
(0 0 0)
(0 0 0)
(0 0 0)
(0 0 0)
(0 0 0)
(0 0 0)
(0 0 0)
(0 0 0)
(-1.19519860011 0.0311724756951 0)
(-1.5763183358 0.038169895507 0.00881570230702)
(-1.62591976979 0.0401515666825 0)
(-0.598574006222 0.0147815929001 0)
(-2.23300315447 0.0582398913062 0)
(-0.872368027152 0.0215428483402 0)
(-0.821314296699 0.0214210424523 0)
(-1.53484830916 0.040031022132 0)
(-3.24969611288 0.0847566865339 0)
(-2.09286556047 0.0516826430616 0)
(-1.27662711218 0.0315258966498 0)
(-2.86757534833 0.0747904346955 0)
(-1.73937083666 0.0453652599037 0)
(-1.12277567475 0.0277265847996 0)
(-0.564546458614 0.0147241728348 0)
(-0.161736069896 0.0042183062358 0)
(-0.28345645805 0.00699986622246 0)
(-0.172723773195 0.00426535812281 0)
(-0.235352913213 0.0061383379852 0)
(-0.412907715029 0.0101966234508 0)
(-0.387969158047 0.0101187862407 0)
(-0.724968426424 0.0189082054232 0)
(-0.342508510816 0.00893310804398 0)
(-0.603498205646 0.0149031944239 0)
(-0.22197777571 0.00548166990097 0)
(-0.821571936523 0.0214277620646 0)
(-0.302231810029 0.00788263452749 0)
(-0.531026282171 0.0131135235421 0)
(-1.53520659785 0.0400403668094 0)
(-3.24995625686 0.0847634714582 0)
(-2.09678009714 0.0517793112878 0)
(-1.27647347991 0.0315221027502 0)
(-2.86823514538 0.074807643139 0)
(-1.73954791911 0.0453698784652 0)
(-1.12573728973 0.0277997209305 0)
(-1.19561264607 0.0311832746012 0)
(-1.53521469119 0.0400405778953 0)
(-1.63177913265 0.040296261767 0)
(-0.601304167321 0.0148490133519 0)
(-2.23377223955 0.0582599501368 0)
(-0.821721372537 0.0214316595679 0)
(-0.875923574652 0.0216306514441 0)
(-0.725137971611 0.0189126274023 0)
(-0.342540839527 0.00893395122262 0)
(-0.603635316175 0.0149065803243 0)
(-0.222587511444 0.00549672712915 0)
(-0.821654416913 0.0214299132702 0)
(-0.302299704613 0.00788440531459 0)
(-0.532482712996 0.0131494896337 0)
(-0.564737306713 0.014729150424 0)
(-0.161806451831 0.00422014189655 0)
(-0.284551286953 0.0070269026707 0)
(-0.173232148964 0.0042779122992 0)
(-0.38813534768 0.0101231207022 0)
(-0.235430585389 0.00614036378578 0)
(-0.414444407292 0.0102345715728 0)
(-0.266754834925 0.00695734466849 0)
(-0.931121306082 0.0242849650932 0)
(-0.363664880683 0.00898058746695 0)
(-0.364305405443 0.00899640502024 0)
(-0.498358049171 0.0129978851831 0)
(-0.498386451418 0.012998625954 0)
(-0.194791695262 0.00481031837291 0)
(-0.125998411628 0.00328621738992 0)
(-0.0981222207489 0.00255916677041 0)
(-0.171870486966 0.00424428649333 0)
(-0.0377349396468 0.000936305131868 0)
(-0.235392491262 0.00613937023689 0)
(-0.0508963324064 0.00134106036237 0)
(-0.0904984679599 0.00224550988475 0)
(-0.125997499355 0.00328619359656 0)
(-0.0981373985873 0.00255956262998 0)
(-0.17237900464 0.00425684417403 0)
(-0.0378774304047 0.000939840710012 0)
(-0.235409588709 0.00613981616256 0)
(-0.0509011754486 0.00134118797102 0)
(-0.0906068303245 0.00224819864585 0)
(-0.0595116964181 0.00155214950051 0)
(-0.00869807731715 0.000181513600576 0)
(-0.0178370889128 0.000442586050036 0)
(-0.0178745196946 0.000443514808196 0)
(-0.0240386558432 0.000633391189344 0)
(-0.0240417193177 0.000633471908406 0)
(-0.042789569058 0.00106172405401 0)
(0 0 0)
(-0.0349792087253 0.000921662290991 0)
(-0.00761459279299 0.00015806150516 0)
(-0.012532786478 0.000260151940938 0)
(-0.009856261414 0.000205682869011 0)
(-0.0187224167469 0.000493314347027 0)
(0 0 0)
(0 0 0)
(0 0 0)
(0 0 0)
(0 0 0)
(0 0 0)
(0 0 0)
(0 0 0)
(0 0 0)
(0 0 0)
(-0.00451087659218 7.58868889772e-05 0)
(0 0 0)
(-0.00767507924398 0.00016016542708 0)
(0 0 0)
(0 0 0)
(0 0 0)
(0 0 0)
(0 0 0)
(0 0 0)
(0 0 0)
(0 0 0)
(0 0 0)
(0 0 0)
(0 0 0)
(0 0 0)
(0 0 0)
(0 0 0)
(0 0 0)
(0 0 0)
(0 0 0)
(0 0 0)
(0 0 0)
(0 0 0)
(0 0 0)
(0 0 0)
(0 0 0)
(0 0 0)
(0 0 0)
(0 0 0)
(0 0 0)
(0 0 0)
(0 0 0)
(0 0 0)
(0 0 0)
(0 0 0)
(0 0 0)
(0 0 0)
(0 0 0)
(0 0 0)
(0 0 0)
(0 0 0)
(0 0 0)
(0 0 0)
(0 0 0)
(0 0 0)
(0 0 0)
(0 0 0)
(0 0 0)
(0 0 0)
(0 0 0)
(0 0 0)
(0 0 0)
(0 0 0)
(0 0 0)
(0 0 0)
(0 0 0)
(0 0 0)
(0 0 0)
(0 0 0)
(0 0 0)
(0 0 0)
(0 0 0)
(0 0 0)
(0 0 0)
(0 0 0)
(0 0 0)
(0 0 0)
(0 0 0)
(0 0 0)
(0 0 0)
(0 0 0)
(0 0 0)
(0 0 0)
(0 0 0)
(0 0 0)
(0 0 0)
(0 0 0)
(0 0 0)
(0 0 0)
(0 0 0)
(0 0 0)
(0 0 0)
(0 0 0)
(0 0 0)
(0 0 0)
(0 0 0)
(0 0 0)
(0 0 0)
(0 0 0)
(0 0 0)
(0 0 0)
(0 0 0)
(0 0 0)
(0 0 0)
(0 0 0)
(0 0 0)
(0 0 0)
(0 0 0)
(0 0 0)
(0 0 0)
(0 0 0)
(0 0 0)
(0 0 0)
(0 0 0)
(0 0 0)
(0 0 0)
(0 0 0)
(0 0 0)
(0 0 0)
(0 0 0)
(0 0 0)
(0 0 0)
(0 0 0)
(0 0 0)
(0 0 0)
(0 0 0)
(0 0 0)
(0 0 0)
(0 0 0)
(0 0 0)
(0 0 0)
(0 0 0)
(0 0 0)
(0 0 0)
(0 0 0)
(0 0 0)
(0 0 0)
(0 0 0)
(0 0 0)
(0 0 0)
(0 0 0)
(0 0 0)
(0 0 0)
(0 0 0)
(0 0 0)
(0 0 0)
(0 0 0)
(0 0 0)
(0 0 0)
(0 0 0)
(0 0 0)
(0 0 0)
(0 0 0)
(0 0 0)
(0 0 0)
(0 0 0)
(0 0 0)
(0 0 0)
(0 0 0)
(0 0 0)
(0 0 0)
(0 0 0)
(0 0 0)
(0 0 0)
(0 0 0)
(0 0 0)
(0 0 0)
(0 0 0)
(0 0 0)
(0 0 0)
(0 0 0)
(0 0 0)
(0 0 0)
(0 0 0)
(0 0 0)
(0 0 0)
(0 0 0)
(0 0 0)
(0 0 0)
(0 0 0)
(0 0 0)
(0 0 0)
(0 0 0)
(0 0 0)
(0 0 0)
(0 0 0)
(0 0 0)
(0 0 0)
(0 0 0)
(0 0 0)
(-0.0272427934299 0.000717816563629 0)
(-0.059504529769 0.00155196258413 0)
(-0.0626256357478 0.00155391010788 0)
(-0.0126406354028 0.00026239063759 0)
(-0.0865884918015 0.00225835075101 0)
(-0.0203993576016 0.000506162813244 0)
(-0.0187215986021 0.000493292789843 0)
(-0.0349847334128 0.000921807860211 0)
(-0.126013498726 0.00328661088287 0)
(-0.0804771927479 0.00199685514999 0)
(-0.0297412628555 0.000737960555935 0)
(-0.111193978867 0.00290009677333 0)
(-0.0396469735818 0.00104465257603 0)
(-0.0262089065547 0.000650313315394 0)
(-0.00484901799992 7.71829345847e-05 0)
(0 0 0)
(0 0 0)
(0 0 0)
(0 0 0)
(-0.00402642721327 6.77369528215e-05 0)
(0 0 0)
(-0.00870102057323 0.000181575021162 0)
(0 0 0)
(-0.00770568498347 0.000159952370387 0)
(0 0 0)
(-0.00986057016752 0.000205772785131 0)
(0 0 0)
(-0.0051730991861 8.70275201684e-05 0)
(-0.0349904803837 0.000921959286346 0)
(-0.126020986689 0.00328680617955 0)
(-0.0807149303859 0.00200275405887 0)
(-0.0297720282216 0.00073872392724 0)
(-0.111213323076 0.00290060129775 0)
(-0.0396491525425 0.00104470998916 0)
(-0.026282756872 0.000652145739977 0)
(-0.0272503213049 0.000718014914557 0)
(-0.0595257340241 0.00155251562119 0)
(-0.0628242883975 0.00155883921329 0)
(-0.0126822730108 0.000263254938961 0)
(-0.0866120269541 0.00225896458119 0)
(-0.0187282412186 0.00049346781522 0)
(-0.0204625244163 0.000507730151455 0)
(-0.00870198429316 0.000181595132305 0)
(0 0 0)
(-0.00771566762634 0.000160159587188 0)
(0 0 0)
(-0.00986068758779 0.000205775235486 0)
(0 0 0)
(-0.00518812232907 8.72802558751e-05 0)