/*--------------------------------*- C++ -*----------------------------------*\
| =========                 |                                                 |
| \\      /  F ield         | OpenFOAM: The Open Source CFD Toolbox           |
|  \\    /   O peration     | Version:  v1906                                 |
|   \\  /    A nd           | Web:      www.OpenFOAM.com                      |
|    \\/     M anipulation  |                                                 |
\*---------------------------------------------------------------------------*/
FoamFile
{
    version     2.0;
    format      ascii;
    class       volScalarField;
    location    "10.75";
    object      p_rgh;
}
// * * * * * * * * * * * * * * * * * * * * * * * * * * * * * * * * * * * * * //

dimensions      [1 -1 -2 0 0 0 0];


internalField   nonuniform List<scalar> 
28582
(
19548.4721307
19546.9430577
19548.7345787
19546.851775
19549.2846946
19546.3886447
19551.5464501
19546.5577283
1200.19966575
1271.33380237
-0.122965169146
19548.7581743
17379.0334798
17140.6881787
19545.3365788
19544.4583971
17070.989633
19515.8993659
19512.6083969
19548.4398255
19545.870816
19545.6217141
19548.860324
19545.7772998
19545.4888458
19550.3797894
19545.0348318
19552.5757972
19544.9573421
1299.58016156
-0.130845053339
-0.0668823128086
19551.5875418
19552.8848634
17446.9855957
17425.1811013
19533.824658
19544.8972833
19544.0947496
19544.5935231
19516.5923538
16948.918827
19513.9119441
19514.525943
1232.68951885
1303.00953576
12.0840477927
10.8495339242
1254.71396135
12.1073913182
19528.0985939
19525.2706883
17328.0896782
17372.6765505
19528.4969139
17310.0957434
19525.4840853
19522.1059286
19519.1178801
17237.262687
17112.8994201
19518.6500014
17215.8935351
19522.3315668
19515.0134765
19516.7287038
17025.6903189
17035.6136129
19515.9693567
16971.0885915
19516.1111166
19517.2411981
17022.8261666
16947.2697147
19515.2032487
17019.681464
16954.7832821
19516.4608167
19508.6228248
16892.3304507
16822.1266456
19511.6926238
16834.2680461
19507.6148423
16894.3297792
1147.55843024
2.08135925837
1125.8147663
1135.38369064
1.29771279291
1.20245465059
1319.76544288
11.1505098831
9.38075429832
1348.09214365
10.4437511164
1329.73134658
9.01635054315
19535.7369015
19536.5125966
17439.8180181
17455.379839
19534.1080814
19538.014635
17451.9694889
19533.4014781
19529.8255444
17432.8369104
17441.5862271
19531.9419911
19531.1516584
17447.3010108
17445.7994234
17440.4789284
19530.4613066
19533.4169241
17441.4596725
19530.6557334
17444.8905281
19517.8463565
17020.3742083
16942.0775637
19517.3622908
17014.7659301
19518.1313036
16938.3589892
19518.163785
19518.7274535
16989.7848567
16913.3294067
19518.3061008
19519.1426409
16923.1052043
19512.6009508
19510.3255794
16904.9970102
16840.3226365
16865.7617895
19515.6928617
16922.4174569
16881.6775603
16897.7861719
19515.7744183
19517.1925107
16927.8194536
19518.1934844
16928.3775364
19544.3624858
19544.6659758
1358.7116445
-0.0857261983553
19551.0749859
17402.9355455
19544.8738983
19544.5434903
16905.4045098
16887.5747672
16800.5160179
19543.9521337
19543.1436511
16760.2351961
16657.7224778
1178.76332383
1376.53391059
1401.46080222
8.65581014424
9.54437836061
9.32545611123
1420.16118035
1436.01911296
19524.8403127
19527.687893
17407.8193582
17346.7359591
19528.0284049
17363.4521696
19524.506007
19521.5069619
19519.6736799
16866.3422524
16893.8114759
19520.9171368
19520.2169343
16868.6049929
19517.88284
19515.8566047
16906.3033301
16867.3265348
19518.1978494
16869.9880417
19515.198757
19517.6769433
19513.3582428
16790.4014534
16837.082859
19517.1623327
16829.6398504
19514.4853496
19515.8817771
19512.0938047
16757.802011
16718.0419124
19516.5405435
16732.6878534
19510.8788671
19515.276098
19509.4016333
16695.0645665
16683.7139813
19514.5653066
16712.1135985
19510.0096935
19552.3647953
19546.1347776
19540.7241246
19541.7718406
897.07550725
982.652710134
893.593625445
991.296727813
1009.72996231
0.0738561736536
0.546235183728
0.169417959945
-0.174472091144
0.0431373428518
-0.111135032937
19567.2213922
19564.5700493
18206.8293429
18013.5568837
19557.3375262
17819.4080096
19559.7916467
19554.9731533
17924.1154558
17693.7323465
19545.7822372
19548.39131
19543.1129298
17736.0114596
17111.7592504
17557.8643099
17172.8480259
19540.2930525
19540.668856
17021.0075006
16933.3581897
17140.2091984
17073.3195561
19542.5092838
19542.1338514
17562.5550229
17223.9869154
17277.2583323
19541.7450904
19541.3423829
19543.073136
17190.6916856
17115.2931934
17257.7251425
17241.2149943
17267.0770085
17268.4873073
829.181179497
850.23630227
882.743628797
7.25623696484
10.9406232385
8.50765572959
12.0582059072
20.8219548591
26.7354877646
18.0241272248
22.3767314947
861.465206193
864.021499318
938.708018558
898.23412329
934.83922561
9.86491215113
12.0389695122
10.3938894755
11.7044438094
1090.97360711
981.49923072
1090.52753328
11.7430056213
14.5433518529
10.5717576416
11.4412695635
935.106324885
938.118263943
9.58833814356
10.2501553203
10.2341478404
1083.15135246
1001.06832896
1077.46872236
9.07129178984
8.58604606538
8.86793241218
7.87219242704
19569.9210893
19563.4727773
18372.1682268
18182.1178382
19561.6335507
18361.1115619
19570.9203963
19567.4113083
19554.2378589
18111.2389186
18202.4207595
19559.0286818
19563.1836185
18294.3012377
19537.6852315
19543.8326608
17913.6879254
17593.2494337
19548.9459423
19532.2316093
17687.5278575
19551.7953661
19548.1149581
18092.9626605
17809.4378363
19556.6526808
19543.2810456
17970.8460854
19546.5999513
19536.0032749
17754.6097496
17825.7121768
19539.2510305
19542.9436275
17902.5068124
19524.2229387
19538.9284067
17524.1102155
17627.7950609
19527.6238086
19534.3600191
17438.8429389
19514.3378268
19504.3958299
17315.5044003
17083.0356761
19515.6761146
19504.9465607
17270.2040967
19521.6105995
19528.8284849
17591.7370869
17410.2737998
19530.7847759
19520.3239183
17422.7814416
19512.5752329
19506.629577
17136.6734364
17297.9441802
19505.096601
19512.4075254
17278.8207009
19498.2658657
19498.7567309
16912.19178
17018.1317989
19497.9240349
19498.5561118
16955.8427747
19498.7542805
19502.6230165
16903.4974908
16965.4304074
19498.6208995
16931.5118212
19502.8979391
19501.5958054
19502.5151308
17083.0837848
17094.6578286
19501.2489673
19503.2203569
17028.6991381
19501.5290751
19507.1486441
17015.1008962
17054.8955895
19503.8836919
16995.2701144
19505.0596195
19519.659661
19527.0531439
17440.1944014
17546.7422342
19519.7997347
19526.1752536
17432.824197
19514.0932175
19508.654659
17331.7727837
17257.4507835
19513.3960337
19509.6186966
17345.8651384
19515.4403547
19514.016044
17273.2268973
17331.4536695
19512.5267241
19516.1379774
17342.2520685
19506.5134956
19505.9249262
17149.5182465
17226.9512374
19506.1699174
19507.2743367
17197.522854
19508.3856879
19509.9303609
17104.7087223
17167.7424234
19506.6528488
17156.8333236
19511.8582084
19509.7122521
19511.4647903
17247.7877378
17248.679942
19510.5187147
19511.7088062
17229.1554272
19511.4300584
19517.6004036
17206.1977986
17230.9536308
19514.0385482
17199.1061692
19514.7710849
19515.1692983
19513.7938803
17263.3447387
17268.9188909
19514.3668019
19514.112767
17274.2329263
19520.5583374
17257.4446779
19516.8815486
19546.9319953
19545.5558455
19544.852781
19545.9626169
19546.688822
19556.5670523
19547.2490865
19545.7342413
19545.0380213
19545.4334851
19545.6721575
19555.8000586
19535.3594635
19540.1108058
19537.5749594
19542.4069225
19546.5702322
19549.8001872
19555.239834
19535.8789671
19537.3680871
19540.6131677
19542.6080157
19543.6959689
19544.3288907
19544.1230792
19543.1122021
19554.3658744
19543.0331215
19542.3033812
19542.5658742
19543.2792472
19544.0032062
19544.3864983
19544.7013863
19557.0651297
19546.2977147
19544.8972512
19544.2200379
19544.3675153
19544.8056146
19544.891377
19545.0314998
19557.5206151
19544.9490798
19545.3082504
19545.9495886
19557.1920536
19533.0639429
19538.099969
19540.4320126
19543.3227509
19547.1632128
19552.5056255
19595.5906749
19466.8804897
19536.9029671
19540.459687
19545.1357377
19545.3881866
19544.5601541
19542.7410326
19538.1257153
19533.9945465
19542.2930836
19542.8694945
19543.7278828
19543.8523305
19543.487927
19542.7610955
19541.7105309
19552.1237383
19546.4762002
19545.2781967
19544.7360474
19544.7943089
19544.7370708
19543.8819217
19542.5601862
19554.4563588
19544.8301311
19544.5909814
19544.4305517
19555.9087812
19530.4428579
19537.6738678
19542.1392065
19543.3648031
19544.4508909
19544.2765152
19550.0191071
19471.2847033
19534.3614288
19540.9439591
19540.8973533
19541.6843492
19541.0026302
19537.15797
19525.0658976
19512.4181541
19543.2497786
19543.0871325
19543.1149512
19542.5607168
19541.7387592
19539.207976
19532.7658117
19546.8003606
19549.1273286
19547.5112922
19545.7488031
19544.6150895
19544.0311849
19543.2106078
19541.0525972
19536.8387274
19549.947041
19547.9811991
19545.7909619
19544.6913679
19543.7518798
19542.4948801
19540.1434685
19552.8129253
19543.3531401
19541.4881243
19553.0419669
19532.9824251
19540.563787
19545.3989883
19547.4337419
19545.9767777
19545.9072051
19545.6160455
19515.9724981
19536.1271313
19537.8802159
19541.3757458
19543.724967
19543.4531567
19541.9080715
19540.9490429
19537.0754784
19523.1672965
19543.740742
19544.735243
19543.4787491
19543.4167805
19543.9724274
19542.7773113
19541.4780767
19540.5702167
19538.1527557
19538.3920938
19549.8708891
19548.6008577
19546.4973258
19545.2044056
19544.4213141
19543.8948466
19542.3774495
19540.3540709
19543.2367077
19550.1332391
19546.6793866
19545.616488
19544.7770011
19543.1896983
19542.2993044
19544.3860968
19543.6914463
19542.9153127
19544.4806587
1204.80946608
1193.85719401
1215.8822759
1270.27105768
1363.99866289
1416.73362799
1442.25305898
1469.11000234
1173.62666134
1227.36277268
1224.13640312
1238.83096348
1264.90524581
1311.63058067
1369.75109233
1424.47107065
1473.52438869
1508.39895837
1159.94056285
1212.6568835
1199.86023837
1222.56155921
1260.43595449
1288.98930863
1323.39436243
1425.82699759
1493.36286167
1543.76124057
1172.20072007
1166.50179021
1187.16072385
1217.16407232
1238.63783543
1287.26476593
1387.27679967
1462.62767431
1513.2826101
1161.25636122
1193.07539089
1219.70095634
1312.00227788
1377.41134568
1421.97550053
1458.17306268
1404.25056245
1426.80740724
1423.98787089
0.140465617248
-0.0894245339178
-0.0938207055476
-0.115398124846
-0.031319168756
0.479525775177
-0.0918097767959
-0.0978045315103
-0.259677091087
1.44100805264
1.03484201991
0.661827859767
-0.0729589531732
-0.230052365397
-0.110073544535
1.24589160115
0.113557302494
-0.133909065715
-0.245186603359
0.814230679772
0.685793713865
0.00104033227082
-0.116450718384
-0.107421522252
-0.13479400689
-0.107434968894
1.57890151155
-0.138521006855
-0.305227785463
0.934390011968
0.0233155399036
-0.139511480427
-0.112471491753
-0.146018032257
-0.0930345383945
0.373116146882
-0.124172362323
-0.286245643493
1.04714939743
-0.107538439916
-0.00401368149829
0.832879147866
-0.120132609773
-0.135203053687
-0.275411470385
1.12448024889
-0.1112629127
-0.273566846182
1.44749088699
19538.0409268
19535.7927191
19538.3075956
19534.5598979
19537.5962198
19535.2808858
19537.75032
19541.3206329
19540.4843335
19541.9774887
19539.7606422
19536.9618695
19539.5163759
19539.1724106
19538.9117132
19539.7417555
19540.0977941
19537.1010047
19539.0019727
19539.2895784
19540.2268375
19541.8788024
19541.0250148
19542.2293175
19540.6998382
19541.2358349
19541.6442047
19542.9790822
19536.1798126
19534.3166316
19536.9391736
19531.282338
19535.1888345
19532.8618165
19536.4419672
19539.0896582
19538.4005483
19540.2136508
19537.4316455
19538.5778347
19538.2829963
19538.8301871
19538.9153649
19538.8854924
19540.1292869
19535.6988176
19538.6491258
19537.9882143
19539.4827643
19541.2254378
19541.5759112
19545.5756476
19540.3646479
19537.6210549
19540.6377667
19544.229703
19535.1123012
19532.4820635
19536.4587035
19528.7635647
19535.4439875
19531.0771347
19536.7342147
19539.0848792
19538.8520262
19540.1714289
19539.0146254
19541.0310451
19539.7268716
19542.7346038
19538.3068526
19538.1173648
19539.6488218
19535.5160909
19538.63223
19539.1812784
19540.4720105
19538.1391424
19540.8331074
19543.6190702
19541.0174163
19541.4523116
19541.6559829
19544.1441161
19530.445166
19533.808047
17038.6847543
17025.3664612
19536.6848483
19535.8045113
19538.2173206
17041.9508596
17102.6697945
17025.6158966
17064.6903273
19543.1058985
19541.027638
19543.0300586
17130.5794551
17182.0578372
17084.1899428
17118.2523098
19547.0451954
19544.5283043
19545.226869
17194.3336023
17251.3406531
17123.8523714
17099.8359677
19546.850107
19545.1269586
19544.3315829
17227.6280953
17033.5659531
17051.191972
16819.5673319
19545.3226124
19543.4294315
19543.0118808
16938.9037872
16721.6782122
16754.0008528
16687.1992009
19546.7774933
19543.2869281
19543.7656552
16733.6428167
16813.7087065
16698.5261879
16730.901151
19535.2525811
19542.7912045
19534.1735381
16811.0919435
16626.6264402
16727.7852721
16440.5912233
19496.6011671
19517.5293258
19520.4836598
16673.8267877
15989.097325
16509.6445099
16456.3113808
19541.8631199
19541.4233251
16953.5359772
17073.1183218
17093.614482
17177.9327504
19536.748541
19541.098669
19540.3544262
17068.2186773
17030.5279093
17184.933802
17147.3166515
19539.6619762
19540.3190944
19541.0771272
17024.3925063
17052.9371236
17128.1180236
17073.7771048
19542.8300588
19542.270953
19543.5960531
17066.8487235
17103.7077927
17069.6363491
17078.636202
19543.7872418
19544.4321348
19544.2265319
17109.3887436
17046.8760289
17073.1976833
16954.3615351
19542.7085745
19543.163539
19542.0572513
16995.1819091
16800.8870819
16911.2021252
16826.9401531
19541.3222962
19541.3777473
19540.7441689
16758.0883616
16725.8256763
16800.4531177
16753.4403266
19540.0351315
19540.2284127
19539.196204
16727.1602905
16689.7105498
16738.0189374
16655.4896826
19531.5978867
19537.1305447
19534.1782941
16676.3824019
16406.8205182
16628.8721331
16408.3850011
19540.8345765
19531.0581779
19550.8116016
16479.9767912
16483.9906049
16481.3645365
16481.127027
19544.7949628
19545.5368175
19547.258964
17131.4074248
17203.4193452
17263.7403484
17323.8187479
19544.1354715
19547.5957796
19547.402763
17222.5527072
17190.4420296
17342.2471275
17324.4504092
19543.0783966
19546.3319861
19545.1910677
17171.4374806
17105.0961641
17282.2199215
17142.3289256
19543.8797057
19544.7061354
19544.5609215
17101.0873071
17095.8393619
17137.2652935
17137.4385915
19543.5720718
19544.4025873
19543.9868587
17077.2861728
16971.3687859
17117.0961358
17043.259816
19542.0761311
19543.4910106
19543.1094843
16935.9399112
16836.3984275
17026.5238888
16983.8351844
19541.0306518
19542.8847131
19542.394043
16816.3476295
16779.5095096
16972.4263486
16918.1796268
19539.5928837
19541.5301336
19540.5176875
16752.8208559
16615.4257957
16856.69392
16643.6415593
19537.5101672
19539.2983997
19539.4870546
16589.6332482
16469.8485819
16610.792591
16556.5269607
19554.5631374
19541.2645519
19556.0411759
16532.0286809
16497.5504838
16616.1667903
16504.6093663
17290.682738
17343.5281406
19549.7656592
19551.6082984
17362.6182887
17349.1558455
17430.0382156
19547.2718363
19550.8445134
19549.7185096
17307.856556
17201.13051
17414.271961
17382.14646
19545.8022206
19548.6883313
19547.3589928
17189.2222271
17159.1755926
17367.3163252
17253.7209145
19544.7482646
19546.1792386
19545.5201724
17136.3851093
17064.6671867
17199.8735345
17124.0003159
19544.2005761
19545.2746608
19545.1699598
17049.0257683
17012.8191197
17126.5134816
17105.7764216
19543.4224539
19544.9722038
19544.0831054
16999.5789776
16924.943627
17094.7945105
16883.899014
19541.2850998
19542.9114471
19541.9555473
16858.3883823
16669.3606983
16828.214433
16733.4418957
19541.0421231
19541.4883351
19542.1152205
16637.8762659
16584.4667212
16724.4681709
16635.4736299
19556.6070079
19544.1261478
19556.5114788
16644.2307035
16501.0173091
16696.9972468
16517.3409287
19548.2577459
19548.7356615
17398.5848517
17242.8911961
17167.7345509
19545.9061518
19546.9613436
19546.0156925
17195.5081845
17170.5816698
17117.197452
17110.4371844
19545.3995387
19545.7458863
19545.4640124
17169.9458734
17081.6903817
17127.1912981
16994.0921622
19543.9259537
19544.8747455
19544.1682026
17024.0534319
16894.8270203
16923.859407
16851.2364329
19542.6069155
19543.5366156
19543.0748757
16864.6183842
16747.5008007
16837.4431662
16773.1644225
19542.6339483
19542.7902176
19543.018191
16737.1481731
16631.378189
16776.0517504
16659.9455301
19556.200238
19544.2873116
19555.592944
16701.0363188
16517.2762349
16734.928293
16552.506677
19544.2285932
16828.2454151
19543.2100631
16812.0357094
16762.6094217
19543.1699028
16766.5123835
16649.2996995
19555.289543
16726.4692506
16574.0409039
12.3448481978
3.80181645549
14.063705982
4.52769203737
1187.08854833
1218.12102312
0.970573590656
0.883027733038
1.19597840502
1.13742842547
1204.69929035
1225.19462039
1222.10384383
1.29824271402
1.48245340567
1.82826715558
1.74659733306
1196.41757264
1216.4335548
1219.61087398
1.46043664061
1.02189975296
1.59782191224
1.01139931621
1234.49635087
1239.46537811
1265.28819113
1.19999960887
4.27343735324
1.41257100277
7.45161719794
1315.23881914
1299.02520859
1338.58097266
12.4232495356
20.0084849615
16.8347995984
22.5544131547
1400.52617431
1379.60126805
1404.93584576
20.2651900088
19.9104615738
19.8326738269
17.6778219165
1425.42343232
1421.68572893
1435.21264904
14.6266653978
9.17473949428
11.8836467491
7.77643892683
1477.18419914
1449.22743313
1503.33865561
7.9632270243
8.88528152866
7.64598201658
9.83390550335
1518.74763196
1473.7247495
1569.07982153
17.0307709089
49.7184304223
16.9843777084
25.6608031022
1223.92849699
1171.76416421
1229.20055965
22.5181065887
13.3924303931
22.1358045488
13.2994390578
1217.9197699
1227.56598848
1214.5604477
8.89131750234
7.82542095726
4.34608837829
3.17308137431
1229.23642878
1215.52851961
1225.47511893
4.88993162011
2.72118466296
2.55712189627
1.84061816002
1246.84618335
1240.62853137
1258.34063117
0.920004519432
0.813635488106
1.32448949107
1.36389953443
1288.12140839
1272.19701369
1293.70589659
1.61955818685
7.35656736154
3.75594825991
7.99781867138
1334.94432981
1303.87684539
1318.51225603
20.6111884761
29.7124846617
18.4636088675
27.8952512601
1396.37157095
1356.89377846
1392.83567046
23.8288608285
18.2439257346
23.8954336615
16.329034254
1452.43506763
1431.29678294
1465.23892281
8.60592247547
6.50102494255
7.69456463645
6.72328790924
1524.28581571
1490.3666945
1534.1014489
7.02960286244
10.3752258471
8.00115416384
11.2907052688
1599.65464277
1533.82855999
1607.63101467
15.9873640097
20.133446112
16.2957699086
21.6083295487
1219.75955115
1143.37471679
1198.89147479
16.4148027795
6.04331261002
14.3549149678
6.39640368519
1203.68072048
1190.58440281
1185.59520268
0.660488102569
0.61232623983
0.590002707109
0.524640057289
1206.43501458
1184.41351303
1195.94381926
0.96635017977
1.13423381392
1.01379152315
1.69541298901
1243.3086452
1211.02217822
1226.67513282
1.81270972945
2.27135563055
2.50912592089
2.85646216419
1275.83437015
1238.49190747
1246.0639876
4.29890632146
6.64088876886
3.5751887591
4.7413006624
1307.03440411
1255.79784158
1274.1435312
8.32656919051
11.8669394075
6.61690684224
9.77039333273
1377.40423461
1292.22352155
1352.51836032
32.6000498693
24.1261719443
27.1081046337
22.6514392074
1463.60834509
1411.54219281
1450.42434865
8.9953788086
7.97042196394
8.78406186007
7.63432807463
1530.01973159
1483.26017526
1514.52452731
8.94480028072
10.9431758449
8.33987310127
9.35230039306
1602.37230652
1534.57451291
1582.47126348
16.3230586662
24.2860190926
15.0252402798
27.3531756551
1164.62413084
1145.48707153
0.678787961214
0.738466673103
0.905915488136
1173.52083208
1142.3138616
1145.28861581
1.52851494025
2.04656374369
1.55303638393
1.60740307749
1204.57596415
1162.34796046
1186.09532776
2.57499106901
2.66883193052
2.20073208439
2.8497928261
1226.49047672
1201.24068761
1215.6785196
3.23168212358
4.47855774736
5.0300727889
7.54103034141
1253.45088756
1233.36431977
1248.21356905
6.44787758837
10.1394400579
8.09016251006
9.19497905818
1334.14382804
1274.97632993
1333.23927772
17.1029579682
17.865250348
14.1303537883
13.0548600588
1427.81610068
1376.82076221
1414.08422549
8.21040338095
7.20286238623
7.22303945499
6.45377494403
1497.43264842
1437.06658599
1479.34180406
7.38447807347
8.25075565524
6.34449730299
7.47479856194
1559.5770168
1485.90923796
1534.5268859
13.6363783845
29.5150458223
12.3246292225
32.6224491097
1185.35591904
1205.90731219
2.75459917518
4.82114884168
4.26248506806
7.82512000267
1199.99204475
1213.00780806
1221.72698779
10.0060848958
14.6447181837
13.6599225814
19.4937600199
1265.73551209
1235.57995281
1286.51581139
20.6724523988
13.5361094505
24.6402871359
11.8860193424
1349.74060778
1337.03475066
1368.51946073
6.51458308746
6.35832347216
6.8434258607
6.93379791528
1404.81494953
1390.78955837
1409.37990152
6.87818818624
7.05949293054
7.33857290637
7.53538194381
1467.66391672
1421.16967531
1453.8805042
6.45799247606
7.4665909237
6.65901453205
6.92781267111
1508.63937085
1435.73965045
1487.75044599
11.5851840777
33.3386571282
10.4942341433
34.0314312345
1384.42955778
8.70617816433
1418.91756588
8.47360478537
8.52587429109
9.40921872019
9.71657341105
1453.62696243
7.54130452944
7.70473196909
8.85168443284
9.1659910524
1473.34258184
11.0858493911
38.0175994996
12.4422271346
39.0021109479
19520.4832939
19521.0581275
17048.7260394
17020.0394581
19520.4642627
17021.888878
19520.6514972
19520.4655072
19520.0118319
17010.5399169
17032.461799
19520.2607528
19520.2177407
17011.6958844
19518.579376
19520.8308855
17051.9349035
17024.9541866
19519.9135021
17034.9899203
19519.6198688
19518.6530024
19520.1091644
17074.8817218
17092.134432
19519.2923887
17057.5791582
19519.1595315
19518.4675471
19519.9287648
17015.7958612
17026.73201
19519.5792745
19519.3211115
17029.8329535
19518.2578031
19520.0004986
17084.3713864
17041.2008782
19519.1123489
19519.192679
17054.4146404
19522.289096
19521.4457455
17156.0720189
17121.8176317
19520.5375248
17139.9305399
19522.8765637
19523.5335016
19524.8658743
17176.8344055
17166.0763988
19524.5913397
17158.0795441
19524.0015639
19521.8722064
19521.0532714
17111.286638
17097.1045849
19520.3215375
19522.0332053
17127.184073
19522.8932771
19523.401678
17146.5762358
17116.4500126
19523.7174532
19522.8041427
17140.5548803
19525.828434
19525.3369561
17216.0897849
17178.6416506
19525.3576935
17190.274237
19525.995603
19526.4981192
19527.7215129
17240.5799308
17206.0759854
19526.1967463
17203.3479924
19527.1501227
19524.0943619
19523.4969889
17158.2649102
17130.6351396
19524.1063574
19523.1496146
17167.3332457
19524.0966945
19519.0091907
17151.7759216
17123.6834877
19522.5106645
19521.9020814
17168.0556817
19521.918332
19526.942168
17188.7405251
17180.4675173
19524.5673348
17134.4488311
19524.4888463
19519.5374734
19520.409482
17115.0154201
16965.1472651
19517.0099589
17055.6840226
19522.5703299
19516.2474607
19515.0801333
17107.454065
16983.9709978
19519.6683193
19510.3024563
17053.0078172
19514.2121329
19507.3160074
16893.2098809
16898.8398216
19512.9053616
19508.2271458
16974.5667953
19513.295398
19518.1579923
16839.2036292
16869.1546006
19514.9119622
16782.4045487
19515.6545949
19511.8409261
19512.8319032
16771.7382887
16693.5175048
19512.0432008
16724.4936346
19513.0553295
19511.1611847
19507.3654991
16810.7809905
16696.7709195
19511.832952
19508.3811443
16737.0803886
19510.4854539
19509.9294931
16694.5073589
16682.2664726
19511.2474188
19508.8741934
16711.5356021
19514.0028671
19513.5206218
16757.0766352
16709.5591067
19512.76086
16736.6278153
19514.922636
19513.9709023
19513.257248
16803.9348938
16792.8147712
19511.7324468
16774.8299998
19515.3896813
19512.9824733
19510.7165342
16710.3187757
16716.0756055
19512.1363572
19511.2674435
16733.5288979
19512.4162739
19508.1109408
16771.542048
16727.1438015
19509.628763
19510.5653019
16764.973464
19502.5011769
19508.2174382
16801.9476101
16789.0005203
19507.1518106
16771.5824649
19504.894023
19495.7126528
19496.0736265
16728.0322692
16546.1219728
19490.7941961
16676.0664468
19500.5659927
19500.5065568
19503.9524598
16763.7569105
16718.8845297
19505.2125049
19498.787555
16742.9135833
19492.6419291
19484.6414418
16471.5122624
16605.5245887
19487.8618168
19489.7858556
16625.0889467
19463.5495048
19485.1513889
16572.856635
16591.291862
19481.157304
16518.8271869
19463.7011392
19414.1936578
19405.7670685
16046.4686044
16379.1712711
16070.2492497
19436.6227248
19395.5162677
19465.1112766
19478.1128101
16546.6596267
16478.2590955
19480.1855662
19465.9205306
16495.7709113
19424.337242
19468.171503
16420.256046
15989.5141281
19432.924974
15949.9454643
19454.9845319
19513.1291922
19507.50352
16981.7772171
16991.0873908
19512.1048954
17022.2970589
19507.8519595
19516.2788238
19517.0438583
17025.4386775
17121.9849118
19514.6818617
19518.7238448
17064.3227696
19513.4356498
19511.344125
17033.1448192
17114.2680349
19516.2003749
17056.3569724
19509.1809765
19516.9629418
19522.9121774
17135.7114135
17132.2143107
19519.6156188
19520.0097837
17085.9466427
19520.4656299
19518.3016816
17057.0061683
17119.9387944
19518.8964454
19520.3693124
17108.2206798
19519.7234737
19517.8641682
17044.372532
17072.2490898
19518.480066
19518.9019762
17092.237432
19521.3714369
19524.5084977
17139.2900072
17178.0087603
19521.3038195
19524.2600789
17131.4802801
19520.5394788
19522.1968106
17102.7846724
17165.6877238
19519.6464524
19523.3293411
17120.4235479
19517.5570539
19517.3865454
17024.8842176
17053.8093022
19516.6036055
19518.216435
17036.5977148
19517.0932673
19516.6299993
17033.6298691
17043.9056837
19516.2946135
19516.8316452
17039.1784823
19517.2639078
19520.9277589
17082.3012427
17105.6146429
19518.6434331
19519.2460633
17058.8226106
19515.9219299
19515.9113428
17055.4579073
17089.5329938
19514.8761822
19517.5010352
17055.2000408
19515.6123513
19516.8720187
17077.4471599
17048.9014237
19516.5958445
19516.4894464
17050.8815511
19514.2810795
19515.4549236
17094.9354253
17069.5952129
19516.0337303
19512.8347489
17060.0682825
19512.4049461
19514.6504035
17055.9355193
17067.5654915
19513.8683827
19513.2717488
17054.1314375
19510.9111462
19510.9299251
17071.1269848
17070.93989
19509.8750305
19511.8089931
17058.9598295
19510.2063015
19514.8171283
17106.7402239
17081.2851384
19513.57402
19511.9149438
17084.6081165
19507.1882175
19507.2348306
17084.5393253
17010.8790668
19511.1552649
19502.0270808
17060.7411722
19507.9514623
19509.9905522
17078.8146108
17051.8033676
19509.3736285
19508.0080621
17068.4935975
19505.4650397
19501.0761238
16974.1742894
17008.4027992
19501.4256258
19505.0504794
17029.4651622
19493.8735908
19503.2182745
16932.3696089
16945.7776681
19499.7312154
19496.5780056
16881.6589261
19493.1646083
19498.616496
16865.2009155
16779.0010386
19498.4582594
19494.1908275
16828.294174
19497.9533643
19499.4789154
16925.4449526
16872.2450188
19498.8408442
19499.3357828
16875.4112862
19498.416029
19502.0520993
16816.4322205
16848.0920089
19500.3352221
19500.3193424
16846.7250238
19498.7571226
19499.9481293
16714.7925519
16742.535412
19501.990357
19496.2079144
16727.0684168
19499.9405212
19502.8210988
16717.6708584
16721.2492499
19502.6457707
19500.2818254
16724.9526656
19503.9281615
19503.608148
16787.0228602
16779.2908165
19502.5254279
19504.8562075
16766.3903602
19504.4182118
19505.1016186
16732.0327443
16765.4460124
19504.6102205
19505.2191342
16751.4119341
19497.91956
19502.0180265
16718.0694891
16715.5234848
19501.1864508
19499.7921225
16705.7232998
19495.2329191
19496.6274427
16699.5844793
16675.6898239
19499.5732204
19491.6566214
16690.7081658
19501.879191
19503.9510323
16713.1143069
16718.2933154
19503.8795375
19501.865101
16697.9038705
19498.7360299
19494.7334834
16647.9920773
16689.0709312
19494.955888
19498.7882491
16676.0641041
19483.1797911
19492.3038852
16666.0322234
16661.1697447
19487.301233
19487.2476571
16652.25581
19476.1880506
19472.6624309
16561.4019918
16393.1478137
19478.9845975
19470.5892896
16548.9137842
19486.5064457
19490.9245627
16619.684363
16589.6927617
19490.5399945
19487.4738364
16599.0268299
19479.735244
19477.7956874
16409.1127527
16508.9729762
19474.7696157
19481.8246544
16518.6939883
19455.8335085
19466.6802984
16467.8205557
16465.6700291
19456.3469462
19465.2960078
16459.7239802
19432.5555498
19470.7125435
16005.2346157
16476.5121357
19430.8972062
16025.2270912
19473.80534
19463.2791571
19474.2395212
16480.2359268
16475.2323647
19470.8789118
19466.3240483
16474.7759609
19445.143922
19485.3667756
16485.5777654
16059.9494012
19446.9057476
16059.6307295
19483.9503254
19520.8508813
19514.0637262
17151.093996
17184.6962293
19518.7842651
17206.591536
19516.1745194
19525.1772092
19526.1023466
17167.6818362
17244.9324161
19522.8501815
19528.2437802
17219.7136449
19523.9645001
19521.9092804
17221.7933268
17296.3697808
19527.0499905
17242.4400956
19519.0419062
19528.418941
19533.3207381
17276.782002
17309.1432535
19531.4535453
19531.0793421
17255.4474182
19528.8694794
19527.2151846
17217.2355817
17262.0554092
19526.53745
19529.3297928
17267.2411531
19527.924951
19524.0068126
17206.844895
17245.81634
19525.4793858
19526.3519979
17261.4202452
19531.2692687
19533.7471796
17298.2914521
17355.6062905
19531.8313674
19533.314993
17304.5636391
19530.175086
19530.0869839
17281.788946
17351.7280594
19528.171717
19532.2932186
17299.4288546
19522.2354137
19522.4727893
17142.9614629
17215.9057719
19520.5474675
19524.4201308
17186.8356875
19520.2395772
19516.6309944
17121.4278526
17128.6211394
19518.3561333
19518.5196646
17162.3459854
19523.0414583
19527.2549222
17249.8701016
17232.3700809
19525.8600851
19524.2304847
17213.3882408
19520.6049601
19520.0622832
17126.5739558
17185.5660632
19518.9241189
19521.8524274
17171.9682901
19517.7620385
19516.153574
17093.7757934
17112.8670997
19516.0902533
19517.8741814
17103.1116158
19517.6017894
19515.4510858
17093.5181298
17099.1576122
19515.9778454
19516.7277277
17104.3487723
19519.3854851
19520.0840509
17111.4029105
17133.9198963
19518.9332544
19520.7102712
17112.5311783
19520.0292473
19521.0274414
17120.8058564
17136.2290548
19520.0166308
19521.2423616
17116.3810862