/*--------------------------------*- C++ -*----------------------------------*\
| =========                 |                                                 |
| \\      /  F ield         | OpenFOAM: The Open Source CFD Toolbox           |
|  \\    /   O peration     | Version:  v1906                                 |
|   \\  /    A nd           | Web:      www.OpenFOAM.com                      |
|    \\/     M anipulation  |                                                 |
\*---------------------------------------------------------------------------*/
FoamFile
{
    version     2.0;
    format      ascii;
    class       volScalarField;
    location    "2.25";
    object      alpha.water;
}
// * * * * * * * * * * * * * * * * * * * * * * * * * * * * * * * * * * * * * //

dimensions      [0 0 0 0 0 0 0];


internalField   nonuniform List<scalar> 
28582
(
1.00000128233
1.0000014262
1.00000160564
1.00000229289
1.00000093835
1.0000015421
1.00000331694
1.00000360863
0.0169430926053
0.0193042409202
6.55706278163e-09
1.00000451728
0.949459190416
0.948421653792
1.00000403378
1.00000788695
0.948319404934
0.999970349672
0.999961716599
1.00000083969
1.00000280388
1.00000401211
1.00000047549
1.00000394525
1.00000509685
1.00000006314
1.00000277284
1.00000339966
1.00000411011
0.0202424419952
7.74859497807e-07
3.5455505402e-07
1.00000263978
1.00000496965
0.948541888449
0.943973545034
0.999981980064
1.00000407899
1.00000689701
1.00000781018
0.999970951244
0.949266501002
0.999962958349
0.999980103551
0.0176373999491
0.0193997222075
6.74797158572e-06
2.80904525274e-08
0.0183811282028
2.73683340972e-08
0.999990989435
0.999969508787
0.947578641756
0.947229340594
0.999959161678
0.949043489369
0.999984573056
0.999972486372
0.999993493295
0.947693097703
0.948119942313
0.999972204765
0.948884348021
0.999992642254
0.999971247171
0.999989256657
0.94831129033
0.948354731109
0.999972736649
0.948517484109
0.999981772464
0.999979950607
0.948660031585
0.948989405597
0.999971206254
0.948585974076
0.948564188437
0.999981390051
0.999980702778
0.949072497283
0.948816019482
0.999961715609
0.94797878464
0.999974214551
0.948647588191
0.0170823610255
2.97333827985e-05
0.0173591830573
0.0177411859416
2.61094851461e-05
3.63614307491e-05
0.0203442244714
1.99932174557e-05
1.66308916851e-07
0.021401135101
4.60630638267e-05
0.0215258963398
7.91619690671e-06
0.999936666906
0.99995916433
0.944215629716
0.941211413884
0.99994537214
0.999923759514
0.945972377319
0.999955850206
0.999952482956
0.940566253565
0.94443852766
0.999942763915
0.999947556577
0.948068311989
0.943944742982
0.947280041539
0.9999838114
0.999966190351
0.945605161352
0.999939045831
0.949000314097
0.999973960471
0.948818087334
0.949460522154
0.999971307141
0.94933043662
0.999971859428
0.949448161157
0.99997252442
0.999967782869
0.949460264123
0.950165648526
0.999971572537
0.999976262199
0.949598533321
0.999977883073
0.999980626569
0.949852715675
0.948983214472
0.949639999907
0.999965759615
0.949957712945
0.950386419741
0.950025512969
0.999979920707
0.999969580252
0.950473916725
0.999974388109
0.950052694154
1.00000325332
1.00000398442
0.0230965421206
1.90181636241e-06
1.00000373591
0.948345173352
1.00000783372
1.00000726302
0.949296070056
0.94911766509
0.948134538513
1.00000622995
1.0000062314
0.947294070578
0.946913907538
0.0175096568793
0.0232000797511
0.025099942855
4.46020361134e-05
8.74838355497e-05
0.000109192121831
0.0268222487413
0.0284481849226
0.999949583026
0.999985302771
0.943737494794
0.946353971434
0.999940754324
0.946100619386
0.999980255557
0.999976876287
0.999965091431
0.949726395089
0.950175385346
0.999968219987
0.999978068998
0.949520699718
0.99997268629
0.999974455932
0.950448343636
0.948988458262
0.999974993887
0.949543102847
0.999974876087
0.999966583936
0.999987270635
0.94856791058
0.948897549561
0.999964819429
0.948601408385
0.99998108487
0.999962354838
0.999987885986
0.948460476914
0.947141966562
0.999965208396
0.9480081159
0.999986258916
0.999960209458
0.999979517821
0.947319168677
0.946967276267
0.999954859365
0.947674397172
0.999985414862
0.999998424599
0.999998956768
0.999998652988
1.00000099856
0.0094746966262
0.0109370228414
0.010943748344
0.0126561688904
0.0133984199289
1.74969852398e-09
8.77083923607e-08
3.68817091674e-08
2.77936137051e-07
7.14779744137e-07
2.80265962336e-06
1.0000003567
0.999999669376
0.980800575608
0.979846136596
0.999998675543
0.980810020595
1.00000045372
0.999999752493
0.978618823664
0.973557788006
0.99999595972
0.99999801374
0.999995421488
0.979255478914
0.981781702455
0.973641456066
0.974231063272
0.99999159517
0.99998914622
0.977704280386
0.972627965492
0.96954419405
0.96575625123
0.999998743395
0.999998937747
0.971712398572
0.97185661192
0.966276473777
0.999998617014
0.99999995256
1.00000033226
0.967646185101
0.963538204409
0.96319198626
0.958361778551
0.96265043267
0.957758519293
0.00943118244143
0.009448910935
0.00913235262489
6.94389815197e-07
2.27530315133e-06
1.59154476874e-06
2.94475128882e-06
5.42779938209e-06
1.44362482517e-05
6.82715377305e-06
1.55439239554e-05
0.0097213440999
0.01028721509
0.00970854081786
0.0101933934658
0.0104663837088
2.60927011892e-06
6.73551081782e-06
6.28608718938e-06
1.03578915717e-05
0.0128496373447
0.0116857742636
0.0133947496438
1.30608781067e-05
1.75308419902e-05
1.81694399355e-05
2.25488753591e-05
0.0114232371444
0.0120057490687
9.2797616045e-06
1.7766187623e-05
2.66570586583e-05
0.0143030744322
0.013331648185
0.0146707603327
3.10203270087e-05
4.2327021582e-05
4.52096618098e-05
6.22409764666e-05
0.999996195343
0.999999786473
0.975992292662
0.979183672407
0.999996414315
0.978778598029
0.999996151793
0.999998678875
1.00000528027
0.978502285007
0.975567922623
0.999998806548
0.999996855313
0.978140364357
1.00000501332
0.999999518701
0.981161285121
0.981707038709
1.00000910274
0.999999091592
0.984377323437
0.999995038619
1
0.974270727439
0.974991623263
0.999996146415
0.99999500692
0.975363309726
0.999995395885
0.999999723588
0.973204968686
0.969766915642
0.999992306973
0.999989790945
0.97398276209
0.999998188611
1.00000684019
0.979787317177
0.976754856714
1
0.999990476566
0.979622177885
0.999994315882
0.999999425134
0.982074062461
0.978238726928
0.999997712182
0.999988499561
0.978520578934
0.999992976149
0.999997286799
0.974343538025
0.972909230894
0.999998024145
0.999990799463
0.977356866496
0.999991275128
0.999990176073
0.975272125405
0.973833013353
0.999989045959
0.999991552183
0.976097644716
0.999966465828
0.999993340473
0.977026981569
0.979082902359
0.999990695913
0.999984429108
0.976399704829
0.999952852194
0.999988642332
0.976561566723
0.961200191147
0.999985449522
0.965841173557
0.999945989621
0.999975267365
0.999983479945
0.975805985573
0.966831702239
0.999985162893
0.999976176875
0.974228224462
0.999955512188
0.99997544773
0.958720026825
0.96608296858
0.999974622038
0.964043503481
0.999927791696
0.999988422987
0.999995070654
0.970299149544
0.967679302293
0.999985794199
0.99999124802
0.970462906221
0.999982987402
0.999988608115
0.970611183851
0.966551027547
0.999985008291
0.99998133557
0.969180173935
0.999987287098
0.999982135432
0.964203065942
0.963585621846
0.999981439914
0.999981585268
0.967751458238
0.999973146458
0.999981552476
0.963549630145
0.965618402515
0.999962705137
0.999983131398
0.966454977757
0.999965050516
0.999975491961
0.962916175569
0.953226395101
0.999965740463
0.959578515545
0.999950221516
0.999979887774
0.999978971926
0.96279554662
0.957538653124
0.999978325408
0.999965089969
0.96475316897
0.999972256299
0.999967985701
0.95222357394
0.955545758245
0.999963859423
0.959277184795
0.999957185023
0.999977033878
0.999986554951
0.956295371259
0.957759736262
0.999964212259
0.999974713593
0.961789565032
0.99998164343
0.95423907138
0.999964315125
1.00000118918
1.00000187045
1.00000239208
1.00000504624
1.00000567801
1.00000600161
1.00000120667
1.00000205725
1.00000267334
1.0000058359
1.00000617063
1.00000614111
0.999975721124
0.999929513331
0.999991676088
1
1.00000237577
1.00000472661
1.00000638586
1.00000746074
0.999993160207
0.999991479064
0.999984647495
0.999998309391
1.00000088119
1.00000238078
1.00000334431
1.00000368589
0.999998135745
0.999999049848
1.0000000799
1.00000090528
1.00000181344
1.0000026355
1.00000326298
1.00000343727
0.999999778442
1.00000034936
1.00000121131
1.00000213507
1.00000240254
1.00000285044
1.00000318913
1.00000319332
1.00000338316
1.00000384485
1.00000408085
1.00000378351
0.999785074735
0.999936390314
1.00000017978
1.00000323513
1.00000490364
1.00000641982
1.00000924925
1.00001061107
0.999917221018
0.999928273026
0.999999147438
1.00000129672
1.00000262134
1.00000361609
1.00000401579
1.0000037066
0.999996274284
0.99999957057
1.00000066674
1.00000161324
1.00000254801
1.00000332229
1.00000391459
1.00000387563
0.999999564062
1.00000030817
1.00000110795
1.00000185856
1.00000240657
1.00000307493
1.00000358297
1.00000350894
1.00000323108
1.00000337955
1.0000034715
1.00000290586
0.999798973996
0.999957754535
1.00000211442
1.00000359752
1.00000393092
1.00000653695
1.00000838699
1.00000898015
0.999917117919
0.999984558022
1.00000130837
1.00000189952
1.00000227323
1.00000233166
1.00000395059
1.00000493938
0.999997568363
0.999999835537
1.00000074827
1.00000137398
1.00000193864
1.00000242139
1.00000287226
1.00000289175
0.999999945768
0.999999653151
0.999999982238
1.00000053956
1.00000107627
1.00000169131
1.00000220883
1.00000266634
1.00000267421
1.00000099404
1.00000156718
1.0000019816
1.00000217433
1.00000210345
1.00000230741
1.00000199832
1.00000395321
1.00000404096
1.00000403344
0.999982698163
0.999996602765
1.0000005847
1.00001092831
1.00001025353
1.00001363897
1.00001440638
1.00000767691
0.999994390912
0.99999324555
1.00000001416
1.00000609445
1.0000073659
1.000007493
1.00000707018
1.00001025381
1.00001231366
0.999998717828
0.99999994406
1.00000165207
1.00000203991
1.00000305845
1.00000458946
1.00000514343
1.00000527994
1.00000615854
1.00000496669
1.00000354493
1.00000134744
1.00000106048
1.00000215111
1.0000036979
1.00000469319
1.00000552799
1.00000704779
1.00000617954
1.00000288859
1.00000187738
1.00000284148
1.00000383299
1.00000488175
1.00000616568
1.00000485373
1.00000486169
1.00000441465
1.00000188585
0.0201462509992
0.0207484665671
0.0213903307636
0.0229702281225
0.0266696273282
0.0297183620616
0.0333792427527
0.0381903447457
0.0147070976543
0.0182354007814
0.0195867526749
0.0206218141754
0.0216714531956
0.0233889755229
0.0263692452319
0.0294897086167
0.034173694124
0.0380824158245
0.0157084084222
0.0180142312489
0.0188505852063
0.0193718495546
0.0202641807362
0.0225893469028
0.0257135353505
0.0284407478412
0.0324797969343
0.0373957962613
0.0176669440598
0.0181703593722
0.0183013275025
0.0193867516004
0.0216311583396
0.0246097775674
0.027257399472
0.0307798082768
0.0361404012625
0.0182410879043
0.0194144582492
0.0209266704608
0.0235782196906
0.0266271353182
0.0313288540853
0.0357558984646
0.0265060113708
0.0317963564412
0.0349764477071
1.62395483265e-07
3.49206632943e-08
1.80134522507e-07
4.63462043131e-08
7.69263725379e-08
7.62902440364e-08
-1.86334477051e-30
7.55172198603e-07
1.25578603793e-05
4.41712226957e-05
1.13816099571e-07
2.14701883723e-08
9.89087925429e-08
1.0146070387e-07
5.72595067402e-08
2.34185777599e-27
6.47135065091e-28
5.94311434252e-07
1.61094390498e-05
4.14741005326e-05
1.468885973e-06
5.49263570537e-08
3.61891517992e-26
1.42694451771e-08
1.02460438225e-07
6.14633389794e-08
1.53560979129e-08
2.34845359669e-07
1.00011422133e-05
3.27959443442e-05
5.3382721646e-08
1.01622033774e-07
1.73989574895e-07
6.68170752632e-08
4.56649895419e-09
-1.29246970711e-27
7.37559038551e-08
7.39441685177e-06
2.92353283984e-05
3.1941805566e-07
3.09653408665e-26
2.03573558948e-09
7.65424573795e-08
1.35252604171e-06
1.32483907439e-05
3.13940255884e-05
2.38566864984e-06
1.39928807919e-05
3.75069979447e-05
0.99995263002
0.999991530565
0.999991304979
0.999906889498
0.999836217332
0.999942828553
0.999931730614
0.999960124592
0.999991223873
0.999979928981
0.999906736359
0.999975952724
0.999918052534
0.999955696569
0.999993133901
0.999994723807
0.999982918938
0.999986186412
0.99998629432
0.999994045494
0.999987901063
0.999974932363
0.999974298341
0.999979042248
0.999979432154
0.999968780251
0.999974346721
0.999980610581
0.999821750982
0.999781159426
0.999833516207
0.999781581814
0.999805912599
0.99977611535
0.99983740154
0.999994071981
0.999918680252
0.999987486042
0.999924649268
0.999993584937
0.999925990957
0.999992512061
0.999912713084
0.999980869879
0.999982884239
0.999826528314
0.999900786452
0.999965440607
0.999977285503
0.99997568209
0.999985125493
0.999990328512
0.999953382481
0.999991644164
0.999986759451
0.999995985207
0.999885302949
0.999845828235
0.999907329941
0.999895116957
0.999966565723
0.999929406153
0.999981057366
0.999996956966
0.999963741786
0.999997949051
0.999989747984
0.999999969534
0.99999493566
1.00000009893
0.999959696073
0.999980670838
0.999988873184
0.999973963283
0.999989482637
0.999993483775
0.999995346923
0.999999938675
0.999994768902
0.999999669994
0.999997796441
1.00000061695
0.999998327244
1.00000031138
0.999952995721
0.999973542203
0.928156910673
0.931557508441
0.999996007888
0.999980726023
0.999990215715
0.927961429945
0.935188026981
0.930596038549
0.935677414183
1.00000008395
0.99999539642
0.999999871451
0.936310194989
0.93797666204
0.936196580575
0.938042074809
1.00000816598
1.00000587926
1.00001003729
0.93937959939
0.942491882755
0.938543829729
0.941041087948
1.0000121905
1.00001034388
1.00000794768
0.942904614789
0.940285474474
0.941727568261
0.940998082597
1.0000112027
1.00000892347
1.000006114
0.940344029705
0.939945839125
0.94110507523
0.940349044515
1.00002009845
1.00000614072
1.00001053602
0.940089542619
0.940134496304
0.940753451448
0.941355359548
1.00001364805
1.00001703756
1.00001490227
0.940701230855
0.926593077054
0.93965144464
0.921301929709
1.00000524277
1.00001374559
1.00001570589
0.9177605194
0.89988751246
0.914073151
0.904716098848
0.999989116051
0.999991495535
0.954433758592
0.946871097456
0.953228827342
0.948178213214
0.999993901103
0.9999924252
0.999993785177
0.932128387274
0.93311909552
0.938501859371
0.938308363813
0.999997548526
0.999998003387
1
0.931898317906
0.936204316173
0.9365677527
0.939373788295
1.00000381098
1.00000283732
1.00000266428
0.936428987001
0.938466670105
0.939029098405
0.941348442752
1.00000907596
1.00000439088
1.00000403741
0.938857020806
0.940993059509
0.941054162674
0.94214651534
1.00001003562
1.00000590483
1.00000493957
0.941549106124
0.941076811322
0.942059822487
0.941905677909
1.00000965809
1.00000646494
1.00000502399
0.941224475967
0.940616044611
0.941916398133
0.942128036421
1.00000909113
1.00000668793
1.00000508823
0.940973866847
0.941750138311
0.942428801965
0.943669554345
1.00001368097
1.00000746318
1.00000490998
0.939692921107
0.92076235647
0.942331059743
0.923775255351
1.00001465744
1.0000053955
1.00000529309
0.914031670771
0.906830616132
0.916219676158
0.906538352458
0.999999557944
1.00000099947
1.00000262026
0.953110266369
0.948674635927
0.952695768646
0.948126774191
1.00000153885
1.00000346749
1.00000463339
0.940308563455
0.939769617855
0.943360565318
0.943681771948
1.00000232277
1.00000493168
1.00000439824
0.937986070872
0.940590885766
0.941623175888
0.944805190767
1.00000352662
1.00000432642
1.00000364562
0.940253744904
0.942604894181
0.944490600771
0.946249485568
1.00000518186
1.00000416236
1.0000039801
0.942349841339
0.943149648762
0.946120217814
0.94649796841
1.00000637531
1.00000539281
1.00000509945
0.942814483789
0.942382286576
0.946100655575
0.94519785102
1.00000661002
1.0000059287
1.00000503963
0.942312290394
0.942500605776
0.944866951421
0.944790931172
1.00000782365
1.00000627437
1.00000557843
0.942781670683
0.943705556776
0.944917425517
0.945111362044
1.00000786042
1.00000863284
1.00000652754
0.943512738921
0.926111583187
0.945327676534
0.931835728839
1.00000550772
1.00000677926
1.00000488245
0.917850158396
0.9054489626
0.923462716912
0.905296879182
0.953353700915
0.948700834
1.00000278859
1.00000481412
0.944665342442
0.944521379205
0.945391739953
1.00000124278
1.00000494483
1.00000507869
0.943129399141
0.945366748284
0.947626808956
0.943799682199
1.00000200782
1.00000443096
1.00000374747
0.945461704232
0.946417228804
0.945685410554
0.944929059771
1.000003636
1.00000407711
1.00000364843
0.946332113213
0.946602277039
0.945233726392
0.946399341634
1.00000488985
1.00000442431
1.00000426335
0.946261328437
0.945444414051
0.946593516361
0.946981962886
1.00000574082
1.00000506406
1.00000466929
0.945127644655
0.945033910057
0.946888645731
0.946717715523
1.00000817684
1.00000590247
1.00000561102
0.945161922647
0.945311342581
0.946832359534
0.947014190165
1.00000895206
1.00000841922
1.00000699309
0.945681229303
0.933012838133
0.946723486228
0.930911240968
1.00000601317
1.00000687838
1.00000481198
0.924652794749
0.905322577127
0.922657067631
0.905961785811
1.00000255064
1.00000411627
0.945664392602
0.944821699527
0.947600933261
1.00000290368
1.00000469096
1.00000466028
0.945190105148
0.946401905724
0.947828429108
0.948278617491
1.00000392612
1.0000050004
1.00000497853
0.946655510745
0.947328700609
0.948409770397
0.948886545754
1.00000482376
1.00000504233
1.00000359468
0.947322911795
0.947131171848
0.949016943885
0.94932088663
1.00000694889
1.00000429034
1.0000036677
0.947229979005
0.947443184558
0.949298040956
0.947527992424
1.00000740839
1.00000579279
1.00000359431
0.946146429078
0.92875145189
0.943978649794
0.923925265426
1.00000484021
1.00000455946
1.00000336836
0.920966964119
0.907112184717
0.917208651335
0.907646377606
1.00000534982
0.949475385513
1.00000637494
0.94927994932
0.946866694433
1.00000487152
0.94341791252
0.924405559819
1.00000270647
0.917912931787
0.90794721223
2.80422714269e-05
8.23609369169e-06
1.72154507872e-05
1.27262291202e-06
0.0198830571584
0.019650154664
1.33317035095e-06
1.63737033035e-06
6.84557694274e-07
1.22727365518e-06
0.0201913144028
0.0199742446784
0.0201373740541
3.85195947492e-06
2.54541690371e-06
5.50452484997e-06
1.05323618931e-05
0.0215123280408
0.0207028316763
0.0214210468921
3.0784747203e-07
2.87082306703e-07
8.15827320752e-06
4.77434489266e-06
0.0217624600125
0.0217701461813
0.022245097073
3.05139142521e-06
6.09211996969e-06
5.98597160292e-06
4.60792561967e-06
0.0248759018575
0.0233497960311
0.0248547082492
9.38890816125e-06
1.3748343168e-05
4.33581614226e-06
2.16743775361e-06
0.028260780119
0.0265977047271
0.0282525080372
1.7124159428e-05
2.15345830388e-05
3.34910839905e-06
6.91403085642e-06
0.0311944368862
0.0296913545688
0.0312623849802
2.50337278844e-05
5.71666938912e-05
3.07538479535e-05
0.000103314883068
0.0370121763564
0.0340821201902
0.0374597075948
0.000160231647708
0.000366173130297
0.000254743198558
0.000421862502091
0.037330723371
0.0381834476667
0.0371616737904
0.000537367341861
0.000626862891294
0.000545992105114
0.000607085204529
0.0165959974029
0.0151490870541
0.016800844706
9.86469694397e-06
2.05008766657e-06
1.76367718037e-05
9.48180454965e-06
0.0191836784472
0.0181253888854
0.0187422533764
1.06316826529e-06
1.2740815572e-06
2.70369939101e-06
3.74378261858e-07
0.02016798124
0.0193014763662
0.019634863351
3.25583250601e-06
9.37619487681e-06
1.20811876752e-06
8.14670463584e-07
0.0212083610537
0.0201953967598
0.0204312331261
1.06814821962e-05
9.49811171129e-06
7.14460088306e-06
9.17337353686e-06
0.0223280711043
0.0211679308542
0.0220056682569
7.77106476303e-06
7.16514357006e-06
1.61268413565e-05
9.28526989166e-06
0.0247881324249
0.0232026135016
0.0245833145434
2.35098561465e-06
1.74487625047e-06
7.91905370789e-06
1.41919609622e-06
0.0279681413758
0.0261140899368
0.0275902693228
2.82841610955e-07
5.23815438605e-06
2.91700754049e-06
7.13453929787e-06
0.0311288291391
0.0290141753335
0.0305846068813
2.54175391022e-05
0.00011762298968
3.58184681403e-05
9.9670460041e-05
0.0375490911058
0.033535314801
0.0370560209874
0.00028403219405
0.000442773127377
0.000254709534522
0.00042916680064
0.037156852189
0.0378024598142
0.037049122138
0.000540609135905
0.000584904324593
0.000530412176472
0.000573249514024
0.0171103949276
0.0161238378133
0.0170962842341
3.96652325156e-05
2.27829842337e-05
5.34951820085e-05
2.38038273956e-05
0.0186120606712
0.01812165587
0.0182063968453
4.26231661516e-06
3.69272009178e-07
4.23096869916e-06
4.03316458782e-07
0.0192448638908
0.0186281999322
0.0184870666494
3.57506577765e-08
8.47181631304e-08
2.39561122612e-07
4.46740307272e-08
0.0196890962381
0.018607169217
0.01883604178
2.69595716507e-08
5.46222171329e-06
2.53523943783e-07
1.22124992723e-05
0.0212591494973
0.0194343258384
0.0204057063079
1.47595831103e-05
2.38057877579e-05
2.29437493633e-05
2.1392872583e-05
0.0241765391335
0.0218561370469
0.0235047147831
1.47905635623e-05
1.88175542345e-05
2.15450942788e-05
1.79594545745e-05
0.0271631521445
0.0250999552873
0.0264855015574
1.02421511793e-05
1.72061555673e-05
2.00564783147e-05
1.24956953341e-05
0.0299973305224
0.0277864172294
0.0292376888983
2.44553348528e-05
7.5263900412e-05
2.13620989926e-05
5.30477053725e-05
0.0361200076682
0.0314421080225
0.0351140377001
0.000199626540194
0.000384811044846
0.000165362484904
0.000341692260464
0.0367537973342
0.0367304487593
0.0361839275808
0.000489912029301
0.000530607743871
0.000456622448577
0.000509588024298
0.0181317168126
0.0178421937488
7.67505695073e-07
3.43972470018e-07
1.6216719593e-05
0.0181970511036
0.0177881058823
0.0180339263754
6.89179488547e-08
1.26677090991e-06
1.64019302819e-05
2.40705657666e-05
0.018753930602
0.018386615805
0.0188645170104
1.02558245689e-05
2.00219078777e-05
2.99336074247e-05
2.51084705551e-05
0.0203780360175
0.0195349088322
0.0203490358034
2.01611659141e-05
1.87322681589e-05
1.73108404768e-05
8.02934021737e-06
0.0231025334041
0.0213041060749
0.0225767927414
1.10571726793e-05
1.52057116935e-05
4.18992326515e-06
3.78262194156e-06
0.0259776630975
0.0240385148975
0.0254953315574
8.8181928008e-06
7.90725535399e-06
7.36754840502e-06
3.58125089578e-06
0.0287154225966
0.026847900942
0.0283971873349
3.30933616517e-06
3.57220177762e-05
1.48717449776e-05
4.76145091941e-05
0.0343788396558
0.0307221463032
0.0343493167904
0.000133389367995
0.000315195513147
0.000161297058422
0.000325042828849
0.0356617546832
0.0358707847147
0.0353928476417
0.000432522481578
0.00048918677549
0.000429756599528
0.000481655377233
0.0187539221284
0.0181718784312
3.1981029008e-05
1.8381900789e-05
2.30265589354e-05
3.76392938455e-06
0.0200175469262
0.0186755978098
0.0194628822551
1.38549023245e-06
3.44712355621e-07
3.12130920349e-08
4.09454087711e-08
0.0220562514045
0.0204617001161
0.0217148084839
7.35485646059e-08
2.9638172316e-07
1.81077379054e-07
4.55498782439e-08
0.0251575875233
0.0232544737781
0.0247962694861
2.39570397102e-07
9.06620029933e-06
3.71088247912e-06
3.27654723301e-05
0.0283262808541
0.0264442732972
0.0285891006892
2.84119334575e-05
9.32085229905e-05
7.97413810696e-05
0.0001460334782
0.0346677312794
0.0319008104323
0.0348247172446
0.000215692096196
0.000359335148978
0.00026621271258
0.000381220540893
0.0352745036599
0.0355755875908
0.035181426067
0.000439406845047
0.000486392783947
0.000444754760344
0.000488164181667
0.0247878325553
8.79055019584e-05
0.0287424313656
0.000106783576844
0.000157025115552
0.000106125662685
0.000103971449345
0.0342716624873
0.000262230819524
0.000372178089361
0.00018732891548
0.000330375936605
0.0347842838548
0.000458376787798
0.000520620051436
0.000445674244379
0.000523382318878
0.99991605616
0.999926175767
0.924854671708
0.925283679754
0.999912667014
0.924973308331
0.999906357721
0.999927425987
0.999921304393
0.926481076109
0.928427478869
0.999909972186
0.999905695387
0.926369158005
0.999949646139
0.99992150339
0.930003888166
0.930374552576
0.999944440636
0.93200512707
0.999900321201
0.999935035829
0.999899978276
0.933694906665
0.934159474732
0.999891490095
0.932520958023
0.999899093866
0.999944420509
0.999916020312
0.931401760651
0.931756531382
0.999937075139
0.999918596231
0.932843116828
0.999924383191
0.999933179686
0.934738533822
0.934832679147
0.999892052438
0.999929926035
0.933160093123
0.999778481342
0.999901719997
0.93734696673
0.935360771002
0.999828810946
0.935590541892
0.999905821392
0.999775416744
0.999913948975
0.937682902327
0.937766973479
0.999784540522
0.936248217187
0.999910406444
0.999857953028
0.99993582064
0.936211140351
0.937426583628
0.999870120917
0.999937925287
0.936442612171
0.999858115808
0.999932769024
0.937998589949
0.938036930161
0.999863903907
0.999935350638
0.936860150848
0.999839696057
0.999922028375
0.941331285065
0.939212316638
0.99980763635
0.940542997056
0.999939565572
0.99988488616
0.999966197663
0.942071061854
0.942092274751
0.999944115711
0.941824074184
0.999954802184
0.99989345469
0.999933019866
0.939023461167
0.939801934089
0.999874711301
0.999940374579
0.939909128558
0.999914496152
0.999959210853
0.941549263671
0.940564360885
0.999953862075
0.999959964462
0.941111920629
0.999982481327
0.999980488169
0.942827919105
0.941740337093
0.999985250472
0.941305607151
0.999989475444
0.999971902818
0.999989886123
0.941588051338
0.941327438629
0.999957581826
0.941349828299
0.999987999489
0.999979295797
0.999953210801
0.941394994264
0.941879446437
0.999973523321
0.999952952733
0.941304285277
0.99998546335
0.999958879297
0.941503591551
0.941413361434
0.999993929831
0.999956163657
0.941513122983
0.999950335916
0.999991655177
0.940520703515
0.940588438834
0.999953590051
0.940003327968
0.999991464934
0.999947367281
0.999980033977
0.940256246191
0.940313108946
0.999947412572
0.94014623307
0.999986266472
0.999986603876
0.999961886036
0.940699311343
0.941081158272
0.999993759727
0.999964693554
0.940141759163
0.99996787633
0.999966171703
0.940491385597
0.940576148965
0.99995420146
0.999967981656
0.940330742779
0.999949694357
0.999979104919
0.94026392709
0.940158759889
0.99994988894
0.940128721898
0.999979230465
0.999958193533
0.99998151723
0.940140355981
0.940818270984
0.999970192732
0.940604199839
0.999988825222
0.99995254467
0.999966815301
0.940341823938
0.941248096768
0.99995444624
0.999966966683
0.940302652475
0.999951930851
0.999959496877
0.941316664239
0.94118124671
0.999965543387
0.999969131856
0.940846792799
0.999953758053
0.999968039235
0.940025059523
0.940702092955
0.999974696078
0.939007045582
0.999946296473
0.999923090191
0.999850923298
0.934922828876
0.92418075305
0.999864894879
0.932308282119
0.999913356779
0.999940682983
0.999966350418
0.940399686203
0.936915594006
0.999964054026
0.999945126213
0.937703456899
0.999898519375
0.999829166511
0.922024007964
0.930156855684
0.999826871715
0.999900318832
0.93025696882
0.999739249992
0.999780607064
0.910835784337
0.917757566775
0.999802175969
0.912441793463
0.999705280722
0.999603870396
0.999646077098
0.907179121352
0.896994418319
0.908089661978
0.999653758485
0.999579340219
0.999709459956
0.999758658439
0.916762146835
0.909926473609
0.99975825123
0.999723315214
0.912773533383
0.999612934419
0.999735259559
0.901443472205
0.909500769083
0.999677041646
0.909795704557
0.999655341517
0.999958575311
0.999971347415
0.94351590827
0.959056155697
0.999948643934
0.959372334842
0.999961998699
0.999947445133
0.999961001808
0.94313210795
0.930737866202
0.999948044882
0.999903499399
0.941807640447
0.999953424227
0.999952812414
0.957990267694
0.944690240893
0.999925667659
0.958987826281
0.999945420859
0.999934118241
0.99994592494
0.933499354098
0.944956958434
0.999902379146
0.999929682212
0.943507741756
0.999952563395
0.999933413292
0.925041340519
0.933535394973
0.999881850072
0.999915360996
0.937871174431
0.999930634466
0.999907318995
0.929801827312
0.930600413564
0.999909876483
0.999912900744
0.931572695993
0.999963828508
0.999921946599
0.93597594747
0.933707983881
0.999928089711
0.999890817714
0.939893498531
0.999922648874
0.999930172448
0.93262240447
0.936422788895
0.999914108181
0.999914684435
0.933776192197
0.999962722046
0.999893890519
0.932734914558
0.934363553893
0.999896604052
0.999950001793
0.935531782083
0.999953614056
0.999909952891
0.93554582816
0.936911496277
0.999909311861
0.999933665377
0.935600918657
0.999922853038
0.999936376268
0.936090750559
0.936978950194
0.999921511001
0.999940711738
0.937099161174
0.999911035425
0.999973777304
0.937831081212
0.939215850049
0.999907811329
0.999964771439
0.936935746536
0.999917630986
0.999909584468
0.937470911451
0.938324501177
0.999912938625
0.99992577875
0.938234151957
0.999917539431
0.999911124422
0.938379677079
0.939162038104
0.99991550997
0.999920933921
0.938265690541
0.999920663484
0.999972075712
0.939343319698
0.939662582846
0.999913269498
0.9999693422
0.93933800623
0.999923140871
0.999969005684
0.940009455299
0.941302866484
0.999924795275
0.999970813475
0.939311467938
0.999926013103
0.999911219238
0.939949967049
0.940123510323
0.999916387793
0.999924955034
0.940197926584
0.999931272697
0.999928223348
0.94064660631
0.941272296995
0.999923189264
0.999941680539
0.940501749618
0.999926660402
0.999963890057
0.94095209088
0.941380103221
0.999925803332
0.99996227293
0.940953941684
0.999927690078
0.999967024653
0.941450724615
0.942190986755
0.999931992543
0.999966009145
0.940987598686
0.999958337985
0.999936648226
0.941722596986
0.941420982735
0.999958787826
0.999954565386
0.941371749328
0.999958955191
0.999973657473
0.941378722895
0.941686808982
0.999975029664
0.999960012368
0.941552673616
0.999941163001
0.999966861172
0.941696799816
0.942264657635
0.999938371976
0.999967092899
0.941568040994
0.999942138965
0.999968439818
0.941706272552
0.942272945353
0.999944336104
0.999969307395
0.941583530111
0.999962520846
0.999969941411
0.941249610592
0.941322695125
0.999970803552
0.999963365945
0.941020569047
0.999961719912
0.999961088311
0.940838504715
0.941569249059
0.999969089341
0.999957867664
0.941275828719
0.999946449876
0.999966234029
0.941510042606
0.94224383143
0.99994614371
0.99996577626
0.941258117961
0.999945652702
0.999964466839
0.941923978941
0.942229123762
0.999945074653
0.999966079973
0.94146700717
0.99995588853
0.999951487002
0.941497312505
0.94141058246
0.999951204663
0.999958655571
0.941310615063
0.999955323987
0.999938413831
0.941489057291
0.942930934602
0.999950083554
0.999951354948