/*--------------------------------*- C++ -*----------------------------------*\
| =========                 |                                                 |
| \\      /  F ield         | OpenFOAM: The Open Source CFD Toolbox           |
|  \\    /   O peration     | Version:  v1906                                 |
|   \\  /    A nd           | Web:      www.OpenFOAM.com                      |
|    \\/     M anipulation  |                                                 |
\*---------------------------------------------------------------------------*/
FoamFile
{
    version     2.0;
    format      ascii;
    class       volVectorField;
    location    "7.9";
    object      force.turbine;
}
// * * * * * * * * * * * * * * * * * * * * * * * * * * * * * * * * * * * * * //

dimensions      [1 -2 -2 0 0 0 0];


internalField   nonuniform List<vector> 
28582
(
(0 0 0)
(0 0 0)
(0 0 0)
(0 0 0)
(0 0 0)
(0 0 0)
(0 0 0)
(0 0 0)
(0 0 0)
(0 0 0)
(0 0 0)
(0 0 0)
(0 0 0)
(0 0 0)
(0 0 0)
(0 0 0)
(0 0 0)
(0 0 0)
(0 0 0)
(0 0 0)
(0 0 0)
(0 0 0)
(0 0 0)
(0 0 0)
(0 0 0)
(0 0 0)
(0 0 0)
(0 0 0)
(0 0 0)
(0 0 0)
(0 0 0)
(0 0 0)
(0 0 0)
(0 0 0)
(0 0 0)
(0 0 0)
(0 0 0)
(0 0 0)
(0 0 0)
(0 0 0)
(0 0 0)
(0 0 0)
(0 0 0)
(0 0 0)
(0 0 0)
(0 0 0)
(0 0 0)
(0 0 0)
(0 0 0)
(0 0 0)
(0 0 0)
(0 0 0)
(0 0 0)
(0 0 0)
(0 0 0)
(0 0 0)
(0 0 0)
(0 0 0)
(0 0 0)
(0 0 0)
(0 0 0)
(0 0 0)
(0 0 0)
(0 0 0)
(0 0 0)
(0 0 0)
(0 0 0)
(0 0 0)
(0 0 0)
(0 0 0)
(0 0 0)
(0 0 0)
(0 0 0)
(0 0 0)
(0 0 0)
(0 0 0)
(0 0 0)
(0 0 0)
(0 0 0)
(0 0 0)
(0 0 0)
(0 0 0)
(0 0 0)
(0 0 0)
(0 0 0)
(0 0 0)
(0 0 0)
(0 0 0)
(0 0 0)
(0 0 0)
(0 0 0)
(0 0 0)
(0 0 0)
(0 0 0)
(0 0 0)
(0 0 0)
(0 0 0)
(0 0 0)
(0 0 0)
(0 0 0)
(0 0 0)
(0 0 0)
(0 0 0)
(0 0 0)
(0 0 0)
(0 0 0)
(0 0 0)
(0 0 0)
(0 0 0)
(0 0 0)
(0 0 0)
(0 0 0)
(0 0 0)
(0 0 0)
(0 0 0)
(0 0 0)
(0 0 0)
(0 0 0)
(0 0 0)
(0 0 0)
(0 0 0)
(0 0 0)
(0 0 0)
(0 0 0)
(0 0 0)
(0 0 0)
(0 0 0)
(0 0 0)
(0 0 0)
(0 0 0)
(0 0 0)
(0 0 0)
(0 0 0)
(0 0 0)
(0 0 0)
(0 0 0)
(0 0 0)
(0 0 0)
(0 0 0)
(0 0 0)
(0 0 0)
(0 0 0)
(0 0 0)
(0 0 0)
(0 0 0)
(0 0 0)
(0 0 0)
(0 0 0)
(0 0 0)
(0 0 0)
(0 0 0)
(0 0 0)
(0 0 0)
(0 0 0)
(0 0 0)
(0 0 0)
(0 0 0)
(0 0 0)
(0 0 0)
(0 0 0)
(0 0 0)
(0 0 0)
(0 0 0)
(0 0 0)
(0 0 0)
(0 0 0)
(0 0 0)
(0 0 0)
(0 0 0)
(0 0 0)
(0 0 0)
(0 0 0)
(0 0 0)
(0 0 0)
(0 0 0)
(0 0 0)
(0 0 0)
(0 0 0)
(0 0 0)
(0 0 0)
(0 0 0)
(0 0 0)
(0 0 0)
(0 0 0)
(0 0 0)
(0 0 0)
(0 0 0)
(0 0 0)
(0 0 0)
(0 0 0)
(0 0 0)
(0 0 0)
(0 0 0)
(0 0 0)
(0 0 0)
(0 0 0)
(0 0 0)
(0 0 0)
(0 0 0)
(0 0 0)
(0 0 0)
(0 0 0)
(0 0 0)
(0 0 0)
(0 0 0)
(0 0 0)
(0 0 0)
(0 0 0)
(0 0 0)
(0 0 0)
(0 0 0)
(0 0 0)
(0 0 0)
(0 0 0)
(0 0 0)
(0 0 0)
(0 0 0)
(-0.0018768554943 3.70352959525e-05 0)
(0 0 0)
(0 0 0)
(0 0 0)
(0 0 0)
(-2.44364906527e-05 3.55237610932e-07 0)
(0 0 0)
(-2.4249503491e-06 3.96336354158e-08 0)
(0 0 0)
(0 0 0)
(0 0 0)
(0 0 0)
(0 0 0)
(0 0 0)
(0 0 0)
(0 0 0)
(0 0 0)
(0 0 0)
(0 0 0)
(0 0 0)
(-0.0206478384795 -0.000190375356334 0.000518760219099)
(0 0 0)
(0 0 0)
(0 0 0)
(-0.0291249944264 0.000654881729144 0)
(0 0 0)
(0 0 0)
(-0.128241086137 -0.0160748610036 0.0133987843737)
(-1.13040626756 -0.174873260999 0.141688209274)
(-0.105358427703 -0.00233035640317 0.00326256022151)
(-2.21440791086 -0.240645359389 0.204585622091)
(-0.00588640064808 7.52799271284e-05 0)
(-0.0790690760993 0.00177788508796 0)
(0 0 0)
(0 0 0)
(0 0 0)
(0 0 0)
(0 0 0)
(-0.0158890436384 0.000463045657273 0)
(0 0 0)
(0 0 0)
(0 0 0)
(-0.0291211222133 0.000654794661604 0)
(0 0 0)
(0 0 0)
(0 0 0)
(0 0 0)
(0 0 0)
(0 0 0)
(0 0 0)
(0 0 0)
(-1.46566385129e-05 2.02117434244e-07 0)
(0 0 0)
(-8.88266152686e-06 1.22493350401e-07 0)
(-0.000127530405944 2.22104018116e-06 0)
(-0.000653962275981 1.13892563986e-05 0)
(-7.75775491044e-05 1.35107273e-06 0)
(-0.000391256456679 6.81403234772e-06 0)
(0 0 0)
(0 0 0)
(-0.000197314555732 2.60989424637e-06 0)
(0 0 0)
(0 0 0)
(0 0 0)
(0 0 0)
(0 0 0)
(0 0 0)
(-0.00841656100838 0.000166080888376 0)
(-0.000377878693056 6.45141895461e-06 0)
(-0.00181630497016 3.58404748337e-05 0)
(-2.69289573072e-05 4.35016749965e-07 0)
(-0.00012790895141 2.22763284182e-06 0)
(-3.34094942717e-06 5.46048176156e-08 0)
(-2.64057229201e-05 4.26564297837e-07 0)
(0 0 0)
(0 0 0)
(0 0 0)
(0 0 0)
(0 0 0)
(-0.0001895390064 2.50704647932e-06 0)
(0 0 0)
(0 0 0)
(0 0 0)
(0 0 0)
(0 0 0)
(0 0 0)
(0 0 0)
(0 0 0)
(0 0 0)
(0 0 0)
(0 0 0)
(0 0 0)
(0 0 0)
(0 0 0)
(0 0 0)
(0 0 0)
(0 0 0)
(0 0 0)
(0 0 0)
(0 0 0)
(-0.00507922625807 6.34718100245e-05 0)
(0 0 0)
(0 0 0)
(0 0 0)
(0 0 0)
(0 0 0)
(-0.0045827670448 5.86080339761e-05 0)
(0 0 0)
(0 0 0)
(0 0 0)
(0 0 0)
(0 0 0)
(0 0 0)
(0 0 0)
(0 0 0)
(0 0 0)
(0 0 0)
(0 0 0)
(0 0 0)
(0 0 0)
(0 0 0)
(0 0 0)
(0 0 0)
(0 0 0)
(0 0 0)
(0 0 0)
(0 0 0)
(0 0 0)
(0 0 0)
(-0.0563301792296 -0.00235458791143 0.00257330903875)
(-0.00858492090345 0.000155549301734 0)
(-0.0141573397281 0.000256515387141 0)
(-0.010117989618 0.000192136375181 0)
(-0.0190956445746 0.000474606906949 0)
(0 0 0)
(0 0 0)
(0 0 0)
(0 0 0)
(0 0 0)
(0 0 0)
(0 0 0)
(0 0 0)
(0 0 0)
(0 0 0)
(-0.00519489167656 6.64363658256e-05 0)
(0 0 0)
(-0.00788031706126 0.000149643912732 0)
(0 0 0)
(0 0 0)
(-0.770737003205 -0.10980249531 0.0896890588218)
(-0.563466066818 -0.0798673476315 0.0653667737226)
(-0.494411407667 -0.0481003588966 0.0416198231467)
(-0.0423688169572 0.000952671911434 0)
(-2.44004984982 -0.391155163781 0.315243406396)
(-0.162122678428 -0.0172769083449 0.0147406576878)
(-0.164988189663 -0.00805238074412 0.00820620311313)
(-2.08300614853 -0.31525900357 0.255613698026)
(-10.8861251615 -1.77442610945 1.42733103709)
(-1.28067203532 -0.144942507175 0.122328653632)
(-0.832614900233 -0.0642494303096 0.0582554881131)
(-6.52689971019 -1.07563162755 0.863909295044)
(-0.46087838713 -0.0364340323191 0.0328114080357)
(-3.51062120374 -0.522048543789 0.424410521021)
(-0.137740230578 -0.011079482274 0.00998426184325)
(-0.00892988671573 0.000169574799848 0)
(-0.0200341808469 0.0004504728414 0)
(-0.0200343596451 0.000450476861714 0)
(-0.0245206332015 0.000609440641541 0)
(-0.0245214545792 0.000609461056225 0)
(-0.0480198989961 0.00107973769977 0)
(-0.426801315611 -0.0477402298916 0.0404169199339)
(-0.127413980229 -0.00181640578471 0.00340094580843)
(-0.249864926828 -0.00500676392583 0.00740258757696)
(-0.0423800943194 0.000952925485335 0)
(-0.0565695504493 0.000650527516893 0.000507847500158)
(-0.124261042381 -0.00126311955955 0.00281560866411)
(-0.765910033569 -0.0849579545189 0.0721484635413)
(0 0 0)
(0 0 0)
(0 0 0)
(0 0 0)
(0 0 0)
(0 0 0)
(0 0 0)
(0 0 0)
(0 0 0)
(0 0 0)
(0 0 0)
(0 0 0)
(0 0 0)
(0 0 0)
(0 0 0)
(0 0 0)
(0 0 0)
(0 0 0)
(0 0 0)
(0 0 0)
(0 0 0)
(0 0 0)
(0 0 0)
(-0.00519037316464 6.63785795367e-05 0)
(0 0 0)
(-0.00788079592388 0.000149653006133 0)
(0 0 0)
(0 0 0)
(0 0 0)
(-0.0356803883411 0.000886807391243 0)
(-0.0141524120115 0.000256426102349 0)
(-0.00858126596591 0.000155483078296 0)
(-0.0190982355644 0.000474671303919 0)
(0 0 0)
(-0.0101195190297 0.000192165418066 0)
(0 0 0)
(0 0 0)
(0 0 0)
(0 0 0)
(0 0 0)
(0 0 0)
(0 0 0)
(0 0 0)
(0 0 0)
(0 0 0)
(0 0 0)
(0 0 0)
(0 0 0)
(0 0 0)
(0 0 0)
(0 0 0)
(0 0 0)
(0 0 0)
(0 0 0)
(0 0 0)
(0 0 0)
(0 0 0)
(0 0 0)
(0 0 0)
(0 0 0)
(0 0 0)
(0 0 0)
(0 0 0)
(0 0 0)
(0 0 0)
(0 0 0)
(0 0 0)
(0 0 0)
(0 0 0)
(0 0 0)
(0 0 0)
(-0.0150481309246 0.000284648234759 0)
(0 0 0)
(0 0 0)
(0 0 0)
(0 0 0)
(0 0 0)
(0 0 0)
(0 0 0)
(-0.00335778932178 6.35154497212e-05 0)
(0 0 0)
(0 0 0)
(0 0 0)
(0 0 0)
(0 0 0)
(0 0 0)
(0 0 0)
(0 0 0)
(0 0 0)
(0 0 0)
(0 0 0)
(0 0 0)
(0 0 0)
(0 0 0)
(0 0 0)
(0 0 0)
(0 0 0)
(0 0 0)
(0 0 0)
(0 0 0)
(0 0 0)
(0 0 0)
(0 0 0)
(0 0 0)
(0 0 0)
(0 0 0)
(0 0 0)
(-0.321692316839 0.00837392542288 0)
(-0.0077261364515 0.000146146462538 0)
(0 0 0)
(0 0 0)
(0 0 0)
(0 0 0)
(0 0 0)
(0 0 0)
(-0.0706373128554 0.00185780632531 0)
(0 0 0)
(0 0 0)
(0 0 0)
(0 0 0)
(0 0 0)
(0 0 0)
(0 0 0)
(0 0 0)
(0 0 0)
(0 0 0)
(0 0 0)
(0 0 0)
(0 0 0)
(0 0 0)
(0 0 0)
(0 0 0)
(0 0 0)
(0 0 0)
(0 0 0)
(0 0 0)
(0 0 0)
(0 0 0)
(0 0 0)
(0 0 0)
(0 0 0)
(0 0 0)
(0 0 0)
(-1.50867859963 0.0505751149372 0)
(-0.0430935219436 0.0014565024803 0)
(0 0 0)
(0 0 0)
(0 0 0)
(0 0 0)
(0 0 0)
(0 0 0)
(-0.330919595388 0.0109661118022 0)
(-0.00655087368308 0.00024397259803 0)
(0 0 0)
(0 0 0)
(0 0 0)
(0 0 0)
(0 0 0)
(0 0 0)
(0 0 0)
(0 0 0)
(0 0 0)
(0 0 0)
(0 0 0)
(0 0 0)
(0 0 0)
(0 0 0)
(0 0 0)
(0 0 0)
(0 0 0)
(0 0 0)
(0 0 0)
(0 0 0)
(0 0 0)
(0 0 0)
(0 0 0)
(0 0 0)
(0 0 0)
(0 0 0)
(0 0 0)
(0 0 0)
(0 0 0)
(0 0 0)
(0 0 0)
(0 0 0)
(0 0 0)
(-2.54149284297 0.072190467361 0)
(-0.0767465532779 0.00217996661482 0)
(0 0 0)
(0 0 0)
(0 0 0)
(0 0 0)
(0 0 0)
(0 0 0)
(-2.54623288409 0.0715365102392 0.000518762497211)
(-0.567077837992 0.0161077038906 0)
(-0.015888990657 0.000463044113263 0)
(0 0 0)
(0 0 0)
(0 0 0)
(0 0 0)
(0 0 0)
(0 0 0)
(-0.0465487802613 0.0013222064392 0)
(-0.076746012998 0.0021799512683 0)
(-0.0158890313682 0.000463045299687 0)
(0 0 0)
(0 0 0)
(0 0 0)
(0 0 0)
(0 0 0)
(0 0 0)
(0 0 0)
(0 0 0)
(0 0 0)
(0 0 0)
(0 0 0)
(0 0 0)
(0 0 0)
(0 0 0)
(0 0 0)
(0 0 0)
(0 0 0)
(0 0 0)
(0 0 0)
(0 0 0)
(0 0 0)
(0 0 0)
(0 0 0)
(0 0 0)
(0 0 0)
(0 0 0)
(-0.0569476862782 0.00112345604849 0)
(-0.0019251585679 3.79884426554e-05 0)
(0 0 0)
(0 0 0)
(0 0 0)
(0 0 0)
(0 0 0)
(0 0 0)
(-0.0231754396006 0.000457201854848 0)
(-0.0451382149754 0.000890480438213 0)
(-0.0125199930475 0.000247052396546 0)
(-0.000324240267466 4.28875003855e-06 0)
(0 0 0)
(0 0 0)
(0 0 0)
(0 0 0)
(0 0 0)
(0 0 0)
(-0.000635213976136 1.08448334378e-05 0)
(-0.0013632268578 2.69000518592e-05 0)
(-0.000300896028444 3.97997405959e-06 0)
(0 0 0)
(0 0 0)
(0 0 0)
(0 0 0)
(0 0 0)
(0 0 0)
(0 0 0)
(0 0 0)
(0 0 0)
(0 0 0)
(0 0 0)
(0 0 0)
(0 0 0)
(0 0 0)
(0 0 0)
(0 0 0)
(0 0 0)
(0 0 0)
(0 0 0)
(0 0 0)
(0 0 0)
(0 0 0)
(0 0 0)
(0 0 0)
(0 0 0)
(0 0 0)
(-0.000190964416266 2.97525903358e-06 0)
(-0.000187282616949 2.91789595573e-06 0)
(-2.45137095183e-05 3.56360155315e-07 0)
(0 0 0)
(0 0 0)
(0 0 0)
(0 0 0)
(0 0 0)
(0 0 0)
(0 0 0)
(-2.47582452684e-05 3.59915015008e-07 0)
(-2.45298569143e-05 3.56594892884e-07 0)
(-2.53796824958e-06 4.14808114888e-08 0)
(0 0 0)
(0 0 0)
(0 0 0)
(0 0 0)
(0 0 0)
(0 0 0)
(0 0 0)
(0 0 0)
(0 0 0)
(0 0 0)
(0 0 0)
(0 0 0)
(0 0 0)
(0 0 0)
(0 0 0)
(0 0 0)
(0 0 0)
(0 0 0)
(0 0 0)
(0 0 0)
(0 0 0)
(0 0 0)
(0 0 0)
(0 0 0)
(0 0 0)
(0 0 0)
(0 0 0)
(0 0 0)
(0 0 0)
(0 0 0)
(0 0 0)
(0 0 0)
(0 0 0)
(0 0 0)
(0 0 0)
(0 0 0)
(-0.00335776660785 6.35150200679e-05 0)
(-0.00912742133964 0.000172652961704 0)
(-0.002036602611 3.85240759157e-05 0)
(-0.0866968934176 0.00196628903188 0)
(-0.0177774277275 0.000336275212288 0)
(-0.0525842170592 0.00119261215918 0)
(-0.010782577361 0.000203961649946 0)
(0 0 0)
(0 0 0)
(0 0 0)
(-0.00240588109074 4.550929341e-05 0)
(0 0 0)
(0 0 0)
(0 0 0)
(0 0 0)
(0 0 0)
(0 0 0)
(-0.017777638027 0.000336279190282 0)
(-0.00396673936232 7.50342592642e-05 0)
(-0.0039667478354 7.50344195397e-05 0)
(0 0 0)
(0 0 0)
(0 0 0)
(0 0 0)
(0 0 0)
(0 0 0)
(0 0 0)
(0 0 0)
(-0.0706414821182 0.00185791597957 0)
(-0.195111344925 0.00507891474565 0)
(-0.0428456798519 0.00112686867356 0)
(-0.800656146431 0.0240739465866 0)
(-0.17665544364 0.00533910630328 0)
(-0.485615149791 0.0146013656797 0)
(-0.107146065919 0.00323830516702 0)
(0 0 0)
(-0.00468607362839 8.86410806073e-05 0)
(0 0 0)
(-0.0227686138404 0.000711976764842 0)
(0 0 0)
(-0.0121801506622 0.000372228622134 0)
(0 0 0)
(-0.0149250872544 0.000383942860141 0)
(-0.0149253006809 0.000383948350467 0)
(-0.00284223098855 5.37632239993e-05 0)
(-0.176639874867 0.00533863576394 0)
(-0.0375378080551 0.00117381090152 0)
(-0.0375375302616 0.00117380221489 0)
(-0.00738750830255 0.000225764205446 0)
(0 0 0)
(0 0 0)
(0 0 0)
(-0.00335776415628 6.35149736943e-05 0)
(0 0 0)
(0 0 0)
(0 0 0)
(-0.330938455079 0.0109667367802 0)
(-0.899557245961 0.0298097950957 0)
(-0.200723029837 0.00665161935754 0)
(-2.21163220963 0.0725075158081 0)
(-0.487786880485 0.0158604506843 0)
(-1.32593066318 0.0431127993299 0)
(-0.295857303546 0.0096198367775 0)
(0 0 0)
(-0.0261374480533 0.000883410225047 0)
(0 0 0)
(-0.0660147607841 0.00214647810291 0)
(0 0 0)
(-0.0400399594754 0.00130190422921 0)
(0 0 0)
(-0.0738410439897 0.00244696643918 0)
(-0.0738414027986 0.0024469783295 0)
(-0.0139745752019 0.000518333857942 0)
(-0.487775750052 0.0158600887768 0)
(-0.108838812564 0.00353890743739 0)
(-0.108839410525 0.00353892688015 0)
(-0.0242854657206 0.000789644918334 0)
(0 0 0)
(0 0 0)
(0 0 0)
(-0.0132955796139 0.00045550155178 0)
(0 0 0)
(0 0 0)
(0 0 0)
(-7.09722419529 0.206775450866 0)
(-4.21571338537 0.120447405075 0)
(-4.21067714703 0.0944376809868 0)
(-1.99472448994 0.0447379716989 0)
(-0.567088475293 0.0161080060405 0)
(-1.54148416597 0.0437854714716 0)
(-0.343952089009 0.00976987290128 0)
(-2.54120406981 0.0569944953951 0)
(-0.258905661229 0.0058067739195 0)
(-1.20131724255 0.0269433182726 0)
(-0.122600699425 0.00274970636236 0)
(0 0 0)
(-0.046548751228 0.00132220561451 0)
(0 0 0)
(-0.0925974076451 0.00208207251631 0)
(0 0 0)
(-0.0439137551236 0.000987410176548 0)
(0 0 0)
(0 0 0)
(0 0 0)
(0 0 0)
(0 0 0)
(0 0 0)
(0 0 0)
(0 0 0)
(0 0 0)
(0 0 0)
(0 0 0)
(0 0 0)
(0 0 0)
(0 0 0)
(0 0 0)
(0 0 0)
(0 0 0)
(0 0 0)
(0 0 0)
(0 0 0)
(0 0 0)
(0 0 0)
(0 0 0)
(0 0 0)
(0 0 0)
(0 0 0)
(0 0 0)
(0 0 0)
(0 0 0)
(0 0 0)
(0 0 0)
(0 0 0)
(0 0 0)
(0 0 0)
(0 0 0)
(0 0 0)
(0 0 0)
(0 0 0)
(0 0 0)
(0 0 0)
(0 0 0)
(0 0 0)
(0 0 0)
(-1.34782362184 -0.168697459509 0.141688129852)
(-0.667087383536 -0.000769109372617 0.0133988132019)
(-2.70052849772 -0.228999304355 0.20406182867)
(-2.64185633007 0.0546364298434 0.00320536527837)
(-0.132191573164 0.00296481187698 0)
(-0.277532882925 0.00622454796362 0)
(-1.54147736831 0.0437852783857 0)
(-0.567079620318 0.0161077545172 0)
(-0.343951210803 0.00976984795605 0)
(-2.60165330436 0.0583502596414 0)
(-1.20928194482 0.0271219517764 0)
(-0.276314957491 0.0061972321544 0)
(-0.127530068611 0.00286026297319 0)
(-0.12653202989 0.00359411060282 0)
(-0.126531959536 0.00359410860442 0)
(-0.0282330077642 0.000801951510956 0)
(-0.727612218762 0.0163189929311 0)
(-0.0732013865091 0.0016459488325 0)
(-0.0752815066057 0.00169272077779 0)
(-0.00541467219451 6.924709217e-05 0)
(0 0 0)
(0 0 0)
(0 0 0)
(-0.0266783592777 0.00059986861452 0)
(0 0 0)
(0 0 0)
(0 0 0)
(0 0 0)
(0 0 0)
(0 0 0)
(0 0 0)
(0 0 0)
(0 0 0)
(0 0 0)
(0 0 0)
(0 0 0)
(0 0 0)
(0 0 0)
(0 0 0)
(0 0 0)
(0 0 0)
(0 0 0)
(0 0 0)
(0 0 0)
(0 0 0)
(0 0 0)
(0 0 0)
(0 0 0)
(0 0 0)
(0 0 0)
(0 0 0)
(0 0 0)
(0 0 0)
(0 0 0)
(0 0 0)
(0 0 0)
(0 0 0)
(0 0 0)
(0 0 0)
(0 0 0)
(0 0 0)
(0 0 0)
(0 0 0)
(0 0 0)
(0 0 0)
(0 0 0)
(0 0 0)
(0 0 0)
(0 0 0)
(-0.0767460280493 0.00217995169583 0)
(0 0 0)
(0 0 0)
(-0.0479431395457 0.00107801174711 0)
(-0.100623290206 0.00226253620233 0)
(0 0 0)
(0 0 0)
(-0.0465487284659 0.00132220496796 0)
(0 0 0)
(0 0 0)
(-0.100142797604 0.00225173222339 0)
(-0.0461320147163 0.00103728821795 0)
(0 0 0)
(0 0 0)
(0 0 0)
(0 0 0)
(0 0 0)
(-0.0276455246879 0.000621615535633 0)
(0 0 0)
(0 0 0)
(0 0 0)
(0 0 0)
(0 0 0)
(0 0 0)
(0 0 0)
(0 0 0)
(0 0 0)
(0 0 0)
(0 0 0)
(0 0 0)
(0 0 0)
(0 0 0)
(0 0 0)
(0 0 0)
(0 0 0)
(0 0 0)
(0 0 0)
(0 0 0)
(0 0 0)
(0 0 0)
(0 0 0)
(0 0 0)
(0 0 0)
(0 0 0)
(0 0 0)
(0 0 0)
(0 0 0)
(0 0 0)
(0 0 0)
(0 0 0)
(0 0 0)
(0 0 0)
(0 0 0)
(0 0 0)
(0 0 0)
(0 0 0)
(0 0 0)
(0 0 0)
(0 0 0)
(0 0 0)
(0 0 0)
(0 0 0)
(0 0 0)
(0 0 0)
(0 0 0)
(0 0 0)
(0 0 0)
(0 0 0)
(0 0 0)
(0 0 0)
(0 0 0)
(0 0 0)
(0 0 0)
(0 0 0)
(0 0 0)
(0 0 0)
(0 0 0)
(0 0 0)
(0 0 0)
(0 0 0)
(0 0 0)
(0 0 0)
(0 0 0)
(0 0 0)
(0 0 0)
(0 0 0)
(0 0 0)
(0 0 0)
(0 0 0)
(0 0 0)
(0 0 0)
(0 0 0)
(0 0 0)
(0 0 0)
(0 0 0)
(0 0 0)
(0 0 0)
(0 0 0)
(0 0 0)
(0 0 0)
(0 0 0)
(0 0 0)
(0 0 0)
(0 0 0)
(0 0 0)
(0 0 0)
(0 0 0)
(0 0 0)
(0 0 0)
(0 0 0)
(0 0 0)
(0 0 0)
(0 0 0)
(0 0 0)
(0 0 0)
(0 0 0)
(0 0 0)
(0 0 0)
(0 0 0)
(0 0 0)
(0 0 0)
(0 0 0)
(0 0 0)
(0 0 0)
(0 0 0)
(0 0 0)
(0 0 0)
(0 0 0)
(0 0 0)
(0 0 0)
(0 0 0)
(0 0 0)
(0 0 0)
(0 0 0)
(0 0 0)
(0 0 0)
(0 0 0)
(0 0 0)
(0 0 0)
(0 0 0)
(0 0 0)
(0 0 0)
(0 0 0)
(0 0 0)
(0 0 0)
(0 0 0)
(0 0 0)
(0 0 0)
(0 0 0)
(0 0 0)
(0 0 0)
(0 0 0)
(0 0 0)
(0 0 0)
(0 0 0)
(0 0 0)
(0 0 0)
(0 0 0)
(0 0 0)
(0 0 0)
(0 0 0)
(0 0 0)
(0 0 0)
(0 0 0)
(0 0 0)
(0 0 0)
(0 0 0)
(0 0 0)
(0 0 0)
(0 0 0)
(0 0 0)
(0 0 0)
(0 0 0)
(0 0 0)
(0 0 0)
(0 0 0)
(0 0 0)
(0 0 0)
(0 0 0)
(0 0 0)
(0 0 0)
(0 0 0)
(0 0 0)
(0 0 0)
(0 0 0)
(0 0 0)
(0 0 0)
(0 0 0)
(0 0 0)
(0 0 0)
(0 0 0)
(-0.00206093652941 3.58971289964e-05 0)
(-0.00361394656522 6.29472592614e-05 0)
(-0.0012525953124 2.18149115026e-05 0)
(-0.00225801021717 3.93297332957e-05 0)
(-0.138083956759 0.00272410112788 0)
(-0.083521114654 0.00164769295413 0)
(-0.00330587866101 5.75813718896e-05 0)
(-0.00180724883053 3.1478429089e-05 0)
(-0.00199526381817 3.47532501078e-05 0)
(-0.00114516573045 1.99439426432e-05 0)
(-0.0135608665292 0.000267591568347 0)
(-0.0343084819453 0.000676832968555 0)
(-0.00812884026686 0.0001604034013 0)
(-0.000740772744801 1.29011275321e-05 0)
(-0.000189634783813 3.3026357242e-06 0)
(-0.000462992752228 8.06337515097e-06 0)
(-0.000116062374409 2.0213155849e-06 0)
(0 0 0)
(-0.00107806101664 1.84054391126e-05 0)
(0 0 0)
(-2.55990691215e-05 3.53015336041e-07 0)
(0 0 0)
(-1.49838118142e-05 2.06629207401e-07 0)
(0 0 0)
(0 0 0)
(0 0 0)
(0 0 0)
(0 0 0)
(0 0 0)
(0 0 0)
(0 0 0)
(0 0 0)
(0 0 0)
(0 0 0)
(0 0 0)
(0 0 0)
(0 0 0)
(0 0 0)
(0 0 0)
(0 0 0)
(0 0 0)
(0 0 0)
(0 0 0)
(0 0 0)
(0 0 0)
(0 0 0)
(0 0 0)
(0 0 0)
(0 0 0)
(0 0 0)
(0 0 0)
(0 0 0)
(0 0 0)
(0 0 0)
(0 0 0)
(0 0 0)
(0 0 0)
(0 0 0)
(0 0 0)
(0 0 0)
(0 0 0)
(0 0 0)
(0 0 0)
(0 0 0)
(0 0 0)
(0 0 0)
(-0.0404045993302 0.000797096325963 0)
(-0.00506776899866 0.00010000041306 0)
(-0.00886826587405 0.000174994213581 0)
(-0.000412834053208 7.1898227998e-06 0)
(-0.000810481706059 1.41151627482e-05 0)
(-8.08703873599e-05 1.40842004275e-06 0)
(-0.00016779165405 2.92222080647e-06 0)
(-0.0310377040684 0.000612307516703 0)
(-0.0100151975578 0.000197626192694 0)
(-0.00692337669783 0.000136616434123 0)
(-0.000752914575325 1.31125868564e-05 0)
(-0.00046383856935 8.07810570719e-06 0)
(-0.000167683388935 2.92033528617e-06 0)
(-0.000107396965558 1.87040081988e-06 0)
(-0.00295753111462 5.8359868648e-05 0)
(-0.0027899984757 5.50540089891e-05 0)
(-0.000619515852735 1.05768236962e-05 0)
(-0.000192815515739 3.35803061894e-06 0)
(-4.46029711211e-05 7.20526952253e-07 0)
(-4.30825891317e-05 6.95966341748e-07 0)
(-5.74509271794e-06 9.38983803514e-08 0)
(0 0 0)
(0 0 0)
(0 0 0)
(0 0 0)
(0 0 0)
(0 0 0)
(0 0 0)
(0 0 0)
(0 0 0)
(0 0 0)
(0 0 0)
(0 0 0)
(0 0 0)
(0 0 0)
(0 0 0)
(0 0 0)
(0 0 0)
(0 0 0)
(0 0 0)
(0 0 0)
(0 0 0)
(0 0 0)
(0 0 0)
(0 0 0)
(0 0 0)
(0 0 0)
(0 0 0)
(0 0 0)
(0 0 0)
(0 0 0)
(0 0 0)
(0 0 0)
(0 0 0)
(0 0 0)
(0 0 0)
(0 0 0)
(0 0 0)
(0 0 0)
(0 0 0)
(0 0 0)
(0 0 0)
(0 0 0)
(0 0 0)
(0 0 0)
(0 0 0)
(0 0 0)
(0 0 0)
(0 0 0)
(0 0 0)
(-0.00119088637558 2.34993208051e-05 0)
(0 0 0)
(0 0 0)
(-8.9345310104e-06 1.23208639034e-07 0)
(-1.8339879816e-05 2.52909932211e-07 0)
(0 0 0)
(0 0 0)
(-0.000895048852596 1.5280922791e-05 0)
(0 0 0)
(0 0 0)
(-1.89263166043e-05 2.60996991117e-07 0)
(-1.26935787e-05 1.7504651943e-07 0)
(0 0 0)
(0 0 0)
(0 0 0)
(0 0 0)
(0 0 0)
(0 0 0)
(0 0 0)
(0 0 0)
(0 0 0)
(0 0 0)
(0 0 0)
(0 0 0)
(0 0 0)
(0 0 0)
(0 0 0)
(0 0 0)
(0 0 0)
(0 0 0)
(0 0 0)
(0 0 0)
(0 0 0)
(0 0 0)
(0 0 0)
(0 0 0)
(0 0 0)
(0 0 0)
(0 0 0)
(0 0 0)
(0 0 0)
(0 0 0)
(0 0 0)
(0 0 0)
(0 0 0)
(0 0 0)
(0 0 0)
(0 0 0)
(0 0 0)
(0 0 0)
(0 0 0)
(0 0 0)
(0 0 0)
(0 0 0)
(0 0 0)
(0 0 0)
(0 0 0)
(0 0 0)
(0 0 0)
(0 0 0)
(0 0 0)
(0 0 0)
(0 0 0)
(0 0 0)
(0 0 0)
(0 0 0)
(0 0 0)
(0 0 0)
(0 0 0)
(0 0 0)
(0 0 0)
(0 0 0)
(0 0 0)
(0 0 0)
(0 0 0)
(0 0 0)
(0 0 0)
(0 0 0)
(0 0 0)
(0 0 0)
(0 0 0)
(0 0 0)
(0 0 0)
(0 0 0)
(0 0 0)
(0 0 0)
(0 0 0)
(0 0 0)
(0 0 0)
(0 0 0)
(0 0 0)
(0 0 0)
(0 0 0)
(0 0 0)
(0 0 0)
(0 0 0)
(0 0 0)
(0 0 0)
(0 0 0)
(0 0 0)
(0 0 0)
(0 0 0)
(0 0 0)
(0 0 0)
(0 0 0)
(0 0 0)
(0 0 0)
(0 0 0)
(0 0 0)
(0 0 0)
(0 0 0)
(0 0 0)
(0 0 0)
(0 0 0)
(0 0 0)
(0 0 0)
(0 0 0)
(0 0 0)
(0 0 0)
(0 0 0)
(0 0 0)
(0 0 0)
(0 0 0)
(0 0 0)
(0 0 0)
(0 0 0)
(0 0 0)
(0 0 0)
(0 0 0)
(0 0 0)
(0 0 0)
(0 0 0)
(0 0 0)
(0 0 0)
(0 0 0)
(0 0 0)
(0 0 0)
(0 0 0)
(0 0 0)
(0 0 0)
(0 0 0)
(0 0 0)
(0 0 0)
(0 0 0)
(0 0 0)
(0 0 0)
(0 0 0)
(0 0 0)
(0 0 0)
(0 0 0)
(0 0 0)
(0 0 0)
(0 0 0)
(0 0 0)
(0 0 0)
(0 0 0)
(0 0 0)
(0 0 0)
(0 0 0)
(0 0 0)
(0 0 0)
(0 0 0)
(0 0 0)
(0 0 0)
(0 0 0)
(0 0 0)
(0 0 0)
(0 0 0)
(0 0 0)
(0 0 0)
(0 0 0)
(0 0 0)
(0 0 0)
(0 0 0)
(0 0 0)
(0 0 0)
(0 0 0)
(0 0 0)
(0 0 0)
(0 0 0)
(0 0 0)
(0 0 0)
(0 0 0)
(0 0 0)
(0 0 0)
(0 0 0)
(0 0 0)
(0 0 0)
(0 0 0)
(0 0 0)
(0 0 0)
(0 0 0)
(0 0 0)
(0 0 0)
(0 0 0)
(0 0 0)
(-7.02764769058 0.17392480827 0)
(-5.45996684336 0.134727308434 0)
(-6.13345326069 0.137561984012 0)
(-3.72088208266 0.0834524858689 0)
(-4.81860349229 0.118901359211 0)
(-5.42444016182 0.121660134854 0)
(-7.97178602993 0.197555452072 0)
(-5.46015514219 0.134731954798 0)
(-2.57900302803 0.0636381403728 0)
(-2.89988801344 0.0650391111804 0)
(-2.91332555964 0.0653404904259 0)
(-3.75256957227 0.0925964594083 0)
(-3.75259728199 0.0925971431588 0)
(-4.23153195212 0.094905415596 0)
(-1.56398746383 0.0385921430424 0)
(-3.3113719801 0.0817096965786 0)
(-1.34984984479 0.0302746291323 0)
(-2.24445341779 0.0503389285042 0)
(-2.92237377084 0.0721109786335 0)
(-1.19201556985 0.0267346990012 0)
(-1.77217280488 0.0437292164824 0)
(-0.73862444824 0.0182259135833 0)
(-0.348787341935 0.00860649545 0)
(-0.629871717802 0.0141268547246 0)
(-0.228699881581 0.00512931428943 0)
(-0.307810432415 0.00759537049524 0)
(-0.556330191081 0.0124774546407 0)
(-0.836943159116 0.0206519750713 0)
(-1.2179559304 0.030053648493 0)
(-1.56411406576 0.0385952670058 0)
(-1.74814692083 0.0392076940271 0)
(-0.636892780558 0.0142843241438 0)
(-2.27580647095 0.0561566194711 0)
(-0.837048466653 0.0206545735855 0)
(-0.928265119966 0.0208192654553 0)
(-0.575216041739 0.0141937325435 0)
(-0.164755123913 0.00406541193971 0)
(-0.178382163335 0.0040007811681 0)
(-0.297423357372 0.00667065442462 0)
(-0.239724543588 0.005915318435 0)
(-0.395318973187 0.00975468583568 0)
(-0.433579570836 0.00972438583229 0)
(-0.0356313159676 0.000885587736816 0)
(-0.128266356477 0.00316503404993 0)
(-0.0297338174801 0.000668571245726 0)
(-0.081798932056 0.00183926648303 0)
(-0.113195575497 0.0027931552793 0)
(-0.0262784830676 0.000590877312407 0)
(-0.0403731232745 0.00100344154848 0)
(-0.00891494736084 0.00016929110777 0)
(0 0 0)
(-0.00771099523413 0.000139714732126 0)
(0 0 0)
(0 0 0)
(-0.00529076760616 6.76625027172e-05 0)
(-0.0101009724971 0.000191813227198 0)
(-0.0277533126954 0.000689786293649 0)
(-0.0605941963751 0.00149519094502 0)
(-0.0638188084827 0.00143497955877 0)
(-0.0128064634131 0.00023203899768 0)
(-0.0881642220698 0.00217549459188 0)
(-0.0190750069168 0.000474093974542 0)
(-0.0205062781485 0.000461088050201 0)
(-0.00507134471541 6.33733194762e-05 0)
(0 0 0)
(0 0 0)
(0 0 0)
(0 0 0)
(0 0 0)
(-0.00413235960614 5.2847868947e-05 0)
(0 0 0)
(0 0 0)
(0 0 0)
(0 0 0)
(0 0 0)
(0 0 0)
(0 0 0)
(0 0 0)
(0 0 0)
(0 0 0)
(0 0 0)
(0 0 0)
(0 0 0)
(0 0 0)
(0 0 0)
(0 0 0)
(0 0 0)
(0 0 0)
(0 0 0)
(0 0 0)
(0 0 0)
(0 0 0)
(0 0 0)
(0 0 0)
(0 0 0)
(0 0 0)
(0 0 0)
(0 0 0)
(0 0 0)
(0 0 0)
(0 0 0)
(0 0 0)
(0 0 0)
(0 0 0)
(0 0 0)
(0 0 0)
(0 0 0)
(0 0 0)
(0 0 0)
(0 0 0)
(0 0 0)
(0 0 0)
(0 0 0)
(0 0 0)
(0 0 0)
(0 0 0)
(0 0 0)
(0 0 0)
(0 0 0)
(0 0 0)
(0 0 0)
(0 0 0)
(0 0 0)
(0 0 0)
(0 0 0)
(0 0 0)
(0 0 0)
(0 0 0)
(0 0 0)
(0 0 0)
(0 0 0)
(0 0 0)
(0 0 0)
(0 0 0)
(0 0 0)
(0 0 0)
(0 0 0)
(0 0 0)
(0 0 0)
(0 0 0)
(0 0 0)
(0 0 0)
(0 0 0)
(0 0 0)
(0 0 0)
(0 0 0)
(0 0 0)
(0 0 0)
(0 0 0)
(0 0 0)
(0 0 0)
(0 0 0)
(0 0 0)
(0 0 0)
(0 0 0)
(0 0 0)
(0 0 0)
(0 0 0)
(0 0 0)
(0 0 0)
(0 0 0)
(0 0 0)
(0 0 0)
(0 0 0)
(0 0 0)
(0 0 0)
(0 0 0)
(0 0 0)
(0 0 0)
(0 0 0)
(0 0 0)
(0 0 0)
(0 0 0)
(0 0 0)
(0 0 0)
(0 0 0)
(0 0 0)
(0 0 0)
(0 0 0)
(0 0 0)
(0 0 0)
(0 0 0)
(0 0 0)
(0 0 0)
(0 0 0)
(0 0 0)
(0 0 0)
(0 0 0)
(0 0 0)
(0 0 0)
(0 0 0)
(0 0 0)
(0 0 0)
(0 0 0)
(0 0 0)
(0 0 0)
(0 0 0)
(0 0 0)
(0 0 0)
(0 0 0)
(0 0 0)
(0 0 0)
(0 0 0)
(0 0 0)
(0 0 0)
(0 0 0)
(0 0 0)
(0 0 0)
(0 0 0)
(0 0 0)
(0 0 0)
(0 0 0)
(0 0 0)
(0 0 0)
(0 0 0)
(0 0 0)
(0 0 0)
(0 0 0)
(0 0 0)
(0 0 0)
(0 0 0)
(0 0 0)
(0 0 0)
(0 0 0)
(0 0 0)
(0 0 0)
(0 0 0)
(0 0 0)
(0 0 0)
(0 0 0)
(0 0 0)
(0 0 0)
(0 0 0)
(0 0 0)
(0 0 0)
(0 0 0)
(0 0 0)
(0 0 0)
(-3.0295516337 -0.291935596518 0.255636744323)
(-11.5017657446 -1.75927340251 1.4273579487)
(-2.67970265747 -0.112288531817 0.121429629335)
(-1.09425955792 -0.0582016391789 0.0581293246886)
(-8.29540787254 -1.03207945767 0.863969804853)
(-1.21243635753 -0.019261797802 0.0325895938112)
(-3.84022341908 -0.513946378565 0.424432086178)
(-2.20655743584 -0.074384006899 0.0896967671321)
(-3.77486944128 -0.000631668929555 0.0653718237387)
(-2.61757208043 0.000239312389992 0.0411127593704)
(-1.40312023013 0.0314693851018 0)
(-5.1227048051 -0.325000719098 0.315272290978)
(-1.88262467794 0.0251662853769 0.0147418655301)
(-1.30571215529 0.0176620097058 0.00811138483883)
(-0.873831081113 -0.0367110161621 0.0404179331233)
(-0.192280797912 -0.000215782300843 0.00340094337264)
(-0.373891817642 -0.00220098393245 0.0073857834572)
(-0.191841474198 0.00430264855455 0)
(-0.244528653245 0.00527922224876 0.000507853742992)
(-0.481936407047 0.00678052034356 0.00279655967412)
(-0.921527225979 -0.0811196585 0.0721495980143)
(-0.815931929565 0.00565495793881 0.00998444542288)
(-0.349002377184 0.00861180154821 0)
(-0.663939754675 0.0148909376228 0)
(-0.24569788367 0.00551054795866 0)
(-0.83718916688 0.0206580454313 0)
(-0.307996800873 0.00759996922658 0)
(-0.587986989054 0.0131874579213 0)
(-1.56401945976 0.0385929325574 0)
(-3.33186368501 0.0784642677575 0.0025734006062)
(-2.28427375346 0.0512320247986 0)
(-1.396568751 0.0313224475726 0)
(-2.92199797817 0.0721017057687 0)
(-1.77233316291 0.0437331733941 0)
(-1.22679957975 0.0275148398469 0)
(-1.21796309842 0.0300538253672 0)
(-1.56388178939 0.0385895354748 0)
(-1.76917347254 0.0396792805946 0)
(-0.64729746007 0.014517681813 0)
(-2.27557675158 0.056150951035 0)
(-0.837006923613 0.020653548491 0)
(-0.949198130409 0.0212887540656 0)
(-0.738730041677 0.0182285191521 0)
(-0.348987927967 0.00861144500684 0)
(-0.660970646975 0.0148243460425 0)
(-0.242534177135 0.00543959188722 0)
(-0.837154084769 0.0206571797633 0)
(-0.307963952337 0.00759915867317 0)
(-0.580658268216 0.0130230883018 0)
(-0.575268957103 0.0141950382556 0)
(-0.164806885378 0.00406668917875 0)
(-0.305851848593 0.00685968985463 0)
(-0.187322167185 0.00420128887793 0)
(-0.39533802584 0.00975515596905 0)
(-0.239822454081 0.00591773442351 0)
(-0.448931064405 0.0100686913684 0)
(-0.271656427524 0.00670325303229 0)
(-0.948436670455 0.0234031310988 0)
(-0.385679242312 0.00865007028011 0)
(-0.388895091178 0.00872219580737 0)
(-0.507559578506 0.0125242767664 0)
(-0.507600697507 0.0125252913975 0)
(-0.206172328957 0.00462406305457 0)
(-0.128300902012 0.00316588647763 0)
(-0.0999051856009 0.00246520851512 0)
(-0.180282133421 0.0040433939742 0)
(-0.0391637124536 0.000880604451139 0)
(-0.239708411914 0.00591492037818 0)
(-0.0518633432565 0.00128902173639 0)
(-0.0949136958804 0.0021341547527 0)
(-0.128315224264 0.00316623988608 0)
(-0.0999488341957 0.0024662855652 0)
(-0.18361383072 0.00411811776699 0)
(-0.0398285449415 0.00089555335183 0)
(-0.239757237721 0.00591612517847 0)
(-0.0518803674182 0.00128944485825 0)
(-0.0957518527753 0.00215300088976 0)
(-0.0606034593749 0.001495419514 0)
(-0.00892116324992 0.000169409144894 0)
(-0.0184880423118 0.000415707585737 0)
(-0.0186165963461 0.000418598150696 0)
(-0.0244985449345 0.000608891655409 0)
(-0.0245026122348 0.000608992744891 0)
(-0.0448056122967 0.00100746377584 0)
(0 0 0)
(-0.0356393714081 0.000885787948321 0)
(-0.00778635296457 0.000141080131118 0)
(-0.0129529212272 0.000234692651798 0)
(-0.0101057998822 0.000191904897216 0)
(-0.0190756091524 0.000474108942623 0)
(0 0 0)
(0 0 0)
(0 0 0)
(0 0 0)
(0 0 0)
(0 0 0)
(0 0 0)
(0 0 0)
(0 0 0)
(0 0 0)
(-0.00474880042814 6.07313996364e-05 0)
(0 0 0)
(-0.00787166496914 0.000149479613135 0)
(0 0 0)
(0 0 0)
(0 0 0)
(0 0 0)
(0 0 0)
(0 0 0)
(0 0 0)
(0 0 0)
(0 0 0)
(0 0 0)
(0 0 0)
(0 0 0)
(0 0 0)
(0 0 0)
(0 0 0)
(0 0 0)
(0 0 0)
(0 0 0)
(0 0 0)
(0 0 0)
(0 0 0)
(0 0 0)
(0 0 0)
(0 0 0)
(0 0 0)
(0 0 0)
(0 0 0)
(0 0 0)
(0 0 0)
(0 0 0)
(0 0 0)
(0 0 0)
(0 0 0)
(0 0 0)
(0 0 0)
(0 0 0)
(0 0 0)
(0 0 0)
(0 0 0)
(0 0 0)
(0 0 0)
(0 0 0)
(0 0 0)
(0 0 0)
(0 0 0)
(0 0 0)
(0 0 0)
(0 0 0)
(0 0 0)
(0 0 0)
(0 0 0)
(0 0 0)
(0 0 0)
(0 0 0)
(0 0 0)
(0 0 0)
(0 0 0)
(0 0 0)
(0 0 0)
(0 0 0)
(0 0 0)
(0 0 0)
(0 0 0)
(0 0 0)
(0 0 0)
(0 0 0)
(0 0 0)
(0 0 0)
(0 0 0)
(0 0 0)
(0 0 0)
(0 0 0)
(0 0 0)
(0 0 0)
(0 0 0)
(0 0 0)
(0 0 0)
(0 0 0)
(0 0 0)
(0 0 0)
(0 0 0)
(0 0 0)
(0 0 0)
(0 0 0)
(0 0 0)
(0 0 0)
(0 0 0)
(0 0 0)
(0 0 0)
(0 0 0)
(0 0 0)
(0 0 0)
(0 0 0)
(0 0 0)
(0 0 0)
(0 0 0)
(0 0 0)
(0 0 0)
(0 0 0)
(0 0 0)
(0 0 0)
(0 0 0)
(0 0 0)
(0 0 0)
(0 0 0)
(0 0 0)
(0 0 0)
(0 0 0)
(0 0 0)
(0 0 0)
(0 0 0)
(0 0 0)
(0 0 0)
(0 0 0)
(0 0 0)
(0 0 0)
(0 0 0)
(0 0 0)
(0 0 0)
(0 0 0)
(0 0 0)
(0 0 0)
(0 0 0)
(0 0 0)
(0 0 0)
(0 0 0)
(0 0 0)
(0 0 0)
(0 0 0)
(0 0 0)
(0 0 0)
(0 0 0)
(0 0 0)
(0 0 0)
(0 0 0)
(0 0 0)
(0 0 0)
(0 0 0)
(0 0 0)
(0 0 0)
(0 0 0)
(0 0 0)
(0 0 0)
(0 0 0)
(0 0 0)
(0 0 0)
(0 0 0)
(0 0 0)
(0 0 0)
(0 0 0)
(0 0 0)
(0 0 0)
(0 0 0)
(0 0 0)
(0 0 0)
(0 0 0)
(0 0 0)
(0 0 0)
(0 0 0)
(0 0 0)
(0 0 0)
(0 0 0)
(0 0 0)
(0 0 0)
(0 0 0)
(0 0 0)
(0 0 0)
(0 0 0)
(0 0 0)
(0 0 0)
(0 0 0)
(0 0 0)
(0 0 0)
(0 0 0)
(0 0 0)
(0 0 0)
(0 0 0)
(-0.0277891145921 0.000690676121033 0)
(-0.0606533003729 0.0014966493646 0)
(-0.069592888855 0.00156481099094 0)
(-0.0141393810678 0.000256189996015 0)
(-0.088250024043 0.00217761179685 0)
(-0.0226365291368 0.000508987199307 0)
(-0.0190990127636 0.000474690620579 0)
(-0.0356816177152 0.000886837946347 0)
(-0.128399925338 0.00316832992582 0)
(-0.0890939431885 0.00200329636865 0)
(-0.0327489297006 0.000736366688898 0)
(-0.113314784313 0.00279609681417 0)
(-0.0404321472163 0.00100490854114 0)
(-0.0289942245267 0.000651941339979 0)
(-0.00507961163116 6.3476625783e-05 0)
(0 0 0)
(0 0 0)
(0 0 0)
(0 0 0)
(-0.0045701534976 5.84467220011e-05 0)
(0 0 0)
(-0.00893052259849 0.000169586874994 0)
(0 0 0)
(-0.00853619894472 0.000154666513559 0)
(0 0 0)
(-0.0101194581805 0.000192164262566 0)
(0 0 0)
(-0.00586030692883 7.49462200975e-05 0)
(-0.0356773163192 0.000886731038605 0)
(-0.128393238658 0.00316816492877 0)
(-0.0878734299841 0.0019758528682 0)