/*--------------------------------*- C++ -*----------------------------------*\
| =========                 |                                                 |
| \\      /  F ield         | OpenFOAM: The Open Source CFD Toolbox           |
|  \\    /   O peration     | Version:  v1906                                 |
|   \\  /    A nd           | Web:      www.OpenFOAM.com                      |
|    \\/     M anipulation  |                                                 |
\*---------------------------------------------------------------------------*/
FoamFile
{
    version     2.0;
    format      ascii;
    class       surfaceScalarField;
    location    "11";
    object      alphaPhi0.water;
}
// * * * * * * * * * * * * * * * * * * * * * * * * * * * * * * * * * * * * * //

dimensions      [0 3 -1 0 0 0 0];
oriented        oriented;


internalField   nonuniform List<scalar> 
92311
(
0.203954534194
-0.000206934684065
-0.0010138551127
-0.203621696041
0.000887891036209
-0.000205619377655
0.204159436505
-0.000733129718487
0.000733749436143
0.204035464278
-0.000465485208185
-0.00106861828882
-0.203669519133
0.000961246514113
-0.000375166545494
0.204221348366
-0.000718862176797
0.000702395898654
0.204181445477
-0.000251371856377
-0.000301458250586
-0.00100374482534
-0.203524880078
0.000973708500482
-0.000253628760234
-0.000285599028383
-0.000222985756819
-0.000167942533497
-0.000138110764201
0.204456430815
-0.000651255255359
0.000742316654082
-0.000212158081107
0.051216375647
-0.000100716038403
-0.000125162711726
-0.000102903685707
-0.000122012206157
-0.0002852946666
-0.0510342135832
0.000302598397693
-0.0513364585715
0.0513674765461
-6.25485200196e-05
-8.57010831754e-05
-8.5672704042e-05
-6.14542951457e-05
-0.000205282887495
0.000246869927254
1.91672578457e-05
-0.000325196685046
2.34225070331e-05
2.08364936287e-05
2.62217606848e-05
-1.2327742222e-06
0.000151249755417
5.17263640764e-06
3.06044654638e-05
-0.00115412637421
6.0802855936e-05
2.32202483675e-06
0.000933936181225
1.95242180299e-06
7.86415796633e-07
1.88511715892e-06
1.55033316849e-06
8.8070664379e-05
3.20990761437e-29
1.36548931415e-27
1.81977579329e-27
0
-4.83503028725e-27
2.91189680984e-41
1.93828054125e-41
0
-0.000113074135915
-0.000107326612574
-0.000107055130173
-0.000115890119127
-0.000237238824509
0.000259241739315
0.000138212879948
0.0102870929205
-0.000121152755933
0.000110816587059
-0.0103458204107
0.0101101393818
-1.96650636826e-05
0.000121972963401
-0.0101538562378
-0.000122330132622
0.000111514952087
0.000246508790097
-3.81882845596e-05
0.0513308243736
-3.92556904396e-05
-5.43805147008e-05
-5.15007431897e-05
-0.000194306560893
-1.56886878954e-05
0.0512987082875
-1.53846443851e-06
-4.13505727525e-05
-3.82628658713e-05
-0.0513391626916
0.000245765780033
-1.00467521256e-05
8.61924916192e-05
0.0100789996606
-0.000113509629717
0.000103971917317
6.62850896988e-05
0.0128043463341
-7.19196382018e-05
-1.63554733429e-05
-0.0128187270109
0.0128010743784
6.7515917471e-05
1.92923533452e-06
-0.0128187781349
-0.000195091022952
0.204043025453
-0.00173112440933
0.00151648624447
-0.203633279735
0.204229515748
-8.07986166895e-05
-0.000297422291624
0.000307460274066
-6.46613271629e-05
0.204350157922
-0.000176629724003
0.000120655117162
-0.000399950314058
0.204040042443
-0.00165043679478
0.00147287378135
-0.203657601925
0.204380492572
-0.000178691267825
-0.000439064293942
0.00037693930563
-0.000100592341653
0.204535409773
-0.000234879753245
0.000116513690035
-0.000225834617306
-0.000265115143894
-0.000258429294545
-0.00148847966216
0.20390748996
0.0014043999497
-0.203256347718
-0.000217661758792
-0.000123534851932
-0.000104851884772
-8.12744045314e-05
-6.96969765479e-05
0.204612990387
-0.000310668864471
0.000354878918473
0.0510351634975
-8.07063711155e-05
-6.9279596091e-05
-8.31814019284e-05
-6.9683770252e-05
-0.000381842079629
-0.0509549956715
0.000378780323605
0.05131678632
0.000229279448665
-3.83190852598e-05
-3.64141978616e-05
-3.36527122152e-05
-4.06977265661e-05
-0.000189518771349
-3.61256352749e-05
2.50281269412e-06
-0.00122812619022
5.35255365191e-06
3.83002589983e-06
7.37908965516e-06
3.85164455037e-06
3.49649148222e-05
-4.12405094309e-08
-1.60487502972e-08
-9.07839875325e-09
-2.35868462588e-33
4.63013788931e-10
3.69203380984e-09
4.44960653588e-10
-2.51082592104e-08
0
0
0
0
2.82362981291e-29
0
1.65094610896e-28
0.000294563669571
-9.3969687395e-05
-0.000115967604352
-9.56837694424e-05
-0.000116355693589
0.051168850254
-0.000271287098087
-8.601177693e-05
-0.000112119596494
-8.66530551112e-05
-0.000110939692014
0.051095303895
0.000293075481919
-0.0509563852195
-5.32208984984e-06
7.73622741509e-05
0.0105093688636
1.84712972866e-05
-5.14774648246e-05
-0.0105190635724
-6.99859269354e-06
0.000149130451222
-0.0104612164713
-2.12501931142e-06
-4.50033192279e-05
0.0103991729664
-9.89728042377e-05
0.0127017538551
-7.51448338005e-05
7.97507587284e-05
-0.0126940196283
0.000165576044673
-3.28283734228e-05
-4.30546412238e-05
-4.06214390983e-05
-2.85918400271e-05
0.0513368732248
-0.000145236119866
0.0512534694147
-1.57310692341e-05
3.29794558529e-06
-1.23002096653e-06
-1.16481917799e-05
0.000218712008013
-7.49955710674e-06
-1.46502648328e-05
-1.76067556299e-05
-2.60305429508e-05
0.0512391838583
0.000176256631811
6.590868474e-05
-7.55691680688e-05
-1.38495434966e-05
0.0127907617999
-1.16299074496e-05
4.5739140626e-05
-0.00998730152502
-1.88071579061e-05
0.00995549396171
3.51005078762e-05
6.86251288953e-05
7.50079401428e-07
0.0127826833136
-0.0127641079345
1.09819506511e-05
0.0127537352576
-6.27772865419e-05
5.5472521915e-05
-0.000612224464882
2.38579841396e-05
2.20089115455e-05
2.52328213065e-05
9.18912913958e-05
7.33181935607e-05
3.88061769356e-06
4.73202281327e-07
-1.47849056583e-05
-2.5002064146e-05
-8.62990156529e-06
-5.55625082884e-06
-0.000846320703552
0.000204007428359
0.000683798645865
-1.50645369434e-06
-5.76370200923e-06
9.14440146813e-06
2.16209901081e-06
7.50748785578e-06
-4.53991022244e-06
-1.82992692601e-06
3.12551488088e-06
3.88132911739e-06
1.29619331254e-05
6.76493006787e-06
0.000141087887323
9.3843457027e-05
-5.8804132015e-08
9.85945945877e-06
2.47516907539e-06
7.24473730203e-05
0.0127566950029
-7.021025118e-05
-0.0127214778544
-0.012754296658
-0.000168213021767
-6.86942626684e-05
0.0127925441108
7.51378312023e-05
-0.000125587565337
0.00016590842971
0.0102150003786
0.0001146583727
0.00014494875104
0.0102648022869
-0.0103290910549
-0.000128100545233
-0.0127194176681
7.95658766243e-05
0.0101899513883
-0.000129703939692
0.012799244562
-6.5397101026e-05
0.0128277410643
-0.000152050336559
-6.27866089537e-05
6.9373678268e-05
6.38412736639e-05
-0.012834691826
0.0128490985828
-6.04226170705e-05
-0.000123632566253
0.00015276099565
0.000113379766332
0.000124842745385
-0.0101308869941
0.0100858187168
-0.000129129253448
0.0128429841729
6.97054570177e-05
-0.000130137889223
-5.82751736496e-05
-0.012849963879
-4.6723280416e-05
-6.36081646615e-05
0.0128373377786
6.29216548038e-05
6.22516964043e-05
0.0128510491065
-6.08896563002e-05
-0.000108644398391
4.53459998824e-05
0.010069993369
9.86715097195e-05
9.28350692695e-05
0.0100506491953
-0.000119519310658
6.52846648267e-05
0.0100393778747
-0.000111458758294
0.0128365436206
-6.29321713179e-05
-2.73611813702e-05
-0.0128156099028
0.0128028583079
-6.92476338642e-05
-7.38550442738e-05
-0.0100669714625
0.0100550192575
7.81304200161e-05
-0.0100249580923
-6.78081716596e-05
0.0100150826243
-2.98561023348e-05
-7.02334425134e-05
6.65753305629e-05
-9.23521192548e-05
3.174226407e-05
8.82483138752e-05
-9.16470239591e-05
-6.70400961408e-05
2.59896919434e-05
-0.0128169351028
0.0127986302799
5.89708982802e-05
-7.4892724844e-05
-0.0100314916141
0.0100349683385
-0.0100093139609
0.0100183804459
-7.96803977981e-05
6.58143938569e-05
-1.95376423583e-05
-0.0128382178044
1.20747221931e-05
9.66006116526e-05
-0.010025265629
-9.7151841089e-05
-0.0128344270489
5.7982292763e-05
-0.0100389239792
6.89189368433e-06
-7.21626054353e-05
5.96347524092e-06
1.11658766406e-05
8.49509955222e-06
5.0751572101e-06
-9.73642503527e-05
-8.31148076167e-06
1.77013426872e-05
-1.09039839133e-06
-2.42304716059e-06
3.01259256407e-06
1.12702135476e-06
-7.29946817583e-05
7.42683587474e-06
6.28179471324e-06
4.43648284193e-06
5.36866178425e-06
-0.000243362216168
0.000112633535259
3.16400587757e-05
7.31741068156e-06
4.85785356587e-06
7.01316664587e-06
4.54496023315e-06
-0.000200137916807
-0.000116425050268
-1.13399864199e-06
-6.72341003668e-07
1.13900052338e-06
1.23943970259e-06
-4.27747083408e-07
-1.83486631121e-06
-7.56452655244e-07
-0.000857759067197
-1.07953784053e-05
-3.47494449821e-05
-3.11040743282e-05
-5.07573603309e-06
1.13706686981e-05
1.76549284672e-06
-3.78357386576e-06
-6.58886313521e-07
-3.25193004025e-06
2.19252242412e-06
-1.91085605163e-07
0.000255066197556
-8.96118102046e-06
7.24215880816e-07
6.04797091061e-06
3.16150461111e-06
-0.000840300828209
-0.000282471857948
1.99824510954e-06
-2.32307814503e-06
-4.07526651493e-07
7.68738224464e-07
1.06690938525e-05
5.56629054663e-06
6.16300094148e-06
-0.00116355109767
0.000139026134539
-2.29432294724e-06
2.7462424645e-06
-8.39735658354e-05
-0.0127077268137
-9.39915589377e-05
0.0127145629249
9.07084785116e-05
0.0127232798801
9.73894602246e-05
-9.47966328039e-05
-0.0127174156776
9.77915470358e-05
1.17771358125e-05
0.0104938924216
-5.24239262801e-05
7.21577827634e-05
0.0105144707556
-0.0105229594038
-1.40916196375e-05
0.0127297032369
-7.54405554e-05
-0.0127059946931
9.841526183e-05
0.0104983893535
-2.91214130024e-05
-6.3491062845e-05
0.0127248207385
-0.000114716717448
7.4335298251e-05
-0.0127394196883
4.7572955928e-05
-3.2386885247e-05
0.0127583078112
0.000116495784128
3.86697576126e-06
-4.95110862564e-05
0.000151881831901
-0.0104647160624
-5.12870791143e-05
0.0104027280135
-5.19018172828e-05
6.24783736672e-05
0.0127462350291
-4.0758515653e-05
0.0104307486878
6.72601842209e-05
-9.31575921483e-05
-0.0104680095749
0.000146331921801
8.10622583439e-05
0.0103626459809
-0.000106580761415
-6.73338279114e-05
0.0127272390467
7.55929131152e-05
0.012710211486
-9.60533675562e-05
-0.0127020629767
0.000141610738797
-0.0104480654994
0.0103807434441
0.0127359665302
-0.0104827588241
-3.0230926661e-05
0.0127957831259
-7.34511429109e-05
-6.08940360183e-05
0.0100410014768
6.83505719908e-05
0.0100097721201
-4.99720286424e-05
-7.62438005616e-05
-1.61262634106e-05
0.0127878442297
6.24862312891e-05
4.06659594447e-05
-4.26101373778e-05
0.0100163487123
5.53657392458e-05
0.0127959208775
-7.52773626591e-05
0.00999659474777
-2.75684434354e-05
-7.03513651168e-05
0.0127859398406
-1.56752405167e-05
5.58280834012e-05
-0.0128007952169
5.83914256999e-05
0.0128070883358
-6.05923524601e-05
4.5375914729e-05
-3.42208140066e-05
4.96196641313e-05
1.81495635022e-05
-0.0099806027788
-2.41474575153e-06
0.00996100750133
-6.93483158017e-05
4.33232414782e-05
0.0127913576719
-1.65197828135e-05
-0.0127771316744
2.53791243062e-05
-6.68111663254e-05
5.86083822745e-05
2.92574074778e-05
6.03695840009e-05
-5.60352149902e-05
0.010043444237
0.0100223951173
-6.34883610119e-05
3.03976170978e-05
0.0100285293218
-3.81967482683e-05
-7.65890831863e-06
0.0127752718249
0.0100417497182
0.0100393421015
1.29602211024e-05
-1.56056876195e-05
1.07085583071e-05
-2.75605523217e-06
0.0100322364162
4.10533667019e-06
-4.98840196784e-05
0.0127553419609
4.48817225643e-05
0.012769206912
-1.77030113896e-05
3.37312148394e-05
-0.0100310401636
0.0100092390517
0.0127713254812
-0.000112140965661
-0.000113391057532
-0.000124771367724
-4.56952325503e-05
0.204952732724
-0.000117380028227
7.32004088719e-05
0.000100617355512
-3.00374153382e-05
-4.14346731412e-05
-3.89545168634e-05
-2.83000751708e-05
-8.96873078765e-05
0.0513526670298
1.01125897353e-05
-0.000386684461181
5.6327264957e-07
8.84339417002e-06
7.67349421563e-06
8.20726724672e-06
0.000216872358279
-0.00104262326068
0
0
0
-8.92890246662e-29
-5.1740507619e-29
0
-2.63924823182e-29
-0.000125761783571
-0.000111493859827
-0.000109311999158
-0.000128331945405
0.000271835109172
-0.000247955657621
0.0512611759559
-1.92812648321e-05
0.00015641695812
8.36549439634e-05
0.0103021976598
0.0512529071616
-4.52579008251e-05
-2.70269633017e-05
-3.5748220322e-05
-4.07265061761e-05
0.000122551938337
0.0512692638214
-4.1827643048e-05
-4.6128185535e-05
-4.32317614007e-05
-4.00859098128e-05
-1.38611088779e-05
4.42371716724e-05
3.87978834036e-05
0.00992771030032
-7.03110213941e-06
2.30801818546e-05
-5.89548282676e-06
2.79314164657e-05
-1.63681553132e-05
0.0100163049412
1.50458554405e-05
0.00992638847546
-9.63995045952e-06
4.8279703769e-05
-3.32580924314e-05
-0.00995121697458
3.0945251588e-05
0.0513000566611
-2.86501505619e-05
-3.94960860294e-05
-3.42732030894e-05
-3.54748888461e-05
9.79407471159e-05
5.34592460624e-05
-4.41003311762e-05
-1.42306575441e-05
-1.28265181225e-05
-8.53820533269e-06
-2.02139047674e-05
4.33408744368e-05
0.000119463024984
0.051290971166
-9.78244241908e-05
-7.28075720349e-06
4.01372265955e-05
-3.37304298169e-05
0.00990848958378
3.06358045764e-05
1.68414249565e-06
3.83024364456e-07
-1.46583800085e-05
-0.00989201246071
0.00988478236515
1.1555243292e-05
1.70610238075e-05
2.21731115676e-05
1.96232158768e-05
3.23502221424e-05
-0.000276795890685
5.43415087203e-06
-0.000804037532415
1.9785067942e-07
9.77151665086e-06
7.66552219856e-06
9.80555507137e-06
-0.000458778742963
4.35668675052e-07
-0.000736432258269
7.86936490975e-06
9.01134216964e-06
9.10290410731e-06
0.000415946904563
-0.00051824285589
-1.06198503795e-06
2.05280474135e-06
-1.49425123535e-06
-1.13450717655e-06
1.18216632722e-07
9.11636984763e-07
-2.61298708376e-08
3.75468751696e-07
-0.000690714484311
5.54115494325e-06
5.51538086646e-06
4.41393478006e-06
0.000341831240179
8.16845984973e-07
-0.00041953044794
7.74192675277e-07
1.99087256863e-06
2.77575458935e-06
7.28073336853e-05
-4.23112580618e-08
-0.000597002815723
-0.000170595948503
-0.01276953265
-0.000169682027249
5.54378705582e-05
-4.71689240014e-05
0.0128068032068
-5.93463855569e-05
0.0127617078916
0.00014918571174
0.0103188296183
5.57034356449e-05
8.88970666491e-05
0.000175326346425
0.0102302883581
-5.22824089539e-05
5.95557414141e-05
0.010248805212
0.0128004313505
-2.4277720901e-05
-0.0127961758664
-1.92142887088e-05
1.28139601122e-05
0.0127982341293
0.0128129820986
4.0862145507e-05
-4.76596908096e-05
2.17090158595e-05
1.71012814625e-06
1.58181827901e-05
0.0099111822193
1.86414011779e-05
0.00994277824682
1.07753282223e-05
-3.5289468522e-05
0.0128089894857
2.7401046553e-05
2.1975770911e-05
0.00992385419807
-0.0127746022003
-5.08849932547e-05
1.57014237101e-05
0.0127784400533
-3.28862023594e-05
0.0127552780087
3.43276504991e-05
4.35220507638e-05
0.00998384977701
-2.62103669189e-05
4.7661398378e-05
0.00998366282289
2.56781721518e-05
0.00995242479913
0.0127596099785
1.88323847874e-05
0.0127819510968
-4.52754502921e-05
2.43546851428e-06
-1.04344576083e-06
1.1762560455e-05
-0.0127642231893
0.0127661889881
-1.04965667745e-05
3.78051048257e-05
-0.00993025179979
0.00991574013849
-3.7408379577e-05
-3.08155035138e-05
4.90317725906e-05
3.15052726685e-05
0.0127818765767
7.91165194746e-06
-3.11209395149e-05
7.60113305766e-06
-0.0127800685474
-1.73707510971e-05
-2.28848209823e-05
0.012774485622
1.82898733547e-05
1.96009555485e-05
0.0127675185157
-1.89986571945e-05
2.71841069983e-05
0.0099065339974
-3.86681669302e-05
-2.91098676503e-05
2.71504102536e-05
0.00989992028558
2.33469357839e-05
1.5772206158e-05
0.00990408452359
-3.42285408693e-05
0.0127662422086
-2.8681822302e-05
0.0127739835989
-8.20555011555e-06
-2.34856831984e-05
1.86776387487e-05
2.01594391651e-05
-0.0127685338797
0.0127669701438
-3.04151910142e-05
1.05673621739e-06
-0.00990317248102
-1.6694130409e-05
0.00990534128012
-2.6710230024e-05
1.38960245212e-05
2.06589687516e-05
1.58245231068e-05
0.0127711389344
-2.82449453459e-05
-3.10935557068e-05
-0.000766025057083
-0.0501385658812
0.0502341479933
0.000931276104249
-0.000131295772178
-0.000178076929856
-0.000150807719404
-0.000164050207631
0.000363430598141
-0.000946910602815
0.0506136150337
-7.50843394916e-05
-0.000107004699612
-8.75093070258e-05
-9.39689542186e-05
0.000262870041159
-0.0504813368463
0.000915280764656
-0.00117136610514
-0.050727841655
0.0508392596843
0.00105347531467
5.36703368812e-05
1.83027322398e-05
5.26998535873e-05
2.44968393028e-05
-0.000142990921998
-0.000906698537962
7.50924559616e-05
4.84244965553e-05
6.60770549496e-05
5.63269652119e-05
-9.85780370722e-05
0.0507795830389
0.000778640393697
-0.0507989532941
2.68979681557e-05
0.000133291496875
0.000934982172098
-0.00118782091168
2.70319886545e-06
2.26948387089e-06
2.17029272193e-05
1.97228384084e-05
1.51782064819e-05
-0.000106882543386
0.00137998114662
-0.00120681729858
0.000174971793499
-9.47814768857e-06
-0.000166631122395
-0.000136804526624
-0.000191794426875
1.42682092732e-05
8.52592174062e-06
-0.000139209565653
-0.00143589821891
6.25803751107e-07
5.68308719351e-06
7.16768693435e-06
4.28663028284e-06
0.00140982704937
9.24468169022e-05
-9.05963570211e-05
-0.000252034624302
0.00133071111685
-0.00096214313442
0.000175000482164
-6.06137195216e-06
-0.000111200746358
-9.13947103017e-05
-0.000107508115302
-9.88162735612e-05
-8.77068747179e-05
-0.000103749974527
-0.000109825541125
-0.000113099886377
-0.000775497343883
-1.14962941347e-05
-4.67392204398e-06
0.00114139849042
1.12955343671e-06
-2.04375152651e-07
-1.39381591735e-07
6.40723868719e-08
-2.14852859506e-07
8.76802895945e-08
1.49039892501e-07
-6.78547830959e-07
-1.25280358353e-07
3.12123062617e-07
8.6253099683e-07
4.12682929499e-07
2.73761231342e-06
3.86581279829e-07
2.01023135365e-06
5.35317415858e-07
-1.22638405651e-07
7.94112209098e-08
1.49654330815e-07
2.82550385045e-07
4.78523771907e-07
-6.22110272929e-07
-1.57359996926e-08
4.72386244115e-08
2.62574394218e-07
4.84802283171e-08
1.00451577129e-06
1.57243820254e-07
2.04758375352e-07
8.16582622456e-08
1.87904968396e-07
2.37894929462e-07
-2.21578507613e-07
-3.58005494767e-08
1.03335457163e-07
1.32650021257e-08
6.52665986299e-07
1.25760484023e-08
5.1225627505e-07
4.63376448218e-08
-6.40679540997e-09
0.000292442124329
-0.000254028233322
-0.000252705292531
-0.00026522925105
-0.000244134504331
0.049895694479
0.000650187070397
4.28094297001e-05
-0.049865112986
0.0499424508413
0.000604899292675
-0.000249725937788
-0.000253822672713
-0.000255694445178
-0.000247357574067
0.000665000557854
-0.049913173098
-3.65877840451e-05
0.000318691261844
-0.0110289952947
1.06448758835e-05
0.010905262431
5.87213419375e-06
0.0107483755475
8.18622268379e-05
-3.94118422623e-05
0.000316915972208
-6.69184332935e-05
-0.0108708194732
-0.000170880054861
-0.00019848545992
-0.000202065515469
-0.000162045252412
-0.000426148208592
0.0125137550362
0.0124366032499
0.0125028578703
0.0124975921843
0.000385094665431
9.48537120506e-05
-3.10383106532e-05
0.000270351449391
-7.78055569258e-05
0.0106279131949
0.000812952369828
-0.000209884961371
-0.000227449388138
-0.000221487784302
-0.000213021244579
0.000567973144304
-0.0500423500924
0.0503109108983
-0.00017552890974
-0.000162533945179
-0.000181206658871
-0.000158472531157
0.000486406248818
-0.0501809335429
0.000874477962354
0.0107443846635
-3.42693661915e-05
0.000292015441251
-0.010857769574
8.51494178167e-05
0.0108184461331
-1.75525612729e-05
0.000183426889905
-4.98658117781e-05
-0.0108940636529
2.44740062403e-05
0.00115733471762
-7.32442563839e-05
-1.11334801796e-05
-8.59669570914e-05
4.55462683039e-06
0.0502145527014
-0.000248075581787
-0.000202989430387
-0.000257070584662
-0.0001940436132
-2.79583395612e-05
-2.30758905383e-06
-2.37603313772e-05
-1.61273769594e-05
0.0504241578608
-0.000113546166424
-0.000128207199653
-0.000142044226851
-9.9850872953e-05
0.000354743814151
0.0506199026704
0.00106350334117
-6.78130130343e-05
-4.90329243749e-06
-1.20659288972e-05
-5.54880255989e-05
3.76270467369e-05
0.000245235635233
0.0106335541916
0.000101924143555
0.0104313447343
3.09697341424e-05
2.20305023445e-06
-0.0104916838425
0.000126414738336
-0.00013421929237
3.62675296246e-05
-8.95494544311e-06
0.000148611446075
-6.95674113422e-05
0.0107423967495
0.010558304088
5.40941755346e-05
5.1301226831e-05
-2.58769722601e-07
-8.21742997089e-05
-0.0106213703404
0.0506796760605
8.67500065667e-05
4.01114729786e-05
3.85314355477e-05
8.21887994856e-05
-0.00122995304161
-0.00024965042388
0.00126022182162
0.000123698225396
0.000152660028059
0.000117206752911
0.000163960756824
0.0510328612927
-0.000557368410519
-0.00161387189372
-4.37080470307e-05
0.0103542731444
0.000122150666393
-0.000133366791834
0.00024261450899
-0.000267886852554
-0.0102268251583
0.000130406209251
0.0101879311721
-0.000137784513187
4.95411177757e-05
0.000114795823094
-4.25324253414e-05
-7.58223373263e-05
0.0104715533312
7.31313787655e-05
0.000201233514659
-0.000171895059297
-9.19412426552e-05
-0.0103397908146
0.0102676710814
0.000962214294931
-4.85423979742e-05
-2.3849379278e-05
-5.98288730514e-05
-1.09891830214e-05
0.000130219951221
0.0507688002399
-3.54919303228e-05
1.81990648944e-05
8.27942680964e-06
-2.33470989607e-05
0.000101354754138
-0.050720628448
0.000844744505865
0.000128997880182
0.0107753799519
1.4533716379e-05
-0.010848704008
0.0105886059237
4.05930935412e-05
1.17970770934e-05
-0.0106555952264
3.19857996104e-05
0.0106389289803
6.60848397857e-05
-4.48972329458e-05
-1.04184769114e-05
-0.0106876590302
8.1081246496e-06
0.00105334388205
7.68925305409e-05
0.000108991973832
7.76113720952e-05
0.000105938406142
0.0509653843514
-0.000288764232932
0.0508328062884
5.298176719e-05
4.21058030132e-05
3.09272555168e-05
6.21532072891e-05
-0.000105475543528
6.664799655e-05
8.91387926062e-05
7.28976709803e-05
8.64661839234e-05
0.0508951391646
0.00090091546686
-0.00022523354035
-1.60770891292e-05
0.0104998930792
2.70386701534e-05
0.000178898052696
-0.000139734352067
-0.0103675530195
5.02135382555e-05
0.0102976260605
5.36645419323e-06
9.91349668757e-05
-6.41311486076e-05
-6.57198875613e-06
0.010565542503
2.1068382226e-05
0.000137851354734
-0.000111839811774
-2.71434807833e-05
-0.0104701483539
0.0104129545967
-7.62973874889e-05
0.010580772252
1.24989519171e-05
-0.0106489139318
-0.000103324899393
-0.0104935139918
0.0104408131346
0.000119546422191
2.51502278315e-05
-8.85662666525e-05
3.20754525928e-05
4.25311907561e-05
3.82057301735e-05
-0.000736187090229
-6.08434698893e-05
0.000665888164314
4.55388114721e-06
-0.000799188443144
-0.000192572394755
3.99497575741e-05
3.70615880399e-05
3.59210301227e-05
0.000664228448914
5.18682937974e-06
3.86161767226e-06
3.2866459121e-05
2.8972523982e-05
3.15899931182e-05
0.000135711999367
-0.000987353375396
-3.23296702668e-06
-2.45919025457e-06
-3.39361004545e-06
1.19372567588e-06
3.68170064866e-06
-2.04368140295e-06
-3.35571888965e-06
8.99562214318e-07
1.31203965352e-06
-4.34656045542e-06
-3.70469774942e-06
4.89945552614e-06
-3.69929729018e-06
-1.96491578365e-06
1.73995402897e-06
-5.40359181055e-06
-3.40429970617e-06
1.32149550659e-05
7.07987563138e-06
-4.31908837175e-06
-3.23918025209e-06
2.46877449004e-05
6.71264153906e-06
-4.07403882482e-06
-1.36425801003e-06
1.46146184237e-05
-2.59607225726e-06
-2.26505621752e-06
2.28602756938e-05
-0.000191031211817
3.11503309167e-05
2.83117507581e-05
2.66309390461e-05
4.66810565291e-06
0.000732974270888
-0.00114464352664
2.26544292776e-05
1.76896237182e-05
2.26268850005e-05
0.000933764477709
2.90764429322e-06
-0.000110646079518
0.000162522204891
-3.05623871161e-06
5.79365834318e-06
-4.85206319225e-05
6.40091544739e-07
3.46533497126e-05
-0.00133674966345
4.67285780938e-07
1.43990510177e-05
5.14095262584e-06
8.67714007915e-06
-3.96379113879e-06
-0.00137977349653
0.000250846695823
-4.571708447e-05
-2.21727317831e-05
-1.297272215e-05
-4.29321810493e-06
-3.73245055408e-06
6.02661329304e-06
-2.04578115246e-06
-1.52118594305e-06
-3.66392830551e-06
-3.36386748223e-06
6.09169372253e-06
-8.84683468739e-07
-1.98834936477e-06
7.98312682327e-05
-1.27909434686e-05
-0.000210307992181
-0.00024350163166
-0.00020679192965
-0.000626723897508
9.45452630486e-05
-0.00109753506244
-8.11994491099e-06
-0.00011137061785
-0.000142085077057
-0.000149822897079
-9.19077759058e-06
0.000183589831802
-0.000220556568796
-0.000171691923396
-0.000187425684056
-0.000579409203461
4.5023581161e-07
-1.03246413226e-06
-6.09773927708e-07
8.37594327817e-07
8.92314623944e-07
-6.277981429e-07
4.92690598347e-07
1.7289008722e-06
0.000181375325176
-2.96893155849e-06
-1.40457673252e-05
-4.49177574229e-05
-1.98078445452e-05
-3.06305972951e-06
-0.00118831605924
-5.18701057251e-05
-4.06309816255e-05
-2.94890832689e-05
0.00135382372841
7.42566532999e-05
-2.37500107487e-06
4.74033536825e-06
-2.49989479031e-06
-1.66849646877e-06
-7.48691457071e-08
9.43206681036e-07
1.56971078416e-06
-1.41531865134e-06
0.000163243745692
-6.18880200686e-06
-0.000155326847188
-0.000166312533908
-0.000136063869398
-0.000442210105957
-0.000839825741242
-5.12273499984e-06
-8.68258418144e-05
-0.000106018971028
-9.46610100474e-05
-4.68382751875e-06
-0.000136855062555
-0.00011619843312
-0.00011983326959
-0.000396699171765
9.4128634142e-05
1.51353252675e-06
-8.09979002069e-07
6.85422942049e-08
3.03819769074e-06
2.20920107514e-06
-7.84033044271e-07
3.91891048238e-06
-5.02569297383e-07
0.0125654885994
-0.000344239782245
-1.68001929002e-05
6.83334953698e-05
-0.0125237830645
3.66813798448e-05
-0.012555095409
0.0125693451848
1.82256958866e-05
-6.90371576129e-06
0.00032432957154
2.08765885316e-05
-0.0111470652882
0.000337389713949
-0.0109791939437
3.96645766101e-05
0.0108461452047
9.49005736119e-05
0.0125827778529
2.26416139874e-05
-0.01110024225
2.67945876624e-05
-0.012515693531
0.0125762942333
0.000117625394564
-0.000336344318458
-0.0125353232405
-0.000150298427261
-0.0125881809137
0.0126133843661
0.000192010722203
0.00032845478838
-0.0109310258114
0.0108037773519
0.000325501197211
-4.70740708822e-05
6.63929961309e-05
-0.0109807267063
0.0125976654175
0.000159298615531
-0.0125479048381
-0.0110446674541
-0.0126261510047
0.000194308299854
-0.000223300028854
-0.000130112667202
0.01261698825
-0.000156472031702
0.0126471842236
0.00019781870602
0.000285342509956
0.0106803945291
-4.90516448924e-05
0.000197526828004
-9.49323088321e-05
0.000114025038962
0.0105470225108
-9.81692551205e-05
0.000235835256144
0.0126436144305
-6.50683565563e-05
0.0105808788315
-0.000195488999298
0.0126227669039
-0.000261633812523
0.000208234283577
-0.0125808462297
-0.012606735554
0.000225635260493
0.0126407907137
0.000297132662348
7.01042092846e-05
-0.0109621966941
0.000254720355392
-0.0108382108681
7.09867033736e-05
0.0107406472625
-0.0125643220307
0.00023542016878
0.0126577335633
5.82554190298e-05
-0.0109340624887
0.01263831274
0.000221663321902
-0.00022720804388
-0.01259828255
-0.000243523646941
-0.0126525427168
0.0126808154352
0.000237709915839
0.000219606797785
-0.0108734668028
0.0107867049253
0.000189556845454
-4.30280891368e-05
-0.0109650013018
2.09349522002e-05
0.0126709961483
-0.0126164847792
0.000218054965371
-0.0109573333981
-0.000256526141692
-0.0126945098543
-0.000131287024185
0.0126957099413
0.00025683124103
0.0126779485493
0.000231091918586
0.000173828676706
0.000113144728722
0.0105625458763
0.000206908967332
0.0106421502897
9.2034522507e-05
0.0126826080477
0.000240011671187
0.0105799620066
0.000103776649395
-0.000259247783642
0.0126960728055
-7.23324067345e-05
0.000258469171553
-0.0126806070964
0.000272224676693
0.0126668727045
-0.000269240916839
9.67266590107e-05
0.000122037514587
-0.000130143572539
-1.28952802443e-05
-0.0105157241497
0.000109198199582
0.0104500231567
-0.000246058158891
0.000267192243562
0.0126916140744
0.000105251050609
-0.0127029568098
0.000257571266725
-0.000114122024666
0.0127038497879
-0.000245801013042
0.0127085721548
0.000239884933641
0.000177833939509
0.0107008068551
9.34868388974e-05
-7.50722880349e-05
0.0106856661693
4.42712811282e-05
0.0127103824108
0.000250045658176
0.0106443142612
0.0127063177647
0.000255928477664
-6.7750104159e-05
-0.000262491430719
-0.0127147172214
0.0127120495086
0.000258809423243
5.8155279841e-06
-0.0105754623444
0.0105074978543
5.6721806069e-05
-7.53018719343e-05
4.56884542848e-05
0.0127033127059
0.000252685188656
-0.00030837987322
-0.0127014085698
0.000179795145527
0.0126647360709
0.000294471175752
-0.000132237518614
0.0126795867509
0.000299851813576
-5.84074283836e-05
-0.000300536989312
-0.000165233381039
0.000127875791568
0.0103012956134
-0.000129753342601
-7.54538722635e-05
0.010368522912
0.000100235189717
0.0126449314556
-0.000126419244621
-0.000314012296143
0.000279310675077
-6.77003332177e-05
0.0103222447651
0.000107365278582
-0.000322517008899
0.000200135368613
0.0126789601789
0.000311197545484
-0.000204731312217
-0.0126585053858
0.000334590301925
0.0126723551619
-0.000355076358898
-0.000262720426849
-0.000207193598018
0.00011966309685
-0.000130867477136
-0.0102560677828
-0.000263497268152
0.000120435235267
0.0102158730946
-0.000339717971102
-0.000205143338547
0.000105569158704
0.000324514619994
0.0126823817548
-0.000258406090122
-0.012711766
0.000280125893912
0.000121990535234
0.0126889521623
-0.000267885281669
0.0127194153331
0.00025554633131
-3.89206700526e-05
0.0104259612076
-0.000110804001669
-8.47599637801e-05
0.0104202622243
6.10918460871e-05
0.0127005135373
0.000268529088217
0.010375642136
0.000281148262129
0.000147199893756
0.0126942314218
-0.0127014500129
-0.000289810915206
0.00027409706103
0.0126970235665
-0.0102931128838
-0.000196590008583
0.0102326510967
-0.000129959989558
-7.9834685012e-05
5.88991986459e-05
0.000266343505366
0.0126951353217
-0.000248144531299
-0.0127191193607
-7.18902765949e-05
0.0127224233224
0.000241882273948
0.012712793365
0.000238874070536
-0.0126890447626
8.96647490536e-05
2.28534660945e-05
0.0107207493246
0.000105460092102
0.0107980423396
-0.0108601670431
1.81737638859e-06
0.0127173708983
-0.0126995159566
0.000231351206424
0.0107483000552
8.23217180134e-06
-0.00024823695692
0.0127232949556
-4.57781321282e-05
0.000244299677952
-0.0127203207819
0.000251941536858
0.0127141386332
5.84096953015e-05
2.44584034421e-05
1.65315799976e-06
-0.0106797511328
1.63034714186e-05
0.0106138363568
0.000247174976443
0.0127175213781
1.11280914221e-05
0.0127270955445
0.000232315469005