/*--------------------------------*- C++ -*----------------------------------*\
| =========                 |                                                 |
| \\      /  F ield         | OpenFOAM: The Open Source CFD Toolbox           |
|  \\    /   O peration     | Version:  v1906                                 |
|   \\  /    A nd           | Web:      www.OpenFOAM.com                      |
|    \\/     M anipulation  |                                                 |
\*---------------------------------------------------------------------------*/
FoamFile
{
    version     2.0;
    format      ascii;
    class       volScalarField;
    location    "11";
    object      alpha.water;
}
// * * * * * * * * * * * * * * * * * * * * * * * * * * * * * * * * * * * * * //

dimensions      [0 0 0 0 0 0 0];


internalField   nonuniform List<scalar> 
28582
(
0.999999481792
0.999999302515
0.999999217668
0.999998757276
1.00000026976
0.999999996593
0.999989620382
0.99998492186
0.0555509020872
0.0585848926152
3.58732406867e-44
0.999984627351
0.876264349742
0.862411543015
0.999985551351
0.999986257584
0.859646397174
0.998191254467
0.998116542232
0.999999509924
0.999994439628
0.999990263875
0.999999565543
0.999995519948
0.999990983157
1.00000088035
1.00000043578
0.999994743812
0.999987790044
0.0598494768905
3.53977458024e-08
-9.95904084259e-28
0.999993356503
0.999995960842
0.882479743644
0.881699358202
0.998834888851
0.999989689306
0.999988160043
0.999989674345
0.998278844276
0.855986061631
0.998191721399
0.998189859946
0.0564607330047
0.0598969453331
0.000463162390279
0.000442297843715
0.0576448277531
0.000482465866529
0.998339737861
0.998126895837
0.872212870884
0.874978462884
0.998362795982
0.870278057536
0.998118885127
0.997992311317
0.997956703372
0.867261338945
0.86021228953
0.997915279854
0.865266394617
0.997999225719
0.997986761339
0.99797546911
0.85851560069
0.85726964351
0.997927380342
0.855074414185
0.998036427316
0.998206501803
0.86011282865
0.855774119104
0.99808217957
0.858994426081
0.85523362446
0.998117836526
0.997982859506
0.853472557383
0.850612716972
0.998023436715
0.850041184905
0.997929073912
0.852696261247
0.0539662727623
0.000163452879001
0.0530638988964
0.0532001582741
0.000137818455542
0.000125091869911
0.0610492000114
0.000423047794799
0.000401301816094
0.0616485225007
0.000389236660261
0.0607772343323
0.000367352878088
0.9988870385
0.998947903089
0.881980405719
0.883033518265
0.998833893305
0.998993729931
0.882723083965
0.998747173967
0.998546656816
0.882126742071
0.882502079569
0.998703810529
0.998590118258
0.882883886304
0.882062439363
0.880985509388
0.998594942
0.998803972777
0.881673853337
0.99859129773
0.882241658791
0.998278162997
0.859959150831
0.855967560103
0.998319764378
0.859464705054
0.998277107734
0.856066897584
0.99834253349
0.998253542173
0.858118712271
0.854728752438
0.998261529959
0.998358595452
0.855491547393
0.99811411327
0.998044691943
0.854559575342
0.851650451798
0.85299560111
0.998250376905
0.856317217566
0.85415481943
0.855154758171
0.998228334701
0.998295408759
0.85560933461
0.998298444224
0.856231290932
1.00000053776
0.999991409181
0.0620346556058
-3.06046517737e-27
0.999993206742
0.877920651152
0.999992370853
0.999992758805
0.8538552561
0.854392057654
0.848328664073
0.999993970765
0.999996171519
0.846514496227
0.84309488697
0.0546770033781
0.0626525406862
0.0637092258402
0.000346915714486
0.000364124456779
0.000359434453162
0.0645322756315
0.0651074914527
0.998203467478
0.998352716484
0.8789306124
0.873757480043
0.998383911232
0.875188253119
0.99813417465
0.998424303442
0.998272831065
0.852003996095
0.853418791459
0.998353992561
0.998379239548
0.852048137032
0.998240323399
0.998207765405
0.854058012336
0.852844544118
0.998282488526
0.852063488803
0.998139635169
0.998225559454
0.998010038752
0.848223114531
0.850736099467
0.998235227932
0.850080684888
0.998068535004
0.998307219939
0.997979355419
0.84677161574
0.845064914569
0.998268312272
0.8456027665
0.997992627987
0.998344730468
0.99807761145
0.844199730133
0.844056797733
0.998380471866
0.844693230205
0.99802602917
0.999992951856
0.999999633045
0.999993917597
0.999999221457
0.0412129199083
0.0477621466948
0.0410859412581
0.0471529779033
0.048302042408
1.02594195072e-05
2.26690220018e-05
1.06261483495e-05
1.35389456621e-06
3.89405777449e-06
3.72781830043e-07
0.999996700809
0.999997989535
0.903417759677
0.890000984571
1.00000039982
0.882142850672
0.999987987186
0.999990566087
0.888012990666
0.887939998368
0.999999885981
1.00000004707
0.999995549659
0.880583525934
0.865893219997
0.884082558484
0.875802917209
0.999985793013
0.999981451126
0.865453761602
0.866120747502
0.873605071879
0.872972666222
0.999998947339
0.99999827253
0.885780569478
0.878168546891
0.880944402275
0.999991490278
0.999997639362
0.999995832368
0.875883203616
0.874395421505
0.879623072066
0.879501238511
0.879996966533
0.880278030357
0.0383490844924
0.0394303351454
0.0407755401919
0.000358165697562
0.000499566553658
0.00042890217709
0.000526847933896
0.000765430144614
0.000634704184215
0.000617591284708
0.00050666030474
0.0403449215097
0.040259001916
0.0427501630094
0.0409565302075
0.0428649927601
0.000452346824167
0.000454837568059
0.000424748242343
0.000416604313035
0.0530018990036
0.0474915203206
0.0521469223502
0.000328118692181
0.000299420501351
0.000292469510095
0.000257408853088
0.0431042009691
0.0439492202918
0.000364835947994
0.000353130709787
0.000346523307363
0.051449877064
0.047586169682
0.051347053866
0.00026517947483
0.000214373533004
0.000266353131594
0.000218001341682
0.999576829082
0.99946861348
0.912100289504
0.899016363068
0.999402684918
0.90810529934
0.999580059334
0.999461401202
0.999207910911
0.894695372713
0.898082674502
0.999313800245
0.999354778566
0.903207772734
0.999028744782
0.999029679482
0.886354420445
0.874302720264
0.999173302825
0.998854731192
0.877957650064
0.999171020632
0.999084433772
0.895572723168
0.886099821522
0.999257798123
0.999020429488
0.892886279638
0.99914982854
0.999024283599
0.887146768795
0.893486003668
0.998995551816
0.999165108388
0.893385100518
0.998798568349
0.998923106361
0.873554340596
0.880160771457
0.99880931924
0.998881628615
0.873784412152
0.99873502767
0.998615465943
0.870441579242
0.868479052936
0.998721039086
0.998707825141
0.871727835534
0.99883094687
0.998927838178
0.882102625478
0.879710789053
0.998900073027
0.998846460748
0.87732266304
0.998748772313
0.998699410764
0.872384114784
0.878116700786
0.998694227522
0.998759556834
0.875376196187
0.998388257287
0.998423777161
0.866020350026
0.866572884404
0.998349687418
0.998571459735
0.867455869655
0.998291551783
0.998322082252
0.865398132107
0.868378795613
0.998326063991
0.867486420924
0.998301965637
0.998426671156
0.998555336425
0.870280255633
0.87343750014
0.998553502604
0.998409929586
0.870352484193
0.998341574034
0.99835831572
0.870014904943
0.872833429251
0.998367486987
0.86972411454
0.998340776872
0.998915855609
0.998974755931
0.881931999645
0.886476963391
0.998862961958
0.999006157746
0.883413580971
0.998823802536
0.998706487886
0.880413536299
0.879908348591
0.998781041848
0.998745297852
0.881948824569
0.998893883841
0.998882518299
0.880724881535
0.881852290873
0.998832810583
0.998925859262
0.882101874534
0.998485709653
0.998588443783
0.875279357776
0.87789312533
0.998471362948
0.998628484851
0.877350098095
0.998386565949
0.998400448885
0.874530013741
0.876810275536
0.998403083768
0.876650475642
0.998397389489
0.998620755898
0.998806586345
0.879073679288
0.879121220828
0.998746119017
0.998656536929
0.878324164727
0.998506791586
0.998554824382
0.877840223816
0.879140983626
0.99855602128
0.877743897836
0.998489873594
0.998769527488
0.998870873992
0.879735523725
0.880323499754
0.99874988631
0.998869925888
0.880182503588
0.998644708066
0.879869504116
0.998649727778
0.999999511577
0.999998784938
0.999991681381
0.999992333681
0.999995997354
0.999992850982
0.999999448988
0.999998239707
0.9999944684
0.999993403819
0.999996678192
0.999994080656
0.999967832955
0.999993941752
0.999993548493
0.999946322846
0.999944545391
0.999977034959
0.99999546398
0.999994699929
0.999999823352
0.999996240639
0.999995687474
0.999994915684
0.999987406488
0.999977361027
0.999977317501
0.999983668766
0.999995211258
0.999997783578
0.999997812034
0.999992680863
0.999986771649
0.999991460627
0.999996574657
0.999997107357
0.999999398781
0.999999414882
0.999995869245
0.999990497191
0.999990395248
0.99999598555
0.999998228575
0.999996708271
0.999990264499
0.999993852512
0.999998185926
0.999996735276
0.999900374576
0.999998593955
0.999906177033
0.999885978594
0.999945749669
0.999995075571
0.99999190615
0.999980095857
0.999931994567
0.999987633285
0.999987712986
0.999924346385
0.999929652112
0.999976370442
0.999996016926
0.999996518936
0.999972526964
0.999989369262
0.999993456115
0.999985826771
0.999976312328
0.999981700574
0.999993793354
0.999998645978
0.999998980924
0.999998855053
0.999997703067
0.99999702529
0.999997226627
0.999997793621
0.999998104553
0.999997178263
0.999993496729
0.999995586898
0.999998193428
0.999997404503
0.999799543296
0.999995389416
0.999928863514
0.999920585692
0.999975682137
0.99999959815
1.00000115384
0.999998058508
0.99968539472
0.999970433706
0.999990055586
0.999963292254
0.999969265773
0.999992186032
0.999999835135
1.00000109525
1.00000045813
1.0000009103
1.00000039583
0.999998917801
0.999998476708
0.999999174823
0.999999876619
1.00000093075
1.00000055549
1.00000013714
1.00000004646
1.00000019006
1.00000050456
1.00000056413
1.00000039839
1.0000001919
1.00000049839
1.0000005784
1.00000055445
1.00000064345
1.00000063143
1.00000077408
1.0000007962
1.00000108246
1.00000009092
0.999999709385
0.999999756891
0.99980846021
0.999935796089
0.999997036758
0.999996154043
0.999993665257
1.0000056039
1.00000626188
0.999998461099
0.999985114251
0.999985840375
0.999983502149
0.999994684346
0.999992500484
0.999987025216
0.999987627647
0.999981189327
0.999956252293
0.999992205688
0.999991049559
0.999991794389
0.999990864645
0.999988081283
0.999988756264
0.999992807111
0.999990616733
0.999982734701
0.999975166402
0.999995370288
0.999989140734
0.99998463652
0.99998694341
0.999992500357
0.999995738004
0.999993100982
0.999989779895
0.999985521352
0.999989779274
0.999983541277
0.999984438507
0.999986974168
0.999987900245
0.999986458853
0.999983022249
0.999992153257
0.999991382607
0.99999137955
0.0522200337952
0.0545368205815
0.0559253686817
0.0598311701714
0.0641967846836
0.0653323571415
0.0654180242413
0.0674202155931
0.0563560080225
0.054135819027
0.0537990785534
0.0557165404621
0.0574653774156
0.0592359763654
0.0623870778333
0.0645727039372
0.0662810931501
0.0693052420201
0.0547866784556
0.0547702321431
0.0539826421675
0.0554470006341
0.0569436971422
0.0580386566925
0.0587854919102
0.0634511663185
0.067102623392
0.0695947889271
0.0540102015866
0.0536592934062
0.0547101282966
0.0552539769936
0.0561264217585
0.057560872403
0.0621563733264
0.0661747059623
0.0682215288184
0.0539197615608
0.0546235060614
0.0553924948524
0.0596014813624
0.0628460282054
0.0653605883261
0.06655985603
0.06427418337
0.0653693365894
0.0658752974583
5.4809728284e-06
3.0133717422e-08
6.98656820857e-26
1.0564903755e-08
9.86696723998e-06
3.84516006421e-05
-1.04234317559e-26
-2.47919768057e-29
-1.13106024337e-27
7.58615378211e-05
3.80133199351e-05
2.39438559073e-05
1.37720444149e-06
-3.67494609102e-27
1.28025556643e-06
6.70233183667e-05
-8.34930912269e-28
-1.74713904225e-26
-9.69344648401e-27
5.33253254589e-05
3.46429429436e-05
-2.46028467756e-25
-4.19078763169e-29
8.26612755095e-27
-1.10479263431e-26
-2.78170593058e-27
5.70278286739e-05
-2.61269230295e-24
-1.21169312955e-24
5.98989111072e-05
5.36663952557e-07
7.2455725216e-32
2.89155890875e-08
-1.25445112129e-27
-8.42410420993e-29
1.50063945047e-05
-1.1133047591e-24
-5.91720383704e-25
6.52111004186e-05
7.45406777345e-07
9.55089160043e-39
4.09347841561e-05
-2.01704968498e-26
-1.32054708335e-25
-1.22361152227e-25
6.55634738662e-05
-3.1144421785e-27
-4.42182766777e-26
7.82885446645e-05
0.999977318733
0.999996659628
0.999995759418
0.999918921242
0.999980584489
0.999942098959
0.999974333094
0.999999651775
0.999997204016
0.999999198377
0.999998648557
0.999998734748
0.999996103411
0.999999542596
0.99999952685
0.999999688791
0.999998891633
0.999995759696
0.999995134078
0.999999132889
0.999997580167
0.999994172041
0.999983393713
0.999982656392
0.999997313684
0.999998632729
0.999980914068
0.999983690835
0.999974943454
0.999888756871
0.99996990943
0.999873626789
0.999967719066
0.999858071811
0.999968677239
0.999997007197
0.999998145903
0.99999953957
0.999998442636
0.999996702253
0.999998554505
0.999996555263
0.999959705829
0.99998803132
0.999973614648
0.999811459635
0.999911650344
0.999856453783
0.999916894199
0.999999155344
0.999970691853
0.99998754198
0.999980978569
0.999997213262
0.99997172752
0.999995965
0.999941493919
0.999793658586
0.999948936698
0.999584243264
0.999777712231
0.999583397612
0.999820875607
0.999995079413
0.99999695608
0.999994771924
0.999972806634
0.999997414911
0.99998384168
0.999997339944
0.999854451117
0.999922860491
0.999936228931
0.999865187525
0.999898973885
1.00000102397
0.999999058069
0.999994516436
0.999970158237
0.999994450159
0.999967054549
0.999995997682
0.999997605569
0.999997909423
0.999732215211
0.999884292534
0.868766199815
0.868187660536
0.999857736457
0.999904831856
0.999931845575
0.868990067187
0.870176161223
0.867863920891
0.868145483201
0.999993527814
0.999969640733
0.999996841376
0.870486488023
0.872780110233
0.868491262987
0.869399424962
0.999998959941
0.999999833427
0.999999404786
0.873046429631
0.871790478539
0.869442999892
0.864251862944
0.999992108383
0.999996312389
0.999991138135
0.869066521848
0.852178209317
0.860485844503
0.847394345111
1
0.999989604741
0.999990282435
0.846231617467
0.839010250759
0.844897211967
0.843862364185
1.00001024943
0.999994621692
1.00000027405
0.840603858777
0.848202238711
0.844775956028
0.847130526157
1.00000474543
1.00000406825
1.00000219183
0.84899035138
0.840734177701
0.847086655509
0.832085992999
0.999913383687
0.999996512267
0.999947169229
0.843341242331
0.802222644478
0.834681400878
0.83225212622
0.999980125544
0.999986799603
0.867920889512
0.870263630111
0.873019280084
0.873735985398
0.99998922498
0.999995893466
0.999996432115
0.870165381707
0.868311605919
0.873776540111
0.872251434868
0.999983681431
0.999997152474
0.999995643133
0.867558719751
0.867672051417
0.87092473378
0.868015842662
0.999986462547
0.999993971478
0.999990922835
0.868135078948
0.868557416603
0.86752206627
0.866580803975
0.999995327285
0.999989123471
0.999986162865
0.868510765574
0.86245490907
0.865797067652
0.858643320746
0.999990189922
0.999985199208
0.999984529262
0.85920134622
0.850407206311
0.85751435842
0.855067150412
0.999990080308
0.999987581484
0.999986907934
0.848852876845
0.846427717351
0.854612151601
0.85258552418
0.999984835182
0.999987619548
0.999987133276
0.846715691441
0.846565604101
0.851637268054
0.846923486161
0.999973183311
0.999983573633
0.999977836624
0.845682895418
0.830776909053
0.844876059314
0.831263296139
0.99993334515
0.999960819267
0.999966848525
0.833279187885
0.833150878403
0.834215859856
0.832569601618
0.999990749438
0.999993859214
0.99999399558
0.874396257981
0.874923809919
0.879497394338
0.880187936466
0.99999203602
0.999990951304
0.999991662421
0.875229299411
0.87384173913
0.880163043632
0.876903912527
0.999992442816
0.999991276773
0.9999903516
0.872103135141
0.868846518382
0.874601113166
0.868659797462
0.999990219093
0.999990798466
0.999989313999
0.868249194966
0.867041213446
0.868154196211
0.868387155699
0.999988025514
0.999988969367
0.999987973953
0.865606834645
0.860088467398
0.867151045552
0.863860918832
0.999993111748
0.999991041174
0.999992203683
0.858760007692
0.855616491978
0.863548903108
0.862744977322
0.99999321087
0.999995365364
0.999994625271
0.855949654691
0.854311092592
0.863122770833
0.861137628375
0.999987044795
0.999992417462
0.999988435897
0.852435706188
0.845243016938
0.856866532744
0.845068710685
0.999976660208
0.999982671374
0.999978901154
0.842804028302
0.834556043239
0.843200765576
0.838635488451
0.999981329209
0.999977281327
0.999983479797
0.837424072354
0.832976242076
0.842244954327
0.834012204741
0.880349417355
0.880920127059
0.999992432676
0.99999321902
0.880888081153
0.878045710513
0.881781687649
0.999986248687
0.999991362044
0.999990891653
0.87600240968
0.871336394366
0.880884669259
0.879400461497
0.999985644864
0.999990887968
0.99999078065
0.870344467974
0.868833823999
0.878141627175
0.870711805603
0.99998993449
0.999992148654
0.999992295599
0.867743298251
0.864774830474
0.868629530724
0.867235355674
0.999995942264
0.999995944271
0.999995794805
0.864450436482
0.864482226423
0.867437568877
0.865940490492
0.999994766974
0.999995754144
0.99999451864
0.8644826587
0.859538191604
0.865039875935
0.854353972049
0.999990458504
0.999991965813
0.999990157181
0.855303084525
0.845867460161
0.851371438993
0.846702136182
0.99998681812
0.999989497562
0.999987273216
0.844540282269
0.839838292282
0.846475366073
0.840619297533
0.999988143178
0.999984954606
0.99998806265
0.843412034529
0.833809343417
0.844562282901
0.835546496716
0.999986755582
0.999989058368
0.879445571718
0.870032305425
0.864677141838
0.999984022016
0.999989461647
0.999990719227
0.868633779955
0.869416409663
0.862976506015
0.864312365671
0.999984828508
0.99999345561
0.999992848123
0.869895066555
0.863759861096
0.864818667859
0.857822681207
0.999986650212
0.999992232873
0.999992875743
0.860635203904
0.85415862014
0.854603594975
0.850379917097
0.999986947926
0.999991430262
0.999988445059
0.851935898899
0.845987697743
0.848967687284
0.844855503175
0.99998273555
0.999986730865
0.999985844721
0.846194380842
0.840684886072
0.845125742106
0.840321555556
0.999989623326
0.999986146914
0.999994009102
0.844541092205
0.836690939652
0.845112722271
0.839365918323
0.999990841946
0.849192257942
0.999990910459
0.847864445004
0.84491535369
0.999990076613
0.845107869669
0.840090431035
0.999998272996
0.844817207678
0.840631230755
0.000273828268272
9.57447039014e-05
0.000316355753571
0.000113260378998
0.0516815770728
0.0527661250533
2.06817151556e-05
2.00603370539e-05
2.64528734635e-05
2.61367940157e-05
0.0536878881203
0.0532090436427
0.0544793778054
3.20479555467e-05
4.25193532669e-05
5.22975324929e-05
5.1078269768e-05
0.0548573021916
0.0551733764063
0.0556201461823
4.90275266186e-05
3.11688225486e-05
5.25557409682e-05
2.98831073142e-05
0.0576845940067
0.0566825411147
0.0584080476888
6.0076171075e-05
0.00041823019648
9.13040099335e-05
0.000547368787089
0.0622917808656
0.0600873782087
0.0620395835575
0.000861664494096
0.00107800770362
0.000965346510602
0.00107750655523
0.0649969700486
0.063655516685
0.0643820646214
0.000893965428635
0.000792637132206
0.000751492202564
0.000619218574255
0.0652037478801
0.065122485988
0.0654967649706
0.00059505090161
0.000382817980541
0.000432908778152
0.000290674429898
0.0669167569709
0.0655807488342
0.0677884530594
0.000305991707502
0.000334109703042
0.000277239131611
0.000339824095694
0.0697703041728
0.06778127174
0.0723681013343
0.000616920526232
0.00190635054201
0.000646396891443
0.00102130849964
0.0569209152973
0.0555363795775
0.0568459346313
0.000601208666429
0.000417613449358
0.000634836300713
0.000448414297275
0.053318009957
0.0548519748065
0.0538636993744
0.000285126262719
0.000252366434171
0.000133632258063
0.00010498713946
0.0548464695752
0.0538421517477
0.0547280372454
0.000136496772009
7.27316554996e-05
7.69711650883e-05
5.42565245336e-05
0.056537635041
0.0558315166734
0.0567980979486
2.38476293586e-05
2.18908801317e-05
4.17395584612e-05
5.0656764958e-05
0.0588183662512
0.0576049698442
0.058388651174
8.27104116317e-05
0.000423042031668
0.000167488043312
0.000356465281124
0.0604316713525
0.058635838992
0.0594506254419
0.00109432528343
0.00132959418732
0.000850519081739
0.00111677428188
0.0635439055746
0.0607523554364
0.0622792044923
0.000782483318052
0.000570678321039
0.000704602448156
0.000479965776983
0.0653012342088
0.0639679380705
0.0652760066584
0.000295513802847
0.000213099861181
0.000244613517008
0.000219310915175
0.0687047357374
0.0667524957518
0.0691836126646
0.000225298775937
0.000331376212149
0.000251120011458
0.000352959478038
0.0737662756758
0.069869900355
0.0736394776256
0.000612978921269
0.000834067055849
0.000616235210798
0.000912863273934
0.0561464035146
0.0541722602443
0.0549375722823
0.000503226383935
0.000233484451534
0.000462031746438
0.000282327068725
0.0539467206044
0.0544596269062
0.0538672680314
1.57356555661e-05
1.87936960294e-05
1.59196184948e-05
3.21603206391e-05
0.0545241662098
0.0540013663075
0.0546785339331
3.24934469079e-05
4.03758946958e-05
6.72603915952e-05
9.26776379103e-05
0.0562903281421
0.0555264996598
0.0557538272316
6.82440757356e-05
9.11659857981e-05
0.000108000093116
0.000114158488956
0.0573493524171
0.0560504966037
0.056268065622
0.000175527103436
0.000253392652122
0.000142695597082
0.000186567171689
0.0585918802835
0.0568448237854
0.0572402510602
0.000305748318225
0.000463101089829
0.00024959426908
0.000380754817363
0.0611985535018
0.0577645675575
0.0596957701123
0.00114567957184
0.00079473333055
0.00100183240385
0.00082945833883
0.0651398997436
0.0626306595794
0.0648732378973
0.000296371965637
0.000262465728456
0.000298904808059
0.000261302943069
0.0690354003887
0.0668694430141
0.0686274574367
0.00028692694937
0.000351052620383
0.000275537332693
0.000312060752365
0.072515809267
0.0690295046385
0.0711744351391
0.000598116725566
0.0010315767399
0.000537876025366
0.0011794721111
0.0536729320027
0.0534084545731
2.61646618735e-05
7.82039703141e-05
0.0001069017535
0.0541365084078
0.0532326187647
0.0535153086735
0.000102444876658
0.000120137213355
0.000125401168815
0.000130363317806
0.0550190206116
0.0539316738687
0.05436614416
0.000137522181944
0.000126345484583
0.000147297224271
0.000166821230988
0.055592996811
0.0548254373422
0.0553469352673
0.00014237576703
0.000190316416891
0.000269232290771
0.000344523871024
0.0565679693749
0.0560546703112
0.056857393509
0.000259718693391
0.000397056358995
0.000343168187475
0.000393218899797
0.0596001139552
0.0575715596997
0.0599241394264
0.000633242924614
0.000694906382677
0.000571351542984
0.000511360660531
0.0645551675655
0.0623234220767
0.0644693786263
0.000296723979337
0.000261177809846
0.000271429491048
0.000261002991169
0.0680774578197
0.0656845612769
0.0676743542008
0.000256656259043
0.000284651434239
0.000245159422412
0.000285846746534
0.0700832181214
0.0673023411158
0.0693021593663
0.000494110770725
0.00127169894839
0.000467296666822
0.0013768420407
0.0543991103672
0.0553043429692
0.000190941832517
0.000281875374845
0.000267401205297
0.00041127580965
0.0551292914877
0.0557886589373
0.056243109538
0.000434097787818
0.000597365831484
0.000559842446506
0.000753477139475
0.0574572521229
0.0566587758693
0.0587775624911
0.000906342934687
0.000529152052967
0.00102396791043
0.000475551055471
0.0613635218562
0.0609878325494
0.0626063422616
0.000263762983507
0.000263216554396
0.000280710930469
0.000304388444102
0.064457550793
0.0637622982546
0.0649005125057
0.000298617588393
0.000325569134259
0.000332596894041
0.00036889819227
0.067033009438
0.0653459084725
0.0667616980928
0.000293891403482
0.000301219382651
0.000320595341044
0.000328049780267
0.0685505446009
0.0658726872566
0.0682020323385
0.000455855194516
0.00137441122618
0.00043482166932
0.0013589700305
0.0633143053355
0.000359311551369
0.0650306484078
0.000359934478132
0.000369985242792
0.000359056282358
0.000359463507107
0.0667975951084
0.000334476945487
0.00035424108896
0.000329955443073
0.000372473171671
0.0681248694858
0.000476754121231
0.00149351364547
0.000521312057556
0.00160011464437
0.999185256744
0.999215639895
0.869124558436
0.868229814877
0.999182020715
0.868986797553
0.999220615727
0.999128209315
0.999040806956
0.867696515064
0.869215872627
0.99912939996
0.999040042096
0.868272056818
0.999122266767
0.999210108716
0.869430312701
0.868300001112
0.99917179995
0.868692267105
0.999180001195
0.999022751057
0.998948975595
0.86976609434
0.869510060357
0.998905287214
0.869061210955
0.999085441108
0.999080968947
0.999034428631
0.867760496207
0.867920605974
0.999121380365
0.999017268186
0.868044359575
0.998990003703
0.998899223406
0.869024141086
0.867964638588
0.998873241355
0.998972684781
0.86840758463
0.998823632192
0.998875332962
0.870978580254
0.869948480819
0.998829793937
0.870572213388
0.998864764824
0.998828925251
0.998861716892
0.872100612787
0.871705704744
0.998840360462
0.871497788537
0.99886475255
0.998800823937
0.998847722975
0.869500608888
0.868877763586
0.998807143607
0.998835038731
0.869996479932
0.998806524927
0.99881976236
0.87077091648
0.869501672192
0.998813665728
0.998829547865
0.870760497847
0.998813500964
0.998846723607
0.872941766388
0.871895067256
0.99883788474
0.871892343604
0.998808385269
0.998765802973
0.998621877713
0.872646890764
0.869838339679
0.998634448239
0.871352210969
0.998740756599
0.998775123171
0.99879998005
0.870852476491
0.868946068037
0.998806544533
0.998763584245
0.870612434126
0.998713476635
0.998473586855
0.8668701816
0.867228176787
0.99854418534
0.998676861132
0.869442204203
0.998202976589
0.998473365573
0.86485839125
0.866457733832
0.998441811404
0.861600717518
0.998265624949
0.997977971345
0.997856315001
0.858923906181
0.849733141214
0.997790904044
0.855578357398
0.99804828324
0.998058873236
0.998230355649
0.863243546564
0.856030027855
0.998328291643
0.997915835582
0.858684268181
0.997783630429
0.997551098423
0.848502622634
0.851447267823
0.997674781478
0.9976025498
0.85347044986
0.997767350867
0.99776125036
0.841283874369
0.844659265745
0.997708196983
0.840870122888
0.997788936035
0.997872606707
0.997981093296
0.839347846685
0.839754377766
0.998030706963
0.839192511184
0.997853109844
0.99782677421
0.997595372529
0.844808809255
0.842869509838
0.997700325595
0.99775407305
0.842162427022
0.997964742371
0.99809756867
0.84246066137
0.843195615344
0.998100857898
0.997952885167
0.841863330937
0.99821757127
0.998070826408
0.842900448836
0.84139660969
0.998139227211
0.84345097143
0.998162097266
0.998232093138
0.998158018084
0.845679512923
0.847621695819
0.998190591251
0.845771003911
0.998187096725
0.998227659718
0.998181594708
0.843364584812
0.845766260265
0.998176108235
0.998202203103
0.844605639395
0.998226647876
0.998166349361
0.847188549192
0.846601495181
0.998143689199
0.998197304077
0.846489812207
0.99783465148
0.998044515786
0.848719163686
0.847908055796
0.998044490905
0.847238953508
0.997840315173
0.997470464451
0.997432663331
0.845526295403
0.836418662428
0.997319702965
0.843115905163
0.997504586534
0.99775148808
0.998050726775
0.847304155937
0.846556755661
0.997962331359
0.997857746948
0.846653506276
0.997369131256
0.997270282267
0.832911209825
0.841157773922
0.997286106044
0.997469718958
0.841297653131
0.9963876575
0.997199490007
0.838348405738
0.838571649592
0.997059012924
0.835004975276
0.996459586514
0.993811452882
0.992898768306
0.815642638197
0.830886384957
0.813820666018
0.994244778892
0.992941927399
0.996520444589
0.997060403728
0.836181161463
0.832623921596
0.997128578752
0.996483012445
0.833288712789
0.994415670112
0.995542080457
0.831248154051
0.806236722469
0.994774356237
0.804098939345
0.995162583404
0.998367539676
0.998339397349
0.87014775639
0.869866411926
0.998410864182
0.871708450522
0.998319064122
0.998479663768
0.998622559713
0.870159921213
0.871781582953
0.998525650866
0.998588143865
0.871572958215
0.99836735805
0.998359265436
0.870762751223
0.874115966589
0.998390830027
0.872375490541
0.99834341644
0.9984332938
0.998557006412
0.872104598062
0.873925541229
0.998510038839
0.998468657516
0.872203545225
0.998752842831
0.998694353007
0.869775996425
0.871987357334
0.998783313967
0.998668655814
0.871587526599
0.99879939241
0.998860579528
0.869191022546
0.869604951809
0.998857207932
0.998805444053
0.870813241312
0.998665519225
0.998640129652
0.872290943325
0.873618386296
0.998581321074
0.998728191431
0.871979697926
0.998729295653
0.998795991773
0.870444408043
0.873275323017
0.998746119757
0.998794673893
0.871395173536
0.998792344681
0.998854455658
0.867207498441
0.868465310272
0.998836064357
0.998806316152
0.867231551915
0.99876156024
0.998726764174
0.867291950856
0.866805588631
0.998790321911
0.998712214723
0.866724422943
0.998734370197
0.998786651157
0.869539173578
0.86962518373
0.998746869019
0.998765773643
0.868391937541
0.998697670562
0.998651214667
0.867064737756
0.86873465825
0.998629589288
0.998724837896
0.867277634696
0.998596652753
0.998667872281
0.868536254203
0.867055884487
0.998624427479
0.998661631418
0.867175023552
0.998516109188
0.998490038379
0.868769726845
0.867236765414
0.998571096124
0.998409446125
0.867418093321
0.998448002281
0.99855467583
0.867206804999
0.867009440462
0.998546059676
0.998455942788
0.867222366173
0.998337658638
0.998214431204
0.866862944238
0.866756572181
0.998205378957
0.998344731196
0.867131204126
0.998156125692
0.998399132686
0.867972953245
0.866973224295
0.998306897938
0.998279953583
0.866482274132
0.997991463315
0.997936240674
0.865931928499
0.860872675236
0.998166155582
0.997746456245
0.864304016846
0.997973872342
0.998108936127
0.866379441411
0.864078786591
0.998079116705
0.997983687467
0.865268504243
0.997852600814
0.99770998106
0.859875039522
0.861524333705
0.997710597512
0.997854733213
0.862906550719
0.997172705622
0.997688410755
0.855558019867
0.85782423538
0.99741577535
0.997466250509
0.854741135821
0.997056522779
0.99725185902
0.852784562833
0.851499933702
0.997239333309
0.997092452002
0.852792578797
0.997440755538
0.997545143372
0.858047831346
0.856550072834
0.997529340623
0.997539681544
0.856218195667
0.99745153661
0.997641561543
0.85397102119
0.855614114305
0.997502131755
0.997567115141
0.854738839129
0.997354034666
0.997318765048
0.847259792196
0.850147485537
0.997482600665
0.997195194415
0.848758488852
0.997549988243
0.99779048027
0.846352350056
0.848323480694
0.99768584415
0.997664302059
0.848301581508
0.997769086941
0.997753184043
0.853120443059
0.854023804645
0.997612209911
0.997879051908
0.851844609807
0.997891287097