/*--------------------------------*- C++ -*----------------------------------*\
| =========                 |                                                 |
| \\      /  F ield         | OpenFOAM: The Open Source CFD Toolbox           |
|  \\    /   O peration     | Version:  v1906                                 |
|   \\  /    A nd           | Web:      www.OpenFOAM.com                      |
|    \\/     M anipulation  |                                                 |
\*---------------------------------------------------------------------------*/
FoamFile
{
    version     2.0;
    format      ascii;
    class       volVectorField;
    location    "11";
    object      force.turbine;
}
// * * * * * * * * * * * * * * * * * * * * * * * * * * * * * * * * * * * * * //

dimensions      [1 -2 -2 0 0 0 0];


internalField   nonuniform List<vector> 
28582
(
(0 0 0)
(0 0 0)
(0 0 0)
(0 0 0)
(0 0 0)
(0 0 0)
(0 0 0)
(0 0 0)
(0 0 0)
(0 0 0)
(0 0 0)
(0 0 0)
(0 0 0)
(0 0 0)
(0 0 0)
(0 0 0)
(0 0 0)
(0 0 0)
(0 0 0)
(0 0 0)
(0 0 0)
(0 0 0)
(0 0 0)
(0 0 0)
(0 0 0)
(0 0 0)
(0 0 0)
(0 0 0)
(0 0 0)
(0 0 0)
(0 0 0)
(0 0 0)
(0 0 0)
(0 0 0)
(0 0 0)
(0 0 0)
(0 0 0)
(0 0 0)
(0 0 0)
(0 0 0)
(0 0 0)
(0 0 0)
(0 0 0)
(0 0 0)
(0 0 0)
(0 0 0)
(0 0 0)
(0 0 0)
(0 0 0)
(0 0 0)
(0 0 0)
(0 0 0)
(0 0 0)
(0 0 0)
(0 0 0)
(0 0 0)
(0 0 0)
(0 0 0)
(0 0 0)
(0 0 0)
(0 0 0)
(0 0 0)
(0 0 0)
(0 0 0)
(0 0 0)
(0 0 0)
(0 0 0)
(0 0 0)
(0 0 0)
(0 0 0)
(0 0 0)
(0 0 0)
(0 0 0)
(0 0 0)
(0 0 0)
(0 0 0)
(0 0 0)
(0 0 0)
(0 0 0)
(0 0 0)
(0 0 0)
(0 0 0)
(0 0 0)
(0 0 0)
(0 0 0)
(0 0 0)
(0 0 0)
(0 0 0)
(0 0 0)
(0 0 0)
(0 0 0)
(0 0 0)
(0 0 0)
(0 0 0)
(0 0 0)
(0 0 0)
(0 0 0)
(0 0 0)
(0 0 0)
(0 0 0)
(0 0 0)
(0 0 0)
(0 0 0)
(0 0 0)
(0 0 0)
(0 0 0)
(0 0 0)
(0 0 0)
(0 0 0)
(0 0 0)
(0 0 0)
(0 0 0)
(0 0 0)
(0 0 0)
(0 0 0)
(0 0 0)
(0 0 0)
(0 0 0)
(0 0 0)
(0 0 0)
(0 0 0)
(0 0 0)
(0 0 0)
(0 0 0)
(0 0 0)
(0 0 0)
(0 0 0)
(0 0 0)
(0 0 0)
(0 0 0)
(0 0 0)
(0 0 0)
(0 0 0)
(0 0 0)
(0 0 0)
(0 0 0)
(0 0 0)
(0 0 0)
(0 0 0)
(0 0 0)
(0 0 0)
(0 0 0)
(0 0 0)
(0 0 0)
(0 0 0)
(0 0 0)
(0 0 0)
(0 0 0)
(0 0 0)
(0 0 0)
(0 0 0)
(0 0 0)
(0 0 0)
(0 0 0)
(0 0 0)
(0 0 0)
(0 0 0)
(0 0 0)
(0 0 0)
(0 0 0)
(0 0 0)
(0 0 0)
(0 0 0)
(0 0 0)
(0 0 0)
(0 0 0)
(0 0 0)
(0 0 0)
(0 0 0)
(0 0 0)
(0 0 0)
(0 0 0)
(0 0 0)
(0 0 0)
(0 0 0)
(0 0 0)
(0 0 0)
(0 0 0)
(0 0 0)
(0 0 0)
(0 0 0)
(0 0 0)
(0 0 0)
(0 0 0)
(0 0 0)
(0 0 0)
(0 0 0)
(0 0 0)
(0 0 0)
(0 0 0)
(0 0 0)
(0 0 0)
(0 0 0)
(0 0 0)
(0 0 0)
(0 0 0)
(0 0 0)
(0 0 0)
(0 0 0)
(0 0 0)
(0 0 0)
(0 0 0)
(0 0 0)
(0 0 0)
(0 0 0)
(0 0 0)
(0 0 0)
(0 0 0)
(0 0 0)
(0 0 0)
(0 0 0)
(0 0 0)
(0 0 0)
(0 0 0)
(0 0 0)
(0 0 0)
(0 0 0)
(-0.00306479687929 8.09132393947e-05 0)
(0 0 0)
(0 0 0)
(0 0 0)
(0 0 0)
(-2.27181713675e-05 6.22177660303e-07 0)
(0 0 0)
(-2.16057542047e-06 7.68712667134e-08 0)
(0 0 0)
(0 0 0)
(0 0 0)
(0 0 0)
(0 0 0)
(0 0 0)
(0 0 0)
(0 0 0)
(0 0 0)
(0 0 0)
(0 0 0)
(0 0 0)
(-0.0156916139919 0.00049371366647 0)
(0 0 0)
(0 0 0)
(0 0 0)
(-0.0259743446942 0.000711787890449 0)
(0 0 0)
(0 0 0)
(-0.0837364952379 -0.00882339119795 0.00684995257298)
(-0.87015603734 -0.136448924635 0.0993259186796)
(-0.11436582169 -0.00563587322303 0.00536075094757)
(-2.17752528328 -0.261171732449 0.198098125861)
(-0.00519989270242 0.00010390531047 0)
(-0.0711821850779 0.00195064083235 0)
(0 0 0)
(0 0 0)
(0 0 0)
(0 0 0)
(0 0 0)
(-0.0156914823817 0.000493709525548 0)
(0 0 0)
(0 0 0)
(0 0 0)
(-0.0262290917461 0.000718768850654 0)
(0 0 0)
(0 0 0)
(0 0 0)
(0 0 0)
(0 0 0)
(0 0 0)
(0 0 0)
(0 0 0)
(-1.98036351918e-05 4.78520942301e-07 0)
(0 0 0)
(-1.22296810816e-05 2.95509307181e-07 0)
(-0.000199147532018 5.26084712538e-06 0)
(-0.000826519567064 2.18340294976e-05 0)
(-0.000110688024382 2.92402707171e-06 0)
(-0.000462101080376 1.22072471383e-05 0)
(0 0 0)
(0 0 0)
(-0.000289730582542 6.31408261359e-06 0)
(0 0 0)
(0 0 0)
(0 0 0)
(0 0 0)
(0 0 0)
(0 0 0)
(-0.0152113419816 0.000401592341596 0)
(-0.000640716135736 1.54108165714e-05 0)
(-0.00334037489153 8.8188732863e-05 0)
(-3.25302470311e-05 8.24415043187e-07 0)
(-0.000146652225814 3.87408738027e-06 0)
(-3.80962058028e-06 1.35542761863e-07 0)
(-3.08014878254e-05 7.80603045883e-07 0)
(0 0 0)
(0 0 0)
(0 0 0)
(0 0 0)
(0 0 0)
(-0.000347340262486 7.5695671928e-06 0)
(0 0 0)
(0 0 0)
(0 0 0)
(0 0 0)
(0 0 0)
(0 0 0)
(0 0 0)
(0 0 0)
(0 0 0)
(0 0 0)
(0 0 0)
(0 0 0)
(0 0 0)
(0 0 0)
(0 0 0)
(0 0 0)
(0 0 0)
(0 0 0)
(0 0 0)
(0 0 0)
(-0.00487446290383 9.15926881022e-05 0)
(0 0 0)
(0 0 0)
(0 0 0)
(0 0 0)
(0 0 0)
(-0.00406983417847 8.13242518791e-05 0)
(0 0 0)
(0 0 0)
(0 0 0)
(0 0 0)
(0 0 0)
(0 0 0)
(0 0 0)
(0 0 0)
(0 0 0)
(0 0 0)
(0 0 0)
(0 0 0)
(0 0 0)
(0 0 0)
(0 0 0)
(0 0 0)
(0 0 0)
(0 0 0)
(0 0 0)
(0 0 0)
(0 0 0)
(0 0 0)
(-0.0563904509351 -0.00257663081959 0.00253240139524)
(-0.00766324349405 0.00017969434457 0)
(-0.0126060990403 0.000295598685647 0)
(-0.00984258370054 0.000229023362913 0)
(-0.0186611416878 0.000534928832064 0)
(0 0 0)
(0 0 0)
(0 0 0)
(0 0 0)
(0 0 0)
(0 0 0)
(0 0 0)
(0 0 0)
(0 0 0)
(0 0 0)
(-0.00458248308801 9.15681063501e-05 0)
(0 0 0)
(-0.0076652063149 0.000178358790849 0)
(0 0 0)
(0 0 0)
(-0.733018890062 -0.109349858026 0.0799563523657)
(-0.579109532778 -0.0875184511856 0.063939110101)
(-0.482097316503 -0.0521598211912 0.0402608235717)
(-0.037822078604 0.00103645723728 0)
(-2.51848323248 -0.428523559792 0.308174479319)
(-0.154770405843 -0.0170772333823 0.0131234138155)
(-0.150164709235 -0.00774123236541 0.00724477239585)
(-1.97918058947 -0.31434458172 0.227940650521)
(-11.2446467142 -1.94488051311 1.39592495602)
(-1.26064798967 -0.156987713221 0.11820389081)
(-0.765467945957 -0.0628661353408 0.0515728286151)
(-6.74553399072 -1.1789322134 0.844852160041)
(-0.422836054075 -0.0355904159936 0.0289753690139)
(-3.33778684789 -0.520539920617 0.378590117711)
(-0.125145657994 -0.00968493595949 0.00804755734024)
(-0.00868460992951 0.000202078908563 0)
(-0.0179422303831 0.000491679865832 0)
(-0.0180072471783 0.000493461553418 0)
(-0.0239576813788 0.000686756187449 0)
(-0.0239542401741 0.000686657543986 0)
(-0.0430447412596 0.00117957646042 0)
(-0.381539902778 -0.0426338977059 0.032709169123)
(-0.118884043603 -0.000726060159783 0.00247414212147)
(-0.221910114708 -0.00368906861785 0.00594999789903)
(-0.0380950080129 0.00104393645766 0)
(-0.0507089732689 0.0014535922989 0)
(-0.110351779189 -0.000693473193518 0.00225827721741)
(-0.686474544675 -0.0759299871106 0.0584738918637)
(0 0 0)
(0 0 0)
(0 0 0)
(0 0 0)
(0 0 0)
(0 0 0)
(0 0 0)
(0 0 0)
(0 0 0)
(0 0 0)
(0 0 0)
(0 0 0)
(0 0 0)
(0 0 0)
(0 0 0)
(0 0 0)
(0 0 0)
(0 0 0)
(0 0 0)
(0 0 0)
(0 0 0)
(0 0 0)
(0 0 0)
(-0.00459767384408 9.18716511185e-05 0)
(0 0 0)
(-0.00766349749361 0.000178319028932 0)
(0 0 0)
(0 0 0)
(0 0 0)
(-0.0348528831698 0.000999071353727 0)
(-0.0126938283505 0.000297655838196 0)
(-0.00771924809054 0.000181007588664 0)
(-0.0186554532177 0.000534765769872 0)
(0 0 0)
(-0.00983939727117 0.000228949219092 0)
(0 0 0)
(0 0 0)
(0 0 0)
(0 0 0)
(0 0 0)
(0 0 0)
(0 0 0)
(0 0 0)
(0 0 0)
(0 0 0)
(0 0 0)
(0 0 0)
(0 0 0)
(0 0 0)
(0 0 0)
(0 0 0)
(0 0 0)
(0 0 0)
(0 0 0)
(0 0 0)
(0 0 0)
(0 0 0)
(0 0 0)
(0 0 0)
(0 0 0)
(0 0 0)
(0 0 0)
(0 0 0)
(0 0 0)
(0 0 0)
(0 0 0)
(0 0 0)
(0 0 0)
(0 0 0)
(0 0 0)
(0 0 0)
(-0.0151477061903 0.000260142073953 0)
(0 0 0)
(0 0 0)
(0 0 0)
(0 0 0)
(0 0 0)
(0 0 0)
(0 0 0)
(-0.00338001812797 5.80473977224e-05 0)
(0 0 0)
(0 0 0)
(0 0 0)
(0 0 0)
(0 0 0)
(0 0 0)
(0 0 0)
(0 0 0)
(0 0 0)
(0 0 0)
(0 0 0)
(0 0 0)
(0 0 0)
(0 0 0)
(0 0 0)
(0 0 0)
(0 0 0)
(0 0 0)
(0 0 0)
(0 0 0)
(0 0 0)
(0 0 0)
(0 0 0)
(0 0 0)
(0 0 0)
(0 0 0)
(0 0 0)
(-0.32401473009 0.00791320798693 0)
(-0.00777733067127 0.000133565498646 0)
(0 0 0)
(0 0 0)
(0 0 0)
(0 0 0)
(0 0 0)
(0 0 0)
(-0.0711411468722 0.00175812521939 0)
(0 0 0)
(0 0 0)
(0 0 0)
(0 0 0)
(0 0 0)
(0 0 0)
(0 0 0)
(0 0 0)
(0 0 0)
(0 0 0)
(0 0 0)
(0 0 0)
(0 0 0)
(0 0 0)
(0 0 0)
(0 0 0)
(0 0 0)
(0 0 0)
(0 0 0)
(0 0 0)
(0 0 0)
(0 0 0)
(0 0 0)
(0 0 0)
(0 0 0)
(0 0 0)
(0 0 0)
(-1.51567225078 0.0495302346849 0)
(-0.0434872468802 0.00140017857419 0)
(0 0 0)
(0 0 0)
(0 0 0)
(0 0 0)
(0 0 0)
(0 0 0)
(-0.332398869199 0.0107401650598 0)
(-0.00660035736279 0.000237145686065 0)
(0 0 0)
(0 0 0)
(0 0 0)
(0 0 0)
(0 0 0)
(0 0 0)
(0 0 0)
(0 0 0)
(0 0 0)
(0 0 0)
(0 0 0)
(0 0 0)
(0 0 0)
(0 0 0)
(0 0 0)
(0 0 0)
(0 0 0)
(0 0 0)
(0 0 0)
(0 0 0)
(0 0 0)
(0 0 0)
(0 0 0)
(0 0 0)
(0 0 0)
(0 0 0)
(0 0 0)
(0 0 0)
(0 0 0)
(0 0 0)
(0 0 0)
(0 0 0)
(0 0 0)
(-2.51290410751 0.0764282671752 0)
(-0.0758927836539 0.00230822733284 0)
(0 0 0)
(0 0 0)
(0 0 0)
(0 0 0)
(0 0 0)
(0 0 0)
(-2.5133476625 0.076441757598 0)
(-0.560804073253 0.0170564739878 0)
(-0.0156913571606 0.000493705585648 0)
(0 0 0)
(0 0 0)
(0 0 0)
(0 0 0)
(0 0 0)
(0 0 0)
(-0.0460338943103 0.00140008954697 0)
(-0.0758969730629 0.00230835475086 0)
(-0.0156914871489 0.000493709675541 0)
(0 0 0)
(0 0 0)
(0 0 0)
(0 0 0)
(0 0 0)
(0 0 0)
(0 0 0)
(0 0 0)
(0 0 0)
(0 0 0)
(0 0 0)
(0 0 0)
(0 0 0)
(0 0 0)
(0 0 0)
(0 0 0)
(0 0 0)
(0 0 0)
(0 0 0)
(0 0 0)
(0 0 0)
(0 0 0)
(0 0 0)
(0 0 0)
(0 0 0)
(0 0 0)
(-0.0675990304392 0.00178085622499 0)
(-0.00211714208892 5.58943484416e-05 0)
(0 0 0)
(0 0 0)
(0 0 0)
(0 0 0)
(0 0 0)
(0 0 0)
(-0.044187106487 0.0011640830222 0)
(-0.0700323114368 0.00184495956469 0)
(-0.0154358826739 0.000407520406492 0)
(-0.000375594192586 8.18530353394e-06 0)
(0 0 0)
(0 0 0)
(0 0 0)
(0 0 0)
(0 0 0)
(0 0 0)
(-0.00121527553005 2.92303989751e-05 0)
(-0.00212603967727 5.61292523273e-05 0)
(-0.000364112283505 7.9350789223e-06 0)
(0 0 0)
(0 0 0)
(0 0 0)
(0 0 0)
(0 0 0)
(0 0 0)
(0 0 0)
(0 0 0)
(0 0 0)
(0 0 0)
(0 0 0)
(0 0 0)
(0 0 0)
(0 0 0)
(0 0 0)
(0 0 0)
(0 0 0)
(0 0 0)
(0 0 0)
(0 0 0)
(0 0 0)
(0 0 0)
(0 0 0)
(0 0 0)
(0 0 0)
(0 0 0)
(-0.000174009100105 4.83199558938e-06 0)
(-0.000173068054652 4.80586403949e-06 0)
(-2.22157850206e-05 6.08418913757e-07 0)
(0 0 0)
(0 0 0)
(0 0 0)
(0 0 0)
(0 0 0)
(0 0 0)
(0 0 0)
(-2.30582286396e-05 6.31490735485e-07 0)
(-2.27464239824e-05 6.22951408575e-07 0)
(-2.16062559306e-06 7.68730518079e-08 0)
(0 0 0)
(0 0 0)
(0 0 0)
(0 0 0)
(0 0 0)
(0 0 0)
(0 0 0)
(0 0 0)
(0 0 0)
(0 0 0)
(0 0 0)
(0 0 0)
(0 0 0)
(0 0 0)
(0 0 0)
(0 0 0)
(0 0 0)
(0 0 0)
(0 0 0)
(0 0 0)
(0 0 0)
(0 0 0)
(0 0 0)
(0 0 0)
(0 0 0)
(0 0 0)
(0 0 0)
(0 0 0)
(0 0 0)
(0 0 0)
(0 0 0)
(0 0 0)
(0 0 0)
(0 0 0)
(0 0 0)
(0 0 0)
(-0.00337994213812 5.80460926959e-05 0)
(-0.00918781281844 0.000157788687717 0)
(-0.00205007630193 3.52073834974e-05 0)
(-0.0872828935809 0.00183545712258 0)
(-0.017895128405 0.000307325462909 0)
(-0.0529409769183 0.00111328679853 0)
(-0.0108538762515 0.000186401151635 0)
(0 0 0)
(0 0 0)
(0 0 0)
(-0.00242188597661 4.15927291511e-05 0)
(0 0 0)
(0 0 0)
(0 0 0)
(0 0 0)
(0 0 0)
(0 0 0)
(-0.0178953997006 0.000307330122057 0)
(-0.00399300090551 6.85745764942e-05 0)
(-0.00399301685686 6.85748504377e-05 0)
(0 0 0)
(0 0 0)
(0 0 0)
(0 0 0)
(0 0 0)
(0 0 0)
(0 0 0)
(0 0 0)
(-0.0711441994528 0.00175820065842 0)
(-0.19652258689 0.00479954755068 0)
(-0.0431509212171 0.0010663972422 0)
(-0.805949564601 0.0231492674589 0)
(-0.178062412893 0.00510223584063 0)
(-0.48882552398 0.0140405222515 0)
(-0.108000416145 0.00309466543278 0)
(0 0 0)
(-0.00471718739142 8.10115337474e-05 0)
(0 0 0)
(-0.0229401941048 0.000682927295855 0)
(0 0 0)
(-0.0122682608489 0.0003569398157 0)
(0 0 0)
(-0.0150292916972 0.000362895990209 0)
(-0.015029717 0.000362906259535 0)
(-0.00286104866383 4.91347748458e-05 0)
(-0.178034615929 0.00510143934089 0)
(-0.0378187065999 0.00112585913236 0)
(-0.0378166210437 0.00112579704556 0)
(-0.0074404693133 0.00021647728053 0)
(0 0 0)
(0 0 0)
(0 0 0)
(-0.00337995449597 5.8046304926e-05 0)
(0 0 0)
(0 0 0)
(0 0 0)
(-0.332483937771 0.0107429137168 0)
(-0.903651560935 0.0291979540855 0)
(-0.201663201628 0.00651595499462 0)
(-2.20898286603 0.0729567171256 0)
(-0.487230723279 0.0159716993436 0)
(-1.32417326578 0.0434071503897 0)
(-0.295533117736 0.00968774315129 0)
(0 0 0)
(-0.026376389821 0.000849252563484 0)
(0 0 0)
(-0.0659523623372 0.00216195582897 0)
(0 0 0)
(-0.0400025708332 0.00131130695129 0)
(0 0 0)
(-0.0741807429099 0.00239685960734 0)
(-0.0741858132235 0.00239702343462 0)
(-0.0140869090717 0.000502526362886 0)
(-0.487273310706 0.0159730953835 0)
(-0.108729042104 0.00356419964387 0)
(-0.108740127919 0.00356456304318 0)
(-0.0242631545059 0.000795359960649 0)
(0 0 0)
(0 0 0)
(0 0 0)
(-0.0134360461386 0.00043685959896 0)
(0 0 0)
(0 0 0)
(0 0 0)
(-7.02084123245 0.218012743038 0)
(-4.16918850274 0.127409239007 0)
(-3.93283526669 0.107107224802 0)
(-1.85650413471 0.0505602173034 0)
(-0.560732302983 0.0170542911439 0)
(-1.52430015228 0.0463605511032 0)
(-0.340126516599 0.0103447163806 0)
(-2.38599913661 0.0649805365782 0)
(-0.251825314454 0.00685823553164 0)
(-1.12560727626 0.0306548999391 0)
(-0.118676579608 0.00323204971196 0)
(0 0 0)
(-0.0460328565897 0.0014000579854 0)
(0 0 0)
(-0.091139731993 0.00249754741978 0)
(0 0 0)
(-0.0429527973417 0.00117705687549 0)
(0 0 0)
(0 0 0)
(0 0 0)
(0 0 0)
(0 0 0)
(0 0 0)
(0 0 0)
(0 0 0)
(0 0 0)
(0 0 0)
(0 0 0)
(0 0 0)
(0 0 0)
(0 0 0)
(0 0 0)
(0 0 0)
(0 0 0)
(0 0 0)
(0 0 0)
(0 0 0)
(0 0 0)
(0 0 0)
(0 0 0)
(0 0 0)
(0 0 0)
(0 0 0)
(0 0 0)
(0 0 0)
(0 0 0)
(0 0 0)
(0 0 0)
(0 0 0)
(0 0 0)
(0 0 0)
(0 0 0)
(0 0 0)
(0 0 0)
(0 0 0)
(0 0 0)
(0 0 0)
(0 0 0)
(0 0 0)
(0 0 0)
(-1.08516621931 -0.129909320626 0.0993257871443)
(-0.616620372612 0.00738389761163 0.00684995946126)
(-2.62496680274 -0.249651369138 0.198509376264)
(-2.43353109353 0.0574639066113 0.00539050952883)
(-0.119342065346 0.00325017361637 0)
(-0.252854327156 0.00688625976538 0)
(-1.52442867613 0.0463644600684 0)
(-0.560809705502 0.0170566452888 0)
(-0.340148463689 0.0103453838864 0)
(-2.38922249707 0.0650683218958 0)
(-1.12618724753 0.0306706949341 0)
(-0.252866050014 0.00688657902687 0)
(-0.119237221001 0.00324731827512 0)
(-0.12513203279 0.00380580556403 0)
(-0.125133716788 0.00380585678169 0)
(-0.0279210641666 0.000849200152746 0)
(-0.682475510792 0.018586605591 0)
(-0.0707504687245 0.00193881029433 0)
(-0.071015388214 0.00194607001491 0)
(-0.00516666249119 0.000103241297651 0)
(0 0 0)
(0 0 0)
(0 0 0)
(-0.0260415163506 0.000713628628769 0)
(0 0 0)
(0 0 0)
(0 0 0)
(0 0 0)
(0 0 0)
(0 0 0)
(0 0 0)
(0 0 0)
(0 0 0)
(0 0 0)
(0 0 0)
(0 0 0)
(0 0 0)
(0 0 0)
(0 0 0)
(0 0 0)
(0 0 0)
(0 0 0)
(0 0 0)
(0 0 0)
(0 0 0)
(0 0 0)
(0 0 0)
(0 0 0)
(0 0 0)
(0 0 0)
(0 0 0)
(0 0 0)
(0 0 0)
(0 0 0)
(0 0 0)
(0 0 0)
(0 0 0)
(0 0 0)
(0 0 0)
(0 0 0)
(0 0 0)
(0 0 0)
(0 0 0)
(0 0 0)
(0 0 0)
(0 0 0)
(0 0 0)
(0 0 0)
(0 0 0)
(-0.0758969503072 0.00230835405876 0)
(0 0 0)
(0 0 0)
(-0.0432445027946 0.00118505062515 0)
(-0.0916037841654 0.00251026407233 0)
(0 0 0)
(0 0 0)
(-0.0460338865076 0.00140008930965 0)
(0 0 0)
(0 0 0)
(-0.0916357320533 0.0025111395562 0)
(-0.0432171096854 0.00118429995815 0)
(0 0 0)
(0 0 0)
(0 0 0)
(0 0 0)
(0 0 0)
(-0.0261604091593 0.000716886707557 0)
(0 0 0)
(0 0 0)
(0 0 0)
(0 0 0)
(0 0 0)
(0 0 0)
(0 0 0)
(0 0 0)
(0 0 0)
(0 0 0)
(0 0 0)
(0 0 0)
(0 0 0)
(0 0 0)
(0 0 0)
(0 0 0)
(0 0 0)
(0 0 0)
(0 0 0)
(0 0 0)
(0 0 0)
(0 0 0)
(0 0 0)
(0 0 0)
(0 0 0)
(0 0 0)
(0 0 0)
(0 0 0)
(0 0 0)
(0 0 0)
(0 0 0)
(0 0 0)
(0 0 0)
(0 0 0)
(0 0 0)
(0 0 0)
(0 0 0)
(0 0 0)
(0 0 0)
(0 0 0)
(0 0 0)
(0 0 0)
(0 0 0)
(0 0 0)
(0 0 0)
(0 0 0)
(0 0 0)
(0 0 0)
(0 0 0)
(0 0 0)
(0 0 0)
(0 0 0)
(0 0 0)
(0 0 0)
(0 0 0)
(0 0 0)
(0 0 0)
(0 0 0)
(0 0 0)
(0 0 0)
(0 0 0)
(0 0 0)
(0 0 0)
(0 0 0)
(0 0 0)
(0 0 0)
(0 0 0)
(0 0 0)
(0 0 0)
(0 0 0)
(0 0 0)
(0 0 0)
(0 0 0)
(0 0 0)
(0 0 0)
(0 0 0)
(0 0 0)
(0 0 0)
(0 0 0)
(0 0 0)
(0 0 0)
(0 0 0)
(0 0 0)
(0 0 0)
(0 0 0)
(0 0 0)
(0 0 0)
(0 0 0)
(0 0 0)
(0 0 0)
(0 0 0)
(0 0 0)
(0 0 0)
(0 0 0)
(0 0 0)
(0 0 0)
(0 0 0)
(0 0 0)
(0 0 0)
(0 0 0)
(0 0 0)
(0 0 0)
(0 0 0)
(0 0 0)
(0 0 0)
(0 0 0)
(0 0 0)
(0 0 0)
(0 0 0)
(0 0 0)
(0 0 0)
(0 0 0)
(0 0 0)
(0 0 0)
(0 0 0)
(0 0 0)
(0 0 0)
(0 0 0)
(0 0 0)
(0 0 0)
(0 0 0)
(0 0 0)
(0 0 0)
(0 0 0)
(0 0 0)
(0 0 0)
(0 0 0)
(0 0 0)
(0 0 0)
(0 0 0)
(0 0 0)
(0 0 0)
(0 0 0)
(0 0 0)
(0 0 0)
(0 0 0)
(0 0 0)
(0 0 0)
(0 0 0)
(0 0 0)
(0 0 0)
(0 0 0)
(0 0 0)
(0 0 0)
(0 0 0)
(0 0 0)
(0 0 0)
(0 0 0)
(0 0 0)
(0 0 0)
(0 0 0)
(0 0 0)
(0 0 0)
(0 0 0)
(0 0 0)
(0 0 0)
(0 0 0)
(0 0 0)
(0 0 0)
(0 0 0)
(0 0 0)
(0 0 0)
(0 0 0)
(0 0 0)
(0 0 0)
(0 0 0)
(0 0 0)
(0 0 0)
(0 0 0)
(0 0 0)
(0 0 0)
(0 0 0)
(0 0 0)
(-0.00175408243578 4.63131430434e-05 0)
(-0.00248845868324 6.5702922852e-05 0)
(-0.00109771785825 2.89982295063e-05 0)
(-0.00153339982393 4.04864468964e-05 0)
(-0.181894167527 0.00479189358819 0)
(-0.112595516606 0.00296626187315 0)
(-0.0023183672227 6.1211987887e-05 0)
(-0.00140530678631 3.71043987936e-05 0)
(-0.0014140926129 3.73363714965e-05 0)
(-0.00085614935182 2.26167545778e-05 0)
(-0.0154045637861 0.000406693561268 0)
(-0.0417627860103 0.00110021574209 0)
(-0.00947855898886 0.000250242003888 0)
(-0.00052226511496 1.37965904015e-05 0)
(-0.000117712686412 3.10959639648e-06 0)
(-0.000322970437415 8.53185615729e-06 0)
(-7.19811395495e-05 1.90151375336e-06 0)
(0 0 0)
(-0.00122369911882 2.94330072349e-05 0)
(0 0 0)
(-1.38633583335e-05 3.34984321259e-07 0)
(0 0 0)
(-8.43676700164e-06 2.0386003158e-07 0)
(0 0 0)
(0 0 0)
(0 0 0)
(0 0 0)
(0 0 0)
(0 0 0)
(0 0 0)
(0 0 0)
(0 0 0)
(0 0 0)
(0 0 0)
(0 0 0)
(0 0 0)
(0 0 0)
(0 0 0)
(0 0 0)
(0 0 0)
(0 0 0)
(0 0 0)
(0 0 0)
(0 0 0)
(0 0 0)
(0 0 0)
(0 0 0)
(0 0 0)
(0 0 0)
(0 0 0)
(0 0 0)
(0 0 0)
(0 0 0)
(0 0 0)
(0 0 0)
(0 0 0)
(0 0 0)
(0 0 0)
(0 0 0)
(0 0 0)
(0 0 0)
(0 0 0)
(0 0 0)
(0 0 0)
(0 0 0)
(0 0 0)
(-0.0735697235215 0.00193815058075 0)
(-0.00965913804667 0.000255009444312 0)
(-0.0162940872946 0.00043017773703 0)
(-0.00049105277967 1.2972059348e-05 0)
(-0.000716920064979 1.89387577378e-05 0)
(-0.000111866286542 2.95515302658e-06 0)
(-0.000163436159478 4.31746575547e-06 0)
(-0.0418467301657 0.0011024272009 0)
(-0.0157324508105 0.000415350057062 0)
(-0.009373375976 0.000247465083056 0)
(-0.000650033149248 1.71718172451e-05 0)
(-0.000384233631997 1.01502357467e-05 0)
(-0.000127976422164 3.38073179133e-06 0)
(-7.56644519459e-05 1.99881520237e-06 0)
(-0.00351003827154 9.26679901266e-05 0)
(-0.00344691807285 9.10015632969e-05 0)
(-0.000736327084393 1.77104976779e-05 0)
(-0.000128299105479 3.38925606263e-06 0)
(-2.6286382014e-05 6.66176581525e-07 0)
(-2.63900322461e-05 6.68803392519e-07 0)
(-3.1087963566e-06 1.10608086912e-07 0)
(0 0 0)
(0 0 0)
(0 0 0)
(0 0 0)
(0 0 0)
(0 0 0)
(0 0 0)
(0 0 0)
(0 0 0)
(0 0 0)
(0 0 0)
(0 0 0)
(0 0 0)
(0 0 0)
(0 0 0)
(0 0 0)
(0 0 0)
(0 0 0)
(0 0 0)
(0 0 0)
(0 0 0)
(0 0 0)
(0 0 0)
(0 0 0)
(0 0 0)
(0 0 0)
(0 0 0)
(0 0 0)
(0 0 0)
(0 0 0)
(0 0 0)
(0 0 0)
(0 0 0)
(0 0 0)
(0 0 0)
(0 0 0)
(0 0 0)
(0 0 0)
(0 0 0)
(0 0 0)
(0 0 0)
(0 0 0)
(0 0 0)
(0 0 0)
(0 0 0)
(0 0 0)
(0 0 0)
(0 0 0)
(0 0 0)
(-0.00217849897391 5.75142222926e-05 0)
(0 0 0)
(0 0 0)
(-1.20407795758e-05 2.90944825677e-07 0)
(-1.62953900481e-05 3.93750204215e-07 0)
(0 0 0)
(0 0 0)
(-0.00119697840822 2.87903076886e-05 0)
(0 0 0)
(0 0 0)
(-1.34244109409e-05 3.24377908957e-07 0)
(-8.16677197004e-06 1.97336063849e-07 0)
(0 0 0)
(0 0 0)
(0 0 0)
(0 0 0)
(0 0 0)
(0 0 0)
(0 0 0)
(0 0 0)
(0 0 0)
(0 0 0)
(0 0 0)
(0 0 0)
(0 0 0)
(0 0 0)
(0 0 0)
(0 0 0)
(0 0 0)
(0 0 0)
(0 0 0)
(0 0 0)
(0 0 0)
(0 0 0)
(0 0 0)
(0 0 0)
(0 0 0)
(0 0 0)
(0 0 0)
(0 0 0)
(0 0 0)
(0 0 0)
(0 0 0)
(0 0 0)
(0 0 0)
(0 0 0)
(0 0 0)
(0 0 0)
(0 0 0)
(0 0 0)
(0 0 0)
(0 0 0)
(0 0 0)
(0 0 0)
(0 0 0)
(0 0 0)
(0 0 0)
(0 0 0)
(0 0 0)
(0 0 0)
(0 0 0)
(0 0 0)
(0 0 0)
(0 0 0)
(0 0 0)
(0 0 0)
(0 0 0)
(0 0 0)
(0 0 0)
(0 0 0)
(0 0 0)
(0 0 0)
(0 0 0)
(0 0 0)
(0 0 0)
(0 0 0)
(0 0 0)
(0 0 0)
(0 0 0)
(0 0 0)
(0 0 0)
(0 0 0)
(0 0 0)
(0 0 0)
(0 0 0)
(0 0 0)
(0 0 0)
(0 0 0)
(0 0 0)
(0 0 0)
(0 0 0)
(0 0 0)
(0 0 0)
(0 0 0)
(0 0 0)
(0 0 0)
(0 0 0)
(0 0 0)
(0 0 0)
(0 0 0)
(0 0 0)
(0 0 0)
(0 0 0)
(0 0 0)
(0 0 0)
(0 0 0)
(0 0 0)
(0 0 0)
(0 0 0)
(0 0 0)
(0 0 0)
(0 0 0)
(0 0 0)
(0 0 0)
(0 0 0)
(0 0 0)
(0 0 0)
(0 0 0)
(0 0 0)
(0 0 0)
(0 0 0)
(0 0 0)
(0 0 0)
(0 0 0)
(0 0 0)
(0 0 0)
(0 0 0)
(0 0 0)
(0 0 0)
(0 0 0)
(0 0 0)
(0 0 0)
(0 0 0)
(0 0 0)
(0 0 0)
(0 0 0)
(0 0 0)
(0 0 0)
(0 0 0)
(0 0 0)
(0 0 0)
(0 0 0)
(0 0 0)
(0 0 0)
(0 0 0)
(0 0 0)
(0 0 0)
(0 0 0)
(0 0 0)
(0 0 0)
(0 0 0)
(0 0 0)
(0 0 0)
(0 0 0)
(0 0 0)
(0 0 0)
(0 0 0)
(0 0 0)
(0 0 0)
(0 0 0)
(0 0 0)
(0 0 0)
(0 0 0)
(0 0 0)
(0 0 0)
(0 0 0)
(0 0 0)
(0 0 0)
(0 0 0)
(0 0 0)
(0 0 0)
(0 0 0)
(0 0 0)
(0 0 0)
(0 0 0)
(0 0 0)
(0 0 0)
(0 0 0)
(0 0 0)
(0 0 0)
(0 0 0)
(0 0 0)
(0 0 0)
(0 0 0)
(0 0 0)
(0 0 0)
(0 0 0)
(0 0 0)
(0 0 0)
(0 0 0)
(0 0 0)
(0 0 0)
(0 0 0)
(0 0 0)
(0 0 0)
(0 0 0)
(-6.87587766826 0.19508098804 0)
(-5.3421391411 0.151234979845 0)
(-5.72459920338 0.155904301147 0)
(-3.46857455683 0.0944635026919 0)
(-4.71426278477 0.13345991529 0)
(-5.05114122842 0.137563280019 0)
(-7.80024687709 0.221526189368 0)
(-5.34167217661 0.151221760166 0)
(-2.52300676473 0.0714258590303 0)
(-2.69967123565 0.0735231135609 0)
(-2.70439297027 0.0736517057487 0)
(-3.67127838841 0.103933218213 0)
(-3.67095037406 0.103923932187 0)
(-3.93060089892 0.107046373809 0)
(-1.53040560848 0.0433255022453 0)
(-3.24015325947 0.0917281448399 0)
(-1.27777957878 0.0347991754833 0)
(-2.10396668547 0.0572996368972 0)
(-2.85931569761 0.080946703273 0)
(-1.12668039011 0.030684125228 0)
(-1.73427685703 0.0490970599213 0)
(-0.7228404894 0.0204634817548 0)
(-0.341420480482 0.00966555121843 0)
(-0.603813174371 0.0164443077374 0)
(-0.222065139655 0.00604774398643 0)
(-0.301289352445 0.00852944633994 0)
(-0.532431905605 0.0145003032007 0)
(-0.819136929601 0.0231896163253 0)
(-1.19183187035 0.033740541781 0)
(-1.53027119726 0.0433216970885 0)
(-1.6375539753 0.0445973069972 0)
(-0.602533465528 0.0164094560201 0)
(-2.22672504769 0.0630381779307 0)
(-0.819081091549 0.0231880355603 0)
(-0.87680587787 0.0238790180368 0)
(-0.562930304563 0.0159364537344 0)
(-0.161267591196 0.00456545594563 0)
(-0.172847967193 0.00470735864164 0)
(-0.284631078952 0.00775167096807 0)
(-0.234636863541 0.00664252659678 0)
(-0.386889262361 0.0109527640988 0)
(-0.41434687719 0.0112843638525 0)
(-0.0348676411404 0.000999494396652 0)
(-0.125592325484 0.00355549571277 0)
(-0.0296054463514 0.000811292775712 0)
(-0.0803808779961 0.00220271719094 0)
(-0.1108297903 0.00313757104778 0)
(-0.0261145389452 0.000715629703258 0)
(-0.0395118390621 0.00113262212333 0)
(-0.00868698699295 0.000202134219555 0)
(0 0 0)
(-0.00767783258731 0.000180036442215 0)
(0 0 0)
(0 0 0)
(-0.00518736405708 0.000103654960538 0)
(-0.00984399860359 0.000229056285758 0)
(-0.0271543267593 0.000778389261593 0)
(-0.0593239756599 0.00167945087656 0)
(-0.06256849937 0.00171459571741 0)
(-0.0126118797108 0.000295734235795 0)
(-0.0863123720976 0.00244348743261 0)
(-0.0186635163266 0.000534996902004 0)
(-0.0203245887529 0.000556964817514 0)
(-0.00487337973516 9.15723350229e-05 0)
(0 0 0)
(0 0 0)
(0 0 0)
(0 0 0)
(0 0 0)
(-0.00403650932498 8.06583478988e-05 0)
(0 0 0)
(0 0 0)
(0 0 0)
(0 0 0)
(0 0 0)
(0 0 0)
(0 0 0)
(0 0 0)
(0 0 0)
(0 0 0)
(0 0 0)
(0 0 0)
(0 0 0)
(0 0 0)
(0 0 0)
(0 0 0)
(0 0 0)
(0 0 0)
(0 0 0)
(0 0 0)
(0 0 0)
(0 0 0)
(0 0 0)
(0 0 0)
(0 0 0)
(0 0 0)
(0 0 0)
(0 0 0)
(0 0 0)
(0 0 0)
(0 0 0)
(0 0 0)
(0 0 0)
(0 0 0)
(0 0 0)
(0 0 0)
(0 0 0)
(0 0 0)
(0 0 0)
(0 0 0)
(0 0 0)
(0 0 0)
(0 0 0)
(0 0 0)
(0 0 0)
(0 0 0)
(0 0 0)
(0 0 0)
(0 0 0)
(0 0 0)
(0 0 0)
(0 0 0)
(0 0 0)
(0 0 0)
(0 0 0)
(0 0 0)
(0 0 0)
(0 0 0)
(0 0 0)
(0 0 0)
(0 0 0)
(0 0 0)
(0 0 0)
(0 0 0)
(0 0 0)
(0 0 0)
(0 0 0)
(0 0 0)
(0 0 0)
(0 0 0)
(0 0 0)
(0 0 0)
(0 0 0)
(0 0 0)
(0 0 0)
(0 0 0)
(0 0 0)
(0 0 0)
(0 0 0)
(0 0 0)
(0 0 0)
(0 0 0)
(0 0 0)
(0 0 0)
(0 0 0)
(0 0 0)
(0 0 0)
(0 0 0)
(0 0 0)
(0 0 0)
(0 0 0)
(0 0 0)
(0 0 0)
(0 0 0)
(0 0 0)
(0 0 0)
(0 0 0)
(0 0 0)
(0 0 0)
(0 0 0)
(0 0 0)
(0 0 0)
(0 0 0)
(0 0 0)
(0 0 0)
(0 0 0)
(0 0 0)
(0 0 0)
(0 0 0)
(0 0 0)
(0 0 0)
(0 0 0)
(0 0 0)
(0 0 0)
(0 0 0)
(0 0 0)
(0 0 0)
(0 0 0)
(0 0 0)
(0 0 0)
(0 0 0)
(0 0 0)
(0 0 0)
(0 0 0)
(0 0 0)
(0 0 0)
(0 0 0)
(0 0 0)
(0 0 0)
(0 0 0)
(0 0 0)
(0 0 0)
(0 0 0)
(0 0 0)
(0 0 0)
(0 0 0)
(0 0 0)
(0 0 0)
(0 0 0)
(0 0 0)
(0 0 0)
(0 0 0)
(0 0 0)
(0 0 0)
(0 0 0)
(0 0 0)
(0 0 0)
(0 0 0)
(0 0 0)
(0 0 0)
(0 0 0)
(0 0 0)
(0 0 0)
(0 0 0)
(0 0 0)
(0 0 0)
(0 0 0)
(0 0 0)
(0 0 0)
(0 0 0)
(0 0 0)
(0 0 0)
(0 0 0)
(0 0 0)
(0 0 0)
(0 0 0)
(0 0 0)
(0 0 0)
(-2.90456881592 -0.288175174544 0.227957983488)
(-11.8465378732 -1.92788029899 1.39594914294)
(-2.54322094633 -0.123106816049 0.118851886773)
(-1.00438709628 -0.0565026305563 0.0516610759551)
(-8.47475297646 -1.13009458648 0.844923851807)
(-1.10892758693 -0.0171343300012 0.0291162284672)
(-3.65990224037 -0.511431416337 0.378596595535)
(-2.13696559506 -0.0696162835274 0.0799636653504)
(-3.71968795663 0.00137008037302 0.0639518273775)
(-2.41979369886 0.000299872212917 0.0404530475224)
(-1.28123120111 0.0348931773074 0)
(-5.14183986015 -0.354344821844 0.308228741919)
(-1.83730341933 0.030536575098 0.0131236328616)
(-1.19003553403 0.0205071681133 0.0072791175905)
(-0.818601022738 -0.0302621561943 0.0327100130503)
(-0.182303743515 0.00106933603122 0.0024741444727)
(-0.334454871629 -0.000632369871103 0.00595510650432)
(-0.17385955892 0.00473490843082 0)
(-0.234523657986 0.00663932176827 0)
(-0.435588437 0.00813731880417 0.00226515370695)
(-0.838609625375 -0.0716233227482 0.058474046311)
(-0.788261517432 0.00908766481593 0.00804761066679)
(-0.341286647672 0.00966176243613 0)
(-0.605434752674 0.0164884699614 0)
(-0.223191515647 0.00607841982165 0)
(-0.818665637768 0.0231762741399 0)
(-0.301157788426 0.00852572178668 0)
(-0.534354844266 0.0145526727025 0)
(-1.52984031051 0.0433094987635 0)
(-3.26001425545 0.0881046462583 0.00253260124531)
(-2.10753902674 0.0573969263926 0)
(-1.28153327419 0.0349014039956 0)
(-2.85820508704 0.0809152620915 0)
(-1.73339020433 0.0490719589458 0)
(-1.1304311685 0.0307862742978 0)
(-1.19149630644 0.0337310420284 0)
(-1.53000517079 0.0433141659279 0)
(-1.64025041181 0.0446707420161 0)
(-0.603701434018 0.0164412645896 0)
(-2.22613688114 0.0630215270435 0)
(-0.818907593826 0.0231831238715 0)
(-0.879599480925 0.0239550992988 0)
(-0.722582274271 0.0204561717318 0)
(-0.341315029028 0.0096625659071 0)
(-0.605563969247 0.0164919890583 0)
(-0.22311316134 0.00607628591271 0)
(-0.818724022549 0.0231779270023 0)
(-0.301235990447 0.00852793567157 0)
(-0.534217861823 0.0145489421091 0)
(-0.562783542991 0.0159322989412 0)
(-0.161250941641 0.0045649845998 0)
(-0.285443330044 0.00777379189469 0)
(-0.173692548467 0.00473036005163 0)
(-0.386801604605 0.0109502825238 0)
(-0.234618426426 0.00664200464543 0)
(-0.415770714165 0.0113231407696 0)
(-0.265856887601 0.00752635975515 0)
(-0.927989361906 0.0262712087307 0)
(-0.365155098816 0.00994467009281 0)
(-0.36568411419 0.00995907734986 0)
(-0.496707774927 0.0140617060593 0)
(-0.496692996375 0.0140612876812 0)
(-0.195458854797 0.00532314579197 0)
(-0.125578034756 0.0035550911449 0)
(-0.0977968679368 0.00276861140466 0)
(-0.172503833384 0.00469798646743 0)
(-0.0378322233803 0.00103673523963 0)
(-0.234617405163 0.00664197573368 0)
(-0.0507264650797 0.0014540937084 0)
(-0.0907462977293 0.00248676594491 0)
(-0.125574619478 0.003554994459 0)
(-0.0978027262826 0.00276877725335 0)
(-0.172950288572 0.0047101452722 0)
(-0.0379551440593 0.00104010369616 0)
(-0.234607208245 0.0066416870608 0)
(-0.0507291827098 0.00145417161032 0)
(-0.0909206852968 0.00249154477418 0)
(-0.0593150726202 0.00167919883314 0)
(-0.00868544296304 0.000202098292106 0)
(-0.0178760135706 0.000489865293577 0)
(-0.0179104020631 0.000490807658544 0)
(-0.0239595050492 0.000686808463664 0)
(-0.0239617879987 0.000686873905295 0)
(-0.0428928443712 0.00117541395442 0)
(0 0 0)
(-0.0348622092149 0.000999338688411 0)
(-0.00764648857984 0.000179301460887 0)
(-0.0125854653608 0.000295114849329 0)
(-0.0098416325297 0.000229001230478 0)
(-0.0186602794103 0.000534904114548 0)
(0 0 0)
(0 0 0)
(0 0 0)
(0 0 0)
(0 0 0)
(0 0 0)
(0 0 0)
(0 0 0)
(0 0 0)
(0 0 0)
(-0.00455531878773 9.10253037931e-05 0)
(0 0 0)
(-0.00766407023317 0.000178332355793 0)
(0 0 0)
(0 0 0)
(0 0 0)
(0 0 0)
(0 0 0)
(0 0 0)
(0 0 0)
(0 0 0)
(0 0 0)
(0 0 0)
(0 0 0)
(0 0 0)
(0 0 0)
(0 0 0)
(0 0 0)
(0 0 0)
(0 0 0)
(0 0 0)
(0 0 0)
(0 0 0)
(0 0 0)
(0 0 0)
(0 0 0)
(0 0 0)
(0 0 0)
(0 0 0)
(0 0 0)
(0 0 0)
(0 0 0)
(0 0 0)
(0 0 0)
(0 0 0)
(0 0 0)
(0 0 0)
(0 0 0)
(0 0 0)
(0 0 0)
(0 0 0)
(0 0 0)
(0 0 0)
(0 0 0)
(0 0 0)
(0 0 0)
(0 0 0)
(0 0 0)
(0 0 0)
(0 0 0)
(0 0 0)
(0 0 0)
(0 0 0)
(0 0 0)
(0 0 0)
(0 0 0)
(0 0 0)
(0 0 0)
(0 0 0)
(0 0 0)
(0 0 0)
(0 0 0)
(0 0 0)
(0 0 0)
(0 0 0)
(0 0 0)
(0 0 0)
(0 0 0)
(0 0 0)
(0 0 0)
(0 0 0)
(0 0 0)
(0 0 0)
(0 0 0)
(0 0 0)
(0 0 0)
(0 0 0)
(0 0 0)
(0 0 0)
(0 0 0)
(0 0 0)
(0 0 0)
(0 0 0)
(0 0 0)
(0 0 0)
(0 0 0)
(0 0 0)
(0 0 0)
(0 0 0)
(0 0 0)
(0 0 0)
(0 0 0)
(0 0 0)
(0 0 0)
(0 0 0)
(0 0 0)
(0 0 0)
(0 0 0)
(0 0 0)
(0 0 0)
(0 0 0)
(0 0 0)
(0 0 0)
(0 0 0)
(0 0 0)
(0 0 0)
(0 0 0)
(0 0 0)
(0 0 0)
(0 0 0)
(0 0 0)
(0 0 0)
(0 0 0)
(0 0 0)
(0 0 0)
(0 0 0)
(0 0 0)
(0 0 0)
(0 0 0)
(0 0 0)
(0 0 0)
(0 0 0)
(0 0 0)
(0 0 0)
(0 0 0)
(0 0 0)
(0 0 0)
(0 0 0)
(0 0 0)
(0 0 0)
(0 0 0)
(0 0 0)
(0 0 0)
(0 0 0)
(0 0 0)
(0 0 0)
(0 0 0)
(0 0 0)
(0 0 0)
(0 0 0)
(0 0 0)
(0 0 0)
(0 0 0)
(0 0 0)
(0 0 0)
(0 0 0)
(0 0 0)
(0 0 0)
(0 0 0)
(0 0 0)
(0 0 0)
(0 0 0)
(0 0 0)
(0 0 0)
(0 0 0)
(0 0 0)
(0 0 0)
(0 0 0)
(0 0 0)
(0 0 0)
(0 0 0)
(0 0 0)
(0 0 0)
(0 0 0)
(0 0 0)
(0 0 0)
(0 0 0)
(0 0 0)
(0 0 0)
(0 0 0)
(0 0 0)
(0 0 0)
(0 0 0)
(0 0 0)
(0 0 0)
(0 0 0)
(0 0 0)
(0 0 0)
(0 0 0)
(0 0 0)
(-0.0271451216719 0.000778125394209 0)
(-0.0592975421684 0.00167870254927 0)
(-0.0629907269992 0.0017261662312 0)
(-0.0127253159457 0.000298394186494 0)
(-0.0862801587719 0.00244257547927 0)
(-0.0204938524929 0.000561603235994 0)
(-0.0186556643092 0.000534771820893 0)
(-0.0348578753684 0.000999214457028 0)
(-0.125559500228 0.00355456643581 0)
(-0.0808647931329 0.00221597815819 0)
(-0.0298047195147 0.000816753557349 0)
(-0.110794437655 0.00313657022088 0)
(-0.039503651493 0.0011323874235 0)
(-0.0263081929544 0.00072093650042 0)
(-0.00487204223101 9.15472029001e-05 0)
(0 0 0)
(0 0 0)
(0 0 0)
(0 0 0)
(-0.00407181072408 8.13637476144e-05 0)
(0 0 0)
(-0.00868516454946 0.000202091813805 0)
(0 0 0)
(-0.00772965464602 0.000181251610555 0)
(0 0 0)
(-0.00984286863591 0.000229029992967 0)
(0 0 0)
(-0.00522766624713 0.000104460287073 0)
(-0.0348682352307 0.000999511426481 0)
(-0.125573005987 0.00355494878136 0)
(-0.0808755278678 0.00221627232747 0)
(-0.0298065646572 0.000816804120707 0)