/*--------------------------------*- C++ -*----------------------------------*\
| =========                 |                                                 |
| \\      /  F ield         | OpenFOAM: The Open Source CFD Toolbox           |
|  \\    /   O peration     | Version:  v1906                                 |
|   \\  /    A nd           | Web:      www.OpenFOAM.com                      |
|    \\/     M anipulation  |                                                 |
\*---------------------------------------------------------------------------*/
FoamFile
{
    version     2.0;
    format      ascii;
    class       volScalarField;
    location    "11";
    object      p;
}
// * * * * * * * * * * * * * * * * * * * * * * * * * * * * * * * * * * * * * //

dimensions      [1 -1 -2 0 0 0 0];


internalField   nonuniform List<scalar> 
28582
(
17099.2927944
17097.4343235
12201.3879438
12199.1771815
7303.42988606
7300.06382066
3631.40709683
3626.32875686
48.1693687489
51.8186905589
-27.0892925605
3628.21876614
652.434409935
648.29358014
3625.52167157
3624.57803549
647.796442934
1788.25660627
1787.44670902
17100.0450914
17096.2300324
17095.9571977
12202.5424465
12198.0772026
12197.8295842
7305.99196395
7299.03570709
3635.16883616
3625.33630043
53.1594036559
-27.1025748032
-27.0312431878
3633.31417374
3634.15937629
650.523628551
650.705024499
1801.49965927
3625.35398855
3624.49242488
3625.19278898
1788.90020923
654.162774965
1788.31746951
1789.73137604
49.493095709
53.3334644849
-22.8574778877
-22.833973452
50.7295847737
-22.871978377
1797.64589845
1794.10504598
651.251315903
652.458600504
1797.26646817
651.362626162
1794.6104049
1791.05124488
1789.20801023
649.506591078
648.486814532
1788.45260557
649.692001919
1791.66537964
1786.93779584
1787.97377314
648.224410908
647.946675776
1787.04146843
648.221259428
1788.01402542
1789.28115729
650.709699823
650.840609899
1787.4336762
649.410069922
649.385371322
1788.52141491
1786.70997287
650.757460677
650.773797657
1786.61793714
648.943606462
1786.0827708
649.162660882
45.5191851576
-23.004029247
44.4352210342
44.6385219324
-23.0577243256
-23.0281198611
54.7119845838
-22.8803826026
-22.8631359705
55.4704742166
-22.9034230481
54.3200899118
-22.8794916973
1801.28988064
1800.88562055
650.343655257
650.995150919
1800.29442042
1801.78151904
650.958448692
1800.60306398
1798.77093238
650.53555811
651.407563653
1799.62197838
1799.5946531
651.217173258
652.514098455
652.649759742
1800.10903732
1801.15501054
652.101245948
1799.97327127
651.96485289
1789.79541609
652.129867867
652.477928251
1789.37563424
653.045473376
1789.98335608
653.57936051
1789.63677094
1789.40644068
653.555990921
654.96503275
1789.82424925
1789.58337068
654.314075969
1788.80452846
1787.67635212
652.653239617
652.920443226
654.559714055
1789.23902637
654.05670789
655.817994119
656.739185094
1790.27885761
1789.85120094
655.891242501
1790.05170742
655.159333744
7298.38783544
3625.11034763
55.8404561272
-27.0575618202
3631.4332595
652.055267564
3625.3381219
3624.94043738
654.691661337
657.410390217
657.607117947
3624.42525758
3623.94155429
657.543227144
657.798096238
46.633158257
56.6480955874
57.9369384285
-22.8847477368
-22.9042943406
-22.9152730147
58.9562298062
59.6521303495
1795.21488648
1797.87680099
651.631634726
650.805535634
1797.9401114
650.454517123
1794.96891528
1789.04431461
1789.00731307
655.277917784
655.537416196
1788.70744449
1789.36291211
656.033430272
1789.44659394
1790.38810828
656.395186836
657.68224606
1789.88522129
656.71157535
1789.97841928
1788.85703173
1788.50534038
657.020720403
657.645455965
1788.20672075
656.898569255
1789.29814851
1787.35009656
1787.81243031
657.125121121
657.540547818
1787.70557738
657.263852905
1787.31348455
1787.15307484
1786.76516081
657.793176188
657.566568917
1787.05772873
657.435624748
1787.00394384
3627.18056609
3625.73099176
3625.9160971
3628.10112319
30.3333029993
37.7092846357
30.2040032427
37.1729814819
38.7509857289
-27.1911266404
-27.3278319136
-27.1482710687
-27.2452081972
-27.089248736
-27.1660584807
3638.37486683
3634.85795104
628.648880917
625.150797992
3630.41224382
621.809799788
3631.38588604
3629.33403497
624.632044877
624.342621035
3625.81360222
3625.89736939
3624.44494106
621.224764286
620.398147233
622.531689286
625.330456238
3625.20272703
3627.09412541
625.971952503
644.744813097
629.652586378
645.450628029
3624.91430278
3625.4465429
623.404318248
626.781253335
630.736502079
3628.5685867
3627.07032503
3630.06547097
630.766536847
645.501977754
634.469603758
647.007053697
635.608689156
647.855011118
26.7745715434
28.185331719
29.785033069
-23.0102953037
-22.971392609
-23.0082229417
-22.9783352275
-23.0106629789
-22.9434564961
-23.0105391101
-22.901380742
29.2878317009
29.145856701
32.0540577091
30.0549298274
32.1628693085
-23.013936382
-23.0011775929
-23.014233056
-23.0067860331
44.5894971038
37.4911158597
43.6027293656
-23.0451388589
-22.8529762228
-23.049701122
-22.8857628084
32.489775303
33.4879723019
-22.9998012324
-22.9972938603
-23.0037500199
42.6474763529
37.8328296751
42.5377437444
-23.0387004821
-22.9165288137
-23.0203661363
-22.9415985433
1797.65687513
1794.18769049
632.07209576
627.543165472
1791.47928354
631.218243778
1800.22845069
1794.85446595
1786.28845506
626.260820327
628.439495712
1788.82016968
1792.11871854
629.780859796
1779.72859992
1781.41375327
622.902372639
619.470482903
1783.82065988
1777.84251555
620.283808534
1788.98991794
1784.69192644
627.782982241
624.324701852
1790.30245966
1783.84834051
627.10342132
1788.41408235
1784.1759481
624.167537364
626.304853632
1783.80250543
1788.15954146
626.659113014
1777.79171389
1780.00596838
618.998999508
621.27028597
1777.13909255
1779.7401474
619.438476245
1778.30944896
1779.54603696
617.682578208
621.630875119
1777.48428732
1779.93993909
618.830145426
1779.07994384
1781.49825293
621.715791214
621.923368382
1780.37755604
1780.55740878
620.567861776
1779.62795719
1782.50714572
623.680960785
622.724825721
1781.25494974
1781.06531858
620.96639263
1784.75457248
1780.84620729
632.147291404
626.742019126
1784.81433101
1781.18334475
632.880693265
1788.53349531
1791.85402014
638.921558809
645.177240086
1788.60373558
639.538281216
1792.027476
1785.29903918
1783.46825312
628.33249104
634.732072589
1782.11984036
1786.37453618
633.832583034
1788.70529628
1792.86161875
645.199245111
640.346598742
1789.62590044
639.785652999
1792.08683844
1782.91484042
1782.44702298
623.246850792
623.774647237
1781.80213373
1783.1909178
624.118642296
1783.54983865
1783.67941474
624.287598836
628.196983389
1782.36613672
1784.74305571
625.506039605
1784.54031289
1786.38941878
629.666763083
627.408638148
1785.45748546
1785.3537568
626.611218625
1788.70428669
1784.6581842
635.386038533
631.953713954
1787.47233791
1785.97309684
636.297448824
1791.76288454
1793.64750883
640.636207801
645.822825244
1790.60639121
641.276044142
1794.68395213
1789.85398984
1788.22869251
633.38389634
638.523534778
1787.14635779
1790.98680184
637.440783633
1792.81944449
1796.73169022
646.284736776
643.008601509
1793.9660437
642.012555277
1795.63434
1792.91362526
1789.14557925
639.712381562
636.579804563
1792.02168222
1789.96480433
640.781497437
1797.72767861
644.035091211
1794.98356255
17098.0981823
17096.3955288
17095.5549264
17096.3951457
17097.30653
17107.5095908
12200.3180594
12198.4627303
12197.688604
12197.8618617
12198.3440568
12208.9554085
18312.0182936
18316.6192932
17089.2209723
17093.8200046
17097.6837664
17100.8399789
17106.4318552
17086.6532216
18313.8985624
18317.0471192
17094.170249
17095.044171
17095.5484746
17095.3443953
17094.5153012
17106.0553184
17095.1815426
17094.0442069
17094.0037231
17094.5631029
17095.2208883
17095.6106742
17095.9890121
17108.5243814
17098.2318491
17096.3970647
17095.3818231
17095.3634179
17095.7400426
17095.8869017
17096.1379802
17108.8834734
17095.6088584
17096.0133242
17096.8219209
17108.3753882
13412.4683797
13416.7799527
12194.9851069
12197.2976307
12200.3952137
12205.7807121
12251.2224341
12116.7034188
13416.2711661
13419.1072139
12198.902536
12199.3364861
12198.1859461
12196.086006
12191.7375944
12188.335099
12196.7763852
12196.7529298
12197.2002216
12197.2053681
12196.922024
12196.2309776
12195.2444296
12205.748215
12200.5402979
12198.7612328
12197.8340483
12197.7695763
12197.7350161
12196.9713978
12195.7868968
12208.0423652
12197.4970426
12197.2860386
12197.3619534
12209.2755431
8513.45434425
8518.58032994
7299.00600939
7299.16726637
7298.70878408
7298.48325184
7303.60313671
7227.23390719
8518.10704582
8521.99957616
7296.82859591
7297.52337724
7296.50962491
7292.60588674
7280.54976628
7268.10330448
7299.69708495
7298.80975383
7298.32541111
7297.89012363
7297.21448593
7294.79320015
7288.24302643
7302.44599394
7306.09724501
7303.58470133
7300.99816529
7299.35760403
7298.79772062
7298.01380872
7296.0471137
7291.94316735
7305.39769561
7302.71740292
7300.00690864
7298.93692906
7298.02504947
7296.87010329
7294.87294181
7308.22443012
7297.55004191
7296.19356713
7308.54646785
3619.66005674
3624.26209174
3628.28411338
3628.60427846
3625.28610886
3625.42613201
3626.262846
3597.21235049
3620.14756269
3621.72289654
3624.95203287
3626.2547281
3625.18129304
3623.61277811
3622.94658043
3619.75922282
3605.99963785
3630.46801607
3629.40847575
3626.80896348
3626.05284849
3625.87695616
3624.74114981
3624.11588978
3623.54986972
3621.09707421
3620.82763515
3634.06671715
3631.43257304
3628.32555629
3626.51962709
3625.95119037
3625.90486464
3624.43562826
3622.80684731
3625.54409597
3631.09537596
3627.28647375
3626.5536758
3625.64296447
3624.15555037
3623.8520388
3626.4395724
3624.21544022
3624.01876278
3626.55734845
43.1683180078
45.9273201807
47.8212353321
54.0780860169
59.5836295122
60.3841680373
60.0189479171
62.6214129776
49.5055618033
46.07091207
45.2450093867
47.2927587282
49.7088021478
53.8317467241
57.0576961402
58.825595902
60.964181871
64.77721778
47.3283071496
46.28961876
45.3129978168
47.1347903156
49.1482095012
50.7818146924
53.6452638971
57.4511566649
61.925099138
65.1416676768
45.4058098644
45.102512206
46.3723205981
47.1297755623
48.4897812639
51.0688579583
55.8166119691
60.7044567764
63.3841223771
45.6275544158
47.2224998705
49.1046626208
52.6000342819
56.7540367435
59.7518269717
61.341531982
58.6290576171
59.8940160578
60.5650228239
-27.0493504245
-27.0792551034
-27.090627536
-27.1165582079
-27.1752738883
-27.2912684252
-27.0689806631
-27.0872900979
-27.2312342611
-27.7232937418
-27.2476442842
-27.1503048973
-27.1209794349
-27.2064853439
-27.1265009586
-27.420792233
-27.0046104301
-27.1307169464
-27.2176160529
-27.6370939668
-27.3327848931
-27.0202554294
-27.1120475456
-27.1034813606
-27.1090853791
-27.1011524917
-27.2373814856
-27.1148637942
-27.2783374218
-27.6735828113
-27.0181998905
-27.115497353
-27.0916401956
-27.0927789732
-27.0717367666
-27.0813383773
-27.1087320673
-27.2648016026
-27.6785745972
-27.0834590772
-26.9816078073
-27.2240845665
-27.0959797674
-27.1158491102
-27.2484187373
-27.6519094262
-27.0831619686
-27.2404261884
-27.7070201642
18314.653793
18312.2106153
18314.8120487
15862.5109871
15865.3698609
15863.0240368
15865.4630326
18317.6711173
18316.9549038
18318.2836821
15867.3518522
15864.3656184
15867.1020718
15866.5373098
18315.4436639
18316.395015
18316.6605858
15864.8416577
15866.6756039
15867.1371249
15867.9133822
18318.1595025
18317.458792
18318.486206
15868.2022138
15868.5648957
15869.1765922
15870.3371684
13415.0574744
13413.7561215
13415.889922
10962.4120718
10965.2831934
10964.1111363
10966.5838181
13417.6486986
13417.1047534
13418.6173368
10967.2080469
10968.2292227
10968.069541
10968.4827237
13417.8923629
13418.1084434
13419.1598091
10967.0960801
10969.0543904
10969.2230716
10969.9254086
13419.5936756
13420.290219
13423.9915988
10970.2403153
10967.1390748
10970.4872557
10973.6909428
8516.49441633
8515.32336629
8517.88468304
6065.91470024
6068.80354631
6067.52873341
6069.79067044
8519.88960967
8519.77400047
8521.02856945
6071.1247049
6072.94956455
6071.76925713
6074.55207066
8520.26282864
8520.41377502
8521.20655253
6069.63973547
6071.59010629
6071.73639288
6072.66087097
8518.8275189
8521.74811361
8524.11900022
6073.1840029
6073.21384208
6073.49160233
6075.68262251
3617.18832204
3618.69161499
638.575474364
641.967986532
3622.01892673
3620.67371315
3622.52572989
639.540690052
644.635711458
642.361893405
646.28695356
3626.426089
3624.49315723
3626.2362807
645.940009109
649.142121637
647.373720125
649.989619091
3629.0830262
3627.16059329
3627.12673748
650.676334748
656.374186637
651.216382684
654.475835567
3626.84654993
3626.25686318
3624.99104723
657.814065791
657.735269516
654.552514618
654.411077923
3624.76584362
3623.99611977
3623.62135804
656.634703761
655.788702422
654.461401169
656.336383617
3626.75832742
3624.03249659
3624.84463832
656.466776418
660.041391184
657.489937235
660.029435971
3616.27227134
3624.44411446
3616.25813356
660.852051004
660.700500832
660.375890909
658.793170929
3580.26251119
3599.93252989
3604.32416172
661.672279372
615.287814744
658.121015823
639.723339586
3627.93630821
3627.32185168
649.698782199
650.260815499
650.128863922
653.065749933
3620.62148064
3625.63439523
3624.22245178
647.066389821
642.956229585
650.729360894
646.262915653
3623.33492029
3623.81382848
3624.38762399
643.088497723
646.33399408
645.459576437
646.49915918
3625.95336278
3625.3715656
3626.309199
647.507708475
650.369008922
647.5380841
650.319577407
3625.89223848
3626.86666916
3626.3857897
651.518844418
653.676798742
650.861495952
650.498587564
3624.23627981
3625.23705379
3624.21429013
653.136618616
653.322011898
650.180172924
651.556722234
3623.16249333
3623.86479797
3623.55591902
654.134677984
656.521470141
652.501989331
656.262354895
3622.4615452
3622.99793954
3622.09413476
657.520385596
659.756892188
657.491870021
659.649478034
3614.30907331
3620.13438309
3616.97869005
660.590752685
659.303484341
660.3967801
661.236562532
3623.92292807
3613.75075995
3633.56931691
659.143255965
642.557802547
662.124923736
644.243173328
3630.74107887
3632.19759937
3632.76539384
649.982610392
653.217321124
650.620274888
653.057759497
3627.99538625
3632.09722791
3630.95812061
651.373393002
647.403953763
652.437645758
649.110300606
3626.03711861
3629.30504167
3627.76026864
646.386159416
646.664736913
647.943806391
647.317837054
3626.1292628
3626.90264003
3626.37258832
647.464838237
649.722960393
647.753486959
648.508497072
3625.35922289
3625.93979151
3625.66149206
649.894864506
649.515064971
648.260545937
647.720838014
3624.2790562
3625.37768795
3625.32749248
649.525538101
650.515463526
648.112779815
649.606770542
3623.98415169
3625.29182025
3625.1252459
651.383336971
656.563928471
650.771670988
655.594687016
3622.58819983
3624.34774002
3623.21115288
657.74483827
659.339008284
656.467207794
658.125115863
3620.09082208
3622.11624937
3622.02572072
659.994704193
661.96814905
659.289503731
662.702912039
3636.76200568
3623.72038642
3638.22881871
663.295230187
642.95516599
664.25644123
638.348577479
651.155558439
653.076099115
3633.05012962
3634.81661849
652.651823719
649.517719655
650.713748176
3629.65025505
3633.52666008
3631.72494392
648.376431359
647.81916644
649.936475143
649.892107282
3627.25154442
3629.99619444
3628.24042611
648.142483756
648.171939489
649.794908855
647.421870791
3626.06975928
3626.98710821
3626.4740822
647.822632693
647.522871149
646.808318999
648.182103393
3625.97030223
3626.39250989
3626.39614966
647.92806962
649.865646686
649.174482503
651.382989229
3625.42975947
3626.20156824
3625.40919562
651.211743773
654.971193858
651.964999053
653.806238529
3623.42145334
3624.4229564
3623.63683346
655.344549935
657.738946552
654.452664807
657.750415084
3623.36261954
3623.46902871
3624.24814531
659.009808954
662.665652687
658.793998357
661.287466026
3638.71100022
3626.3232521
3638.78473811
664.11927373
638.296652549
661.9871425
637.410331524
3628.72981981
3628.62003616
650.489536095
647.267320518
647.964267128
3626.71943505
3626.97035447
3626.31293343
646.659234827
648.739395269
647.53630715
650.316167396
3626.30983027
3626.14077494
3625.89071788
649.778079009
651.721083436
651.523937075
653.369262433
3624.77122042
3625.37621769
3624.67968437
651.970555753
654.514565244
653.794175864
656.185798237
3623.76757795
3624.10629938
3623.80084747
655.25194039
657.679108186
656.725399409
658.022855549
3624.56597922
3623.90684318
3624.57205874
658.58950889
660.824530021
658.445512897
659.412608876
3638.54261667
3626.23329087
3638.13389478
661.425812312
637.173771812
659.99184038
638.165135081
3624.63995605
656.462293308
3623.91015465
656.804971885
657.965151703
3624.77301744
658.329626946
659.226702288
3637.89301055
659.764647051
638.968391726
-22.9914905957
-23.081776884
-22.9372093319
-23.0380074679
42.4814566959
43.872681238
-23.118382159
-23.1459017419
-23.066423658
-23.0881122831
44.9214026907
44.4087832801
45.9042898489
-23.1114239396
-23.0599638872
-23.0857452254
-23.0419716637
46.4094693462
46.749614907
47.3403176899
-23.0370854122
-22.982458999
-23.0361545692
-22.9848584461
50.5606491379
48.7979524851
51.5884054596
-22.9422827785
-22.8794861389
-22.9534122761
-22.8667105215
57.4375441164
54.4954669988
57.0096531509
-22.7724283348
-22.7313247641
-22.7874323986
-22.783206718
60.4833577258
58.5662991876
59.464408075
-22.6176453502
-22.6320814725
-22.7022730175
-22.7202366088
59.9222726591
59.8625360916
60.0603664348
-22.7442417121
-22.829054193
-22.8058592705
-22.8737607972
61.7134481893
60.1829713202
62.7628206467
-22.8955004291
-22.9347152546
-22.9274343712
-22.9560816115
67.6727280081
63.035452539
69.540403656
-22.9895733698
-22.8610200225
-23.0179573194
-22.8609064426
49.7438754206
48.6940866249
49.6816127582
-22.8805928637
-22.9899582792
-22.9056422069
-22.9979606572
45.0147905333
46.5617294394
45.3467243189
-23.0270723735
-23.0526549274
-23.0488393042
-23.0985229705
46.388034488
45.2187479665
46.211881126
-23.0519859905
-23.0418277962
-23.0690978407
-23.0527474002
48.3229395881
47.4689924036
48.6524233652
-23.0339682936
-22.9934970884
-23.0426205353
-23.013012397
51.8012307677
49.953544064
51.2318951465
-22.9535107288
-22.865670763
-22.9663081037
-22.9014514766
55.6344665563
52.639034869
54.0539582434
-22.8388776013
-22.8612419666
-22.8751538964
-22.836188973
58.2479096048
55.0837473618
56.6360132397
-22.7503270875
-22.79428697
-22.7254718075
-22.802314744
59.6721140546
58.0334249326
59.6152130746
-22.8682726904
-22.916494273
-22.8969355603
-22.9461885163
63.8433832075
61.4939074313
64.4315002144
-22.9564208564
-22.9655740984
-22.9777761435
-22.9732985122
70.8189631966
65.4610831582
70.7487046508
-23.0222283342
-22.8805740484
-23.0318117104
-22.9004234457
48.3061708989
46.4875278972
47.0425872346
-22.9379082247
-23.0334177001
-22.9731922992
-23.0270635769
45.2953893302
45.8685631623
45.2405062648
-23.048215063
-23.1003974725
-23.0466651149
-23.1168996338
45.9863492675
45.3971017593
46.2279504655
-23.0785569829
-23.0558163129
-23.0873653999
-23.0601548559
48.1912313856
47.2415499438
47.6095705405
-23.0325025193
-23.0085453464
-23.0371769473
-23.0101095637
49.8300589607
48.0457392741
48.4189682489
-22.973522065
-22.9303754388
-22.9753300142
-22.9507967035
51.7247179392
49.3031926683
50.0279282456
-22.9012381092
-22.82402575
-22.9426123192
-22.8754286828
55.8935409096
52.115140776
54.2686326521
-22.7765865892
-22.8721554703
-22.8463419412
-22.9094318779
59.5405704575
56.4304233715
59.171267697
-22.9029187725
-22.9739049156
-22.9154163427
-22.9909164827
64.2314255146
61.5966143582
63.6526679836
-22.9969173863
-22.9766161205
-23.0056499285
-22.9850922419
69.6829785488
64.4219405541
68.2878253933
-23.0374778078
-22.9210395789
-23.0441439548
-22.9471523509
45.1142200199
44.8447137101
-23.032638138
-23.0981869033
-23.0850258929
45.6697836127
44.6275256112
44.9669254533
-23.0687313637
-23.0405299112
-23.0548656707
-23.0260111198
46.7793209145
45.4970622202
46.0906137459
-23.0203840798
-22.9935638903
-23.0101866761
-22.9931503102
47.6425125433
46.8585301679
47.6467194375
-22.955291094
-22.9419499848
-22.9618559174
-22.9278619288
49.3188015581
48.5105458387
49.6036659467
-22.9328862403
-22.8909558084
-22.9065699016
-22.8764278023
53.6422938576
51.0355871076
53.73824326
-22.8720798044
-22.9031820499
-22.8808091822
-22.9053360686
58.7479862762
56.0175661624
58.5833038462
-22.9221160775
-22.9873808572
-22.9175351497
-22.9730598694
62.9294840037
60.0573479312
62.3750373584
-23.0063265152
-22.9987124565
-23.0031762248
-23.0020965762
67.2407864904
62.2485604965
66.4410764878
-23.0561799116
-22.9764751291
-23.0620497654
-22.9888877826
46.3981753879
47.6766385534
-22.9925217378
-22.9821858851
-22.9580488606
-22.9431127927
48.1149411368
48.845598382
49.7785851349
-22.9143190737
-22.8223672328
-22.8740618483
-22.7734173307
50.690951063
50.7309310009
52.2014588763
-22.878760458
-22.9063925506
-22.8765458434
-22.9177403659
54.8069607352
54.3538938998
56.3767328018
-22.8925174759
-22.9022882939
-22.9004489418
-22.9064813267
58.726391367
57.9023940553
59.3317439744
-22.9064048755
-22.9464127919
-22.8940895957
-22.9219014668
61.7015107
59.7861291648
61.4678146189
-22.9831033532
-22.9975899388
-22.9579902145
-22.9885485864
65.6304754219
60.5063820856
65.1832044452
-23.0643338499
-22.9955920838
-23.067689214
-23.0014449015
57.4334099796
-22.8917384386
59.5743682731
-22.8862028441
-22.9110634207
-22.9091544431
-22.9301294048
61.5907295483
-22.9467714704
-22.979049589
-22.9574248855
-22.9780573989
65.3746789767
-23.0687832576
-22.9886051518
-23.0602087178
-22.972091522
1782.90165501
1782.6875371
638.09610517
639.728335642
1783.01780427
639.446463077
1782.32680749
1783.76362711
1784.95141967
640.792256436
642.205876952
1783.75650548
1785.03847436
640.745981514
1785.38260516
1783.78991664
641.072992685
640.488814467
1783.95199097
641.887474379
1785.31507138
1787.03537804
1788.38823497
643.108669019
645.350093548
1788.4362613
643.847178393
1786.97968412
1785.77440254
1785.42983274
641.440233422
643.42155904
1784.52691162
1786.36308288
642.680927662
1787.27700505
1788.82740095
645.910160892
644.994899274
1788.63657282
1787.60798625
644.491645786
1790.79954237
1789.65772944
646.937006236
646.525887261
1789.61999755
647.396108621
1790.92386391
1791.90986317
1793.43640783
647.938965017
649.345995172
1792.99184474
648.296609439
1792.16291149
1790.86407938
1789.9601674
646.959886134
648.253020411
1789.77606819
1790.96373188
647.794015935
1791.85997468
1792.48592377
649.628945028
649.139190873
1792.77786821
1791.78025149
648.679312146
1794.92898619
1794.59455445
652.627239538
650.736638276
1794.01143784
652.588660757
1795.71094046
1795.60031069
1797.0175518
654.622708906
655.989166564
1795.61695709
654.461627918
1796.65618994
1794.29576273
1793.09647585
650.943327717
652.580307959
1793.62734869
1793.42771717
652.603725485
1794.55137735
1792.67275668
655.346177652
653.889360177
1794.23060697
1793.32449667
654.284861416
1792.93568325
1796.45145836
658.452867647
657.00873231
1794.79226936
657.411850493
1794.79880929
1790.61472933
1789.13999411
658.360137352
656.726135705
1788.0570749
657.191946823
1792.18025958
1791.30963047
1791.36128626
655.845081342
654.51614733
1793.12086036
1789.61656893
656.04333902
1789.21445932
1786.47885895
655.516518859
654.334890378
1787.14400363
1787.90349488
655.758430442
1784.79116227
1786.64799895
656.123876667
655.982506559
1786.00318189
655.647782081
1785.04504263
1784.86217033
1785.51521067
655.702440825
655.819037635
1785.80164209
655.368973213
1784.603833
1785.18267144
1785.89913336
655.16059652
654.728177642
1785.73989393
1785.82217236
655.050292214
1785.46044119
1786.56703796
655.930284589
655.351463385
1786.22372372
1785.9638597
655.207826888
1788.18584298
1786.99040452
657.749037251
656.943950806
1786.85883178
658.176146891
1788.50707784
1789.38532572
1791.167693
659.008017178
659.979820628
1790.06555039
659.196738245
1790.0430152
1788.13943993
1787.29654916
657.225901572
658.516346343
1787.02849056
1788.12817942
658.378014176
1789.13659897
1788.84207561
659.995587865
659.38758299
1789.50300036
1788.75371365
659.357253352
1789.03413771
1791.92490878
661.336927345
660.485170149
1790.13576339
660.665687766
1791.54582406
1786.31702463
1784.58799858
661.223073892
659.096195491
1781.67524168
660.199162519
1789.38165218
1787.62133889
1788.18001234
660.34278634
660.610789737
1789.18254231
1786.44437908
660.503066355
1784.47666675
1779.41046385
658.722989649
660.166432329
1779.9530636
1783.51410559
660.029338733
1769.13690951
1777.24967551
670.831607611
658.744669174
1775.37039743
665.292613862
1768.18202612
1760.24817328
1760.18113215
696.337636182
630.052375931
676.181611802
1772.07881724
1754.93642622
1770.58993502
1775.3064321
658.192351366
663.924060089
1774.84243617
1772.28298885
664.922272277
1764.01410902
1786.63444116
635.868639759
673.63115182
1766.47726412
677.064627722
1779.6614244
1794.34788215
1793.03451182
652.027310046
650.330034941
1792.77535601
652.931497273
1793.79144334
1793.7921719
1790.1203966
652.201457949
651.641197876
1791.6658871
1792.34086209
653.571125335
1795.52732167
1795.27489609
650.097365741
652.830410619
1796.68910008
652.809672444
1794.35406553
1795.52025373
1795.97863099
652.488977186
654.159715124
1794.302185
1796.94995082
653.939021344
1789.03630934
1788.54641121
644.647328413
648.604412654
1787.07920831
1790.66407799
646.238031266
1787.99451306
1785.83021847
643.449751677
644.06438733
1786.26952483
1787.21971861
644.838753642
1791.00907246
1794.48574822
649.798474461
648.79960581
1792.65460792
1792.9382798
647.599326848
1789.76717986
1790.505068
645.121975737
647.381884183
1788.77418911
1791.64975039
646.10557306
1787.2564242
1785.94941986
643.855483937
643.829433422
1786.62154856
1786.98643487
644.274483062
1787.98571603
1788.8756561
645.045510786
646.408812631
1787.65703299
1789.05018978
645.221298046
1788.08956012
1789.68028564
644.595619833
645.388180997
1788.20605528
1789.19686824
644.803761252
1788.39889613
1789.60349231
646.438560242
645.765464905
1789.14782564
1789.17133666
645.437064413
1791.01539102
1790.05947342
648.500123093
647.62373434
1791.04361656
1790.11841546
648.647113705
1791.62949893
1792.24883513
649.484889041
650.662867142
1791.73368003
1791.98783304
649.742200364
1790.91174967
1790.2217354
647.62072008
648.57804126
1790.05390396
1790.86671465
648.68557578
1791.48748236
1791.24088871
650.630244029
649.587077082
1791.6656029
1791.25646112
649.755524351
1791.70612005
1792.58890724
652.723968121
651.663552416
1792.58853772
1792.02159421
652.49277211
1791.18943644
1791.3712206
653.61084668
652.600303091
1792.25905128
1790.18067732
652.919218011
1790.93717257
1790.97129395
651.471769197
650.989419288
1791.49720754
1790.30184474
651.962001387
1790.30445818
1788.57840623
651.421485758
650.69997834
1789.32446431
1789.5241005
651.829305545
1787.77361629
1789.94732713
653.030146413
651.931850151
1788.44991035
1788.85775838
651.792330624
1787.20059707
1786.57843302
652.983330084
652.685316671
1787.30377133
1786.905331
652.032708734
1787.57577901
1787.89263199
650.919885711
650.341295326
1788.26864733
1787.41800235
651.043998013
1787.26918366
1787.42697312
652.241303157
650.82939107
1787.21520405
1787.28265227
651.496364583
1786.88870173
1786.43511975
654.834114584
653.661907738
1786.4672515
1786.86203064
654.459090847
1787.11239614
1787.05092054
655.614039399
656.407572369
1786.60384264
1787.5782206
655.411316794
1787.50363575
1787.69606551
653.149447954
653.488342824
1787.31690528
1788.12828437
653.978200792
1787.81896015
1789.01622942
656.192776383
654.8982988
1788.24255266
1788.63903957
655.023668987
1788.25956953
1787.6250284
658.360882753
657.46969977
1788.13731711
1787.99285508
658.352304577
1788.18560771
1788.11672053
659.041992745
659.859077975
1788.33269988
1787.56800428
659.006395129
1788.54712262
1789.14497605
657.385169286
658.35202719
1788.50603305
1788.97906171
658.331522493
1788.22348784
1787.35895786
659.863982463
658.968627194
1787.37667538
1788.36092542
659.080619886
1784.88781109
1787.10632124
660.832508848
660.688571874
1785.22643863
1786.46727736
661.022007837
1782.49381438
1778.99544529
660.485318732
660.008176564
1782.37074162
1779.70284396
660.862706284
1784.73687114
1786.16942979
660.667084445
660.855556973
1786.16007859
1784.97479459
660.944011702
1782.87875
1781.82246984
660.602172395
661.13435091
1780.78503542
1783.53243237
660.908082183
1775.81795248
1776.17626596
665.697648762
660.018698627
1774.23932541
1777.48706737
666.044705995
1771.09992272
1792.17050363
676.236418649
644.172847391
1769.56045802
675.680418571
1794.70009213
1777.60214454
1780.1229323
661.268414233
668.205276271
1779.12138309
1778.11541683
667.470809548
1772.4208188
1794.82837431
644.774776928
676.93406485
1772.18161089
676.604954063
1795.44297669
1798.58402049
1796.06952413
652.716520406
650.093909333
1797.63182737
652.640339343
1797.06480155
1798.99302969
1797.29846779
653.93132831
653.237969113
1798.03979162
1798.45199853
653.7153963
1799.39480325
1798.94585558
650.228761623
652.568753977
1800.1912983
652.505656549
1797.95483893
1799.77650138
1800.19887002
653.066697279
653.269810114
1799.35815832
1800.4774998
653.317302734
1796.15940147
1796.04135949
649.735439058
651.828768883
1794.6756777
1797.42092612
650.55206256
1794.85523449
1792.12085601
648.560715652
648.203803611
1793.40825845
1793.51748886
649.433478213
1797.34548676
1799.54470231
652.208329147
651.578106189
1798.52406035
1798.50956052
651.242864361
1796.05869414
1795.9580143
648.73403696
650.335317109
1794.82315661
1797.36187065
650.032803334
1791.27598791
1791.0829091
646.068567422
647.032916539
1790.29243128
1792.32813799
646.524245366
1790.63698338
1790.08656132
646.1790834
646.723116822
1789.95129723
1790.57657968
646.347248687
1792.17784958
1794.5347519
647.550515747
647.326674369
1793.46248775
1793.20236465
646.943273528
1791.3205485
1791.87237865
646.896698579
647.055404778
1791.06602923
1792.27839254
646.637432181
1790.93103064
1790.47197939
648.363359858
647.432667037
1790.85658787
1790.78814066
648.193657907
1790.85875997
1790.76636121
649.210721516
649.242022451
1790.97588297
1790.56299157
648.892972802
1791.11714697
1791.69307155
647.51181456
648.15466392