/*--------------------------------*- C++ -*----------------------------------*\
| =========                 |                                                 |
| \\      /  F ield         | OpenFOAM: The Open Source CFD Toolbox           |
|  \\    /   O peration     | Version:  v1906                                 |
|   \\  /    A nd           | Web:      www.OpenFOAM.com                      |
|    \\/     M anipulation  |                                                 |
\*---------------------------------------------------------------------------*/
FoamFile
{
    version     2.0;
    format      ascii;
    class       volScalarField;
    location    "11";
    object      p_rgh;
}
// * * * * * * * * * * * * * * * * * * * * * * * * * * * * * * * * * * * * * //

dimensions      [1 -1 -2 0 0 0 0];


internalField   nonuniform List<scalar> 
28582
(
19548.2844516
19546.425542
19548.3609768
19546.1468354
19548.3978109
19545.028404
19549.6960473
19544.5429891
1224.22960336
1290.97255922
-0.111792560469
19546.4283149
17286.0164833
17019.2169032
19543.7459142
19542.813509
16966.2906976
19511.3728368
19509.2377374
19549.0368175
19545.2093537
19544.9263029
19549.5180328
19545.0230957
19544.742179
19550.967358
19544.0056629
19553.5392621
19543.596144
1318.61105299
-0.124122181039
-0.0537431877822
19551.6625379
19552.549156
17401.9538483
17387.3385992
19536.032302
19543.6440351
19542.7581523
19543.4825976
19513.5700568
16903.2545484
19511.4419822
19512.8228714
1244.47380434
1319.77224826
11.2061544683
10.7447223161
1270.33424659
11.6403079614
19523.395841
19516.0797206
17208.0145615
17261.659374
19523.4254023
17171.440479
19516.4429902
19510.6387376
19508.1639099
17112.385383
16977.7107778
19506.673759
17074.7452763
19511.375516
19506.4268463
19507.2625286
16945.2779859
16921.3760451
19505.4772533
16880.0275698
19508.384022
19512.6678362
16978.0478163
16895.9138071
19508.6151997
16955.5425039
16884.210418
19510.3354007
19506.1298148
16852.1914635
16797.9832579
19506.757514
16785.3164253
19504.5485952
16835.8775546
1188.6261123
4.09371447558
1168.77674798
1171.81364352
3.44422069096
3.17803214637
1345.11258839
10.2509009484
9.76272462867
1358.33434495
9.44201758197
1339.06500598
8.95732313428
19536.7475235
19537.422844
17392.3060843
17412.9253187
19534.8094047
19539.1315924
17407.0025684
19533.5798711
19528.191083
17395.2726251
17403.261288
19531.8296301
19529.7856975
17410.310216
17396.0319418
17375.7482696
19530.3856424
19535.1392819
17388.2512308
19530.1852364
17398.88082
19514.4531796
16976.5541471
16901.2188999
19514.7712988
16968.0947204
19514.6224019
16904.2038392
19515.4363008
19513.6274943
16943.0842883
16880.2173584
19514.1869856
19515.6677982
16894.029519
19510.5524733
19508.1929419
16874.6978511
16819.80607
16846.9502976
19513.4039363
16909.4274257
16870.1881549
16890.0688727
19514.0527958
19514.8148597
16897.8400123
19515.0692075
16908.9008235
19543.3590387
19543.4277445
1366.734194
-0.0800618201819
19549.7792421
17317.0419557
19543.6708118
19543.2792967
16863.3818952
16876.2787511
16761.5093631
19542.7833901
19542.3346843
16727.0476013
16662.4643251
1204.52015046
1380.39112049
1403.65435837
8.47706379905
8.85748509017
8.73750072336
1421.78945873
1434.44731373
19518.5477443
19523.8569508
17335.7678833
17236.8556341
19524.4735755
17263.6330579
19517.0726972
19516.2942322
19513.5705018
16828.8669878
16855.9519801
19514.7102286
19515.8135126
16830.4594428
19513.4331806
19513.7972002
16868.9298185
16847.2086851
19514.6197085
16831.428668
19512.1790567
19512.5817442
19508.407272
16758.9216736
16807.1943332
19512.102927
16794.0203349
19510.2376526
19512.5232552
19507.1701188
16731.5046582
16699.5598559
19512.1886144
16709.4812038
19506.9065942
19512.9915734
19507.8656576
16683.4079919
16680.471288
19513.5301874
16692.4075415
19507.1895042
19545.5224954
19544.1791688
19544.2733841
19546.5427549
908.226686997
1051.79772736
905.456790833
1038.59339758
1064.0668803
0.0624742897335
0.259735552325
0.11519924777
-0.231272261511
-0.00695206864814
-0.178526196708
19556.7764139
19553.2799921
17777.0782962
17519.1889226
19548.8726145
17366.8522969
19549.6488646
19547.6380246
17480.9764367
17479.3030286
19544.2658015
19544.3521305
19542.828182
17336.7013911
17057.3364623
17404.3523816
17250.1634512
19543.4308127
19545.2531642
17054.5778339
17085.9972062
17212.8129211
17216.6201162
19543.3515753
19543.8730843
17437.4204678
17296.4682153
17353.0555927
19546.8872732
19545.4867975
19548.4532077
17257.1218173
17243.6478854
17331.7353642
17341.9627661
17339.963746
17357.5392315
845.112798059
869.008807408
898.582846229
8.61298984667
11.9383501918
10.2591289472
12.5654850695
18.0783170386
15.1071732276
14.6423503095
12.1732359723
889.130673744
887.201949791
941.915324522
902.6165378
944.412088949
10.7983191367
10.8689681292
10.1565725248
9.97473725109
1167.64169947
1045.95172249
1148.8751847
7.87978976495
7.40494520316
7.04666443354
6.39571825753
949.713471649
968.284347076
8.77851477255
8.50896742928
8.34894113696
1133.42446119
1048.26172596
1131.17645914
6.42338641594
5.36471957451
6.46899904949
5.42396786046
19545.3496219
19539.9609719
17945.1282527
17692.5190716
19536.0831625
17868.5266375
19547.9784938
19540.4998201
19527.437546
17609.3077752
17675.712024
19531.847464
19535.8728625
17774.2287781
19517.6997463
19519.4014788
17447.7991315
17215.8587112
19524.3558927
19512.7271101
17285.9720215
19529.4846706
19523.6508517
17627.4651056
17444.3940899
19532.3364209
19521.6719951
17575.8487263
19528.532942
19522.0679646
17464.0877663
17586.421339
19521.1848943
19528.5494261
17584.8624052
19511.6801246
19516.1033619
17201.1974342
17328.731197
19511.2181964
19515.1018328
17205.999226
19511.0708121
19510.1866838
17140.8609151
17107.5983625
19509.9975291
19512.2187996
17166.396787
19513.542666
19517.6795767
17365.995591
17320.8523033
19516.0663977
19515.295307
17274.2162837
19512.6331148
19514.6367569
17183.6911086
17291.4287499
19513.2926236
19514.2617658
17237.7084633
19511.3651244
19508.0867901
17071.4960793
17076.5672391
19510.740753
19511.0434351
17099.4479214
19513.4287413
19517.2907978
17066.4726667
17129.2437796
19514.111139
17106.6847824
19517.1074368
19512.5909539
19513.0423575
17148.4520213
17214.7151318
19511.6614175
19513.3694987
17155.3216165
19514.4878078
19518.9410846
17160.2875436
17208.8760581
19515.8680409
17149.3603653
19517.8552104
19518.8836243
19519.4605465
17364.2914673
17450.9949047
19516.8327209
19520.7614285
17393.2550605
19517.8858387
19515.9345558
17336.5411052
17330.8717831
19515.9436726
19517.6865854
17366.8696683
19520.1193744
19521.7668849
17347.8235894
17366.9419215
19519.953265
19521.4999797
17370.87678
19517.043392
19514.8195277
17250.2919863
17296.4184936
19515.5569697
19516.8446655
17290.4660583
19518.3434365
19520.4743082
17241.3340769
17289.7560274
19517.4799266
17282.1793304
19521.4564857
19520.5884668
19522.2593218
17320.2327916
17326.2738503
19520.1044528
19522.3559419
17310.0783669
19521.5324888
19526.2967123
17309.7464673
17331.1336333
19523.5522957
17303.6478789
19524.0473028
19526.2869261
19524.3165054
17339.1103028
17347.1261561
19525.0465993
19525.1189136
17348.6544646
19528.8870052
17345.9733729
19526.2319259
19547.0899124
19545.3854811
19544.5274996
19545.3693147
19546.2896624
19556.4850254
19547.2927902
19545.4285854
19544.6267791
19544.7922232
19545.2984509
19555.8907378
19536.4754071
19541.1083449
19538.1981134
19542.6816063
19546.5410195
19549.776719
19555.4136827
19535.6331798
19538.3948088
19541.538983
19543.1526232
19544.024657
19544.510589
19544.2819331
19543.4527326
19555.0082884
19544.1627518
19543.0317094
19542.9912951
19543.5381214
19544.1814496
19544.5827073
19544.9735569
19557.5102294
19547.2233032
19545.3885581
19544.364642
19544.3330939
19544.7094692
19544.8700051
19545.1265713
19557.868345
19544.5779651
19544.9912091
19545.8104077
19557.3603259
19534.3413481
19539.2536654
19541.2752568
19543.4395318
19546.9758118
19552.7233437
19598.1418033
19463.5361049
19538.3375335
19541.5138872
19545.791129
19545.7599922
19544.6483943
19542.891349
19538.6871351
19535.2883243
19543.5535185
19543.6536792
19544.130967
19544.080117
19543.7269405
19543.0754417
19542.1776501
19552.717052
19547.5115932
19545.7316043
19544.7959646
19544.7265181
19544.6934356
19543.9339788
19542.75176
19555.0004297
19544.4280861
19544.2324231
19544.3274688
19556.2352682
19531.7155923
19538.9977325
19543.1004429
19543.1604398
19543.3759359
19543.4429611
19548.5818763
19472.1747825
19535.1115829
19542.1422306
19541.6715739
19542.0389673
19541.0982873
19537.4749258
19525.5123745
19513.0813273
19544.6673141
19543.7855143
19543.2948782
19542.8415104
19542.160477
19539.747731
19533.2061421
19547.4220045
19551.0686651
19548.5510039
19545.9633586
19544.324554
19543.7685177
19542.9853345
19541.0166121
19536.9101398
19550.3684172
19547.6891034
19544.9783161
19543.9094251
19542.9973986
19541.8441974
19539.8473065
19553.2022965
19542.515779
19541.1546371
19553.508119
19535.0681053
19541.6951007
19546.6910029
19546.9971306
19543.639383
19543.9692605
19544.8164382
19515.6418906
19538.3648544
19539.9517354
19543.1436881
19544.6242083
19543.5160444
19541.8604589
19541.2038414
19537.9140983
19523.7579519
19548.7980794
19547.7201538
19545.1324861
19544.3615859
19544.1414311
19543.0163586
19542.4555173
19541.8546647
19539.2765251
19538.886731
19552.4471056
19549.7138959
19546.5352509
19544.766007
19544.2859397
19544.2911007
19542.779929
19541.0983344
19543.7678616
19549.3868532
19545.4787512
19544.7602215
19543.8898335
19542.4171464
19542.090713
19544.623596
19542.5446698
19542.3357371
19544.8742741
1149.96116924
1200.89912791
1231.66872507
1319.14903626
1415.44012502
1439.8555669
1441.27184497
1485.51106772
1242.30845226
1192.70365444
1184.87503371
1226.79754167
1265.58168767
1306.52528846
1375.28026343
1422.49955544
1460.16510921
1526.86711605
1207.49605769
1206.11535847
1188.76033646
1221.03433253
1254.17244406
1278.57638308
1296.97071397
1397.80207566
1478.21023553
1533.25286575
1189.42626299
1181.82562141
1204.94816514
1217.0152766
1236.51828908
1268.92761843
1369.24154209
1457.6929994
1502.93756131
1187.76725352
1203.99698361
1221.87072475
1312.8944694
1384.52074946
1439.81031008
1466.33949889
1416.09510476
1440.13442449
1451.32718787
0.0756532130097
-0.100944146465
-0.11312753599
-0.138773885843
0.0677653882159
0.721038923931
-0.0914806631422
-0.109790097934
-0.253734261061
1.29578776703
0.752868078832
0.471570828165
-0.106416185115
-0.228985343934
-0.114546791622
1.3604356028
-0.0271104301219
-0.153216946427
-0.240116052904
0.775494241743
0.577024070745
-0.0427554294118
-0.134547545555
-0.12598136065
-0.131585379052
-0.12365249172
1.27484828464
-0.137363794233
-0.300837421775
0.915913370528
-0.0262572199121
-0.137997352956
-0.113362020861
-0.115278973241
-0.0942367665686
0.300012881421
-0.131232067349
-0.287301602562
1.05388292943
-0.0858987312875
-0.00410780729999
0.85505007996
-0.118479767433
-0.138349110169
-0.270918737281
1.09003115516
-0.105661968629
-0.262926188412
1.3773768185
19539.1225102
19536.7029916
19539.3033238
19535.7028309
19538.7879972
19536.3009385
19538.8582274
19542.1671538
19541.447946
19542.779164
19540.8362801
19537.8503626
19540.5771596
19540.0250187
19539.9395476
19540.8910968
19541.1556925
19538.3154841
19540.1471344
19540.6233303
19541.3938894
19542.6488358
19541.9349406
19542.9614526
19541.681743
19542.0492655
19542.5959379
19543.7667043
19537.3865322
19535.558032
19538.18819
19532.8051892
19536.4820128
19534.3710581
19537.7908422
19540.1127061
19539.5757256
19541.0968331
19538.6699488
19539.676222
19539.5324008
19539.9284643
19540.1282221
19540.5175512
19541.4807395
19536.9568669
19539.7730994
19539.4691384
19540.6890202
19542.0708219
19542.5932726
19546.3977136
19541.5526744
19538.5904498
19541.720399
19545.131629
19536.3184601
19533.519827
19537.7906676
19529.7813766
19535.2735357
19531.3840307
19536.8414651
19540.3035993
19540.2086511
19541.4391738
19540.2198792
19542.3758672
19541.0129187
19543.9773645
19539.1285806
19540.0326753
19540.9726318
19537.28679
19539.6917892
19541.2112589
19542.1092839
19539.2353105
19541.8877353
19544.5260621
19542.2017773
19542.6210745
19542.9204704
19545.1155793
19531.3838835
19535.305588
17129.9874642
17122.4104734
19538.2105914
19537.614313
19539.8959158
17135.1973593
17162.7815401
17116.6660538
17125.9297292
19544.7771775
19542.4643811
19544.6400631
17169.9698474
17216.6606158
17133.5727185
17153.4079936
19547.5204992
19545.6119569
19545.5712846
17223.244428
17205.1285827
17155.4609678
17060.2928911
19545.1750659
19544.6522334
19543.3041338
17154.9203681
16834.6275421
16988.9632684
16740.5979925
19543.2198561
19542.2848215
19541.9208368
16720.7755019
16583.0074173
16693.3009525
16675.5545088
19545.3753316
19542.4009805
19543.3030089
16613.9013962
16761.5465245
16694.0303925
16741.2141616
19534.8017482
19542.9628224
19534.7470017
16777.3003429
16620.6060571
16740.7287988
16454.7231928
19497.3391067
19518.3310787
19521.9380322
16671.0095755
15844.9881939
16503.2617575
16438.8033617
19546.0742669
19545.5659447
17125.0831069
17170.0651144
17222.182183
17238.7082951
19538.9041432
19544.0231035
19542.6197259
17165.0078314
17125.7488063
17237.1408513
17203.757361
19541.5294265
19542.2225582
19542.7723514
17111.6058345
17117.0001772
17177.798856
17123.6838609
19544.1920958
19543.7297094
19544.6188618
17126.9532123
17137.8223254
17115.3604456
17100.2949579
19544.2719431
19545.1477175
19544.619757
17138.0876252
17025.422372
17085.9766963
16949.9738227
19542.5342874
19543.4556965
19542.422279
16963.1924009
16796.6348485
16928.2495053
16883.2253064
19541.4587578
19542.1213249
19541.8017348
16767.9763581
16724.380457
16875.5434829
16840.8775976
19540.674399
19541.2550717
19540.343534
16730.8395594
16730.2303068
16824.1275239
16736.9085828
19532.3366331
19538.3271751
19535.0802492
16714.3274031
16430.4123735
16698.8352626
16441.5676857
19541.316961
19531.5817003
19551.4961376
16477.6970741
16458.6787846
16498.4386872
16449.3427475
19549.0479842
19550.5539579
19551.123921
17248.1443782
17261.3818368
17345.5030991
17361.0337377
19546.3227515
19550.4073434
19549.2795447
17265.3301997
17235.0516625
17359.9416387
17294.8189246
19544.3709529
19547.6203329
19546.0608473
17201.0687398
17139.5996221
17249.9897695
17136.712365
19544.4277343
19545.210325
19544.6566666
17129.0740603
17108.4280214
17127.5614672
17132.7335496
19543.622811
19544.2183892
19543.9242602
17081.4031162
16976.3912754
17109.0480993
17046.1253241
19542.6235282
19543.6892326
19543.6575239
16951.2132381
16892.5999419
17040.601233
17026.8522375
19542.3302
19543.6721304
19543.4937867
16899.7848097
16873.897136
17035.180363
17002.3637116
19540.836192
19542.6811711
19541.4812671
16839.5194288
16704.7352599
16922.2533195
16700.216401
19538.1736732
19540.2946932
19540.1442085
16659.1460525
16504.7320236
16665.9632639
16582.8158756
19554.9191057
19541.8131149
19556.4201185
16560.4389108
16455.7649231
16652.8073622
16470.8008998
17362.1933255
17374.934915
19551.3838026
19553.1627964
17373.9030271
17316.8756194
17388.9083458
19547.8855871
19551.8433074
19550.0341108
17276.9919409
17187.963814
17371.1229867
17342.9370181
19545.4772742
19548.3053027
19546.5478278
17169.4795242
17140.8661304
17318.9714545
17175.7238855
19544.3637049
19545.3162646
19544.8055754
17119.8397048
17063.255751
17135.6289688
17110.5682346
19544.3597865
19544.7820261
19544.783289
17057.5102161
17060.0505524
17115.3947153
17089.2175854
19543.8005537
19544.588061
19543.7760407
17061.4048457
16971.4137964
17072.7233233
16871.9524701
19541.7237321
19542.7492051
19541.9343204
16891.4866073
16714.9750715
16816.0480168
16730.8125719
19541.607007
19541.756026
19542.49977
16691.0817276
16605.5846048
16727.5564378
16619.0148153
19556.9764595
19544.538005
19557.0489168
16674.7988386
16466.9025845
16694.4762082
16498.9538857
19546.9732128
19546.9000492
17344.3897678
17162.6855442
17061.8449032
19544.9193575
19545.2567807
19544.6193583
17135.560453
17152.4798114
17029.1717175
17057.2803963
19544.5225779
19544.4907152
19544.2309976
17162.5941592
17048.2094453
17068.088004
16937.2846071
19543.0129377
19543.7067133
19543.0204033
16989.2132666
16868.9567901
16876.6734299
16798.9812126
19542.0140297
19542.4240315
19542.0711074
16827.5498407
16717.1950204
16772.7439645
16696.0715795
19542.7454436
19542.1498431
19542.8009667
16722.024275
16619.7954831
16701.618153
16611.4945653
19556.831614
19544.4670045
19556.4926369
16693.5130879
16520.4167518
16702.9176154
16572.1275518
19542.9483325
16776.7388726
19542.2196206
16751.905304
16697.1486826
19543.0692232
16701.1633933
16606.9263787
19556.3195593
16697.087262
16596.9220031
6.67161271876
2.44228435749
7.71432349619
2.89315544193
1138.07678075
1162.02182435
0.661055036803
0.619093300764
0.847147572765
0.818112586695
1182.23915595
1171.76868138
1199.68154095
0.932188938865
1.22702662064
1.42851103461
1.4439463287
1208.0458824
1214.95897888
1224.84052437
1.40116893299
1.04072095243
1.48410300681
1.00843873956
1270.9922738
1248.39129243
1287.0646789
1.75276564213
10.1398261462
2.46743776089
13.154058196
1373.6783544
1324.89441547
1368.0058707
20.5532433323
25.6226247768
22.9480305934
25.559095065
1432.9801829
1403.16680536
1419.17390988
21.4587689671
19.0892469974
18.0627594826
14.9704744925
1436.71916559
1434.96953973
1442.9507237
14.3847611022
9.36720262271
10.5546145773
7.18088326376
1474.13338202
1444.81982288
1493.31019209
7.51514985099
8.12945724675
6.81494468619
8.24090556976
1539.43386981
1493.43348418
1595.32427951
14.6477261914
44.7453847973
15.304435873
24.1752325996
1254.29434799
1224.45231703
1252.67281787
14.391529546
10.0150194866
15.1480581862
10.7228945444
1174.64070783
1208.08735636
1186.32057697
6.89862044224
6.11162956213
3.35580954945
2.64035219709
1207.79917686
1185.74450493
1205.16015289
3.41924028023
1.94736108966
2.01862629531
1.50704001544
1244.90287171
1229.36477391
1250.64883627
0.819051504407
0.814043681778
1.22624587708
1.46310892409
1295.81032228
1268.729337
1286.30480654
2.2676057446
10.2654788405
4.2252214486
8.68231236698
1333.19319533
1292.85236367
1311.21125494
25.8943273168
31.3401143505
20.1914746029
26.4187785763
1400.52739648
1339.31129202
1372.61529037
18.7350050728
13.7682450599
16.9497427357
11.651864178
1438.49629305
1409.13091928
1437.91477019
7.29884872529
5.33515126392
6.08715458934
5.4498151701
1513.44539686
1470.49793171
1523.99204383
5.57875349243
8.03506624116
6.15753882235
8.52898298618
1625.67870446
1539.29338669
1622.97160519
14.5234599161
19.8036742599
14.5895596576
21.6152171249
1236.75021119
1193.87808701
1210.34826447
12.0568968419
5.69200921812
11.0641614811
6.83356999682
1187.99571775
1199.23508259
1186.28857126
0.616265152792
0.635158129629
0.622090791971
0.929324849164
1200.69500183
1189.23382001
1204.14677147
0.975410065522
1.18135564354
1.77465963701
2.39262122665
1239.62826974
1222.79432159
1227.88975399
1.85238543621
2.40909671521
2.77172569302
2.94192733811
1263.29013577
1234.49533842
1239.39304428
4.40485240027
6.25776054592
3.63997017973
4.68417250789
1291.02389931
1252.27129708
1261.21917757
7.50375528476
11.2381818527
6.15724113776
9.27287581778
1349.40003921
1274.2098629
1316.52385829
27.1502015835
18.8978931225
23.7371310722
19.6677000118
1435.00970348
1379.71841767
1429.09500934
7.28414817775
6.42510872537
7.33051927061
6.38107154451
1520.70980687
1473.03262637
1511.6476335
6.97062722993
8.48134593668
6.6971756903
7.56661559245
1598.53852855
1520.77771629
1569.24870415
14.1627812979
24.3537552799
12.7559927223
27.7650465489
1182.12095194
1176.35148048
0.874234440333
2.01819025698
2.69834899076
1192.31686206
1172.47768237
1178.69578668
2.61105619102
3.05046530448
3.15847510338
3.30266058621
1211.77876451
1187.88448483
1197.51310398
3.4746749061
3.24172479737
3.71206515375
4.18288110074
1224.57813193
1207.83229476
1219.46534295
3.65257556702
4.78015968611
6.59442707193
8.37835806064
1246.52955416
1235.04693971
1252.83316523
6.40228044353
9.63623130779
8.36814110908
9.56156857285
1313.90829293
1269.11659626
1320.74254435
15.1445871278
16.5466752398
13.6973699624
12.278526945
1422.05726656
1372.91637421
1420.10855221
7.27313242243
6.38169880681
6.68981546297
6.39195663556
1499.48688099
1446.85304086
1490.54965531
6.257662659
6.91594433206
5.99360193147
6.94034182092
1545.5091596
1482.68694551
1528.46686914
11.7267588509
29.8792722847
11.0976720001
32.3106094758
1198.50621747
1218.60952995
4.74412392688
6.8679493589
6.55567579472
9.91456470153
1215.40753306
1229.85012783
1240.23368459
10.4737898961
14.360439492
13.4366213333
18.0377493391
1266.3948663
1249.83005856
1295.36201197
21.485333514
12.6909803907
24.221403581
11.433831007
1351.74407389
1343.4783249
1379.15903404
6.53664714093
6.51417614422
6.92262212997
7.46690569055
1420.00567292
1404.72348636
1429.82267729
7.33285513985
7.91925866498
8.13492199611
8.9508297641
1476.5389836
1439.539336
1470.66320704
7.14631003899
7.3021413275
7.79207967383
7.93477837754
1512.02599286
1451.21426644
1504.3312025
10.8294636827
32.2474078577
10.3372443068
31.8826687004
1394.93822359
8.75817879956
1432.77155492
8.77819254138
8.98693318413
8.73482979848
8.723319609
1471.53262172
8.12593652909
8.55301928226
8.01019374881
8.97776398249
1502.91802971
11.310749931
35.0225891829
12.3549459993
37.5167375179
19523.6489195
19523.9737202
17136.3028211
17120.9700979
19523.70767
17135.0411379
19523.7012491
19523.4990175
19523.1365179
17111.9222871
17142.1439728
19523.5130148
19523.2100059
17122.78868
19525.0125901
19524.977991
17145.0770199
17123.061356
19524.4605667
17131.8976491
19525.969116
19524.9002112
19524.9444819
17153.4793473
17150.8661912
19524.2175892
17140.8527825
19525.9564769
19524.6718708
19523.5017959
17113.7833906
17118.8005076
19524.1411741
19524.1306641
17120.4063297
19524.5609847
19524.5011725
17142.2128948
17121.2087365
19523.8494899
19524.584773
17129.1040449
19525.132521
19524.9077462
17180.297252
17160.3547387
19524.0622696
17173.0513589
19525.9864292
19526.336727
19528.4449107
17202.5737199
17196.4930217
19527.6215397
17191.5014016
19527.2252591
19524.7924984
19524.7204543
17152.2967775
17141.7803361
19523.8165819
19525.499033
17162.5329636
19525.8895146
19526.7502616
17179.0517427
17154.4962432
19526.9340675
19526.2181589
17177.9045653
19529.082263
19529.3371152
17223.2108456
17201.4741084
19528.5972199
17203.2744885
19529.773478
19528.9075483
19527.7719269
17219.6152702
17167.7296662
19526.5943008
17194.9061692
19529.5191695
19527.7683166
19527.0099265
17181.9125593
17147.4027231
19527.6572364
19526.6956003
17179.0215886
19526.9304808
19520.7968348
17110.8083571
17116.1393748
19523.6069199
19525.0541356
17158.5143597
19516.259834
19524.5716115
17075.7701174
17104.6506182
19522.352733
17012.961364
19519.2341801
19509.947868
19506.3152633
16963.1554655
16787.2582341
19504.0721226
16898.5533673
19512.7605497
19512.0777598
19515.1710708
17042.5437643
16904.4415506
19518.6677766
19507.8475796
16956.2949658
19505.1004919
19498.2403741
16762.7171381
16817.3680091
19501.0993368
19500.5776246
16857.1524732
19500.3884374
19502.1370669
16626.4520601
16690.3104338
19500.5512199
16618.1309527
19501.0251829
19502.3264123
19504.9037246
16589.3222068
16597.1469128
19506.0701744
16586.0434712
19501.722251
19501.8339633
19498.4459568
16692.3239716
16655.121101
19500.1483138
19501.1839333
16642.0364387
19504.558932
19508.0215243
16648.5711596
16661.9275716
19507.7365525
19504.8520343
16636.5229057
19511.7688656
19507.9705522
16658.7285853
16629.4096736
19509.0522331
16669.5939822
19511.1061349
19513.2259288
19513.6943959
16712.6805331
16750.4774611
19513.1700172
16714.6039863
19513.0854981
19511.9014056
19510.2414405
16667.0057872
16713.8336516
19509.876066
19511.4386105
16691.6891489
19512.8806172
19511.5165539
16742.2804701
16730.5415171
19511.7755458
19511.9772486
16728.3936014
19505.825152
19512.438374
16772.6433139
16756.4123928
19510.6487873
16743.9062706
19508.4372976
19496.6483013
19494.248781
16711.9904802
16537.1766119
19489.3323988
16665.2639108
19500.3181665
19502.9372492
19508.8036444
16744.8196521
16730.9164318
19508.238268
19503.6450473
16732.6431667
19493.0105542
19486.1910254
16470.2996905
16628.1036645
19487.0142981
19493.8321591
16630.618777
19460.2619866
19482.7745652
16585.5012854
16577.6472041
19478.4035863
16516.5685488
19460.5829382
19405.678032
19389.4223229
16180.4903331
16403.2370036
16125.7884622
19425.1947605
19384.9431479
19464.0703122
19478.3642903
16531.769586
16470.0535784
19479.1095433
19465.0994165
16483.6566892
19420.1612213
19462.7611647
16415.9126585
15979.4412125
19428.9865422
15942.340849
19449.0568501
19520.5909571
19518.7784146
17169.6345635
17162.6028037
19519.7868959
17200.1305857
19519.1746871
19522.0240388
19520.8868686
17170.0393648
17200.2269275
19520.7134464
19522.4968858
17198.2011863
19521.7671751
19521.3712074
17179.3653445
17245.6776607
19523.3452858
17212.6562987
19520.1692566
19522.9296371
19525.5823567
17207.1992956
17243.3963693
19523.0728272
19524.9865952
17210.5254461
19522.1136675
19520.5863109
17155.205757
17201.0917661
19520.6970457
19522.2481758
17191.1443188
19521.8975405
19520.8185474
17142.9166729
17151.3796923
19521.1980504
19521.2300866
17175.0640592
19522.5375353
19525.5638656
17208.0420273
17232.2123911
19522.6896129
19525.5783857
17199.9414527
19522.4268718
19524.347777
17168.3539487
17224.2899535
19521.7322973
19525.4690836
17187.3647142
19521.0344432
19520.8291272
17105.7134229
17129.5363504
19521.1750417
19521.0122716
17106.5884924
19521.2176985
19521.4904462
17108.5047257
17100.6462649
19521.3991732
19521.4069102
17097.9197931
19520.8392614
19523.3573162
17150.6637242
17153.0870971
19521.1774534
19522.5035856
17129.1194808
19520.4976407
19520.8782292
17105.5896583
17136.579405
19520.0389842
19521.7519596
17108.624835
19521.3223404
19521.6296734
17135.5521859
17106.6069684
19521.8432179
19521.5779186
17109.8893064
19520.5078135
19520.6647208
17140.9637538
17113.075728
19521.5873208
19518.9742202
17115.5931632
19518.5820235
19519.7841226
17109.4655109
17106.6806646
19519.4634628
19518.6778326
17110.8254171
19517.2005449
19514.7682147
17105.9551981
17102.8951438
19515.0323654
19517.0949726
17110.1668706
19514.1992568
19519.3923606
17129.095457
17109.0794923
19517.7559848
19516.711118
17100.599959
19510.7618878
19509.9641649
17091.2831015
16994.3456339
19514.9300924
19505.4073358
17059.7251475
19510.1976055
19512.6274097
17097.6291769
17053.5248281
19512.6244037
19509.7363726
17077.0552757
19507.4138473
19503.1580891
16974.2509567
17004.8012022
19503.9150815
19506.6713129
17032.1383154
19492.8234201
19504.1444085
16894.0059533
16935.876663
19497.8111436
19499.1142906
16877.2794538
19490.1896172
19493.0322138
16841.3724827
16816.7170167
19493.5353783
19490.5316428
16840.5738495
19497.3800963
19499.5485199
16939.104232
16910.1271093
19499.6442353
19498.9770115
16904.5371925
19497.2647293
19500.7930704
16863.1265228
16892.8687871
19498.1081769
19499.3282626
16876.9399409
19495.1548146
19494.0756407
16738.4698132
16792.0502597
19497.0137933
19492.3107276
16766.5111096
19498.8542195
19503.0584516
16722.0440105
16760.2115371
19500.7553991
19501.347676
16758.8000579
19503.1317044
19503.0420578
16847.9071208
16865.3743731
19500.1623804
19505.7068476
16824.5451971
19505.614544
19508.5990322
16798.7947641
16853.8059176
19506.9738393
19507.9708379
16807.3380622
19502.019155
19503.5564545
16735.0083275
16761.5081705
19503.455475
19502.0262143
16758.6475545
19500.8662296
19501.2492241
16734.6165918
16739.9700527
19502.5866703
19498.2111306
16751.2771404
19506.8818491
19508.5469377
16787.3279941
16803.2407914
19507.2438443
19507.6279444
16769.9573365
19505.3478918
19502.0472489
16723.9855503
16773.9436092
19502.1722173
19505.4233517
16747.4590954
19488.6917399
19498.0018667
16699.0533274
16720.5851369
19492.6924357
19494.0877148
16703.0914352
19479.7710142
19475.303501
16599.279557
16426.4823952
19483.2958823
19472.7994717
16599.9018889
19492.9411135
19497.6776977
16691.8750977
16646.536888
19497.5988398
19493.3315687
16661.2132647
19485.8700131
19481.9671614
16446.7737402
16559.4681586
19479.6356573
19487.0951591
16578.4095233
19455.3825219
19467.8580991
16452.7783979
16469.863658
19455.6215567
19466.4564239
16449.8480944
19428.3510632
19465.1525367
15971.867954
16446.6621337
19425.8780595
15993.2289395
19468.5483734
19462.9507871
19476.7973956
16492.8847341
16481.47073
19473.6025334
19466.3661831
16473.4651283
19439.6819446
19480.4685341
16448.9121823
16031.5636638
19442.5900283
16023.8959968
19478.1409536
19526.5007876
19522.9275821
17269.4354864
17291.970534
19525.053679
17304.914492
19524.1389214
19528.3589544
19527.9131367
17267.1780008
17297.8836506
19526.8251059
19529.8395375
17301.9176845
19528.5572203
19528.7379287
17313.907739
17357.6104308
19530.8393618
17326.2876865
19526.4231189
19530.4828588
19534.6622228
17319.4380971
17361.3643546
19532.384743
19532.7895375
17325.0512238
19530.7945455
19528.5632151
17265.1875064
17297.5048825
19528.5869639
19530.6869408
17296.9328491
19529.689737
19526.316494
17258.6832813
17265.7804698
19527.756292
19528.2928757
17292.7777937
19533.144528
19535.673025
17319.3439808
17357.9226992
19533.7285694
19535.0855296
17324.1078436
19531.8923084
19531.3255442
17282.7581195
17337.5700143
19529.8611368
19533.7192443
17314.3052109
19524.7255264
19524.8971012
17170.2925034
17222.9575677
19523.3904727
19526.6198927
17180.866013
19522.881872
19520.9074265
17156.5126238
17139.1238888
19522.0860807
19521.5723234
17156.640174
19524.348593
19528.4063211
17237.545749
17203.1550144
19527.1910702
19525.0378164
17190.2325285
19521.7708199
19520.870666
17132.7731138
17172.7256785
19520.2865593
19522.3821888
17156.0863819
19519.6914059
19519.6824785
17122.4703632
17131.6748871
19518.7097934
19520.629659
17119.7238809
19518.8180271
19516.9361092
17115.3085595
17094.0998738
19517.8480496
19517.2570097
17108.6729988
19519.7504227
19520.1382547
17120.0656061
17131.9147607
19519.7501201
19520.1509423
17115.2104922
19519.664453
19519.8793087
17112.9971719
17134.7414741
19519.1306414
19520.3473236
17115.7943716
19512.8021415
19515.3894502
17040.7234471