/*--------------------------------*- C++ -*----------------------------------*\
| =========                 |                                                 |
| \\      /  F ield         | OpenFOAM: The Open Source CFD Toolbox           |
|  \\    /   O peration     | Version:  v1906                                 |
|   \\  /    A nd           | Web:      www.OpenFOAM.com                      |
|    \\/     M anipulation  |                                                 |
\*---------------------------------------------------------------------------*/
FoamFile
{
    version     2.0;
    format      ascii;
    class       surfaceScalarField;
    location    "11";
    object      phi;
}
// * * * * * * * * * * * * * * * * * * * * * * * * * * * * * * * * * * * * * //

dimensions      [0 3 -1 0 0 0 0];
oriented        oriented;


internalField   nonuniform List<scalar> 
92311
(
0.203960490958
-0.000208639556765
-0.00101359325009
-0.203625315052
0.000887056986018
-0.000204394965328
0.20416472766
-0.000735833686277
0.000736056190995
0.204045113395
-0.000468251997226
-0.00106938084382
-0.203676811058
0.000960776012593
-0.00036686952468
0.204225997028
-0.000723585410506
0.00070534614789
0.204199674376
-0.000254557395254
-0.000298361318025
-0.00100946442455
-0.20354051264
0.000973935953898
-0.000257439389102
-0.000281530656877
-0.000215142269611
-0.000162249072958
-0.000129294219313
0.204457098221
-0.000664494053484
0.00074805632946
-0.000201101535093
0.0512252603108
-0.000101751146122
-0.000125459357386
-0.000103800583786
-0.000122622866285
-0.000287665339915
-0.0510423821958
0.000303872962409
-0.0513432203148
0.0513724518229
-5.95629391441e-05
-8.35893153995e-05
-8.29200545371e-05
-5.87706336515e-05
-0.000210973698218
0.000251431340048
0.000121415738385
-0.00604052447588
0.000141011672895
0.00012844911266
0.00015241126865
9.57841139814e-05
0.0029494334038
0.00197664250712
0.000475664901573
-0.0196831467547
0.000833357847333
0.000753881152498
0.0163627828551
9.01805763739e-06
2.80120859342e-07
7.88377511818e-06
4.62336676263e-06
0.00171122927366
-0.0323539868028
0.00667190175314
0.00563390013735
0.00699921430444
-0.038888260974
0.0596631956315
0.0800656974743
0.0051032995552
-0.000112242692839
-0.000105404372491
-0.000104441699573
-0.000115265082015
-0.000243155422338
0.000264226961546
0.000143564449088
0.0117792047383
-0.000137545347257
0.000126838408453
-0.0117907210735
0.0117572660647
-0.000109123557003
0.000122556347143
-0.0117582870925
-0.000143514889316
0.000131050792663
0.000252470123515
-3.60535337698e-05
0.0513332694949
-3.80900335782e-05
-5.23766334867e-05
-4.95904748796e-05
-0.000199426209878
-1.23586364616e-05
0.0513012110348
4.22555299395e-06
-3.87526414926e-05
-3.39742874564e-05
-0.0513463208331
0.000249144187593
-5.37260181436e-05
8.5237952183e-05
0.0117372993451
-0.000134051855598
0.000122606281851
6.87244789976e-05
0.0128265553848
-7.47433588456e-05
-1.43114115963e-05
-0.0128422900105
0.0128243494543
6.95206238822e-05
5.88581509471e-06
-0.0128434422361
-0.000199546169335
0.204043845894
-0.00172785497398
0.0015128320001
-0.203629276336
0.204234028806
-7.90847816466e-05
-0.000302246464695
0.000312479385434
-6.28476108781e-05
0.204353051858
-0.000182720148346
0.000126949537185
-0.000411937400315
0.204042458816
-0.00164419625821
0.0014683166551
-0.203654177937
0.204384580885
-0.00017452004981
-0.000445521139368
0.000382748965106
-9.82066637671e-05
0.204539939261
-0.000243038634528
0.00012342767045
-0.000229488544163
-0.000272952265322
-0.000267140695042
-0.00148302454638
0.203912534777
0.00140128800162
-0.203251694812
-0.000221473715657
-0.000121712297719
-0.000104767550883
-7.79090530964e-05
-6.75376604632e-05
0.204614748326
-0.00032207075227
0.000361830867808
0.0510369515572
-8.23140731695e-05
-7.05964000426e-05
-8.47457362874e-05
-7.09313999375e-05
-0.00038045984048
-0.0509548566307
0.000377499273422
0.0513180585199
0.00023569280255
-3.69877370349e-05
-3.62043326345e-05
-3.32071468652e-05
-4.07063554812e-05
-0.000195149501657
-0.0008374285466
0.000715475079814
-0.020521108973
3.00576175909e-05
1.92361971616e-05
4.16548396728e-05
1.99059622251e-05
0.000849009743959
-0.000853526762544
-0.000533644849581
-0.000495157095618
-0.0324410605664
0.01722106806
0.0673238072998
0.0156361834859
-0.000640196693365
0.00669078031027
0.00285884391456
0.00707436229164
0.0041696491503
-0.00896952741165
0.0318403049058
-0.00670369598853
0.000294273562994
-9.59163246134e-05
-0.000119421663602
-9.78185916332e-05
-0.000119841636247
0.0511716194879
-0.000268876561486
-8.78105707529e-05
-0.000115169449303
-8.86367484976e-05
-0.00011403751595
0.0511003267708
0.00029289717465
-0.0509604462812
-3.70659086256e-05
7.99953673301e-05
0.0119108524447
2.0338527544e-05
-5.62725489976e-05
-0.0119179139952
-5.01221443325e-05
0.000157042614095
-0.0118624620966
-3.87263695013e-06
-4.91328446652e-05
0.0118085724443
-0.000102709706727
0.0127183648527
-7.55952739319e-05
8.01776009996e-05
-0.0127080344073
0.000172378553626
-3.25284428994e-05
-4.33493502315e-05
-4.07491663396e-05
-2.86313798536e-05
0.0513387726824
-0.000152589641954
0.0512523754822
-1.32585064088e-05
4.87710460249e-06
3.26522532526e-06
-1.11637690419e-05
0.000222896997469
-6.09045127245e-06
-1.44017206944e-05
-1.74138478555e-05
-2.61798032448e-05
0.0512403179399
0.000181168661238
6.81865025696e-05
-7.8044820194e-05
-1.26319640919e-05
0.0128120237204
-6.1031253241e-05
4.71214109233e-05
-0.0116544411845
-2.74498500966e-05
0.0116498866502
4.59249972399e-05
7.0708278327e-05
3.78042394345e-06
0.0128047635358
-0.0127869658688
1.2559822253e-05
0.0127758536397
-6.44657942379e-05
5.69736438034e-05
-0.0110068965929
0.000142502949738
0.000118001770933
0.000145457039334
0.00183336283693
0.0011698202778
0.00144848264808
2.72181616632e-05
-2.7302602924e-05
-4.42030028966e-05
-1.90997615966e-05
-1.34055452865e-05
-0.014061571747
0.00321832381833
0.0117532401498
-0.00346190328605
-0.0127482595638
0.0184819803974
0.00442358317379
0.0161535438131
-0.0107114807406
-0.00251713058583
0.00106740982359
1.82552655721e-05
6.7617272946e-05
3.18400086465e-05
0.00265966160976
0.00145757561675
-0.000161624851066
0.019247964326
0.00513454257278
7.39896392805e-05
0.0127818734815
-7.14256778409e-05
-0.0127425136691
-0.0127799991215
-0.000171731990868
-7.10278777937e-05
0.01282047847
7.68385995901e-05
-0.000144207307964
0.000170945236243
0.0117608983156
0.000132538168595
0.000149763061213
0.0117760998633
-0.0117904283086
-0.000144540112447
-0.0127405683897
8.08529024738e-05
0.0117612442039
-0.000148571130488
0.0128267302736
-6.72291428456e-05
0.0128570087952
-0.000154482584642
-6.50696191456e-05
7.0943471578e-05
6.61918927122e-05
-0.012863337807
0.0128768341937
-6.24492584146e-05
-0.000143446832112
0.000156485247013
0.000132183627035
0.000124009646053
-0.0117596160503
0.0117616567228
-0.000151579006087
0.0128714224811
7.16044992414e-05
-0.00015071893012
-6.02116691316e-05
-0.0128765408124
-4.43740419615e-05
-6.65983662995e-05
0.0128627600928
6.5194172123e-05
6.52625844547e-05
0.0128769176087
-6.36654862921e-05
-0.000128562623596
4.40850451386e-05
0.0117234657923
0.000116528581236
9.0561828912e-05
0.0117459922411
-0.00014130872076
6.77394768528e-05
0.0117374075965
-0.000132560965468
0.0128613678889
-6.57939868909e-05
-2.71001544671e-05
-0.0128388455458
0.0128252032407
-7.21452285929e-05
-8.90518682037e-05
-0.0117065050015
0.0116842517362
9.32307324003e-05
-0.0117143056228
-8.26672269274e-05
0.0116938701351
-2.75137781901e-05
-7.30909677925e-05
6.86275633288e-05
-0.000110306450527
3.02406247822e-05
0.000104911992276
-0.000110104374182
-6.99834228543e-05
3.24447659774e-05
-0.0128434024289
0.0128239922623
6.0694683662e-05
-9.16005182375e-05
-0.0117519319922
0.011739446107
-0.0117677031898
0.0117617027942
-9.73446088321e-05
6.69654025365e-05
-1.62477710622e-05
-0.0128643560925
7.96664071342e-06
0.000116464872888
-0.011793484404
-0.000117742420355
-0.0128615864943
5.90069752762e-05
-0.0117752704271
0.00279929988732
-0.00127833109094
4.11247547312e-05
7.47163514468e-05
5.83876995748e-05
3.60704004553e-05
-0.0019309787271
-4.77723961718e-05
0.000247518212232
-0.00890860741238
-0.012277584679
0.0154982956845
0.00763108315954
-0.00144082108498
0.00317391199577
4.30676442463e-05
3.13903456456e-05
3.75136793086e-05
-0.00458885749178
0.00210491729821
0.000602247496514
0.00315936269483
3.53098279722e-05
5.07869018084e-05
3.37245068927e-05
-0.00386623258099
-0.00218213275984
-0.00967595312425
-0.00510452341914
0.00866653887525
0.00875537187313
-0.00325113808256
-0.0126786474679
-0.000799109627408
-0.0139781258395
-1.78577876081e-05
-5.52623383915e-05
-4.79577097492e-05
-7.35930434437e-06
6.61658188328e-06
0.00412429872567
-0.00914514506845
-0.00183560541248
-0.00846811574732
0.00545446768819
-0.000221351232297
0.00440401925271
-1.43389469332e-05
3.72644578353e-06
3.25416711379e-05
1.73852577719e-05
-0.0135451137317
-0.00465525589747
0.00504109577211
-0.0061732243898
-0.00116942451308
0.000209619265866
5.75939772346e-05
2.85490865691e-05
3.19676371826e-05
-0.0190625833134
0.00255673785215
-0.00651957229449
0.00747292855321
-8.3523715449e-05
-0.0127206698686
-9.74520925292e-05
0.0127287454338
9.05849886674e-05
0.0127368534046
9.69263882859e-05
-9.42414447407e-05
-0.0127300960087
0.00010112698341
1.23271874119e-05
0.0118974155072
-5.69886212153e-05
7.45693200721e-05
0.0119073891254
-0.0119148979814
-1.53378244605e-05
0.0127445000018
-7.47126882222e-05
-0.0127179026143
9.7884205746e-05
0.0118925930269
-3.2929361835e-05
-6.32997036187e-05
0.0127410404809
-0.000119578319165
7.47372834378e-05
-0.0127559171936
4.7356031671e-05
-3.15957038871e-05
0.0127777849405
0.000121306725852
2.78656505765e-06
-5.37865752368e-05
0.000160033898296
-0.0118563078146
-5.91594958195e-05
0.0118023203286
-5.12193451602e-05
6.29699301758e-05
0.0127655472441
-4.67755487891e-05
0.0118348392373
7.58767630301e-05
-0.000104209716703
-0.0118680405989
0.000152965742115
9.25367773251e-05
0.0117845453672
-0.000120577071292
-6.8132229894e-05
0.0127478323683
7.64082560756e-05
0.0127265000826
-9.99074289825e-05
-0.0127160983494
0.000148522860908
-0.0118477932634
0.0117911171681
0.012755852605
-0.0118825641186
-3.09407030541e-05
0.0128178696382
-7.59902941163e-05
-7.49950181834e-05
0.0116753915248
8.2944134051e-05
0.0116883189966
-6.28633903419e-05
-7.85027684092e-05
-1.58087177529e-05
0.0128089628727
6.41872789545e-05
4.17722769389e-05
-5.39540892111e-05
0.0116608202784
6.83837420133e-05
0.0128181638133
-7.76939126767e-05
0.0116755635975
-3.70778651673e-05
-7.23466451782e-05
0.0128071864514
-1.57700943882e-05
5.73861579537e-05
-0.0128234002503
6.02200054742e-05
0.0128296558786
-6.26664943571e-05
4.66059952618e-05
-4.4756031102e-05
6.21481498147e-05
1.85200675101e-05
-0.011671757413
-8.48592678665e-06
0.0116628135624
-7.16885329931e-05
4.48839733141e-05
0.0128124317415
-2.47116194413e-05
-0.0128016728052
2.83549631895e-05
-6.87605398402e-05
6.00169576795e-05
3.43126328371e-05
6.19892678949e-05
-7.04766187982e-05
0.0117329247539
0.0117495461131
-7.92980463428e-05
4.10892097291e-05
0.0117387651936
-4.99750295894e-05
-7.86801222522e-06
0.0127969198793
0.0117217273622
0.0117398545291
2.04750245912e-05
-2.33583043326e-05
1.07866513591e-05
2.09454002327e-06
0.0117311557823
-4.56386437548e-07
-5.14308857596e-05
0.0127777797772
4.59857005326e-05
0.0127909048558
-1.84821766011e-05
3.5044729221e-05
-0.011716455088
0.0117075476067
0.0127932134216
-0.000111089316303
-0.000112894373399
-0.000123431957994
-5.58397592343e-05
0.204956319901
-0.000115444409572
7.90514807222e-05
0.000106117738216
-2.95355953071e-05
-4.15331827915e-05
-3.89772197093e-05
-2.7878174128e-05
-9.65353967943e-05
0.0513560494542
5.26089198808e-05
-0.00635059327078
0.00012532302241
4.5086554887e-05
3.90312150201e-05
4.09997188502e-05
0.00369884908895
-0.0167141394503
0.00561196396282
0.00640080407659
0.00659246037553
0.0285924644664
0.0169539614845
0.00553150078252
0.00872549115974
-0.000128024637196
-0.000114032864621
-0.000112015574429
-0.000130445649198
0.000278182866222
-0.000249338840898
0.0512684257868
-0.000122748725692
0.000163491861211
9.61170160889e-05
0.0117746048431
0.0512555175729
-4.51625128272e-05
-2.66645875228e-05
-3.55323240312e-05
-4.07671115097e-05
0.000126256506637
0.0512716606732
-4.1326679824e-05
-4.52370023922e-05
-4.23647227606e-05
-3.96308067106e-05
-1.87905448243e-05
4.78855471437e-05
4.03205908006e-05
0.0116437412072
-1.34618698002e-05
3.18935593775e-05
-3.169147225e-05
2.87815791202e-05
-1.31800244569e-05
0.0117354142458
1.20723803322e-05
0.0117222545351
-4.65367306444e-05
4.84558665448e-05
-3.65536551188e-05
-0.0117213691877
3.3646166959e-05
0.0513022634139
-2.78131034304e-05
-3.85203662406e-05
-3.34166363339e-05
-3.45015120589e-05
9.56539195348e-05
4.91302831821e-05
-4.1105007318e-05
-1.33085825086e-05
-1.17748933471e-05
-7.5924254532e-06
-1.93071697144e-05
4.04052122873e-05
0.000116788599939
0.0512929166827
-9.59017653434e-05
-3.41930591857e-05
3.9591126216e-05
-3.85233348598e-05
0.0117213467832
3.41986716748e-05
4.97341144423e-06
-7.23605284487e-07
-1.89784921462e-05
-0.0117300215769
0.0117295577669
1.51046562931e-05
0.000110866034269
0.000133845785263
0.000121399957684
0.000727400702857
-0.00520767836461
0.0021564648937
-0.0127527525688
2.68205315668e-05
5.03454369647e-05
4.01059566877e-05
4.88788218436e-05
-0.00734112749298
9.71934555434e-05
-0.0115180618773
3.8441536523e-05
4.56413683025e-05
4.54579253032e-05
0.00661013672872
-0.00811819625848
-0.00281667907402
0.00613534165392
-0.0041011327261
-0.0030900173111
0.000499897220372
0.0024509923907
-8.58169281891e-06
0.0011300389809
-0.0107014426442
2.71302167627e-05
2.58035665872e-05
2.12506669281e-05
0.00530292961158
0.00021998586967
-0.00644802440757
1.40997145426e-06
8.37529309114e-06
1.15114358572e-05
0.00103827830144
-2.28980823889e-05
-0.00918546670512
-0.00254779967336
-0.0127931952103
-0.000176501373136
5.6949531281e-05
-4.80918616255e-05
0.012832823693
-6.04272245452e-05
0.0127864146251
0.000156686690569
0.0117772163462
6.42254553976e-05
0.000102869859647
0.0001818229369
0.0117563351654
-5.29055953096e-05
6.91953661393e-05
0.0117557622382
0.0128276723992
-2.58415335181e-05
-0.0128171410731
-1.93569215981e-05
1.39574888331e-05
0.0128188588828
0.0128352908414
4.24880165383e-05
-4.93238535992e-05
2.28046560329e-05
-2.69199512575e-06
2.29188944154e-05
0.0116458137411
1.8872506902e-05
0.0116622988508
7.21077386822e-06
-3.69819516963e-05
0.0128302750236
2.88359236256e-05
2.10820833149e-05
0.0116601527283
-0.012797140791
-5.21786624758e-05
1.62745337965e-05
0.0128018455293
-3.39694125863e-05
0.0127788669665
3.51171470559e-05
4.45699382549e-05
0.0117073839565
-2.53134424627e-05
4.93602790637e-05
0.011726878297
2.48098354377e-05
0.0116999173302
0.0127847412852
1.91641021779e-05
0.0128058237123
-4.62848287765e-05
3.09931974878e-06
-2.09522514544e-06
1.08767085917e-05
-0.0127907420848
0.0127932015821
-1.00659716696e-05
3.80936858251e-05
-0.011699791542
0.0117052628704
-4.16438504745e-05
-3.22953406743e-05
5.03595555928e-05
3.31630737164e-05
0.0128054836727
6.95584389474e-06
-3.30253347281e-05
7.95325544794e-06
-0.0128031851567
-1.71535246596e-05
-2.25288436588e-05
0.0127969614079
1.80985796749e-05
1.88493475431e-05
0.0127943143066
-1.8849681008e-05
2.73738523751e-05
0.0117111449744
-4.4606521371e-05
-3.41382591154e-05
2.67257863687e-05
0.0117277407479
2.69427800376e-05
1.50791957359e-05
0.0117215171396
-4.04136960296e-05
0.0127924920215
-2.84803387294e-05
0.01279572868
-7.41989653122e-06
-2.34795509712e-05
1.88052554856e-05
2.01881370187e-05
-0.0127942614674
0.0127919650547
-3.04750720344e-05
1.77281600698e-07
-0.0117282111819
-2.19374927496e-05
0.0117324033021
-3.22232833007e-05
1.34226988705e-05
2.48482821254e-05
1.59993742061e-05
0.0127924421998
-3.47781320791e-05
-3.11811227998e-05
-0.000768591910155
-0.0501575019064
0.0502376159616
0.000924409288129
-0.000115727894393
-0.000164605517586
-0.000134706305971
-0.000151003442658
0.000329500278999
-0.000938734436758
0.0506107560286
-6.7337636956e-05
-9.9356016131e-05
-7.94392940673e-05
-8.62461176746e-05
0.000240796521667
-0.0504902588177
0.000909347256689
-0.00116110026657
-0.0507144983263
0.0508153219303
0.00104330281202
5.68459227395e-05
2.37125364977e-05
5.65929186409e-05
2.91692309812e-05
-0.000149336574854
-0.000898330464649
7.63627632183e-05
5.05363680686e-05
6.77977587127e-05
5.82371867502e-05
-0.000103375669989
0.0507605565559
0.000772448703468
-0.0507842494784
0.000208249494219
0.00317773821461
0.023498757287
-0.0290120957392
0.000332460479265
0.0014006685542
0.00014244206076
0.000147001647565
9.62599069743e-05
-0.000175332154726
0.0305552352094
-0.0228002984499
0.00359151914071
-0.0108068522203
-0.000250450984079
-0.000216340332407
-0.000284973457874
0.000386118048822
6.25734665008e-05
-0.00358094773743
-0.0345770371023
0.000343623830218
3.49155792078e-05
5.13058322903e-05
2.64926138183e-05
0.0352807772928
0.00235815063469
-0.00013593283156
-0.00525371403894
0.0294140301587
-0.0188763309611
0.00358330094577
-0.00828450230619
-0.000159620790554
-0.000134036261336
-0.00015299039182
-0.00013780754016
-0.00170276656545
-0.000143959684812
-0.000151756684266
-0.000156372282015
-0.0149848778147
-0.000332239184481
-0.0066170710008
0.0242266462043
0.108239623555
-0.0191427840509
-0.000845657796949
0.0038197577283
-0.00104644136099
0.00502313764336
0.0151208869249
-0.0529806061418
-0.0500142118677
0.00763219651052
0.0161729715907
0.00939890471447
0.0171398308583
0.0157437155288
0.0517809051766
0.0799130178125
-0.0254114287855
0.00278611139732
0.00765008076169
0.00501689822988
0.00904138151772
-0.0328101514408
-0.031978689379
0.0167682511496
0.0211854302806
0.0170471615191
0.0195613801589
0.0994812124667
0.0732263530755
0.00815201180891
0.0103912409436
0.011142876659
-0.036552110382
-0.0118033932367
0.00913229728758
0.0142226443281
0.0157032900022
0.0133558492999
0.01322434278
0.0920489497728
-0.0112335758852
0.000307419519385
-0.000252687665936
-0.000245665444673
-0.000257138722009
-0.000243071583199
0.0499236357078
0.000634056462314
3.2515883475e-05
-0.0498991613756
0.0499686691884
0.000614058749447
-0.000245580708891
-0.000242588273742
-0.000245968904895
-0.000241328676816
0.00064696285042
-0.0499469974397
-0.000320959328324
0.000317240258763
-0.0121639280504
1.29155191342e-05
0.012149162523
6.04427375037e-06
0.0121557417916
8.99591323148e-05
-0.000303273903719
0.000307448410251
-7.47140029936e-05
-0.0121744853448
-0.00015543997323
-0.000184621396691
-0.000188664734584
-0.000145536772338
-0.000435737789585
0.0125146881225
0.01243801324
0.0125037314675
0.0124999179865
0.000352692906628
0.00010650319684
-0.000242726417432
0.000256739023517
-8.84659178416e-05
0.012124982802
0.000812483996814
-0.000200330622181
-0.000215925984838
-0.000213648621225
-0.000200582773265
0.000547009819251
-0.0500722678498
0.0503224981876
-0.000167026010786
-0.000151298228494
-0.000170045949281
-0.000149958811536
0.000464252205731
-0.050205836295
0.000869932969018
0.0121761626785
-0.000268375674916
0.000281539673369
-0.0121920744728
9.26563227821e-05
0.0122351944423
-0.00013480486325
0.000173094409372
-5.23957793216e-05
-0.0122466612663
2.48966481245e-05
0.0011498278676
-6.17133960488e-05
1.50490513991e-05
-7.49145448726e-05
2.23839064387e-05
0.0501944358252
-0.000249433666004
-0.000205165184954
-0.000255824063449
-0.000195700877779
-3.64398550168e-05
-1.12992341316e-05
-3.13560905484e-05
-2.2901231062e-05
0.0504238253472
-0.000101987595221
-0.000118109229675
-0.000131832803781
-8.93277797e-05
0.000324492899453
0.0506067125968
0.0010503797484
-5.97453817575e-05
8.18498476466e-06
5.40043701806e-06
-4.79842695013e-05
1.02664956136e-05
0.00023090352111
0.0121485585436
0.000112363767189
0.0120515383706
7.18315148046e-05
-1.93471505138e-05
-0.0120929555298
0.000141029759258
-0.000151617235434
3.65364009735e-05
-6.41275806425e-05
0.000138476025132
-7.35083056981e-05
0.0121982331968
0.0120781824309
5.62509389656e-05
8.36908968883e-05
-1.07387634611e-05
-8.77947981018e-05
-0.0121194444773
0.0506565361319
9.35855916976e-05
4.71276450716e-05
4.70551087368e-05
8.76164083217e-05
-0.00122603273051
-0.000260724883546
0.00125077668219
0.000126629660887
0.000151043807054
0.000119016405551
0.000164040329489
0.0510090844916
-0.000557052659438
-0.00160724239541
-6.98167945377e-05
0.0119582490341
0.000138109994268
-0.000150951664972
0.00035207624899
-0.000274885557304
-0.0118154747261
0.000148538404863
0.0117472637546
-0.000157600583152
5.2054436598e-05
0.000170281547049
-5.37454947684e-05
-8.18412370017e-05
0.0119910656428
8.09511437773e-05
0.000279804236924
-0.000170201606901
-0.000102993648332
-0.0118490956189
0.0117615837549
0.000953145820583
-4.30818327148e-05
-1.56064363437e-05
-5.39476648489e-05
-3.05489061096e-06
0.000109141939972
0.050755075821
-2.94114284517e-05
2.23765799197e-05
1.2111747509e-05
-1.50879396004e-05
8.43666066925e-05
-0.0507164167461
0.00084010318303
0.000120290218123
0.0122066090401
1.36912067018e-05
-0.0122417375161
0.0120812173511
6.40917031546e-05
6.35280672886e-06
-0.012126481422
3.10995771959e-05
0.0120882787197
9.44477578207e-05
-5.04606672849e-05
-8.17203334811e-06
-0.0121301557026
6.05768846582e-06
0.00104554272702
7.74335232537e-05
0.000107732477214
7.87675369924e-05
0.000103967968423
0.0509423652926
-0.00028978837395
0.0508105726793
5.54137880909e-05
4.51203085705e-05
3.4330177044e-05
6.45422494052e-05
-0.000109987172721
6.69441203177e-05
8.6838690473e-05
7.30887442491e-05
8.46610861785e-05
0.050873230301
0.000894353824823
-0.000223055466479
-2.61512593597e-05
0.0119975853801
2.5820531576e-05
0.000247770401567
-0.000137946143558
-0.0118597080681
5.34545073319e-05
0.0117773818318
1.84683615598e-06
0.0001395255038
-6.86883590651e-05
-2.68089227722e-06
0.0120182850735
1.91348089384e-05
0.000185414120529
-0.000108567554452
-2.60004698557e-05
-0.0119091476468
0.0118391966327
-7.99330338638e-05
0.01202698436
1.04533135939e-05
-0.0120934343982
-0.000100140695527
-0.0119234318673
0.0118594728964
0.000159313727864
2.39042992515e-05
-0.00252576276674
0.000324471192765
0.00034686369209
0.000359621709731
-0.0192805134008
-0.00141128040449
0.0177721304401
0.00409557312912
-0.0204392522996
-0.00490123730665
0.000332505903132
0.000320305909174
0.000342290144227
0.0172013177596
0.00431803704889
0.00270204654906
0.000280974630482
0.000195959664956
0.000230063986714
0.00356283197326
-0.0244748139721
-0.00813166726829
-0.0060717561249
-0.00261526035855
0.00384961919571
0.0120914578904
-0.0038181228185
-0.00410399747138
0.00101871412166
0.00259953699318
-0.0091772062579
-0.00812325706812
0.0128330121269
-0.00563572482495
-0.00397416535019
0.00163552815112
-0.00690347241716
-0.00477483872706
0.00709185250345
0.00810597397765
-0.00740802472198
-0.00749249164581
0.0136549054836
0.0105296375786
-0.00656150374674
-0.00374434390917
0.00930913466653
-0.00760112930054
-0.00496048522139
0.0157262686173
-0.00456588004026
0.000274082768661
0.000213628912598
0.000222051544385
0.00349542516025
0.0186919665469
-0.0287520278557
0.000172729495802
0.000149789629089
0.000191837946002
0.0238439941782
0.00212265897795
-0.00242853651975
0.0037355423083
-0.00288451363186
1.7816401035e-05
-9.26393826012e-05
-2.07078950952e-05
0.000848103578192
-0.0325144381737
0.000266370787132
0.000104114828864
2.79502126304e-05
5.17907380937e-05
-0.00386869934285
-0.0304440943747
0.00577140217222
-7.96150117582e-05
-4.24534519767e-05
-3.21267124838e-05
-0.00923757032417
-0.00834399291679
0.0136768780239
-0.00458846653771
-0.00384967046273
-0.00837013362751
-0.00895663869874
0.0142467787026
-0.00231393759338
-0.00547626998749
0.00149528751442
-0.0146025505196
-0.000308763972093
-0.000346122794073
-0.000297704406777
-0.0102449622825
0.00185838932927
-0.0211309076423
-0.0102174665767
-0.000170134883962
-0.00020255614231
-0.000217453231911
-0.0122316373822
0.00354692514431
-0.000311346561111
-0.000239532062913
-0.000267429985164
-0.00985367157946
0.00177793859622
-0.00342567745301
-0.00225420045587
0.0030633323644
0.00363282285068
-0.00254905008451
0.00189922693487
0.006792988411
0.00408501537286
-0.00328280183045
-2.74713406345e-05
-6.90615543578e-05
-3.44837760093e-05
-0.00352337510633
-0.0257965205619
-7.59768544706e-05
-6.29177699533e-05
-4.63132129644e-05
0.0320523355978
0.00163126188787
-0.00622155370967
0.0125357940687
-0.00679214033154
-0.0046613212355
7.72809222234e-05
0.00308734809413
0.00402441871119
-0.00415481674033
0.00314215301414
-0.0099379988898
-0.00021605204384
-0.00022705358483
-0.000186654511744
-0.00765676685376
-0.0164743400147
-0.00689638535519
-0.000123484130842
-0.000149304917743
-0.000133766175502
-0.00740519572842
-0.000186592415457
-0.000157216327736
-0.000165198297458
-0.00699369859334
0.00176076088881
0.00665049815527
-0.00317508622647
0.00027339450026
0.0140362133704
0.00942139773577
-0.00305092633801
0.0177922101457
-0.00228495293212
0.0125829228259
-0.000345157406378
-2.27690027443e-05
7.41436242444e-05
-0.0125418640572
4.31612785786e-05
-0.0125725439064
0.012588367609
1.301147209e-05
-5.9676219929e-06
0.000327157467094
2.19556760725e-05
-0.0121825910898
0.000333023494096
-0.0121644592786
4.49497707169e-05
0.0121474541809
0.000100252621053
0.0126028087121
2.68356404442e-05
-0.012182714762
2.23209658992e-05
-0.0125329734728
0.0125948105436
0.000122747165689
-0.000333856706978
-0.0125548137417
-0.000154579713162
-0.012607520873
0.0126339550453
0.000193453335298
0.000321942085727
-0.012173706894
0.0121554602305
0.000319745052533
-5.36473985234e-05
7.28486644173e-05
-0.0121931614733
0.0126174525693
0.000161843676183
-0.0125675418737
-0.0121917839233
-0.0126469718555
0.000196164701187
-0.000203460734644
-0.000133967614022
0.0126328281123
-0.000160310598342
0.0126680472451
0.000198873832663
0.000274849840195
0.012130802714
-5.6481899145e-05
0.000174716983915
-0.00010741494451
0.000128584785154
0.0121254009207
-0.000103414002046
0.000234685255691
0.0126590342678
-7.47139790565e-05
0.0121246943062
-0.000196366842168
0.0126426801247
-0.000253430520139
0.000207682881375
-0.0126008915334
-0.0126267499691
0.0002246124037
0.0126614706251
0.000290582320532
7.62495253376e-05
-0.0122117746149
0.000243214259901
-0.0122032159197
7.66673292314e-05
0.0121896008802
-0.0125840807269
0.000232884746868
0.0126774715575
6.23413435144e-05
-0.0122205313383
0.0126577895472
0.000219964894588
-0.000219785326133
-0.0126172386825
-0.000240022701772
-0.0126706401826
0.0126977204936
0.000234669799836
0.000208886679184
-0.0122311580908
0.0122194172203
0.000182593621181
-4.57904992051e-05
-0.0122560466072
2.23704394613e-05
0.0126896303619
-0.0126346178825
0.000216564446721
-0.0122425999775
-0.000252260320598
-0.0127118632481
-0.000112961031468
0.0127093956492
0.000251425382639
0.0126975492344
0.000229290014599
0.00015161838289
0.000125237274651
0.0121438996447
0.000192419851473
0.0121568671595
0.000100005363751
0.0126966314457
0.000236492474559
0.0121502864176
0.000113045798504
-0.000255542363794
0.0127072766669
-5.83907777841e-05
0.000253842187625
-0.0126913031746
0.000267900816852
0.012682075012
-0.000263144377361
8.17361570479e-05
0.000134635632994
-0.000147762768241
-3.03476971449e-05
-0.0120940236708
0.000117932068234
0.0120538919574
-0.000244075236445
0.000261626244066
0.0127049926393
0.00011212610628
-0.0127182496148
0.000251990978878
-0.000101574576921
0.0127168824611
-0.000241274895133
0.0127227218924
0.000236399242709
0.000165719071242
0.0121849000223
8.34846675066e-05
-7.98238632627e-05
0.0121776841284
4.50142009342e-05
0.0127231499858
0.000245537151214
0.0121687335455
0.0127172753593
0.000251170058507
-5.79316604812e-05
-0.000257967639411
-0.0127261447313
0.0127263752994
0.000254989729903
-7.69289050124e-06
-0.0121106411918
0.0120676877614
4.84192356693e-05
-7.88469111949e-05
4.58645162395e-05
0.0127180170209
0.000248400464567
-0.000306198628838
-0.0127110904136
0.000193645139513
0.0126752286292
0.000291009973403
-0.000142773789173
0.0126890194656
0.000296025044523
-7.45603351595e-05
-0.000298461530067
-0.00018053090895
0.000145101320613
0.0118914137628
-0.000148126379505
-9.57981503137e-05
0.0119616968081
0.000109607857149
0.0126540943131
-0.000138239103442
-0.000313784496068
0.000274767751436
-8.08316730176e-05
0.0118946452631
0.000120060867744
-0.000320857839344
0.00020868675513
0.0126885426439
0.00030937541522
-0.000210836854889
-0.0126663795206
0.000334085984656
0.0126810255466
-0.000355768446892
-0.000267993438249
-0.000218855274755
0.000135955924037
-0.000149901352602
-0.0118204330483
-0.000265434400391
0.000137181957772
0.0117504872688
-0.000340470295188
-0.00021195190667
0.000120206773834
0.000323236055856
0.0126937890505
-0.000260314884429
-0.0127224248666
0.000275735142917
0.00013146404545
0.0126997210538
-0.000262660923527
0.0127309739239
0.000251358714535
-5.4521475791e-05
0.0119797969293
-0.000117566799134
-9.34891611221e-05
0.0119324664022
6.69880696088e-05
0.0127118442538
0.00026475401338
0.0119205383982
0.000278299491935
0.00015254295654
0.0127046936423
-0.0127123235493
-0.000287861516465
0.000271583491619
0.0127093400095
-0.0118361356828
-0.000196985803951
0.0117557500578
-0.000132613552386
-8.93488831009e-05
6.57712653189e-05
0.000263875586278
0.0127068290539
-0.000243827250302
-0.0127313917609
-6.4438045472e-05
0.0127340613865
0.000238271497549
0.0127260829663
0.000235702127215
-0.0127046685847
8.11678935789e-05
2.19215159373e-05
0.0121833687952
9.71635067848e-05
0.0122141268711
-0.0122467212072
4.48377406106e-07
0.0127295824093
-0.0127140909708
0.000228962758143
0.0121910497403
6.91547873922e-06
-0.000244257172876
0.0127348886243
-4.04377557512e-05
0.000240741487816
-0.0127318215438
0.00024892029027
0.0127285137247
5.22773189234e-05
2.27838819018e-05
-4.50862155742e-06
-0.0121307886329
1.33149810234e-05
0.0120840318466
0.000245334922842
0.0127308231563
8.01834196447e-06
0.0127388126116
0.000229272947099
-1.83686339115e-05
-0.012738534774
-0.000236237670273
-0.0127441742616
0.0127330213014
0.000219264500243
-2.59175559125e-05
-0.0121323896009
0.0120873888806
4.72109301498e-07
-3.87094860508e-06
-0.0121921039233