/*--------------------------------*- C++ -*----------------------------------*\
| =========                 |                                                 |
| \\      /  F ield         | OpenFOAM: The Open Source CFD Toolbox           |
|  \\    /   O peration     | Version:  v1906                                 |
|   \\  /    A nd           | Web:      www.OpenFOAM.com                      |
|    \\/     M anipulation  |                                                 |
\*---------------------------------------------------------------------------*/
FoamFile
{
    version     2.0;
    format      ascii;
    class       volVectorField;
    location    "11";
    object      U;
}
// * * * * * * * * * * * * * * * * * * * * * * * * * * * * * * * * * * * * * //

dimensions      [0 1 -1 0 0 0 0];


internalField   nonuniform List<vector> 
28582
(
(0.815097877872 0.00375897962231 -0.000741684674353)
(0.81652524897 0.00299474617751 -0.000788069027997)
(0.81556338889 0.00408966661557 -0.000953970872288)
(0.817020244749 0.00293603244862 -0.000738387798993)
(0.815838813514 0.00393115433793 -0.00292498168821)
(0.817875516626 0.00289340319006 -0.00223543214675)
(0.817803143514 0.00491598837405 -0.005012472978)
(0.821673386367 0.00362245873831 -0.00301365003253)
(-0.0626849029591 0.00514186442484 -0.0111722329319)
(-0.305205273394 0.000895222119177 0.00147710306065)
(-0.136825990394 0.135366809068 -0.368716260138)
(0.82091101151 0.00412410432832 -0.00480979281001)
(0.754568579602 -0.008683805282 -0.00693945425952)
(0.75186932428 -0.00889703841599 -0.00648561545562)
(0.821685762064 0.00354080424345 -0.0021857951635)
(0.821188989447 0.00412428220816 -0.00132301863725)
(0.75154031632 -0.00819424416354 -0.00496266053717)
(0.821397508213 0.0045348845424 -0.00189146032971)
(0.821344503277 0.00451420732262 -0.000133646468987)
(0.814255517525 0.00657133718095 -0.000873057377159)
(0.818007781085 0.00115389711264 -0.00050356902274)
(0.817620118233 0.000487778259289 -0.000581819104118)
(0.814198564154 0.00628922459628 -0.000863000526632)
(0.818510129697 0.0015878715536 -2.23130448312e-05)
(0.817970045273 0.000568275505547 0.000197893048917)
(0.813382730417 0.00598809330744 -0.00266525245103)
(0.819182847208 0.0014208342057 -0.00159055445129)
(0.815438258384 0.00608336295253 -0.0044374111596)
(0.821590724767 0.00348591046123 -0.0019846070528)
(-0.325634501337 -0.00705808836501 -0.00460915232072)
(0.190417296629 0.284391567749 -0.248665154632)
(-0.104848653467 -0.186138900537 -0.275845384926)
(0.817665183042 0.0045490942444 -0.00571646563864)
(0.816478484893 0.00471065844494 -0.00566205551889)
(0.763034676011 0.00213581863227 -0.00415241831781)
(0.758253774361 0.00132937717931 -0.00763284156663)
(0.814115016899 0.0049387544432 -0.00600932722408)
(0.821405009425 0.0026690667897 -0.00156506644652)
(0.820903387356 0.0037571288503 -0.000904530273423)
(0.820182352425 0.00301430310981 -0.00102336838408)
(0.820723957947 0.00461126846447 -0.00200660036612)
(0.745203357042 -0.00252075712273 -0.00174986711357)
(0.820554394555 0.00459048657743 -0.000477543534199)
(0.818237582478 0.00382695217527 8.95200199881e-05)
(-0.123774509472 -0.00636105068364 -0.010128718014)
(-0.226280615184 0.0262994810861 0.0054386285502)
(-0.243863702242 0.0638106491543 -2.65800893829e-05)
(-0.212150944035 0.0635136236261 0.029097003257)
(-0.231349484065 -0.00707090482104 0.000966477986831)
(-0.292079869864 0.0342493560834 0.0270021220895)
(0.816893403147 0.00465877304008 -0.00849161625888)
(0.81919128553 0.00478133934813 -0.010935402278)
(0.753374368362 -0.00896655340948 -0.00810893959651)
(0.754544498132 -0.00902477427375 -0.00760089655205)
(0.816815809347 0.00501636405628 -0.00869238608112)
(0.753053462785 -0.00942036158628 -0.00848522212241)
(0.819498964037 0.00440508724034 -0.0107649696949)
(0.821321225093 0.00435696209776 -0.00990038790192)
(0.823456095904 0.00412789862031 -0.00883785409783)
(0.752729523425 -0.00895256336539 -0.00773234930483)
(0.75220318401 -0.00958051353375 -0.0070321860816)
(0.823189862194 0.00438464801959 -0.0087278740064)
(0.752852470384 -0.00951542741854 -0.00812569192834)
(0.821673881257 0.00400762026707 -0.0102033252525)
(0.823484663005 0.00411965316766 -0.00428863548965)
(0.823871777228 0.00413290513964 -0.00733465993299)
(0.750759374251 -0.00776041339939 -0.00274989840631)
(0.752177728274 -0.00905562813101 -0.00569934794827)
(0.823676192665 0.00421218029769 -0.00735550630775)
(0.751198161863 -0.00851680883075 -0.00332979098398)
(0.823446419581 0.0042531694841 -0.00443963392587)
(0.821492487094 0.00469361752882 -0.0029012545545)
(0.749052065271 -0.00578163122986 -0.00108615009913)
(0.749478293588 -0.00582628122323 -0.000828556582487)
(0.822577821042 0.00442825061008 -0.00345641397025)
(0.749435629086 -0.0067106720659 -0.00132083823862)
(0.750043330767 -0.00733270483246 -0.00154075112775)
(0.822577637772 0.00458186948131 -0.00367738591553)
(0.821323071204 0.00410791611378 0.00125442555691)
(0.752084918845 -0.0052847982064 0.000420617465936)
(0.753110063955 -0.00644958790659 0.00147795727986)
(0.822633109006 0.00429662152446 -0.00250417656021)
(0.753790408598 -0.00803458432314 -0.00060761638017)
(0.8225327137 0.00398559521798 -0.00158070615476)
(0.752511685457 -0.00717261013726 -0.000928092675498)
(-0.000940449703147 0.0130981369297 0.00110505668362)
(-0.159139647498 0.230187923644 0.123281225724)
(-0.0207031925031 0.0617934927629 0.00254070028732)
(-0.0270289484028 0.0340638228409 0.00506617859802)
(-0.11869402953 0.122917550842 0.124951738487)
(-0.177348973427 0.085402446706 0.122119345574)
(-0.231602076341 -0.021784009692 0.00314626589911)
(-0.183935013155 -0.0628088383137 -0.0242146693909)
(-0.156475603536 -0.0720249909566 0.0419215579959)
(-0.217419404604 -0.0977985912284 -0.0019427901674)
(-0.123409873116 -0.0754552541048 -0.0087620975004)
(-0.322800396016 -0.0534801536621 -0.00774342940779)
(-0.12362890406 -0.101195227397 0.0190862315182)
(0.814265539667 0.00548787514606 -0.00590676951459)
(0.814506337996 0.00613519633649 -0.00478418481293)
(0.762270969629 0.00198797584081 -0.00517614668003)
(0.762817729664 0.000233259667481 -0.00394020754579)
(0.815256368647 0.00512393750052 -0.00622915564166)
(0.813733095398 0.00611220899126 -0.00444445032123)
(0.762098842867 -0.000589449073031 -0.00505091892221)
(0.815377162625 0.00434056660583 -0.00694008310093)
(0.817196452499 0.00264788997625 -0.00958514496098)
(0.760406694071 0.00153017415147 -0.00617389082737)
(0.758021581225 -0.00187393703269 -0.00765990048294)
(0.816291068159 0.00376836362404 -0.00716180727361)
(0.816327341815 0.00347935690554 -0.00971039512643)
(0.760057087823 -0.00130550621163 -0.00610859311589)
(0.758488239694 -0.00572123348036 -0.00508922251037)
(0.756605138571 -0.00675223962506 -0.00740577814553)
(0.81495522246 0.00464724079246 -0.00920335407169)
(0.814565277325 0.00488390088032 -0.00594295564328)
(0.757331900772 -0.00534094939881 -0.00703463238134)
(0.815472542033 0.00425403710729 -0.00904829871889)
(0.759294981336 -0.00430478182321 -0.00488702422195)
(0.820808353379 0.00501649377489 -0.0027292279543)
(0.747535881524 -0.00504304837627 -0.000882585746454)
(0.748042788767 -0.00464922887446 -0.000218527500705)
(0.820272851797 0.00451454487427 -0.00196535643149)
(0.747357467495 -0.00400424014798 -0.00129975334577)
(0.820418706659 0.00523907714426 -0.00328376734305)
(0.747988708638 -0.00294546149166 -0.000383274981612)
(0.81988619968 0.00404427488659 -0.00200485421455)
(0.820779979834 0.0044693382545 -0.00369373800128)
(0.746684595019 -0.00360922266416 -0.00169783169267)
(0.746755972677 -0.00110457595295 8.80435150678e-05)
(0.820476614987 0.00499629937397 -0.00350984730782)
(0.819892682346 0.00315471787906 -0.00212731444319)
(0.747269295819 -0.00220346167069 -0.000240980620802)
(0.818989893102 0.00400329672425 0.00105807676723)
(0.82051427651 0.00416232019162 0.000918578169699)
(0.751119126371 -0.00384926208067 0.000724799363352)
(0.75223128211 -0.00507430660268 0.0023550812963)
(0.752399429157 -0.00321035121573 0.00194960678084)
(0.819704199751 0.00437132027808 -0.000782497414825)
(0.751231381232 -0.00191498054048 -0.000177531486037)
(0.75124493723 -0.00161995978273 0.00169232872548)
(0.751770045014 -0.000264354997723 0.000372928921015)
(0.817837674477 0.00307136272967 -0.00117056361095)
(0.818987018897 0.00396650186544 -0.00135444652067)
(0.75001201482 0.000103636772908 -0.00135819821669)
(0.818669238249 0.00310666450874 -0.00229839329374)
(0.74993425414 -0.000934030770174 -0.000469798342837)
(0.819410150032 0.00033058339004 -0.0012234478299)
(0.821748350377 0.00164168050825 -0.00174803046091)
(-0.282797390389 -0.0854305811722 -0.0091345556602)
(0.021860130327 -0.0398168924584 -0.347341891507)
(0.818707771364 0.00428680458977 -0.00556390732707)
(0.754223848368 -0.00707045925679 -0.00810739672527)
(0.820079078466 0.0019703951547 -0.0019347835299)
(0.820055035363 0.000434044775079 -0.00193284281729)
(0.745047652449 -0.00171882457894 -0.00148288884261)
(0.750838606428 0.00076862531346 -0.000649780130351)
(0.750212542655 0.00241002687256 -0.00204306545209)
(0.820391523703 -0.000856060629174 -0.00184928962372)
(0.82064660297 -0.00206405970629 -0.000694022365857)
(0.75042259445 0.00242605080481 -0.00185434075112)
(0.750637843548 0.0012909070047 0.00052852700423)
(-0.0550332126129 -0.00694293610893 -0.00965743344801)
(-0.2083021947 -0.12827559577 -0.00557747287803)
(-0.191610693348 -0.129964634119 -0.00487762710159)
(-0.0759091828983 -0.0601075724629 0.0168999284139)
(-0.0590602711966 -0.0362348190418 0.00707020430321)
(-0.0506255121988 -0.0218118280472 0.00725391048823)
(-0.175573640508 -0.106030170887 -0.00259709073975)
(-0.16647280726 -0.0428779618795 -0.000494800112918)
(0.820077884034 0.00343035401612 -0.0110170555598)
(0.817278338535 0.00420958666176 -0.00952797656206)
(0.75445604993 -0.00552856165116 -0.00751586394712)
(0.752861014813 -0.00751246450849 -0.00903076396293)
(0.817676238533 0.00369832927943 -0.00927984363997)
(0.753013468205 -0.00597959086719 -0.0083829603554)
(0.819623143887 0.00403340126214 -0.0111845711815)
(0.820251125372 0.000903281009474 -0.0022286732128)
(0.821041730953 0.00352818918229 -0.00340302234354)
(0.745067591316 -0.00113091480066 -0.000521108875282)
(0.746255673767 -8.838736108e-05 -1.38047183131e-05)
(0.8211638458 0.00255882673958 -0.00273901154584)
(0.820027850208 0.00196269639934 -0.00206078134224)
(0.74620855499 0.000746555513281 8.11485544442e-05)
(0.819001399826 0.000864091174656 -0.00370563717033)
(0.817626206807 0.00208982302164 -0.00206661705942)
(0.749325475179 0.000878081039362 -0.0019268756389)
(0.750851144197 0.00164982758006 -0.00162797364896)
(0.81875389702 0.00198717338203 -0.00286367683922)
(0.748797080961 0.00160925912271 -0.00232931855158)
(0.817975296446 0.00101126834149 -0.00353246462123)
(0.819296545184 0.000230654109363 -0.00336077566941)
(0.818640198375 -0.000935892974915 -0.00383170906254)
(0.748987624202 0.0025868604712 -0.00188327109187)
(0.750360287708 0.00216916656082 -0.00207333878946)
(0.819494152377 -0.000445279784354 -0.00333084006839)
(0.748776134056 0.00221088630201 -0.00224424721336)
(0.81832063158 0.000110492774474 -0.00344284955291)
(0.819415533317 -0.00123355205034 -0.00200487000656)
(0.818714115252 -0.00149247188547 -0.00326961951292)
(0.749470414506 0.00277727941829 -0.00149230384606)
(0.75028599532 0.00217895934321 -0.00140323005316)
(0.819518829324 -0.00106803746579 -0.0025714880704)
(0.749915065448 0.00237923753646 -0.000756391083356)
(0.818982522103 -0.00192662389954 -0.00270074113446)
(0.819063491901 -0.00131713653769 -0.00102258210827)
(0.818953845927 -0.00180992402375 -0.000660606579527)
(0.750633300287 0.00115534843822 0.00033635580746)
(0.750689150575 0.00198037860965 -0.000747414559913)
(0.818909451136 -0.00110467640405 -0.000498634757786)
(0.750282905712 0.00213256914776 -0.000369516564989)
(0.818787579753 -0.00200214643031 -0.00160501910749)
(0.8060378125 0.0134951283952 -0.00511849112321)
(0.80814582802 0.0150815043626 -0.00337991350438)
(0.811733460281 0.0184746711368 0.00292767370355)
(0.811822901056 0.0133566168258 0.00207234402687)
(-0.410592540863 -0.0324692979347 -0.00680035555491)
(-0.472637258258 0.0299240312454 0.0344392840784)
(-0.566778862876 0.0711135727434 0.00792498889122)
(-0.406595528133 0.0853624432083 0.0262590129678)
(-0.315611478527 0.0176657973245 0.0208347509197)
(0.313926764047 -0.0236032865802 -0.223800218243)
(0.450154725291 -0.259700529489 0.143223520937)
(0.158748621688 -0.114407040026 -0.257023810994)
(0.440467044632 -0.16417741989 -0.430900821217)
(0.156069040072 -0.0738414008044 -0.354561511171)
(0.4512076692 -0.0791081497964 -0.37078697089)
(0.799172352343 0.00217285755693 -0.0115589673688)
(0.800793800583 0.00723219782025 -0.0112562014126)
(0.777751285727 -9.2248677119e-05 -0.015785092118)
(0.778361181638 0.005570442337 -0.0162498564191)
(0.80144206369 0.00984553652456 -0.00550814045161)
(0.777869438558 0.00641846786587 -0.0145679366265)
(0.802312527604 0.0113816705729 -0.00925081364561)
(0.805183018071 0.0136319602212 -0.00727748022788)
(0.779567407171 0.0059764531715 -0.0155376955814)
(0.783284960485 0.00244927428948 -0.0100510360156)
(0.804384334892 0.0180434308996 0.00153648918634)
(0.80729360341 0.0152683623732 -0.00429912146445)
(0.809105887595 0.018030324374 0.000950880308156)
(0.779162196368 0.00707322775831 -0.0141488867866)
(0.772138287593 0.00960067454786 -0.00194448123241)
(0.782435818339 0.00363817147876 -0.00916311744854)
(0.773929717316 0.00467153986729 -0.000854826237491)
(0.810975624954 0.0207236990474 0.00552494789372)
(0.812132798653 0.0235836465671 0.0106944731532)
(0.769224305281 0.00954298260696 0.00116193349001)
(0.754011769737 0.0101725595364 0.0114655507747)
(0.770580724623 0.00430587716442 0.00157393866783)
(0.755804264043 0.00579730943099 0.00829524131384)
(0.811024614374 0.0166279817353 -0.000684772352116)
(0.812148748596 0.0145376908576 -0.000363380136063)
(0.782918924152 0.00152103602549 -0.00825104427482)
(0.77416293403 0.00292903533161 -0.00179409358726)
(0.774606748702 0.000388769143692 0.00164612450218)
(0.812993417333 0.0185131828871 0.00607193567898)
(0.811836026587 0.0157880961153 0.00242670439027)
(0.812456791067 0.0157553837316 0.00443628481416)
(0.770633097872 0.0026380635014 0.000367723344876)
(0.756557965097 0.00434080835929 0.00675903312981)
(0.771669975396 0.000117971146726 0.0026940737611)
(0.759983599923 0.00148615881637 0.00577304526722)
(0.772059340124 0.000247361859617 0.00325921007484)
(0.761085872918 0.00112383511776 0.00536125534231)
(-0.294275328856 -0.0138258292269 -0.0369489201316)
(-0.297422860545 -0.0637189121909 -0.0352997534355)
(-0.345948633699 -0.0628314640737 -0.0227104521711)
(-0.175790453569 -0.0873828018498 0.119986226143)
(-0.0668048146029 -0.0579494716712 -0.014308422592)
(-0.187938145757 -0.116288760476 0.122506281221)
(-0.0927610787833 -0.0643891942428 -0.0397962548087)
(-0.0891709838756 -0.100261927058 -0.228078805155)
(-0.107954699922 -0.145034879452 -0.419269936882)
(-0.120111007392 -0.0629049967798 -0.279273764903)
(-0.0515624518794 -0.115134831382 -0.471758975388)
(-0.32789520917 -0.0841214185871 -0.023145015344)
(-0.410855533065 -0.0702805165961 -0.0111907042143)
(-0.525226739392 0.0218287141825 0.0179003079271)
(-0.500123794042 0.0412910672397 0.00662303174141)
(-0.548106098986 0.0906486926686 0.0196512009486)
(-0.187918389829 -0.13645156964 0.0555311175443)
(-0.112172086082 -0.0726104776505 -0.087400221029)
(-0.181497436975 -0.145847739763 0.000675496382697)
(-0.0923102925098 -0.0809782923267 -0.120225783161)
(-0.227074295112 0.000107859035741 0.039722912575)
(-0.441064925079 0.0791878744495 0.0320306826037)
(-0.214098816128 0.0397956610408 0.0355584991961)
(-0.0500230395452 -0.0723524796448 -0.290299551246)
(0.134823331003 -0.103826292364 -0.411791797004)
(-0.0114317470315 -0.0334518061812 -0.283629006062)
(0.165922084507 0.0188079667836 -0.354762517831)
(-0.547599473127 0.0924474373982 0.0171613078498)
(-0.483144392714 0.0457521860965 0.0162338054518)
(-0.14186548355 -0.123674086752 -0.00219041633337)
(-0.0510904793466 -0.0803628029826 -0.102605166187)
(-0.0150656165531 -0.0730513511676 -0.111292665821)
(-0.183613837718 0.0669736830536 0.0289653169343)
(-0.350235080375 0.0361290391431 0.0219236541282)
(-0.169320692948 0.0366749173741 0.0227354551752)
(0.0455896236295 -0.0448523483054 -0.230218514099)
(0.215590228595 0.035778912634 -0.280920930215)
(0.0962381393301 -0.0528776703509 -0.196351646972)
(0.253485296238 -0.0280554751364 -0.208475513786)
(0.803390809775 0.00295451902558 -0.0218717699911)
(0.806035503794 0.000829752604466 -0.0208575926944)
(0.779531409619 -0.00117568572867 -0.0153381083743)
(0.777773698635 0.0017843345817 -0.0170241927)
(0.806914655601 0.00450549831467 -0.0218886694238)
(0.779724351716 0.000603847304578 -0.0165980767722)
(0.802843859345 -0.000151786293193 -0.0208131150464)
(0.804227940729 0.00619254180044 -0.021294406363)
(0.808692622287 0.0110463877755 -0.0206460917592)
(0.778356228687 0.00362405568986 -0.0168016845727)
(0.780491486526 0.00425532358407 -0.0160533710134)
(0.807770446857 0.00812433635536 -0.021121529409)
(0.805322254693 0.00897288440271 -0.0206604242374)
(0.780366613723 0.0024277995263 -0.0163911033326)
(0.809952383671 0.0104033529065 -0.0145574469944)
(0.809734483247 0.011286814406 -0.0176598941689)
(0.777882390358 0.0044930888022 -0.0153755424997)
(0.775479030636 0.00782360181813 -0.0121571955371)
(0.808486710627 0.00844376899382 -0.0182281270673)
(0.811494434949 0.0137034665172 -0.013371345395)
(0.77569857132 0.00567459250112 -0.0130862738802)
(0.807265132347 0.0129712963265 -0.0169323422866)
(0.810136714443 0.0134702089087 -0.0187734811958)
(0.781685589908 0.00489144711212 -0.0150836911038)
(0.780281891143 0.00544252949665 -0.0135427735484)
(0.806216117377 0.0114746322374 -0.0187183568268)
(0.811081570892 0.014742597305 -0.0169388538166)
(0.7823915442 0.00440393092159 -0.0134570750961)
(0.808294674221 0.0137878795807 -0.0145266014742)
(0.812468119761 0.0153168106707 -0.0125927896462)
(0.782196491559 0.00421269316191 -0.0121609977347)
(0.784646205994 0.00208809387671 -0.00994831107522)
(0.811880499381 0.0152536887645 -0.0145933101201)
(0.809290937192 0.0140055828952 -0.0125554512832)
(0.783818744628 0.00361840692813 -0.0120224572496)
(0.814380395404 0.01623301771 -0.00994270480757)
(0.810761772302 0.0138437544013 -0.0157605912189)
(0.776894310583 0.00805862767835 -0.0116071985022)
(0.779928522423 0.00684981203319 -0.0121311242495)
(0.8134267313 0.0156571973042 -0.0121223017875)
(0.811631837423 0.0150686998162 -0.0141103248698)
(0.777303462231 0.00771458386374 -0.0091961636931)
(0.812489767827 0.0165175510116 -0.0061829894069)
(0.812555399639 0.0170233560389 0.00155501738769)
(0.776237439146 0.00916228705835 -0.00818549446259)
(0.772207591803 0.00843222099641 -0.000573003168921)
(0.811674123359 0.0160300837227 -0.00780575299519)
(0.81361457499 0.0171593252571 0.00207819492669)
(0.776521630192 0.00809291648311 -0.00584587879565)
(0.814826202538 0.0162691891117 -0.00860397077722)
(0.81265927309 0.0154827441391 -0.0108022884775)
(0.78155515156 0.00568785341449 -0.0110223248268)
(0.779693728585 0.00401839775856 -0.00688062839987)
(0.812209181406 0.0153951112721 -0.0123598151515)
(0.815030920782 0.0161028035661 -0.00738423577035)
(0.778836557811 0.00637557647949 -0.00873431908542)
(0.813071516478 0.0163708577565 -0.00558604630931)
(0.814623115092 0.0165794434987 0.000737765377316)
(0.77312618743 0.00692252968466 -0.00163629395369)
(0.77801638395 0.00403008778786 -0.00466672243254)
(0.814300139383 0.016862696634 0.000650920615584)
(0.813664048726 0.0161305760152 -0.00475471988093)
(0.777611864136 0.00629144638902 -0.00579730216068)
(0.812226103331 0.0193165748852 0.0114599539376)
(0.81178442216 0.0194104077623 0.0042989416901)
(0.763294310772 0.00973040451413 0.0062453207947)
(0.769413493557 0.00802276433877 0.00304441819028)
(0.811117181229 0.0201583335327 0.0110681653874)
(0.813005632865 0.0183528450573 0.00505134363365)
(0.763425184803 0.00869535240317 0.00781331136552)
(0.811546928898 0.0203644995704 0.0128768618089)
(0.810248761107 0.0225565396303 0.018387911582)
(0.758769211262 0.0094803956664 0.00861340398071)
(0.754355566233 0.00936900355058 0.0120379490721)
(0.810284094523 0.0217128233826 0.01325570086)
(0.758634023312 0.00837396501842 0.00848537204134)
(0.811695009872 0.0213214434911 0.0173724494283)
(0.813102762829 0.0182546744041 0.00786877772291)
(0.81433438567 0.0166713828721 0.00281809802212)
(0.770210430263 0.00648237244396 0.00123932750655)
(0.765591563408 0.00512124790551 0.00457211860275)
(0.81378841558 0.0173440149509 0.00296260449344)
(0.813634661266 0.0176494260248 0.00703326260501)
(0.764686390903 0.00722695001302 0.00479658009277)
(0.812936806937 0.0188997472841 0.00897780729221)
(0.813240183025 0.0180287574157 0.0107760145119)
(0.754957637746 0.00806113376555 0.00920266946077)
(0.760620541541 0.00498042805502 0.00569465609759)
(0.813434634981 0.0175965217087 0.00790055826241)
(0.759913403016 0.00715065726494 0.00634772855753)
(0.812721927037 0.0195946357548 0.0124000051035)
(0.815228865604 0.0154782207977 -0.00543632353244)
(0.813157187754 0.0152950305758 -0.00917658790332)
(0.780022604971 0.00229572724601 -0.0069972631913)
(0.783306912511 0.00027424214528 -0.00690368935208)
(0.81507205881 0.0158563667473 -0.00663958082058)
(0.813729769446 0.0148973022958 -0.00770780257332)
(0.780583639972 0.000690543518315 -0.00557534319905)
(0.814407247801 0.0156617102615 -0.0035551546509)
(0.814972913724 0.0162590249886 -0.000262178654758)
(0.778300323146 0.002329368287 -0.00513796392946)
(0.774500154318 0.00123054667005 -0.000926707351246)
(0.814152147158 0.0158515236143 -0.00456887310701)
(0.815038519298 0.0160411111327 0.000536558530101)
(0.778639040926 0.000770676889765 -0.00407142063659)
(0.814715439185 0.0151789145039 -0.00171417207395)
(0.81511275461 0.0146287420812 0.0028408877814)
(0.774704623219 0.000529014298915 0.000266675653608)
(0.77853983987 0.000171379641498 -0.000753072704378)
(0.815189779387 0.0155982797854 0.00167305242048)
(0.815039212668 0.0141983709084 -0.000377488403311)
(0.778623688638 0.000165690491887 -0.00236711891038)
(0.813828749125 0.0160414287293 0.00493289362165)
(0.814664474103 0.0160131079559 0.00149161602985)
(0.766174397506 0.00365548928497 0.00276371522958)
(0.770885160363 0.00079965312111 0.000582261935995)
(0.813910329396 0.0168016697483 0.00505182038173)
(0.814791205602 0.0155613963933 0.00199650264759)
(0.766681644147 0.00186691083567 0.00293485958266)
(0.813584904929 0.0155149978729 0.00564487195742)
(0.813419518145 0.0166030089036 0.00855755246409)
(0.7613978695 0.00327385436873 0.00417598972589)
(0.757852406195 0.00272712051163 0.00637232574188)
(0.813795564835 0.0164473007163 0.00594055340008)
(0.761936173159 0.00169034490018 0.00368695610579)
(0.813191595604 0.0152754285425 0.0079895566719)
(0.81373066383 0.0153942253962 0.00505081461435)
(0.814751814326 0.0142271680959 0.00394269362907)
(0.771344744978 7.18827555983e-06 0.00147943224754)
(0.767440637459 0.000914557614719 0.00422112813336)
(0.81489473526 0.0151182682261 0.00279843626455)
(0.813392213821 0.0144180672021 0.00593325264482)
(0.767297503723 0.00108795902383 0.00328035070514)
(0.813390110958 0.0147673193014 0.00536143927797)
(0.812356369852 0.0131660501822 0.00692118454593)
(0.759074146425 0.00167661917733 0.00547204803898)
(0.764087229574 0.000754308571214 0.00412954467264)
(0.812899013935 0.0138639195219 0.00585784477028)
(0.763169483417 0.000762394518112 0.00364912385628)
(0.812900664318 0.0142352064633 0.00685068569653)
(0.812728222913 0.0123671094097 0.00716214899654)
(0.81470948251 0.0132798958562 0.00468209749757)
(0.768013351768 0.000906865933471 0.00443020115226)
(0.772060476321 0.00102381874274 0.00422151274598)
(0.813143781622 0.0134548506842 0.00641465477041)
(0.814505709134 0.0123226628487 0.00547786535347)
(0.76784173333 0.00162165341563 0.00528313164465)
(0.81181194284 0.0121902496211 0.00641379526438)
(0.764845391475 0.000690728221592 0.00430740423266)
(0.81252617291 0.0130209421196 0.00600434306018)
(0.816895238199 0.00442226330589 -0.000878977274386)
(0.818656736948 0.00315507966419 -0.000864961269275)
(0.819537400616 0.00146204351756 -0.000741351654435)
(0.817209298566 -0.00110705863744 -0.000177805127486)
(0.810018358252 -0.00233029322591 0.000398849811586)
(0.834807925642 -0.0513943425432 0.000741604629959)
(0.817333246015 0.00459591084596 -0.00101991336445)
(0.818993108363 0.00307502104758 -0.000573332983786)
(0.81998940514 0.00218433961002 1.75200756157e-05)
(0.818234000767 -0.00125117140721 0.00179895900334)
(0.811048857263 -0.00315010968316 0.00468742489413)
(0.838946926187 -0.0575803695662 0.00608739716322)
(0.816233028529 0.0063887547413 0.000465730089219)
(0.811850873712 0.00658237338258 0.000676593221236)
(0.788223815744 0.0108312358126 0.00255601262774)
(0.783797626604 0.0114560137795 0.00220653946892)
(0.780442983232 0.012679955323 0.00253826140885)
(0.772589067169 0.0164228070662 0.000250286458566)
(0.781557473819 0.0199300347954 -0.022730592383)
(0.714907947695 -0.0142524476006 0.0244658605495)
(0.8268324083 0.00539018189807 0.000254910924123)
(0.823877282586 0.00349030091478 0.000209339273398)
(0.819599088573 0.000611710896225 -0.00119087357154)
(0.817667385858 -0.00100191617247 -0.00318400918617)
(0.816423570876 0.00038468338091 -0.0034951798753)
(0.817750342678 0.00350793806421 -0.00272942810417)
(0.810512896523 0.0106274957883 0.000641995371557)
(0.841009440944 -0.0839324210089 0.0129237618929)
(0.820411978936 0.00589759513313 -0.000412576884278)
(0.822184104575 0.00447773294582 -0.000830897303817)
(0.822341237792 0.00350013073808 -0.00135614908609)
(0.821730792982 0.00309750501832 -0.00222784537469)
(0.820368746776 0.00294603851024 -0.00200388905174)
(0.820266908869 0.00238534867454 -0.00049923938604)
(0.812295001026 0.00104575214353 0.00166345460932)
(0.84413875731 -0.0668955748146 0.00471963520707)
(0.816503551249 0.00680283794688 -0.000795777376582)
(0.819303589335 0.00399856881944 -0.000624260364493)
(0.820391287945 0.00222184399354 -0.000912474330647)
(0.820549022841 0.00103335309052 -0.00107715584798)
(0.81961487289 0.000598208604571 -0.00114121443646)
(0.819542497997 -0.000455079843242 -0.000268626758607)
(0.811554104707 -0.00169177282871 0.00130366028082)
(0.839782867677 -0.0696923468502 0.00307671974074)
(0.818946408789 0.00110865765054 -0.000777149283178)
(0.818607473247 -0.000259998282668 -0.000224486738745)
(0.810766705566 -0.00190087177844 0.00076235567038)
(0.837776989283 -0.0548076608032 0.00148938016529)
(0.638790428461 0.0423828774304 0.0133137720789)
(0.634483706876 0.04033402374 0.0140481487583)
(0.644214200526 0.0253886137806 0.0198899940916)
(0.641934143236 0.0222813364727 0.0165215716312)
(0.639103698857 0.023218550967 0.0154385138142)
(0.606444852778 0.026175386828 0.0181057853896)
(0.678899076599 0.039219776162 0.0177876887834)
(0.236540093664 -0.0652539278753 0.0606313355635)
(0.774076249039 0.0129887905796 0.00899101219427)
(0.768738479622 0.00976240250673 0.00848088559096)
(0.77454156499 0.00290433165946 0.0114168959658)
(0.772249367166 0.00257732466476 0.0134689888663)
(0.771657723375 0.00483529139306 0.0144816840981)
(0.773313188019 0.00777702031447 0.0182617393801)
(0.775541032754 0.0423454727527 0.0290498747576)
(0.811927074623 -0.173107662307 0.0471017976893)
(0.821665603072 0.00634572003264 0.000351001728246)
(0.821450355262 0.00498905910771 0.00022051227407)
(0.821271974265 0.00537053057793 0.000182199173138)
(0.821299693847 0.00649749523809 0.000508121601987)
(0.821333074344 0.00694035225531 0.00186935343745)
(0.823464802116 0.00609674728966 0.00470351064448)
(0.817217603718 0.00329240302311 0.0120052820017)
(0.882155263508 -0.118189799313 0.016990024884)
(0.81692520792 0.00630763679741 -0.000509904518506)
(0.819528659081 0.00425161318335 -0.000386709552734)
(0.820590043998 0.00275209125381 -0.000135591036412)
(0.820563914069 0.00221844906275 0.000161611924315)
(0.820221531451 0.00159077705596 0.00118555402197)
(0.822002692075 -1.85372889417e-05 0.00383229422421)
(0.81515864203 -0.00233458661643 0.0086818505481)
(0.854364640381 -0.0879054230842 0.0122414363318)
(0.819481240128 0.00153439819239 0.000681025897938)
(0.820106435696 -0.000230626448155 0.00249524288154)
(0.812619235641 -0.00284779076872 0.00582092514267)
(0.845404031798 -0.0666689049912 0.00769963243404)
(0.633902052411 -0.0146890002851 0.0227827029856)
(0.626468838386 -0.0151012743508 0.0214421278748)
(0.632018693519 -0.0189883610977 0.0235823451546)
(0.633030503928 -0.0173649781166 0.0211330793704)
(0.635494935857 -0.0131219584545 0.0221885608479)
(0.627026297286 -0.00232976065615 0.0257384854765)
(0.684517499043 0.0498566790523 0.0651642714543)
(0.511913941562 -0.384774569866 0.0163213120638)
(0.734965020615 0.00499628760567 0.0262274329445)
(0.730827759229 0.0004834298181 0.0249802304489)
(0.781763260744 0.00116116388325 0.00907279982455)
(0.781665331226 0.0015400575185 0.0102594367828)
(0.783663202234 0.00346631643091 0.0120388349351)
(0.792845842643 0.00234699455123 0.0121593047274)
(0.805057570401 0.0188329275049 0.0136265009938)
(0.901562796892 -0.198939050082 0.00576834215128)
(0.821572178872 0.00464596508276 -0.000201859481296)
(0.822368258798 0.0042207555121 -0.00109320517792)
(0.822705628966 0.00274293969071 -0.00186495405189)
(0.82318462561 0.00206500176355 -0.00149888365156)
(0.824204191975 0.00149172857017 0.000147880670159)
(0.830419824526 -0.00168728536751 0.00115757033801)
(0.824470841471 -0.00694436798486 0.00126911035821)
(0.913027063562 -0.178860205476 0.00255124738676)
(0.812773500015 0.00999640670539 -0.000523541335746)
(0.816304512977 0.00549395736446 -0.00168517173501)
(0.81998851254 0.00321534802781 -0.00198631289508)
(0.821816990993 0.00205883523878 -0.00167606775012)
(0.822179133052 0.00103787811905 -0.00125534223466)
(0.822598766264 -3.44109149822e-05 -5.1367767235e-05)
(0.826607313308 -0.00285883734585 0.0013566010513)
(0.820419996598 -0.00693468592369 0.00127828285653)