/*--------------------------------*- C++ -*----------------------------------*\
| =========                 |                                                 |
| \\      /  F ield         | OpenFOAM: The Open Source CFD Toolbox           |
|  \\    /   O peration     | Version:  v1906                                 |
|   \\  /    A nd           | Web:      www.OpenFOAM.com                      |
|    \\/     M anipulation  |                                                 |
\*---------------------------------------------------------------------------*/
FoamFile
{
    version     2.0;
    format      ascii;
    class       surfaceScalarField;
    location    "1.8";
    object      phi;
}
// * * * * * * * * * * * * * * * * * * * * * * * * * * * * * * * * * * * * * //

dimensions      [0 3 -1 0 0 0 0];
oriented        oriented;


internalField   nonuniform List<scalar> 
92311
(
0.201270958527
-3.38939439377e-05
0.000785235949539
-0.201518844597
-0.000503455948772
1.56883609581e-05
0.201017243842
0.000817673769991
-0.000579635494691
0.201305424261
-0.000106758017153
0.000830513173954
-0.201565623609
-0.000497452776259
2.75489234594e-05
0.20102807768
0.000854954023081
-0.00058961048782
0.201423034405
-9.31043973876e-05
-7.43575997349e-05
0.000898477088229
-0.201678672931
-0.000551797262744
-1.99592837505e-05
-1.04168184763e-05
-2.63520196646e-05
-5.8201551608e-06
4.86619900018e-05
0.201108543348
0.000932506886288
-0.000643854249811
3.66878624809e-05
0.0504540278912
-9.55178726197e-06
-2.51969708551e-05
-2.68859725793e-05
-1.3517910706e-05
0.000170760568938
-0.0504766406209
-0.000166135058251
-0.0504042148137
0.0503611758708
4.77600724206e-06
9.58004526657e-06
-6.07199413475e-06
4.64163468175e-06
0.000222975454179
-0.000219258128618
-0.000111638149551
0.0387072998111
1.73127113421e-05
0.000115797653944
2.87072894145e-06
-0.00323059670697
-0.0381196283787
-0.0028541042659
0.0054726524215
0.0427534510897
0.00714185427951
-0.00377062616137
-0.0409598987877
-5.24243579475e-05
-1.14408334939e-05
1.74618546948e-05
-9.6975059152e-05
-0.00502142229305
-0.00740651288606
0.00211755040201
0.00609037178462
0.00548155200826
0.00261144511517
0.00093670802163
-0.0114864625561
0.00206330598184
2.23755213567e-06
-7.85174568814e-06
-5.33883791898e-06
-1.66193292836e-05
0.000202087007976
-0.00019935141114
-2.42241017753e-05
0.0125151662013
-4.10789106957e-05
4.08945617779e-08
-0.0125615724136
0.0125504986383
2.45614172412e-05
-8.85997023431e-06
-0.0125595837652
-1.02190141279e-05
3.71453104678e-06
-0.000232578378314
9.48459295444e-06
0.0503035345603
1.42902981441e-05
1.66588685066e-05
5.97275287727e-06
0.000237851415482
2.00601367582e-05
0.0503061371033
1.09194723229e-05
2.35775774146e-05
3.87706019529e-06
-0.0503559134673
-0.000192695829661
9.96799402982e-05
-3.7802596396e-05
0.0125171884922
-3.3440189999e-05
4.91672517978e-06
-6.69155427574e-05
0.0125765729968
6.65448951666e-05
1.36337883006e-05
-0.0125803816873
0.0125758427468
-5.97074084632e-05
1.58760058907e-05
-0.0125789391954
-0.000122390110654
0.201747399436
0.000978252641058
-0.000521077183503
-0.202082184787
0.200791853635
4.43799243776e-05
0.000752425616392
-0.000571739074702
3.18694096471e-05
0.200621695513
0.000683546239467
-0.000545711647721
-0.000141405705006
0.201816255504
0.000858072158055
-0.000553408057444
-0.202101814631
0.200780053222
9.58056709114e-05
0.000785775746455
-0.000589679894258
8.88893650196e-05
0.200567693136
0.000710452265909
-0.000555729477652
-0.000165166568358
-0.000169260528556
4.42818470725e-06
0.00114700686956
0.201932078319
-0.000615391667699
-0.202276901581
1.84989672187e-06
1.62295513484e-05
2.65558834745e-05
7.17255453021e-05
6.2823345092e-05
0.200790217398
0.000868261529367
-0.000631981038805
0.0506379476586
-6.67364047382e-05
-4.48891211853e-05
-4.004089496e-05
-6.30320530694e-05
0.000223147296314
-0.0506766371427
-0.000134919224248
0.0502536686575
-0.000232229556114
8.56012916339e-06
2.17161694593e-05
1.41863912191e-05
1.33713329404e-05
0.000240370119168
0.00641701328844
-0.00222172986663
0.0438932669884
-9.89620940993e-05
2.58967011462e-05
-1.74439733553e-05
-3.81756908024e-05
-0.00520717607969
-0.00188381498322
-0.00279363146521
-0.00400912654592
0.00451617872595
0.00154373773349
-0.00111924674788
-0.00204471264467
-0.0011719501349
0.000489430194609
0.00517923082413
-0.00229122594134
0.000702782720321
-0.00791019420918
0.00586482202167
-0.00527630255855
-0.000202665409334
-3.88540157941e-05
-6.32055558958e-05
-6.1084942729e-05
-3.33602013821e-05
0.0505645951771
0.000303109344436
-1.77522416498e-05
-1.45559682432e-05
2.39415487791e-06
-2.81027505182e-06
0.0505275527934
-0.000123800032296
-0.0505694274568
0.000129469061971
1.2042985993e-05
0.0124746927137
-6.64263093431e-05
6.1976721766e-06
-0.0125556930732
-5.10772014792e-05
6.38267420976e-05
-0.0125781094192
-1.26015040209e-05
1.34659932546e-05
0.012564694478
-4.92492283763e-05
0.01264720207
4.15469911195e-05
-1.60254372066e-05
-0.0126412402368
-0.00022464616281
2.3066017106e-05
1.84953411804e-05
1.22779932858e-05
1.51838792286e-05
0.0501985117695
0.000237255793907
0.0502653236706
1.62245984723e-05
1.78167468598e-05
2.40134867765e-05
1.87807851145e-05
-0.000196747016596
6.05306484358e-06
1.13236359214e-05
2.75955727494e-05
2.04672172741e-05
0.0502199403785
-0.000182117405514
-6.66735182074e-05
7.26067727755e-05
2.09910493091e-06
0.0125770335024
4.66875487921e-05
-3.21919313545e-05
-0.0125055917947
-1.21547171383e-05
0.0125013347587
1.97085015746e-06
-5.25018771543e-05
1.28102984584e-06
0.0125765206288
-0.0125678053442
-1.66168332009e-05
0.0125703022012
6.66260821916e-05
-4.62355612766e-05
0.0394631332611
6.87527825467e-05
3.58033669345e-06
-0.000108678855439
-0.00405684182484
0.00675205330207
-0.00339121650798
-0.000113504347903
-4.98989066078e-06
-9.12271796238e-06
6.82257683851e-05
-9.70202094936e-05
0.042526163816
0.0062170643852
-0.0414457209496
-0.00299863514285
0.00545595739423
-0.00296990107226
0.00250922013372
-0.00240658756693
0.00310101773487
-0.0013883038171
-0.00377116229972
-1.05396019561e-05
4.62198670721e-05
-3.62447251835e-05
-0.00465321956615
0.0070263547036
-0.000485754993861
-0.00159379118397
0.00137099895502
-5.05530752824e-05
0.0126212012749
2.9850409398e-05
-0.0126343345524
-0.0126242815065
-1.1489976193e-05
4.67427489861e-05
0.0126190479739
-5.52742237761e-05
-2.8940382364e-06
-3.66599223127e-06
0.0125378827499
1.04310042092e-06
3.33328069175e-05
0.0125725815622
-0.0125288430682
-2.46251413766e-06
-0.0126173428574
-5.11034138405e-05
0.0125651101946
-4.64028504783e-06
0.0126160172523
3.46977438051e-05
0.012606945161
3.04661779605e-05
4.28992616366e-05
-5.91760590262e-05
-5.42781214731e-05
-0.0126183243487
0.0126096975655
4.61189788438e-05
2.65032646257e-05
1.77492204058e-05
2.68405364678e-06
-6.30544183982e-06
-0.0125220995578
0.0125327418187
-1.10702453114e-05
0.0126024844662
-6.15894243396e-05
-9.04285371145e-06
4.15704105826e-05
-0.0126028283653
2.0381929899e-05
5.77566967956e-05
0.0125937580466
-6.43261979635e-05
-6.51285735313e-05
0.0125959955308
5.04084725636e-05
-3.50715443528e-06
-1.55153387311e-05
0.0125207191307
4.87153011731e-06
8.74726282413e-06
0.012547228094
-1.05550019756e-05
-6.29036775774e-05
0.0125379581992
-1.03522587969e-05
0.0125910925326
5.17563701089e-05
3.43505116003e-05
-0.0125907314636
0.0125802840247
5.68495125094e-05
-1.53792269595e-05
-0.0125278405375
0.0125215665274
3.42374286339e-06
-0.0125068074671
-1.44512293662e-05
0.0125079934389
4.14036781914e-05
5.41552330744e-05
-6.56398020833e-05
1.17917207656e-05
-6.56651171952e-06
5.00244562499e-06
-1.28302379872e-05
5.39826976941e-05
4.86006636204e-06
-0.0125878302356
0.0125828318346
-4.8748864482e-05
-6.44573770235e-06
-0.0125025516841
0.012505351966
-0.0125361264689
0.0125288268893
-3.56303561056e-06
-6.76447324945e-05
3.99370007804e-05
-0.0125933652516
1.60708184946e-05
3.62489443711e-05
-0.0125162604154
-4.03553205074e-06
-0.0125871865608
-4.82572603253e-05
-0.0125365250819
0.000110034871335
-0.00315839976123
0.000165906499318
3.45391532844e-05
4.78092722876e-05
-0.000108444924201
0.0371145921969
-0.0364973283916
0.00229128764461
-0.000396807576907
0.00775095897348
0.00202782943936
-0.011159753321
0.0372704126017
0.00240330289922
7.59403489662e-05
0.00022128875077
5.09377229848e-05
-0.00635009777023
0.0023476372346
-0.0358896450651
0.00279715478551
0.000190122890314
5.28688319251e-05
-0.000101825875238
0.037770576625
-0.00664803462982
0.00397066233532
-0.00286893397774
-0.00451699985131
0.00301786745994
-0.000666275438277
0.00301158268218
0.00094561932317
0.0427369425382
3.96654036695e-05
-9.55975762734e-05
3.73427361822e-06
-2.78699465578e-05
0.00533906557984
-0.00521962352282
0.00922710568254
0.00286941353903
0.00376906826418
-0.00294447105123
0.00363074305188
-0.00629648525207
7.22417959113e-05
2.7471288867e-06
-1.09648929587e-05
-9.9087967892e-05
0.0413305686988
0.0041030951302
-0.00360988824904
0.0130681057221
0.00109123192323
0.000444348551125
1.54661502484e-05
-1.94311750478e-05
-0.000100448287073
0.0435613598034
-0.0062593187079
0.00423931792547
-0.00294470760667
4.69008541926e-05
-0.0126733143285
-6.9730480706e-05
0.0126696268478
-4.02683528628e-05
0.0126659808843
-5.03465328688e-05
3.86225812221e-05
-0.0126871382449
3.64289753071e-05
-1.22277811933e-05
0.012515719293
1.08176301155e-05
9.04788658517e-05
0.0125767069522
-0.0124992365303
-1.29753162082e-05
0.012662267268
4.70436250952e-05
-0.012661314323
-3.48055120496e-05
0.0125611623066
-1.5940260653e-05
4.29148243996e-05
0.0126508999205
-1.11993717947e-05
-5.19546847194e-05
-0.0126659266337
-5.24584987021e-05
6.11307069356e-05
0.012657822929
7.99675232462e-05
3.39721127392e-05
1.37599154626e-05
2.21127827906e-05
-0.0124976692758
-1.5420995877e-05
0.012531233443
5.81739516758e-05
-5.58071934802e-05
0.0126430881099
-1.58446109207e-05
0.0125742606264
5.54779986581e-05
1.42366792309e-06
-0.0125144470809
3.14791126674e-05
1.17198420451e-05
0.0125667559044
-1.21590577432e-06
4.06188977451e-05
0.0126435102769
-2.00326573387e-05
0.0126434421402
6.72303941706e-06
-0.0126582322702
1.06119619004e-05
-0.0124968686249
0.0125302982122
0.0126363896855
-0.0125592784351
4.76677125257e-05
0.0125674522895
5.94207761456e-05
-2.89608783494e-05
0.0124965890498
2.45710293366e-06
0.012519783785
-1.28518880551e-05
6.25139525301e-05
2.43295927889e-05
0.0125704397659
-6.61208527413e-05
-1.84706384682e-05
-4.42052790242e-07
0.0124964733782
1.44086252069e-06
0.0125638278027
6.11809557666e-05
0.0125160243573
-1.07454582992e-05
5.60777602052e-05
0.0125565622562
4.53606031028e-05
-6.44841764346e-05
-0.0125635142736
-6.47511479658e-05
0.0125538609076
6.06534228681e-05
-6.9889626171e-06
1.20371279631e-05
1.20904762457e-06
-1.76854638225e-05
-0.0124867663999
-1.5942149614e-05
0.0124887341804
6.16160884507e-05
-6.26703047454e-05
0.0125519103813
-1.39964251819e-05
-0.0125693099444
7.2694119386e-06
6.08166912743e-05
-4.88147812099e-05
3.45516927444e-05
-4.96453438193e-05
1.30263205705e-05
0.012520431692
0.0124875280931
-6.7998029484e-06
1.5796264028e-05
0.0124914325517
-8.72856863663e-06
1.78495116458e-05
0.0125720512662
0.0125153768849
0.0125143243314
3.87299784303e-05
-6.06805540982e-06
-1.57948878755e-06
1.20089337569e-05
0.0125124702234
-5.557548316e-06
5.59071977608e-05
0.0125680422515
-4.39859943857e-05
0.0125588345031
4.29448180175e-05
-1.7583028199e-05
-0.0124838484652
0.0124864301871
0.0125549711981
3.11262504597e-05
7.18077230108e-05
8.40306134755e-05
0.000781474678488
0.200442517703
4.78750419063e-05
-0.000580266577196
-0.000204085081028
1.56240591923e-05
2.43931667709e-05
1.97964793752e-05
1.02182478512e-05
0.000228527699102
0.0501350013766
-8.75613087998e-05
0.00530484135483
0.00320789220487
-2.36943088446e-05
2.15752301002e-05
-3.57558331761e-05
-0.00642664465471
0.0416002656253
-0.00235841889796
-0.00460464631838
-0.00499161541518
0.00523022202072
-0.000978503581606
-0.00409663301172
-0.00340459910349
-1.08389889117e-05
1.40099368541e-05
-1.49719691673e-05
1.16261888924e-05
-4.33107626483e-05
0.000245044975221
0.0504965525569
9.65377567756e-05
-2.20136234003e-05
-2.70936243831e-05
0.0125195211416
0.0501651279785
1.86680439506e-05
2.82458401968e-05
1.41486739644e-05
2.59540429295e-05
-0.000164781675071
0.0501026759056
2.85025795309e-05
2.90837788521e-05
2.58930416259e-05
2.26508361634e-05
0.000189108210971
-0.000148975935854
-4.74048296197e-05
0.0124836935357
-2.71186353711e-05
4.58459639856e-06
9.39911401852e-05
-4.25115632307e-05
-7.79268201855e-06
0.0124777676898
-8.74149822464e-06
0.0124734312621
4.73560678097e-05
-3.70407049658e-05
1.15646736935e-05
-0.0124852726036
-9.91234904665e-06
0.0500167032547
2.59560509703e-05
2.60516038048e-05
2.0325547854e-05
2.37023198077e-05
-4.01464042233e-05
0.000163066603391
-0.000133119963624
1.26244603398e-05
2.05646197668e-05
7.3565358594e-06
2.19725233548e-05
-1.96668646342e-05
0.000137187717834
0.0499560209425
-0.000119485828033
6.29925406115e-05
-4.0626387271e-05
8.18285928106e-06
0.0124530006692
-1.01137116438e-05
8.41280495336e-05
-4.12911351092e-05
6.61070715234e-06
-0.0124052477363
0.0123686242228
-1.28346731274e-05
0.000133300470664
2.31911739882e-05
2.4997967792e-05
-0.00349542844592
0.0372625696917
2.93027963523e-05
0.0388753883836
0.00495076192143
3.43111188637e-05
-1.86773907094e-05
-2.12844860769e-05
0.00290626095163
0.00563008625705
0.0359988132333
-2.16446731942e-05
8.63466845114e-06
-7.65178317694e-05
-0.00421620011258
0.00159878376502
-0.00123855269287
0.00015471854733
0.00617327621794
0.012701327299
-0.000559417365013
0.00255013405701
0.0121841616537
-0.00140905069986
0.0331929381754
-3.16918310664e-05
-3.49679886803e-05
-6.42264846838e-05
-0.00187620117455
0.0043305926263
0.000545444977335
-2.81156575379e-05
-8.231090927e-05
-4.07350194043e-05
0.000398234878294
0.00315980347357
0.0302635435946
-0.000393318719152
-0.0126403386394
-2.69474293397e-05
-4.4886628937e-05
6.66428500569e-05
0.0126346629651
3.55715970652e-05
0.0126295476531
4.61171243871e-05
0.0125730016081
1.72500884967e-05
1.08279926007e-05
-6.4538012858e-06
0.0125392064081
6.26701793031e-05
1.88011904564e-05
0.0125627042531
0.0126243132036
5.52770975394e-05
-0.0125504105032
2.56804688265e-05
-5.48009581171e-05
0.0125398580167
0.0125393283226
-6.7392673569e-05
5.87892673385e-05
-2.53965244964e-05
-6.37080471992e-06
6.77520302407e-06
0.0124849524164
-2.44997443329e-06
0.0124992354868
-1.36550730266e-05
5.67960354069e-05
0.0125321813287
-5.82058108766e-05
-1.4239265114e-05
0.0124968889903
-0.0125537350559
1.8918021876e-05
-4.50724342306e-05
0.0125437047796
4.16446133262e-05
0.0125522315016
-4.0279533405e-05
1.12973435831e-06
0.0124981236411
1.22777921571e-05
-2.65210715362e-05
0.0124825659071
-9.50149785588e-06
0.0124937278456
0.0125436979791
-3.72414392205e-05
0.0125275498683
4.20682088449e-05
-4.79964319996e-05
5.05662816444e-05
3.73051784429e-05
-0.0125375509353
0.0125232900031
-3.10793333345e-05
-2.62984762029e-05
-0.0124706658907
0.0124688765257
1.79948982083e-05
2.93055546445e-05
-1.39927103923e-05
-9.49192577065e-06
0.0125182411855
4.61932867943e-05
1.78457003995e-05
-3.3330039975e-05
-0.0125028745943
3.84356896694e-05
-3.35608498152e-05
0.0124855544713
3.83821383754e-05
3.20661410991e-05
0.0125065750305
-3.0001194453e-05
-2.53495298242e-05
0.0124529182639
1.77815250786e-05
1.93272928408e-05
-3.17095656453e-05
0.0124411086819
-1.07617548598e-05
4.23658642002e-05
0.0124291874038
1.72275327604e-05
0.0124943542694
-2.93845254218e-05
0.0124700551294
2.05474374999e-05
-2.73403509905e-05
3.48879996938e-05
2.24928806874e-05
-0.0124730710059
0.0124578172627
-2.80275243082e-05
-8.54496475498e-06
-0.0124035459446
1.52429597637e-05
0.0123753420888
1.07655375038e-05
-4.4982414829e-05
-1.22168389614e-05
3.21678313143e-05
0.0124591431037
1.61908227565e-05
-2.91465883174e-05
-0.00040623643953
-0.0495705771982
0.0495053705389
0.000491265717476
-1.57488946727e-05
-9.27838046488e-06
-8.25256284805e-06
-1.66494440682e-05
3.06338598321e-05
-0.000488052966188
0.0499467723577
-6.071073244e-05
-4.97738515622e-05
-5.50937105274e-05
-5.93902424111e-05
0.000179838955856
-0.0498489010369
0.000435408238087
-0.000765191301232
-0.0501047780293
0.0503706167136
0.000594696201296
-6.45733366195e-05
-5.44679915464e-05
-6.84474906718e-05
-7.00712961248e-05
0.000162215364087
-0.00045741410882
-7.92979038571e-05
-7.07402422221e-05
-7.4522197873e-05
-8.09660582178e-05
0.000247348959927
0.0503750586795
0.00035421268467
-0.0502136805735
1.84957457545e-05
-0.00426800723471
-0.0460742777076
0.0456580426079
0.00634753569464
-0.00174609618546
1.18644838758e-05
1.63205531738e-05
3.62427229008e-05
6.38068632803e-05
-0.0429966433188
0.0390108797584
0.00811643617615
0.0016821064569
4.57982798716e-05
-4.67687576058e-05
6.37304716835e-05
-0.00592659099711
8.59739163861e-06
-0.00668580632469
0.0487414810443
0.00337166214857
5.33257212016e-05
0.0001084195756
7.02239532588e-05
-0.0500615980344
0.00439609386054
1.9527685029e-06
-0.0100126883848
-0.0455885423629
0.0390200705254
0.00803975879741
0.00829865513849
9.09717598738e-05
9.13435781593e-05
5.83745372675e-05
-4.33733511915e-05
-0.00662247471175
0.000127402621505
0.000205143900254
6.35499696962e-05
0.0369060742743
0.00686606047882
0.00583106181983
-0.043333466364
-0.00491701993633
-0.0120085548172
0.0071348625289
0.00930535713892
0.00704750190991
0.00625707582956
-0.00505980386229
-0.00655812035467
-0.0185548901726
0.0103806447334
0.00287848206285
0.00507977356455
-0.00184669760879
-0.00656059420925
-0.00177464687827
-0.0053566442556
-0.0136776570145
0.00623835103249
0.0043311198173
0.00368567583037
0.00121565600222
-0.000536143439121
-0.0165957764277
0.00173986100167
-0.00205534739292
-0.00119564674614
-0.00238876843083
0.0026053001407
0.00799760337114
-0.00204276498492
-0.00414279106118
-0.00504153621337
-0.00189364558906
-0.00372978764438
-0.00311938082995
-0.00800872318901
-0.00871673471396
-0.0104785141615
-0.010660138784
0.013834910253
-0.00527016334562
0.000185162229747
-1.31290873496e-05
-8.68177894479e-06
-9.09768068942e-06
-1.4030392674e-05
0.0493845087559
5.48645206369e-05
-5.09851642193e-05
-0.0495285703493
0.0494553525793
0.00028245011186
-6.16066818694e-06
-5.99506190473e-06
-4.05394485449e-06
-8.88221926308e-06
3.13549359587e-05
-0.0495588243035
-9.99761777809e-06
4.50323337138e-06
-0.0124428273943
-1.6206587279e-05
0.0124315228036
3.30862282874e-05
0.0124445670713
4.37266108329e-05
-1.4905819238e-05
6.99467077795e-06
-2.97702666579e-05
-0.0124505181552
1.92676695955e-05
1.21327209028e-05
1.52191338222e-05
1.0929577889e-05
-0.000247029990845
0.0123483428613
0.012320039468
0.0122937365047
0.0123422144959
-6.55780020963e-05
5.37765375848e-05
-8.08673850883e-06
-3.76708291825e-06
-3.85504159991e-05
0.0124412709229
0.000345833535865
-2.6104674643e-05
-2.05104880536e-05
-2.33198447283e-05
-2.77011116827e-05
9.23085558641e-05
-0.0496286349885
0.0497073880682
-2.94511472789e-05
-3.59831759568e-05
-2.95513196428e-05
-3.73401125142e-05
9.15741242618e-05
-0.0497024278144
0.000381760188036
0.0124559585987
-3.09042614581e-05
2.52120012238e-05
-0.0124605981037
5.40694285726e-05
0.0124891392487
-5.58998115845e-05
5.05673808034e-05
-5.44996271596e-05
-0.0124888725621
5.97213696485e-05
0.000692653545866
-1.89638952336e-06
1.822508351e-05
1.8991746663e-05
-5.53566501078e-06
0.0495348269558
-0.00017656201926
-0.00015235780435
-0.000172567216187
-0.000145656039617
-4.36847619249e-05
-1.2348435456e-05
-2.96876259097e-05
-1.8838268698e-05
0.0497508216888
-1.66707023678e-05
-2.47932886688e-05
-2.02567299553e-05
-2.83393291951e-05
5.01266023608e-05
0.0499116323129
0.000607945137627
-1.33811033014e-05
-1.78326030189e-05
-1.60704076562e-05
-1.93830544198e-05
-9.16681101881e-06
1.2075395205e-05
0.0124531484632
6.31050296854e-05
0.0124377188673
-4.05569009885e-05
-6.06009266122e-06
-0.0124212646342
0.000118744520835
-8.86785195905e-05
6.87500058819e-05
-2.72514212285e-05
3.18485592088e-05
-7.33435550237e-05
0.0124893696519
0.0124979765032
9.76742281541e-05
-4.60865077732e-05
3.30929755521e-05
-0.000103964332777
-0.0124786343617
0.0502106911975
-6.57204386296e-06
-2.16744788439e-05
-7.46704454895e-07
-3.65034408898e-05
-0.000941849697048
-5.68340685584e-05
0.000877588700715
-1.78859781929e-05
-1.76389269329e-05
-1.86131930104e-05
-3.95820534936e-05
0.0508150713241
-0.000126623166034
-0.00126167087144
-7.16738990681e-06
0.0124752243245
0.000149417555244
-0.00011594582624
-5.00481361343e-05
-1.1278640593e-05
-0.0124821628925
0.00015764403717
0.0125607170243
-0.000174636326708
0.000109193168533
-2.97025035427e-05
2.7702861862e-05
-0.000117782998929
0.0125086050224
0.000131006319177
-2.5736483477e-05
3.61159171408e-05
-0.000179830910347
-0.0125297911273
0.0125685518447
0.000509987907267
-5.88773991503e-05
-4.93845504893e-05
-5.36504727065e-05
-6.89369190645e-05
0.000170742814777
0.0501736681405
-5.14417312205e-05
-5.8915345375e-05
-5.76010368533e-05
-5.8921690885e-05
0.000149218255553
-0.0500196409721
0.000433562568826
4.22877067697e-05
0.0124975365451
4.15039107346e-05
-0.0125037281846
0.0125152190774
-5.39675479296e-05
5.42020636253e-05
-0.0124975148225
7.97985767185e-05
0.0125369073824
-8.41872840778e-05
7.82236090996e-05
-6.05950532588e-05
-0.0125282603938
5.81435240119e-05
0.000608153076664
-6.91141160679e-05
-5.35353737771e-05
-6.04094005667e-05
-8.84685774557e-05
0.0507079365856
0.000203519565031
0.0503558325793
-5.64726259483e-05
-5.59067816686e-05
-6.00765084747e-05
-6.33524950137e-05
0.000190775246248
-4.80164226796e-05
-4.55791511002e-05
-5.53214113465e-05
-6.08549519428e-05
0.0506065050076
0.000457992891501
0.000109000820578
3.87747622499e-05
0.0125166307656
7.10603203354e-05
-1.46490112687e-05
4.50251881891e-05
-0.0125422950864
6.78462631541e-05
0.0125754816183
5.47929210312e-05
4.01405995913e-05
3.58866243046e-05
-9.420882965e-05
0.012500518493
6.17925996646e-05
-2.1125992162e-05
4.96864803314e-05
-0.000100490165397
-0.0125714726537
0.0125820260221
3.74328959702e-05
0.0125003213567
1.45933747536e-05
-0.0125408256186
5.10701008768e-05
-0.0125804510469
0.0125882759666
-1.8732389536e-05
2.20431703806e-05
-0.00338647382816
4.38875144599e-05
2.19168229509e-05
1.74301278326e-05
0.0418650413429
0.00957220120561
-0.0418886407511
-0.0062567597591
0.0435769620168
0.00243881123401
1.62996455222e-05
4.13309991032e-05
2.07911250996e-05
-0.0433147433481
-0.00618277527749
-0.00576553654667
5.79556117875e-06
4.08649215511e-06
5.8558540259e-06
0.00139911478253
0.0436547952277
-0.00109149648385
0.00180942108212
0.00596666905154
-0.000654995684966
0.00110454268436
0.00200887921959
-0.000215338157835
0.00708286644966
-0.00066937218996
-0.000502493726591
0.00206150348237
0.00153337539713
0.0012830355958
0.00324791022989
0.00324633546096
0.00375648518324
0.00204341212894
0.00526283307614
-0.00089752599422
0.00174284512947
0.00537188100094
0.000106504893804
-0.000582489617176
0.00392880919447
0.00312946575712
0.001373792448
0.00328056744409
0.0039693632314
-0.00339428721977
0.00552188825096
5.29345554239e-05
2.83801960093e-05
1.40459780511e-05
-0.00410572216068
-0.0451780151294
0.0484392279881
3.80908075996e-05
0.000101438234218
5.95000242742e-06
-0.0476043632408
-0.00128289527416
0.00576762435486
0.00781061604475
9.28938198465e-05
-3.27272755605e-05
2.74133546265e-05
5.47984742525e-05
-0.00531979052534
0.0478849974234
8.54837479163e-05
4.01470560161e-05
3.59592792325e-05
3.20618910532e-05
0.00149129596422
0.0452564876303
0.00883150203272
3.40569590707e-05
2.01746039985e-06
3.6054129011e-05
0.00032148420823
0.00526455052884
0.000981673768173
0.00615906120119
0.00185272158946
0.00400213583793
0.00788728851883
-0.00283433149243
0.00471346682057
0.00816043628518
0.00671517157303
0.00447230522377
1.18931440118e-06
0.00014223629453
3.56180072894e-05
0.032364904339
-0.00475404388666
0.0394843942216
0.00373608742674
-1.32438676743e-05
7.31462816663e-05
5.35701205671e-05
0.00422071311249
0.00944445554584
0.000151754641438
5.87820571747e-05
1.57076427643e-05
0.0322850773774
0.00330663999056
0.00512379526769
0.00472509713107
0.0042935379594
0.00571188787606
0.00667759461316
0.00449894509081
0.00776880041779
0.00602929904371
0.00575330970513
6.79374890566e-05
6.95276951039e-05
1.12045483447e-05
0.00555614440099
0.0455610126879
8.85031456879e-05
0.000159053928648
-8.63353453839e-06
-0.0486924902194
0.00328178632455
0.010236870464
-0.00844208334485
0.00743299958185
0.00781272778668
0.0121925841704
0.0220638915688
-0.0205346977427
0.00679345507018
0.00912741434897
0.00742587333902
0.000109505457525
0.000163109345698
-5.24529598716e-05
0.0316784285789
0.0378349083664
0.00886354737466
0.000147325783251
0.000115450409247
5.83608902078e-05
0.00629907921452
0.000165179995585
0.000208414889346
-6.02171065162e-05
0.0309409844176
0.00938868538681
0.0128041125627
0.00638209555008
0.00389822509258
0.0121297388679
0.020383478872
0.00645342492502
0.0157811817414
0.00413455787436
0.0123847624254
-9.37370707046e-06
-3.24956445086e-05
3.89997055747e-05
-0.012395019446
3.44184161957e-05
-0.0123867369264
0.0123679235096
-1.98911023235e-05
-1.04539813147e-05
2.20750132503e-05
2.98491781226e-05
-0.0124404333068
3.86378646345e-06
-0.0124389131416
8.03175111534e-06
0.0124326004129
4.69395683601e-05
0.0123669012611
2.93930520278e-06
-0.0124443383244
-1.89101890899e-05
-0.0123923184969
0.0123907626758
4.61010050685e-05
-2.94344702875e-06
-0.0124010972155
-5.89141032582e-05
-0.0123989823884
0.0123882767363
7.05821840848e-05
4.33940590194e-07
-0.0124461452532
0.012440277452
1.8190960895e-05
-2.16959880161e-05
3.89268397812e-05
-0.0124446042867
0.0123751343183
5.96432525025e-05
-0.0124032540271
-0.0124471005012
-0.0123650503322
8.82316122482e-05
1.33080035654e-05
-6.57949148861e-05
0.0123485963929
-6.87833731415e-05
0.0123806911326
8.46476351262e-05
-8.69697371203e-06
0.0124291805596
-1.31363015409e-05
-2.57695196844e-06
-5.05693957121e-05
6.18192056947e-05
0.0124366410453
-5.22564058618e-05
0.000106301467496
0.0123709342718
-1.96817390781e-05
0.012417388299
-6.99183014036e-05
0.0124199469405
-2.43132792143e-05
7.13148629988e-05
-0.0124231300029
-0.0124124910729
7.97093670532e-05
0.0124080347838
3.51327466196e-05
5.20507376834e-05
-0.0124558998404
3.01604698832e-05
-0.0124636300718
5.27134009265e-05
0.0124632314044
-0.012410980151
8.43306487082e-05
0.0124177574372
4.69751881049e-05
-0.0124688564727
0.0124332044278
6.95489974868e-05
-2.67618858058e-05
-0.0124341380361
-8.58429067077e-05
-0.0124461046905
0.0124522232084
9.42703797349e-05
3.29075452719e-05
-0.01247241456
0.0124759365742
6.57381832153e-05
-3.20194880706e-05
-0.0124713270018
5.02701186721e-05
0.0124351802361
-0.0124344306804
8.62868571043e-05
-0.0124782638428
-0.000111174557913
-0.0124194689394
-2.62469213532e-05
0.0124242293252
0.000116904169042
0.0124040041892
9.14062892744e-05
1.05436573795e-05
6.71647528461e-05
0.0124493807825
2.57088905877e-05
0.0124549285365
6.20875594856e-05
0.0124015540006
9.88626244594e-05
0.0124539538042
7.78631501952e-05
-0.000135509066658
0.0124337796988
-1.73048761698e-05
0.000141656116303
-0.0124052124885
0.000162377713998
0.0124195516965
-0.000164509474067
-9.97654720406e-06
7.82233673468e-05
-7.28583089096e-05
2.88310391857e-05
-0.0124727368178
0.00011034090409
0.0124798271269
-0.000130189460934
0.00016491083402
0.0124545693474
9.71492106363e-05
-0.0124417639061
0.000115436665212
-2.3512059407e-05
0.0124502026671
-0.000104033276828
0.0124571119824
0.00010615704848
3.21180735907e-05
0.0124724539207
4.19820134464e-05
-8.41809974243e-05
0.0124923682419
7.50969260967e-05
0.0124683798484
0.000117864287244
0.0124747523563
0.0124604863742
0.000136715597955
-1.87511344204e-05
-0.000158001217937
-0.0124847351695
0.0125066106767
0.000151404235907
3.32789642883e-05
-0.0124876401985
0.0124949846556
3.47547391733e-05
-0.000101342342146
8.24086260152e-05
0.0124846982977
0.000135697672109
-0.00023417099122
-0.012483909601
-1.19922067379e-05
0.012523157199
0.000221968377734
-1.50183642181e-05
0.0124435493791
0.000197214046595
-2.38382130194e-05
-0.000204497921063
2.04975561846e-05
0.000141763614994
0.0124923066689
-0.000133550136045
7.34474308355e-06
0.0124466901977
0.000128460565252
0.0124929603849
-1.54743025456e-05
-0.000247590882373
0.00019421630305
-1.89713776735e-05
0.0124942282531
0.000146227104862
-0.000257097320411
-8.47155258876e-06
0.0125777149578
0.000240480912103
-2.95004311468e-05
-0.0125786692642
0.000263411874771
0.0126762450043
-0.000306551296361
-6.56596808047e-05
5.84539597927e-06
0.000162899313083
-0.000157417865094
-0.0125222149506
9.68851581782e-05
0.000170319794887
0.0125543007428
-0.000271675580259
-6.51191305204e-05
0.000162420363335
0.000268318313439
0.0126792871914
-9.569530104e-06
-0.0125150735716
0.000197744818574
-2.22818874705e-05
0.0125549783119
-0.000184398045847
0.0125268539756
0.000170161870744
2.12903757728e-05
0.012471308536
7.28172407659e-05
-0.000133003622425
0.0125270994592
0.000114927122999
0.012570903547
0.000190023567319
0.0125156583785
0.000204577730572
-2.17957108708e-05
0.0125947855811
-0.0126274927672
-0.000247462142938
0.000212287961397
0.0126811959031
-0.0125344619026
0.000110314670795
0.0125660952609
7.13610596081e-05
-0.000137866934263
0.000122861769157
0.000200794918083
0.0126864279286
-0.000109578348833
-0.0124867345611
-7.0930462635e-05
0.0125015453489
0.000104995651119
0.0124711683788
9.3511593668e-05
-0.0124659480857
6.23109709904e-05
6.38609137788e-05
0.0124997115872
8.3975970914e-05
0.0125078657584
-0.0124918891758
4.95514187949e-05
0.0124867302007
-0.0124669615158
9.82755695753e-05
0.0125145289356
5.63549064536e-05
-0.000128754385127
0.0125093632686
-5.03662688734e-05
0.000112436732163
-0.0125058051422
0.000133179117311
0.0125288023472
6.58244388142e-05
8.6706282614e-05
8.37780016576e-05
-0.0125033962558
5.71745390912e-05
0.0125117565627
0.000120853918948
0.0125365260956
5.85474479513e-05
0.0125182482722
9.58158969173e-05
-4.09665244324e-05
-0.0125121171609
-0.000115125414656
-0.0125372615216
0.0125600111797
0.000111705669225
7.84976062162e-05
-0.0125053485799
0.012512020554
9.99538500871e-05
-2.49238815108e-05
-0.0124970370871
5.29023164034e-05