/*--------------------------------*- C++ -*----------------------------------*\
| =========                 |                                                 |
| \\      /  F ield         | OpenFOAM: The Open Source CFD Toolbox           |
|  \\    /   O peration     | Version:  v1906                                 |
|   \\  /    A nd           | Web:      www.OpenFOAM.com                      |
|    \\/     M anipulation  |                                                 |
\*---------------------------------------------------------------------------*/
FoamFile
{
    version     2.0;
    format      ascii;
    class       volScalarField;
    location    "2.6";
    object      alpha.water;
}
// * * * * * * * * * * * * * * * * * * * * * * * * * * * * * * * * * * * * * //

dimensions      [0 0 0 0 0 0 0];


internalField   nonuniform List<scalar> 
28582
(
1.00000138984
1.00000174844
1.00000199308
1.00000272841
1.00000144375
1.00000197326
1.00000509107
1.00000572321
0.0197716329378
0.0226354905656
2.83790779717e-08
1.00000623792
0.947382399824
0.948656446213
1.00000566454
1.00001053306
0.948728564326
0.999975000415
0.999964613029
1.00000059698
1.00000315815
1.00000399331
1.0000006075
1.00000430561
1.00000509908
1.00000037857
1.00000325501
1.00000564191
1.00000535083
0.0237887357755
1.28136099982e-06
6.88955269904e-07
1.00000491757
1.00000640126
0.94043915136
0.943248003424
0.999963786851
1.0000051954
1.0000096622
1.00001035825
0.999973946564
0.950074424465
0.999965507899
0.999983574481
0.0205492998012
0.023041387248
1.94201345277e-05
1.69679709932e-06
0.0215585116011
5.48132857908e-06
0.999971581474
0.999967117134
0.947498880818
0.948486837301
0.999951850147
0.949112863582
0.999980078915
0.999970299503
0.999995674008
0.948305851798
0.949008208625
0.999971578207
0.9489617798
0.99999440959
0.999975931992
0.999994772916
0.948895913285
0.949214167088
0.999974562241
0.949234478715
0.999993531505
0.999988370905
0.949314943141
0.949339055754
0.999975847073
0.949121269577
0.949261422442
0.999991499702
0.999977384642
0.948947864
0.948136996696
0.999964405805
0.947935178063
0.999978004932
0.948693278827
0.0201387047963
4.82920036808e-05
0.0205375997877
0.0205762581955
4.9789203929e-05
5.06121655055e-05
0.0240358933796
4.36124240046e-05
3.35277339124e-06
0.0250206873846
8.55261417983e-05
0.0247590750496
1.51241918211e-05
0.999897999099
0.999914556519
0.939467481732
0.938495395892
0.999903887282
0.999882530973
0.942588236468
0.999914831286
0.999946752185
0.941093084513
0.942341477023
0.999918696592
0.999923984775
0.942540652366
0.943173189945
0.946079361827
0.999984937324
0.99992885202
0.943500973571
0.999928829499
0.943602510051
0.999985334502
0.949524399534
0.94946390312
0.999973843309
0.949629521558
0.999981749178
0.949808465672
0.999974228596
0.999975100339
0.949723835812
0.950223456368
0.999978168647
0.999974468493
0.950231158016
0.999980596681
0.999978855792
0.949284061019
0.948504849007
0.949086129618
0.999966233345
0.94967439527
0.949464537314
0.949770363352
0.999981205243
0.999966067934
0.950396651659
0.999967428126
0.950156003402
1.00000361112
1.00000510365
0.0257121469486
2.98053953708e-06
1.00000588317
0.94623763629
1.00001031592
1.0000100532
0.950197700624
0.949612985738
0.947220964944
1.00000940958
1.00000963992
0.945572422475
0.94088487613
0.0204116849333
0.0258984559018
0.0271794610625
6.12696091698e-05
0.00012849385026
0.000156742811089
0.0291834334025
0.0318565066184
0.999958065569
0.999986911955
0.944968564998
0.946372778906
0.999950545258
0.946052273133
0.999986926159
0.999975734301
0.999974036245
0.950052038728
0.950157832916
0.999972866808
0.999975626882
0.950278381485
0.999966977501
0.999978406368
0.950133674584
0.949459826873
0.999967087977
0.94965144755
0.999978654221
0.999966532493
0.999973122048
0.948483454361
0.94871091925
0.999964800115
0.949068509507
0.999976226334
0.999948624403
0.999969837217
0.947230179523
0.944834299963
0.999961112969
0.944919860352
0.999975589995
0.999932440563
0.999952346555
0.939332708769
0.943448957367
0.999909001999
0.942251177867
0.999970653678
1.00000205104
1.00000070118
0.999998878894
1.00000121955
0.0115948177394
0.0136643911265
0.0120518687744
0.0144106854265
0.0149929272559
1.8469946286e-07
1.04028012377e-06
2.51474222684e-07
1.07462553231e-06
8.10897108853e-07
3.81821567215e-06
1.00000157886
1.00000171874
0.974550229014
0.974403361667
1.00000116909
0.974929407564
1.00000219227
1.00000164997
0.973525525782
0.969838101036
1.00000088199
1.00000142012
1.00000024755
0.973872061066
0.976160339843
0.969613056023
0.969147818026
0.999996899232
0.999988068599
0.970460595731
0.961683528944
0.963056956019
0.956393480822
1.00000038618
1.00000053999
0.967963516562
0.967569633251
0.963123949941
0.999998219814
1.00000056183
0.999999566941
0.962181961555
0.956100503944
0.959283454101
0.955075668242
0.958554638135
0.95497174027
0.0118913420672
0.0115166431331
0.0115526097652
8.63896714962e-06
2.10699784351e-05
9.17700857605e-06
2.10996568212e-05
3.7164372974e-05
4.91719383156e-05
3.56653696813e-05
4.09883457121e-05
0.0114631498528
0.0115136468773
0.0121220691482
0.0117483746567
0.0125052038794
1.00664993841e-05
2.42871861678e-05
1.03365172924e-05
2.6339418641e-05
0.0151312802026
0.0141289753278
0.0156529744274
3.96315187466e-05
3.75067416856e-05
4.45565086243e-05
4.38943595635e-05
0.0129008278971
0.0132169604603
1.03693452661e-05
2.80251638799e-05
3.08452332487e-05
0.0158847758912
0.0146447544893
0.015880297858
4.959338177e-05
5.86865582771e-05
5.32227583462e-05
7.31213792406e-05
0.999998941192
1.00000196198
0.970763956282
0.973388019135
0.999998143329
0.972598439722
0.999992520676
1.00000282594
1.00000728359
0.973503633582
0.972806750983
1.00000679509
1.00000106595
0.972608736829
1.00000659426
1.00000245579
0.976442823394
0.976339230461
1.00001246824
0.999998667316
0.978985638955
1.00000211014
1.00000380892
0.972106036135
0.97121007809
0.999999952217
1.00000121223
0.970716439366
1.00000165103
1.00000531468
0.969915706328
0.967905633436
1.00000199447
0.999999805795
0.969581082681
1
1.00000567196
0.974920452182
0.973502979825
1
0.999998165892
0.974829015501
0.999995120044
0.999999787646
0.977326646196
0.972978842255
0.999998880124
0.999992748054
0.973394569819
0.999999571043
1.0000017967
0.971781417843
0.969607896176
1.00001278928
0.999996205918
0.97291662426
0.999998639309
0.999991844236
0.970389395522
0.97040568694
0.999995303411
0.999997038377
0.971419574979
0.999966930171
0.999992472145
0.970843808864
0.973189908539
0.999990825464
0.999984652803
0.967999349295
0.999948032537
0.999985678604
0.970649512591
0.955659690043
0.999990509911
0.956166874198
0.999945658112
0.999968130011
0.999974689
0.970161576732
0.961418286909
0.999983568699
0.999966252446
0.965767624428
0.999944439105
0.999957555717
0.953218376788
0.960903106536
0.999970082787
0.954576867733
0.999933287165
0.999997491989
0.999999555846
0.96783734872
0.965937023824
0.999995834945
1
0.96744180247
0.999988855555
0.999994870466
0.968149669104
0.96395543505
0.999995389224
0.999983669956
0.965809880478
0.999992744573
0.999990520475
0.962161088364
0.962373532047
0.999986919176
0.99999100385
0.964312244152
0.999965101582
0.999972219949
0.959338713155
0.962803376289
0.999952684048
0.999978700754
0.960927163195
0.999953077472
0.999960288526
0.958943358559
0.950211045669
0.999960367105
0.953109918884
0.999941297278
0.999979820208
0.999981658263
0.96111434382
0.955612251762
0.999983094073
0.999963759245
0.960525025654
0.999964107369
0.999962785302
0.950072977272
0.954702783819
0.99996240752
0.954024180934
0.999953988173
0.999967549873
0.999976219297
0.954376819655
0.955994249875
0.999957301625
0.999965448967
0.957579171776
0.999973964812
0.953755477789
0.999963513826
1.0000015704
1.00000219998
1.00000258737
1.00000452272
1.00000472565
1.00000476197
1.00000164329
1.00000241604
1.00000285659
1.00000540084
1.00000538458
1.00000545263
0.999988104535
0.999945272123
0.99998081265
0.999999490104
1.00000159196
1.00000336882
1.00000468264
1.00000556847
0.999995833976
0.99999577752
0.999979606147
0.999993261767
0.999999747611
1.00000127838
1.00000233084
1.00000300776
0.999997496119
0.999999069911
1.00000022507
1.00000090683
1.00000155666
1.00000213287
1.00000261958
1.00000301404
1.00000008624
1.00000077788
1.00000139377
1.00000207388
1.00000234324
1.00000258922
1.00000278736
1.00000294277
1.0000031406
1.00000340876
1.00000353615
1.00000364893
0.999819816602
0.999857110124
0.999998043555
1.00000276345
1.00000451873
1.0000054877
1.00000714217
1.00000913402
0.999909091501
0.999909668855
0.999996533428
1.00000037407
1.00000200997
1.00000286814
1.00000335495
1.00000356291
0.999992213919
0.999999495529
1.00000091784
1.00000162107
1.0000022483
1.00000279391
1.00000332466
1.00000375851
1.00000012785
1.00000073384
1.00000126492
1.00000179487
1.00000219455
1.00000264322
1.00000310958
1.00000345496
1.00000313828
1.00000318874
1.00000331286
1.00000343993
0.999743814697
0.999932571503
1.00000166998
1.00000432156
1.00000452475
1.00000589481
1.00000697137
1.00000830563
0.999857582117
0.999974753056
1.00000194071
1.000002325
1.00000239621
1.0000023968
1.00000331484
1.00000474785
0.999995121636
0.999999814624
1.00000100939
1.00000146194
1.00000186032
1.00000229535
1.00000287828
1.00000335642
0.999999844454
1.00000048141
1.00000043393
1.00000064634
1.00000102278
1.00000151193
1.00000207429
1.00000272529
1.00000311804
1.00000143701
1.00000193242
1.00000214557
1.00000225092
1.00000231049
1.00000258911
1.00000255203
1.00000422739
1.00000431292
1.00000478222
0.999961364924
0.999996614144
1.000000249
1.00001305863
1.00001470125
1.0000154931
1.00001828824
1.00001195783
0.999997496287
0.999997339364
1.00000071484
1.00000786605
1.00000942174
1.00000989491
1.00000966743
1.00000986129
1.00001483583
0.999998042932
0.999999979528
1.00000267229
1.00000383635
1.00000432735
1.00000535889
1.00000615424
1.0000066591
1.00000734535
1.00000549994
1.00000534698
1.0000043291
1.00000239553
1.00000250062
1.00000362543
1.00000471773
1.00000595471
1.00000824191
1.00000708434
1.00000418665
1.00000304014
1.00000311707
1.00000388316
1.00000520335
1.00000643285
1.00000529294
1.00000613671
1.00000523974
1.00000333793
0.0224847097789
0.0229823662302
0.0248606061974
0.0260620555128
0.0282294495252
0.0305189843009
0.0355863154911
0.0414424950229
0.0162584689159
0.0191055444521
0.0215200130106
0.0226929619103
0.0244172861624
0.0264104127342
0.028335762991
0.0306266854126
0.0360063347465
0.0422280380648
0.0167651137961
0.0181169839288
0.0200808811772
0.0215870719141
0.0234259628293
0.0255878443951
0.0276876962491
0.0297427241822
0.035204743301
0.0414462123531
0.0176999884429
0.0194477162564
0.0209389421619
0.0227259917589
0.0246228125491
0.0264863850998
0.0285669874619
0.0340238688151
0.0402478970292
0.0210359808138
0.0227243312296
0.0244943399299
0.0259905629746
0.0282109695633
0.0344464560884
0.0393914304118
0.0290822592006
0.0348578433836
0.0377149830098
3.6981639782e-07
3.08561838151e-08
1.16572683614e-07
3.55640942572e-08
5.28151138272e-08
4.75121188518e-08
-1.17978710112e-29
7.11470152633e-07
1.43669076264e-05
6.19477542516e-05
1.40439785614e-07
7.56099675306e-09
5.04054787705e-08
6.40987060502e-08
1.18889045026e-08
1.78609726335e-26
1.94953929844e-27
6.09968935995e-07
1.89933681652e-05
6.04360310165e-05
1.70150307978e-06
7.48419042452e-08
5.90417457301e-10
7.31171992336e-08
5.08915499618e-07
2.34324479629e-07
1.41559720406e-08
5.88097681486e-07
1.16805075773e-05
4.78558960408e-05
8.61768627155e-08
2.18238734098e-07
4.31976955912e-07
4.12321069837e-07
8.80778059949e-08
8.27149394939e-10
4.28599918705e-07
8.87263685552e-06
4.26362024939e-05
4.36850893361e-07
2.35746209534e-10
2.37589458287e-09
1.8251306491e-07
2.77241033104e-06
1.79665929358e-05
4.50199627971e-05
4.59700046234e-06
1.74145216268e-05
4.97822182229e-05
0.999983710689
0.999994111519
0.999994122471
0.999936955474
0.999864858506
0.999952443046
0.999947535617
0.999932039487
0.999994970151
0.999992043999
0.999854273774
0.999918853248
0.999922866025
0.99993115535
0.99999585674
0.999998353096
0.99999819687
0.999989062491
0.99998983872
0.999996403104
0.999997957198
0.999995674649
0.999986382487
0.999979477414
0.999990600327
0.999982239409
0.999994011834
0.999980167403
0.999750542833
0.999783454608
0.999748924252
0.999694207338
0.99981286255
0.999630873348
0.999694673918
0.999968100629
0.999858422891
0.999965259719
0.999897314438
0.999969730528
0.999890562242
0.999978478607
0.999911658114
0.999982002879
0.99998283224
0.99974374988
0.999826723427
0.999952033528
0.999969997843
0.99994901401
0.999985388797
0.999990462674
0.999927396044
0.999982944797
0.999980965389
0.999993087007
0.999852156735
0.999822555417
0.999855428497
0.999891987886
0.99993512744
0.999933832587
0.999961165103
0.999989094176
0.999931476576
0.999991487585
0.999979678715
0.999999805916
0.999990218125
1
0.999942155544
0.999958533306
0.999982963788
0.99996577795
0.999980024286
0.999994355677
0.999995829566
0.999998422592
0.999995157474
1
0.999998550707
1.0000031001
0.999998955259
1.00000095876
0.99977447571
0.999932726261
0.924472495465
0.928740530537
0.999996583722
0.999981399635
0.999991129307
0.924896524032
0.931963939417
0.928672544441
0.933931653433
1
0.999997649195
1.00000053897
0.933750235201
0.938504724459
0.935365324155
0.93871708408
1.00000833866
1.00000763237
1.00001302754
0.938945529142
0.941416970447
0.939484139105
0.940736193574
1.00001589946
1.00001387566
1.00001218495
0.942511280338
0.94377986416
0.941496734274
0.943354447271
1.00001458194
1.00001193266
1.0000098959
0.943463329568
0.941548159211
0.943204053505
0.942502582893
1.00001923531
1.00000946423
1.00001072905
0.941327133067
0.93990240484
0.942136099659
0.939337379008
1.00001699802
1.00001668165
1.00001776367
0.9366110822
0.907905391013
0.933903110395
0.901935156085
1.00000993002
1.00001962427
1.00002326725
0.900781185758
0.892367084633
0.896280254848
0.890576266509
0.999988496469
0.999990918921
0.943568157327
0.940292207403
0.944521592255
0.943892683775
0.999999920779
0.999995785323
0.999995200387
0.926785779512
0.930524860725
0.936250642163
0.937248037186
0.999999446562
0.999997014443
0.999999360257
0.930257976576
0.934653496494
0.936767258789
0.938773130749
1.00000543366
1.00000253355
1.00000332756
0.935972047432
0.938859510451
0.939784283212
0.941023178224
1.000010469
1.00000583684
1.00000601155
0.939672033001
0.940999995249
0.941823374547
0.942650145172
1.00001122618
1.00000723203
1.00000688793
0.941677638363
0.943254921263
0.943074729754
0.943368771971
1.00001099885
1.00000755222
1.00000704355
0.94313303326
0.94269470211
0.943360110337
0.942991341513
1.00001045116
1.0000082988
1.00000777711
0.942404526547
0.939349198616
0.942946563997
0.939628778853
1.00001307675
1.00000923268
1.00000577459
0.933604547068
0.901686227566
0.934407135843
0.903406302389
1.00001991978
1.00000795194
1.00000783688
0.89657622752
0.891007941731
0.897686919463
0.891161444799
1.00000007038
1.0000003519
1.00000133285
0.945700052343
0.944926309289
0.949330796351
0.947808525202
1.00000227736
1.00000431347
1.00000488848
0.938645656481
0.939169130737
0.944883446222
0.942971022796
1.00000426942
1.0000066784
1.0000063035
0.938690045234
0.940042738273
0.942669626302
0.942771374908
1.00000509199
1.00000642732
1.00000548075
0.940792694429
0.941986320851
0.943027075907
0.945132312219
1.00000563236
1.00000534007
1.00000483484
0.942613913764
0.943489528539
0.945286468203
0.946449553965
1.00000645594
1.00000535808
1.00000558755
0.943869140682
0.943847383143
0.946663728219
0.946455766188
1.00000709314
1.0000060723
1.00000590643
0.943801867613
0.943313167393
0.946269269948
0.945340575096
1.00000813481
1.00000739718
1.00000728734
0.943273742187
0.94125647462
0.945235837402
0.943667955322
1.00000867434
1.00001042871
1.00000813675
0.936436324042
0.905130908505
0.940343027139
0.912136664246
1.00000760409
1.00000981741
1.00000839722
0.898289029884
0.890840281305
0.903631234994
0.889985943948
0.950422474326
0.948569038884
1.0000064032
1.00000676619
0.945751468903
0.94349416029
0.943050624311
1.00000344556
1.00000673276
1.00000547132
0.942671880185
0.943218000526
0.940421618623
0.943123515091
1.00000244979
1.00000495897
1.0000044507
0.943236633739
0.945395665763
0.942756865909
0.9446935576
1.00000310642
1.00000463554
1.000004284
0.945484706529
0.946515183382
0.944772683277
0.946196719112
1.0000042114
1.00000435062
1.00000439648
0.946719710616
0.946648223019
0.946539842734
0.94787380075
1.0000056765
1.00000486322
1.00000494623
0.946537415211
0.945667760699
0.947951871712
0.947577057867
1.00000873867
1.00000703958
1.00000729666
0.945572469196
0.944781530921
0.947457796155
0.945104530103
1.00001041816
1.00000996738
1.00000804043
0.941666816142
0.913199188643
0.940271655986
0.91013108323
1.00000835285
1.00000972858
1.00000820163
0.904439426317
0.890273125682
0.90275809114
0.892709806535
1.00000364873
1.00000577204
0.94304825868
0.944707495655
0.947657168322
1.00000300975
1.00000569312
1.00000551095
0.944750967371
0.94623196183
0.947722744804
0.948987723416
1.00000347448
1.00000560191
1.00000577625
0.946624625027
0.948099776484
0.949302097844
0.949789479502
1.00000510079
1.0000060503
1.00000532706
0.948304166513
0.948071410594
0.949911595672
0.949577904553
1.00000725267
1.00000638613
1.00000573287
0.947952927163
0.944056143268
0.948836530046
0.938200552474
1.00000763636
1.0000060324
1.00000315322
0.938358183467
0.908593591565
0.930878685964
0.905828162256
1.00000715463
1.00000634093
1.0000064475
0.902608950647
0.895167968209
0.903559836514
0.902179398819
1.00000627859
0.949172589882
1.00000678036
0.947864654857
0.937186929956
1.00000557671
0.930398873403
0.906736555456
1.00000550118
0.905044150891
0.903884838214
4.81975292792e-05
1.07784481756e-05
2.50529352912e-05
1.94190674337e-06
0.0219134044064
0.0213260154072
9.66748232985e-07
8.46676346504e-07
4.93814873443e-07
6.56924970472e-07
0.022758874976
0.0219910946556
0.0224320423669
2.51439503508e-06
2.18709721253e-06
3.02910604846e-06
7.29757926244e-06
0.0236330935292
0.0229282524753
0.0235923820627
3.9517891035e-07
2.72730590005e-07
6.39093703543e-06
3.88434830011e-06
0.0255055806278
0.024622904291
0.0256176346109
2.94953194952e-06
1.97685066245e-05
4.86850785126e-06
4.43324082204e-06
0.0269847762074
0.0263196910787
0.0272595411486
1.59117639258e-05
1.06401264992e-05
3.94333541335e-06
2.07491237893e-06
0.0293642229245
0.0282770521422
0.029351247151
1.3689358276e-05
1.85984221929e-05
2.64905962183e-06
5.35941394801e-06
0.0323567667962
0.0306471506357
0.0326948437943
2.28333860119e-05
7.88110511694e-05
2.20315380409e-05
0.00012445855856
0.0389392293244
0.0359923462221
0.0397351637458
0.000227435554468
0.000426571636631
0.000310902385924
0.000498653623646
0.0422533739198
0.042034992531
0.0422263227853
0.000691174651474
0.000850614950079
0.000720502769761
0.000834701597614
0.0176057388898
0.0166975329905
0.0175204044752
1.33597670234e-05
2.29498177085e-06
2.43801911484e-05
9.66116444723e-06
0.0204368390254
0.0186886718994
0.0197130035281
8.71657558898e-07
8.02038921807e-07
2.53979877176e-06
3.3938381092e-07
0.0222407572614
0.020825615487
0.0215483880267
1.90256775216e-06
5.74546614604e-06
8.83180233351e-07
7.69543403772e-07
0.0233077271718
0.0220546499281
0.0229623507749
7.20738354222e-06
7.01092361102e-06
5.12333930173e-06
7.53440033353e-06
0.0254671667883
0.0238926286642
0.0250793884976
6.46588689554e-06
6.34521536169e-06
1.37353495505e-05
9.08118653391e-06
0.027335639958
0.0261780790505
0.0272153887603
2.47354874916e-06
1.52416920641e-06
7.64207175356e-06
1.79671143078e-06
0.0293364600484
0.0281994114451
0.0291303495918
2.94590204271e-07
3.63497375201e-06
2.49970711955e-06
6.04004048538e-06
0.0327237237292
0.0303026944615
0.0325472665812
1.95444809308e-05
0.000142271818301
3.56671017703e-05
0.000150759622203
0.0398175788177
0.0358195926605
0.0395018160671
0.000341586350461
0.000527065928272
0.000331718571145
0.000521033562369
0.0422090071548
0.0419542553413
0.0421478435474
0.000724503019776
0.000809345119831
0.000716259175404
0.000798818591039
0.0174850379335
0.016677012521
0.0171036920351
4.57008156467e-05
2.3778518774e-05
6.05537535268e-05
2.77685981201e-05
0.0190604645116
0.0178394126607
0.0187364120606
4.67377853809e-06
3.86881832651e-07
4.69922653743e-06
4.14799108722e-07
0.0208436460234
0.0195722640753
0.0203208827462
2.74961083197e-08
5.65669443811e-08
1.63894555509e-07
4.01907706585e-08
0.0224609142639
0.0211687738283
0.0218520470216
9.11314736505e-08
4.81461348761e-06
2.99828870873e-07
2.95208569908e-05
0.0245074508714
0.0228577190039
0.0238501043953
1.92547110413e-05
3.73890438577e-05
6.10752888023e-05
6.98963978763e-05
0.0266438235769
0.0248564365403
0.0258267656324
2.34084679948e-05
1.90147668659e-05
6.25633700931e-05
4.0759609141e-05
0.028587986139
0.0268663266091
0.0278574202601
1.09996555294e-05
1.53320987951e-05
3.24719989491e-05
2.29970542287e-05
0.0318436515147
0.0289876387569
0.0310243350255
3.32123585102e-05
0.000126328239282
3.94335488392e-05
0.0001055443961
0.0389081711494
0.0344730319296
0.0382609433029
0.000286336339539
0.000475415982996
0.000254078895667
0.000439458691666
0.0419763420248
0.04076646666
0.0414615187114
0.000656303165423
0.000734473230008
0.00062131721779
0.000714335105438
0.0188699919937
0.0192526783915
1.33420129317e-06
3.12147971879e-07
1.68918065885e-05
0.0205477400556
0.0202751072671
0.0205491654119
1.06953711479e-07
1.12447936037e-06
2.28712762762e-05
3.41058297202e-05
0.02174641467
0.0211962411321
0.0219367726102
2.37649384405e-05
4.74579193631e-05
4.24359137631e-05
3.98335076057e-05
0.0237011254595
0.0228204367167
0.0237069515023
5.59187625273e-05
5.71192236655e-05
3.502125747e-05
2.46876799984e-05
0.0255283133611
0.0245969297158
0.0253442459899
3.98639710217e-05
2.84762177533e-05
2.01829122784e-05
1.33133460777e-05
0.0274549277931
0.0261641351815
0.0270459159618
1.1984280373e-05
1.00948643105e-05
1.24116538875e-05
6.80102767195e-06
0.0304453287058
0.0282682124948
0.0304750987815
1.40524102361e-05
7.88642874057e-05
2.97023750211e-05
0.000108319368671
0.0378602028445
0.0340757135783
0.0376526428915
0.000229311865943
0.000416104553918
0.000258793056054
0.000422883215432
0.0409265299916
0.0398126046874
0.0403768203025
0.000592199424703
0.000683652651113
0.000581270748725
0.000664895100244
0.0218261574485
0.0211552886353
3.82482385469e-05
1.96832643804e-05
3.48324715089e-05
8.88981886802e-06
0.0236227773612
0.0220844310298
0.0229867881735
2.08201617378e-06
4.49197719234e-07
1.81496565969e-06
1.57666680516e-06
0.025297883785
0.0239042219963
0.0249011229016
1.70278098718e-07
1.58374882209e-06
3.14907914937e-07
5.32492435787e-08
0.0268610848549
0.0258035707474
0.0267951405173
5.02739106832e-07
8.91104840391e-06
6.92812503711e-06
5.33591907809e-05
0.0310149257905
0.0285258380541
0.0318223117187
4.68878145481e-05
0.000164619911107
0.000130020454714
0.000235632031849
0.0375450072715
0.0349049898752
0.0373290134816
0.000315028837967
0.00046158884077
0.000357976475427
0.000466917014708
0.0397546598473
0.0386359334195
0.0388415785057
0.000586522578432
0.000660271150283
0.000569117441597
0.000633988838715
0.0268330836867
0.00012873129811
0.0322701070846
0.000176529341635
0.000247208223618
0.000173125278005
0.000199616576551
0.0369339534181
0.000348003789194
0.000451158612995
0.000274527534984
0.000396963540816
0.0375883460199
0.000578658153133
0.000657829910948
0.000551643346141
0.000650756023052
0.999906378375
0.999911012925
0.924919181883
0.925538447242
0.999911837844
0.922214009641
0.999887007439
0.999920257064
0.999934139681
0.926616957454
0.929639761516
0.999928976243
0.999942172999
0.923516263681
0.999933146406
0.999924234924
0.928084302294
0.928570782624
0.999927242492
0.9288474152
0.999931046788
0.999943325468
0.99991963911
0.930650359193
0.932268774787
0.999948191516
0.929902810718
0.999929986053
0.999938678311
0.999923156594
0.929728158701
0.930846298509
0.999941112126
0.999923766241
0.930092170295
0.999939530664
0.999930836488
0.933299765257
0.932908096392
0.99994115826
0.9999268287
0.931126008862
0.999916486575
0.999909457764
0.935923343337
0.934198137184
0.999944162902
0.93573018397
0.99991029499
0.999853182332
0.99991326437
0.937561685797
0.937344219222
0.999802945863
0.936878589941
0.999913694381
0.999914583005
0.999936985696
0.934810282774
0.936848173378
0.999936428216
0.999943555878
0.93608607921
0.999886763082
0.999954679708
0.938163318022
0.937768201871
0.999878794572
0.999952371552
0.937414324563
0.99979555224
0.999916471137
0.939214391489
0.937707834962
0.999793779521
0.938450426452
0.999923453314
0.999809124693
0.99994419758
0.939970961759
0.940989337053
0.999836814641
0.93961408943
0.999929029362
0.999874268545
0.999953722387
0.938566297016
0.939713922407
0.999870597732
0.999955250353
0.939178766779
0.999882497424
0.999953064397
0.940935487674
0.940033635107
0.999898233843
0.999951681771
0.939991467047
0.999953193371
0.99995575921
0.943078455121
0.942436438537
0.999890201376
0.943205741891
0.999974288102
0.999985257411
1.00000118719
0.943553645639
0.942880381264
0.999987685612
0.943180565152
0.999995629112
0.999955513983
0.999960668968
0.94210694002
0.942163498928
0.999923968424
0.999961206697
0.942831618862
0.999977060652
0.999961096155
0.942768781638
0.942931280561
0.999988034288
0.999961853354
0.942824147452
0.999974397425
1.00000405738
0.942405566539
0.942663893001
0.999985531766
0.942641967981
1.00000374832
0.999963108433
1.00000024567
0.941715339442
0.941793752691
0.999956603589
0.942381385976
1.00000207734
0.999999101798
0.999962946076
0.942859829567
0.942821625754
0.99999595781
0.999964785132
0.942966552039
0.999998985726
0.999969737422
0.941998066776
0.942617961908
0.999993530486
0.999969337818
0.942701308032
0.999958668446
0.999993879253
0.940929846876
0.941502021817
0.999959026793
0.941360794831
0.999995240311
0.999965489415
0.999982746878
0.940724204054
0.939871503596
0.999954874261
0.941145467324
0.999994997223
0.999969071006
0.999971807589
0.941673984541
0.941560252153
0.999981243745
0.999972740455
0.941572554037
0.999963660329
0.999953755188
0.939528982748
0.941130088084
0.999950739539
0.999971715097
0.941248424585
0.999875757385
0.999960052043
0.930476743748
0.935603863105
0.999932851502
0.928675387472
0.999900746621
0.999792811074
0.999695666663
0.919561652892
0.906852365515
0.999684957811
0.917339068293
0.999818421491
0.999865022928
0.999921005139
0.934149245376
0.925165493748
0.999929487655
0.999850050069
0.926294286715
0.999773276152
0.999654643372
0.904684118615
0.913350106544
0.999670922494
0.999757570074
0.914678997447
0.999532483632
0.999581518649
0.89743947841
0.900417900542
0.999598817285
0.896102305592
0.999523494594
0.999433415351
0.9995077593
0.891648544708
0.892569448941
0.892281193034
0.99954368018
0.999417272656
0.999530503562
0.999556782656
0.899822138652
0.897539747773
0.999593298805
0.999550224032
0.896261113932
0.99944442282
0.999609121271
0.890180439167
0.896602860703
0.99952482259
0.894097505996
0.999542667197
0.999923346871
0.999948685905
0.941442275967
0.956321405066
0.999938759865
0.950384058391
0.999949542133
0.999908861619
0.999955488092
0.944917536314
0.932781026023
0.999953623529
0.999899779264
0.934153347468
0.999933144508
0.999922574218
0.954836029154
0.942875284826
0.999913319025
0.950669685787
0.999944578117
0.999883927114
0.999939597835
0.935230091828
0.945802201122
0.999889309888
0.999938132119
0.936631015574
0.999949599151
0.9999288634
0.927595003248
0.937280644607
0.999934388809
0.999942404962
0.934403189939
0.999934554619
0.999938083765
0.93161134717
0.931826873337
0.999956402363
0.999933558525
0.930484935457
0.999940479054
0.999915136883
0.93924112145
0.93669744312
0.999933256553
0.999915123117
0.936748426178
0.999935169845
0.999922433162
0.93426969414
0.938453228955
0.999943689733
0.999927977382
0.933118786609
0.999940579642
0.99992135385
0.93210200568
0.933693649097
0.999916152822
0.999940955168
0.933804115238
0.999946582488
0.999914021219
0.933871471807
0.93609445265
0.999914081358
0.999958415992
0.934422804102
0.999934796308
0.999918264732
0.935664105264
0.93760522733
0.999943251908
0.99992363576
0.935632176556
0.999927607084
0.999951124809
0.937688539792
0.938388047649
0.999927126032
0.999939791055
0.936126694172
0.999951098093
0.999916159456
0.937463582634
0.937214514799
0.99992376033
0.999959653016
0.938238935141
0.999934952525
0.999932858341
0.938153917596
0.939978789795
0.999933511515
0.99992925508
0.939562741253
0.999920900343
0.999962466669
0.938581017501
0.940782298596
0.999924579255
0.99997569187
0.939163930859
0.999921603427
0.999977467222
0.940850188867
0.940880264457
0.999928901314
0.999979433149
0.940190977289
0.999931350379
0.999932256177
0.940084254686
0.940029412442
0.999930424229
0.999931380297
0.940351017529
0.999932515643
0.999925591494
0.940387353357
0.941560816147
0.999926780523
0.999934287866
0.941098911168
0.999933112346
0.99997489775
0.940942715804
0.942475118102
0.999932308765
0.999973560839
0.941190414874
0.999933801963
0.999967701382
0.942232262259
0.942520856772
0.999934517247
0.999970742322
0.941838876495
0.999948333266
0.999929332067
0.942248954161
0.941963073953
0.999937481386
0.999939282896
0.942612852897
0.999958508995
0.999965383207
0.942919693564
0.942792409355
0.999947882137
0.99996267994
0.942802186815
0.999937985764
0.999968460871
0.942398153137
0.943178562936
0.999935359182
0.999969912554
0.942770236041
0.999942918843
0.999970934915
0.942994907044
0.943189083396
0.999947051161
0.99997082538
0.943013193484
0.999968334219
0.999980825984
0.942827371671
0.942888316426
0.999982978515
0.999968335039
0.943073452918
0.999968846683
0.999980233359
0.942741345545
0.94250973352
0.999981623778
0.999968571375
0.942925236111
0.999949752844
0.999972055371
0.942986255447
0.943107994545
0.999948076339
0.999971861741
0.943058487434
0.999952258607
0.99996933852
0.942666612877
0.942947825129
0.999951961156
0.999971117082
0.94297243146
0.999968464959
0.999978283206
0.941865044629
0.942411242411
0.999972885087
0.999969972041
0.942423052106
0.999961866359
0.999934655817
0.941273047115
0.939485417818
0.99996125643
0.999936725799
0.941827240789
0.999952631338
0.999969437688