/*--------------------------------*- C++ -*----------------------------------*\
| =========                 |                                                 |
| \\      /  F ield         | OpenFOAM: The Open Source CFD Toolbox           |
|  \\    /   O peration     | Version:  v1906                                 |
|   \\  /    A nd           | Web:      www.OpenFOAM.com                      |
|    \\/     M anipulation  |                                                 |
\*---------------------------------------------------------------------------*/
FoamFile
{
    version     2.0;
    format      ascii;
    class       volVectorField;
    location    "2.6";
    object      force.turbine;
}
// * * * * * * * * * * * * * * * * * * * * * * * * * * * * * * * * * * * * * //

dimensions      [1 -2 -2 0 0 0 0];


internalField   nonuniform List<vector> 
28582
(
(0 0 0)
(0 0 0)
(0 0 0)
(0 0 0)
(0 0 0)
(0 0 0)
(0 0 0)
(0 0 0)
(0 0 0)
(0 0 0)
(0 0 0)
(0 0 0)
(0 0 0)
(0 0 0)
(0 0 0)
(0 0 0)
(0 0 0)
(0 0 0)
(0 0 0)
(0 0 0)
(0 0 0)
(0 0 0)
(0 0 0)
(0 0 0)
(0 0 0)
(0 0 0)
(0 0 0)
(0 0 0)
(0 0 0)
(0 0 0)
(0 0 0)
(0 0 0)
(0 0 0)
(0 0 0)
(0 0 0)
(0 0 0)
(0 0 0)
(0 0 0)
(0 0 0)
(0 0 0)
(0 0 0)
(0 0 0)
(0 0 0)
(0 0 0)
(0 0 0)
(0 0 0)
(0 0 0)
(0 0 0)
(0 0 0)
(0 0 0)
(0 0 0)
(0 0 0)
(0 0 0)
(0 0 0)
(0 0 0)
(0 0 0)
(0 0 0)
(0 0 0)
(0 0 0)
(0 0 0)
(0 0 0)
(0 0 0)
(0 0 0)
(0 0 0)
(0 0 0)
(0 0 0)
(0 0 0)
(0 0 0)
(0 0 0)
(0 0 0)
(0 0 0)
(0 0 0)
(0 0 0)
(0 0 0)
(0 0 0)
(0 0 0)
(0 0 0)
(0 0 0)
(0 0 0)
(0 0 0)
(0 0 0)
(0 0 0)
(0 0 0)
(0 0 0)
(0 0 0)
(0 0 0)
(0 0 0)
(0 0 0)
(0 0 0)
(0 0 0)
(0 0 0)
(0 0 0)
(0 0 0)
(0 0 0)
(0 0 0)
(0 0 0)
(0 0 0)
(0 0 0)
(0 0 0)
(0 0 0)
(0 0 0)
(0 0 0)
(0 0 0)
(0 0 0)
(0 0 0)
(0 0 0)
(0 0 0)
(0 0 0)
(0 0 0)
(0 0 0)
(0 0 0)
(0 0 0)
(0 0 0)
(0 0 0)
(0 0 0)
(0 0 0)
(0 0 0)
(0 0 0)
(0 0 0)
(0 0 0)
(0 0 0)
(0 0 0)
(0 0 0)
(0 0 0)
(0 0 0)
(0 0 0)
(0 0 0)
(0 0 0)
(0 0 0)
(0 0 0)
(0 0 0)
(0 0 0)
(0 0 0)
(0 0 0)
(0 0 0)
(0 0 0)
(0 0 0)
(0 0 0)
(0 0 0)
(0 0 0)
(0 0 0)
(0 0 0)
(0 0 0)
(0 0 0)
(0 0 0)
(0 0 0)
(0 0 0)
(0 0 0)
(0 0 0)
(0 0 0)
(0 0 0)
(0 0 0)
(0 0 0)
(0 0 0)
(0 0 0)
(0 0 0)
(0 0 0)
(0 0 0)
(0 0 0)
(0 0 0)
(0 0 0)
(0 0 0)
(0 0 0)
(0 0 0)
(0 0 0)
(0 0 0)
(0 0 0)
(0 0 0)
(0 0 0)
(0 0 0)
(0 0 0)
(0 0 0)
(0 0 0)
(0 0 0)
(0 0 0)
(0 0 0)
(0 0 0)
(0 0 0)
(0 0 0)
(0 0 0)
(0 0 0)
(0 0 0)
(0 0 0)
(0 0 0)
(0 0 0)
(0 0 0)
(0 0 0)
(0 0 0)
(0 0 0)
(0 0 0)
(0 0 0)
(0 0 0)
(0 0 0)
(0 0 0)
(0 0 0)
(0 0 0)
(0 0 0)
(0 0 0)
(0 0 0)
(0 0 0)
(0 0 0)
(0 0 0)
(0 0 0)
(0 0 0)
(0 0 0)
(0 0 0)
(0 0 0)
(0 0 0)
(0 0 0)
(0 0 0)
(0 0 0)
(0 0 0)
(0 0 0)
(0 0 0)
(0 0 0)
(0 0 0)
(0 0 0)
(-0.00099748384774 1.61661004508e-05 0)
(0 0 0)
(0 0 0)
(0 0 0)
(0 0 0)
(-2.49320325058e-05 1.83135729583e-07 0)
(0 0 0)
(-2.50308030235e-06 1.51439900497e-08 0)
(0 0 0)
(0 0 0)
(0 0 0)
(0 0 0)
(0 0 0)
(0 0 0)
(0 0 0)
(0 0 0)
(0 0 0)
(0 0 0)
(0 0 0)
(0 0 0)
(-0.016569034238 0.000470542473052 0)
(0 0 0)
(0 0 0)
(0 0 0)
(-0.0313669545171 0.000629137318828 0)
(0 0 0)
(0 0 0)
(-0.0294068416659 0.000818022059495 0)
(-0.350926031719 -0.00285569915731 0.0497172040097)
(-0.0847668803134 0.00170019718608 0)
(-0.809744754271 0.0162433169582 0)
(-0.00623031193876 5.35402430771e-05 0)
(-0.0835394270733 0.00167557775291 0)
(0 0 0)
(0 0 0)
(0 0 0)
(0 0 0)
(0 0 0)
(-0.0165689901725 0.000470541221642 0)
(0 0 0)
(0 0 0)
(0 0 0)
(-0.0307230331809 0.000616221976894 0)
(0 0 0)
(0 0 0)
(0 0 0)
(0 0 0)
(0 0 0)
(0 0 0)
(0 0 0)
(0 0 0)
(-1.4928580948e-05 1.17626581084e-07 0)
(0 0 0)
(-9.05490460651e-06 7.13461965752e-08 0)
(-0.000128426797938 1.60313398145e-06 0)
(-0.000582216899084 7.26773314041e-06 0)
(-7.77824737078e-05 9.70947876641e-07 0)
(-0.000350384330191 4.37379920167e-06 0)
(0 0 0)
(0 0 0)
(-9.51960010727e-05 7.8832860366e-07 0)
(0 0 0)
(0 0 0)
(0 0 0)
(0 0 0)
(0 0 0)
(0 0 0)
(-0.0049175166056 7.96975987075e-05 0)
(-0.000216827953806 2.86520156269e-06 0)
(-0.00113272644086 1.83579608508e-05 0)
(-2.79782511823e-05 3.08643816899e-07 0)
(-0.000128469092383 1.60366193716e-06 0)
(-3.56954949807e-06 2.15962796039e-08 0)
(-2.80927033058e-05 3.09906402613e-07 0)
(0 0 0)
(0 0 0)
(0 0 0)
(0 0 0)
(0 0 0)
(-0.000122488050053 1.01433707692e-06 0)
(0 0 0)
(0 0 0)
(0 0 0)
(0 0 0)
(0 0 0)
(0 0 0)
(0 0 0)
(0 0 0)
(0 0 0)
(0 0 0)
(0 0 0)
(0 0 0)
(0 0 0)
(0 0 0)
(0 0 0)
(0 0 0)
(0 0 0)
(0 0 0)
(0 0 0)
(0 0 0)
(-0.00527687089485 4.64458063865e-05 0)
(0 0 0)
(0 0 0)
(0 0 0)
(0 0 0)
(0 0 0)
(-0.00493234188408 4.23861254474e-05 0)
(0 0 0)
(0 0 0)
(0 0 0)
(0 0 0)
(0 0 0)
(0 0 0)
(0 0 0)
(0 0 0)
(0 0 0)
(0 0 0)
(0 0 0)
(0 0 0)
(0 0 0)
(0 0 0)
(0 0 0)
(0 0 0)
(0 0 0)
(0 0 0)
(0 0 0)
(0 0 0)
(0 0 0)
(0 0 0)
(-0.0371655983459 0.000859906501534 0)
(-0.00924364521981 0.000140777871418 0)
(-0.0151724653626 0.000231071977246 0)
(-0.0105256882394 0.000176071159575 0)
(-0.0198931713618 0.000460271545501 0)
(0 0 0)
(0 0 0)
(0 0 0)
(0 0 0)
(0 0 0)
(0 0 0)
(0 0 0)
(0 0 0)
(0 0 0)
(0 0 0)
(-0.00554004941384 4.76084657063e-05 0)
(0 0 0)
(-0.00819738495273 0.00013712386699 0)
(0 0 0)
(0 0 0)
(-0.133680971835 0.00308140948598 0)
(-0.104113502168 0.00239986535702 0)
(-0.206683663689 0.00414603273646 0)
(-0.0454999147344 0.000912606748202 0)
(-0.249754897261 0.00575696824332 0)
(-0.0540748089057 0.00125113766001 0)
(-0.108567070484 0.0021775654248 0)
(-0.282997276695 0.00652322077663 0)
(-0.987794701571 0.0227691340199 0)
(-0.437461842455 0.00877539660077 0)
(-0.430713052005 0.00864001722131 0)
(-0.528730954974 0.0121874980248 0)
(-0.230666308789 0.00462711977506 0)
(-0.528707263963 0.0121869519358 0)
(-0.063146495525 0.00145555652122 0)
(-0.00928866278499 0.000155378497849 0)
(-0.021425826797 0.000429744851938 0)
(-0.0212329322797 0.00042587590319 0)
(-0.0255431034088 0.000590994943393 0)
(-0.0255426615336 0.000590984719656 0)
(-0.0511653410137 0.00102624006563 0)
(-0.133677968119 0.00308134024891 0)
(-0.10410987051 0.00239978164558 0)
(-0.202935242686 0.00407084016482 0)
(-0.0449260563514 0.000901096681955 0)
(-0.0540740218118 0.00125111944889 0)
(-0.10706321412 0.00214740208329 0)
(-0.249740541049 0.00575663732585 0)
(0 0 0)
(0 0 0)
(0 0 0)
(0 0 0)
(0 0 0)
(0 0 0)
(0 0 0)
(0 0 0)
(0 0 0)
(0 0 0)
(0 0 0)
(0 0 0)
(0 0 0)
(0 0 0)
(0 0 0)
(0 0 0)
(0 0 0)
(0 0 0)
(0 0 0)
(0 0 0)
(0 0 0)
(0 0 0)
(0 0 0)
(-0.00547702507661 4.70668654834e-05 0)
(0 0 0)
(-0.00819703593364 0.000137118028683 0)
(0 0 0)
(0 0 0)
(0 0 0)
(-0.0371641318072 0.000859872569991 0)
(-0.0149538236957 0.000227742131959 0)
(-0.00898744615982 0.000136876038595 0)
(-0.0198925278425 0.00046025665629 0)
(0 0 0)
(-0.0105250827466 0.000176061031039 0)
(0 0 0)
(0 0 0)
(0 0 0)
(0 0 0)
(0 0 0)
(0 0 0)
(0 0 0)
(0 0 0)
(0 0 0)
(0 0 0)
(0 0 0)
(0 0 0)
(0 0 0)
(0 0 0)
(0 0 0)
(0 0 0)
(0 0 0)
(0 0 0)
(0 0 0)
(0 0 0)
(0 0 0)
(0 0 0)
(0 0 0)
(0 0 0)
(0 0 0)
(0 0 0)
(0 0 0)
(0 0 0)
(0 0 0)
(0 0 0)
(0 0 0)
(0 0 0)
(0 0 0)
(0 0 0)
(0 0 0)
(0 0 0)
(-0.0154373107139 0.000312050117698 0)
(0 0 0)
(0 0 0)
(0 0 0)
(0 0 0)
(0 0 0)
(0 0 0)
(0 0 0)
(-0.00344455620979 6.96283303877e-05 0)
(0 0 0)
(0 0 0)
(0 0 0)
(0 0 0)
(0 0 0)
(0 0 0)
(0 0 0)
(0 0 0)
(0 0 0)
(0 0 0)
(0 0 0)
(0 0 0)
(0 0 0)
(0 0 0)
(0 0 0)
(0 0 0)
(0 0 0)
(0 0 0)
(0 0 0)
(0 0 0)
(0 0 0)
(0 0 0)
(0 0 0)
(0 0 0)
(0 0 0)
(0 0 0)
(0 0 0)
(-0.331468620002 0.00912339993027 0)
(-0.0079247423868 0.000160190906328 0)
(0 0 0)
(0 0 0)
(0 0 0)
(0 0 0)
(0 0 0)
(0 0 0)
(-0.0727795127923 0.00202274292401 0)
(0 0 0)
(0 0 0)
(0 0 0)
(0 0 0)
(0 0 0)
(0 0 0)
(0 0 0)
(0 0 0)
(0 0 0)
(0 0 0)
(0 0 0)
(0 0 0)
(0 0 0)
(0 0 0)
(0 0 0)
(0 0 0)
(0 0 0)
(0 0 0)
(0 0 0)
(0 0 0)
(0 0 0)
(0 0 0)
(0 0 0)
(0 0 0)
(0 0 0)
(0 0 0)
(0 0 0)
(-1.56571605297 0.0543661354345 0)
(-0.0447394184916 0.00158563095392 0)
(0 0 0)
(0 0 0)
(0 0 0)
(0 0 0)
(0 0 0)
(0 0 0)
(-0.343502319873 0.0117937574574 0)
(-0.00678636899452 0.000264139919797 0)
(0 0 0)
(0 0 0)
(0 0 0)
(0 0 0)
(0 0 0)
(0 0 0)
(0 0 0)
(0 0 0)
(0 0 0)
(0 0 0)
(0 0 0)
(0 0 0)
(0 0 0)
(0 0 0)
(0 0 0)
(0 0 0)
(0 0 0)
(0 0 0)
(0 0 0)
(0 0 0)
(0 0 0)
(0 0 0)
(0 0 0)
(0 0 0)
(0 0 0)
(0 0 0)
(0 0 0)
(0 0 0)
(0 0 0)
(0 0 0)
(0 0 0)
(0 0 0)
(0 0 0)
(-2.64702555772 0.0736333851443 0)
(-0.0799360605667 0.00222361386631 0)
(0 0 0)
(0 0 0)
(0 0 0)
(0 0 0)
(0 0 0)
(0 0 0)
(-2.64712110627 0.0736360430571 0)
(-0.59065246378 0.0164304195043 0)
(-0.0165690314713 0.000470542394481 0)
(0 0 0)
(0 0 0)
(0 0 0)
(0 0 0)
(0 0 0)
(0 0 0)
(-0.0484837407542 0.00134869191035 0)
(-0.0799363293138 0.00222362134216 0)
(-0.0165690638717 0.000470543314619 0)
(0 0 0)
(0 0 0)
(0 0 0)
(0 0 0)
(0 0 0)
(0 0 0)
(0 0 0)
(0 0 0)
(0 0 0)
(0 0 0)
(0 0 0)
(0 0 0)
(0 0 0)
(0 0 0)
(0 0 0)
(0 0 0)
(0 0 0)
(0 0 0)
(0 0 0)
(0 0 0)
(0 0 0)
(0 0 0)
(0 0 0)
(0 0 0)
(0 0 0)
(0 0 0)
(-0.0322695915641 0.000523734586611 0)
(-0.000989369688174 1.6034595245e-05 0)
(0 0 0)
(0 0 0)
(0 0 0)
(0 0 0)
(0 0 0)
(0 0 0)
(-0.014383995679 0.000233451855621 0)
(-0.0276268696972 0.000448383337963 0)
(-0.00686478649895 0.000111256767081 0)
(-0.000171869880472 1.42327347112e-06 0)
(0 0 0)
(0 0 0)
(0 0 0)
(0 0 0)
(0 0 0)
(0 0 0)
(-0.000419769245614 5.54690240531e-06 0)
(-0.000788673358041 1.27819340211e-05 0)
(-0.000152923669625 1.26637780562e-06 0)
(0 0 0)
(0 0 0)
(0 0 0)
(0 0 0)
(0 0 0)
(0 0 0)
(0 0 0)
(0 0 0)
(0 0 0)
(0 0 0)
(0 0 0)
(0 0 0)
(0 0 0)
(0 0 0)
(0 0 0)
(0 0 0)
(0 0 0)
(0 0 0)
(0 0 0)
(0 0 0)
(0 0 0)
(0 0 0)
(0 0 0)
(0 0 0)
(0 0 0)
(0 0 0)
(-0.000193310951909 1.70314844928e-06 0)
(-0.000193245610518 1.70257276494e-06 0)
(-2.49090823811e-05 1.82967151757e-07 0)
(0 0 0)
(0 0 0)
(0 0 0)
(0 0 0)
(0 0 0)
(0 0 0)
(0 0 0)
(-2.49096753751e-05 1.82971507535e-07 0)
(-2.49063739133e-05 1.8294725698e-07 0)
(-2.50052556583e-06 1.51285335322e-08 0)
(0 0 0)
(0 0 0)
(0 0 0)
(0 0 0)
(0 0 0)
(0 0 0)
(0 0 0)
(0 0 0)
(0 0 0)
(0 0 0)
(0 0 0)
(0 0 0)
(0 0 0)
(0 0 0)
(0 0 0)
(0 0 0)
(0 0 0)
(0 0 0)
(0 0 0)
(0 0 0)
(0 0 0)
(0 0 0)
(0 0 0)
(0 0 0)
(0 0 0)
(0 0 0)
(0 0 0)
(0 0 0)
(0 0 0)
(0 0 0)
(0 0 0)
(0 0 0)
(0 0 0)
(0 0 0)
(0 0 0)
(0 0 0)
(-0.00344451449209 6.96274871052e-05 0)
(-0.00936325844044 0.000189269099556 0)
(-0.00208922537818 4.2231644957e-05 0)
(-0.0891143272432 0.0021464591985 0)
(-0.0182347823413 0.000368598266969 0)
(-0.0540514080192 0.00130191345796 0)
(-0.0110608681759 0.00022358461782 0)
(0 0 0)
(0 0 0)
(0 0 0)
(-0.00246778333445 4.98838233058e-05 0)
(0 0 0)
(0 0 0)
(0 0 0)
(0 0 0)
(0 0 0)
(0 0 0)
(-0.0182370452114 0.000368644008671 0)
(-0.00406923797417 8.22556604785e-05 0)
(-0.00406926465974 8.2256199901e-05 0)
(0 0 0)
(0 0 0)
(0 0 0)
(0 0 0)
(0 0 0)
(0 0 0)
(0 0 0)
(0 0 0)
(-0.0727679842061 0.00202242251287 0)
(-0.201038576341 0.00553342073032 0)
(-0.0441359420825 0.00122665927699 0)
(-0.827691846576 0.0260863179539 0)
(-0.182635359583 0.00580881338293 0)
(-0.501988708917 0.0158211502557 0)
(-0.110760863579 0.00352280734756 0)
(0 0 0)
(-0.00480660553244 9.7160823535e-05 0)
(0 0 0)
(-0.0235313769135 0.000773059544169 0)
(0 0 0)
(-0.0125720033321 0.000404103775926 0)
(0 0 0)
(-0.0153663121175 0.000418077595053 0)
(-0.0153673920699 0.000418106977765 0)
(-0.00291571600986 5.89383436605e-05 0)
(-0.182622747448 0.00580841224737 0)
(-0.038793945411 0.00127446982241 0)
(-0.0387988026569 0.00127462939404 0)
(-0.00762591065523 0.000245120782205 0)
(0 0 0)
(0 0 0)
(0 0 0)
(-0.00344432070652 6.96235699195e-05 0)
(0 0 0)
(0 0 0)
(0 0 0)
(-0.343500457843 0.0117936935268 0)
(-0.933703436554 0.0320576346382 0)
(-0.208344240376 0.00715326009894 0)
(-2.30180937142 0.0766887128922 0)
(-0.507728903932 0.0167739299994 0)
(-1.38014846792 0.045596210124 0)
(-0.307961157927 0.010174167485 0)
(0 0 0)
(-0.0271357993289 0.000961732736495 0)
(0 0 0)
(-0.0687166934336 0.00227020560878 0)
(0 0 0)
(-0.0416792202403 0.00137696380357 0)
(0 0 0)
(-0.0766522042665 0.0026317653576 0)
(-0.0766534584733 0.00263180841935 0)
(-0.0145011592011 0.000561677425054 0)
(-0.507744451505 0.0167744436473 0)
(-0.113294713229 0.00374293756824 0)
(-0.113296335306 0.00374299115709 0)
(-0.0252798666637 0.000835175446044 0)
(0 0 0)
(0 0 0)
(0 0 0)
(-0.0138498811989 0.000497587474559 0)
(0 0 0)
(0 0 0)
(0 0 0)
(-7.38924621165 0.211322475455 0)
(-4.39050791525 0.122913930778 0)
(-4.47964404118 0.0898607587602 0)
(-2.12579257835 0.0426429716964 0)
(-0.590652017905 0.0164304071012 0)
(-1.6055342926 0.0446617995752 0)
(-0.358246605994 0.00996549135646 0)
(-2.71828633337 0.0545282772914 0)
(-0.28869217527 0.00579110698963 0)
(-1.28926409251 0.0258623784682 0)
(-0.136656141713 0.00274129472581 0)
(0 0 0)
(-0.0484837216834 0.00134869137985 0)
(0 0 0)
(-0.104729795837 0.00210059994566 0)
(0 0 0)
(-0.0495563296004 0.000993967594742 0)
(0 0 0)
(0 0 0)
(0 0 0)
(0 0 0)
(0 0 0)
(0 0 0)
(0 0 0)
(0 0 0)
(0 0 0)
(0 0 0)
(0 0 0)
(0 0 0)
(0 0 0)
(0 0 0)
(0 0 0)
(0 0 0)
(0 0 0)
(0 0 0)
(0 0 0)
(0 0 0)
(0 0 0)
(0 0 0)
(0 0 0)
(0 0 0)
(0 0 0)
(0 0 0)
(0 0 0)
(0 0 0)
(0 0 0)
(0 0 0)
(0 0 0)
(0 0 0)
(0 0 0)
(0 0 0)
(0 0 0)
(0 0 0)
(0 0 0)
(0 0 0)
(0 0 0)
(0 0 0)
(0 0 0)
(0 0 0)
(0 0 0)
(-0.577380630873 0.00344367501847 0.0497172252612)
(-0.590648675318 0.0164303141191 0)
(-1.30992118154 0.0262767555205 0)
(-2.76348551547 0.0554349637964 0)
(-0.138204037117 0.00277234519639 0)
(-0.292383342764 0.00586515106738 0)
(-1.60556399971 0.0446626259498 0)
(-0.590651546799 0.0164303939963 0)
(-0.358248062997 0.0099655318865 0)
(-2.72383287524 0.0546395398062 0)
(-1.29183286647 0.0259139075571 0)
(-0.290018629871 0.00581771540221 0)
(-0.137140886267 0.00275101860409 0)
(-0.131792656271 0.00366612985283 0)
(-0.131792336056 0.00366612094529 0)
(-0.0294069139646 0.000818024070658 0)
(-0.783311756275 0.0157130763332 0)
(-0.0816424628147 0.00163752971713 0)
(-0.0818269032202 0.00164122909898 0)
(-0.00607337575023 5.21916104943e-05 0)
(0 0 0)
(0 0 0)
(0 0 0)
(-0.0300769091209 0.000603262454207 0)
(0 0 0)
(0 0 0)
(0 0 0)
(0 0 0)
(0 0 0)
(0 0 0)
(0 0 0)
(0 0 0)
(0 0 0)
(0 0 0)
(0 0 0)
(0 0 0)
(0 0 0)
(0 0 0)
(0 0 0)
(0 0 0)
(0 0 0)
(0 0 0)
(0 0 0)
(0 0 0)
(0 0 0)
(0 0 0)
(0 0 0)
(0 0 0)
(0 0 0)
(0 0 0)
(0 0 0)
(0 0 0)
(0 0 0)
(0 0 0)
(0 0 0)
(0 0 0)
(0 0 0)
(0 0 0)
(0 0 0)
(0 0 0)
(0 0 0)
(0 0 0)
(0 0 0)
(0 0 0)
(0 0 0)
(0 0 0)
(0 0 0)
(0 0 0)
(0 0 0)
(-0.0799363365691 0.00222362154398 0)
(0 0 0)
(0 0 0)
(-0.05010328478 0.00100493805459 0)
(-0.105981964452 0.00212571510323 0)
(0 0 0)
(0 0 0)
(-0.0484839458498 0.00134869761558 0)
(0 0 0)
(0 0 0)
(-0.105278279395 0.00211160106071 0)
(-0.0497576422692 0.000998005389122 0)
(0 0 0)
(0 0 0)
(0 0 0)
(0 0 0)
(0 0 0)
(-0.0301641569322 0.000605012412241 0)
(0 0 0)
(0 0 0)
(0 0 0)
(0 0 0)
(0 0 0)
(0 0 0)
(0 0 0)
(0 0 0)
(0 0 0)
(0 0 0)
(0 0 0)
(0 0 0)
(0 0 0)
(0 0 0)
(0 0 0)
(0 0 0)
(0 0 0)
(0 0 0)
(0 0 0)
(0 0 0)
(0 0 0)
(0 0 0)
(0 0 0)
(0 0 0)
(0 0 0)
(0 0 0)
(0 0 0)
(0 0 0)
(0 0 0)
(0 0 0)
(0 0 0)
(0 0 0)
(0 0 0)
(0 0 0)
(0 0 0)
(0 0 0)
(0 0 0)
(0 0 0)
(0 0 0)
(0 0 0)
(0 0 0)
(0 0 0)
(0 0 0)
(0 0 0)
(0 0 0)
(0 0 0)
(0 0 0)
(0 0 0)
(0 0 0)
(0 0 0)
(0 0 0)
(0 0 0)
(0 0 0)
(0 0 0)
(0 0 0)
(0 0 0)
(0 0 0)
(0 0 0)
(0 0 0)
(0 0 0)
(0 0 0)
(0 0 0)
(0 0 0)
(0 0 0)
(0 0 0)
(0 0 0)
(0 0 0)
(0 0 0)
(0 0 0)
(0 0 0)
(0 0 0)
(0 0 0)
(0 0 0)
(0 0 0)
(0 0 0)
(0 0 0)
(0 0 0)
(0 0 0)
(0 0 0)
(0 0 0)
(0 0 0)
(0 0 0)
(0 0 0)
(0 0 0)
(0 0 0)
(0 0 0)
(0 0 0)
(0 0 0)
(0 0 0)
(0 0 0)
(0 0 0)
(0 0 0)
(0 0 0)
(0 0 0)
(0 0 0)
(0 0 0)
(0 0 0)
(0 0 0)
(0 0 0)
(0 0 0)
(0 0 0)
(0 0 0)
(0 0 0)
(0 0 0)
(0 0 0)
(0 0 0)
(0 0 0)
(0 0 0)
(0 0 0)
(0 0 0)
(0 0 0)
(0 0 0)
(0 0 0)
(0 0 0)
(0 0 0)
(0 0 0)
(0 0 0)
(0 0 0)
(0 0 0)
(0 0 0)
(0 0 0)
(0 0 0)
(0 0 0)
(0 0 0)
(0 0 0)
(0 0 0)
(0 0 0)
(0 0 0)
(0 0 0)
(0 0 0)
(0 0 0)
(0 0 0)
(0 0 0)
(0 0 0)
(0 0 0)
(0 0 0)
(0 0 0)
(0 0 0)
(0 0 0)
(0 0 0)
(0 0 0)
(0 0 0)
(0 0 0)
(0 0 0)
(0 0 0)
(0 0 0)
(0 0 0)
(0 0 0)
(0 0 0)
(0 0 0)
(0 0 0)
(0 0 0)
(0 0 0)
(0 0 0)
(0 0 0)
(0 0 0)
(0 0 0)
(0 0 0)
(0 0 0)
(0 0 0)
(0 0 0)
(0 0 0)
(0 0 0)
(0 0 0)
(0 0 0)
(0 0 0)
(0 0 0)
(0 0 0)
(0 0 0)
(0 0 0)
(0 0 0)
(0 0 0)
(0 0 0)
(-0.00158335599344 1.97817672631e-05 0)
(-0.00251753738018 3.14530268222e-05 0)
(-0.000937897428225 1.17076440621e-05 0)
(-0.00151364650792 1.89108469998e-05 0)
(-0.0855841804241 0.00138902890251 0)
(-0.0505788638589 0.000820893574118 0)
(-0.00249315821407 3.11484440297e-05 0)
(-0.00151199594215 1.88902255425e-05 0)
(-0.00151146416265 1.88835817187e-05 0)
(-0.000915628617 1.14296655672e-05 0)
(-0.00724238854928 0.000117376517982 0)
(-0.0191611533458 0.000310984993616 0)
(-0.0043323094744 7.02132172924e-05 0)
(-0.000556385207193 6.94527969819e-06 0)
(-0.000124105887719 1.54919665595e-06 0)
(-0.000337637527946 4.21468262972e-06 0)
(-7.56569422825e-05 9.44415161418e-07 0)
(0 0 0)
(-0.000565377172165 7.47099038093e-06 0)
(0 0 0)
(-1.46270238988e-05 1.152505264e-07 0)
(0 0 0)
(-8.92478108403e-06 7.03209159326e-08 0)
(0 0 0)
(0 0 0)
(0 0 0)
(0 0 0)
(0 0 0)
(0 0 0)
(0 0 0)
(0 0 0)
(0 0 0)
(0 0 0)
(0 0 0)
(0 0 0)
(0 0 0)
(0 0 0)
(0 0 0)
(0 0 0)
(0 0 0)
(0 0 0)
(0 0 0)
(0 0 0)
(0 0 0)
(0 0 0)
(0 0 0)
(0 0 0)
(0 0 0)
(0 0 0)
(0 0 0)
(0 0 0)
(0 0 0)
(0 0 0)
(0 0 0)
(0 0 0)
(0 0 0)
(0 0 0)
(0 0 0)
(0 0 0)
(0 0 0)
(0 0 0)
(0 0 0)
(0 0 0)
(0 0 0)
(0 0 0)
(0 0 0)
(-0.0255662483879 0.000414939510593 0)
(-0.00327217623828 5.3031765758e-05 0)
(-0.00564571575046 9.14994344471e-05 0)
(-0.000341106588277 4.25798643071e-06 0)
(-0.000556263730247 6.94376331826e-06 0)
(-7.69369019781e-05 9.60392721522e-07 0)
(-0.000125029195003 1.56072217326e-06 0)
(-0.0178659485763 0.000289963855707 0)
(-0.00600180075996 9.72704612619e-05 0)
(-0.00382964337796 6.20665684752e-05 0)
(-0.000555475714636 6.93392662821e-06 0)
(-0.00033688967355 4.20534726658e-06 0)
(-0.00012414945863 1.54974054561e-06 0)
(-7.51355811586e-05 9.37907082514e-07 0)
(-0.00158075838047 2.56191604756e-05 0)
(-0.00148451526955 2.40593599813e-05 0)
(-0.000323145603077 4.27010111318e-06 0)
(-0.000124070738434 1.54875789227e-06 0)
(-2.70684516274e-05 2.98607306561e-07 0)
(-2.69379051276e-05 2.97167174734e-07 0)
(-3.42026499939e-06 2.06930872611e-08 0)
(0 0 0)
(0 0 0)
(0 0 0)
(0 0 0)
(0 0 0)
(0 0 0)
(0 0 0)
(0 0 0)
(0 0 0)
(0 0 0)
(0 0 0)
(0 0 0)
(0 0 0)
(0 0 0)
(0 0 0)
(0 0 0)
(0 0 0)
(0 0 0)
(0 0 0)
(0 0 0)
(0 0 0)
(0 0 0)
(0 0 0)
(0 0 0)
(0 0 0)
(0 0 0)
(0 0 0)
(0 0 0)
(0 0 0)
(0 0 0)
(0 0 0)
(0 0 0)
(0 0 0)
(0 0 0)
(0 0 0)
(0 0 0)
(0 0 0)
(0 0 0)
(0 0 0)
(0 0 0)
(0 0 0)
(0 0 0)
(0 0 0)
(0 0 0)
(0 0 0)
(0 0 0)
(0 0 0)
(0 0 0)
(0 0 0)
(-0.000762605675329 1.23594582304e-05 0)
(0 0 0)
(0 0 0)
(-9.27254349623e-06 7.3061035956e-08 0)
(-1.49680869868e-05 1.17937860521e-07 0)
(0 0 0)
(0 0 0)
(-0.000473998312293 6.26349454145e-06 0)
(0 0 0)
(0 0 0)
(-1.46894303989e-05 1.15742245155e-07 0)
(-8.8716650533e-06 6.99023994563e-08 0)
(0 0 0)
(0 0 0)
(0 0 0)
(0 0 0)
(0 0 0)
(0 0 0)
(0 0 0)
(0 0 0)
(0 0 0)
(0 0 0)
(0 0 0)
(0 0 0)
(0 0 0)
(0 0 0)
(0 0 0)
(0 0 0)
(0 0 0)
(0 0 0)
(0 0 0)
(0 0 0)
(0 0 0)
(0 0 0)
(0 0 0)
(0 0 0)
(0 0 0)
(0 0 0)
(0 0 0)
(0 0 0)
(0 0 0)
(0 0 0)
(0 0 0)
(0 0 0)
(0 0 0)
(0 0 0)
(0 0 0)
(0 0 0)
(0 0 0)
(0 0 0)
(0 0 0)
(0 0 0)
(0 0 0)
(0 0 0)
(0 0 0)
(0 0 0)
(0 0 0)
(0 0 0)
(0 0 0)
(0 0 0)
(0 0 0)
(0 0 0)
(0 0 0)
(0 0 0)
(0 0 0)
(0 0 0)
(0 0 0)
(0 0 0)
(0 0 0)
(0 0 0)
(0 0 0)
(0 0 0)
(0 0 0)
(0 0 0)
(0 0 0)
(0 0 0)
(0 0 0)
(0 0 0)
(0 0 0)
(0 0 0)
(0 0 0)
(0 0 0)
(0 0 0)
(0 0 0)
(0 0 0)
(0 0 0)
(0 0 0)
(0 0 0)
(0 0 0)
(0 0 0)
(0 0 0)
(0 0 0)
(0 0 0)
(0 0 0)
(0 0 0)
(0 0 0)
(0 0 0)
(0 0 0)
(0 0 0)
(0 0 0)
(0 0 0)
(0 0 0)
(0 0 0)
(0 0 0)
(0 0 0)
(0 0 0)
(0 0 0)
(0 0 0)
(0 0 0)
(0 0 0)
(0 0 0)
(0 0 0)
(0 0 0)
(0 0 0)
(0 0 0)
(0 0 0)
(0 0 0)
(0 0 0)
(0 0 0)
(0 0 0)
(0 0 0)
(0 0 0)
(0 0 0)
(0 0 0)
(0 0 0)
(0 0 0)
(0 0 0)
(0 0 0)
(0 0 0)
(0 0 0)
(0 0 0)
(0 0 0)
(0 0 0)
(0 0 0)
(0 0 0)
(0 0 0)
(0 0 0)
(0 0 0)
(0 0 0)
(0 0 0)
(0 0 0)
(0 0 0)
(0 0 0)
(0 0 0)
(0 0 0)
(0 0 0)
(0 0 0)
(0 0 0)
(0 0 0)
(0 0 0)
(0 0 0)
(0 0 0)
(0 0 0)
(0 0 0)
(0 0 0)
(0 0 0)
(0 0 0)
(0 0 0)
(0 0 0)
(0 0 0)
(0 0 0)
(0 0 0)
(0 0 0)
(0 0 0)
(0 0 0)
(0 0 0)
(0 0 0)
(0 0 0)
(0 0 0)
(0 0 0)
(0 0 0)
(0 0 0)
(0 0 0)
(0 0 0)
(0 0 0)
(0 0 0)
(0 0 0)
(0 0 0)
(0 0 0)
(0 0 0)
(0 0 0)
(0 0 0)
(0 0 0)
(0 0 0)
(0 0 0)
(0 0 0)
(0 0 0)
(0 0 0)
(0 0 0)
(0 0 0)
(0 0 0)
(0 0 0)
(0 0 0)
(0 0 0)
(0 0 0)
(0 0 0)
(-7.31535332994 0.169208164743 0)
(-5.68394202492 0.131017545975 0)
(-6.52098949953 0.130809738209 0)
(-3.95782532592 0.0793931802523 0)
(-5.01606536553 0.115622673799 0)
(-5.73793995087 0.115101921708 0)
(-8.29801694957 0.192239039009 0)
(-5.68399452012 0.131018756014 0)
(-2.68496613675 0.0618897365102 0)
(-3.08594538248 0.0619034438926 0)
(-3.09600145537 0.0621051666929 0)
(-3.90658252488 0.0900485707478 0)
(-3.90663403112 0.090049757991 0)
(-4.47501552249 0.089767911606 0)
(-1.62851266618 0.0375379854643 0)
(-3.44753064719 0.0794672083366 0)
(-1.46000322532 0.0292873711423 0)
(-2.40839877777 0.048311995234 0)
(-3.04244425957 0.0701297759382 0)
(-1.28950660156 0.0258672431508 0)
(-1.84534273758 0.042536020934 0)
(-0.769262737192 0.0177318691139 0)
(-0.363365388446 0.00837574367888 0)
(-0.691561462431 0.0138725838866 0)
(-0.254853193446 0.00511230381813 0)
(-0.320677977242 0.00739177870607 0)
(-0.609811149514 0.0122326890467 0)
(-0.871677263818 0.0200925722829 0)
(-1.26829394915 0.0292347740465 0)
(-1.62849641285 0.0375376108174 0)
(-1.87799817018 0.0376722656916 0)
(-0.691706907259 0.0138755014806 0)
(-2.36949080479 0.0546178812333 0)
(-0.8716718472 0.0200924474273 0)
(-1.00561312795 0.0201723971517 0)
(-0.599100150784 0.013809541196 0)
(-0.171643576091 0.00395646542896 0)
(-0.198699128559 0.00398586456718 0)
(-0.327462146733 0.00656882482183 0)
(-0.249742504942 0.00575668259453 0)
(-0.41174988538 0.00949102916626 0)
(-0.475545441697 0.00953934594425 0)
(-0.0371625055114 0.00085983494212 0)
(-0.133673296308 0.00308123256147 0)
(-0.0340798314759 0.000683550383864 0)
(-0.0924680067669 0.00185466121115 0)
(-0.117970360256 0.00271927247511 0)
(-0.0300691452965 0.000603106732628 0)
(-0.0421103751401 0.000974314607505 0)
(-0.00928753525226 0.000155359636755 0)
(0 0 0)
(-0.00886792993869 0.000135055843335 0)
(0 0 0)
(0 0 0)
(-0.00606113212674 5.2086394803e-05 0)
(-0.0105247924977 0.000176056175826 0)
(-0.0289421333503 0.000669638852698 0)
(-0.0631445307776 0.00145551123286 0)
(-0.0720612937192 0.00144535705872 0)
(-0.014609629778 0.000222500164539 0)
(-0.0918746989912 0.0021177551682 0)
(-0.0198921937463 0.000460248926253 0)
(-0.0234267711164 0.000469878449977 0)
(-0.0052762391986 4.64402463411e-05 0)
(0 0 0)
(0 0 0)
(0 0 0)
(0 0 0)
(0 0 0)
(-0.0047231108328 4.05880964795e-05 0)
(0 0 0)
(0 0 0)
(0 0 0)
(0 0 0)
(0 0 0)
(0 0 0)
(0 0 0)
(0 0 0)
(0 0 0)
(0 0 0)
(0 0 0)
(0 0 0)
(0 0 0)
(0 0 0)
(0 0 0)
(0 0 0)
(0 0 0)
(0 0 0)
(0 0 0)
(0 0 0)
(0 0 0)
(0 0 0)
(0 0 0)
(0 0 0)
(0 0 0)
(0 0 0)
(0 0 0)
(0 0 0)
(0 0 0)
(0 0 0)
(0 0 0)
(0 0 0)
(0 0 0)
(0 0 0)
(0 0 0)
(0 0 0)
(0 0 0)
(0 0 0)
(0 0 0)
(0 0 0)
(0 0 0)
(0 0 0)
(0 0 0)
(0 0 0)
(0 0 0)
(0 0 0)
(0 0 0)
(0 0 0)
(0 0 0)
(0 0 0)
(0 0 0)
(0 0 0)
(0 0 0)
(0 0 0)
(0 0 0)
(0 0 0)
(0 0 0)
(0 0 0)
(0 0 0)
(0 0 0)
(0 0 0)
(0 0 0)
(0 0 0)
(0 0 0)
(0 0 0)
(0 0 0)
(0 0 0)
(0 0 0)
(0 0 0)
(0 0 0)
(0 0 0)
(0 0 0)
(0 0 0)
(0 0 0)
(0 0 0)
(0 0 0)
(0 0 0)
(0 0 0)
(0 0 0)
(0 0 0)
(0 0 0)
(0 0 0)
(0 0 0)
(0 0 0)
(0 0 0)
(0 0 0)
(0 0 0)
(0 0 0)
(0 0 0)
(0 0 0)
(0 0 0)
(0 0 0)
(0 0 0)
(0 0 0)
(0 0 0)
(0 0 0)
(0 0 0)
(0 0 0)
(0 0 0)
(0 0 0)
(0 0 0)
(0 0 0)
(0 0 0)
(0 0 0)
(0 0 0)
(0 0 0)
(0 0 0)
(0 0 0)
(0 0 0)
(0 0 0)
(0 0 0)
(0 0 0)
(0 0 0)
(0 0 0)
(0 0 0)
(0 0 0)
(0 0 0)
(0 0 0)
(0 0 0)
(0 0 0)
(0 0 0)
(0 0 0)
(0 0 0)
(0 0 0)
(0 0 0)
(0 0 0)
(0 0 0)
(0 0 0)
(0 0 0)
(0 0 0)
(0 0 0)
(0 0 0)
(0 0 0)
(0 0 0)
(0 0 0)
(0 0 0)
(0 0 0)
(0 0 0)
(0 0 0)
(0 0 0)
(0 0 0)
(0 0 0)
(0 0 0)
(0 0 0)
(0 0 0)
(0 0 0)
(0 0 0)
(0 0 0)
(0 0 0)
(0 0 0)
(0 0 0)
(0 0 0)
(0 0 0)
(0 0 0)
(0 0 0)
(0 0 0)
(0 0 0)
(0 0 0)
(0 0 0)
(0 0 0)
(0 0 0)
(0 0 0)
(0 0 0)
(0 0 0)
(0 0 0)
(0 0 0)
(0 0 0)
(0 0 0)
(-1.26827452266 0.0292343262567 0)
(-1.6285379488 0.0375385682406 0)
(-1.90163453813 0.0381464064801 0)
(-0.710616958341 0.0142548333031 0)
(-2.36948523639 0.0546177528789 0)
(-1.02752904168 0.0206120259745 0)
(-0.871694294529 0.0200929648488 0)
(-1.62847315506 0.0375370747144 0)
(-3.44763829369 0.0794696896392 0)
(-2.45075101084 0.0491615725137 0)
(-1.46738384062 0.0294354248012 0)
(-3.04252444785 0.070131624316 0)
(-1.84528509209 0.0425346921783 0)
(-1.29686481609 0.0260148474548 0)
(-0.599096328438 0.0138094530891 0)
(-0.171642159248 0.00395643277006 0)
(-0.335150857468 0.00672305881324 0)
(-0.200735565369 0.00402671508012 0)
(-0.249735558857 0.00575652248397 0)
(-0.485516070239 0.00973935474803 0)
(-0.411757186915 0.0094911974701 0)
(-0.769217087426 0.0177308168652 0)
(-0.363372634075 0.00837591069404 0)
(-0.694960976301 0.0139407774513 0)
(-0.258548836128 0.00518643766725 0)
(-0.87164184036 0.0200917557555 0)
(-0.320674754478 0.00739170441985 0)
(-0.61421861671 0.0123211019525 0)
(-1.62853943464 0.0375386024899 0)
(-3.44754658923 0.0794675758081 0)
(-2.40587066507 0.0482612818016 0)
(-1.47445471718 0.0295772651634 0)
(-3.04246598164 0.0701302766424 0)
(-1.84536367775 0.042536503615 0)
(-1.29721129516 0.0260217977554 0)
(-1.26828872401 0.0292346536046 0)
(-1.62852069921 0.0375381706296 0)
(-1.88179800713 0.0377484896567 0)
(-0.692434783315 0.0138901025279 0)
(-2.36952700072 0.0546187155664 0)
(-0.87168037496 0.0200926439962 0)
(-1.00603732738 0.020180906507 0)
(-0.769260549621 0.0177318186893 0)
(-0.363363753999 0.00837570600411 0)
(-0.697938344615 0.014000502861 0)
(-0.256062552799 0.00513656332359 0)
(-0.871680111983 0.0200926379344 0)
(-0.320667383006 0.00739153450393 0)
(-0.614295529259 0.0123226448028 0)
(-0.599097540676 0.0138094810318 0)
(-0.171642135059 0.0039564322125 0)
(-0.327939571182 0.00657840186029 0)
(-0.199795121637 0.00400784996797 0)
(-0.411756821463 0.00949118904625 0)
(-0.24973921622 0.00575660678793 0)
(-0.47656210027 0.0095597399108 0)
(-0.282995169549 0.00652317220592 0)
(-0.987731224642 0.0227676708467 0)
(-0.420106797347 0.00842725788543 0)
(-0.420823394748 0.00844163268522 0)
(-0.528691679078 0.0121865926968 0)
(-0.528704779837 0.0121868946755 0)
(-0.225277152441 0.0045190143823 0)
(-0.133678254371 0.00308134684716 0)
(-0.104105342486 0.00239967727249 0)
(-0.198820714051 0.00398830354771 0)
(-0.0437673615178 0.000877856358749 0)
(-0.249735749064 0.00575652686834 0)
(-0.0540733915542 0.00125110486651 0)
(-0.104805150533 0.00210211135958 0)
(-0.133676680309 0.00308131056428 0)
(-0.104105783854 0.00239968744622 0)
(-0.19920195548 0.00399595117411 0)
(-0.0438379226544 0.000879271626664 0)
(-0.249743027322 0.00575669463563 0)
(-0.0540715126744 0.00125106139457 0)
(-0.104940648761 0.00210482909208 0)
(-0.0631439391254 0.001455497595 0)
(-0.00928844411882 0.000155374840054 0)
(-0.0207094064437 0.000415375373385 0)
(-0.0207248389906 0.000415684909052 0)
(-0.0255416631081 0.000590961618921 0)
(-0.0255419862934 0.000590969096512 0)
(-0.0495966243491 0.000994775799763 0)
(0 0 0)
(-0.037162493366 0.00085983466111 0)
(-0.0088670030207 0.000135041726659 0)
(-0.0146153365638 0.00022258707713 0)
(-0.0105248983428 0.000176057946377 0)
(-0.0198925136511 0.000460256327941 0)
(0 0 0)
(0 0 0)
(0 0 0)
(0 0 0)
(0 0 0)
(0 0 0)
(0 0 0)
(0 0 0)
(0 0 0)
(0 0 0)
(-0.00535863962604 4.60495190226e-05 0)
(0 0 0)
(-0.00819680577746 0.000137114178686 0)
(0 0 0)
(0 0 0)
(0 0 0)
(0 0 0)
(0 0 0)
(0 0 0)
(0 0 0)
(0 0 0)
(0 0 0)
(0 0 0)
(0 0 0)
(0 0 0)
(0 0 0)
(0 0 0)
(0 0 0)
(0 0 0)
(0 0 0)
(0 0 0)
(0 0 0)
(0 0 0)
(0 0 0)
(0 0 0)
(0 0 0)
(0 0 0)
(0 0 0)
(0 0 0)
(0 0 0)
(0 0 0)
(0 0 0)
(0 0 0)
(0 0 0)
(0 0 0)
(0 0 0)
(0 0 0)
(0 0 0)
(0 0 0)
(0 0 0)
(0 0 0)
(0 0 0)
(0 0 0)
(0 0 0)
(0 0 0)
(0 0 0)
(0 0 0)
(0 0 0)
(0 0 0)
(0 0 0)
(0 0 0)
(0 0 0)
(0 0 0)
(0 0 0)
(0 0 0)
(0 0 0)
(0 0 0)
(0 0 0)
(0 0 0)
(0 0 0)
(0 0 0)
(0 0 0)
(0 0 0)
(0 0 0)
(0 0 0)
(0 0 0)
(0 0 0)
(0 0 0)
(0 0 0)
(0 0 0)
(0 0 0)
(0 0 0)
(0 0 0)
(0 0 0)
(0 0 0)
(0 0 0)
(0 0 0)
(0 0 0)
(0 0 0)
(0 0 0)
(0 0 0)
(0 0 0)
(0 0 0)
(0 0 0)
(0 0 0)
(0 0 0)
(0 0 0)
(0 0 0)
(0 0 0)
(0 0 0)
(0 0 0)
(0 0 0)
(0 0 0)
(0 0 0)
(0 0 0)
(0 0 0)
(0 0 0)
(0 0 0)
(0 0 0)
(0 0 0)
(0 0 0)
(0 0 0)
(0 0 0)
(0 0 0)
(0 0 0)
(0 0 0)
(0 0 0)
(0 0 0)
(0 0 0)
(0 0 0)
(0 0 0)
(0 0 0)
(0 0 0)
(0 0 0)
(0 0 0)
(0 0 0)
(0 0 0)
(0 0 0)
(0 0 0)
(0 0 0)
(0 0 0)
(0 0 0)
(0 0 0)
(0 0 0)
(0 0 0)
(0 0 0)
(0 0 0)
(0 0 0)
(0 0 0)
(0 0 0)
(0 0 0)
(0 0 0)
(0 0 0)
(0 0 0)
(0 0 0)
(0 0 0)
(0 0 0)
(0 0 0)
(0 0 0)
(0 0 0)
(0 0 0)
(0 0 0)
(0 0 0)
(0 0 0)
(0 0 0)
(0 0 0)
(0 0 0)
(0 0 0)
(0 0 0)
(0 0 0)
(0 0 0)
(0 0 0)
(0 0 0)
(0 0 0)
(0 0 0)
(0 0 0)
(0 0 0)
(0 0 0)
(0 0 0)
(0 0 0)
(0 0 0)
(0 0 0)
(0 0 0)
(0 0 0)
(0 0 0)
(0 0 0)
(0 0 0)
(0 0 0)
(0 0 0)
(0 0 0)
(0 0 0)
(0 0 0)
(0 0 0)
(0 0 0)
(0 0 0)
(0 0 0)
(0 0 0)
(0 0 0)
(0 0 0)
(0 0 0)
(-0.0289426995026 0.000669651951856 0)
(-0.0631438424924 0.00145549536756 0)
(-0.0727362091823 0.00145889406004 0)
(-0.0148297635501 0.000225852734129 0)
(-0.0918715641078 0.00211768290765 0)
(-0.0237815247713 0.000476993860659 0)
(-0.0198921673243 0.000460248314923 0)
(-0.0371628489447 0.000859842888191 0)
(-0.133678204915 0.00308134570718 0)
(-0.0936722111257 0.00187881433386 0)
(-0.0343122711844 0.000688212503514 0)
(-0.117968502684 0.00271922965719 0)
(-0.0421110640161 0.00097433054614 0)
(-0.030303349419 0.000607804241707 0)
(-0.00527664927785 4.64438557646e-05 0)
(0 0 0)
(0 0 0)
(0 0 0)
(0 0 0)
(-0.00479111412211 4.11724833731e-05 0)
(0 0 0)
(-0.00928846245034 0.000155375146699 0)
(0 0 0)
(-0.00892860724529 0.000135979940037 0)
(0 0 0)
(-0.0105252014518 0.000176063016712 0)
(0 0 0)
(-0.00611326171689 5.25343709165e-05 0)
(-0.0371633518289 0.000859854523506 0)
(-0.133675975785 0.00308129432466 0)
(-0.0929665000234 0.00186465965427 0)
(-0.0343788942479 0.000689548784203 0)
(-0.117968561853 0.00271923102108 0)
(-0.042111506182 0.000974340776606 0)
(-0.0302893695965 0.000607523843812 0)
(-0.028942945116 0.000669657634655 0)
(-0.0631451108836 0.00145552460458 0)
(-0.0724887159616 0.00145393000715 0)
(-0.0146769704154 0.000223525741719 0)
(-0.0918756679395 0.00211777750291 0)
(-0.0198922127733 0.000460249366483 0)
(-0.0235490268375 0.000472330573167 0)
(-0.00928856570914 0.000155376873987 0)
(0 0 0)
(-0.00894199949551 0.000136183899886 0)
(0 0 0)
(-0.0105252994394 0.000176064655823 0)
(0 0 0)
(-0.00610652921248 5.24765150777e-05 0)
(-0.00527662080424 4.64436051463e-05 0)
(0 0 0)
(0 0 0)
(0 0 0)