/*--------------------------------*- C++ -*----------------------------------*\
| =========                 |                                                 |
| \\      /  F ield         | OpenFOAM: The Open Source CFD Toolbox           |
|  \\    /   O peration     | Version:  v1906                                 |
|   \\  /    A nd           | Web:      www.OpenFOAM.com                      |
|    \\/     M anipulation  |                                                 |
\*---------------------------------------------------------------------------*/
FoamFile
{
    version     2.0;
    format      ascii;
    class       volScalarField;
    location    "4.1";
    object      alpha.water;
}
// * * * * * * * * * * * * * * * * * * * * * * * * * * * * * * * * * * * * * //

dimensions      [0 0 0 0 0 0 0];


internalField   nonuniform List<scalar> 
28582
(
1.00000076902
1.00000073331
1.00000077715
1.00000071761
1.00000102118
1.00000109365
1.00000527378
1.00000342294
0.0248050874283
0.0273995193499
2.01836360593e-06
1.00000464631
0.941381007717
0.936542762312
1.00000340589
1.0000042682
0.935605761591
0.999786611798
0.999796334367
1.00000025976
0.999999649266
0.999998681289
0.999999980883
1.00000004042
0.999999884956
1.00000083255
1.00000198603
1.00000566504
1.00000240107
0.0292602705618
1.42655650319e-06
3.69096520654e-06
1.00000621927
1.00000597027
0.942117560478
0.939969491711
0.99993915945
1.00000142324
1.00000357855
1.0000055248
0.999764958568
0.921187747562
0.999769605112
0.999771679966
0.0251801431177
0.0272980477019
8.60754899124e-05
0.000106302479688
0.0259883976589
0.000116460975995
0.999935290327
0.999926101759
0.939500690551
0.939051373544
0.999923829112
0.93739111794
0.999935038242
0.999919272197
0.999931823871
0.937849272489
0.935564516823
0.999910430386
0.936536074698
0.99993804793
0.999851573629
0.999912179356
0.93449516167
0.934497288129
0.99989424622
0.93322221175
0.999890969672
0.999821125197
0.931205950905
0.931000132514
0.999824315235
0.932996395475
0.932034758181
0.999853869053
0.99979712434
0.931124177941
0.93131472146
0.99984028805
0.932342638068
0.999848883437
0.932004181938
0.0242776622648
3.71994408597e-05
0.0246928719792
0.0246772254703
3.08144987955e-05
3.10912682404e-05
0.0287947931653
0.000127852642111
0.000134653062158
0.0308762725653
0.000211394235664
0.0316169407331
0.000210119716065
0.999910878835
0.999921296306
0.940576152293
0.943826179656
0.99991416005
0.999916422953
0.943013392976
0.999912188962
0.999906385803
0.94026413657
0.942220217157
0.999903177827
0.999912638102
0.942516622833
0.944430394015
0.943896767441
0.99994554125
0.999942124197
0.943464422994
0.999953472007
0.943596370949
0.999791196974
0.929442239859
0.929529413527
0.999746754986
0.927312476958
0.999776453127
0.927953860488
0.999738244
0.999724762219
0.924617369834
0.923245820009
0.999757719692
0.999724159404
0.925760493615
0.999783697105
0.999790521517
0.93007111657
0.930241184089
0.929255444484
0.999777468754
0.928949008813
0.927681163266
0.92626908563
0.999772405559
0.999778804676
0.925120039133
0.999766689503
0.927307273837
1.00000251811
1.00000015072
0.0340806344733
5.29086858228e-06
1.00000657312
0.943076239456
1.00000818999
1.00000916157
0.917338091013
0.924136771652
0.911116839889
1.0000081056
1.00000865205
0.905809717467
0.891527855936
0.024318119066
0.0330852964487
0.0356017729147
0.000298078913484
0.000283063081037
0.000363233026208
0.0382904980215
0.0408171200189
0.999993867752
0.999947757618
0.943227638094
0.941649158086
0.999984895898
0.942740309675
0.999965512082
0.999650933157
0.999687118396
0.913168055586
0.919924921502
0.999631919728
0.999693734412
0.916031960022
0.999691084449
0.999777478254
0.922349869608
0.921101090056
0.999734690943
0.918678267921
0.999758232277
0.999653419137
0.999668424097
0.909176009209
0.916458260804
0.999596363612
0.914120750358
0.999721861546
0.999473966712
0.999600659164
0.903943734221
0.900351955602
0.999539731025
0.899213899345
0.999510159222
0.999392893209
0.999383776194
0.890913093315
0.895353971544
0.999344879847
0.894871213672
0.999419577921
1.000016369
1.00000769234
1.00000768504
1.00000653151
0.022861116519
0.0265469524936
0.0213564485124
0.0259913855294
0.0245512965158
7.1158849221e-06
2.47370078537e-05
5.79421432296e-06
1.79825663721e-05
2.52554483888e-06
1.64308189367e-05
1.00000739753
1.00000750512
0.96069122534
0.960400593837
1.00000906613
0.961198011655
1.00000565442
1.00000869446
0.961015518773
0.962088611819
1.00001769165
1.00001588461
1.00001949661
0.960297449138
0.952323880233
0.961320476244
0.952331703609
1.00002129928
1.00002149858
0.947815648571
0.944249771407
0.946071236908
0.94244259505
1.00000818531
1.00001169467
0.962920157936
0.95442634998
0.955209531333
1.00000636807
1.00001151309
1.00000967028
0.947835194109
0.942456511311
0.949647023089
0.944934854468
0.950309496819
0.946268982619
0.0226752905911
0.022648212822
0.0230897624592
4.39973414886e-05
0.000141117049739
0.000103787154002
0.000180657238404
0.000279717190037
0.000289579754928
0.000294678631546
0.00027103117386
0.0217995564263
0.0209854959311
0.024831064885
0.0223742997173
0.0246014032233
0.000122089434788
0.000182533539915
0.000102119340726
0.000170964325053
0.027116586224
0.0265706448814
0.0271726307813
0.00027028393228
0.000255179188948
0.000265421656827
0.000259159105394
0.0236248863149
0.0230477486063
6.49338308113e-05
0.00013833305116
0.000115196474096
0.0269140917472
0.0252597877388
0.0261619619928
0.000241280230106
0.000261692079749
0.000195292932072
0.000242927673355
0.999974947242
0.999997899699
0.960024720093
0.960226967146
0.999974370709
0.959528404464
0.999999171081
0.999947010272
0.99996778056
0.96018417349
0.959167068053
0.999950810177
0.999962597409
0.959319281626
0.999983024532
0.999980497793
0.961594921626
0.960289944647
0.999965642146
0.999997188208
0.961475990204
0.999946373913
0.999971891067
0.959625797898
0.961428731092
0.999961253816
0.999967170448
0.960480380156
0.999965252323
0.999984713618
0.96187432528
0.961736393012
0.999979641853
0.999971587835
0.961130701174
0.999939042566
0.999986385517
0.95879781192
0.960960341281
0.999983560563
0.999966226433
0.958563228005
0.999911344895
0.999930000181
0.956449851272
0.950792479314
0.999971459544
0.999919444868
0.953882825895
0.999969273227
0.999995523525
0.961274950772
0.959831282515
0.999981231606
0.999981495324
0.958884563869
0.999943491639
0.999944348603
0.95066855723
0.957099417976
0.999911823575
0.999947795123
0.953907795349
0.99986536294
0.999914726443
0.947281608002
0.949269659577
0.999892886525
0.999907874661
0.945522160266
0.999860528926
0.99990653018
0.946151890133
0.94363516901
0.999886488856
0.942785660066
0.99988198507
0.999865831986
0.999936029407
0.9484667065
0.94406257561
0.999882639156
0.99990611195
0.944217366749
0.999845264208
0.99991112973
0.9418227758
0.9442264203
0.999894608628
0.940727938834
0.999859268428
0.999997867703
0.999999655599
0.962048641294
0.963417377845
0.999997055659
1
0.962744663374
0.999994131545
0.999966894337
0.959168400749
0.955504566956
0.999984066481
0.999980488918
0.959295758663
0.999989899201
0.999978242279
0.955801586242
0.959313522747
0.999981309589
0.999993661321
0.959815548346
0.99994087123
0.999960579778
0.945023117755
0.952043079406
0.999929550596
0.999951977619
0.946952020359
0.999919253406
0.999894267634
0.944620451453
0.941995442899
0.999881711011
0.942187287224
0.999900692531
0.999929272026
0.999963608882
0.95224075098
0.946929936477
0.999953483452
0.999939279959
0.947678377849
0.999909913287
0.999925828101
0.942749763381
0.946190945805
0.999915663353
0.943249678847
0.999900080113
0.9999422192
0.999953034823
0.947528605014
0.950441510826
0.999947327624
0.999954711254
0.949261499972
0.999918544863
0.947031672207
0.999922873847
1.00000000272
1.00000005629
1.00000031315
0.999998068567
0.999996624937
0.999995935393
1.00000014392
1.00000037084
1.00000062649
0.999999633096
0.999999070923
0.999998541038
1.00000765982
0.999966631712
0.999938638253
0.999944738525
0.999973073452
0.999991484173
0.99999619885
0.999994318735
0.999989224583
0.999996486558
0.999994261307
0.999990160642
0.99998216556
0.999986206713
0.999994410721
0.999998383011
0.999996910398
0.999997479231
0.999997244917
0.99999797746
0.999998553112
0.999998490149
0.999998279292
0.999998863705
0.999997334011
0.99999904347
0.999999545194
0.99999954509
0.999999933324
0.999999784824
0.999999538692
0.999999809451
0.999999915229
0.999999587291
0.999999208445
0.999999796398
1.00001215053
0.999907421181
0.999759370412
0.999963045647
0.999995111488
0.99999734833
0.999996960751
0.999996782014
1.00000601451
0.999864711328
0.99988048167
0.999972874107
0.999996587799
0.999998339948
0.999998097959
0.999999205597
0.99999468461
0.999981071499
0.999986149762
0.999995403059
0.999998925056
0.999999032156
0.99999908029
0.999999983492
0.999999538833
0.999999878677
1.00000009891
1.00000018647
1
0.999999538321
0.999999413022
1.0000001515
1.00000073106
1.00000067113
1.00000073059
1.0000019267
1.00002391041
0.999548957107
0.99990457625
0.999994234085
0.999999925042
1.00000168268
1.00000145155
1.00000106853
1.00002115557
0.999900435697
0.999952711634
0.999994903382
0.999999912676
1.00000068413
1.00000105871
1.00000164242
1.00000100811
0.999995091833
0.999994986659
0.999998137865
0.99999982706
1.00000016302
1.00000087256
1.00000208227
1.00000002068
1.00000019525
1.00000037715
1.00000067531
1.0000007974
1.00000046659
1.0000002697
1.00000089539
1.00000197932
1.00000093809
1.00000111965
1.00000129272
1.00000143379
1.00000162301
1.00000220769
1.00000296787
1.00000311696
1.00000348659
1.00000372856
1.00003439692
0.99983530364
0.999926217012
0.99999987702
1.00000456514
1.00000584689
1.00000338297
1.00000964653
1.00001142406
1.00000899074
1.00000594448
1.00000427483
1.00000523873
1.00000737004
1.00000380158
1.00000086983
1.00001175633
1.00000531508
1.00000455983
1.00000351695
1.00000355797
1.00000456466
1.00000506261
1.00000448961
0.999999694767
0.999995171631
1.00000058291
1.00000730988
1.0000048737
1.00000443771
1.0000050495
1.00000378579
1.00000165479
0.999997950932
0.999993854549
1.00000029066
1.0000069395
1.00000794302
1.00000382633
1
0.999996104972
0.999995084391
0.999999938246
0.999999174079
0.999998688826
1.00000101791
0.0251659378329
0.0251981788178
0.0248462619949
0.0254440866104
0.0290790766887
0.0377089913756
0.0422479299015
0.0427922895721
0.0265734743156
0.0252161194268
0.0234693320159
0.0238102945837
0.0240121472693
0.0248339009286
0.0296464653767
0.038156442521
0.0412284425642
0.0411127076203
0.0266742495451
0.0257050366714
0.0248741020596
0.024009578228
0.024261946707
0.0259629099831
0.0310281249859
0.0387690976795
0.0418915237556
0.0424988887193
0.0251548687489
0.0262620973161
0.0260236225474
0.025296208315
0.0270390726655
0.0326192709592
0.0394890352992
0.0430122059889
0.0454421480266
0.0243669911833
0.0253716468494
0.0288567760977
0.034724839442
0.0407209082015
0.0438330986763
0.0448033471847
0.0394157372609
0.0429386583132
0.0435406434738
6.83278970663e-06
1.56761669209e-07
-8.22549342016e-27
-2.13507937757e-29
-8.68427151258e-27
8.8562579783e-08
5.22608409698e-06
1.40646430559e-05
1.69876804986e-06
6.07370885247e-05
4.70384356451e-06
4.49640605669e-07
3.98597499653e-09
4.82219779029e-10
-6.71730519547e-26
4.6954243447e-07
7.41489484125e-06
1.09725982828e-05
1.42499208024e-06
6.67182729709e-05
9.83536554738e-06
2.25674727291e-06
5.62992661806e-07
3.61068029456e-07
4.64572784172e-07
1.22415756248e-06
9.07805348327e-06
1.14323236441e-05
3.86072335942e-07
4.84380531398e-05
2.66602023544e-06
1.0801322118e-06
5.33760715587e-07
1.2883219197e-06
1.98632389629e-06
1.33437503041e-05
1.35817843599e-05
3.16409702436e-07
4.69801531948e-05
5.62004778082e-07
1.22865562882e-06
5.32144481751e-06
1.95652866156e-05
7.65812787207e-06
2.66148714053e-06
7.29172865229e-05
2.24705625259e-06
2.05499558722e-06
8.35178647867e-05
0.999995458453
0.99999118517
0.999987690975
1.00000731446
0.999964269707
1.00000437357
0.999958544472
0.999969922391
0.999988792046
0.999994873368
0.999877917983
0.999864908558
0.999883859714
0.999896411639
0.999992643041
0.999992099847
0.999994849165
0.999984652334
0.999980830628
0.99999690597
0.999993916934
0.999994703699
0.999996803588
0.99999574558
0.999982306828
0.999980279769
0.999989922805
0.999991705166
0.999985229241
1.00001707532
0.999978890857
1.00002471671
0.999969261916
1.00000986048
0.999826380976
0.999660159691
0.999749228664
0.999566463823
0.999657417326
0.999512544265
0.999512544265
0.999512458227
0.99997695835
0.999986845904
0.999987636482
1.00001460055
0.999992903754
1.00000513195
0.999996362774
0.999835281685
0.999987970173
0.999991933055
0.999877427411
0.999577836465
0.999963535576
0.999937789031
0.999906476415
1.00001452681
0.999957990751
1.00001546961
0.999859448003
1.00002398926
0.999945591013
0.999525978918
0.999620897015
0.999565978209
0.999513945189
0.999697619386
0.999772539377
0.999812084702
0.999997587822
1.00000974364
1.00000072826
1.00001834443
0.999996564524
1.00000752053
1.00000505678
0.999717711573
0.999976896429
0.999952301843
0.999946873594
0.99994018317
1.00000284191
1.0000012624
1.00008243791
1.00005069146
0.927868495663
0.93281565944
0.999984260843
1.00002412667
1.00000153845
0.928260634006
0.930432965913
0.933216283011
0.933836308007
0.999826831426
0.999961988311
0.999950592671
0.931129601027
0.93260128047
0.933905692752
0.934306383223
0.999991732721
0.999968806582
0.999994105171
0.933157709448
0.934669926707
0.934666412014
0.936146600203
1.00000104961
0.999999964475
1.00000313542
0.935188389213
0.937477471788
0.936721252103
0.938870144924
1.00000396901
1.00000656062
1.00000785071
0.937570714759
0.92499533643
0.938227905214
0.923614482492
1.00000652193
1.00000086071
1.00000185092
0.914678110361
0.883508922579
0.91351776344
0.885048190908
1.00000736161
1.00000569216
1.00001179529
0.879220411324
0.882234031131
0.881106024328
0.88449899713
1.0000130187
1.00001706428
1.00002248425
0.885280567083
0.885451240904
0.887857981047
0.88594982612
1.00001806805
1.00001618833
0.942816840115
0.938075932514
0.940851993524
0.941175641965
1.00001021322
1.00001471994
1.00001228398
0.935297177539
0.934470028798
0.939191162275
0.9372992288
1.00000735824
1.00000792236
1.00000658394
0.935397925442
0.935543919891
0.937835418466
0.939231435097
1.00000451986
1.00000427026
1.00000354627
0.935426093094
0.935669492968
0.93949260687
0.939651341172
1.00000448286
1.00000255804
1.00000193033
0.935917238591
0.937063137438
0.939148305246
0.935786089463
1.00000643133
1.00000298679
1.00000327822
0.937498466479
0.938451835757
0.935583030917
0.93532339521
1.0000054753
1.00000420412
1.00000385008
0.937358545197
0.922256250071
0.934084756897
0.918747875238
0.999999299474
0.999999269923
0.99999504318
0.912601197709
0.885477694589
0.909719672002
0.884732253927
1.00000852309
0.999995764411
0.999997916459
0.882093649669
0.885068120465
0.88189305624
0.884869520043
1.00001721225
1.00000609466
1.00000930989
0.888585530649
0.88613749005
0.888571864573
0.885061648666
1.00000369039
1.00000801137
1.00000743631
0.940874681896
0.942179703061
0.943752976352
0.94376036332
1.00000261832
1.00000554834
1.00000505544
0.940644085218
0.937557900541
0.942204981859
0.935908399062
1.00000289065
1.00000162634
1.0000018545
0.937448939988
0.93795924763
0.934230344869
0.933100380717
1.0000036717
1.00000205367
1.00000443345
0.938608240859
0.938400566102
0.933243639485
0.933600506642
1.00000497704
1.00000573064
1.00000562556
0.937372290877
0.934641410859
0.933220074007
0.933521628342
1.0000064859
1.00000818351
1.00000720888
0.934751016192
0.934909046988
0.933672012568
0.934210302623
1.00000040545
1.00000697245
1.00000510963
0.933541869643
0.917907577073
0.932480958425
0.913873800247
0.999994158614
1
0.999993458885
0.908809250075
0.88403570859
0.90422017137
0.880404730766
0.999998984919
0.999995090209
0.999998437877
0.881243989622
0.884526273995
0.878289436294
0.881578785479
1.00000477158
1.00000576293
1.00000842352
0.888116213866
0.884257899844
0.884603063486
0.882450620456
0.945411864057
0.944944641659
1.00000463438
1.00000643923
0.943308024198
0.936579440354
0.941631055342
1.00000212685
1.00000419614
1.00000357812
0.934377884041
0.932505988627
0.939642869762
0.937572334436
1.00000377844
1.00000374035
1.00000487972
0.93262543244
0.93314422761
0.937661749528
0.937535480886
1.00000632403
1.00000658031
1.00000724994
0.93302893115
0.933510347638
0.936602891321
0.931193621258
1.00000523724
1.00000662537
1.00000671047
0.933654732446
0.933579216998
0.930966137771
0.927127802394
0.999999470375
1.00000346381
1.0000000664
0.93143662759
0.9118898784
0.92302631327
0.902295049568
0.999993640432
0.999997924963
0.999992621133
0.902424658824
0.879924934968
0.894433398311
0.878764739764
0.99999931914
0.999995272728
0.999999250801
0.878234994059
0.881278221157
0.878658576528
0.881989556161
1.00000379242
1.00000432228
1.00000638006
0.884175086528
0.882053171892
0.88445580156
0.882592016909
1.00000788624
1.0000080871
0.940150279213
0.94010012441
0.938226406959
1.00000602771
1.0000077151
1.00000556862
0.938320967532
0.929958628297
0.936687813516
0.930816994132
1.00000133525
1.00000244315
1.00000070388
0.928971842277
0.923558018858
0.928823817256
0.919700409429
0.999996372163
0.99999887193
0.999997185057
0.919361464929
0.899828292934
0.915165144554
0.900518920271
0.999995759044
0.999995815553
0.999994096392
0.892838389915
0.879754112384
0.895454624202
0.88571299101
0.999998524957
0.999996306824
0.999999296552
0.879965570873
0.883137006341
0.884931562452
0.888124285845
1.00000219481
1.00000213829
1.0000052076
0.88560963232
0.883028957636
0.891467742155
0.879587908088
0.999999143023
0.903681919188
0.999998584905
0.89857961521
0.887634991104
0.99999926391
0.886429841819
0.888808701588
1.00000309639
0.892192994663
0.87825663683
0.000200830637372
6.23180767517e-05
0.000165931365556
4.36112095401e-05
0.0249147693369
0.024190336103
2.61639069152e-06
1.57190151766e-07
1.82060563339e-06
1.62415052441e-07
0.0253161493731
0.0243004662157
0.0245335173358
1.84128167136e-07
3.72531559634e-07
2.23187808673e-07
9.21168301704e-07
0.0249783299744
0.024558038859
0.0245467557241
2.90641010906e-07
2.00123666258e-07
1.70413429857e-06
1.56630173094e-06
0.0249711667999
0.0245524041694
0.0246813757077
6.97792579694e-07
4.70078671241e-06
1.69360143166e-06
1.8806654289e-06
0.0265217291341
0.025103349741
0.0262543340674
1.22736887453e-05
3.24753080506e-05
2.53256559954e-06
3.16399796231e-05
0.0333942617735
0.0291532433953
0.0336081939955
0.000105553026475
0.00027655708253
0.000127576825169
0.000282228465224
0.0411783764176
0.0378440987311
0.0408487238291
0.000403033580515
0.000510795331315
0.000394584896055
0.000492108452285
0.0423187532916
0.0415600982621
0.0413834611959
0.000440284045313
0.000320578574368
0.000421539838459
0.000317550195224
0.0419525768407
0.0417526346223
0.0411241157908
0.00046441090889
0.00115423949657
0.000477227622909
0.00119380245494
0.025933116619
0.0269121683035
0.0262717771149
0.000160266242404
7.1286079614e-05
0.000185265443442
0.000103230346948
0.0241485091695
0.0256204290679
0.0247707559234
3.82999410057e-05
3.56778116576e-06
6.75677723252e-05
3.30653824229e-05
0.0236012998536
0.0238498090938
0.023219612594
3.08825792127e-07
6.47790280035e-07
6.97571164723e-06
3.00907748088e-07
0.023938899914
0.0232022909298
0.02338985707
1.19787695001e-06
1.54292957092e-06
1.19906621989e-06
2.18250947666e-06
0.0242389666255
0.0236371286207
0.024230708897
2.08834104167e-06
2.68006190793e-06
5.75789284519e-06
6.12070794168e-06
0.0263910221558
0.0252603864331
0.0271244270168
5.01018797922e-06
4.96420221385e-05
2.16888724665e-05
7.25171423542e-05
0.0341014431499
0.0304006279593
0.0346376042013
0.000156180218079
0.000304389100552
0.000176854272283
0.000317182117336
0.0408058470196
0.0384789844144
0.0409837819453
0.000397777621472
0.000477318757299
0.000409905686077
0.000495853479277
0.0408650780743
0.0413721193756
0.0410670890785
0.000408034952499
0.000324124926153
0.000414514838577
0.000329933894287
0.0405522052787
0.0412821379103
0.0409279945779
0.000505924628459
0.00125900214323
0.000531919139347
0.00129648575864
0.0261218713506
0.0259917830197
0.0256653933441
0.00021700001616
0.000140731249978
0.000226577817477
0.000186041581471
0.0253366862558
0.0256715120481
0.0258792833325
8.77640807703e-05
6.05769452634e-05
0.000134278197066
0.00010015644688
0.024351616311
0.0258655493894
0.0256883811435
3.44574786466e-05
1.34120283052e-05
7.76403654932e-05
5.0931236206e-05
0.0240289440279
0.0253044886763
0.0249853280088
4.2967672643e-06
3.41489455985e-06
2.76368950014e-05
4.09161949115e-05
0.0248587712589
0.0249391896649
0.0253307969315
1.46917681111e-05
3.82334258452e-05
8.16089044926e-05
0.000121431016152
0.0278151661981
0.0265583482742
0.0283726649526
6.26876202853e-05
0.000105429711087
0.000139197727942
0.00015959055156
0.0350990023107
0.0316860730638
0.0355914368644
0.000195814098598
0.000328975036521
0.00023398993214
0.000351380065665
0.0413130231409
0.0391073767763
0.0417617875248
0.000420966889305
0.000515956614447
0.000439557264647
0.000534188774837
0.0418996415246
0.0424180017033
0.0430441530666
0.000405730351322
0.000306552371239
0.000417565794119
0.00030285836115
0.0426199973119
0.0441615319834
0.0442584692901
0.000447619602712
0.00106277562104
0.000426075697647
0.00107098178373
0.0257031914885
0.0250219064385
0.000138861908707
0.000107903990664
8.27735175989e-05
0.0263090838082
0.0255397408659
0.0256329857139
8.7587665727e-05
5.43473998151e-05
6.07133377479e-05
3.98180686601e-05
0.0254690139845
0.0254459067283
0.0252437946764
4.84915524741e-05
7.0679126604e-05
4.6383023008e-05
4.81137365612e-05
0.0257236385951
0.0253926078387
0.0262091866458
0.000106295406668
0.000128455664686
7.13608078673e-05
9.5065272717e-05
0.0291206329485
0.0277712922832
0.0303408740238
0.000135060700649
0.000152353855815
0.000119380626422
0.00017034286939
0.0361978906631
0.0337023590511
0.0369987227137
0.000245265110318
0.000374573699612
0.000286697342773
0.000424454312626
0.0421637007535
0.0401376258464
0.0426045596085
0.000454084105089
0.000548280295041
0.000491946661704
0.000568377014261
0.0442156114618
0.0437039248823
0.0448793159899
0.000422371202923
0.000296406555349
0.000433808669617
0.000304085589734
0.0453506435956
0.0457124397436
0.045045541975
0.000401450119223
0.001034996571
0.00043905447636
0.00110079116491
0.0245154700287
0.0246303583448
3.02514785085e-05
2.35742333741e-05
4.62170893027e-05
5.84584040575e-05
0.0268668111665
0.0255421177235
0.0272167876171
1.61589005533e-05
5.34647648988e-05
5.85119250274e-05
7.51001691597e-05
0.0316184240832
0.029347379566
0.0320604344679
0.000109497746086
0.000203938548353
0.000133947599497
0.000231251494476
0.0378104978192
0.0348975143748
0.0377314082405
0.000340795299073
0.000472871468241
0.000358173970973
0.000492795999092
0.042860733662
0.0404068085043
0.0424778532904
0.000488947048826
0.000525619355996
0.000492676451357
0.000509055872913
0.044743182436
0.0434123609383
0.0441700771499
0.000459990382421
0.00038857639372
0.000457214135526
0.000429235797054
0.043828758055
0.0438555690353
0.0431359932285
0.00059586015555
0.00132681286168
0.000685838582906
0.00136466842875
0.0367700774207
0.000402330946507
0.0417998100576
0.000429504412046
0.000447501823331
0.000381477282915
0.000398867114406
0.0436863997668
0.000440119237198
0.000438094231036
0.000402311040184
0.000368633580247
0.0426634589547
0.000719140213149
0.00151959417083
0.000572654880176
0.00146280301065
0.999980719849
0.99997037067
0.927758796507
0.929690262232
0.999970028741
0.929938010941
0.999988044022
0.999981189664
0.999917411389
0.931254264816
0.932733826651
0.999984347297
0.999930322732
0.931290495994
0.999984335302
0.999968387667
0.928811349626
0.929719296979
0.999972395629
0.930121158599
0.999966731481
0.999985198904
0.999946445951
0.929491628508
0.931088003508
0.999980463743
0.930625691165
0.999960960774
1.00000006236
0.999943114829
0.931321095365
0.933504354215
0.999994300753
0.999972626059
0.93180025062
0.999999584607
0.999977194068
0.932719456968
0.933624185504
1.00000031911
0.999981417879
0.93232999094
0.999945563815
0.999920076036
0.931670675934
0.931495069621
0.999968121893
0.931930112123
0.999912630029
0.99993597684
0.999916253134
0.932153815001
0.932731822883
0.999935864222
0.932381767095
0.999912821778
0.999984371164
0.999963860003
0.932945480432
0.933987431626
0.999997355985
0.999963461689
0.933164345121
0.999970852989
0.999960355736
0.933518814093
0.934106603553
0.99996333492
0.999962640763
0.933364139702
0.99994282963
0.999925720514
0.933739431492
0.933129245799
0.99993846046
0.933524737492
0.999938381056
0.999947304685
0.999935006753
0.934275759449
0.934603993779
0.999943755374
0.934028850403
0.999941399067
0.999952438031
0.999956564678
0.933773110371
0.935131661309
0.999956919855
0.999950238257
0.934059280418
0.999949698656
0.999930131523
0.935111653744
0.935648834554
0.999944053898
0.999939373564
0.934485335338
0.999875418626
0.999917238339
0.935919454991
0.935250135649
0.999925594205
0.936010717605
0.99988115052
0.99980499906
0.999871091042
0.936826017071
0.938157699196
0.999765152429
0.936918174765
0.999861947355
0.999901286328
0.999920610736
0.935888624851
0.93746695717
0.999929941798
0.9999127437
0.936764644934
0.999864904277
0.999905770261
0.938641266125
0.938392634203
0.999862374777
0.99990684931
0.937616053965
0.999753225186
0.999894943612
0.936666109241
0.938092751496
0.99976784418
0.936924628905
0.999918392185
0.999718914203
0.99981223071
0.93222676388
0.925078927957
0.999638872193
0.93218716896
0.999897638588
0.999865269402
0.999905125613
0.938274151016
0.93632944168
0.999869445659
0.999900674523
0.936860967886
0.999840893212
0.999789400913
0.924606341544
0.931113443509
0.999766632426
0.999867720141
0.931963323113
0.999336638419
0.999679984034
0.903608259333
0.915020435942
0.999497285379
0.903593776729
0.999466394332
0.999163057714
0.99905229623
0.893073808
0.883866995254
0.999039371783
0.892330564278
0.999234315432
0.999458051525
0.999674689571
0.914588339005
0.903440558535
0.999626498046
0.999496022213
0.903408854126
0.999282781801
0.999174434491
0.884588028021
0.89358459962
0.999133601173
0.999324140431
0.89284430673
0.998975731547
0.998943373603
0.877868781284
0.880953914167
0.998954494695
0.878756562846
0.998967932386
0.999042450838
0.999120021992
0.879820034216
0.882531517187
0.999120895827
0.880172431379
0.999032737454
0.999050734621
0.999040870723
0.881538247098
0.879613994696
0.999040037373
0.999062531647
0.879161656403
0.999090885283
0.999193362247
0.883116184187
0.882124642189
0.999168119507
0.999119068243
0.880708273377
0.999234676675
0.999253857845
0.887680933487
0.886184042585
0.999245503209
0.888763276611
0.999254757246
0.999152395946
0.999280266996
0.876824289965
0.885603019892
0.877687029551
0.999256336432
0.999179482541
0.999285399667
0.999296854605
0.886955125403
0.890044829165
0.99929525152
0.999282642186
0.889324368033
0.999200053701
0.99929829504
0.885800945554
0.878354625946
0.999194106827
0.87787185547
0.999285330156
0.999918558977
0.999934401289
0.942619814311
0.943781072594
0.999934533157
0.942452497177
0.999922401459
0.999904984527
0.999932790014
0.94134441023
0.938832705311
0.999932470578
0.999916248992
0.939932491939
0.999873099947
0.999914806181
0.943221951491
0.941245052347
0.999907186274
0.942530553499
0.999882699619
0.999873898453
0.999902426054
0.939547307137
0.942019576563
0.999879926152
0.999895679621
0.94051644522
0.999871884337
0.999932770272
0.933540575092
0.937732142454
0.999910127817
0.999906419214
0.934966326075
0.999869170705
0.999875242907
0.933966012026
0.935708945268
0.999869770283
0.999874591321
0.93497579131
0.999856488072
0.999910991149
0.938593259033
0.938098968682
0.999866504709
0.999899189973
0.936545582169
0.999859681648
0.999911121059
0.936386176639
0.937730719808
0.999881306097
0.999894887997
0.935951106114
0.99994172334
0.999901027384
0.935655335454
0.936555573412
0.999963754543
0.999923244018
0.937680695886
0.999960104976
0.999988775005
0.935583712661
0.937408802291
0.999992301917
0.999977471717
0.937800896708
0.999943733541
0.99991362462
0.937220931162
0.93816658355
0.999917705887
0.999917276509
0.938106942815
0.99994437763
0.999918836125
0.939144848593
0.938609592705
0.999950674988
0.999922745836
0.938803418631
0.999972968049
0.999982819582
0.935437086354
0.936999997325
0.99998090887
0.999976753315
0.936991898823
0.999973782425
0.999980049821
0.935503234005
0.93720155508
0.999981180513
0.999973887938
0.937055722698
0.999959118129
0.99991846438
0.93895536059
0.939855574904
0.999962522474
0.999926736806
0.938705769126
0.999963973886
0.999934886347
0.938749137366
0.939813602187
0.999973960701
0.999932872547
0.938689061853
0.999970138353
0.999976427535
0.936254461937
0.937371755606
0.99997052579
0.999976184799
0.937478803887
0.999963180731
0.999938652933
0.9366470485
0.937696610075
0.999956872462
0.9999526162
0.937648428426
0.999969230536
0.99993547088
0.938802928162
0.938136497351
0.999973408553
0.99993375975
0.938743164246
0.999962260871
0.999910248243
0.93733278327
0.936954613399
0.99994256912
0.99992547792
0.938142871447
0.999923433895
0.999916344492
0.938107198335
0.937767809824
0.999902457234
0.999936721853
0.93757423697
0.999911921152
0.999886755673
0.938444595548
0.937521823982
0.999888418822
0.999904309894
0.937752929694
0.999888873702
0.999904926569
0.936831075379
0.935398333918
0.999909946174
0.999910949583
0.936647202953
0.999876107414
0.999913949673
0.93638151597
0.935499624538
0.999878833896
0.999916605962
0.936682426404
0.999863676851
0.999881860158
0.935067610481
0.936312648589
0.999864796382
0.999888743436
0.933655302784
0.99982792461
0.999734090724
0.929658253033
0.920620286251
0.999817654618
0.999751010427
0.928016242831
0.999843248769
0.999902781719
0.935067634667
0.931431463897
0.999868542293
0.999878703599
0.932447837924
0.999800872143
0.999738354951
0.919601633865
0.925944396138
0.999721576697
0.9998242817
0.926938986441
0.999490505188
0.999621862309
0.902652199119
0.911128170585
0.999456781619
0.999627850576
0.901705696953
0.999334357416
0.99915809658
0.893406077545
0.885709553733
0.999287623653