/*--------------------------------*- C++ -*----------------------------------*\
| =========                 |                                                 |
| \\      /  F ield         | OpenFOAM: The Open Source CFD Toolbox           |
|  \\    /   O peration     | Version:  v1906                                 |
|   \\  /    A nd           | Web:      www.OpenFOAM.com                      |
|    \\/     M anipulation  |                                                 |
\*---------------------------------------------------------------------------*/
FoamFile
{
    version     2.0;
    format      ascii;
    class       surfaceScalarField;
    location    "4.1";
    object      alphaPhi0.water;
}
// * * * * * * * * * * * * * * * * * * * * * * * * * * * * * * * * * * * * * //

dimensions      [0 3 -1 0 0 0 0];
oriented        oriented;


internalField   nonuniform List<scalar> 
92311
(
0.201590896484
-0.000146154525871
0.000397833501769
-0.201577969957
-0.000264276225909
-0.000196405165039
0.201461045056
0.00104541867711
-0.00071882986311
0.201562827746
-0.000305007183581
0.000411364537217
-0.201542808337
-0.00027218993085
-0.000420893485054
0.20143951019
0.00107187416575
-0.000723701334625
0.201443053604
-0.000117501260417
-0.000121528157816
0.000402131344851
-0.201456269417
-0.000295023555994
-8.75285847109e-05
-7.220326044e-05
-0.000155320565644
-0.000174023136715
-0.000102057309863
0.201258366469
0.00108970455395
-0.000801294249378
-9.30583115728e-05
0.050386230752
-1.74473606206e-05
-2.94206649881e-05
-2.85672297116e-05
-2.25985057639e-05
1.73163696948e-05
-0.0503734366226
-4.96323117254e-05
-0.0503806039134
0.0503347407295
-2.59951736336e-05
-2.79826327007e-05
-2.79043185709e-05
-2.64751745284e-05
0.00016167645301
-0.000162840347217
2.73302513241e-06
0.000767265661297
2.64897181539e-06
3.29552774112e-06
2.52937038757e-06
-2.63534691313e-05
-0.000814669772389
-2.82786149929e-07
0.000106664845644
0.000742438996413
0.000209686877917
2.03009937141e-07
-0.000747989132161
1.33822143881e-06
8.09607827933e-07
5.14919152172e-07
3.33355253164e-07
-0.000168329250894
-4.29149304094e-08
-2.07902160708e-08
-5.63696489252e-08
3.16614891178e-09
3.8893402019e-09
2.68907544847e-08
-2.0975217373e-09
1.06080657264e-08
-2.69131032546e-05
-2.4446729027e-05
-2.48957426768e-05
-2.40079235136e-05
9.00434575927e-05
-0.00010577289992
1.23822576309e-05
0.0117176380558
1.91510438374e-05
2.50638157251e-06
-0.0117332580798
0.0116544792183
-1.2205535141e-06
1.24414687072e-05
-0.0116728881616
1.78035663689e-05
-7.53072570197e-06
-0.000211195481631
-3.6886443214e-05
0.0502900844577
-3.74768781929e-05
-3.39466632286e-05
-3.34646316578e-05
0.00022353233645
-1.90289245745e-05
0.0502452276465
-2.16630064638e-05
-1.68376884745e-05
-1.78398476558e-05
-0.0502783326024
-0.000204916251107
-9.01100729142e-07
1.3690924033e-05
0.0116336559301
2.01494027756e-05
-1.1430189807e-05
-5.49703851447e-05
0.0125492607958
4.56559146539e-05
-2.19956235937e-05
-0.0125551324512
0.0125458285779
-5.30095127078e-05
-1.64957965754e-05
-0.0125508349082
-8.42712234429e-05
0.202112810462
-0.000461614723811
0.000370868778539
-0.201937618142
0.201387987713
-0.000248071617076
0.00128716816485
-0.000965785446771
-0.00027503615626
0.201341251273
0.00134562749983
-0.00102352410335
-0.000128577856626
0.202047281324
-0.00038852597819
0.00038093758853
-0.201995155045
0.201370161611
-0.000558024503402
0.00132510553832
-0.000945375043978
-0.000650977196677
0.201392327663
0.0013828152373
-0.00102858529209
-5.4542522848e-05
-5.95820876697e-05
-6.8100930931e-06
-0.000506137669263
0.201959856176
0.000407246967201
-0.201870665039
2.07589422608e-06
-0.000239428417919
-0.000301581486554
-0.000166741294843
-0.000214128765558
0.201289653573
0.00137186421037
-0.0010390996022
0.0504867960349
4.17571600102e-06
-7.7555636107e-06
-1.48470108446e-05
1.106994719e-05
-0.000292217946224
-0.0504661933712
0.000224348600072
0.0502565266182
-0.000254397650709
-5.25276360568e-05
-5.38413342707e-05
-6.01709476189e-05
-6.40267085561e-05
0.000279043705416
0.000234118000345
1.76756813397e-06
0.000687938949069
2.45810374138e-06
1.88171916949e-06
4.20571901607e-06
2.74989098293e-06
-0.000211078402071
2.98617105952e-09
2.37732895213e-09
-2.60407669703e-09
-6.01568973311e-09
-3.70933910235e-09
-1.34893021962e-08
6.2903946464e-09
2.69145652484e-08
-4.07455405313e-08
-9.58185477804e-08
-2.0450242194e-07
-2.33136491851e-07
2.29013224356e-08
-1.12459979474e-08
4.17372147779e-08
0.000124336407602
-1.03802066559e-05
-2.58497006346e-05
-2.50652713414e-05
-2.07246456934e-05
0.0505243017272
-0.000139429423622
1.94057190907e-05
6.3513105658e-06
1.34454629544e-05
1.88400307592e-06
0.0504099258085
4.53546092344e-05
-0.0503788950363
-1.24057877699e-06
-1.01365906239e-06
0.0117303977518
-1.63889093847e-05
1.96326763804e-05
-0.0117310116096
-1.39000388889e-06
2.66752164004e-05
-0.0117322778018
-4.59810802556e-05
4.04483263829e-05
0.0117309319291
2.69952519208e-05
0.0125833640597
-2.42012188896e-05
1.31933136763e-05
-0.0125800880915
-0.000285969429616
-7.86771330981e-05
-9.82814287586e-05
-8.01200085893e-05
-9.21491631846e-05
0.0502829212837
0.000307245271533
0.0502260345603
-3.45125085434e-05
-4.21660482654e-05
-3.71842274463e-05
-4.14368535878e-05
-0.000246671654312
-6.34313940921e-05
-7.02508683266e-05
-6.08195253123e-05
-7.182422171e-05
0.0502642690675
-0.000271882243672
-5.80748074268e-05
4.86119675004e-05
-3.4506559893e-05
0.0125406546906
-8.66093943066e-06
0.000104390785333
-0.0113763360023
2.80163822731e-05
0.0113095320276
-1.75050203206e-05
-5.52226276238e-05
-2.89108329728e-05
0.0125374415358
-0.0125356975059
-5.35489045689e-05
0.0125289715663
6.12001796065e-05
-6.4081599194e-05
0.000743576271409
1.61376354834e-06
8.29007316861e-07
1.63551436268e-06
-6.60106376923e-05
0.000139169413566
-4.41785799675e-07
-2.08636560901e-08
4.20876672689e-07
5.30359582019e-07
2.40585993349e-07
-1.38487199293e-07
0.000746272649152
0.000249241921201
-0.000751228637198
-1.74149137747e-07
2.92899075028e-07
-4.34708956357e-07
1.88008135963e-07
-6.19903276901e-07
2.65511322579e-07
5.10604553129e-09
-3.92971731001e-07
5.28241087072e-07
-3.84652844662e-06
-9.32685921554e-07
-0.00011484703829
0.000175893753773
8.09163885547e-08
-1.00002178647e-06
1.91033146737e-07
-6.57193593537e-06
0.0125916773563
-3.00121503547e-06
-0.0125870284807
-0.0125904549393
-2.02867132131e-05
8.54719401714e-06
0.012591196765
-1.82862449151e-05
1.80484883366e-05
1.72488113766e-05
0.0116961141354
2.19249560317e-06
2.52441017016e-05
0.0116853670706
-0.011704368773
3.69099781072e-05
-0.0125860859201
-1.4009955628e-05
0.0116716150452
3.19007398917e-05
0.0125957502983
-6.60276796978e-07
0.0125899602955
-1.44668951598e-05
1.36387361763e-05
-2.48267565181e-05
-1.78984422987e-05
-0.0125964076535
0.012593374147
8.76555434411e-06
1.61978082303e-05
1.46282684856e-05
-1.85027720259e-06
6.77483858801e-06
-0.0116588867017
0.0116412062143
2.59225523872e-05
0.0125849999683
-3.1251146419e-05
2.83705359853e-05
3.71013091742e-06
-0.0125753432296
-5.3580273962e-06
3.15754108203e-05
0.012566398618
-4.38421794043e-05
-2.32525109341e-05
0.0125854523184
1.64662196712e-05
2.00463419939e-05
1.17067552448e-05
0.0116074567689
-1.47610239002e-05
4.93887504339e-06
0.0116150289998
2.24851471588e-05
-3.70968627133e-05
0.0115903008462
2.26924269521e-05
0.0125748087833
2.69404191887e-05
-2.70999852709e-05
-0.0125618470075
0.0125541294686
4.27145781896e-05
2.08396173843e-05
-0.011570172083
0.0115307650181
-1.27570293948e-05
-0.0115636912631
2.67171534026e-05
0.0115335005605
-1.26659306671e-05
3.94003761903e-05
-4.98764169457e-05
2.00634991736e-05
1.65354861792e-05
-1.29222922248e-05
2.56077108371e-05
3.48851512969e-05
-1.89387362628e-05
-0.0125473869899
0.0125439444148
-5.26850232252e-05
3.10582971328e-05
-0.0115656131315
0.0115394105208
-0.0115736644162
0.0115459688256
3.34036242851e-05
-4.8640577504e-05
-8.4260401337e-06
-0.012561008893
1.17177981786e-05
-2.90988566932e-05
-0.0115939036505
2.9573950728e-05
-0.0125542038339
-4.85150177604e-05
-0.0115866150518
-1.58301016594e-07
4.8617398951e-05
-2.41155699603e-06
1.08047122014e-06
1.11766464628e-06
6.00763704884e-07
0.00082088133568
-0.000859361819324
2.34915022514e-05
-7.96503684553e-08
3.4524550247e-07
9.18834220506e-08
-2.75082172575e-07
0.000776520721247
-1.6399870574e-07
1.26080880918e-06
3.44127820959e-08
7.7006434876e-07
0.000110467916222
-6.97713543089e-05
-0.000767490443101
-4.53468063086e-08
1.19509764987e-06
1.77604057611e-06
1.03758818863e-06
0.000768664195935
6.64229275813e-05
1.60341131594e-07
-1.58210521401e-07
-2.14712575455e-07
1.08026652131e-07
-4.68223113336e-08
9.94790674691e-08
1.58826263778e-06
0.000677845138879
9.28907064488e-07
6.55054699309e-07
9.35412866961e-07
1.63602369387e-06
0.000268126820243
-4.26787061617e-07
4.46786270786e-07
6.49708123194e-07
2.70392513631e-08
-6.25820495195e-08
3.56948272041e-06
-0.000244484969661
2.51667892945e-06
4.17490190898e-06
5.20069084148e-06
3.48364620216e-06
0.000520153931344
0.000285667516851
-7.33236132952e-07
7.01512178778e-07
1.14409266599e-06
3.58168309606e-06
5.81293550684e-06
6.03070165976e-06
4.63858625271e-06
0.00055582738086
-0.000221690472507
-3.96716186621e-07
-1.37426718131e-07
-5.91414925088e-05
-0.0126008412119
1.65439613771e-05
0.0126012326597
4.63517253225e-05
0.0126211024548
7.85214015802e-05
-8.74893379244e-05
-0.0126211807141
6.56264262476e-06
-3.00549714172e-05
0.0117317267082
2.85337775054e-05
-2.94047578048e-05
0.0117472701715
-0.0117333686897
-6.8805635733e-06
0.0126199661335
-6.64113865789e-05
-0.0126023877134
6.15191579399e-05
0.0117530206942
-1.82956567597e-05
-4.23544153828e-05
0.0126034827601
-3.02789395669e-06
3.27358923089e-05
-0.0126196521332
2.63112873438e-05
-2.89681339925e-05
0.0126233214513
2.05173876769e-05
-3.97125213105e-05
3.52584147817e-05
2.12839614179e-05
-0.0117538575797
-4.04527154718e-05
0.0117545261058
-4.65304194277e-05
2.15447515971e-05
0.0126089408408
-3.07247383022e-05
0.0117598052155
9.20319714214e-06
9.04946948438e-06
-0.0117571022407
-7.81621391754e-06
2.1364262776e-05
0.011752741573
3.46434837396e-08
-1.46796479081e-05
0.0125889964401
7.57032377322e-06
0.0125925534245
1.85056002635e-05
-0.0125891091688
-3.67608560899e-06
-0.0117622185388
0.0117620173891
0.01259781219
-0.0117591271548
-4.42601451304e-05
0.0125447109183
4.84318820156e-05
2.30144928111e-05
0.0114861849372
-1.26261139335e-05
0.011495834921
3.09573969932e-05
5.33380115896e-05
-5.29207044351e-05
0.0125415044672
-6.11954479362e-05
6.35552428957e-05
2.54274285691e-05
0.0114322897812
-1.33135389054e-05
0.0125439459403
5.39203710124e-05
0.0114491572912
3.2399971542e-05
5.65290558637e-05
0.0125388954172
-6.7571785119e-05
-6.46007046772e-05
-0.0125418687978
-6.27404707534e-05
0.0125491307676
6.21065730603e-05
7.73404543854e-05
2.56114371528e-05
-1.59577179819e-05
9.12974543004e-05
-0.0114028090341
2.95618733389e-05
0.0113439302887
5.62357702243e-05
-7.1391627791e-05
0.0125472010587
3.05667008996e-05
-0.0125369503724
-3.93289734261e-05
5.85878685636e-05
-6.01080902235e-05
-2.9617909793e-05
-5.59082436149e-05
3.46030488077e-05
0.0115060209433
0.0115112970645
3.63771256924e-05
-3.65897639647e-05
0.0114705533459
3.79737889441e-05
-4.30447914705e-05
0.0125366434432
0.01146462762
0.0114276510357
-3.30038882708e-05
3.40832495204e-05
7.76365141506e-05
-3.2141810158e-05
0.011381655623
3.28928755951e-05
6.85698401666e-05
0.0125367312552
-6.83625440328e-05
0.0125337025549
-6.10126945985e-05
8.11872973984e-05
-0.0114203558489
0.0113651541538
0.0125405723863
-0.000351284961363
-0.000258479792319
-0.000312343558811
0.001418101354
0.201650222905
-0.000397147602254
-0.00111013677847
-0.000304691195683
-0.000116565086946
-0.00010783363483
-0.000126151675442
-0.00010204538318
0.000323905399158
0.0503651401611
1.07351327736e-05
0.000237879742112
4.56619706784e-06
1.250603765e-05
7.43774721906e-06
9.99703103104e-06
-0.000213216493427
0.000371391736371
-4.58445952656e-08
-5.96880305573e-08
-4.81553100271e-08
6.07264533864e-08
1.81109667695e-07
4.663088771e-10
8.67562641674e-08
-1.7921002737e-05
-6.89291891921e-06
-1.28220534467e-05
-1.19238152427e-05
6.50343230905e-05
-1.20080788219e-05
0.0504237761712
-2.05624530944e-06
4.77362456865e-06
2.99471856904e-05
0.011738898439
0.0503614600892
-0.000101349922302
-8.50729018583e-05
-8.38460410147e-05
-0.000101307346814
-0.000288592704034
0.0504601637774
-0.000103697251247
-0.000116133749594
-0.000115507134429
-0.000102804978696
0.000312916408021
-0.000285633574192
0.000116649529554
0.011252156149
2.49993905024e-05
-1.92921583417e-05
-7.33488523307e-06
9.7033085865e-05
-2.08519393825e-05
0.0113361130924
2.31535859593e-05
0.0111241380159
-1.55213425412e-05
0.000148721876495
-1.17273329514e-05
-0.0112002522477
2.02719056929e-05
0.0505306220111
-9.52789333919e-05
-0.000102273619628
-0.000100830590877
-9.36298885428e-05
0.000283238244081
0.000310150408971
-0.000271725012532
-7.51015662354e-05
-5.28488611884e-05
-5.305969836e-05
-7.24423546176e-05
0.000211584168787
0.000308840636959
0.0505290393053
-0.000265374918913
-1.42497562189e-05
0.000138724193545
-1.50849568097e-05
0.0110496498788
2.17971490292e-05
-8.05909853871e-06
5.09326592202e-05
-1.40290932e-05
-0.0109181286453
0.0109058718377
2.71128261236e-05
1.68834236911e-06
3.43428139879e-06
2.26782691716e-06
2.4449843549e-05
0.000775201856464
-3.49938923885e-08
0.000303887758088
4.72993989797e-06
6.81786878678e-06
1.03164148822e-05
1.03867969569e-05
0.00027817951638
5.15015134274e-06
6.63909093523e-05
1.48642090227e-05
1.30293423966e-05
1.26741511131e-05
-0.000226584095431
0.000263868545771
3.49814622026e-07
7.17260355963e-07
-2.3444350824e-07
1.19996075649e-06
1.46998360326e-06
2.53503390855e-07
1.30634778805e-06
1.60998904499e-06
-0.000136455462498
1.49810946634e-05
1.39509093377e-05
1.49216914644e-05
-0.000248533366753
4.34650623977e-06
0.000277232421378
7.88615619522e-06
1.13388303379e-05
1.18570535212e-05
-0.000278312412592
2.01723662822e-06
-0.000232113271197
0.000284011490834
-0.0126002578046
-2.44048912974e-05
7.13550682241e-07
7.39485447221e-07
0.0126054544716
-7.64200191236e-06
0.0125916560901
1.18352665547e-05
0.011752453303
4.96925465079e-05
3.28625522369e-05
1.78537354214e-05
0.0117196491935
-1.06517475098e-05
5.32677061919e-05
0.0117339279737
0.0125980197492
7.43930327214e-05
-0.0125559293514
-0.000123901869981
-8.22161045144e-05
0.012571714204
0.0125616965543
-6.68889618245e-05
6.37880511027e-05
0.000133998803622
2.24210414256e-05
-2.00821211435e-05
0.011183524215
9.99520094659e-05
0.0112856740416
2.13441660486e-05
6.77552197761e-05
0.0125769494966
-7.71645563132e-05
1.91164937284e-05
0.0112165729318
-0.0125483747961
-0.000123542834626
-7.7588532103e-05
0.0125666066571
7.46717400459e-05
0.012546174872
-7.1273613706e-05
9.37633823438e-05
0.0113088293361
-2.06308016749e-05
0.000127521648042
0.0112703942576
2.34268549997e-05
0.0112392504132
0.0125672848576
-7.15835682053e-05
0.0125898698627
-0.00013266580423
-7.98294385648e-05
8.64565699644e-05
7.70109650784e-05
-0.0125943478495
0.0126166132769
-6.55791527917e-05
0.000145727583444
-0.0111733020721
0.0110976808416
-7.26047960862e-06
-1.37281572094e-05
0.000137366621482
1.96945828711e-05
0.0126110580007
8.71430401292e-05
-1.18312347836e-05
-7.13269002947e-05
-0.0126359844611
-0.000125977220593
-6.91744446766e-05
0.0126515885216
8.51355872898e-05
7.40984620726e-05
0.0126417407564
-6.1905692212e-05
0.0001374964476
0.0110292947105
-8.11930184374e-06
-1.16803768058e-05
0.000120887652028
0.0109736429379
2.25930649416e-05
8.69872612662e-05
0.0109654740187
-2.20512281721e-06
0.0126561726864
-5.57477197803e-05
0.0126579951475
-9.85934315934e-05
-6.19003920611e-05
7.9610261336e-05
6.1414018616e-05
-0.0126605052834
0.0126448325156
-4.71165519241e-05
5.2185222657e-05
-0.0109091428152
-2.80860689269e-06
0.0108767615216
-1.49631886513e-05
8.98703638926e-05
2.75251492611e-05
7.57313612276e-05
0.012643161534
-5.95711409097e-06
-4.82321426072e-05
-0.000475035145964
-0.0490507578913
0.0490176009453
0.000589124385705
-2.36363000636e-05
9.18793421393e-07
-1.93497726608e-05
-5.14336753363e-06
-3.37279025753e-05
-0.00065445212894
0.0495099224965
-4.09339785356e-05
-2.39499008314e-05
-4.57910101262e-05
-2.25367640105e-05
9.00292118461e-05
-0.0494474557449
0.000635157920342
-0.00098542169788
-0.0496767475842
0.0499477108655
0.000865696888354
-7.22675108559e-05
-7.99394277073e-05
-7.64752713857e-05
-8.08880291369e-05
0.000158308253274
-0.000773161851867
-4.38432602545e-05
-5.3906563745e-05
-5.07995080148e-05
-5.43221713802e-05
0.000138445533223
0.0500428973734
0.000690157052994
-0.0498954681858
1.58375850397e-06
-0.000192431998879
-0.000953658629624
0.000857390288297
0.000174639921062
2.9267213809e-06
2.49126061755e-06
1.02250628306e-06
2.93602428896e-06
1.61489888952e-06
-0.000733440711502
0.000616886872182
0.000195504402423
2.73569601622e-06
7.01747068433e-07
2.09266710298e-06
6.16006737829e-07
-0.000186941742615
1.2513197337e-06
-9.83529529245e-05
0.000807766996281
3.37638583471e-06
2.81885701225e-06
3.43906378258e-07
1.85604955258e-06
-0.000874400056107
4.47406038559e-06
8.18234602837e-06
-0.000115174637325
-0.000713657402969
0.000636917052618
-3.52297413618e-05
5.15007184316e-06
7.73693692566e-06
6.75807349412e-06
7.1160963848e-06
2.55818417384e-06
0.000177850102954
3.82328217665e-06
3.56336212591e-06
1.54091917433e-06
0.000620289387195
-0.000268286349119
3.29826790345e-06
-0.000673308104082
7.12823143866e-07
-1.53415968485e-07
2.78822596869e-08
-2.81746950417e-07
-1.51790974868e-07
-4.13466927501e-07
3.1825003527e-08
2.34521710806e-27
-4.1162602482e-07
-1.0777953078e-06
-5.91025408312e-07
-1.17225861236e-06
-5.55431686543e-07
2.72796907523e-07
1.96217929318e-10
4.93205673642e-07
-9.78368081809e-09
-1.52128780716e-07
-2.91893822892e-07
-1.78809567555e-07
-4.0669487036e-07
-6.91796452399e-09
-2.87209769961e-08
-8.55803585549e-07
-4.9040412763e-07
-9.94125460359e-07
-7.21667940553e-07
2.76385560321e-07
2.77857060694e-07
-9.99840556458e-08
-4.05088903305e-07
-3.11220523216e-07
-2.02914695072e-10
2.61194909959e-08
-6.51071101057e-08
-1.10349828741e-06
-9.13606579229e-07
-8.41454642969e-07
-8.23222768843e-07
4.93575951406e-07
2.3775005505e-07
0.000127217683346
6.52182614463e-05
6.6188895609e-05
6.36817553813e-05
7.12016880755e-05
0.0487706897442
-0.000110036384257
6.27190223229e-07
-0.0490548164266
0.0488200580568
0.000284622279832
6.25466542932e-05
4.24150659226e-05
5.76140185136e-05
5.36401589891e-05
-0.000106217525287
-0.049087532121
6.60545118272e-05
-8.46904158921e-05
-0.011838344804
2.05269638408e-05
0.0118354325935
3.59206531267e-06
0.011842294465
7.32138591481e-05
2.42087075712e-05
-3.07828656655e-05
-5.69985608214e-05
-0.0118382053866
3.09388142353e-05
3.36579726254e-05
5.4090996406e-05
7.75055522926e-06
-0.000232758047272
0.0121947055214
0.0121619115402
0.0120883018735
0.0121559270591
-0.000149581732685
8.32080880221e-05
-7.91102903292e-07
-1.01718643747e-05
-6.2018949323e-05
0.0118467770564
0.000407208038338
2.58315327308e-05
1.56921795804e-05
3.55621646459e-05
3.29980478413e-06
-7.38031639735e-05
-0.0491799624213
0.049250079891
1.16515021261e-05
-9.20677481394e-06
-6.89271551504e-06
4.61546124038e-06
-4.51521545443e-05
-0.0493096888555
0.00051178590642
0.0118520642684
2.70793436315e-06
-5.80321837559e-06
-0.0118512541754
8.48334180598e-05
0.0118873313414
-7.45227657344e-07
2.74277015463e-05
-8.96894480467e-05
-0.011897987399
8.89685380266e-05
0.000860640625926
-1.22767253238e-05
-5.14206269575e-06
-3.34202369065e-06
-1.94026517681e-05
0.049067732922
-0.00019335225266
-0.000159265197703
-0.000195104626792
-0.000158219696823
-5.03831165633e-05
-3.70967755643e-05
-4.31274817269e-05
-3.41735991243e-05
0.0492597424779
-3.85049057733e-05
-1.98205001857e-05
-1.72381124367e-05
-4.07132094769e-05
4.13027877434e-05
0.0494838793783
0.000805800365335
-4.39117140926e-05
-5.826393852e-05
-5.86274785454e-05
-4.48293285365e-05
3.62006682275e-05
1.31576624214e-05
0.0118379364646
9.5927962931e-05
0.0117102651066
-2.10258774703e-06
2.35280594162e-05
-0.0117675430595
0.000116541255893
-0.000112189423044
9.72602649288e-05
-2.12141838736e-06
4.04618017227e-05
-9.73226021817e-05
0.0118711055206
0.0117393685517
0.000114017366587
-7.07971140948e-06
9.88244454032e-05
-0.000115881755264
-0.0118006246811
0.04977018802
-3.29704917714e-05
-5.35557050042e-05
-4.32550573398e-05
-4.57039203946e-05
-0.0010895002721
-6.80567866374e-06
0.00112456534666
-2.28796780202e-05
-1.11340234106e-05
-3.38708932498e-05
-1.67745571283e-06
0.0503071721944
-0.000151025748134
-0.00144119630281
1.09793734442e-05
0.0116909182962
0.000133295364149
-0.000131259946689
2.27889308037e-05
-4.68459176926e-05
-0.011686150513
0.000175219444343
0.0116951711216
-0.000186792381638
0.000119661776658
-7.160287541e-06
9.05086770597e-05
-0.000122915439753
0.0117008912553
0.000138432623016
-2.56444877983e-06
2.89371669859e-05
-0.000154051474418
-0.0117250999273
0.0117108641312
0.000755248703068
-5.56511730726e-05
-7.63082506971e-05
-5.72210877948e-05
-7.62581398135e-05
0.000149278196781
0.049809413184
-5.07987461042e-05
-6.80573112879e-05
-7.04877265309e-05
-5.21354502357e-05
0.000156285714043
-0.049654745146
0.000685781644389
3.29241992056e-05
0.0119060733137
9.13762284102e-05
-0.0119096397752
0.0117723173203
-7.35790207708e-06
0.000110283467506
-0.011835684811
0.000107966917418
0.0118103226
-5.7647990563e-06
9.28785359912e-05
-8.74057136579e-05
-0.0118634125976
7.85779096393e-05
0.00095914177088
-6.43858431358e-05
-4.24230665498e-05
-6.44645133454e-05
-5.02806469122e-05
0.0502352019547
9.95396712483e-05
0.0500082139646
-6.59936454679e-05
-7.07481347427e-05
-7.18711381955e-05
-6.51233202945e-05
0.000167559679429
-6.10874914521e-05
-4.43118627636e-05
-6.24596927343e-05
-4.98659591908e-05
0.0502090882257
0.000813274306439
0.000162743687143
0.000107354705641
0.0117249110666
0.000115819189983
-3.44195999564e-06
4.3723771414e-05
-0.0117340547928
0.000122884121529
0.0117172020992
8.45921199534e-05
-4.68723018653e-06
8.29688144666e-05
-9.74201380207e-05
0.0117554103901
8.76019172945e-05
-2.93703563216e-06
4.40597247323e-05
-9.95412334504e-05
-0.0117571713124
0.0117476479705
6.25378534543e-05
0.0117696143569
6.54715886466e-05
-0.0118152501476
3.80063880659e-05
-0.0117726780094
0.0117686933033
-2.13510811279e-06
7.18232057676e-05
0.000119839629159
-7.01214959442e-05
-7.23395360726e-05
-6.66256803852e-05
0.00103640407835
1.85404202311e-07
-0.00098348401353
-2.30899361075e-07
0.00103008737303
0.000196378140533
-5.63676352301e-05
-5.64780178613e-05
-6.10460584991e-05
-0.00102225970513
-2.34924888306e-07
2.2244472957e-06
-1.43142815034e-05
2.24001910202e-06
5.27040899269e-07
-0.000165907364825
0.000895091646875
1.2587535825e-06
5.76268776526e-08
7.54113890734e-09
-4.82616567506e-08
-2.48944926337e-07
1.29858293437e-08
4.10964515081e-06
-2.95598163071e-06
-1.96070046797e-07
2.91718856951e-06
1.00435394428e-08
-9.09612493428e-07
4.86230682064e-06
-7.11817322259e-08
-3.33086288818e-06
3.92296988632e-06
8.33521747212e-09
-2.29883890232e-06
-2.36688427205e-07
8.76479481636e-08
1.93931882219e-06
5.01616155444e-07
-2.19687660564e-07
4.02671530354e-06
-2.19356224852e-07
-2.2739300419e-06
-3.52287428756e-08
1.63246386376e-06
6.97060033664e-07
0.000173653581928
-3.94795337107e-05
2.14417255685e-07
-1.6583403114e-05
1.0646804702e-06
-0.000984334131481
0.000906063948659
6.47996479957e-07
-9.03666975355e-06
-9.11117879877e-06
-0.000920521082038
1.80705715623e-06
9.8273843805e-05
0.000194736687395
3.54242577119e-06
2.50873613073e-06
4.31899048541e-06
4.66577747897e-06
-0.00019180817865
0.00083204659173
3.65843891378e-06
1.9246160365e-06
3.4405232094e-06
4.0813213166e-06
4.67448538732e-06
0.000722756671404
0.000118045843061
6.31373968306e-06
4.85142344592e-06
6.57557676162e-06
3.05710011561e-06
1.37683388647e-07
-1.52498084688e-06
2.39679013454e-07
4.6091652095e-06
2.40948337917e-06
1.29877176926e-07
-9.5034781238e-07
4.34307119178e-06
3.17647665991e-07
0.000192676713476
9.41984247501e-07
-3.15753668365e-05
8.83449906608e-07
8.63357496655e-07
0.000584313436817
-0.000201173238117
0.000634014627718
3.9346494336e-06
4.79803459782e-06
6.22876091555e-06
3.11891142838e-06
2.7873397935e-06
7.26925882608e-05
2.51129371373e-06
3.87108986731e-06
2.28804611891e-06
0.000616785902148
3.86702251722e-06
2.67870477325e-07
4.24803598192e-07
1.95617643918e-06
3.95492052987e-06
5.5044431813e-07
7.80217496496e-07
2.43007095453e-06
-1.21078276547e-05
5.39729611059e-06
5.17828923516e-06
6.43311847339e-06
5.26656932403e-06
5.02593231201e-06
0.000692429040618
6.11017543598e-06
4.54433695615e-06
4.61793202416e-06
-0.000780501173106
-0.000135758077678
1.45893647854e-06
-3.75765514031e-07
6.04604230877e-08
1.85598008308e-07
3.7476374238e-06
3.55665319092e-06
-1.24736817078e-06
-4.25313944447e-08
-8.98024627817e-05
3.72770264091e-06
5.44286447451e-06
5.10403493766e-06
4.30478312439e-06
0.000614678229264
0.000626444600112
4.79497311479e-06
6.64005454723e-06
5.08118011012e-06
6.18020233099e-06
3.38103212889e-06
4.78535429292e-06
5.040781982e-06
3.39277736551e-06
0.000588650625187
-0.000217979936826
4.26796528742e-06
4.02914036103e-07
6.9152663676e-07
3.28236782043e-06
4.83892105455e-06
-3.59565048574e-08
4.77811596616e-06
3.18098153774e-08
0.0122342583865
8.78268402851e-05
-1.04178964584e-05
1.98607830156e-05
-0.0122663541052
9.47225155641e-06
-0.0122373463119
0.0122051937545
4.11194198304e-06
1.45143503486e-05
-9.47949451422e-05
8.47153732661e-06
-0.0118364384597
-7.80785071915e-05
-0.0118377671485
3.89945140545e-05
0.011827945571
2.60067273988e-05
0.0122032893737
3.48731128473e-05
-0.0118347824786
-1.20226811912e-06
-0.0122701912598
0.0122358495712
3.26186643733e-05
8.13828712493e-05
-0.0122674490644
-4.37429458503e-05
-0.0122447784745
0.0122350648992
6.52318781537e-05
-6.1593977194e-05
-0.0118376176865
0.011831209508
-6.44840598475e-05
-5.59788363291e-05
7.01723673357e-05
-0.0118398346662
0.0122142350958
5.00468045269e-05
-0.0122730506735
-0.0118333854153
-0.0122069777859
8.42890734798e-05
5.63927377906e-06
-5.18709237626e-05
0.0121999542542
-5.63999742139e-05
0.0122299618309
8.52205724857e-05
-3.70390329793e-05
0.0118386176475
-3.95847575254e-05
2.69143970958e-05
-7.63384781329e-05
9.2874848447e-05
0.0118188297632
-3.17317367824e-05
0.000115974369943
0.0122331030974
-5.17785762899e-05
0.0118226350382
-6.28752597743e-05
0.0122827241526
1.97560026143e-05
8.09916796628e-05
-0.012294575895
-0.0122634822515
7.90046786406e-05
0.0122596663248
-4.14254321945e-05
7.88921422147e-05
-0.0118504829555
1.08333082452e-05
-0.0118734017004
8.86518644623e-05
0.0118660548117
-0.0122819381452
9.55052733404e-05
0.0122805457939
8.4684753419e-05
-0.0118617963546
0.0123024634988
9.80148745175e-05
6.23044495161e-06
-0.0123138610297
-0.000113440740653
-0.0123199482598
0.0123205757217
0.000131248617616
2.40273031087e-05
-0.0118894113141
0.0118796779154
9.09623303334e-07
-8.53384719219e-05
-0.0118970838237
8.19251327025e-05
0.0123019067786
-0.0123317462509
0.000115616187886
-0.011880540056
-0.000128776795813
-0.0122817367255
-5.3411619482e-05
0.0122991848308
0.000140854754953
0.0122586291768
0.000100396383945
4.52927990696e-05
9.92348843523e-05
0.0118032446222
2.41274796471e-05
0.0118472020072
9.64157760842e-05
0.0122718551884
0.000118210557597
0.0117931724756
0.000102618727694
-0.00014890318755
0.0123264588343
-5.32426300108e-05
0.000162841945643
-0.0122945231868
0.000183931417055
0.0123139478043
-0.000185460922881
3.54423978113e-05
0.000102485109274
-0.000100244938036
5.73104299909e-05
-0.011750295468
0.000118112971052
0.0117281607651
-0.000139933204928
0.000193265997638
0.0123553905615
0.000109175606133
-0.0123065648775
0.000153635992269
-7.17491500381e-05
0.0123269621744
-0.000134890588356
0.0123257751281
0.000150498944134
3.8546597692e-05
0.0118599235846
7.59558638237e-05
-0.00010872133279
0.0118360560571
0.000103846710012
0.0123471886838
0.000167450457438
0.0118058377437
0.012355035015
0.000170926051812
-8.01150363167e-05
-0.000192137751511
-0.0123752200562
0.0124089406477
0.000199367345222
9.01481134871e-05
-0.011761111703
0.0117348421083
8.4330203442e-05
-0.000116481393992
0.000108911765023
0.0123880744828
0.000182650607193
-0.000254616814156
-0.0123854453974
-2.08961405445e-06
0.0124115405658
0.000254861524244
-2.48126158765e-05
0.0123435170455
0.00021808451725
-1.35631769869e-05
-0.00022328687652
-5.60764620001e-06
0.000147707260738
0.0117026490062
-0.000149183144028
3.09237631101e-05
0.011714565035
0.000125308254162
0.0123796653082
-3.37965030923e-05
-0.000263210298624
0.000221228610993
-2.76013389978e-06
0.0116752065532
0.000139051706057
-0.000280961843933
-3.53557064961e-06
0.0124657744688
0.000284579352527
-5.46165029404e-05
-0.0124405474023
0.000297814728832
0.012516370809
-0.000318806695494
-0.00010118886853
-3.39245265817e-05
0.000160656807401
-0.000169217879584
-0.0116791683687
-1.24814970997e-05
0.000172533423639
0.0117204719089
-0.000296250944725
-7.98448967673e-05
0.000155941282981
0.000302920547712
0.0125264493359
-7.75430307119e-05
-0.012419722142
0.000231061041906
-3.5093410307e-05
0.0124453974758
-0.000211642620915
0.0124424600659
0.000215592772867
6.5403226497e-05
0.0117131992407
7.44738859775e-05
-0.000129778325928
0.0117153145915
0.000125123774862
0.0124708215212
0.000231483301808
0.0116697378014
0.000256127862083
-3.09712911654e-05
0.0124817875445
-0.0125021182724
-0.000276456617249
0.00026185733535
0.0125349847371
-0.0116703188279
2.56480878748e-05
0.0117233480032
5.82811238461e-05
-0.000143918060443
0.000132460353767
0.000249515291039
0.012532708021
-0.000171065408937
-0.0123616002401
-5.89873992862e-05
0.0123801951038
0.000170594661946
0.012345221427
0.000156181816535
-0.0123419049834
7.02862186861e-05
9.71546778756e-05
0.0118739090563
2.55711524839e-05
0.0119134432612
-0.0119200469
8.10659257381e-05
0.0123661914759
-0.0123590938912
0.000156709856114
0.0118845895526
8.61221140358e-05
-0.000185609420801
0.0124074499734
-8.16556664306e-05
0.000184470855459
-0.0123932503693
0.000198342813653
0.0124285815953
8.71159825184e-05
0.000101157236117
0.00011149585992
-0.0118509736383