/*--------------------------------*- C++ -*----------------------------------*\
| =========                 |                                                 |
| \\      /  F ield         | OpenFOAM: The Open Source CFD Toolbox           |
|  \\    /   O peration     | Version:  v1906                                 |
|   \\  /    A nd           | Web:      www.OpenFOAM.com                      |
|    \\/     M anipulation  |                                                 |
\*---------------------------------------------------------------------------*/
FoamFile
{
    version     2.0;
    format      ascii;
    class       volScalarField;
    location    "4.1";
    object      p;
}
// * * * * * * * * * * * * * * * * * * * * * * * * * * * * * * * * * * * * * //

dimensions      [1 -1 -2 0 0 0 0];


internalField   nonuniform List<scalar> 
28582
(
17109.370236
17107.6590272
12211.4417986
12209.663016
7313.62715337
7311.67868599
3640.89902912
3638.60281497
9.73094737264
12.8945960326
-27.040569967
3639.57480945
617.015860256
615.977228437
3637.87588705
3638.17816423
616.246640963
1801.24567029
1801.33850434
17110.1617837
17106.1875504
17104.6439884
12212.2417142
12208.0922724
12206.3819285
7314.87530398
7309.82625134
3642.35930785
3637.18579499
15.248090426
-27.0332202552
-27.0003905387
3641.01366724
3642.07274586
617.929608492
616.702209205
1806.73057436
3636.1218257
3637.78493428
3637.14081942
1801.25694344
624.202660515
1801.48128215
1802.10673315
10.2503452451
12.7477931072
-23.1846073164
-23.1798787311
11.2179478259
-23.1928047693
1804.62669789
1802.94487312
616.36468991
616.504950372
1803.92316184
616.107946939
1803.57903218
1802.31660112
1802.18963595
615.894322641
615.920395733
1801.92561499
615.939282692
1802.75879902
1801.44581791
1801.79183272
616.892543021
616.2530046
1801.64353944
616.872614211
1801.50880425
1801.1426774
618.894854922
618.819907119
1801.26850231
617.782907814
617.75315366
1801.27634912
1801.38050441
618.630354188
618.415306535
1801.30618192
617.503046855
1801.32155431
617.583410358
8.97958759247
-23.2496577807
9.40317438076
9.41195051455
-23.2468511992
-23.2532222865
14.7006350404
-23.1646639946
-23.1549160023
17.4033495085
-23.1397678466
18.2679774029
-23.1290294985
1806.37180402
1806.29018049
617.485526916
618.267023011
1805.35195439
1807.24052153
617.795211407
1805.62022618
1804.12254239
617.128658094
617.125838553
1804.66238676
1805.06996992
617.413852057
618.041711955
617.772662812
1805.79882787
1806.36082245
617.583877013
1805.61254022
617.723226075
1801.01847096
620.14482373
620.105614299
1801.27893958
621.526713188
1800.7785452
621.537768058
1801.02003281
1799.3864216
622.975415452
624.303391797
1800.25718657
1800.39293058
623.11877948
1801.90759429
1801.57497229
619.873604025
619.611557672
621.106013685
1801.70323097
621.419268445
622.773615514
624.361203734
1802.03633667
1801.70873255
624.393028813
1801.32214341
623.089475233
7307.57594467
3634.40487472
21.5285289561
-27.0016463755
3640.92470196
617.338393461
3635.63157388
3633.34690814
625.113491682
625.707657617
626.995208793
3630.88278368
3628.99261258
627.131622266
628.000909695
9.13343583547
20.3352019499
23.5669034748
-23.0784920869
-23.0885666778
-23.0393278212
26.90616037
29.8804786109
1804.48461733
1805.06954019
617.337252433
616.838362097
1805.12449541
617.023178122
1804.21356407
1797.8947501
1798.11677684
625.818088708
625.372236542
1796.54388979
1799.36048798
626.263380875
1799.05828403
1801.31897505
625.608975726
626.425784427
1800.46436792
626.51649331
1799.89638633
1797.17228206
1795.63137693
627.324221364
626.820926268
1794.98847128
626.991371238
1797.92998173
1790.89491356
1793.42348078
627.480198381
627.340666542
1792.82065839
627.802217104
1791.39387933
1789.52474206
1789.53693222
628.399766861
627.498050182
1788.96602588
628.119681908
1789.95007597
3659.79835885
3655.93573676
3653.76817969
3651.549276
7.33783421423
11.8577283322
5.6718442534
11.1972451049
9.43066194996
-27.1141465359
-27.3306046553
-27.0272169412
-27.254436399
-26.9835048773
-27.2059797006
3660.96972233
3659.89938464
624.34997551
623.583742259
3662.35459413
624.562935677
3658.1913823
3656.80025568
622.917359825
621.015513228
3660.67037065
3657.60025139
3657.28867449
623.852758
625.751150112
622.293147011
624.500151699
3655.79850372
3652.92296458
625.529262059
625.20274085
623.835175112
623.595527565
3655.35694248
3654.03127223
621.85826144
624.511390611
622.610976496
3651.22558327
3652.60577026
3650.43525881
623.901702311
623.372141793
622.297945933
622.202803813
621.681697009
621.822555367
6.82966843409
6.71876942546
7.51908350008
-23.357902189
-23.3521945566
-23.3553551581
-23.3243887052
-23.3380850447
-23.2863163832
-23.3290866876
-23.2737347789
5.8539421543
4.96688219651
9.77314658336
6.78703776991
9.48799791439
-23.3096413641
-23.2972131462
-23.3036124533
-23.3000454556
12.5213807658
11.8580058503
12.6416862283
-23.3078478797
-23.2740816386
-23.3108365458
-23.290991896
8.41331385236
7.72993626117
-23.3021134948
-23.3027992911
-23.3023452115
12.3416740484
10.3038173286
11.4344254661
-23.3134954928
-23.2957214876
-23.3152183012
-23.2967351865
1823.25871802
1825.02270989
623.052394982
624.266028765
1824.65977189
623.00973404
1823.56141349
1822.85601759
1823.43727474
624.088555196
622.388613633
1824.17110357
1822.26890593
622.87138515
1825.98718499
1824.2887469
625.363025475
625.516708437
1825.2406398
1824.7948149
626.239137886
1821.07709684
1822.63336041
621.688484861
622.28870929
1821.60127186
1821.98254803
621.040080856
1820.60521275
1820.97364518
621.651125429
619.823887609
1821.42606041
1820.1565655
620.428866857
1822.26420457
1823.1906085
624.738421675
623.542105791
1823.43450045
1822.41373973
624.14117741
1821.59874125
1822.80003238
625.623649703
625.097326112
1823.35827731
1820.95465936
624.223162835
1821.48487985
1821.36798851
623.038029272
623.499072639
1821.79174137
1821.23598153
623.747038063
1820.5708096
1819.06265142
624.729870091
624.563257894
1819.67658609
1820.48619283
623.883101276
1819.332148
1822.12516619
626.373559803
625.932567805
1821.11516273
1820.46109322
625.314412619
1817.89166638
1817.38710926
626.287285498
624.608916652
1819.75080607
624.375881482
1816.1739273
1817.52128898
1817.44901068
625.436673451
624.60152382
1818.84054719
1816.38114749
624.631983249
1816.069768
1813.87044667
624.131672463
624.844294555
1815.40361454
623.491355304
1814.68050887
1820.782493
1821.11454078
623.212904673
621.470793438
1821.08418315
1820.82804688
622.686888552
1820.02924757
1818.88581817
624.460324209
624.506299115
1820.36388932
1818.8351065
623.596201542
1819.52330753
1817.48421206
623.892889019
622.677025976
1818.33197308
1818.73705589
623.112229931
1815.56660202
1817.12529831
624.492418629
625.029347831
1815.83729171
1817.41437177
623.917264974
1813.83488384
1813.28198391
624.707891983
623.426459754
1814.75948082
622.820029838
1813.00226623
1815.31805253
1816.1226898
624.314278375
623.031174549
1816.98294079
1815.03891038
623.398045877
1813.66006592
1812.99524085
622.946121045
623.060485139
1814.05491259
622.383696425
1812.88725735
1814.57542146
1815.61803488
622.348127326
621.554555001
1814.75820667
1815.21382621
621.494650277
1813.16048509
622.453899582
1814.03530872
17108.0773984
17106.6853481
17105.4858211
17103.0791845
17101.9625218
17102.5395168
12210.1758791
12208.7797275
12207.4172704
12204.6809684
12203.604798
12204.1353023
18322.8048722
18325.2011435
17098.4923826
17102.0988031
17103.8567762
17102.7724656
17101.01451
17098.8760207
18324.956992
18327.3893643
17103.72508
17104.6949958
17104.0775224
17102.4259641
17100.6862314
17099.303101
17105.3495293
17104.3324877
17104.5425929
17104.2762443
17103.2848266
17101.7821823
17100.3969205
17099.7352217
17108.08298
17106.2199749
17105.6584461
17105.0664428
17103.7313533
17102.0258772
17100.7124131
17100.6536869
17103.9614908
17102.2965193
17101.1252277
17101.5027263
13422.5888819
13424.7797055
12202.8887827
12204.4610598
12205.4319292
12204.6027303
12201.8689546
12199.0369312
13427.0059198
13428.1066567
12207.617888
12208.0801994
12206.4471112
12204.0259135
12201.5596583
12199.8235868
12206.8725014
12206.6415225
12207.0317146
12206.4387809
12205.1925554
12203.0699851
12201.3960211
12200.5106253
12210.1107082
12208.3781672
12207.8691076
12207.2415254
12205.6506169
12203.4578181
12201.7377627
12201.7079052
12205.5845583
12203.660396
12202.3189586
12202.8173476
8523.1034899
8526.24542133
7306.52630849
7308.48803669
7308.4885996
7305.32522302
7300.34495066
7297.99830988
8527.79344615
8530.53139228
7306.98423295
7308.8351552
7308.57320503
7304.2682335
7299.54058435
7298.59727199
7308.89262374
7308.92870229
7309.09980061
7309.01372435
7307.16368999
7302.97431066
7299.18095759
7299.52292656
7316.05233685
7312.31441912
7310.63200948
7309.99190588
7309.11037464
7306.88938181
7302.90431703
7299.8435894
7300.93429379
7312.67038353
7311.01819745
7309.09726391
7306.50627299
7302.90609461
7300.80933445
7302.19968944
7304.60878611
7302.47460367
7303.66580282
3628.50005685
3631.40022162
3632.96611518
3636.33507091
3639.14840978
3632.45149348
3624.10608246
3624.02994284
3632.32551353
3631.66952405
3633.70156462
3634.34513176
3637.32813651
3638.94911938
3631.98707552
3623.80327445
3623.72790341
3647.81424447
3640.57598639
3635.97311374
3635.82475916
3636.24436802
3637.54226007
3637.85988352
3630.42244367
3623.16116529
3623.85248322
3643.92358333
3639.14695784
3636.77592105
3636.59048172
3637.62538122
3636.33529209
3628.70285765
3622.82895856
3624.45994702
3640.02406496
3638.17894401
3636.80713773
3633.90992685
3627.46624784
3623.79354431
3625.95326768
3629.51020592
3626.90664812
3628.33833986
9.83294404891
9.87966663089
9.51831788281
10.2921275073
15.2998130805
26.1537090507
31.4790489723
32.42085627
11.8349884227
9.99584494458
8.0119016359
8.29707087722
8.54448944484
9.66806254732
15.9896071158
26.6324758612
30.4047721856
30.6036473982
12.0781974331
10.7516185309
9.67398599737
8.64214020434
8.93021190736
11.1466139396
17.6854092822
27.4296269671
31.1589748685
32.0450533443
10.175872459
11.2166647997
11.0016790393
10.4131546063
12.6588794384
19.6384467465
28.3843196344
32.4544273306
35.5271778956
9.17091066806
10.3602916
14.6820342611
22.178135098
29.8060534357
33.5012807543
35.2111070402
28.300770809
32.5355556287
33.8715589665
-27.1248632055
-27.0520804111
-27.0486730054
-27.0369382192
-27.0234601271
-26.9952109053
-27.021251127
-27.0430919817
-27.1708853878
-27.4872679294
-27.0830472748
-27.0256259839
-27.0034203668
-27.0090322852
-27.008815408
-26.9876669136
-27.054285501
-27.042651045
-27.1620799986
-27.4889040505
-27.1110244954
-27.037347307
-27.0106113317
-26.9951420426
-27.0012946261
-26.9881770059
-27.1062594022
-27.0396729866
-27.1770931943
-27.4716912187
-27.0594261666
-27.0426231082
-26.9983888957
-26.9985348219
-26.9810895556
-27.148045775
-27.0511012559
-27.2183438729
-27.5068944284
-27.0015261959
-27.0480463471
-27.0891933477
-27.2564317717
-27.0865618074
-27.2300751263
-27.6106460697
-27.0575337077
-27.2112365816
-27.6468496825
18324.3120777
18323.2052784
18325.2337165
15872.8334693
15874.5503402
15873.8033517
15875.0785447
18325.8389207
18326.3350021
18326.7847391
15875.4545853
15872.763402
15875.7889896
15875.421823
18326.3579349
18326.9662788
18327.1637523
15875.811191
15877.1595074
15877.6682104
15878.0048699
18327.4734019
18328.0149686
18328.4068821
15877.8380373
15877.5332736
15879.1818474
15880.0452902
13424.0389205
13424.0994281
13425.0702803
10972.3257553
10973.9328286
10973.9399307
10975.5287963
13425.1532321
13425.5563577
13426.8902115
10974.7080327
10975.1015297
10976.5555302
10976.9248518
13427.7152922
13428.4792668
13429.0732189
10977.1583544
10978.3301305
10979.2563223
10979.6321717
13428.1742262
13430.0697959
13433.2134601
10979.0831427
10976.1244033
10980.2065402
10982.5837177
8524.98396238
8525.03018334
8526.8243743
6075.13116841
6077.07228937
6077.03178144
6078.59241714
8526.83524604
8528.02812325
8528.83763154
6078.83606408
6079.70486634
6079.89265381
6081.93912688
8529.3473095
8530.13202478
8530.83372188
6079.32257474
6080.90401438
6081.44943599
6082.41570251
8528.20897336
8531.42195356
8532.99269466
6081.97565541
6081.95628307
6083.39316296
6085.08353906
3626.89940649
3629.08253381
610.195916916
610.698668835
3630.11257278
3630.18621134
3631.29578255
610.680767898
612.26507695
610.793970068
611.87275655
3632.03227399
3632.17472344
3632.76899457
612.529061956
612.587278995
612.026968694
612.32588342
3634.35968864
3633.196932
3634.54523204
612.70952173
614.0674795
612.494673847
613.900509879
3638.61305898
3636.59065187
3638.74125865
614.944752222
620.864912506
614.801797837
620.972451882
3636.79591362
3639.01328707
3636.93108304
624.102366708
631.045031731
624.34063934
630.977548191
3627.1754933
3632.46889729
3626.96641148
630.515709229
625.493522489
630.421765858
624.812424041
3623.12104031
3623.91258339
3622.97962274
623.697971375
626.045468253
622.896066974
624.106051668
3624.50772393
3623.75806135
3624.55451874
628.741235982
610.70399923
626.667186511
608.823392365
3647.63464717
3641.73242425
623.313942216
617.285804375
622.698983663
620.113567133
3630.7485343
3637.26025704
3634.31544929
614.697033273
611.2306571
618.422314838
614.526043753
3632.99007203
3633.68720583
3634.42265375
611.09681219
611.832747011
613.718332999
612.701961063
3634.04779637
3635.26056992
3635.80312262
611.930740857
612.367699583
612.753426936
613.164697705
3635.59606699
3636.36165302
3636.91672229
612.560364391
614.04818499
613.163490408
613.94266153
3638.94163072
3637.77075119
3638.73292602
614.925542484
621.081183033
615.074737057
621.814604508
3636.61662353
3638.45694751
3635.88077817
624.464697401
630.808908012
625.120485824
630.588361832
3626.8254236
3631.24422289
3626.36936056
630.266562097
624.797954429
630.002911171
624.898720021
3622.92237368
3623.53748563
3622.78778738
622.949319117
623.776468896
623.263154517
624.445756635
3625.01263233
3623.6695943
3625.5415515
626.282319122
608.462613553
626.960563239
609.576562664
3644.10639683
3647.97550929
3645.29301475
622.464529015
620.563456139
621.789034147
620.462363618
3637.68688289
3642.47702813
3639.71571851
619.240703939
615.636542416
619.736796258
617.095478133
3635.51750907
3637.51135919
3636.29617189
614.83045954
613.343935287
616.193600991
615.03027698
3636.11073192
3636.01241866
3636.0128442
613.33261129
613.275306343
614.709332681
613.653833048
3636.66908584
3636.2334587
3636.80700411
613.084907272
614.077390584
613.459757831
615.252091712
3638.38833349
3637.58497695
3638.18878437
615.352779033
622.285187362
616.916373326
624.139510083
3635.07729576
3637.20421944
3634.1950848
625.51361203
630.558614691
627.222727042
629.967308274
3625.70436392
3629.56287824
3625.21060127
629.836994099
624.807190625
628.663658523
624.59077098
3622.47241372
3623.04078774
3622.26465339
623.29041424
625.10658695
623.548428936
628.038963527
3626.3869245
3623.88894706
3627.24191648
627.820791764
610.621793607
631.219553396
614.372908812
621.463886742
620.320336475
3641.38595938
3642.91690781
619.71147923
617.477948422
618.148240483
3637.54159766
3640.92601889
3639.32946203
616.715404519
615.551541019
617.551119802
616.525148551
3636.50749837
3638.3252774
3637.76021635
615.254106667
613.920063526
616.378550558
615.878650485
3637.09248382
3637.34687627
3637.25087885
613.74984372
615.713032382
615.65278909
616.592864971
3637.80786408
3637.24843414
3636.81210448
617.421205479
624.725151644
618.203487523
625.125174254
3633.13946882
3635.03384187
3631.86324585
627.672049145
629.464442868
626.9095536
627.016015254
3624.80808955
3627.86885277
3624.77906509
628.080430148
624.610124199
626.264022734
625.620268665
3622.72975554
3622.8981019
3623.38862713
623.925249795
629.253851082
626.334393625
631.620141036
3628.09740538
3624.93886904
3628.68487092
632.332238476
615.178915714
634.045861737
615.488185834
3639.11367539
3639.6718517
616.52871381
616.497841322
616.15540644
3637.38190147
3638.58259302
3637.64617634
616.388969064
616.989112354
616.307457183
618.609789268
3635.80491802
3636.79007323
3635.53436646
618.479823319
624.730628149
619.874041201
624.049320828
3630.88705743
3633.62166238
3630.94037803
626.211915656
626.543940011
624.921510633
626.564954994
3625.1655081
3628.23021717
3626.34744541
626.108358445
626.303438975
626.831585294
628.172977832
3624.56985371
3625.34809176
3625.8302651
627.159786184
632.07138301
628.691457262
632.71803094
3629.18124759
3626.99744321
3629.74296985
634.032366442
614.812856144
634.142760147
612.949435718
3631.9879618
626.984490234
3627.72992956
627.252180502
628.552583621
3627.21785011
629.052069209
632.789142686
3630.76298757
634.260685868
612.578522545
-23.2457042897
-23.2540101706
-23.235235989
-23.2638883174
9.52695018623
8.79396263355
-23.2488652207
-23.246632645
-23.2647163304
-23.2534462108
10.0129106182
8.83829369206
9.09266254785
-23.2395635535
-23.2394920209
-23.2435985117
-23.2415545054
9.64280552684
9.14486897162
9.13063723142
-23.2361262587
-23.237959379
-23.2362126808
-23.2367231579
9.68697988514
9.14437361795
9.32681289594
-23.2341607007
-23.2321093277
-23.2345583744
-23.232335517
11.7999070592
9.89664611156
11.5189903425
-23.2274156072
-23.2092530792
-23.230373781
-23.2044633294
20.7575220101
15.3796817538
20.984500968
-23.1342014874
-23.0554678183
-23.1423907764
-23.0633145695
30.4155921773
26.2730779692
30.0407380642
-22.9477814143
-22.920947803
-22.9583936526
-22.9316787607
31.4640011727
30.7103344034
30.4282180567
-22.9409478109
-22.9571270596
-22.9476332016
-22.9591871164
33.0999801154
31.2086524138
32.111547753
-22.9957102455
-22.9198787843
-23.0016422469
-22.9148127508
10.9330027562
12.2518148023
11.3881500031
-23.2506264802
-23.2809697086
-23.2821396507
-23.2911915824
8.78994387178
10.5545038663
9.53804896312
-23.2839412658
-23.268492354
-23.2914889129
-23.2795412171
8.07489222322
8.47987200742
7.82822310339
-23.2494407334
-23.2417810569
-23.26416633
-23.2447862896
8.44300671985
7.70594107587
7.88975743512
-23.234579725
-23.2349565908
-23.2362668076
-23.2351157824
8.84377996897
8.18333612256
8.87288340469
-23.2324984115
-23.2299644437
-23.2274078347
-23.2216633526
11.7633994815
10.2167943142
12.6494814625
-23.2315273626
-23.1982214164
-23.2177156584
-23.1810253894
21.5761874767
16.8847926096
22.2182225477
-23.1425045668
-23.0705101022
-23.1356210048
-23.0715057112
29.9525397323
27.0325137003
30.184221719
-22.963825045
-22.9460302648
-22.9677703423
-22.9560732447
29.9117434309
30.5815050488
30.1547427249
-22.9563377026
-22.9610883848
-22.9685188933
-22.9673239992
31.6089200651
30.8706032016
32.0937724515
-23.0031259784
-22.9101206105
-23.0031786567
-22.9139166152
11.3426218596
11.3141638955
10.8966122982
-23.2899440033
-23.2907243087
-23.2845815146
-23.2748291338
10.2653688772
10.7695038757
10.9257288748
-23.2832188553
-23.2731429879
-23.2602979645
-23.2570704585
9.05033419805
10.8586669455
10.6130100215
-23.2656436922
-23.2591941783
-23.2569849345
-23.2603905906
8.63867636902
10.1552570239
9.82783393727
-23.2493622286
-23.2409615057
-23.2514514323
-23.2335811959
9.70228640939
9.88245668723
10.4977787443
-23.2184060641
-23.2063347002
-23.2107386357
-23.1986422265
13.5672286947
12.0072404529
14.4142855745
-23.1915532668
-23.1587400815
-23.1837527799
-23.1480907196
22.7962721147
18.5425784927
23.4154577089
-23.1239437353
-23.0665657403
-23.1150314512
-23.0615485136
30.6510900008
27.835234418
31.2475637585
-22.9576801597
-22.9470102604
-22.9561887807
-22.9293493401
31.0746252178
31.745763174
32.3869542784
-22.9698557836
-22.9702861591
-22.9648483255
-22.9697986608
33.4881033174
34.0494972726
35.4038783523
-22.9961351499
-22.9308474631
-22.9911757822
-22.9418835768
10.7191148198
9.88444827687
-23.2420025706
-23.2283992652
-23.2304729373
11.2624370322
10.4088880468
10.4841952996
-23.2283719937
-23.2438989806
-23.2332844897
-23.2395588602
10.4623961549
10.368155116
10.1967999539
-23.2476018931
-23.2276420362
-23.245608051
-23.227939361
11.0079158794
10.4768370249
11.5421935401
-23.204210385
-23.1924484296
-23.2046826376
-23.1899906455
15.3481270375
13.5423577299
16.7378207156
-23.1777315815
-23.1400891704
-23.1720180804
-23.1434198641
24.2092976921
20.9458563874
25.2196225647
-23.1128750053
-23.0589447684
-23.1140040477
-23.051507556
31.7655156648
29.1733968875
32.3119551053
-22.9472037648
-22.9154521594
-22.9450231585
-22.9126224383
33.7472383634
33.281120869
34.573400735
-22.9545009406
-22.9617523915
-22.9542063244
-22.9570540191
36.6654914386
35.922842834
36.4209825055
-22.9861454979
-22.9392349351
-22.9842676516
-22.9348113529
9.39292881187
9.54946523247
-23.2458661813
-23.2287979314
-23.2433912045
-23.2226271349
12.150089153
10.5988030961
12.5971045056
-23.218840128
-23.2026974632
-23.2060107728
-23.1924665923
18.1757860792
15.2961479109
18.7378079381
-23.1890431585
-23.1624721746
-23.182024261
-23.1575573146
26.1844241473
22.4208780908
26.1200427314
-23.1164116777
-23.0528538337
-23.112677574
-23.0519090325
32.5099507755
29.4670196135
32.0945372829
-22.9398608577
-22.9216778916
-22.9364246019
-22.9219490491
34.5803703112
33.148815303
33.9747459159
-22.9493749256
-22.9525147323
-22.9491858694
-22.9546602321
35.4961249561
34.2166394121
34.6262365321
-22.9924216085
-22.9238252723
-23.0005099397
-22.9158701552
24.9793800694
-23.0330639379
31.1350430986
-22.9403061918
-22.9451376229
-22.96492656
-22.9649052262
33.4230406016
-22.9604104217
-22.9586059992
-22.9763917792
-22.9673515984
34.3763831731
-23.0144051285
-22.9184215695
-23.0151786346
-22.921224396
1791.81000956
1791.04735639
609.379739977
610.284139266
1791.74614519
610.051482836
1790.87266384
1792.75959959
1794.03381919
610.334561757
610.789886947
1792.79328961
1793.88656343
610.224344621
1792.9214671
1791.57787214
611.3766886
610.596854684
1792.15327246
611.275210256
1792.44118228
1793.73397003
1794.06210059
611.939321877
612.043499321
1794.37425413
611.820757406
1793.3174818
1793.69554163
1794.40498542
610.563648036
611.190279323
1793.0972411
1794.89092026
611.227384666
1794.39549155
1795.68192817
611.993504926
611.616018067
1794.91216287
1795.33884163
611.786456801
1795.16240937
1794.66986852
612.575188123
612.241439489
1794.86685087
612.306648377
1795.04076162
1795.5264447
1795.82018423
612.574186105
612.403185713
1795.85104684
612.368083706
1795.45372186
1795.55459236
1795.96622312
612.146462829
612.087725009
1795.2858942
1796.18743437
612.211264007
1795.88681985
1796.73932938
612.323423135
612.221706879
1796.19231852
1796.47712746
612.289396719
1796.81907813
1796.31525863
612.956576458
612.566061053
1796.3440842
612.863729896
1796.80105501
1797.55359814
1798.65480254
613.414655832
614.021158652
1798.65043689
613.303486476
1797.56887609
1797.11210057
1797.13811469
612.522552505
612.781400264
1796.64111542
1797.58451196
612.814762325
1797.84186322
1799.23904781
613.950243818
613.234682357
1798.87705521
1798.26157691
613.22850583
1801.40953721
1799.83320371
616.361947064
614.944603059
1799.9119366
616.326165046
1801.38863924
1803.06501825
1805.03418229
618.266696167
620.848217979
1805.15014253
618.156688318
1803.0401338
1801.67766563
1800.4062405
614.873634176
616.223164039
1800.12155982
1801.89442978
616.271493362
1803.36263427
1805.28639662
620.92839724
618.214506852
1805.31084051
1803.51344523
618.19876356
1807.05434379
1806.45365681
627.32539479
624.069766008
1806.57769222
627.235128561
1806.94428509
1805.546616
1802.29705039
630.053399042
631.024742907
1802.40373479
630.026511379
1805.41302456
1807.04229007
1806.46848199
624.2298833
627.414877927
1806.62594615
1806.70154511
627.376774112
1805.52411858
1801.91332412
631.049698996
630.037819855
1802.36180013
1805.11678653
630.096419027
1792.40174499
1797.97738343
629.152089876
630.581115964
1798.10013046
629.227170907
1792.42917807
1787.18100886
1783.18947823
627.261448476
625.107144844
1782.92953961
626.946992878
1787.41494598
1792.28158395
1797.44308884
630.51702912
629.081254077
1797.9094458
1792.11987685
629.166211065
1787.15940114
1782.83951562
624.864616539
626.920416316
1782.88797027
1787.22170908
626.870453272
1780.88978645
1781.36015094
623.378686732
623.704732373
1781.1627742
622.859143895
1781.21171878
1781.348754
1782.13559687
624.245702663
625.274519148
1781.70756575
623.458191826
1781.67687069
1780.62996262
1780.56901183
623.294091626
621.90179805
1780.93883103
1780.35486583
622.256911279
1781.16112838
1781.36413799
624.554456876
622.38789497
1781.45609063
1780.98619469
622.738855534
1780.83566206
1782.55495308
632.557043338
627.986159676
1782.20496785
631.697217028
1781.15200803
1777.25060572
1781.30230829
636.752255536
609.897418737
635.926332369
1781.08699808
1777.52680191
1780.48188372
1781.79898678
627.230005514
630.253789101
1781.92532824
1780.34691265
630.797858083
1776.78847104
1781.07377878
609.387969184
634.149827126
1776.49047753
634.709751362
1780.9472799
1810.39063341
1813.93218501
621.597247564
623.925884737
1810.03677093
622.126573105
1813.61195157
1806.66914987
1801.62992656
619.931815825
618.35636975
1805.62774771
1803.42946279
620.038450101
1810.50184411
1812.10320961
624.018137897
622.583262287
1810.61752431
622.432880928
1812.85851455
1807.72268746
1806.48148987
619.466602784
621.888968248
1805.09086096
1808.75029192
620.755993244
1798.06282995
1798.34631956
612.741435397
616.628246769
1796.03929684
1800.63534856
614.231720569
1796.77262328
1795.08832873
611.66754722
612.142061373
1795.15012682
1796.45682255
612.76131785
1800.15338898
1804.14007825
617.803851971
617.172544971
1802.56899314
1802.06101897
615.719083184
1798.59065671
1799.31834353
613.386418444
615.762228418
1797.90510127
1800.44509636
614.207175536
1797.02863592
1795.44778801
611.351846291
611.682899765
1795.87432314
1796.61194343
611.697094083
1797.41234869
1796.43231239
611.579641192
611.94167987
1796.19365158
1797.61600388
611.907853322
1797.91193687
1798.79889866
612.767939564
613.136882023
1797.74340037
1798.65080137
612.404582897
1798.20226886
1798.98232467
612.234339803
612.699990131
1798.43105136
1798.75231557
612.260619559
1797.83772771
1796.68183483
612.031890278
611.971510421
1796.92443137
1797.67468195
612.143287258
1798.05678147
1797.36415877
612.219707206
612.554509288
1797.17633949
1798.1642085
612.368806063
1798.67208363
1799.13250081
612.320085961
612.844193567
1798.54286817
1799.29372773
612.440393339
1798.84257881
1799.31080272
612.864486116
613.076953128
1798.92007255
1799.38636441
612.635831564
1798.58091258
1797.64190004
612.86502137
612.789467652
1798.03848365
1798.33039168
613.040619885
1799.03538334
1799.57522855
613.327178851
614.067967123
1798.64795861
1799.80065612
613.424892148
1799.01379792
1799.16470266
613.112064862
613.24027286
1798.98054518
1799.00441113
613.295896595
1799.26439153
1799.58977217
614.019772726
613.321600347
1799.81759045
1799.07943524
613.539593772
1802.05729831
1800.6851606
616.352777004
614.911461895
1802.06424817
1800.79027587
616.375681796
1803.45533567
1805.18352272
618.354573392
621.2215416
1803.55794441
1804.98499314
618.456177114
1801.97143946
1800.54480277
614.915810222
616.777996756
1800.73496188
1801.82201186
616.527580255
1803.34515893
1804.70361606
621.494640925
619.059249631
1804.83410797
1803.23173764
618.712494226
1805.85351242
1806.2793737
627.412642945
624.59331614
1806.32123694
1805.97696743
627.478415349
1804.11922381
1801.46122977
629.901371745
630.586809566
1804.6755976
1800.87726421
629.773341151
1805.50675889
1805.52813384
624.818412524
627.864429748
1805.725383
1805.20755282
627.612337541
1803.69536329
1799.97270415
630.535649594
629.928998205
1800.39625468
1803.31132658
629.798657478
1791.52543666
1797.03284125
628.988344977
630.051996182
1791.8684716
1796.52300547
628.890643579
1786.9148707
1782.86890628
626.802888705
624.836455112
1787.09999695
1782.93908849
626.806030842
1791.14262548
1795.64417377
629.952270766
628.750225269
1796.08170601
1790.73078641
628.763546288
1786.66193846
1782.53873659
624.854803833
626.713155127
1782.81828885
1786.33013805
626.739972218
1780.46386703
1780.57075988
621.849570794
623.219013438
1780.30640448
1780.81687081
622.013722991
1780.96641822
1781.43003344
622.168995581
623.716485601
1780.91766246
1781.55874867
622.149960362
1780.53667012
1780.68121467
623.25557675
622.428806475
1780.82241333
1780.54165419
622.18197301
1781.04881198
1781.92861912
623.954826752
622.929124952
1781.73045087
1781.16405587
622.467181983
1780.44226262
1781.73088822
629.763333955
626.337317219
1780.4614138
1781.79379591
629.658812078
1775.19233144
1781.39838081
633.66125374
608.451490455
1775.6313732
633.482718601
1781.5591528
1780.44037198
1782.07321991
626.572074074
630.350838835
1781.85590444
1780.61498737
629.721486902
1775.09290051
1782.22700458
608.898231793
634.277130465
1775.27612125
633.505239236
1781.81331954
1811.01587941
1811.84431648
622.518278804
623.225490628
1810.76196477
622.134117006
1812.1534017
1809.7187739
1807.55090248
622.010378384
620.927597801
1809.38532056
1808.23079105
621.346673185
1811.20971435
1812.13059228
622.743829432
621.736273653
1811.38433833
621.800208085
1812.171238
1810.09587323
1809.19634964
620.839718277
621.298414552
1808.74832054
1810.44884677
621.170853729
1804.60701904
1805.48561712
618.165260773
619.927216304
1803.54647358
1806.4422521
618.657479104
1802.91005409
1800.5543598
616.825230178
616.415676679
1801.87157472
1801.41678931
617.491315625
1805.31269266
1807.65425273
619.961942139
618.925397187
1807.08130805
1805.91589374
618.856560799
1803.60521142
1802.57274849
616.876045204
618.036759524
1802.0023032
1804.23586876
617.876930131
1799.54164184
1799.75142415
614.029388043
615.429988392
1799.24757547
1800.31381962
614.67912913
1799.22070109
1799.18775303
613.477325597
613.883158503
1799.09008353
1799.21816751
614.171900708
1799.81367178
1801.16897662
615.907515875
615.677020095
1800.72552368
1800.17462094
615.207220173
1799.31445617
1799.2499427
614.478100197
615.333633274
1799.07696545
1799.58863734
614.805276042
1799.1762251
1799.29769277
613.366844568
613.76344389
1799.38600677
1799.19290109
613.734041169
1799.01504554
1799.12367243
613.402620228
613.427910304
1799.32529768
1798.77790645
613.568737389
1798.94853957
1799.0393592
614.334038104