/*--------------------------------*- C++ -*----------------------------------*\
| =========                 |                                                 |
| \\      /  F ield         | OpenFOAM: The Open Source CFD Toolbox           |
|  \\    /   O peration     | Version:  v1906                                 |
|   \\  /    A nd           | Web:      www.OpenFOAM.com                      |
|    \\/     M anipulation  |                                                 |
\*---------------------------------------------------------------------------*/
FoamFile
{
    version     2.0;
    format      ascii;
    class       surfaceScalarField;
    location    "4.1";
    object      phi;
}
// * * * * * * * * * * * * * * * * * * * * * * * * * * * * * * * * * * * * * //

dimensions      [0 3 -1 0 0 0 0];
oriented        oriented;


internalField   nonuniform List<scalar> 
92311
(
0.201613183585
-0.000145368978288
0.000387042771941
-0.201595257608
-0.000259599765759
-0.000194396547224
0.201485515263
0.00103997137735
-0.000717670529725
0.201586113593
-0.000300696125719
0.000398963883437
-0.201561902959
-0.000267580031933
-0.000413890941963
0.201464667391
0.00106480518383
-0.000723486698164
0.201468469099
-0.000116114555837
-0.000118974654723
0.000385579774036
-0.201479873956
-0.000287343213842
-8.39788184103e-05
-6.83140403386e-05
-0.000151671524522
-0.000170466747086
-9.82265626947e-05
0.201284906073
0.00107957294259
-0.000800024047153
-8.93637958261e-05
0.050393483696
-1.74028402824e-05
-2.84330336085e-05
-2.79463058776e-05
-2.20870827867e-05
1.26047881019e-05
-0.0503809070715
-4.5423812706e-05
-0.0503876881305
0.0503420289558
-2.43783984387e-05
-2.71134155409e-05
-2.66743674192e-05
-2.56635832059e-05
0.000157002859524
-0.000159202174944
4.6072946164e-05
0.0306708256443
4.07282486358e-05
4.74801620461e-05
3.47961524414e-05
-0.000936163755803
-0.0329804853072
-0.000966075650991
0.00404290448894
0.0258300489569
0.00762857943657
0.000359007982869
-0.0278123916766
1.70429725639e-05
8.63065530537e-06
6.86053952037e-06
2.30275198276e-06
-0.00604016080306
-0.0155701208174
-0.000756712271376
-0.00157701704065
0.000745292055094
0.00186260186695
0.0133973705887
-0.00259169334632
0.000726538376324
-2.61448935336e-05
-2.32419242424e-05
-2.38916388229e-05
-2.29944446028e-05
8.42710326471e-05
-0.000101243926227
1.29994788414e-05
0.0124632352072
2.22700596156e-05
1.52514900672e-06
-0.0124538550208
0.0124542961797
-1.69407142759e-05
1.07817529875e-05
-0.0124595344814
1.90367031254e-05
-7.63587256099e-06
-0.000209342454131
-3.53102324825e-05
0.05029640721
-3.60883594378e-05
-3.24170361028e-05
-3.2404678936e-05
0.000220620825223
-1.72252877889e-05
0.0502487278464
-1.98315538154e-05
-1.50353099287e-05
-1.64632138831e-05
-0.0502835986847
-0.000204211516577
-1.15805352597e-05
1.26457648648e-05
0.0124436616599
2.1399335484e-05
-1.18939888171e-05
-5.45010575846e-05
0.0125531516843
4.52355947926e-05
-2.01578393288e-05
-0.0125590569908
0.0125492625766
-5.24476993366e-05
-1.43187159916e-05
-0.0125543379947
-8.64693985127e-05
0.20213008353
-0.000476601488663
0.00038126292211
-0.201948275518
0.201412714986
-0.000245615895754
0.00128969911999
-0.000970555667022
-0.000271624345599
0.201364329237
0.00135337189635
-0.00103274113985
-0.000133173746125
0.202068109862
-0.000405344485846
0.000392221521845
-0.20200810113
0.201395497921
-0.000551967133451
0.00132726084391
-0.000951174543989
-0.000643337024886
0.201414822075
0.00139193042511
-0.00103903406177
-5.60198938576e-05
-6.00036382611e-05
-8.73712068419e-06
-0.00052046252756
0.201981430904
0.000419555767551
-0.201886536103
-2.30970999239e-06
-0.000236051194813
-0.000299364335056
-0.000163980432916
-0.00021265782355
0.201317558076
0.00137512183238
-0.0010476569777
0.0504922811028
4.3907719656e-06
-7.72817882158e-06
-1.43167136549e-05
1.09784774775e-05
-0.000293759365174
-0.0504734792104
0.000225607806485
0.0502631050007
-0.000255173261616
-5.13204440262e-05
-5.2323175347e-05
-5.92327053027e-05
-6.3174910165e-05
0.000278414174789
0.00813124437428
0.00257310388315
0.0221878920571
3.1132034653e-05
2.33938883412e-05
5.04654603962e-05
3.34907868854e-05
-0.00720112636423
0.00089528979497
0.000651503882799
-0.000385051759993
-0.0045293480864
-0.00692694401862
-0.00494652237106
0.00451504538663
0.00362358474929
-0.000940980728542
-0.00209938484834
-0.00292417621382
-0.00329306837526
0.00508700291443
-0.00221942655663
0.0115124157561
0.000125986452203
-9.72955260089e-06
-2.57341576097e-05
-2.46571374381e-05
-2.04166294033e-05
0.0505273741417
-0.000140611897836
1.97572516969e-05
5.08582052529e-06
1.37594049352e-05
8.51046008082e-07
0.0504148424612
4.81208581165e-05
-0.0503851495591
-2.00532211695e-05
-9.16131014396e-07
0.0124617654003
-1.61437839842e-05
2.03610021976e-05
-0.012445008931
-2.09960954473e-05
2.63522584649e-05
-0.0124795550201
-4.90444922101e-05
4.31854544589e-05
0.0124800816967
2.65208637786e-05
0.0125866182649
-2.45022147792e-05
1.41270578645e-05
-0.0125830204924
-0.00029050570246
-7.78896316548e-05
-9.75020278999e-05
-7.9315637194e-05
-9.18818887898e-05
0.0502913709407
0.000309443716397
0.0502290331264
-3.32460346885e-05
-4.1435273283e-05
-3.60648463368e-05
-4.06286536169e-05
-0.000248114678234
-6.35246928541e-05
-7.0881548534e-05
-6.08698740194e-05
-7.27517280437e-05
0.0502696652112
-0.000275796460686
-5.81358871079e-05
4.87815882405e-05
-3.30952269914e-05
0.0125441769416
-9.39063735613e-05
0.000104028793922
-0.0123287995885
3.00851879514e-05
0.01230688437
-1.83193394881e-05
-5.49584339069e-05
-2.74846207635e-05
0.0125402907271
-0.0125380850816
-5.42833014987e-05
0.0125315845935
6.16791422585e-05
-6.44847769762e-05
0.0289988245073
2.30175193155e-05
1.12536615897e-05
2.42884295794e-05
-0.00246486281377
0.0052548819917
-0.00119346971697
-2.9205670748e-05
3.38046443898e-06
4.90175753354e-06
1.80500573493e-06
-3.42823052235e-06
0.0263143526251
0.0091767164428
-0.0278404052367
-0.0016634527697
0.0033221046269
-0.0049425218141
0.00249824826043
-0.00539522543985
0.00242071774667
9.67136820815e-05
-0.00112520954714
7.41571069673e-06
-5.74072318105e-06
-3.56485242919e-06
-0.00427419880834
0.00657394801898
0.000754920528933
-0.00818263217072
0.00164602953934
-4.26625518994e-06
0.0125949023244
-4.89301997835e-06
-0.0125900575431
-0.0125938311134
-1.85512594301e-05
6.26405504219e-06
0.0125939872336
-1.63011620831e-05
2.02112815768e-05
1.6967517844e-05
0.0124651949715
1.67450064066e-06
2.38839493282e-05
0.0124587959446
-0.0124534356314
4.05766878873e-05
-0.0125899068706
-1.21180756495e-05
0.0124604279475
3.48356997035e-05
0.012598809397
-2.6352815023e-06
0.0125928036151
-1.35008514206e-05
1.15813104702e-05
-2.29469920503e-05
-1.63089015458e-05
-0.012599236128
0.0125962843302
6.73808265425e-06
1.73888885543e-05
1.34129109449e-05
-2.06901335244e-06
5.96031968947e-06
-0.01245751147
0.0124536316214
2.8233130974e-05
0.012588170979
-2.96785180578e-05
3.09102496076e-05
1.57918475787e-06
-0.0125788223059
-3.47487218033e-06
3.00728501215e-05
0.0125705154815
-4.2692320861e-05
-2.18303211619e-05
0.0125888438472
1.46462204354e-05
2.15337185871e-05
1.13812701787e-05
0.0124335876913
-1.53575945382e-05
3.72669761912e-06
0.0124411388857
2.44181615625e-05
-3.57044674374e-05
0.012430993898
2.44668841139e-05
0.0125788173758
2.55303270283e-05
-2.57682199849e-05
-0.0125660479846
0.0125582022229
4.26446030151e-05
2.24142863069e-05
-0.0124162909677
0.0123980394167
-1.29430045502e-05
-0.0124165093103
2.89263209548e-05
0.0123983941585
-1.04846699233e-05
3.8243224057e-05
-4.89647702491e-05
2.16109541307e-05
1.57954888309e-05
-1.33860224516e-05
2.77941106705e-05
3.41933104394e-05
-1.66441752309e-05
-0.0125503568524
0.0125467902596
-5.21199752255e-05
3.35530564848e-05
-0.0124167874387
0.0124010812912
-0.0124210152774
0.0124067229322
3.6001942345e-05
-4.77600286696e-05
-6.14126296248e-06
-0.0125645540064
9.924486706e-06
-3.09768550027e-05
-0.0124298456426
3.15815918155e-05
-0.0125571663581
-4.77232963025e-05
-0.0124296877088
-0.00148228950559
0.00192320253697
-2.10393101496e-07
1.96990903992e-05
2.04083972563e-05
1.03658300674e-05
0.0338253646865
-0.0352408446188
0.000924161602913
-0.00254754460218
0.00818023615729
0.00210724542312
-0.00833889923924
0.0314080669631
-0.0019826529672
1.93688401662e-05
1.36857464395e-06
1.25381524932e-05
0.00428029392534
-0.00274066763583
-0.0310189678586
-0.000581132863888
1.93464521331e-05
2.95492570712e-05
1.63656888543e-05
0.0312854749215
0.00253881990071
0.0052363889763
-0.00346052868462
-0.00688181943384
0.00376956203391
-0.00145448920179
0.00317909026122
0.00247328492473
0.022424298745
1.04173266747e-05
7.37911570836e-06
1.09349170456e-05
2.06568989957e-05
0.00949872276331
-0.00324140225384
0.00280195299784
0.00529462625899
9.1709157911e-05
-0.000432279433517
0.00479387982828
-0.00799607436809
3.09591443896e-05
5.10649093277e-05
6.21140174493e-05
4.59327114313e-05
0.0158871789987
0.00954757796747
-0.0035940835475
0.00265561158094
0.00562068619463
0.00449726410124
6.8245071796e-05
6.99244600584e-05
5.83331278795e-05
0.0164444529061
-0.00704023955592
-0.00173160953278
-0.00057792587239
-5.8906297806e-05
-0.0126045739197
1.70850077552e-05
0.0126044032328
4.6369018254e-05
0.012624859143
7.8416226209e-05
-8.71512321137e-05
-0.0126248412206
5.65627535382e-06
-3.0735897166e-05
0.0124761513371
2.99780088593e-05
-2.92114450174e-05
0.0124503370071
-0.0124302749489
-5.74072848549e-06
0.0126232521889
-6.6050732191e-05
-0.0126060807
6.15703034464e-05
0.0124671404761
-1.79711108714e-05
-4.19737837751e-05
0.0126058951932
-1.82769092876e-06
3.25179844663e-05
-0.0126225856346
2.57787804995e-05
-2.80905872539e-05
0.0126254789189
2.00475289313e-05
-4.14576380523e-05
3.72267971548e-05
2.11936090487e-05
-0.0124720547607
-4.28301901014e-05
0.0124740295663
-4.58926239829e-05
2.17207254993e-05
0.0126107188011
-3.17863472136e-05
0.0124542937942
8.9178516677e-06
1.09844075434e-05
-0.0124479573088
-7.08754851516e-06
2.16710111518e-05
0.01245756713
1.77717221382e-06
-1.54261218205e-05
0.0125911559866
8.77067177477e-06
0.0125950943593
1.85357117781e-05
-0.0125919169232
-3.0989852022e-06
-0.0124655484151
0.012467900363
0.0125990775188
-0.0124595783465
-4.30463447368e-05
0.0125488304838
4.88075968975e-05
2.45720925484e-05
0.0123743132053
-1.27186315468e-05
0.0123798327244
3.34907139657e-05
5.42936386106e-05
-5.27901993052e-05
0.0125453707455
-6.19206113552e-05
6.32246049804e-05
2.71339856545e-05
0.0123479872627
-1.34393643174e-05
0.0125483667322
5.47774497589e-05
0.0123525052721
3.52574867555e-05
5.82018703372e-05
0.0125433293647
-6.81162522996e-05
-6.59352039653e-05
-0.0125470154696
-6.50548908619e-05
0.0125551106151
6.35537672354e-05
7.70514695434e-05
2.6980802138e-05
-1.64962247445e-05
9.28922074911e-05
-0.0123363689815
3.24649790301e-05
0.0123111719059
5.73563093904e-05
-7.32614116391e-05
0.0125525313386
3.32224520572e-05
-0.0125391823498
-3.90853547778e-05
5.8669490368e-05
-6.00526730285e-05
-2.81600757895e-05
-5.55514189729e-05
3.7553620983e-05
0.0123798824939
0.0123835968267
3.98238898832e-05
-4.05106110594e-05
0.0123537222243
4.21790111934e-05
-4.32141934398e-05
0.0125393853945
0.012351899637
0.0123292024131
-3.71330901363e-05
3.79867127715e-05
8.00499869509e-05
-3.59427761054e-05
0.012299278779
3.70626342447e-05
6.97954267269e-05
0.0125401359871
-6.9256157193e-05
0.0125369849779
-6.29063249881e-05
8.41488553234e-05
-0.0123308031223
0.0123051776867
0.012544887357
-0.00034878706833
-0.000257539723711
-0.000310729403418
0.00143061836262
0.201679102679
-0.000393373868539
-0.00112490754444
-0.000311319968432
-0.000116072574723
-0.000106816953321
-0.000125234841665
-0.00010153907862
0.000328306614713
0.0503752981006
0.000114645031756
0.00731301614977
0.00499956129055
0.000121794875942
8.60372241283e-05
0.000104979169425
-0.00630379530499
0.010008300694
-0.000372456319201
-0.000624348465624
-0.000342407248858
0.0121292970107
0.033970379195
0.000218426517272
0.0165637240032
-1.9706737505e-05
-8.18124587366e-06
-1.38122710841e-05
-1.30516052585e-05
6.67516719045e-05
-1.48267654328e-05
0.0504302416228
-3.55709832895e-05
7.03541509463e-06
3.08142994553e-05
0.0124568604202
0.0503690922107
-0.000102031393027
-8.52465533808e-05
-8.446446113e-05
-0.000102743896326
-0.000293823633736
0.0504690691628
-0.000103930773489
-0.00011645482307
-0.000115550452545
-0.000103848534967
0.000320398732531
-0.000291314821147
0.000116141288187
0.0122988232652
2.67243985668e-05
-2.0157132722e-05
-9.00132339535e-05
9.98923855364e-05
-2.33354401796e-05
0.0122861955408
2.68121307208e-05
0.0122550682546
-0.000152685709677
0.00015162781516
-1.44260544531e-05
-0.0122633322685
2.45058392289e-05
0.0505383018343
-9.42534542033e-05
-0.000102086412989
-0.000100397376208
-9.28740428479e-05
0.000279892473098
0.000318046477897
-0.000277572108767
-7.3988006303e-05
-5.08898619882e-05
-5.17001071522e-05
-7.1172310773e-05
0.000205783362194
0.000317404351507
0.0505343414673
-0.000271641664988
-0.000141488321123
0.000141531696925
-1.82410205545e-05
0.0122473031396
2.61156856102e-05
-6.06567993259e-05
4.84110661623e-05
-1.75379512595e-05
-0.012230026015
0.012228567636
3.15909630014e-05
3.15154384833e-05
5.50352050603e-05
4.02233666158e-05
0.00105366701541
0.0318153174167
-0.000141926951944
0.00842702345779
0.00559127574766
7.92169542118e-05
0.000115316726178
0.000109939726168
0.0087873390935
0.0052272400457
0.00133187448808
0.000140525140825
0.000144350828363
0.000132466676999
-0.00650007008063
0.00779905696252
0.00131301298987
0.00237409404824
-0.000794528270363
0.00352032111577
0.00544393974906
0.00059516886777
0.00321993048702
0.00465050554967
-0.00387433018568
0.000141033624579
0.000123392213893
0.000128827102437
-0.00660842064486
0.00372928750463
0.00755112151583
6.24192267962e-05
9.52934975085e-05
0.000103386589813
-0.00690501823121
0.00136551661083
-0.00584497037802
0.00718914839001
-0.0126015207975
-2.76608756904e-05
2.56486867386e-06
-1.93701908406e-07
0.0126071105093
-8.82651751054e-06
0.012594027509
1.40834756912e-05
0.0124630273598
5.30503492357e-05
3.43774459449e-05
1.95475715419e-05
0.0124596979462
-1.09607272746e-05
5.7095577587e-05
0.0124529749827
0.0126005146097
7.75811434709e-05
-0.0125624990287
-0.000125432890368
-8.49102582837e-05
0.0125791970549
0.012568504273
-6.99875437075e-05
6.59603218754e-05
0.000134168874887
2.3948861399e-05
-2.13071969746e-05
0.0122838518789
0.000101650343294
0.0122989658592
2.33863048937e-05
7.03129448448e-05
0.0125848086893
-7.97311307679e-05
2.11580230201e-05
0.0122812978402
-0.0125541477594
-0.000126295912381
-7.97122206206e-05
0.0125732649382
7.66822439156e-05
0.0125507475446
-7.26142740029e-05
9.6682258641e-05
0.0122876305156
-2.36189115835e-05
0.00013146355122
0.0122666891778
2.71979289338e-05
0.012268703466
0.0125729096868
-7.29923400933e-05
0.012597150917
-0.000135095087336
-8.204054215e-05
8.93458996994e-05
7.93020426174e-05
-0.0126007388012
0.01262393817
-6.708380852e-05
0.000148188536857
-0.012263346542
0.0122501165644
-8.80345853597e-06
-1.66392104337e-05
0.00014073763318
2.38409010837e-05
0.0126193113447
8.99715328055e-05
-1.37723290824e-05
-7.27855363648e-05
-0.0126450320254
-0.000126921547001
-7.1579526052e-05
0.0126611975751
8.80805116148e-05
7.64046872958e-05
0.0126504602835
-6.33574305952e-05
0.000139282237727
0.0122440117297
-1.03848610948e-05
-1.4874188607e-05
0.000121998512409
0.0122367452875
2.68475952932e-05
8.97172481104e-05
0.0122347719607
-3.73923180036e-06
0.0126658598132
-5.77095831006e-05
0.0126676048191
-9.88393967285e-05
-6.39039960327e-05
8.24259353954e-05
6.34002402693e-05
-0.0126696145806
0.0126528493918
-4.90333736547e-05
5.16427486987e-05
-0.0122281858609
-4.50839632319e-06
0.0122260110801
-1.89738755643e-05
8.84563489318e-05
3.22538999255e-05
7.84653905538e-05
0.0126525382417
-7.84235281227e-06
-5.02978584093e-05
-0.000473369446784
-0.0490448235941
0.0490098581275
0.000586712362614
-2.3097889894e-05
2.61728304648e-06
-1.81026884994e-05
-4.73433213618e-06
-3.54911319156e-05
-0.000651472125781
0.0495060631328
-4.34554329108e-05
-2.55375073013e-05
-4.78386464849e-05
-2.42869941478e-05
9.41534955301e-05
-0.0494413817564
0.000633750847962
-0.000986595236412
-0.0496739260234
0.0499460188414
0.000865994770857
-7.43419074351e-05
-8.037353832e-05
-7.61716471934e-05
-8.34104474389e-05
0.000162807656772
-0.000774751387127
-4.60104488015e-05
-5.52763357328e-05
-5.14734004225e-05
-5.58765593827e-05
0.000142859873878
0.0500416719821
0.000692487096037
-0.0498936286016
2.40093998269e-05
-0.00847862351171
-0.0431016741057
0.0362981574211
0.00790628227563
0.00723394404707
3.93246651298e-05
2.15012341265e-05
4.98946898705e-05
8.78243596641e-06
-0.0284575704515
0.0230014282309
0.00740210382717
0.0050189367761
7.99102567683e-06
4.17479392613e-05
7.54844292805e-06
-0.00703881182614
2.56047312437e-05
-0.00479467289378
0.0363561794833
0.00992617796802
5.53894013526e-05
1.13664989785e-05
3.91189753813e-05
-0.0420257517196
0.000406282192403
0.000111084807114
-0.00454056204699
-0.0286342959277
0.0239041603857
-0.00112119387199
0.00993338904975
0.000108009539391
0.000131956033818
0.000107666654012
3.80626622355e-05
0.00694967185604
5.82097424807e-05
6.47256093158e-05
2.79682541742e-05
0.0248101450778
-0.0109064779697
0.00712279369528
-0.0281650200582
0.0580794607971
-0.0231601758374
0.00101178849506
-0.00612407060132
-0.00446618375986
-0.00697095214662
0.00426771241617
-0.023512984459
-0.0215716408903
-0.0124159237676
-0.00655969121173
-0.0127659484885
-0.00653822662848
0.0106565475675
-0.000183162320462
0.0519473879044
-0.00433569390383
-0.00365826811121
-0.00463501745051
-0.00545287633494
-0.00708099827492
-0.0130459415236
-0.00230996895648
-0.0099490005939
-0.0059840008832
-0.0118102936182
-0.00881869062558
0.0153266338804
0.0602841850105
-0.00513560200201
-0.00899267383028
-0.00842370599186
-0.0134326375245
0.010423166098
-0.00443469854182
-0.0146329564108
-0.0110222496582
-0.014128184608
-0.0107830614744
0.0307162206397
0.014259270075
0.000128759807253
6.644294482e-05
6.69547260174e-05
6.46691540271e-05
7.18851266287e-05
0.0487672046043
-0.000112112831827
-2.80323475306e-06
-0.049051069834
0.0488141640335
0.000283696924854
6.41826669445e-05
4.47316065737e-05
5.93938639929e-05
5.56449339865e-05
-0.000109468833114
-0.0490837563984
7.25385444873e-05
-8.55200234902e-05
-0.012323445038
2.08367286407e-05
0.0123111017464
4.79405667507e-06
0.0123202263731
7.73735433479e-05
2.97856769144e-05
-3.43401844868e-05
-6.05180802805e-05
-0.0123322285909
3.27466112764e-05
3.55644886742e-05
5.58293025726e-05
8.79490722374e-06
-0.000232579919322
0.0121934195744
0.0121594205751
0.0120861961271
0.012153765989
-0.000152493584895
8.72946730392e-05
-1.04206171476e-05
-1.28002779052e-05
-6.56532134542e-05
0.0123219878854
0.000403694608768
2.74989782505e-05
1.76968737551e-05
3.73634167432e-05
4.66295187123e-06
-7.61756640199e-05
-0.0491759234479
0.0492437645328
1.25929316016e-05
-9.28934801988e-06
-6.52939863614e-06
5.25340783291e-06
-4.60025239695e-05
-0.0493044467441
0.000508221899228
0.0123304364416
5.48324960103e-06
-8.35412545442e-06
-0.0123391504739
8.89296550193e-05
0.0123521285109
-1.36793464637e-05
2.75047598365e-05
-9.42657014287e-05
-0.012364202835
9.27463018912e-05
0.000858624904371
-1.00726187642e-05
-3.44844636198e-06
-2.84621212041e-06
-1.67875253375e-05
0.0490559157929
-0.000191964338484
-0.000158290788343
-0.00019414363979
-0.000157224884721
-5.18941982704e-05
-3.84450592806e-05
-4.46553271492e-05
-3.50633901469e-05
0.049254005415
-3.8719821661e-05
-2.00732475859e-05
-1.71642525098e-05
-4.09607593327e-05
4.16287776905e-05
0.0494776963968
0.000803138397493
-4.25342885142e-05
-5.80810119188e-05
-5.69918200331e-05
-4.52013517688e-05
3.43381431129e-05
1.02731126541e-05
0.0123322468563
9.9448038781e-05
0.0123334333658
-3.00359499166e-05
2.18757739413e-05
-0.0123293389366
0.00012285671579
-0.000118696041843
0.000101136999284
-3.90476638925e-05
4.07915564333e-05
-0.000102442424784
0.0123518337954
0.0123684076868
0.000118690827164
-0.00010886861217
9.87403788006e-05
-0.000121555275808
-0.0123554357542
0.0497632315459
-3.14541464952e-05
-5.22896181642e-05
-4.29589616406e-05
-4.37563604203e-05
-0.00109192458396
-9.80432370415e-06
0.00113070975709
-1.99852214341e-05
-1.10987106985e-05
-3.39101528932e-05
4.0418426711e-07
0.0503065300521
-0.000152270115677
-0.00145737242153
7.25135909879e-06
0.0123393156272
0.000136053858475
-0.000140382800713
3.15188086923e-05
-5.20452969551e-05
-0.0123670204287
0.000185651261992
0.0124001377767
-0.00019819558642
0.000125165965163
-8.90587624936e-05
8.45127918845e-05
-0.000133953801248
0.012381962515
0.000146770762844
-3.63843770433e-05
2.95636303059e-05
-0.00016293959677
-0.0124167184658
0.0124398808924
0.000754404639327
-5.75483554567e-05
-7.79986992976e-05
-5.92818018987e-05
-7.75608457638e-05
0.000153390000111
0.0498076999246
-5.33197731087e-05
-7.06317079059e-05
-7.25263635323e-05
-5.49594139136e-05
0.000161617418747
-0.0496510339825
0.000687574330817
3.51034922043e-05
0.0123603221308
9.46491163453e-05
-0.0123634480239
0.0123757254244
-0.000116658551449
0.000112913153574
-0.0123653709997
0.000112262122019
0.0124000465159
-9.603976589e-05
9.66136980885e-05
-9.37828425036e-05
-0.0123905679454
8.38248018671e-05
0.000960557218778
-6.43524638159e-05
-4.37225032438e-05
-6.56435627099e-05
-4.96153961221e-05
0.0502349023349
0.000104712277922
0.0500073732167
-6.84851999811e-05
-7.21344004257e-05
-7.49081917301e-05
-6.56051377251e-05
0.000172813107658
-6.15698409525e-05
-4.65562840441e-05
-6.359520618e-05
-4.96575186205e-05
0.0502078391043
0.00081445379331
0.000167115176287
0.000104646637685
0.0123910027293
0.00011676437542
-4.95196859147e-05
4.53022883749e-05
-0.012426826347
0.000130824837736
0.0124473522964
9.00885410662e-05
-6.5803883767e-05
8.28387322521e-05
-0.000108016043597
0.0124010813073
9.4058297458e-05
-4.67526880554e-05
4.70467903189e-05
-0.000106946380138
-0.0124292317471
0.0124419722206
6.34508903002e-05
0.012406312967
6.85622080331e-05
-0.0124097579209
4.09607271534e-05
-0.0124322970774
0.0124436038701
-3.55687374646e-05
7.77287318955e-05
0.00509052330288
-7.77242938989e-05
-7.99942430996e-05
-7.3922421893e-05
0.0449982971698
0.000209573407059
-0.0439086566371
-0.00608545610147
0.0450187322004
0.00877078008572
-6.28830935279e-05
-6.39755414485e-05
-6.76063699514e-05
-0.0456463499757
-0.00282946869
0.00527724626008
-1.61398792895e-05
3.67332269461e-05
7.62306425539e-06
-0.00704460796452
0.038267024223
0.0183629806519
0.000922294091417
0.00038254178713
-0.00287281319361
-0.015801593224
6.26111036331e-05
0.0207436085408
-0.00658358752557
-0.00198336095684
0.0208013856522
3.83490551225e-05
-0.0191422348544
0.0216167390771
-0.000427409682628
-0.00729682656567
0.0136155700764
3.57202630503e-05
-0.00436669949262
-0.000958911018715
0.000246667502175
0.00667089966005
0.000894372156937
-0.000759827282922
0.0137474179752
-0.000812168909842
-0.0040532673801
-0.000141059464719
0.00646911281679
0.00112556360088
0.00839858792125
-4.66726971066e-05
3.16329953232e-06
-2.10487726287e-05
0.00271085753388
-0.0453718183673
0.0422098679925
1.14426173997e-05
-1.11618890015e-05
-1.13879574499e-05
-0.0442434681042
0.00534666193149
0.00508227789095
0.00794487960622
0.00745400016279
4.8728942464e-05
5.74459805536e-05
6.48994873972e-05
-0.0077667321014
0.035610843279
0.00950188201244
3.88175955782e-05
6.11584801702e-05
6.89365863196e-05
0.00996376676052
0.0280899669414
0.00511236740915
8.84738802127e-05
9.54837447262e-05
9.69562559832e-05
0.0203177673363
0.00111326684828
-0.0178428886257
0.00136354802864
0.021313427493
0.018660504222
0.00148255572596
-0.0149906747272
0.0208951158363
0.00202195622163
0.00709496120264
0.00153227377932
-3.1663467363e-05
8.16167728984e-06
-2.89465888609e-06
0.0218054329332
-0.00737331087651
0.0234971828753
0.007157591928
8.51498069281e-05
8.45012511484e-05
4.23556858588e-05
0.00479208577883
0.00280446051938
3.1358506447e-05
7.13595132066e-05
1.00424004926e-05
0.0228480266272
0.0144805946728
0.00107400196274
0.00175951559014
0.0081470453853
0.0151599334984
0.00216585116058
0.00306006641588
0.00983030819439
-0.000310455313346
0.0127237964342
0.000103474661613
0.000107302219484
9.62255001427e-05
0.012491810451
0.0285393960347
0.000104040971173
9.32387582033e-05
8.80961341756e-05
-0.0358856550545
-0.00583769072462
0.0167626892784
-0.0115846104628
0.00108763154682
0.00147418628447
0.0210501830122
0.0239692816186
-0.0179583239147
-0.000467155425491
-0.00317149456558
0.00661187474347
9.87923645702e-05
7.31357689269e-05
4.59017707451e-05
0.0230042900436
0.0241952200516
0.00981088894734
0.000126334042573
7.62255677125e-05
9.56107104901e-05
0.00641453150864
6.81369769507e-05
8.99863473535e-05
3.5926882778e-05
0.0226690272671
-0.00829919160263
0.0167859402346
0.00174943267682
0.00260650748103
0.0128327181278
0.0217239728305
-0.000319279884666
0.0199558192466
3.75585676385e-06
0.0122339309439
8.95161717511e-05
-1.17625465269e-05
2.07423927776e-05
-0.0122660121099
1.07412532772e-05
-0.012236619132
0.012204553554
2.71782788716e-06
1.44283238142e-05
-9.5668197743e-05
9.51599863075e-06
-0.012329571126
-7.97549406329e-05
-0.0123285856069
4.07674482937e-05
0.0123086257702
2.67167423628e-05
0.0122028406727
3.60839930678e-05
-0.0123347947907
-2.62992112827e-06
-0.0122696201501
0.0122355614667
3.32174647881e-05
8.34747564913e-05
-0.0122673712248
-4.42352256825e-05
-0.012244143582
0.0122339227139
6.48668539826e-05
-6.38038615144e-05
-0.0123293458126
0.0123104813258
-6.75553373696e-05
-5.90674419503e-05
7.43677421083e-05
-0.0123440829079
0.0122136645687
5.00789414499e-05
-0.0122729049482
-0.0123366903266
-0.0122059994155
8.40658435554e-05
7.63148874375e-06
-5.17636871806e-05
0.0121988023777
-5.64120681512e-05
0.0122285122791
8.46045237132e-05
-3.94361172179e-05
0.0123092529178
-4.10127118831e-05
2.53844412392e-05
-7.97815352049e-05
9.78234081131e-05
0.0123150580784
-3.2257844655e-05
0.000115744975174
0.012231055443
-5.39808014499e-05
0.0122987467037
-6.21124963739e-05
0.0122815579363
2.22745540814e-05
7.97623226014e-05
-0.0122940002843
-0.0122625137383
7.79666803589e-05
0.0122587049172
-4.45852950889e-05
8.31051839145e-05
-0.012350046768
9.47621337466e-06
-0.0123498807396
9.31732304479e-05
0.0123392524924
-0.0122817304676
9.41784059675e-05
0.0122795017414
8.90060175921e-05
-0.0123547440889
0.0123010109176
9.65482315679e-05
7.68797719898e-06
-0.0123128613939
-0.000111881540524
-0.0123183226801
0.0123189863328
0.000129415661699
2.36231638556e-05
-0.0123597681634
0.012346824117
-3.7385772677e-07
-8.94778631757e-05
-0.0123712465749
8.56559761199e-05
0.0123004926891
-0.0123308715788
0.000114004812665
-0.0123640477528
-0.000128344775624
-0.0122813182392
-5.28076815973e-05
0.0122996278203
0.000139690473041
0.0122572478366
9.89213323427e-05
4.36409882888e-05
0.000104499385866
0.0123223314753
2.4257138676e-05
0.0123354773999
0.000100769221499
0.0122703013251
0.000116599996614
0.0123286697706
0.000107352155112
-0.000149748358476
0.0123257748716
-4.82718175498e-05
0.000161909095165
-0.0122936401531
0.000184102453452
0.0123129842641
-0.000185093741818
3.62921587276e-05
0.000110799634028
-0.000105804399545
5.27288988386e-05
-0.0123422873029
0.000124219729136
0.012346768975
-0.000139926789191
0.000192544019602
0.0123533753505
0.000114387108397
-0.0123060449729
0.000151268375194
-7.16134457946e-05
0.0123273047855
-0.000133068144279
0.0123244817437
0.000148338006217
3.9286385036e-05
0.0123441133373
7.67436290091e-05
-0.000112788526999
0.0123413329902
0.000107775256313
0.0123465866324
0.000165006392584
0.0123360791949
0.0123544727317
0.000167812076726
-7.56675929672e-05
-0.000190484355505
-0.0123760967014
0.0124101213681
0.00019717893654
8.71797590544e-05
-0.012352781356
0.0123577093986
8.69401332142e-05
-0.000118588075737
0.000113106546527
0.0123872260914
0.000180303919445
-0.000254839484568
-0.0123850006311
2.15197812156e-07
0.0124115528715
0.000255796133542
-2.80074202609e-05
0.0123422107004
0.000217562134703
-1.67540434924e-05
-0.00022278314715
-9.00237739783e-06
0.000156572941972
0.0123580999112
-0.000158572468703
3.28449787399e-05
0.0123612728542
0.000131554309599
0.0123781796372
-3.69474073822e-05
-0.000263398995096
0.000221591962905
-3.11521619635e-06
0.0123768327114
0.000147245090984
-0.000283169655993
3.15024030691e-06
0.0124652151639
0.000286367027681
-6.06230184147e-05
-0.012440592015
0.000299950575358
0.0125169127076
-0.00032112291543
-0.000107100957125
-3.5512789612e-05
0.000174246365192
-0.000179444109032
-0.0123836936533
-1.67264191852e-05
0.000182094294852
0.0124140915972
-0.000297053802446
-8.44234164364e-05
0.000166143237792
0.000305329783961
0.0125261671433
-8.29219659932e-05
-0.0124204271073
0.000231339342468
-3.33766654819e-05
0.0124464159887
-0.000212672663951
0.0124415236003
0.000213869707799
6.728185167e-05
0.0123740036184
7.0982197733e-05
-0.000136585309046
0.0124002773913
0.000131673466888
0.0124697364853
0.000230371494721
0.0123925860659
0.000254905900153
-2.42438103635e-05
0.0124817533564
-0.0125028443412
-0.000276875674694
0.000262304553515
0.0125359478263
-0.0123982401891
2.16191675826e-05
0.0124275046193
6.14112087614e-05
-0.000145880616243
0.000139240261544
0.000249137480493
0.012532130389
-0.000169394466702
-0.0123602477783
-6.31909630846e-05
0.012379644847
0.000169722200037
0.0123436207397
0.000154246955364
-0.012339962513
7.38661575806e-05
0.000101564255625
0.012348106347
2.91728593967e-05
0.0123633465941
-0.0123715094262
8.44624608385e-05
0.0123652810545
-0.0123569013822
0.000155669729276
0.0123507726613
8.99966632586e-05
-0.000184271130325
0.0124069566186
-8.42491519946e-05
0.00018364791988
-0.0123938823972
0.000196292563623
0.0124298523847
9.17833714397e-05
0.000107574761093
0.000114602600473
-0.0123748190499
0.000100447330782
0.0123791968904
0.000197919615667
0.0124425562336
9.57520251728e-05
0.0124228833692
0.000181606907864
-7.75436639786e-05
-0.0123965709425
-0.000198923634703
-0.0124391767022
0.0124685322756
0.000195535932697
0.000105719103433
-0.0123832920456
0.0123882396499
8.00985254129e-05
-8.26803790211e-05
-0.0123679904657
7.31200745925e-05
0.0124550917994
-0.0124128654408