/*--------------------------------*- C++ -*----------------------------------*\
| =========                 |                                                 |
| \\      /  F ield         | OpenFOAM: The Open Source CFD Toolbox           |
|  \\    /   O peration     | Version:  v1906                                 |
|   \\  /    A nd           | Web:      www.OpenFOAM.com                      |
|    \\/     M anipulation  |                                                 |
\*---------------------------------------------------------------------------*/
FoamFile
{
    version     2.0;
    format      ascii;
    class       volVectorField;
    location    "4.1";
    object      U;
}
// * * * * * * * * * * * * * * * * * * * * * * * * * * * * * * * * * * * * * //

dimensions      [0 1 -1 0 0 0 0];


internalField   nonuniform List<vector> 
28582
(
(0.807071264779 -0.00119200872019 -0.000315927183715)
(0.806795468042 -0.00324093394988 -0.00043620876622)
(0.806906595728 -0.00126926383902 -0.000896023282938)
(0.806716926917 -0.00318903248631 -0.0011531046739)
(0.806414009194 -0.00140053477914 -0.00134096148074)
(0.806305629762 -0.00355618033082 -0.00202639612821)
(0.806216319741 -0.000643994316564 -0.00193363883033)
(0.806181860539 -0.00254548393525 -0.00226185074939)
(0.512999909439 0.0443961431674 -0.00793052214558)
(0.424170794919 0.113554089377 -0.000552054904449)
(-0.075264511801 -0.0256959126077 0.0170146094511)
(0.806159556857 -0.00160115124232 -0.00183544714696)
(0.797364358386 0.00041939248174 6.7921141681e-05)
(0.797260546274 0.000947707299376 -0.000214591333139)
(0.805186928931 -0.00331441278908 -0.00275782535306)
(0.804372902615 -0.00351864790255 -0.0010621964438)
(0.796746457526 0.00136169447921 -0.000387995256681)
(0.803520106307 -0.00354345139314 -0.0019417244877)
(0.803300119693 -0.00346422633697 -0.00101529896969)
(0.808503372368 0.00174525392157 -0.000202698480675)
(0.80591825591 -0.00428886837669 -0.000451797344088)
(0.805426543371 -0.00451932191394 -0.000516594527963)
(0.808840461396 0.00196843087697 -0.000574352172694)
(0.805839781697 -0.00408101675204 -0.00156893620509)
(0.805542881472 -0.00443067381082 -0.00159456205494)
(0.808507075291 0.00216594486529 -0.000442980470065)
(0.805358382356 -0.00453798645605 -0.00319662838538)
(0.807733256694 0.00436462532123 -0.00124435816008)
(0.804832287247 -0.00402896266186 -0.00385137787813)
(0.384076650556 0.125967766411 -0.00285847572327)
(-0.00675487008015 0.0256111490362 0.0313653871953)
(-0.0355231101348 0.0464624368068 -0.0824467196154)
(0.808172378496 0.00239182098383 -0.00130869948204)
(0.806206719946 0.00154391501283 -3.48922487583e-05)
(0.797006366286 -0.00091951405589 0.000431610517202)
(0.798834827791 -0.00291562652874 -0.00115089201675)
(0.805461114254 0.00129469954565 0.00159954036593)
(0.804805973778 -0.00449522945772 -0.0056634465564)
(0.804152628078 -0.00421679730241 -0.00198549791221)
(0.804340106862 -0.00471808106199 -0.00341816052493)
(0.803289892387 -0.00379624984291 -0.00293995167883)
(0.788622553427 0.00156302043782 -0.00454515234103)
(0.802940756561 -0.00368384382832 -0.00214173529355)
(0.80240151483 -0.00404130443843 -0.00409153280286)
(0.473418112728 0.0666266199551 -0.00340560354014)
(0.431683513957 0.130802285065 0.00128527286247)
(0.0663340763914 0.0439329137269 0.000918674361784)
(0.0637567908404 0.00694925141043 0.0174110406491)
(0.451743582459 0.090634326209 -0.000182070166405)
(0.099658879993 0.00896668811067 -0.0297538310809)
(0.805885095796 0.000129901450283 -0.00114768820698)
(0.806031736763 -0.00106701420886 -0.00200101352452)
(0.797615055895 0.000417298147124 -0.000183132733922)
(0.797178531218 0.00222613935749 -0.000558955880651)
(0.805714347642 -0.000840646857565 -0.00209911376863)
(0.797431728321 0.00208767024714 -0.000464267954686)
(0.806282874685 8.09715109419e-05 -0.00154062474615)
(0.806064595112 -0.0013989145649 -0.00173075398509)
(0.8062279728 -0.000449108569358 -0.00143328145816)
(0.797661518258 0.000645304812868 -0.000184297876)
(0.79721364317 0.00156841636813 4.85044667144e-05)
(0.805796775582 -0.00178443850578 -0.00116473504869)
(0.797422732815 0.00180768098726 -0.000383572023707)
(0.806405873541 -0.000228199046751 -0.00152569665856)
(0.804759777421 -0.00264864612947 -0.000904335683856)
(0.805988395228 -0.000841046309634 -0.00158112900255)
(0.796035155141 0.00160704319987 -0.000411254810772)
(0.796645171245 0.0012975137828 0.000277715143168)
(0.80541086438 -0.00217123055595 -0.00107382450856)
(0.795975948054 0.00114514426584 0.000126586342205)
(0.805325853741 -0.00144886115199 -0.00133534589642)
(0.803837896084 -0.00255049585023 -0.00219119025263)
(0.794041706045 0.00155097832544 -0.00120987510696)
(0.794185696505 0.00118499521737 -0.00105227133068)
(0.804334861042 -0.00316636237718 -0.00148854920316)
(0.795276810392 0.00162719438846 -0.000552752376597)
(0.795065122483 0.00109671042369 -0.000335258566527)
(0.804909322557 -0.00201470423847 -0.0017634596526)
(0.803084275116 -0.00333180779735 -0.00131079959849)
(0.794240076519 0.00237377278213 -0.00127385108333)
(0.794648283506 0.00188930546763 -0.00136222709238)
(0.803923243633 -0.00308410140422 -0.000652287377304)
(0.79531051983 0.00160069702972 -0.000829273170333)
(0.803490263731 -0.00299993256514 -0.000923806574922)
(0.795097832274 0.00237895024021 -0.000559906977391)
(0.554888104674 -0.013460032409 -0.00559055409254)
(0.138877505972 0.055441292666 -0.0436162604244)
(0.4990322058 -0.0726365734826 -0.00552860003668)
(0.502527024292 -0.0466198019474 -0.00334504440609)
(0.0974778949701 0.0661728589691 -0.0413058189801)
(0.0741125032631 0.0253605565261 -0.0115715250098)
(0.396106408575 0.132730682454 0.00159775175072)
(0.042352549669 0.0864918996746 0.0689093837761)
(0.0184520372156 0.0113975065184 0.0844376550539)
(0.315497193404 0.12983648397 -0.00183602839911)
(0.04007902501 0.101568421284 0.129436289236)
(0.315304441441 0.117817404993 -0.00666795206515)
(-0.0178860099972 0.0122443383321 0.133153323005)
(0.806646007921 0.0033512415692 0.000920670130015)
(0.807895019513 0.00555987214265 -0.000193585069016)
(0.798160646247 -0.00176715619736 -2.74507188394e-05)
(0.796090560992 -0.000908759028499 0.0029006970386)
(0.808033084008 0.00424531734668 -0.000590253105584)
(0.806638411859 0.00451636536634 0.00156936488323)
(0.797391791823 -0.00183184057331 0.00181341427256)
(0.806815216314 0.00239763204327 -0.000523712077375)
(0.807968094487 0.00192803373974 -0.00187332177574)
(0.798703889224 -0.00241307871934 -0.000638070854789)
(0.798422617851 -0.00311270662937 -0.000335002335115)
(0.80795782232 0.00300836154555 -0.00162811309271)
(0.806980735917 0.00153583301685 -0.00166223583472)
(0.798179006087 -0.00260094577846 0.000537815938313)
(0.79701451894 0.000349216706888 0.00277472601717)
(0.797314539238 -0.000393147281385 0.00131626526233)
(0.805597449544 0.000805389930013 0.000198956942258)
(0.806012098457 0.00187108351401 0.00118375989003)
(0.798039917275 -0.0023843160953 0.000812446187963)
(0.806192142958 0.00116986245614 -3.71537031683e-05)
(0.797768307755 -0.00158621339889 0.00187337057722)
(0.803680675844 -0.00276567116041 -0.00328576063197)
(0.792775171774 0.00161831528508 -0.00179383204808)
(0.792874543261 0.00140076481184 -0.00152058370472)
(0.802814036962 -0.00405613528744 -0.00389249697652)
(0.791156482517 0.00146432357088 -0.00269783101055)
(0.803035887999 -0.00315357403699 -0.00452435925979)
(0.791606440982 0.00179059622357 -0.00240835614729)
(0.803061273293 -0.00432743760878 -0.00489438787339)
(0.803354312773 -0.00376546394448 -0.00726357104601)
(0.789531715604 0.00165504685372 -0.00321320649791)
(0.788938765867 0.00205365255884 -0.00401271956071)
(0.803360153478 -0.00333145172297 -0.00540069039374)
(0.80316475654 -0.00470290509429 -0.0065131978836)
(0.789760142757 0.00168284668176 -0.00288033469393)
(0.802438819842 -0.00375927061471 -0.00294740012601)
(0.802780090143 -0.00353144410653 -0.00230084693464)
(0.793009726979 0.00265671968455 -0.00182019955489)
(0.793302576997 0.00214515870302 -0.0019054979095)
(0.791510273302 0.00252269819199 -0.0023954934345)
(0.802502103723 -0.00397088747704 -0.00299663323322)
(0.791427259747 0.00260151730335 -0.00253605914558)
(0.78962456638 0.00224375995448 -0.00296423399508)
(0.788330724965 0.00230859463665 -0.00369353911404)
(0.802327263722 -0.00440230192889 -0.00532318677195)
(0.802628310398 -0.00411311846995 -0.00426232413757)
(0.788497405222 0.00218078823803 -0.0040156357746)
(0.802689461797 -0.00458720971707 -0.0055175751789)
(0.789688031972 0.00245559020841 -0.00314883300282)
(0.80597109875 -0.00485103167616 -0.00391130485447)
(0.805184000498 -0.00469658545631 -0.0066386063643)
(0.214561392616 0.10258427855 -0.00923959085973)
(0.0808794786931 0.0120145389359 -0.230382306244)
(0.806956131637 9.37730205283e-05 -0.00101642499387)
(0.797364072075 -0.000704484205326 0.000179770642729)
(0.804867216252 -0.00499158889022 -0.00467659093172)
(0.806946292194 -0.00507431935991 -0.005421987115)
(0.787306790185 0.0016573426126 -0.00523135524765)
(0.786709926444 0.00156545168537 -0.00449036860776)
(0.784753468796 0.00116639974506 -0.0073477354878)
(0.807468611254 -0.00498330038921 -0.00446063791065)
(0.808558352574 -0.00485039391986 -0.00250405562047)
(0.784288738401 0.00133352212567 -0.00740748068772)
(0.782406966113 0.00156482251679 -0.00452184109292)
(0.526906117009 -0.00757625256881 -0.00593697176371)
(0.198174173179 0.120518039146 -0.00647351218144)
(0.0867421712684 0.109925214876 -0.0107924698714)
(-0.0304156555922 -0.0436138390836 0.133935135172)
(0.055520130167 0.0855219381553 0.142869338255)
(0.0483844584606 0.0527247766114 0.135998682043)
(-0.0363040933537 0.112503211789 -0.00985252681056)
(-0.0791591970166 0.115408963662 -0.00353096219788)
(0.806792986808 8.58101310574e-05 -0.00186082894183)
(0.805966446933 0.000468337743488 -0.000593311359916)
(0.797883659003 -0.00309010797099 0.000119740387267)
(0.797401635432 -0.000759855088667 -0.000684681948029)
(0.806532861342 0.000583629732602 -0.00120906285314)
(0.797468209973 -0.00338278688098 -0.000665104255126)
(0.806336441586 0.000215909598696 -0.00109209541028)
(0.804530889817 -0.00543824922004 -0.00872883067289)
(0.804047351451 -0.00392904521176 -0.00789977503272)
(0.786820563417 0.00164304576261 -0.00613778172441)
(0.787563050265 0.00154425464428 -0.00438516275889)
(0.804995195537 -0.00429214989457 -0.00955433013953)
(0.803861884555 -0.00503939724132 -0.00705834920685)
(0.78675303728 0.00140666173992 -0.00548068890915)
(0.804067342512 -0.00521948378196 -0.00825640127298)
(0.803087703281 -0.00470894324834 -0.00628993106134)
(0.78698654896 0.00155250624068 -0.0044427242918)
(0.786174038961 0.00156817309891 -0.00573857866649)
(0.803360855218 -0.00497975214944 -0.00623949673096)
(0.786134651086 0.00146996336447 -0.00579791960105)
(0.803993712753 -0.0047650582191 -0.00854660886569)
(0.805190115873 -0.00542445662332 -0.00840722238201)
(0.807529611673 -0.00459698987401 -0.0097376213212)
(0.784633415867 0.000700124720725 -0.00722152332397)
(0.785219938517 0.00124208448717 -0.006732948574)
(0.807191014656 -0.00540928211371 -0.00960983064979)
(0.78520561332 0.000915055899719 -0.00657101605311)
(0.805242047165 -0.00484573935559 -0.00858313251629)
(0.809713659225 -0.00514989999951 -0.00805484913778)
(0.808330272947 -0.00441075423415 -0.00887880047159)
(0.784023333639 0.00087880304795 -0.0072534910604)
(0.783585053817 0.00128295418648 -0.00696313073463)
(0.808126634441 -0.00530864361372 -0.00872512726939)
(0.783421253892 0.000544596588941 -0.00701254330231)
(0.810054766905 -0.00409146363448 -0.00780459087803)
(0.809979285967 -0.00472509251664 -0.00685194719213)
(0.810180831349 -0.00355689444921 -0.00354610976909)
(0.782259581288 0.000636549068806 -0.00439928542969)
(0.782627693865 0.00157626466704 -0.00609525888473)
(0.810076473366 -0.00458828462675 -0.00391902535834)
(0.782530559169 0.000796539545589 -0.00641539808786)
(0.810227663119 -0.00359559812939 -0.00640958575332)
(0.78671683792 0.00832913345768 0.000460897790454)
(0.792498393012 0.0105516224975 -0.00182310696165)
(0.79637402292 0.0152834964633 -0.00336736707797)
(0.798826115295 0.011770016847 -0.00243428484503)
(0.660685398007 0.142969864828 -0.0020140364515)
(0.413146450818 0.123900207664 0.000580769495417)
(0.637025897026 0.0377999001613 -0.000205720897907)
(0.427444406434 0.0277672969997 -0.0099589436913)
(0.426276003763 -0.147590260864 -0.00159862423821)
(0.226889798609 -0.0820814933946 -0.00155906313706)
(0.160578110549 -0.0719434426949 0.411916855007)
(0.177353503487 -0.074962505837 -0.149545613712)
(0.164661817735 -0.0774450926404 0.202299119642)
(0.168345296232 0.042611268916 -0.141690514241)
(0.242724834895 0.0597677577725 0.240043954102)
(0.783900630956 0.000979013034036 0.00245645016881)
(0.78493441774 0.00294586484025 0.00235855625689)
(0.788472088023 0.00035945104797 0.0046370660859)
(0.789308664295 0.00457814011647 0.00215591974978)
(0.782066987475 0.00571025598002 0.00252116685953)
(0.78867046447 0.00483227127632 0.000594972609746)
(0.786438279971 0.00551457623893 0.00142390390009)
(0.789464207031 0.00732726128737 0.000742860987636)
(0.789673928394 0.0051900821864 0.000655009466984)
(0.791243903803 0.00607608618285 -0.0011902917756)
(0.78554505622 0.0132639047475 0.00241906729225)
(0.789734586462 0.010102885499 -0.000454122704525)
(0.791121320488 0.0134779772381 -0.0010447764393)
(0.789343106258 0.0060400415502 -0.000678251830673)
(0.789291052666 0.00754856720922 -0.00219530169649)
(0.790643243167 0.00653949451975 -0.00188322736669)
(0.790931484751 0.00795369419009 -0.00506543489766)
(0.793834635877 0.0179063127581 0.000299899502285)
(0.798421777846 0.0211025366352 0.00208721519112)
(0.789399838873 0.00891319075995 -0.00174794412124)
(0.792213169052 0.0123811732206 0.000479328478283)
(0.791824501025 0.00842329118213 -0.00502160437268)
(0.795381141243 0.0101565356239 -0.00267620150834)
(0.793857717598 0.013024870619 -0.00314842802892)
(0.795812699847 0.0118135429869 -0.00330592622043)
(0.791343440885 0.00614681290601 -0.00124845591936)
(0.791332824399 0.00723594245726 -0.00508680969171)
(0.79288949238 0.00568256631178 -0.00431184889731)
(0.799785205845 0.0168778234956 -0.00183502445718)
(0.797596919819 0.0131984477545 -0.00304575231665)
(0.8006091935 0.0142079562436 -0.00233150287082)
(0.792384987824 0.00770257294482 -0.00540643647759)
(0.795928019626 0.00878116565522 -0.00310093497632)
(0.793444956332 0.00633563748379 -0.00411784762693)
(0.79591197132 0.00652761878153 -0.00285304665488)
(0.794059176553 0.00504885650651 -0.00332444976247)
(0.79606386809 0.00542933609887 -0.00264994394967)
(0.710517652041 0.0368007685234 0.00361656297492)
(0.722692343018 0.121847054511 0.00197486135019)
(0.684317591051 0.140745470209 -0.00189586568643)
(0.269320572755 0.0235560873802 -0.0161030532087)
(0.34959195993 0.0126035201941 0.180638700475)
(0.352112338544 0.00753176244665 0.13881520716)
(0.347549614683 -0.00883698316853 0.203881635473)
(0.302907036556 0.0111392804845 0.141947187136)
(0.158668250625 0.0118211927272 -0.0220442570055)
(0.312173125337 -0.0100318505528 0.14577403356)
(0.15479165521 -0.0017695851048 -0.0304208822367)
(0.708097018225 0.148920266498 0.000555650298919)
(0.69003425179 0.11298674496 0.00113202095843)
(0.541447694089 0.131943474238 -0.00396993728684)
(0.639510745532 0.099707096165 -0.00231822241827)
(0.538008195486 0.109159386533 -0.00811589996683)
(0.31701396948 -0.00260177916596 0.190891698379)
(0.345933098965 -0.00132292095601 0.211318364802)
(0.273127186545 0.0308864124496 0.245569005022)
(0.33829362289 0.0386835657395 0.279864907663)
(0.331632000576 0.127389366113 0.0025775254469)
(0.413180974481 0.106116648901 -0.00603967857861)
(0.349481119081 0.0925115748825 -0.000787186629123)
(0.310669240325 -0.010777803322 0.173663360837)
(0.175491461983 -0.00272612816083 0.0616800345129)
(0.310478384316 0.0404267761215 0.225443999906)
(0.188998647764 0.0532111893867 0.145908146211)
(0.549205897074 0.036736657466 -0.00771975183139)
(0.54281712324 -0.046975871944 -0.00644826249047)
(0.210262402936 0.0123757832394 0.241404227213)
(0.341411911525 0.0251516153155 0.340289101561)
(0.374315593042 0.0190254716777 0.327727896147)
(0.357639652433 -0.00496250884102 -0.00410551986317)
(0.427921503812 -0.0662064755936 -0.00670682122109)
(0.363185368442 -0.0985152569212 -0.00343567330643)
(0.315492769568 0.0309459452488 0.289731845189)
(0.237805369136 0.0500400160122 0.19263588601)
(0.375532517343 0.0244039830991 0.278224041023)
(0.334540163249 0.0299698146595 0.185393964918)
(0.78428438236 0.000902470638961 0.00570287891113)
(0.782997186691 0.000272880851886 0.00561080013185)
(0.788832422363 1.27571137605e-06 0.00508260302937)
(0.788686895519 0.00222843369516 0.00444649922825)
(0.782754404234 0.00105668572788 0.00530918687514)
(0.789240024526 0.00173616339725 0.00474441530333)
(0.784292266283 0.000580774325409 0.00621787141872)
(0.784501918101 0.00172197397087 0.00553073889909)
(0.783767709785 0.00340751605922 0.00276908691478)
(0.78885245017 0.00310110975072 0.00391374015331)
(0.789662554785 0.00437731131537 0.00367420659593)
(0.783011693509 0.00226101937237 0.00449278425456)
(0.784870497289 0.00251372549262 0.0045792603056)
(0.789404522798 0.00302880134132 0.00434919155983)
(0.781714699048 0.00434144596613 0.00129202164977)
(0.783385745855 0.0043452051688 0.00156857505596)
(0.788097839907 0.00329255203012 0.00260769704109)
(0.788818254502 0.00575512559032 -0.00168803432613)
(0.782224095869 0.00276012308255 0.00343711321486)
(0.78342890872 0.00623982652873 -0.000677567206854)
(0.787762409707 0.00409723237649 0.000132372699976)
(0.786840574766 0.0043760101704 0.00184305815169)
(0.78511773878 0.00446394629935 0.000724150694559)
(0.790166166085 0.00509043237122 0.002646003171)
(0.790487099058 0.00598354616359 -0.000285061302401)
(0.785754053892 0.00361046578066 0.00312625957763)
(0.786287995278 0.00545607824911 -0.000396943928018)
(0.790451307055 0.00552342295399 0.00133207305383)
(0.788030233489 0.0056779993138 0.000834089447055)
(0.788669824323 0.00783425579488 -0.00147034302917)
(0.79086163516 0.00592952809421 -0.00100001098683)
(0.791478281943 0.00555894921885 -4.14302096535e-06)
(0.787584706461 0.00649883332349 -0.0011996799956)
(0.789189176713 0.00664533220632 0.000158682297095)
(0.791232629966 0.00571319550149 0.000367542535358)
(0.787003204969 0.00856657927281 -0.00292570151072)
(0.784826779992 0.00587342682861 -5.3165955864e-05)
(0.789378295123 0.00649305923184 -0.00229232689107)
(0.789792086491 0.00653897740563 -0.00113414081176)
(0.785454278962 0.00791286781036 -0.00235435467735)
(0.786385020029 0.00683047514878 -0.000953924004908)
(0.789682401793 0.00699935900657 -0.00262613835711)
(0.787900232923 0.00991843799585 -0.00238718301384)
(0.787586643107 0.0117407423525 -0.00144939505256)
(0.789298099718 0.00695549257184 -0.00258347735401)
(0.790095533933 0.00804801971927 -0.00369153549071)
(0.785999421161 0.00935362084352 -0.00164375923829)
(0.789721742863 0.0122335691404 -0.00305802015435)
(0.789745617224 0.00723831342284 -0.00319431113691)
(0.788613633097 0.00921654044692 -0.00418778385316)
(0.789027911672 0.00903865344836 -0.00211465192318)
(0.790343000543 0.00643691573427 -0.00181565616322)
(0.790618038524 0.00715105928659 -0.00348432905436)
(0.787850889362 0.00804311382387 -0.00190707606122)
(0.789706826005 0.0103346101981 -0.00445056776778)
(0.790115509882 0.00686211904799 -0.00332756954183)
(0.789600712346 0.0106655028199 -0.00415812068942)
(0.792961907576 0.0126841467327 -0.00588381789086)
(0.790752497445 0.00786134036511 -0.00481432490884)
(0.790580885687 0.0075799462087 -0.00423976079488)
(0.791704193762 0.0122727509227 -0.00557352528872)
(0.790964026214 0.0112883262026 -0.00475119378692)
(0.790219179532 0.00741407227627 -0.00432786024027)
(0.793449163487 0.0165258808411 0.00114250427625)
(0.788814130869 0.0143240283055 -2.0967273306e-05)
(0.790115567427 0.0101619113917 -0.00120851815623)
(0.790565757139 0.00865059498811 -0.00302185272864)
(0.791268105128 0.0167951747151 0.00187655756657)
(0.791196886853 0.014068013729 -0.00184635499598)
(0.791440889544 0.0101667833445 -0.00151387273471)
(0.795783636176 0.018321263052 0.000957465193547)
(0.797041548068 0.0202329863463 0.00520431762047)
(0.791244235238 0.0113628608118 0.000650939680564)
(0.793426349516 0.0118174781567 -0.00110884107175)
(0.793921037402 0.0188982981368 0.00295493488747)
(0.792029468832 0.0109866303612 -0.00116976233611)
(0.79859914934 0.0194643940799 0.00276805674993)
(0.795462277672 0.0155329536543 -0.00266043419915)
(0.794449652027 0.0137831102244 -0.00553363631127)
(0.791363349508 0.00843714712823 -0.00451783134161)
(0.792707254315 0.00867226852453 -0.0050759440412)
(0.793234357984 0.0139697349191 -0.00449277278697)
(0.796747871271 0.0150001648771 -0.0045782328934)
(0.792339144032 0.00883993228517 -0.0029929281482)
(0.797379584126 0.0172956324467 -0.00229874678774)
(0.80086348325 0.0174094461353 -0.00190116025325)
(0.794278665274 0.0110850301721 -0.0025263304305)
(0.794147049679 0.00926284432565 -0.0040184552018)
(0.798730914664 0.0162774248732 -0.00432894984657)
(0.793018285016 0.0099069674567 -0.0025381630042)
(0.799733765198 0.0186891106177 -0.000991457367014)
(0.791862864982 0.0109187500303 -0.00405943122856)
(0.790159144671 0.00978755438171 -0.00201575348701)
(0.791115208208 0.00669793902977 -0.00282051373789)
(0.791676560911 0.00584893841194 -0.000816603066803)
(0.790907012018 0.0107968566323 -0.0045321179354)
(0.791253931894 0.00993071232409 -0.00180493007921)
(0.791404005589 0.00628591709803 -0.00203219127062)
(0.792858700361 0.0118239374925 -0.00497543569612)
(0.794069797595 0.0127548329766 -0.00704089147784)
(0.791001419174 0.00706898444306 -0.0039511267982)
(0.791671017109 0.00687898322264 -0.0049707346624)
(0.792056307924 0.0119164888641 -0.00526401212783)
(0.794928419375 0.0127748331475 -0.00707922211161)
(0.791158400322 0.00664405898495 -0.00346084797154)
(0.793897867454 0.0117424503289 -0.00446204162409)
(0.796787675298 0.0126563152034 -0.00605854019309)
(0.79217347499 0.00629289103186 -0.00459421369251)
(0.792309215318 0.00501800369751 -0.00329367993473)
(0.795893437915 0.0127234735016 -0.00645460785617)
(0.794895778339 0.0116274181329 -0.0046535488086)
(0.791812492669 0.00567077390376 -0.00317946585484)
(0.798757428377 0.0144000560231 -0.00614878969857)
(0.795697343215 0.0137794002507 -0.00683198649308)
(0.79336062616 0.00823347242247 -0.00557877377789)
(0.792777233059 0.00733389144396 -0.00553110977088)
(0.797852347641 0.0147754710993 -0.00636349491889)
(0.796661115155 0.0135367626373 -0.00764031268339)
(0.793996440368 0.00788131132044 -0.00482940777632)
(0.800306605737 0.014908870817 -0.00540787232047)
(0.801656382849 0.0162136416248 -0.00337603210114)
(0.794794954109 0.0087928015899 -0.00460495993422)
(0.795407938641 0.00792614797125 -0.00381075561764)
(0.799828543604 0.0157800275838 -0.00584934054526)
(0.79472377322 0.00813795051983 -0.00396115010932)
(0.801611158663 0.0151678442806 -0.00424681022282)
(0.799364620788 0.0138444084609 -0.00559471156464)
(0.798016429632 0.0133369608721 -0.00583630962956)
(0.793274027847 0.00685182279525 -0.00535520758782)
(0.794017179952 0.00640945585625 -0.00437485410899)
(0.797408500936 0.0136465980865 -0.00686803810129)
(0.799388384048 0.0136684892895 -0.00528006812091)
(0.794296541431 0.00690497730107 -0.00459000624151)
(0.800710031106 0.0141585888626 -0.00482859987503)
(0.802176535125 0.0139247132511 -0.00343403611539)
(0.795487194008 0.00715819172485 -0.00373989200089)
(0.794951685634 0.00617924841145 -0.00397687014626)
(0.800862088317 0.0137126730917 -0.00528512011208)
(0.794872719779 0.00678550114547 -0.00364277746446)
(0.801835798798 0.0145177007664 -0.00387833352168)
(0.800129619979 0.0124036577046 -0.00316316344638)
(0.798594597786 0.012689323102 -0.00443671245135)
(0.794423263956 0.00559932001029 -0.00350126410303)
(0.794175299909 0.00418415685507 -0.00309576294764)
(0.799781206337 0.0132489961472 -0.00401456253452)
(0.799102929679 0.0120386728474 -0.00429042644297)
(0.794851740792 0.0046134171568 -0.0023868572699)
(0.802065093028 0.0131629041851 -0.00284017745005)
(0.795168894053 0.00583092671031 -0.00344085508734)
(0.800917947358 0.0133651059686 -0.00412552374327)
(0.809492460396 -0.00208325674735 -0.000293146425323)
(0.808343136339 -0.00504693542955 -0.000556667699145)
(0.806596966157 -0.00593530633627 -0.000787132503328)
(0.805202009792 -0.00455825416577 -0.000436742694322)
(0.804670641149 -0.00425422998874 -0.00029752084787)
(0.804195245868 -0.0152801821166 -0.000260594799299)
(0.809120696333 -0.00208283434188 -0.00079296089176)
(0.807923180258 -0.00535289690817 -0.00100917944908)
(0.806419361618 -0.00643083837106 -0.00152978112777)
(0.805458155624 -0.00450507935731 -0.00119464146728)
(0.804852548575 -0.00424006940544 0.000226250236385)
(0.804371347193 -0.0152147857396 0.000995755789811)
(0.818113639133 0.00506053379024 -0.000124495469835)
(0.815291283276 0.00384330183878 0.00171215367101)
(0.793802006268 -0.000690137168639 0.0118928760608)
(0.788393913846 -0.0049833797283 0.0141450044437)
(0.788114072831 -0.00658035021029 0.0133297874989)
(0.788702911722 -0.00588389786177 0.00878258105727)
(0.796250373715 -0.00323709637287 0.00357091766602)
(0.786879470517 -0.00653751725617 0.002199332956)
(0.825384744632 0.000858798457245 0.000159723765533)
(0.820747706658 -0.00310525958109 6.45940420836e-06)
(0.81652687472 -0.0153671493347 0.00284438184224)
(0.807573745376 -0.0187001182205 0.00364228580026)
(0.803280867175 -0.0153281043913 0.00295319150818)
(0.79948500675 -0.0114537310533 0.00161911328414)
(0.801054474523 -0.00659627764922 0.000780879730846)
(0.793311087088 -0.016134954329 0.000658007645077)
(0.817821453629 0.000293464191857 -0.000625425857344)
(0.817921523098 -0.00508240473997 -0.000140962232749)
(0.813766290231 -0.00936822688961 0.000368029165875)
(0.808042846783 -0.0100095221062 0.000803674418669)
(0.804802627602 -0.00941459532297 0.000991169923524)
(0.802315289998 -0.00772729764661 0.000529755576072)
(0.802706934722 -0.00531000959319 0.000245722735479)
(0.797553388873 -0.0170966436365 0.000284754445039)
(0.813051790185 0.00216104891607 -0.000602105949061)
(0.813691636496 -0.00287664816093 -0.000341737164911)
(0.810783951655 -0.00701343053134 -2.93211311722e-05)
(0.806982105508 -0.00854636401245 -3.0060240848e-05)
(0.805349825124 -0.00876532943632 1.22000186542e-05)
(0.803889025932 -0.00780852971807 -0.000112401745315)
(0.803828507192 -0.00570972267895 -6.42496479505e-05)
(0.800953940848 -0.0188065472726 4.44744250932e-05)
(0.805702348034 -0.00616121292277 -0.000692941729312)
(0.804969883891 -0.00584106393373 -0.00061962582505)
(0.804489312409 -0.00479403751352 -0.000349105300937)
(0.803133480045 -0.0170494420639 -0.000228932366771)
(0.641572905104 0.0406743130274 0.0106747648354)
(0.640888960851 0.0401394937996 0.0181983421637)
(0.665979905926 0.0123267925338 0.0317378454743)
(0.703574368209 -0.00560566416141 0.0252815349919)
(0.741610748635 -0.0097183531789 0.014620894716)
(0.764763910803 -0.00823882549561 0.00752227724174)
(0.789059411475 -0.00446823432228 0.00444210311175)
(0.779762941124 -0.00879976674043 0.0042034641724)
(0.775951411034 0.00903140709093 0.00660953923145)
(0.775009006129 0.000526370797587 0.00981608943347)
(0.786638611092 -0.0193650506187 0.0139861664013)
(0.78970199761 -0.0258451610354 0.01018288052)
(0.793076812107 -0.0240290434123 0.00709054497428)
(0.793868227237 -0.0171882447856 0.00352361909623)
(0.799684923681 -0.00884079155933 0.00286745031319)
(0.792162508956 -0.01892848667 0.0031834007701)
(0.818905288043 0.00245527475043 -0.000750977535151)
(0.81791262651 -0.00538520928682 -0.000718188380309)
(0.814473352594 -0.0110456342401 -3.29320733781e-05)
(0.808800431216 -0.0124310756266 -0.000120983268804)
(0.805226244268 -0.0116768900403 1.45224054262e-06)
(0.802236331517 -0.00916392688124 -0.00027853725543)
(0.802820702182 -0.00625634572469 0.00116499187355)
(0.797578722979 -0.0183020896724 0.00211579102253)
(0.813223509154 0.00111775324459 -0.00106681266312)
(0.813831475664 -0.00324287845806 -0.00100817997528)
(0.811010581754 -0.00633254786504 -0.000709624634733)
(0.807122746265 -0.00774493094638 -0.00100341163564)
(0.805206283768 -0.00820982049267 -0.00100597045105)
(0.80418707695 -0.00726858527571 -0.000797835336555)
(0.804094042113 -0.00583067536329 0.000903265136779)
(0.8010181578 -0.0192562602326 0.00182503725923)
(0.805788159713 -0.00651662949149 -0.00145836013035)
(0.805452637036 -0.00606548601908 -0.00106808203513)
(0.804896773442 -0.00513377171246 0.000558755392822)
(0.803608502474 -0.0175867961039 0.00136692954915)
(0.634047095289 -0.0162274256883 0.0178921339871)
(0.630884439468 -0.0190336628054 0.0278579095609)
(0.655712200873 -0.0345611097726 0.0211287698645)
(0.693281845447 -0.0327531279184 0.0035143291193)
(0.737918460549 -0.022580594654 -0.00501542045377)
(0.764027914662 -0.0136166973322 -0.00623352237985)
(0.79092991041 -0.00600748504955 -0.00158348889387)
(0.783142185628 -0.00991660232895 -0.000733574613582)
(0.736563972639 0.00160608707533 0.0204146699725)
(0.739241352027 -0.00929242434743 0.0225115938268)
(0.79037087758 -0.0216675221896 0.004533611457)
(0.789152608754 -0.0256940343506 -0.000665229108238)
(0.791249852227 -0.0244041316383 -0.00257044736903)
(0.793736795137 -0.0177909468997 -0.00482607505261)
(0.801567174742 -0.00908744251731 -0.00119061657231)
(0.795192907826 -0.0202628244293 -0.000201211374851)
(0.819066209407 0.00180308370088 -0.00146965220546)
(0.819175528279 -0.00552836454165 -0.00131237625929)
(0.815450636 -0.0137208441703 -0.00219239292305)
(0.808547740089 -0.0149180411552 -0.00466729038096)
(0.804608685708 -0.0131719297393 -0.00637093963566)
(0.803731012214 -0.00981229160611 -0.00552633959154)
(0.805038318485 -0.00692809644593 -0.00118576944427)
(0.801807107295 -0.0205545526033 0.000165995528978)
(0.808671367538 0.00774607456581 -0.00149544686441)
(0.813106189575 0.00192412669079 -0.00105676094731)
(0.81369825098 -0.0033470967069 -0.00192758338935)
(0.810851444586 -0.00773929333958 -0.0027848733012)