/*--------------------------------*- C++ -*----------------------------------*\
| =========                 |                                                 |
| \\      /  F ield         | OpenFOAM: The Open Source CFD Toolbox           |
|  \\    /   O peration     | Version:  v1906                                 |
|   \\  /    A nd           | Web:      www.OpenFOAM.com                      |
|    \\/     M anipulation  |                                                 |
\*---------------------------------------------------------------------------*/
FoamFile
{
    version     2.0;
    format      ascii;
    class       volScalarField;
    location    "8.15";
    object      p;
}
// * * * * * * * * * * * * * * * * * * * * * * * * * * * * * * * * * * * * * //

dimensions      [1 -1 -2 0 0 0 0];


internalField   nonuniform List<scalar> 
28582
(
17096.1941923
17095.0175654
12197.2905449
12196.7364732
7296.82590705
7298.3481081
3617.62967535
3623.12892644
45.9372373481
50.1385505933
-27.4597950879
3620.29345434
634.631368936
644.053292824
3625.51313407
3626.53454156
647.097909882
1792.61103247
1793.24351449
17097.7410653
17094.746982
17094.8416801
12198.7052436
12196.9132869
12196.9211964
7296.81163741
7299.12332607
3619.30465001
3626.59975013
49.6852143183
-27.5425916917
-27.2457753784
3616.11069344
3616.6958617
628.879144865
628.131536554
1773.54885669
3626.60371411
3627.31389176
3627.21456722
1792.95990112
650.565220856
1793.70556571
1793.88792556
48.2309822772
49.6021966118
-22.9948045114
-22.9215864554
50.0316846414
-22.9064852332
1775.83661641
1779.55725692
637.994533456
635.294829895
1777.05072895
638.734483795
1778.28962177
1782.47389237
1784.10203494
641.113101988
644.953749439
1785.38071749
642.006871222
1781.16657051
1790.19564126
1786.79584073
649.396456672
648.076376018
1787.92407795
650.306476872
1789.2783872
1792.11897381
651.664950667
652.044080497
1791.75013846
650.856908493
651.444121916
1791.06669402
1794.01908975
651.974288668
651.931607484
1792.38778583
651.343640141
1793.10335723
651.424990865
42.1193977393
-22.9182750813
38.7876230644
41.451887763
-22.8243315806
-22.8753216209
49.3193236216
-22.9715875156
-22.9040330539
49.456015963
-22.9411723264
49.7359174403
-22.8788045333
1773.39791682
1776.71813379
627.562102557
629.449649383
1772.95657686
1776.91907432
628.343168327
1772.21114835
1772.19010387
627.164172152
629.150035864
1771.63608125
1772.76865918
628.076413051
628.32341516
630.071876315
1774.07414795
1772.82898659
629.572972517
1773.50288966
628.346570518
1792.54382522
651.827050005
652.248642812
1792.73092884
651.636953256
1792.42669545
652.06849742
1792.13310666
1791.15725807
651.073977361
650.909530394
1791.93183347
1791.34739838
651.492182808
1794.52439214
1794.59945934
652.402142209
652.408103146
652.679065725
1793.54320002
652.424946628
652.565166305
652.093163344
1792.9655577
1792.92915435
651.496862619
1792.06828952
652.069857546
7298.42521617
3625.9342764
50.9244505001
-27.1725078486
3616.18129437
633.483796262
3626.29849757
3624.5507942
650.420337964
651.56889921
650.951007095
3622.92206354
3621.8277017
650.663464785
650.492167345
44.8579094723
50.7378209995
52.7122292676
-22.806770087
-22.8466385105
-22.7735754565
54.367247339
54.6172376571
1776.45042396
1774.85892449
632.412775731
636.743685471
1774.84709177
635.742138928
1777.16204256
1789.7997964
1790.47889193
650.717438894
650.762621135
1789.80828524
1790.59788587
651.000099546
1789.93486733
1791.82372596
651.147376927
651.345611538
1791.12144171
651.177590107
1790.25150203
1788.56545049
1786.58525323
651.162876924
651.130539147
1787.09584843
651.243088661
1788.46054572
1785.29943954
1785.13819658
650.962990263
650.521691648
1785.9496327
650.862275591
1784.45865062
1785.01191524
1784.21119015
650.621704446
650.544777633
1784.90479895
650.813472736
1784.19213748
3652.77712434
3649.14721538
3648.49713098
3646.9296843
10.8564319195
13.1006361052
8.63427489854
10.3682250567
10.2011898362
-27.1165087566
-27.1913884421
-27.0953971602
-27.1141398247
-27.027829615
-27.0488312662
3654.57808954
3653.80582469
622.995408016
622.536511876
3655.32669746
623.747665449
3652.00323179
3650.40798997
622.073734036
620.158346664
3652.84886705
3650.65681013
3650.5528791
623.063237784
625.991609314
620.786496807
622.381733685
3649.75329291
3648.31651457
626.674799097
626.943711562
622.901303163
624.632431253
3649.02072834
3648.00814876
619.79944509
621.364712887
619.577631782
3647.60025524
3647.66871772
3647.14567397
622.018607292
624.432427318
620.402950504
624.375628164
620.247838425
624.677189058
9.81063889391
9.80514750817
11.47348793
-23.2152091679
-23.1997557209
-23.2177361505
-23.2107492372
-23.1989877091
-23.1434254573
-23.2125688278
-23.1673816685
9.61106540529
9.12547596174
12.0589058715
9.9209198012
10.5501767206
-23.2192394723
-23.2169133968
-23.2262771458
-23.2239395928
13.7912913851
11.3781830612
12.5253280939
-23.206347059
-23.1753940177
-23.2119755267
-23.1823229294
9.27195780125
8.64580905461
-23.2263897953
-23.2196331792
-23.2085862396
11.927617105
9.99243140054
11.7884246545
-23.206325426
-23.1736474956
-23.198893255
-23.1665422873
1815.80005584
1816.93671487
621.709972325
622.956107061
1816.75962525
621.613754324
1815.95674927
1815.54105886
1815.83428626
622.853329789
621.410123313
1816.39479338
1815.10235112
621.558659882
1818.22002291
1816.58836155
624.282003242
624.936127072
1817.33073459
1817.29700161
625.536398049
1813.83720665
1815.10545937
621.129867625
621.528974103
1814.49949081
1814.38323997
620.61018499
1813.19613001
1813.01039536
620.929079825
619.420856437
1813.65618068
1812.61656093
620.093819423
1815.29845509
1815.68022848
624.099048138
622.438562726
1816.25029917
1814.85337435
623.22936779
1815.63550288
1816.98619345
625.101993659
624.796414278
1816.69744484
1815.8515325
624.059438594
1814.41462043
1813.33880183
621.687337102
621.389259531
1814.05531575
1813.60924143
622.330712961
1814.65845529
1813.94021884
623.535894014
621.857818963
1814.81369575
1813.79126614
622.930594143
1815.2893397
1816.92310334
627.076277229
625.39148763
1816.53233615
1815.70748396
625.815027245
1814.5918614
1814.23219862
627.126684211
626.100935292
1815.65178489
625.997814541
1813.60043114
1814.3412208
1813.87916599
624.007752545
623.476966186
1814.67347326
1813.66434923
624.49623416
1813.80480923
1812.8360348
625.164575471
624.005549585
1813.30641856
624.800550357
1813.07043806
1812.3394469
1812.6682806
620.386908499
618.987517938
1812.91035921
1812.13632455
619.527678993
1812.45180044
1813.17537668
620.802444448
620.609323751
1813.08202146
1812.53537075
620.025746068
1811.87644482
1811.43259
619.96390107
618.84010941
1811.94992435
1811.34101832
619.352099058
1812.57519103
1813.15949534
622.690043893
621.237784981
1813.04612107
1812.54524066
622.065017947
1812.61683317
1812.7068516
623.4914288
624.296189948
1812.90153875
623.095852559
1812.76871125
1812.18311087
1811.58822972
620.698048731
621.417398564
1812.0400153
1811.84209947
621.623845297
1812.37544204
1812.68858499
624.229742537
622.713654918
1812.17423849
622.773275236
1812.72625948
1811.15809829
1811.15366722
621.396475894
620.349906248
1811.5114158
1810.74802699
621.644799939
1812.5912597
622.869113865
1811.94848925
17094.9241737
17093.860325
17094.051357
17094.8655443
17095.0410377
17102.1272676
12195.9492196
12195.5109103
12196.204741
12196.5466541
12196.2840364
12203.3590693
18312.7873283
18314.647455
17086.6669667
17092.5260012
17097.8051285
17101.8449542
17107.4882114
17096.3861078
18314.0389539
18315.3448938
17091.8524341
17094.0966759
17096.3989149
17097.1387801
17096.8008302
17104.4324342
17093.8718153
17091.2347553
17091.6950697
17093.527742
17095.4373949
17096.1538468
17096.3902048
17105.0622338
17096.4615674
17093.4657268
17093.1190464
17094.2928493
17095.466323
17095.7279617
17095.6836058
17104.1969239
17094.7351438
17095.0423154
17095.143856
17102.9333235
13412.339754
13413.2968775
12190.8927847
12195.0819729
12199.3185705
12204.3720908
12225.1301599
12154.0882836
13415.7069834
13415.7829501
12195.303452
12198.086794
12199.15281
12198.1768992
12194.8011262
12187.4369581
12194.4577167
12192.6244755
12193.9109873
12196.020547
12197.516945
12197.2204225
12195.1600774
12201.0387296
12197.2680264
12194.6412551
12195.0500858
12196.8160757
12197.7808267
12197.2448221
12195.957031
12203.644525
12196.9419536
12196.7072755
12196.0919206
12203.6528702
8511.37153679
8511.32043226
7291.22361558
7297.13679387
7302.19036501
7306.52516937
7319.54659614
7243.98643321
8515.8960817
8514.85062181
7291.32565808
7296.91546405
7300.14565736
7298.35728647
7289.25480788
7278.53658817
7293.10421227
7290.55303696
7294.31715312
7297.91564299
7299.44621104
7298.0677223
7292.89922364
7299.42777885
7304.43679152
7295.46774602
7292.92859215
7295.53346027
7298.43291999
7299.25303742
7297.73055403
7294.0563825
7302.08949349
7294.78916177
7296.57036847
7298.51095676
7298.70543164
7297.29619248
7294.86191182
7303.60619758
7296.61124683
7294.80410987
7303.4346063
3614.51926147
3606.63247223
3613.2364383
3624.33102656
3630.17898433
3634.05373273
3636.60166383
3636.44449003
3628.83190821
3616.10997334
3608.90624832
3614.44842485
3623.81362879
3629.1650845
3629.7368706
3624.94146463
3616.14026159
3646.0110761
3635.38452072
3617.85130336
3611.53406099
3617.5760242
3625.06843757
3628.49011862
3627.34718483
3623.43638176
3623.97319047
3635.90247894
3619.10754051
3613.04190705
3619.67146786
3626.37025901
3628.31636661
3626.22512787
3623.39502048
3626.2019666
3615.55174328
3621.02022879
3626.60714534
3627.11713644
3625.17433778
3623.26144781
3625.48733311
3623.60960752
3622.3529604
3624.79115306
32.6293509888
41.4664668861
47.3299968145
47.8689780201
46.7956855738
48.1386913123
53.1758182438
55.31777867
15.2627445632
23.0691965687
32.8920269329
38.7192174549
43.7902623105
46.9402084516
46.254009806
48.415449818
52.4385623568
51.4463276825
14.4197756465
24.832466142
33.9885280805
37.786865832
41.8183703907
45.3202167817
46.0262293142
49.0558577351
51.5965614913
49.2748139856
27.9918033833
36.4958751748
39.5252115032
42.5205477023
44.6693706104
46.2340200732
49.1108780179
50.6891006463
48.518052991
43.409919613
46.857027023
47.5868141485
48.464318572
50.5425425149
50.8400987639
48.845061764
53.4218715269
52.0628200439
49.5024241302
-27.1587248315
-27.0102152354
-27.0540621041
-27.0490756372
-27.2377946139
-27.0815665196
-27.1965713454
-27.0805795601
-27.1692850263
-27.5519103021
-27.3739970531
-27.3594064893
-27.8325183601
-27.1224025873
-27.2977045385
-27.1731725644
-27.2313717034
-27.1053216885
-27.1576081531
-27.4036662223
-27.2192043457
-26.9606223307
-27.1444753289
-27.0789330261
-27.1963523516
-27.1282172797
-27.3784350604
-27.1038163318
-27.1777639164
-27.3458081697
-27.0755980133
-27.3293460648
-27.1954120783
-27.2396039888
-27.0505213652
-27.4272305553
-27.101882153
-27.1932738649
-27.3630066755
-27.447684202
-27.3050239542
-27.4738773092
-27.2616813824
-27.1158351142
-27.1664213488
-27.4860514158
-27.0934107495
-27.2102790939
-27.6523926579
18313.8071549
18312.5967371
18313.8693983
15862.9445839
15864.0179565
15863.2778424
15864.1135409
18315.1468026
18315.0584428
18315.8147361
15864.9023803
15861.4583499
15864.6311738
15863.6522366
18314.4193247
18316.2134598
18315.449031
15864.7071648
15865.3109471
15866.6752547
15866.2990019
18315.8444446
18315.6476154
18316.185837
15865.8125459
15865.7213017
15866.7225655
15867.5465967
13413.023754
13413.4349049
13413.7219692
10961.419269
10961.9792904
10962.9877408
10963.2286163
13413.699417
13413.6618222
13414.8954808
10962.2533977
10962.7417016
10963.2499101
10963.3825174
13415.6989759
13417.1526641
13416.8411191
10965.7755863
10965.7270343
10967.4836301
10966.5686276
13415.8692307
13416.9278083
13420.2119802
10965.5433107
10962.3151617
10965.8863561
10968.7370052
8511.32377861
8513.44514851
8512.96157823
6062.45214447
6060.71102965
6064.28459246
6062.19048185
8511.78329451
8512.65349419
8513.3200007
6059.86969814
6060.43959465
6060.91011079
6062.66652416
8515.21320252
8517.49022094
8515.9251283
6066.04258217
6063.50867026
6067.35042767
6064.38150797
8511.85804176
8515.04773017
8517.10695778
6062.54697909
6062.31129902
6063.20947528
6065.61700326
3618.44133708
3620.88050602
629.655128914
629.045730254
3609.89465274
3615.85412022
3610.98390802
629.687829329
623.452085545
628.286786649
622.973352378
3607.89616264
3607.97343971
3608.87487285
621.437204273
630.128813978
620.994412109
629.452648782
3619.40276665
3613.57755985
3619.22511524
635.381420751
647.244060337
634.216954597
646.128766769
3627.57972471
3623.98928027
3627.13104441
649.225102923
651.285913742
647.810307144
649.996428577
3632.20157733
3629.70385135
3631.3785058
651.598432972
654.002997919
650.365966889
652.284329497
3635.36230427
3632.34083683
3632.56088444
654.874530165
656.017693418
653.416830063
654.178477405
3635.56625273
3630.60756678
3624.22454155
656.195996525
659.192475547
653.702778768
652.372136342
3590.91134361
3610.96012695
3606.3661841
661.433519863
617.420923823
652.445393897
634.421695075
3645.84160134
3640.62868677
626.807379944
627.264791837
625.439011072
630.586243684
3621.93182196
3633.02339325
3624.39657372
628.339338069
628.935019081
632.369266512
629.794229818
3611.63199578
3616.8474341
3611.76602829
627.735429414
622.711235122
627.203939564
621.355457758
3610.03406376
3610.09334881
3612.07021653
620.917153264
629.468172899
620.796751926
630.176126967
3619.55404018
3616.87739582
3621.68000926
634.006141809
645.945708086
634.179167728
645.779506025
3626.87833191
3625.07785797
3627.26740463
647.413142733
649.887103722
647.01516172
649.536600657
3630.0561495
3628.88507363
3629.3511503
650.294933844
652.112647069
649.995470973
651.91913313
3628.14792979
3628.42405115
3626.35366837
653.17142773
653.182764246
652.075158333
650.210735505
3621.08284889
3623.77156525
3621.31472858
652.5917252
650.795271251
649.676599164
648.744828219
3626.31613586
3619.25237766
3633.69802355
650.8681267
636.109013048
649.578968374
635.917163462
3642.213802
3646.03677136
3642.81198535
625.580272658
631.616488311
626.581439622
635.675120974
3626.1725802
3636.14706303
3626.82462855
633.470214154
630.003647316
637.075313981
629.90833183
3612.76007009
3618.64980683
3613.59914645
626.974811848
621.102607204
626.096334927
622.305846671
3613.38105806
3611.93679097
3614.62073509
621.597412967
630.819728769
624.633794281
633.325260494
3622.01896785
3618.80773135
3623.13236294
634.413765255
645.397867521
636.034706049
644.643028514
3627.2158497
3625.97675831
3627.76140531
646.712588979
649.33996004
646.104263362
649.17457252
3628.65017883
3628.52146244
3628.19140153
649.959484089
651.514981678
649.97303376
649.625015653
3625.31622805
3626.82526024
3624.98309016
651.479256641
649.517776138
649.452573984
648.410312206
3622.68271797
3623.38369071
3623.43401499
649.063507618
648.717614223
648.130180696
648.191118197
3637.41410073
3625.64899077
3637.74052952
649.802661014
635.358062346
649.557338469
634.26964413
627.115601792
636.887899168
3626.73322057
3626.16616597
637.989589345
629.80122016
630.857395269
3614.54359721
3619.2124989
3615.34862364
626.104185146
623.179022203
627.962978753
626.989491587
3615.85868065
3614.37510715
3616.84328425
625.686617889
634.39588653
629.040143486
638.485703047
3623.6548888
3620.37050958
3624.10852595
637.033412097
644.958390963
641.04511209
647.601069306
3628.02211985
3626.6450042
3627.85450415
646.38607219
649.404343803
648.860485981
650.02228062
3627.59510121
3627.81872749
3626.96919933
650.043113692
649.2922585
649.663714914
649.318422686
3624.60655298
3625.71718863
3624.37266433
649.131983568
648.492581293
649.586540207
649.405784161
3623.791519
3623.45458908
3623.88543605
648.265979973
647.938343669
649.055043087
647.653069329
3637.20936219
3625.86762257
3636.10913682
649.173270796
633.72496467
648.29852908
631.142574399
3617.72515746
3618.74201495
630.298519169
639.778510616
642.88691697
3624.51592444
3621.85875363
3624.85381805
642.324135191
648.681152158
645.633371422
650.973898832
3627.31162005
3626.44396497
3626.7686597
649.736056919
649.932382629
651.2462274
650.22797081
3626.39165228
3626.41998418
3625.60708976
649.485582443
649.773184943
650.103009018
650.814592156
3623.98400537
3624.44714697
3623.34440428
649.95920411
649.743156653
650.976054841
650.431312591
3623.74235665
3622.84284441
3623.47535851
649.263243802
647.605635365
649.571127962
647.883814905
3635.03451748
3625.14147468
3634.00690587
648.060095229
630.473809099
647.975361903
627.703222853
3624.8719865
651.001736773
3622.55914844
651.031346024
650.542440408
3623.15889873
649.661140401
648.255961987
3633.15247193
648.331790616
627.45718125
-23.0964869063
-23.0324891489
-23.1016811918
-23.035388431
27.7002322782
27.6602733723
-22.915706796
-22.8802387571
-22.9085597646
-22.8835316764
37.4425311791
32.5153093812
37.0953188559
-22.7685652442
-22.7205199521
-22.730567069
-22.6921745501
44.2910225904
40.2738706135
42.8145964319
-22.7443564597
-22.7539337913
-22.7336071601
-22.7567085997
48.4655909342
45.3858642105
47.4611839034
-22.8532985027
-22.9362100123
-22.8669980751
-22.9183006212
47.6425293854
47.1509575129
47.0827989582
-22.9992360229
-23.0724681345
-22.9458499364
-23.0264439729
47.2423376142
46.2429817869
46.8533378729
-23.0712129443
-23.0421191075
-23.0266732771
-23.0209889081
50.4160706745
48.2196955064
50.3491170649
-22.9908872817
-22.9458607226
-22.9694045441
-22.9398302122
55.173979446
52.7651637871
54.3780392769
-22.8649026692
-22.8879089579
-22.8578209453
-22.8856912563
56.9081532063
53.1969078278
57.3967303646
-22.9872962189
-22.9732804073
-23.0120403952
-22.9956024293
18.4598259255
14.6654746669
18.6403823947
-23.1457395793
-23.0730081151
-23.1502494761
-23.074151564
28.0768896594
23.7080026383
28.7961618356
-23.0018238209
-22.9579098996
-23.0088178489
-22.9530292159
36.7247550717
33.2634940811
36.3671258339
-22.8597802349
-22.890915607
-22.9093207669
-22.9410898138
41.1316863724
37.8141512943
40.3070455978
-22.8343200877
-22.8651261466
-22.8701276948
-22.9043277622
46.8823888254
42.6386467722
46.1785387631
-22.9440202917
-22.9629305469
-22.993575321
-23.0401892591
47.061623544
46.2787020551
46.520765713
-23.0080115049
-23.0293091272
-23.0744735829
-23.0654744119
46.9103549807
46.3266851677
47.1718487573
-23.0249740744
-23.0155485746
-23.0276975489
-22.9888895438
50.4533249523
48.9567049807
50.8093040169
-22.9556872738
-22.9067047225
-22.9183417184
-22.8625427984
53.488307016
52.008541235
52.191164833
-22.8497440777
-22.8897284455
-22.8349935524
-22.8901441333
56.1044621826
50.0530990973
55.0232207016
-23.021890199
-22.9866724897
-23.017185705
-22.9745739766
19.0314715413
14.4855074011
19.7415591809
-23.1386125669
-23.0354683578
-23.1254664545
-23.0243373727
30.0755521963
26.3932238477
31.7311504941
-22.9168124636
-22.8385644282
-22.8816095392
-22.8019416256
36.3538273914
35.1726896968
36.846228788
-22.7715203653
-22.7822481149
-22.708844996
-22.7298601123
40.0125899913
38.3807885785
40.2627948726
-22.8465511679
-22.9133717547
-22.8426421293
-22.9138645007
44.8784363154
41.5516632764
43.9467706684
-22.9826320279
-23.0335756095
-22.9868197795
-23.0460621022
45.6680194737
44.5695835682
45.087299283
-23.05672754
-23.0591684804
-23.0934172706
-23.0982467098
47.1190071891
45.7514300108
47.0014443427
-23.0573321339
-22.9523440482
-23.079398745
-22.9280169564
50.8680464674
48.9813155756
50.7448206883
-22.8525594546
-22.8180939387
-22.8288491503
-22.8059787668
51.4185080919
51.1312135503
50.6375995419
-22.8197735848
-22.8887516943
-22.8194999189
-22.8871222839
54.2311964931
48.844936352
53.6085105539
-23.0110272702
-22.9708279926
-23.0004535066
-22.9632529972
33.2816436872
34.5189215448
-22.8679850264
-22.7812650763
-22.7936912854
38.1174645858
37.7450530447
39.8451634091
-22.7264622092
-22.760130412
-22.7369330659
-22.7766944493
41.3734479276
41.4703318048
43.6123339519
-22.8588326204
-22.9183985791
-22.8527620549
-22.9131562622
44.278540117
44.6455371709
45.7126138198
-22.9834265966
-23.0344002502
-22.956907782
-22.9817040545
45.0114044128
45.8050648936
46.2513256516
-23.0714791375
-23.061652009
-22.9967267601
-22.9739006435
47.563416977
47.1624316731
48.4284235844
-23.0191206121
-22.8979111864
-22.9408268341
-22.8654410772
50.611292227
49.6541013572
50.8265050166
-22.8035051068
-22.791875519
-22.7847134396
-22.7745128832
49.944913596
50.5716739327
49.9757674622
-22.8186049928
-22.8849968245
-22.8163560254
-22.8841819751
52.9734791978
48.5575151554
52.1061540254
-22.9900266763
-22.9588695356
-22.9826414926
-22.9436635419
45.8184221207
47.2169347774
-22.9210974787
-22.9495411858
-22.9427152329
-22.912773731
47.8291601014
48.5188072029
49.3934174244
-22.9600085045
-22.9661678467
-22.9056706747
-22.9073820906
47.9297787802
49.0141709179
49.1971623486
-22.9868948886
-22.9433373657
-22.9321239983
-22.9173153106
49.5503401251
50.1490913987
51.1200021763
-22.7995492749
-22.7867664555
-22.8199196698
-22.7724203238
51.5064826994
52.0497947971
52.6694720796
-22.7486861851
-22.759099108
-22.7260607831
-22.7392002704
50.1800874416
51.3826962861
50.555504143
-22.8073338188
-22.8754173556
-22.7974405899
-22.8658927295
51.6875316226
49.1215150639
51.5631633116
-22.9786351605
-22.9167625667
-22.9781999258
-22.9239127193
52.2531755367
-22.7527820784
53.7178233886
-22.7131691487
-22.7238752179
-22.7219372908
-22.728345987
51.3264281695
-22.7909517472
-22.8576896857
-22.7895796093
-22.8485990024
51.8217527779
-22.9836439248
-22.9417494446
-22.9811151806
-22.9558889456
1788.68918506
1785.34325561
627.907834892
629.329711946
1785.64900231
627.793697736
1787.9836265
1789.41052097
1786.2476716
629.163146087
628.718347237
1785.98809486
1790.35621424
628.111114627
1775.36749304
1780.81328662
628.259572283
629.370161158
1780.96669614
628.027228217
1775.19870316
1769.67141633
1764.10022378
625.543333896
623.261100312
1764.51464829
625.355345468
1769.36870888
1775.69055241
1781.14023482
628.919361426
627.302209086
1781.19083213
1775.75974382
627.787996731
1770.12124643
1765.52756485
623.051323018
625.292539444
1764.99435525
1770.53003681
625.323462244
1762.85463567
1761.58561352
621.736169398
621.413662564
1762.11718305
621.674039365
1762.36783204
1763.86473938
1767.42551447
625.282013678
629.817598341
1767.82846586
625.125708689
1763.46397991
1763.22759686
1763.63072714
621.169661386
621.682469099
1762.80791094
1764.10111538
621.60255938
1764.65061435
1769.44830272
629.608105655
625.021049743
1768.5800944
1765.63720875
625.019060423
1777.25631247
1772.11787589
639.864470084
634.966323954
1772.49040911
639.330030727
1776.95070702
1782.07222077
1786.43744674
643.956595881
646.738948562
1786.58506288
643.401899946
1781.84200273
1777.67674613
1773.80048184
634.561906448
638.502048584
1773.08354509
1778.2377316
638.81722276
1782.27461981
1786.75487065
646.286040562
642.822297263
1786.58576374
1782.66396232
642.978166665
1791.86527226
1789.6281225
650.107649255
648.761907356
1789.71055926
649.529893013
1791.95571254
1793.57792362
1795.24569755
650.90050113
650.717520237
1794.93652046
650.257199802
1793.79362649
1791.71166099
1789.64903347
648.190005767
648.636170439
1789.66524609
1791.5705924
648.898642311
1793.33951513
1794.5711087
650.251075487
649.496584273
1794.72871136
1793.14681266
649.709579213
1797.43909022
1796.63125481
652.202872858
651.038075771
1796.32824794
651.60752902
1797.7061671
1798.15857931
1798.9605419
653.068493859
653.433605577
1798.62298516
652.450129659
1798.49825042
1797.08907297
1795.89085149
650.602430819
650.660284197
1796.09641472
1796.80246262
650.999340226
1797.70758076
1797.67856307
652.735963855
651.295402859
1798.17990999
1797.29691438
651.71013894
1798.44984099
1799.02567471
655.489289601
654.38159637
1798.68389595
655.083361801
1798.85402848
1798.27638316
1798.77145977
655.919574353
655.548470858
1797.86564688
655.513463125
1798.89718003
1797.97468833
1797.71795814
653.867682577
654.262830143
1798.27016604
1797.21617749
654.713267537
1797.41516145
1794.78020921
654.851336179
654.402601901
1796.47180068
1796.30071507
654.961435428
1796.45904564
1798.58202283
656.951784667
655.50758199
1797.27216048
655.890605
1798.30315199
1795.57630267
1795.70841915
658.080887871
657.139595577
1793.00032111
656.60433303
1797.86389876
1793.73328096
1792.99665934
654.613689725
653.277193391
1795.13922671
1791.06005477
654.545184524
1791.88085514
1786.55217806
654.420874743
652.790111145
1788.91617416
1789.03716738
654.553786948
1781.68948334
1790.72816412
665.70167178
658.585549762
1788.12345561
661.601872023
1783.93216315
1771.12287866
1778.05390375
672.277824446
624.721687322
665.068634204
1784.225828
1773.28841721
1778.80889683
1782.87773113
654.787449068
655.49684192
1784.40821684
1778.22903134
657.478238487
1769.43801926
1794.368193
631.870348124
660.834515051
1769.74070591
662.024965065
1789.9252837
1810.45960357
1812.32498686
626.797037877
626.24573093
1809.66047869
626.701171835
1812.29678613
1808.02765216
1802.92067952
626.789655517
628.535595057
1806.41456484
1805.14146823
627.466368908
1810.78774199
1812.19116494
625.68313937
626.742293106
1811.25622514
626.568648653
1812.10873013
1809.00406278
1807.92960044
629.57644855
628.658677019
1806.6860772
1809.93580466
627.954020126
1797.1697408
1799.21006669
628.951877168
629.975240044
1795.38842113
1801.56446294
630.337960641
1791.84319345
1786.09509398
629.390492694
629.0797881
1791.00709193
1786.19837676
629.970652097
1798.7843729
1804.64663406
631.376054676
632.653857605
1803.40777708
1799.87662129
631.690365999
1792.85736656
1786.46900688
629.462333339
631.722577785
1786.41710635
1793.54524477
630.802846284
1775.23754328
1780.88967058
626.764785242
627.782126111
1775.51708813
1780.81562827
626.285959841
1770.37073329
1766.03237163
624.975588145
622.35818788
1770.66676629
1766.39605392
624.204025604
1774.67963446
1779.92873277
627.672798308
625.021221876
1780.51849203
1773.93483242
625.6883954
1769.97045753
1767.3029592
621.816412989
623.068980103
1766.73721748
1769.63192701
623.536092399
1766.6595754
1764.55449819
621.888100672
620.948608995
1765.50294065
1765.48449202
622.324068252
1767.93002127
1770.3853575
625.239208941
629.559291982
1766.70264578
1771.46109229
625.503070719
1767.71956092
1767.12841145
620.828744416
623.446222725
1766.31475227
1768.44463985
622.819427248
1769.23817554
1773.75368859
629.818322068
626.524715914
1772.6302558
1770.39191146
626.043114929
1779.65011375
1774.51234688
638.282614976
634.035112353
1778.73299443
1775.51404417
638.237007565
1783.75743515
1786.76022809
642.808032846
645.905011529
1782.99795991
1787.19281566
642.793334145
1780.66718756
1777.60620209
634.010786984
638.344938586
1776.57928073
1781.65790597
638.247189082
1784.71054637
1788.6796754
645.901100766
643.003087073
1787.95488431
1785.58767162
642.978176743
1791.67381089
1789.44355309
648.364592902
647.356413875
1791.45043856
1789.72149293
648.319636251
1793.26369016
1794.48984644
649.363136288
649.860053076
1793.13326679
1794.47656537
649.265880582
1792.00511901
1790.73832056
647.251970481
648.124679279
1790.22196542
1792.45723434
648.220921662
1793.42667597
1794.66372509
649.604669651
649.045587989
1794.47921406
1793.78818477
649.076528859
1796.36740144
1795.69356106
650.607939987
650.255736661
1796.5163358
1795.54624679
650.660903075
1796.66135629
1797.07041424
651.218524583
651.939645498
1796.90184625
1796.57778389
651.252147897
1796.2815412
1795.46702669
650.042662081
650.852196054
1795.46004324
1796.09377208
650.770836922
1796.44878915
1795.39008264
652.132387179
651.565524766
1796.02876237
1796.05849283
651.615433423
1795.0661097
1796.84003206
653.778398365
652.842712933
1796.12485119
1796.00158585
653.129387811
1793.33849816
1792.81597242
653.670414041
652.190287965
1794.81201486
1791.06667985
652.737941895
1793.71214345
1794.25906528
652.611461864
651.623207414
1795.04924973
1792.58433733
652.356996671
1791.8194417
1788.43567809
651.187898848
650.742728377
1789.62525431
1790.54694623
651.719999968
1786.58049632
1790.51814023
651.996318213
651.514012153
1788.23766713
1788.7064158
650.86335325
1784.88240558
1784.62868094
651.242481077
649.695890238
1786.2958478
1783.83373197
650.140986706
1785.72737158
1786.60193526
650.529039909
649.171343505
1787.50114075
1785.24008686
649.930098622
1784.43500278
1784.03440785
648.967989317
648.863583208
1783.80190184
1784.44945618
649.330513462
1779.41735599
1782.27792429
654.604141997
650.029879102
1778.97259541
1782.25558493
654.014042971
1772.71196682
1797.24303981
660.335190443
636.735530852
1772.03633157
659.770407512
1798.80131707
1780.16877839
1783.00992261
649.681041092
653.409642179
1782.62702173
1780.56634641
653.74492376
1773.7905978
1798.69835671
636.380130902
658.552085761
1773.96151434
659.47964134
1799.12520034
1812.45143652
1812.36161166
627.127924425
625.897356673
1811.71693635
627.821737332
1812.77914957
1811.5334471
1808.87304216
629.377032502
632.702216965
1810.65869559
1809.70174357
630.308237366
1813.19064073
1813.36178956
626.221517811
629.501745312
1813.74827632
628.710396368
1813.13879278
1812.37902966
1810.97646619
634.111637529
633.058768078
1810.4046306
1813.11952044
631.710344974
1800.72701155
1805.58860094
633.633900043
634.553892038
1800.5185803
1806.18343114
634.514865437
1793.53578389
1786.25829922
632.327461373
630.145203341
1793.75266503
1785.72932868
632.837110076
1800.58691386
1806.62726376
635.765697044
636.239834353
1806.54096282
1800.17877334
635.389639578
1792.98936117
1783.8472649
630.073803168
633.35525082
1784.89291762
1792.19882946
633.14379936
1772.66505504
1779.46715977
624.471051477
626.702084072
1773.3388608
1778.77511167
624.031323203
1769.34751199
1767.93547311
622.483349681
621.157883972
1769.43178519
1768.5364803
621.917335675
1772.16125535
1777.0518831
626.321413304
623.572437391
1777.92388325
1771.93671983
623.616249696
1769.50419973
1769.85114509
621.643497435
622.016845243
1769.18656895
1769.8191793
621.688431811
1770.42497579
1768.22437499
624.422873234
622.57492398
1769.39678786
1769.13014525
625.247854044
1772.79825806
1774.84704275
627.481387007
631.517083838
1771.57415691
1775.99644623
628.357224009
1771.41326346
1770.76818672
623.652483782