/*--------------------------------*- C++ -*----------------------------------*\
| =========                 |                                                 |
| \\      /  F ield         | OpenFOAM: The Open Source CFD Toolbox           |
|  \\    /   O peration     | Version:  v1906                                 |
|   \\  /    A nd           | Web:      www.OpenFOAM.com                      |
|    \\/     M anipulation  |                                                 |
\*---------------------------------------------------------------------------*/
FoamFile
{
    version     2.0;
    format      ascii;
    class       volVectorField;
    location    "8.15";
    object      U;
}
// * * * * * * * * * * * * * * * * * * * * * * * * * * * * * * * * * * * * * //

dimensions      [0 1 -1 0 0 0 0];


internalField   nonuniform List<vector> 
28582
(
(0.81538761939 0.00327100706685 -0.00033314618415)
(0.816117611648 0.00170018364222 -0.000130408554769)
(0.816163958798 0.00347558794386 0.000672757678386)
(0.816229770688 0.00193225398184 0.0008754169176)
(0.817390872927 0.00398353285994 0.00148589841758)
(0.816206847511 0.00222704201931 0.00151901582486)
(0.821233961623 0.00708243978645 0.00369288672506)
(0.817291426003 0.00464037189047 0.00405879491385)
(-0.187130239216 -0.116649758948 0.0168336529918)
(-0.070117149035 -0.106539438249 0.000267808307409)
(-0.695033753416 -0.113890133273 0.423730525217)
(0.818402063386 0.00564613772018 0.00553856602761)
(0.774335169028 -0.00219534920938 0.00426611512265)
(0.771333129347 -0.00474750138494 0.00600376138422)
(0.814941433615 0.0030226501284 0.00301896413891)
(0.813838530559 0.00242054493404 0.00415745368857)
(0.769832259928 -0.00578340132632 0.00537435393889)
(0.811046391726 0.00440624015632 0.00436489202795)
(0.810455924172 0.00413172125898 0.00596428831726)
(0.814696295505 0.00641531817025 -0.000904678272342)
(0.816549998373 -0.000690436125859 -0.000213468092286)
(0.815398095754 -0.00137330992623 -0.000490652646781)
(0.81548914681 0.00666346891703 -0.00146421450548)
(0.816296745331 -0.000374686422508 0.000569557566597)
(0.815257570892 -0.00140815013678 4.39015112044e-05)
(0.817593871947 0.00751835020224 -0.00359015500961)
(0.815658685961 -5.75473579086e-05 0.000372843417014)
(0.820875845472 0.00932216327604 -0.00700964672297)
(0.815300442735 0.00236336032976 0.0008511913718)
(-0.109210716964 -0.0851494281034 -0.0104867897918)
(0.364292326562 0.746219926723 0.201391601908)
(-0.366328282768 -0.273686401822 -0.414404873168)
(0.82439346709 0.00734316107702 -0.00188959427183)
(0.822939426875 0.00824599120101 -0.000752025211233)
(0.775588986354 0.00385963047432 -0.0150556931959)
(0.775305101398 0.00249424000614 -0.0050751538172)
(0.824565924929 0.0100097403326 -0.00590927561736)
(0.815005014947 0.00139536422985 -0.00113599407258)
(0.813992219888 0.00195944093738 0.00195399052484)
(0.81352031122 0.000913711809179 -0.000219389682672)
(0.810765860982 0.00350320408564 0.00353506717365)
(0.769567208815 -0.0114993242851 -0.000315593623169)
(0.809860037074 0.00336078894601 0.00493247512347)
(0.809486736755 0.00115615270434 0.00268599845483)
(-0.10708033534 -0.132038592183 0.0171363112363)
(0.0749056776364 -0.0723810447878 0.0046579635231)
(-0.20712150129 0.0214578955457 -0.130312834573)
(-0.214448377357 0.076083656824 -0.0514893515656)
(-0.0552173665484 -0.127571007974 0.0144783655323)
(-0.151744675039 0.127358332058 -0.188047529538)
(0.822772233112 0.00911436257815 0.00479762256205)
(0.819871870387 0.00770199419603 0.0103762400432)
(0.773022439 -0.00257301443835 0.00516792915194)
(0.773621549921 -0.00111139315105 0.0065720112754)
(0.822259391597 0.00818784557465 0.00714344902949)
(0.772225259845 -0.00190463915264 0.00785465640499)
(0.820509507343 0.00848746641776 0.00835660840758)
(0.817908181337 0.00730171268391 0.00973499481407)
(0.815652703746 0.00665037205417 0.00898133732715)
(0.771944910952 -0.00390568002513 0.00574646879816)
(0.77047354936 -0.0038023235012 0.00917203432962)
(0.814994660075 0.00626736341976 0.0111946674395)
(0.771110123908 -0.00271574259982 0.00834911836019)
(0.8185345406 0.00784789337653 0.00760748944431)
(0.811892252939 0.00531228644075 0.0086274244808)
(0.814249071786 0.00628250610762 0.00736734098079)
(0.768879735654 -0.00703763739757 0.00405479258411)
(0.768994218111 -0.00457851666441 0.00870251024439)
(0.813699067889 0.00599934534464 0.00978886876791)
(0.767971135171 -0.00570992340308 0.0069554955246)
(0.812567893627 0.00531980549611 0.00656358124708)
(0.811468021928 0.00444821261915 0.00250359637344)
(0.767597993329 -0.00878171732482 0.00148818571656)
(0.766969723852 -0.00649141851891 0.00422811878891)
(0.811334827533 0.00444183266452 0.00639744617977)
(0.767746585298 -0.0080085366571 0.00329441489607)
(0.767252683333 -0.00614292442491 0.00586901695092)
(0.811875973941 0.00451648557063 0.00444463479349)
(0.810083474803 0.00345545751466 0.00757751930179)
(0.766854818098 -0.00509260396562 0.0045914321444)
(0.766722309538 -0.00233830277384 0.00701680773767)
(0.810889895714 0.00420177281347 0.00763939993388)
(0.767218806981 -0.00240900903433 0.00836813286463)
(0.810590923474 0.00340977508576 0.00919353833523)
(0.767428112491 -0.00502921699978 0.00605775061372)
(-0.239964413719 -0.0755641371895 0.00550154325911)
(-0.0426872884919 0.235267450764 0.0234128729902)
(-0.221075989464 -0.0263262570215 -0.0105568845277)
(-0.292265580805 -0.0657939122554 0.00750155815699)
(-0.0475199940709 0.189390363681 0.082208707348)
(-0.095096212166 0.224753631606 0.051629112668)
(0.0841661605211 -0.0962755450232 -0.00611043919162)
(-0.289937842383 0.00403225487489 -0.0101962565678)
(-0.252241549539 -0.0365317527598 0.0598229966421)
(0.0781860495927 -0.108790759759 -0.0122168334249)
(-0.261769188359 -0.000795000148628 0.0447904667844)
(-0.0959766653501 -0.0832058607625 -0.0134058237553)
(-0.175039530213 -0.0503767175585 0.079786204801)
(0.82629234291 0.00976011248302 -0.0134440237455)
(0.824452176528 0.00942914333599 -0.0176551768132)
(0.774745905283 0.00368426667048 -0.0122685108166)
(0.774674379039 0.000693815056972 -0.0142000172408)
(0.827246849548 0.00868477211027 -0.0141922703241)
(0.823549717004 0.0102831547317 -0.0165725798917)
(0.774148849848 0.000746660036914 -0.0118684998713)
(0.82569711876 0.0086289672813 -0.00947301877995)
(0.826707879707 0.0068835116481 -0.00412855339059)
(0.775992380661 0.00261788909588 -0.00936957091081)
(0.774028391486 0.000531134940384 -0.00488720380305)
(0.826662157075 0.00735468668899 -0.00958345199107)
(0.825701232854 0.00810333431842 -0.00375976158736)
(0.775392626172 0.000340161876117 -0.00898466010862)
(0.775492608667 -0.000641455086987 -0.00549324431601)
(0.773881271089 -0.00083004484892 -0.00115886792549)
(0.824457716121 0.00976357681717 0.00057429027278)
(0.825161447838 0.00971027674203 -0.00762650452163)
(0.774571105502 -0.000722695756103 -0.0027140000335)
(0.825045689553 0.00922005993255 -0.00142519730622)
(0.775659534829 -0.000738385917172 -0.00751156437592)
(0.811429496043 0.00366598196461 0.00178595098909)
(0.767223461776 -0.00996837524748 0.00125469635494)
(0.766734310642 -0.00736732865378 0.00343425324101)
(0.811046479564 0.0029031205801 0.00120146057251)
(0.76777556802 -0.0106229449738 0.000434494221614)
(0.811779338828 0.00349043795119 -0.000195228724697)
(0.767321447102 -0.00767839153602 0.00184483026014)
(0.81163153138 0.0017572370015 0.000581722677015)
(0.812728353052 0.00230305092583 -0.00211856665743)
(0.768648042448 -0.0113143761041 -5.33116592375e-06)
(0.769684772086 -0.00857827558926 0.000477484003626)
(0.812352905456 0.00294089876802 -0.000740118075283)
(0.811868712062 0.000979023288929 -0.00118285605402)
(0.768521721748 -0.00843966070567 0.00105976261062)
(0.809286917313 0.0022825545215 0.00396432932282)
(0.809255677571 0.00262424522924 0.00655015633239)
(0.76690477699 -0.00557558316433 0.00384806533591)
(0.766746782174 -0.00297841249197 0.00643245868257)
(0.76711817624 -0.00323070380161 0.0051293652466)
(0.809999314312 0.00289997240011 0.00209683541356)
(0.767288129715 -0.0057848042351 0.00172847214817)
(0.767894552368 -0.0043857097521 0.00352477907967)
(0.769783742928 -0.00508293582407 0.0012835969347)
(0.809635156858 6.62293985935e-05 -0.000587164151578)
(0.810504000731 0.00154164167203 0.00115445287435)
(0.769900720678 -0.00724398225327 -0.000461303624849)
(0.810668742952 0.000767344547258 -0.00116098949108)
(0.768370235932 -0.00658564597473 0.000825477472972)
(0.815335889615 -0.00163371969598 -0.0010942550672)
(0.814721515849 0.000213964723072 -0.00205085157455)
(-0.101122212651 -0.0861129321725 -0.0100605171885)
(-0.102050821921 -0.174586540424 -0.474781618168)
(0.822433605502 0.00725465937325 0.00168638258626)
(0.77420550521 -0.00173443044505 0.00127057833072)
(0.813245335512 -0.000502175386938 -0.00178655797355)
(0.814020233115 -0.00206585111014 -0.00279824267344)
(0.770850597496 -0.0114566111083 -0.00115719623914)
(0.771509665281 -0.00622493214448 -0.000667145119038)
(0.77388758701 -0.00690384790983 -0.00392496410407)
(0.814152775835 -0.00274967332498 -0.00203550828242)
(0.815160672204 -0.00333691024509 -0.000551713935539)
(0.773899330574 -0.00723958725223 -0.00447682284348)
(0.772233747902 -0.00868455219831 -0.0035962184812)
(-0.241040948236 -0.150487705624 0.013655882803)
(0.0341826324749 -0.114605961593 -0.0106744977322)
(0.0155471495977 -0.117212125796 -0.00715641876196)
(-0.125624412549 -0.0399642635826 0.0802074764213)
(-0.182782327818 0.00952479758111 0.0437413669352)
(-0.128722839064 -0.0149879670407 0.0429561012981)
(-0.0118886451004 -0.0956960969914 6.19460197791e-05)
(-0.0438702345663 -0.0614097962182 0.00484286085909)
(0.822073317365 0.00778233264641 0.00352787074867)
(0.823046330331 0.00890488106871 0.00181216018605)
(0.774733861269 -0.00132288918499 -0.00093579596955)
(0.772501598408 -0.00193461516132 0.0031353356887)
(0.823526100137 0.00815077207417 -0.000232544156615)
(0.773327389844 -0.00155277677767 0.00048325486638)
(0.821327059908 0.00840896375854 0.00569124655915)
(0.812315618895 -0.000655556583492 -0.00200104849341)
(0.812797275163 0.00167001260185 -0.00189035042858)
(0.771150188167 -0.011254501035 -0.00138380823886)
(0.770881252071 -0.00901107982761 -0.000355296234267)
(0.813072726526 0.00098945782442 -0.00248628266052)
(0.811985604456 -4.79285012105e-05 -0.00100673656469)
(0.771154757935 -0.00888424013154 -0.000857025244535)
(0.811435262928 -0.00109799123086 -0.00242369411172)
(0.809971075366 -0.000912106012739 -0.00121413816971)
(0.771338902872 -0.00804990126932 -0.0013798309283)
(0.772488857164 -0.00678390254512 -0.00186389342185)
(0.810918619241 -0.000384185175698 -0.00114444812293)
(0.771947752914 -0.00818042822252 -0.00184638456306)
(0.810643183535 -0.00169628124291 -0.00315073346532)
(0.811921992372 -0.00191006863094 -0.00220079940282)
(0.812359135557 -0.00244131862364 -0.00409616275095)
(0.772725247783 -0.00740637794106 -0.00323931489078)
(0.77318524608 -0.0068826543299 -0.00326249631803)
(0.812769126216 -0.00248892604287 -0.00276559961463)
(0.772172919048 -0.00792710632704 -0.00289645439612)
(0.811385631545 -0.0022628530463 -0.00316442182397)
(0.813240910407 -0.0031479194467 -0.00201929371706)
(0.813010722327 -0.00262222091661 -0.00385283469687)
(0.773080260073 -0.00695149321285 -0.00379650776294)
(0.773731428986 -0.00736285306645 -0.0038546466346)
(0.813095637516 -0.00292240711682 -0.00270926761804)
(0.773161709287 -0.00677314378667 -0.00336384832781)
(0.813173322706 -0.00257804289584 -0.00309125743936)
(0.8131901772 -0.00320515815775 -0.00191228793111)
(0.813333166106 -0.00245066310646 -0.00275927362348)
(0.772877627479 -0.00705481383865 -0.00350137971569)
(0.773281676806 -0.00783036180836 -0.00374078610847)
(0.813296798796 -0.00332026772424 -0.00205982649389)
(0.77322389367 -0.00673886525235 -0.00332777272354)
(0.813132712952 -0.00242455973982 -0.00296452016674)
(0.792593795991 0.00976133499092 0.00300089827575)
(0.79859375838 0.0103048432648 -9.41098797753e-05)
(0.800099230016 0.0157648314923 -0.00149719375897)
(0.802050294453 0.010346103355 -0.00216736191443)
(0.210529019244 0.105951815315 0.00185482547362)
(0.350794868994 0.149801758691 0.003047746727)
(0.195010865413 0.0754360540343 0.0013663339194)
(0.355987963062 0.0903676193137 0.00260600081825)
(0.32899926425 0.0310446895707 0.00156328694031)
(0.242818577361 -0.00819939306031 -0.311535475473)
(0.34650921691 -0.0692092601368 0.443502258148)
(0.16403514415 -0.0581312880578 -0.27073383779)
(0.462172877362 -0.185429414929 -0.000405784183328)
(0.123703097207 -0.0342566651204 -0.228342154068)
(0.350257565915 -0.0755505589602 -0.125036874714)
(0.791432102068 0.00232171915919 0.00224543502932)
(0.792304903603 0.00460035263855 0.00258075382948)
(0.779900313465 -0.000199370875931 0.00409316941833)
(0.780708728507 0.00383522315628 0.00428616879806)
(0.788996219018 0.00705913749246 0.00502464626615)
(0.781465851484 0.00438884541778 0.00423506270961)
(0.794437343179 0.0061283691831 0.00346645013697)
(0.796709556766 0.0076398661629 0.0029451798493)
(0.781160791025 0.00442741935831 0.00433231760151)
(0.783333971099 0.00614747150524 0.00222285018024)
(0.790866749531 0.0133280544286 0.00522896819148)
(0.79589788397 0.0101743012131 0.00200858825862)
(0.795143941878 0.0138471538981 0.00213703787034)
(0.782238998641 0.00535061759731 0.00441713670199)
(0.782859272337 0.00847483220681 0.0030361604434)
(0.784615185095 0.00729822238011 0.00186899481263)
(0.786345133726 0.0095987226668 -0.000373739508951)
(0.797251699062 0.018158665352 0.00146709129744)
(0.799321287209 0.0225618924126 0.00232116897666)
(0.782177941806 0.0105202993299 0.00237544349588)
(0.783336176043 0.0165244297493 0.000882538390467)
(0.786218279349 0.00993998491072 -0.000445570970744)
(0.785123806732 0.0104003230111 -0.00159254987684)
(0.798547507567 0.0128907038757 0.000355014330695)
(0.800588873621 0.0110775743801 -0.000236331650997)
(0.785548633518 0.00664375272818 0.00114947292319)
(0.786625540492 0.00816553008986 -0.000157496918338)
(0.787846303431 0.00657144990387 0.000975355977712)
(0.801858402438 0.0179219718793 -0.00186535089914)
(0.801484185889 0.0128792848878 -0.00170911596934)
(0.802711362766 0.0137560635157 -0.00266847826275)
(0.786405435951 0.00817575092411 -1.08669543708e-05)
(0.785107356787 0.00878006082033 -0.000411139725156)
(0.787385992503 0.00682115281467 0.00135504300189)
(0.785477029352 0.00762320592966 0.00188297190839)
(0.78775248271 0.00622587196153 0.000942040796784)
(0.785329992772 0.00764411392152 0.00151922436873)
(0.157752219043 -0.0446426840544 0.000664839235044)
(0.163243804054 0.0144753873317 -0.000161928601582)
(0.245360277744 0.0335972528028 0.00381170859463)
(0.191986925991 -0.0403130964688 -0.284983527197)
(0.293797558225 -0.00204760503976 -0.34071110121)
(0.200457035199 -0.0337836370021 -0.258029506059)
(0.315086586809 -0.00817339002403 -0.277511623887)
(0.293402256578 0.0369738552428 -0.321555455643)
(0.136100631363 0.0600913445478 -0.0965334374559)
(0.317933528989 -0.0180930553692 -0.252233709674)
(0.203870572891 -0.0069928873888 -0.0762641539878)
(0.12857862969 0.0729315566704 -0.0013601517876)
(0.102378249025 0.088151200982 -0.000364981366375)
(0.305249090414 0.140706596136 0.00431737808404)
(0.18254960816 0.119736453195 0.00107498007424)
(0.268481713143 0.146790902838 0.00285843811054)
(0.182879801883 -0.0509047150344 -0.208028135322)
(0.262425012658 -0.0329771760257 -0.216412756136)
(0.172026799572 -0.0524324100544 -0.0903814127897)
(0.252006126108 -0.0296847040767 -0.0664127675469)
(0.344869046912 0.122727035181 0.000978777437734)
(0.352795355816 0.149039956818 0.00431131840249)
(0.377858504083 0.116237824239 0.00253883835605)
(0.303807437265 -0.0566211508366 -0.120115548176)
(0.265702553988 -0.0335370042998 0.0337260139956)
(0.290965888625 -0.038103370992 -0.0384184375084)
(0.285653417647 -0.0500143252399 0.0896851057034)
(0.272107054832 0.0831969400138 0.00312486839205)
(0.287397755807 0.0341829869564 0.00239048744474)
(0.155656286386 -0.0473140753387 -0.0334613449212)
(0.205901656507 -0.0373406930438 -0.0409695276441)
(0.201558439437 -0.0254169091917 -0.0884244813633)
(0.406396480937 0.069196875303 0.000737616512801)
(0.359784869663 0.0451665791243 0.00161089833398)
(0.406338727331 0.0302525163568 0.000855355251373)
(0.282073623473 -0.0538696894915 -0.0352980882529)
(0.290446423317 -0.0652943388185 0.0599039101578)
(0.285571688141 -0.0387948388771 -0.0662637866477)
(0.304857534102 -0.0427781588802 0.00959739184924)
(0.796690423107 0.00288733655054 0.00587784639453)
(0.794781197809 0.00258424676516 0.00586743872376)
(0.778785435397 -0.000189025501758 0.00366051986811)
(0.780004169744 0.00127742224518 0.00465048952677)
(0.795213956408 0.00354169287212 0.00623954377667)
(0.778836679275 0.00103059242558 0.00419288365798)
(0.79638121059 0.00218216433067 0.00533731385381)
(0.797030322371 0.00363878367487 0.00563206568896)
(0.796424006534 0.00529661754403 0.00665521977335)
(0.780245002152 0.00226132607328 0.00430724231147)
(0.779349679961 0.00308974431017 0.00409936924501)
(0.795817081418 0.00474012722599 0.00619350093399)
(0.797724240616 0.00462010599344 0.00511607879565)
(0.778963034325 0.00199057077808 0.00397083607067)
(0.792413490767 0.00626376125888 0.007538300144)
(0.794661682807 0.00625478432252 0.0061812906009)
(0.780919580941 0.00283271695232 0.00475044022146)
(0.782161351404 0.00534755573282 0.00385708642238)
(0.793908476721 0.00479534909486 0.00739193418005)
(0.79355122812 0.00749994678248 0.0072649619396)
(0.781132677029 0.00321894700546 0.00474258881151)
(0.799550498106 0.00542246389704 0.00423452395921)
(0.797292674953 0.00603745915529 0.00609652170425)
(0.779494376198 0.00388562181184 0.00420801016141)
(0.781828262416 0.00569161094655 0.00344363284285)
(0.798776995323 0.00512692991183 0.00487100590488)
(0.79819075385 0.00635829594223 0.00542528873825)
(0.779964461718 0.00493838729217 0.00353108451215)
(0.800430059491 0.00575965037105 0.00360734120866)
(0.800193049463 0.00733988955415 0.00349116523038)
(0.782246554246 0.00600204808616 0.00271646617762)
(0.781624635847 0.00502455166534 0.00205498281051)
(0.79904407168 0.00690294264846 0.00436322919952)
(0.801256470848 0.00608614564534 0.0027680562516)
(0.780582433249 0.00516042876897 0.00301256790856)
(0.796320968467 0.00884503092309 0.00560160682839)
(0.796123823446 0.00701574979921 0.00571535730748)
(0.783029402499 0.00639968464318 0.00404144064897)
(0.783070677279 0.00675050274615 0.0035830038629)
(0.79490217417 0.00861670474862 0.00638600497434)
(0.797368743816 0.00739302848995 0.00479071044024)
(0.78426951228 0.00783745060521 0.00318034628292)
(0.79582087339 0.0103764311561 0.00465366513364)
(0.793781120564 0.0120025167023 0.00578169237208)
(0.783201802392 0.00728283808368 0.00381409011626)
(0.784447054543 0.0101057303173 0.00177300271113)
(0.794256418284 0.0101582865981 0.0058003683822)
(0.795354473942 0.0123109144842 0.00471810976782)
(0.784451103366 0.00890227237418 0.00303719545645)
(0.797657364805 0.00934140520718 0.00323393706246)
(0.79961753944 0.00829471759806 0.00255919382973)
(0.783703259027 0.00700558174073 0.00250129492003)
(0.785596120545 0.00827849905421 0.00107989044538)
(0.798551166275 0.00796663636856 0.00343923463765)
(0.799184031623 0.00977296532841 0.00221712399123)
(0.784781435519 0.00788722136516 0.00177840966465)
(0.797638977469 0.010939565993 0.00214889859314)
(0.799368601029 0.0131151917783 0.00067966771087)
(0.785504275203 0.0097207434672 0.000469047891107)
(0.786157999585 0.00903418460484 0.000383856808533)
(0.797540572383 0.0128885227612 0.0017083991254)
(0.79925141014 0.0113087721703 0.000868381997167)
(0.785359655666 0.00882438762862 0.0013235671764)
(0.797046303687 0.0164831043675 0.00361712416474)
(0.794229886446 0.0135728504583 0.00441661263568)
(0.781838785632 0.0126405776548 0.00212397292774)
(0.784009607654 0.0113198063404 0.00126575019395)
(0.794928547702 0.0156628885915 0.00519587638107)
(0.79587963758 0.0142598485962 0.00305899626841)
(0.783610407401 0.0129805939983 0.000376879230861)
(0.798129771515 0.0185674872084 0.00143432431442)
(0.798740317422 0.0199696932751 0.00448413816803)
(0.782401144558 0.0148248504418 0.00135243734663)
(0.784036405043 0.0150544637636 -0.000671463428913)
(0.795990292984 0.017684955108 0.00344436635055)
(0.78370336199 0.0140563775392 -0.000292775416778)
(0.800884809872 0.0205561868167 0.0022504156566)
(0.799065375996 0.0170135791386 0.000293038047782)
(0.799908669331 0.0150906175426 -0.00046551262807)
(0.785279627703 0.0106142234637 0.000121769602161)
(0.786028616149 0.0102594538847 -0.000760310368568)
(0.798176237969 0.0150580518407 0.000135028504339)
(0.800765052971 0.0168603318364 -0.000115309358795)
(0.784964119532 0.0115974962749 -0.000714630849009)
(0.800131070637 0.0187750316955 -0.00176557972263)
(0.803119553147 0.0193366610734 -0.00182653978483)
(0.784656555242 0.0131054934761 -0.00167907793149)
(0.785550370148 0.0102461942765 -0.00101705683013)
(0.801502515815 0.0182952976969 -0.00175819090713)
(0.784773628738 0.0124964112877 -0.00106315754608)
(0.802169798247 0.0202417497325 -0.00156212446635)
(0.801922290369 0.00987721113878 0.000791091159814)
(0.800787875619 0.00852142756005 0.00146141885999)
(0.786289243504 0.00740019216593 0.000554850403621)
(0.786314515305 0.00635933594166 0.000775624609046)
(0.800552629076 0.00999946261352 0.00109362212853)
(0.801945897771 0.00851652457783 0.000934833032677)
(0.787044849231 0.00704079193543 0.000298190030103)
(0.802102571366 0.0113437124541 -0.000114960608369)
(0.801104828899 0.0131473084101 4.54091674872e-05)
(0.786546080244 0.00779218105555 -2.51960702241e-05)
(0.787138168094 0.00786222852608 0.000261488270466)
(0.80069688686 0.0115306715286 4.16775393324e-05)
(0.802548100005 0.0126454970813 0.000323974715639)
(0.787219356933 0.00741142827533 0.000123783709558)
(0.803222789859 0.0108357055947 -2.02167751104e-05)
(0.804267256989 0.0107214879236 0.000530319544323)
(0.787546244939 0.00669380271315 0.000800048323836)
(0.788028024453 0.00628147711487 0.000949831614412)
(0.803574483279 0.0117252258424 0.000464660194311)
(0.804024206708 0.00998644299316 0.000106963602277)
(0.787700215342 0.00652455330699 0.000705147438615)
(0.803399706748 0.0150113490269 0.000171011763943)
(0.801621589429 0.0149831233908 -0.00061251881151)
(0.786257170478 0.00854996799587 0.000240729807197)
(0.786912216598 0.00797969160836 0.000698345019219)
(0.802328629981 0.016267366832 -0.000255727251991)
(0.802875864051 0.0140290259268 -0.000107425200078)
(0.786619836508 0.0082611646688 0.00108878404778)
(0.803449992923 0.0160767072315 -0.00068627281903)
(0.80385155162 0.0182248905328 -0.00206748236014)
(0.785688578697 0.0086344152798 0.000322296509921)
(0.785333382809 0.00834061018455 0.00058913376608)
(0.802748124201 0.017711553029 -0.00141831303601)
(0.786013214896 0.00825689577629 0.00122386350851)
(0.804089510821 0.0163476724082 -0.00141203512751)
(0.80411276456 0.013341084889 0.000520370563613)
(0.804422055238 0.0113418634715 0.000202950391114)
(0.787192604659 0.00687117774474 0.00126585489156)
(0.787005147451 0.00732641059245 0.00174935397623)
(0.803783093296 0.0127043736114 0.000312584875564)
(0.804640245627 0.0118810482271 0.000387879939374)
(0.786740425305 0.00721788176414 0.00170684365513)
(0.804068303541 0.0141726521994 -2.48047370568e-05)
(0.804336237935 0.0125611520462 -0.000659008286172)
(0.785480433645 0.00775431190659 0.00151294967906)
(0.786424378341 0.00751979809793 0.00209397709575)
(0.804524210469 0.0123990850854 -5.41093126521e-05)
(0.78624504256 0.00748243223599 0.00188492494969)
(0.804203432009 0.0144124711688 -0.000751154328072)
(0.804866283046 0.00913563170234 -0.000682815440134)
(0.804821295241 0.0100743671801 -0.000170786346519)
(0.787164794368 0.00697738851743 0.00136589367643)
(0.788077275397 0.00626875858848 0.00075001724264)
(0.804790238727 0.0104290732845 -4.25405206485e-05)
(0.805064705279 0.00903989540799 -0.000491157194349)
(0.787153695363 0.00705858296073 0.000801585884625)
(0.804232254704 0.0106801401845 -0.000908414129437)
(0.786479895885 0.00731373755758 0.00164137796692)
(0.804662835724 0.0106808291484 -0.000357004775694)
(0.817499446382 0.00374964375383 -0.000564897712993)
(0.818329598163 0.00180148768195 -0.000378548257541)
(0.818322960911 -0.000371955287245 -0.000402852045585)
(0.815273546407 -0.00303177077998 -0.000367576591241)
(0.810279300501 -0.00432092339826 -6.0831956116e-05)
(0.826879001305 -0.0460711954779 0.0002002487801)
(0.818249294296 0.00389969322493 1.00356563801e-05)
(0.8184252537 0.0019376898229 0.000608957781923)
(0.818334840847 0.000211172408727 0.000231857750651)
(0.815555876491 -0.00312737655654 0.000749209809853)
(0.810872042766 -0.00474341289271 0.00247588086894)
(0.828772699204 -0.0486304997647 0.00318764069655)
(0.816792038952 0.00572582443506 -0.000483624433125)
(0.813282496192 0.00581372601105 0.000607677134504)
(0.79023928947 0.0100512878024 0.00262761018857)
(0.78640125348 0.0101310730571 0.00165271527616)
(0.783326610609 0.0118458303659 0.00204500437606)
(0.778088239683 0.0109102957496 0.0050500247041)
(0.783476841957 0.0115999959532 0.000679023716986)
(0.734341628139 -0.0291761385482 0.0276842685852)
(0.826715927272 0.00458004879517 0.000304365212027)
(0.82430655747 0.00266885361724 7.73967042768e-05)
(0.820826612322 -0.000742394726396 -0.000651389361701)
(0.818357831166 -0.00216223644927 -0.00186534258098)
(0.81727058016 -0.00282318322118 -0.00305063616159)
(0.818012755953 -0.00356545721801 -0.00170284956265)
(0.813488229535 -0.00186753026687 0.00238200611196)
(0.824277685782 -0.0821384444057 0.0125137057995)
(0.8208257132 0.00582204327684 -0.00141798206721)
(0.823463796375 0.00349901186265 -0.000599874152239)
(0.822764585408 0.0020008721228 -0.00072987990542)
(0.820951525874 0.00104571997017 -0.00112541796961)
(0.819350840734 0.000152446743253 -0.00150757085249)
(0.820050339206 -0.00223605086639 -0.000625811130803)
(0.814244320458 -0.00427160804205 0.00175527230185)
(0.829771413635 -0.0662396633521 0.00501121383786)
(0.817247772529 0.00690631955699 -0.00114436816304)
(0.820289120485 0.00310859239089 -0.000412171483729)
(0.820105342371 0.0006981237135 -0.000318853003934)
(0.81927793639 -0.00139670495116 -0.000575067920326)
(0.817742035541 -0.00219967060036 -0.000996177099339)
(0.818077573637 -0.00403243194342 -0.000625904318426)
(0.812759929458 -0.00552169376925 0.000439203524618)
(0.829415653429 -0.0677748011802 0.00174158067994)
(0.816655527831 -0.000931005173148 -0.000538740171532)
(0.816619253139 -0.00273394197081 -0.000237734138521)
(0.811260568961 -0.0045450009182 0.000298609823237)
(0.829278817311 -0.0521832525085 0.000706347066989)
(0.64014949245 0.041322593003 0.00933836617251)
(0.637970771062 0.0395765891117 0.0144602400078)
(0.64797909971 0.023360404714 0.0196002301877)
(0.646354321041 0.0199439291858 0.0166803330449)
(0.646098092129 0.0206301793833 0.016857825088)
(0.639166471023 0.0216930486767 0.0208661002887)
(0.686069479701 0.0294354213924 0.0205669778134)
(0.478832311529 -0.0792088610551 0.0538106471667)
(0.774075883944 0.0130539901996 0.00590533717046)
(0.771064944967 0.00876090928663 0.00817690337148)
(0.77802237127 0.00174000889383 0.0130367809961)
(0.774238311903 -0.000649946673403 0.0133733949982)
(0.774206575068 -0.000464205688626 0.0144559833298)
(0.7775604635 -0.00177503152825 0.0163465709507)
(0.787718468901 0.0084666149969 0.0232622506748)
(0.797388086098 -0.147011627565 0.033876196475)
(0.82272710021 0.00652795665754 -0.00163501361133)
(0.824153267959 0.00444207332856 -3.79031139659e-05)
(0.822743735584 0.00297276647424 0.0012919293454)
(0.82049558811 0.00321212185178 0.00116789207792)
(0.820062051392 0.00267789809232 0.00143262176091)
(0.822153254046 0.000392661375374 0.00199054785975)
(0.818808100349 -0.00243284173049 0.00607791147865)
(0.850050613476 -0.097214476919 0.0107953128057)
(0.818316203238 0.00666702300792 -0.00187683544104)
(0.821026315701 0.00310807064657 -0.000140847958524)
(0.820029010042 0.00142131510213 0.00100164959895)
(0.818875443643 -0.000480313792222 0.000880294013859)
(0.817859113013 -0.00200358029661 0.000755592429268)
(0.819437243659 -0.00477164715032 0.00176682736972)
(0.814880774581 -0.00698499005637 0.00477407105617)
(0.836834884348 -0.0802362302114 0.00723101144881)
(0.816744232113 -0.000726703685812 9.33348897604e-05)
(0.817279219391 -0.0025110431514 0.000872317850152)
(0.812260861652 -0.00463611514488 0.00301414145452)
(0.832410524454 -0.0594943412098 0.00412761791563)
(0.637562620014 -0.0161723527036 0.0137057224406)
(0.633833248919 -0.0165231386664 0.0203735707981)
(0.640537606145 -0.0215620510251 0.0255453948518)
(0.636416511994 -0.02073485438 0.0228979955867)
(0.635616929935 -0.0202729426492 0.0223586320217)
(0.632419430196 -0.0170859092417 0.02472345827)
(0.686326706552 0.000560586933088 0.0377029369213)
(0.507281049058 -0.207655891643 0.00358377334421)
(0.736577396066 0.00524936072966 0.0178650296884)
(0.736870285813 -0.000186794063575 0.0227946180319)
(0.786202360571 -0.00251090419063 0.0121737821731)
(0.783670700619 -0.00305726902896 0.0122721299764)
(0.783074595873 -0.00353589681629 0.0103496392076)
(0.787456395999 -0.00382970774214 0.00922173192687)
(0.802044137666 0.00637706194586 0.00784489964661)
(0.835911418856 -0.160682624856 -7.6793142245e-05)
(0.825485342298 0.00608383028794 -0.00496492935564)
(0.826992847947 0.00438166484278 0.000195986395723)
(0.824652601897 -6.15952881873e-06 0.00184226950474)
(0.820948584691 -0.00254414303886 0.000868440180078)
(0.820434776756 -0.00381867243451 -0.0010764205201)
(0.824164776241 -0.00548247463034 -0.00107644609848)
(0.822242888343 -0.00882137001849 -0.0011287411351)
(0.868919893689 -0.124673641615 -0.00319706817441)
(0.813973977631 0.0105290046991 -0.00727338283141)
(0.820902674533 0.00702485009452 -0.00410549643124)
(0.823270052423 0.00295704825224 -5.33476318646e-05)
(0.820844360517 4.42598733177e-05 0.00114756959495)
(0.819535870606 -0.00173351080524 0.000208900358515)
(0.818810134126 -0.00363131407739 -0.000646424725007)
(0.821303132682 -0.00565048420805 -0.000263558022279)