/*--------------------------------*- C++ -*----------------------------------*\
| =========                 |                                                 |
| \\      /  F ield         | OpenFOAM: The Open Source CFD Toolbox           |
|  \\    /   O peration     | Version:  v1906                                 |
|   \\  /    A nd           | Web:      www.OpenFOAM.com                      |
|    \\/     M anipulation  |                                                 |
\*---------------------------------------------------------------------------*/
FoamFile
{
    version     2.0;
    format      ascii;
    class       volScalarField;
    location    "11.75";
    object      alpha.water;
}
// * * * * * * * * * * * * * * * * * * * * * * * * * * * * * * * * * * * * * //

dimensions      [0 0 0 0 0 0 0];


internalField   nonuniform List<scalar> 
28582
(
0.999998423662
0.999999358122
0.999998410925
0.999998974693
1.00000094788
1.00000051452
0.999990070155
0.999983997759
0.0585261389637
0.0602189834019
-1.44238475373e-27
0.999988486502
0.855153034128
0.854055822332
0.99998379854
0.999992080043
0.854511218838
0.997601171009
0.997810354368
0.999998655417
0.999998685686
0.999993137084
0.999998957019
0.999998369811
0.999994735195
1.00000127379
1.00000004846
0.999988958341
0.999983926842
0.0609401200731
6.66408565214e-07
-2.2153660664e-27
0.999987326005
0.99998831265
0.864793163406
0.859330358947
0.998497797627
0.999983479401
0.999989569208
0.999984369223
0.997681116228
0.853780107029
0.997841371013
0.997995104397
0.058831698345
0.0594848366184
0.000211335091577
0.000364208155817
0.0595534520039
0.000346532420137
0.998261311411
0.998228734397
0.853352637109
0.85625888131
0.99831042384
0.854539202993
0.998152660698
0.998105195833
0.997848946358
0.853555634266
0.854711560755
0.997951259172
0.854478343817
0.998019080256
0.997577720986
0.997599043096
0.855062127192
0.854938154853
0.997739183698
0.855106812163
0.99747606237
0.997529965355
0.856719993977
0.855895650968
0.997573695785
0.85567343585
0.855389826811
0.997482990326
0.997947799736
0.856734062124
0.857120664207
0.997806532568
0.856497513211
0.997964076898
0.856020225495
0.0586674951084
0.000522513010147
0.0579644902713
0.0585152746833
0.000424380916524
0.000480742998211
0.0607104406364
0.000219126317412
0.000331826240544
0.061653988723
0.000253948647407
0.0615702937901
0.000293594894856
0.998539151634
0.998496764438
0.862735257162
0.864946655159
0.998486093361
0.998553107252
0.862164343899
0.998469065232
0.998266503698
0.861143935306
0.857768387073
0.998419719461
0.998301162053
0.860142717215
0.858869757446
0.856261068836
0.998362386148
0.998476336787
0.856763396314
0.998332569022
0.85920901451
0.997611383485
0.856321962317
0.85596763376
0.997796412733
0.855496132049
0.997688417771
0.855868671364
0.997931931129
0.997858317705
0.854741031103
0.855053028574
0.997779883059
0.998064648944
0.855647430801
0.997971607499
0.997957201834
0.856842337435
0.857355130039
0.857535737517
0.997904034153
0.856998662595
0.85746946918
0.857228694763
0.998026993328
0.998016466657
0.855698898404
0.998083658454
0.856727175448
0.999999754714
0.999984226418
0.0626450118638
-2.13785559317e-27
0.999986268641
0.854036291367
0.99998041809
0.999979421336
0.852811807941
0.856622994787
0.85033421858
0.999981693343
0.999985478571
0.848301218472
0.845624776548
0.0593216386793
0.0627896013254
0.0641352464199
0.000271884248293
0.000271607481809
0.000271714424449
0.0653947726845
0.06624607169
0.997929558719
0.998187905525
0.854446567822
0.852083920724
0.998134933458
0.852281282009
0.997998820175
0.998170803149
0.997888177029
0.851784125305
0.854045110462
0.997897735014
0.998161612616
0.852810056546
0.99804354886
0.998069236499
0.854121396145
0.854851668418
0.998072186278
0.852494743434
0.998049493745
0.997998522458
0.997943223571
0.849725337259
0.852709674348
0.997961116819
0.851020572946
0.997995134302
0.997965433781
0.997879089857
0.848303199263
0.846841189751
0.997950186805
0.847186305325
0.997818026058
0.998007616697
0.997833254066
0.845096390926
0.846087110684
0.998056082042
0.845881762505
0.997819547295
0.999999976327
1.00000216466
1.00000072443
0.99999954226
0.0503287584616
0.0563388038051
0.048849037264
0.0533823371995
0.052231407828
1.57201728652e-06
3.28055462011e-06
6.27177724812e-07
-2.07158783139e-25
6.61744490042e-25
-1.57987325887e-27
1.00000173999
0.999999544405
0.876684884846
0.881794461836
1.00000946983
0.882576499028
0.999995634025
0.999999870684
0.8840275574
0.889755054007
0.999999723868
1.00000846784
1.00001180095
0.884457542705
0.887792655766
0.890227178407
0.89122223583
1.00001198895
1.00000989959
0.888801025334
0.890644635583
0.891069735767
0.889299031857
1.00000125665
1.0000034242
0.890760244563
0.891366909233
0.892891355721
1.00000010196
1.0000021816
1.00000245829
0.89118218245
0.889109958021
0.892382956698
0.889275969244
0.892201022864
0.88870113806
0.0477629409301
0.04700161006
0.0513712826928
0.000213483065156
0.000142663579958
0.000172274119408
0.000120678441932
0.000118824539925
0.00010532715147
8.14775997491e-05
7.78655901145e-05
0.0459432255599
0.0454379323549
0.0540319427657
0.0492708054078
0.05262820262
0.0001413934717
9.77984348528e-05
0.000150464926513
0.000112620966669
0.0559526085667
0.0545983709584
0.0549041794687
4.54388888784e-05
4.93429029393e-05
6.01511735525e-05
5.88684608918e-05
0.051674554998
0.0512178024764
0.000155748082581
0.000118030935957
0.000125290144042
0.0539761202125
0.0525732045514
0.0534180728041
8.63275916998e-05
6.78634598698e-05
0.000103343133968
9.08458484483e-05
0.998977921129
0.998993556989
0.874110429031
0.877241674336
0.998988026588
0.875399724708
0.998979768559
0.999061334779
0.99907800307
0.879474915606
0.881094965744
0.999031026657
0.999107549471
0.87841728699
0.999009939496
0.999074742476
0.880471920042
0.883645648355
0.999026314433
0.999029789692
0.881890020249
0.999229441758
0.999148656051
0.883559573261
0.886243981216
0.999195470843
0.999182721413
0.885752512713
0.999312849595
0.999298567186
0.888135399435
0.889530031505
0.99927967493
0.999340218766
0.887782062815
0.999007427461
0.999095779535
0.884994356372
0.887097297807
0.999006669906
0.999111187594
0.887676788886
0.998905811524
0.998963238307
0.885894176096
0.88923680147
0.998957222541
0.998904375623
0.887937959413
0.999142092713
0.999250982882
0.888787260726
0.890693047545
0.99923368102
0.999181267783
0.889035154119
0.998999571487
0.99899915498
0.889812274794
0.890764545185
0.998926391003
0.999087790176
0.889133822782
0.998957525798
0.998970092192
0.890204847445
0.890051261493
0.998977488027
0.998922816467
0.890911402456
0.99899276175
0.998970060526
0.890777195891
0.890193826994
0.998982626934
0.890626054311
0.998998276807
0.998918871969
0.998939535526
0.890185279427
0.89088697837
0.99892291538
0.998921265144
0.890639545351
0.998922985112
0.9988889003
0.889628331851
0.890271400028
0.998911774502
0.890284012809
0.998917434055
0.999298230339
0.99931808341
0.891021625494
0.891772812151
0.999258907862
0.999335363857
0.892127509457
0.999224911379
0.999072406501
0.891039587714
0.892181394204
0.99916868642
0.999137888156
0.892098066204
0.999274051352
0.99924390553
0.892135052547
0.893095705232
0.999193218311
0.999340964865
0.892203864457
0.998965877909
0.998976111818
0.890762838204
0.891806167662
0.998900647661
0.999041941986
0.891140076888
0.998906443067
0.998813833295
0.890010752205
0.889088400076
0.998853372736
0.890201822399
0.998840978254
0.999038708406
0.99915377509
0.891769884314
0.891626409456
0.999110833766
0.999093151113
0.891037975317
0.998981478449
0.998993435098
0.888863596119
0.890535870573
0.999047981953
0.890034288733
0.998924561279
0.999131027939
0.999182369696
0.891159120299
0.892321479347
0.999120629017
0.99920052298
0.891220225225
0.99903162546
0.889972704167
0.99907821629
0.999999440496
0.999999390694
0.999998738848
0.999988439293
0.999990969243
0.999993667545
0.999999591405
0.999999561139
0.999998658926
0.999988670774
0.999991372673
0.999995113277
0.999986289396
0.999957313974
0.999997520108
0.999993119688
0.999946630168
0.999942895708
0.999974055818
0.999994871259
1.00000204165
1.00000181803
0.999994070057
0.999993143087
0.999993368797
0.999986827283
0.999979787079
0.999979777391
0.999995452432
0.999996207428
0.999997888135
0.999997967809
0.999994426375
0.999984881336
0.999989171301
0.999996048267
0.999996946522
0.999999479732
0.99999944499
0.999997110188
0.99998996863
0.999988161492
0.999994627526
0.999997706617
0.999991060144
0.999988303008
0.999992241841
0.999997672394
0.999773498133
0.99995078759
0.999983880466
0.99990005282
0.999896558745
0.999955986345
0.999990724229
0.999992035064
0.999934534061
0.999917689568
0.999989504113
0.99998326416
0.999924145118
0.999930453306
0.999975130941
0.999995883506
0.999975353514
0.999971141782
0.999985197784
0.999993980106
0.999987609547
0.999974350742
0.99997894671
0.999994280671
0.999998886703
0.999999061552
0.999998878277
0.99999775968
0.999996436108
0.999996408818
0.999996993813
0.999997468175
0.999994292682
0.999991531812
0.999994174568
0.999997815942
0.999824771891
0.999849486388
0.999984034857
0.999933070279
0.999934392767
0.99997661898
0.999997774319
0.999997740877
0.999812430392
0.999689270609
0.999984744529
0.999988511627
0.999968866806
0.99996936166
0.999987752551
0.999998958555
1.00000001866
1.00000031408
1.00000054425
1.00000021529
0.99999934315
0.999998324083
0.999998449686
0.999999502706
1.00000084272
1.00000108163
1.00000067111
1.00000036802
1.00000027385
1.00000009058
1.00000005595
0.999999992148
1.00000007218
1.00000160013
1.00000113843
1.00000056337
1.00000028962
1.00000039964
1.00000048691
1.00000064416
0.999999367639
0.999999548201
1.00000011855
0.999925018128
0.999752872191
0.999944022522
0.999994143363
0.999995519919
0.999998463609
1.00000604223
0.999998128152
1.00000017391
0.999985930458
0.999983322136
0.999984705841
0.999993130488
0.999993701019
0.999991905401
0.999985151434
0.99996092083
0.999998178321
0.999992677748
0.999992410856
0.999992717966
0.99999155284
0.999987938795
0.999988975788
0.999990677804
0.999989674317
0.999980632329
0.999996841312
0.999992031567
0.999985670537
0.999978813803
0.9999803328
0.999987581148
0.999990074554
0.999990659984
0.999988852231
0.999983931703
0.999972900336
0.999972744542
0.999972644032
0.999979887442
0.999985580057
0.999985383811
0.999987306175
0.999989507183
0.999990976702
0.0505838089964
0.0533193740985
0.0571911844216
0.0602044727273
0.0665241719465
0.0699208365965
0.0701297898666
0.0698985889471
0.0540442611909
0.0513857810923
0.0520148843424
0.0536966988044
0.0564079189762
0.0575485660801
0.0615154569908
0.064441038182
0.066148630776
0.0663602482964
0.0536210669706
0.0540860782729
0.0549355781497
0.0551353805589
0.0563695734906
0.0575065889831
0.0589996945202
0.0616505942947
0.063004799447
0.063891868806
0.0559504093413
0.0571102228385
0.0574306247389
0.057972478472
0.0585832275066
0.0592315369214
0.0617194714366
0.0629054928939
0.0649507760453
0.0592004372115
0.0599094368633
0.059223600626
0.0616339052513
0.0633826909369
0.0651909992587
0.0667917336951
0.065028170428
0.0667142172887
0.0666432241425
1.21655448612e-06
4.73908182371e-07
-1.57266502835e-25
1.49326450916e-06
3.79039274532e-05
2.45458273194e-05
-9.67732121601e-27
-5.34010091832e-29
-1.5218354817e-27
5.44936759064e-05
1.99487250028e-05
1.25294701656e-05
2.74125157547e-07
2.81478697062e-07
5.59489988684e-07
6.12934067994e-05
-6.93669590232e-27
-5.35235547252e-26
-1.94847687563e-26
3.80412243435e-05
2.78603584194e-05
8.97809701322e-07
-2.83078789667e-28
1.00772530937e-06
2.70877292391e-07
-5.92435010876e-26
4.37737071176e-05
-1.6469258419e-24
-1.58753497453e-24
4.76008664222e-05
1.57872462965e-06
5.94535606538e-26
2.11646837621e-06
-1.04513257867e-27
-1.29660243934e-28
9.72952313283e-06
-7.40726559289e-25
-8.70084378825e-25
5.95688996172e-05
3.82570746246e-07
-8.27180612553e-26
4.81299389067e-05
-1.73689568505e-26
-1.04933710763e-25
-1.64804969281e-25
6.03899258867e-05
-2.22515460579e-27
-4.45229947018e-26
6.8784650586e-05
0.999954697282
0.99999766865
0.999998345622
0.999859009438
0.999822709002
0.999938330351
0.99990582415
0.999983057368
0.999997874658
0.999997010043
0.999911129964
0.999987463552
0.999932423246
0.999980608548
1.00000241603
0.999995382181
0.999999393587
0.999996230854
0.999996993798
0.999998774217
0.999999841731
1.00000016644
0.999999645675
0.999998814964
0.999996419036
0.999996749272
0.999999771974
0.999996281236
0.999819181947
0.999855406883
0.999776268362
0.999828942119
0.999725577058
0.99979929909
0.999722724282
0.999995535991
0.999901950952
0.999983988375
0.999897665882
0.999987053275
0.999895560843
0.999986175951
0.99989853597
0.999991194333
0.999991820156
0.999908900809
0.999749803511
0.999991187108
0.99990128704
0.999967452661
0.999987858904
0.999975512427
0.999821352432
0.999943177902
0.999828552478
0.999906136173
0.999665017051
0.999822831896
0.999647529363
0.999642442985
0.999583397612
0.999743919108
0.999583591009
0.99997396274
0.999841300208
0.999971376915
0.99967595875
0.999912109908
0.999683515563
0.999912135243
0.999654541264
0.999971555628
0.999927516374
0.999903193368
0.999863315993
1.000002389
1.00000103267
0.999879915291
0.999904174095
0.999925461462
0.999862229564
0.999903298995
1.00000009732
1.00000004214
1.00001685912
0.999995912147
0.878130745308
0.878054928428
0.99974107022
0.999936003002
0.999873796747
0.878419891246
0.880332832137
0.877903644878
0.878876617109
0.99985393622
0.999877129503
0.999912486553
0.880203878167
0.875196440677
0.878567528339
0.873433162141
0.999989919703
0.999962130262
0.999993369976
0.87101517803
0.851324864977
0.870038686668
0.856521866185
0.999997385816
0.999996069059
0.999994048818
0.846179973071
0.835619393591
0.854157890303
0.850870803413
0.99999839888
0.999993577466
0.999991952666
0.833482191098
0.836250157342
0.849931052043
0.848451537968
1.00000147604
0.999990322612
0.999990409462
0.838222036613
0.844663256938
0.848464834286
0.847449510834
1.00000830275
0.999992444069
0.999998323491
0.844576551811
0.837171655361
0.845203648854
0.831437230448
0.999852648279
0.999993714946
0.999942236889
0.842920800968
0.789839770996
0.835626820416
0.830394169837
1.00000415223
0.999999471892
0.890182591484
0.885399990269
0.888082409343
0.883357011654
0.999990163746
0.999993827237
0.999992079238
0.88343897651
0.878373604418
0.881551213335
0.876465163915
0.999985111084
0.999994276275
0.999998695075
0.877721959243
0.878287651043
0.875062552864
0.873923033252
0.999981445404
0.999999903357
0.999999309365
0.878089353212
0.874843422365
0.873631335877
0.871575699236
0.999990649965
0.999996832108
0.999992151888
0.871112323986
0.857715298995
0.870075622668
0.864809826265
0.999994494382
0.999990962707
0.999989320959
0.857836953524
0.856124712016
0.864130988581
0.862490083608
0.999992322475
0.99998853756
0.999988696454
0.854595590811
0.851106522715
0.862012572899
0.860733849082
0.999989331691
0.999987296785
0.999986872842
0.850439416415
0.84816214307
0.859146225809
0.849118017989
0.999976282787
0.999985023431
0.999981899455
0.845436676027
0.830666230513
0.84582762355
0.837904669066
0.999937726238
0.999968660754
0.999970944147
0.834804827018
0.833369713726
0.841786210159
0.83600925903
0.999996253963
1.00000036696
0.999999496004
0.887908122642
0.883207140677
0.887922108409
0.881905575369
0.999992560154
0.999996517749
0.999992238062
0.881328733637
0.874212561606
0.878870257997
0.869100218274
0.999992700658
0.999992453878
0.999992053101
0.872527646567
0.871766061706
0.867446697974
0.867790609271
0.999992795156
0.999993875835
0.999993081153
0.871820554039
0.870763539088
0.867847705878
0.866661705553
0.999990154411
0.999992948806
0.999991286701
0.870030791146
0.866085558729
0.866152935946
0.865335664845
0.999988067156
0.999989689999
0.999988984751
0.864639269514
0.861937616587
0.864622676643
0.864267492795
0.999990387466
0.999989230439
0.999991700299
0.862404561094
0.862335664165
0.864819303682
0.859548219845
0.999989961866
0.999990987821
0.999990808747
0.858908625545
0.84902987251
0.854564827208
0.84730036153
0.999987666801
0.999991725955
0.999990550236
0.847139401126
0.841443375583
0.847055694847
0.844810417879
0.99998286599
0.99998508206
0.999986697732
0.844989619733
0.835846630381
0.847913643667
0.835845420929
0.887038182634
0.880229949998
0.999994456063
0.999993877201
0.877456918539
0.868064014023
0.86693048944
0.999989413695
0.999990947452
0.99998737647
0.86651711494
0.865986402399
0.865049359665
0.860760217488
0.999980870237
0.99998445403
0.999979715187
0.86574928574
0.864097064387
0.859299362238
0.856528962996
0.999979038853
0.999980445288
0.999981755443
0.864220248802
0.864328466974
0.857303277574
0.860727260695
0.999982472396
0.99998370437
0.999987186739
0.863690858874
0.863599104775
0.859915740204
0.857017643921
0.999988562231
0.999988969667
0.999989387042
0.863584218408
0.856657114308
0.856379355647
0.851895420467
0.999990868884
0.999990095354
0.999990492642
0.853562659057
0.848000403915
0.850136735544
0.846076306038
0.999989973254
0.999991296344
0.999990308734
0.84725597728
0.843692519191
0.844925282967
0.840516413415
0.999991246026
0.999988541196
0.999990928321
0.846908302866
0.835761101918
0.844157499785
0.834877709827
0.999976413903
0.999982921055
0.857338357344
0.85563379571
0.853239371592
0.999971930116
0.999982608778
0.99998164287
0.856702551455
0.858948752752
0.854130215092
0.857100275384
0.999971646291
0.999980915831
0.999980059745
0.858923461806
0.855423151307
0.857263401479
0.853568901342
0.999975745739
0.999980279958
0.999982427275
0.85426851653
0.851402384474
0.852656147747
0.849310730265
0.999984717692
0.999985822024
0.999988959457
0.849339178256
0.84510851334
0.847501884482
0.843333668775
0.999985279968
0.99998912487
0.999987843901
0.844241461332
0.839641181092
0.842995151732
0.8378670525
0.999989740204
0.99998740502
0.999992852079
0.84360028695
0.834520449616
0.842253801921
0.834162676195
0.999986194363
0.849211349586
0.999989146146
0.847498928154
0.843638124498
0.999990071141
0.842911643313
0.836805026748
0.999995570874
0.841450088884
0.834561260921
9.02834620384e-05
5.09076441396e-05
9.46606548418e-05
4.55005289228e-05
0.0491670370186
0.0502235800506
1.30785254361e-05
8.92412155004e-06
1.43192959914e-05
1.47379078152e-05
0.0520123974596
0.0512996493214
0.0522480262694
1.33216075631e-05
2.23354770497e-05
3.04741704734e-05
2.98020869755e-05
0.0555781970655
0.0533594886738
0.0553715381015
4.63170579773e-05
0.000158287651801
4.47480617797e-05
0.000144723206332
0.0585209869987
0.0564019937337
0.0576039665442
0.00074562792273
0.0011952241902
0.000715800094487
0.00113741682853
0.0623981080609
0.0591779602049
0.0611292292279
0.00117355342132
0.000979262650057
0.00111445968243
0.000793351767758
0.0687731952212
0.0637945606139
0.0656728463695
0.000509916649685
0.000378951949795
0.00036554792625
0.000288858126065
0.0701343446125
0.067215119953
0.0679441185384
0.000386605150664
0.000392272429226
0.00031156151618
0.000344144178211
0.0701068090083
0.068082909788
0.0686259180899
0.000504183028607
0.000516410003244
0.000391366093035
0.000387776022268
0.072624387381
0.0674481978914
0.071965722241
0.000501093512584
0.00126957055196
0.000457592826875
0.000738549865596
0.0522324185893
0.0538225333481
0.0529804259191
0.000213546210064
0.00022587535768
0.000272966367611
0.000307131746615
0.0514268471202
0.0530535937128
0.0530689258381
0.000182252994086
0.000145420191915
7.88355565642e-05
9.6191706049e-05
0.0526024965473
0.0531725834101
0.0533468171822
5.09887435409e-05
2.71885017188e-05
5.13707911208e-05
3.83024274726e-05
0.0551278353108
0.0541768278947
0.0553038950304
1.8933755395e-05
5.34253396734e-05
4.00745989818e-05
8.81739626676e-05
0.0572444557657
0.0562641090134
0.0567612803426
0.000309343441439
0.000858552350155
0.000235913106105
0.00047026445493
0.0594485341777
0.056946104416
0.0585187704722
0.00136002636837
0.000891292100571
0.000788904877708
0.000718687088213
0.0629105887589
0.0602078088478
0.0613008780332
0.000320208745718
0.000247982302989
0.00028485114198
0.000208580291881
0.0655564573014
0.0625343949789
0.0635507966103
0.000235874367415
0.000211982073758
0.000193979960763
0.000179845039686
0.0671504068934
0.0643044165336
0.0650820521111
0.000241409117461
0.000228110444594
0.000159729545299
0.000162873908278
0.0711701001358
0.0648241781719
0.0695063487491
0.000334364847964
0.000586607796899
0.000279490173831
0.000630671485769
0.0534352130506
0.053602618725
0.0539048176854
0.000248234969559
0.000258016655659
0.000257507963716
0.000386667381013
0.0545677501452
0.0551118165253
0.0556854662746
3.74610353572e-05
0.000111952268556
0.000127540063072
0.000232516080553
0.0548398074653
0.0561099721944
0.0560916208415
0.000112334609961
6.13850764259e-05
0.000213384533224
0.000170443485247
0.0558342620331
0.0562247434926
0.0566345258928
8.10973698545e-05
0.000125813421141
0.000159088902671
0.000202506566155
0.0566566266245
0.0569953684276
0.0571341991536
0.000195189442432
0.000220243797453
0.000223695403001
0.000199799649616
0.058305389302
0.0577762989343
0.0580871866236
0.000253977827734
0.000401154291817
0.000243673749362
0.000395534926896
0.0602775379055
0.0583486055984
0.0598598325662
0.000652889238742
0.000478322972105
0.000861903559214
0.00085980698545
0.062397041701
0.0615107501883
0.0620936634189
0.000234252739369
0.000176616421394
0.000278603695997
0.000177756340303
0.0636621668851
0.0625819986397
0.0634657898038
0.000151998789384
0.000154417181693
0.000148734358105
0.000149550378856
0.0682935216723
0.0641086260973
0.0682857148167
0.000282200634485
0.000774648036267
0.000275122949169
0.000972780505672
0.0567531719794
0.0573460261049
0.00020489407667
0.000313064514005
0.000375615920406
0.057234289051
0.0577533991544
0.0580887001316
0.00029083613597
0.000287641547793
0.000369810009101
0.000394563217747
0.0577669951836
0.0584703712097
0.0588990423993
0.000318148936731
0.000335786103815
0.000463508293217
0.000491237147368
0.0581495639271
0.059149002076
0.0591702145753
0.000358573094509
0.000360153483728
0.000505799518813
0.00056584530495
0.058775918103
0.0594704223323
0.0598067096024
0.000368405550183
0.00048491460008
0.000562093899357
0.000552957701577
0.0602790694085
0.0600290262154
0.0611737848241
0.000722022627448
0.000741897790019
0.000679023896433
0.000562254959013
0.0623256380393
0.0625183285889
0.0632523609403
0.000276806567112
0.000188763327374
0.000270385470767
0.000206291516279
0.0642526099598
0.0640318433374
0.0656073401034
0.000159182712406
0.000160072849653
0.000175914453468
0.000176350944501
0.0685724946025
0.0659964046684
0.0689279264584
0.000287130368934
0.00112710177439
0.000301824015356
0.00121038352811
0.0596309393388
0.0597580580638
0.000545059809812
0.000529824822453
0.000602393066307
0.000563149388908
0.0597645246045
0.0600961607928
0.0598750079912
0.000474560898985
0.000664790113735
0.000469300532618
0.00062643712286
0.0604796228654
0.05967346258
0.0611462293587
0.00118354782502
0.00061254353728
0.00105801331195
0.00048720947469
0.0625403469726
0.0624382374072
0.0634439541108
0.00032733083731
0.000308731782753
0.000277934932485
0.000287929106978
0.0643229590983
0.064467293203
0.0654988288183
0.00029427179932
0.000291616152316
0.000313324230727
0.000346632547603
0.0668022636594
0.06623285543
0.0675564202631
0.000264511293946
0.000249408786165
0.000312975936202
0.00031838570896
0.0689639612206
0.066961334748
0.069060233916
0.000355276803855
0.001192972702
0.000432268236524
0.00118424952578
0.063863428851
0.000280119932255
0.0661139627112
0.000298609336441
0.000337332149661
0.000279252954255
0.000275054313631
0.0678202286545
0.000322681913415
0.000334097963303
0.000248744686172
0.00026581365166
0.0687263435424
0.00047490756683
0.00124272885698
0.00042337289212
0.00131779235392
0.998930222824
0.999000716755
0.878799571323
0.878634913396
0.998968815036
0.879920577876
0.998918002677
0.998877795729
0.998861000697
0.877775696268
0.879639232023
0.998905321428
0.998830583728
0.878912568256
0.999167109648
0.999145932525
0.879217847325
0.878708019642
0.99905471522
0.879255740582
0.999264428085
0.999247201389
0.999301821274
0.879543111606
0.880167067921
0.999267411114
0.879542915294
0.999301671142
0.999100036473
0.99892706044
0.877941778894
0.878310810853
0.998979857934
0.999026481908
0.878580799812
0.999207259248
0.999187878481
0.879650097788
0.878584757735
0.999247737773
0.999131569853
0.878948688312
0.999263204755
0.999302318023
0.879835633233
0.879959566167
0.99927274806
0.879596841847
0.999303105858
0.999226404456
0.999214255229
0.877634009843
0.87461366766
0.999150598599
0.877348423706
0.99928242962
0.999246440616
0.999195885697
0.879529838141
0.878013991197
0.999251333588
0.999193097637
0.879213178726
0.999217761799
0.99912384425
0.874061751748
0.87583388238
0.999148515302
0.999177113192
0.877065077593
0.998860539102
0.999091930583
0.864971346155
0.870305566141
0.999027812874
0.864124552291
0.998889513187
0.998706877814
0.998456888595
0.858539525903
0.852193655255
0.998525349726
0.858023005855
0.998684050315
0.998910905284
0.999042150787
0.870268122479
0.865358518227
0.999026856778
0.998956128268
0.865007963108
0.99881741815
0.998800583869
0.854985766528
0.860795527702
0.99871928145
0.998882480963
0.860001554068
0.998201489721
0.998202263208
0.840395839017
0.847852827761
0.998362446596
0.844096482333
0.997981310738
0.99801119145
0.997556217075
0.838080437783
0.840362283787
0.997820031736
0.842429056461
0.997742251115
0.998453304103
0.998696129981
0.851832523458
0.85196494551
0.998592501631
0.998574861224
0.848270705529
0.99827751588
0.998228614425
0.84583184288
0.851437031771
0.998065207904
0.998418140351
0.847089402868
0.997330795132
0.997277825465
0.833924035419
0.838458464703
0.997573893928
0.838593307698
0.997129683906
0.997289200247
0.997181396946
0.83481014857
0.840220594641
0.997320395927
0.839109767522
0.997127643982
0.997485824028
0.997971456882
0.844369508846
0.848661368959
0.997786074306
0.997658399888
0.842864130791
0.99741326389
0.997491043099
0.843416300725
0.848151549237
0.997428731959
0.99749304017
0.842889251488
0.997583269103
0.997314707943
0.841139114597
0.841491284916
0.997407188335
0.843562935409
0.997523192935
0.997782498432
0.997996687612
0.842965676428
0.846079982605
0.998031510045
0.844745483765
0.997750597239
0.997650738415
0.997532553236
0.843985086697
0.848624910166
0.997500980309
0.997658345669
0.844885339957
0.997852115563
0.998112605531
0.845580901711
0.848334266794
0.998116924337
0.997854137482
0.845222941029
0.998190300446
0.998171575537
0.843757315777
0.844702161777
0.998198739154
0.842518449353
0.998201569289
0.998027720641
0.997902428078
0.840690711214
0.834008912442
0.997820855695
0.838835517457
0.998076793806
0.998125915497
0.998094199032
0.844447234723
0.842234144134
0.998141427194
0.998027727671
0.842460482183
0.997938558461
0.997591309806
0.833077867568
0.837587743712
0.997719293352
0.997794573016
0.83839821845
0.996378761547
0.997435393769
0.838725085826
0.837809097481
0.997363170351
0.836072918378
0.996239046117
0.993323007597
0.990548192224
0.820147422275
0.828952039977
0.820163118229
0.992177944524
0.991379321657
0.996429647853
0.99728229084
0.837617559034
0.833466622749
0.997337619071
0.996542393714
0.834051431844
0.993686792566
0.99523738529
0.828135285053
0.802863429833
0.994465979394
0.799476869587
0.994396251638
0.998904742507
0.998927607688
0.889124767937
0.889538294269
0.99885387631
0.888235024343
0.998981126181
0.99878648455
0.998714921274
0.887511367023
0.884473051265
0.998786615084
0.99866845002
0.886557205341
0.998801024275
0.998833495596
0.888640757699
0.886548633662
0.998726306848
0.887256190976
0.998889037657
0.998670994754
0.998525412838
0.884048805918
0.884973713944
0.998568933976
0.998612250259
0.885680892092
0.998614120878
0.998665542679
0.881594615243
0.88272027025
0.998661331262
0.998625598554
0.881149648971
0.998615191775
0.998702956832
0.879922082083
0.878132485001
0.998670138049
0.998640290754
0.87957912512
0.998537007674
0.998510808629
0.882303186754
0.880042390404
0.998546929727
0.998513983346
0.880798103941
0.998541742754
0.998560905947
0.87781031065
0.878195457036
0.998562611443
0.998528977039
0.879360019921
0.998785793813
0.998762962543
0.87776194491
0.877333649835
0.998849738562
0.998703693621
0.876841791224
0.998856362409
0.999003402813
0.878025955789
0.876595553545
0.998947076703
0.998902425065
0.876590313531
0.998678445016
0.998616684085
0.87687748732
0.873583219787
0.998606928367
0.998694981185
0.876111353887
0.99875656948
0.998820799105
0.875580289098
0.873819705628
0.998816908722
0.998782485092
0.875863878559
0.998924114739
0.999012577932
0.877555544435
0.876387934075
0.99901207962
0.998927885303
0.87594485145
0.998911088055
0.998932856725
0.876512361001
0.873805380591
0.998992818863
0.998879879681
0.874999579811
0.99883495215
0.998836599802
0.875309069585
0.872881875176
0.998837060308
0.998836673544
0.874978474079
0.998825620574
0.998778987741
0.87357293994
0.872073840905
0.998793933117
0.998824512416
0.874333907074
0.998727122056
0.998851977791
0.866003058128
0.870762076098
0.998745665207
0.998811974206
0.867063563435
0.998619277285
0.998540862734
0.861830057448
0.859785979432
0.998630991427
0.998510788683
0.863516428995
0.998619974234
0.998701693265
0.871335005462
0.86834304444
0.998721907089
0.998602758029
0.8687083735
0.99849091473
0.998374968304
0.862684981738
0.866686372564
0.998367904518
0.998489315914
0.866056849143
0.998240563551
0.998429538523
0.857525310652
0.859721178164
0.998277487397
0.998395570613
0.859605911182
0.99804168226
0.997845885988
0.857067366159
0.85866743121
0.998084942529
0.997802859667
0.859222973639
0.998122480058
0.998252180095
0.862743722368
0.863522178384
0.99825034821
0.99813901827
0.862382330074
0.997992805159
0.997855108879
0.861061952652
0.862781882111
0.997835896346
0.998009831063
0.861651652435
0.997226206837
0.997559035627
0.852698488046
0.857809912464
0.997217983659
0.997508884617
0.856807691755
0.997127910212
0.997123531912
0.851641566926
0.855615093654
0.997100164941
0.997133312885
0.855944935327
0.997531862928
0.997712573277
0.860283975685
0.861476613336
0.99765492829
0.997668064642
0.85920206661