/*--------------------------------*- C++ -*----------------------------------*\
| =========                 |                                                 |
| \\      /  F ield         | OpenFOAM: The Open Source CFD Toolbox           |
|  \\    /   O peration     | Version:  v1906                                 |
|   \\  /    A nd           | Web:      www.OpenFOAM.com                      |
|    \\/     M anipulation  |                                                 |
\*---------------------------------------------------------------------------*/
FoamFile
{
    version     2.0;
    format      ascii;
    class       volVectorField;
    location    "12.45";
    object      U;
}
// * * * * * * * * * * * * * * * * * * * * * * * * * * * * * * * * * * * * * //

dimensions      [0 1 -1 0 0 0 0];


internalField   nonuniform List<vector> 
28582
(
(0.815776695217 0.00466375017301 -0.000519498812942)
(0.81690217408 0.00396027066608 -0.00060641346782)
(0.816327755588 0.0049133685962 0.00039241547623)
(0.817306769155 0.00399395142133 8.19558090524e-05)
(0.816023035152 0.00512131638066 -0.000249364027334)
(0.817374461623 0.00415285807261 -7.44286434388e-05)
(0.821547432919 0.00526134005111 0.00225338864759)
(0.820437430649 0.00436594051001 -0.000258116658654)
(-0.170130990511 0.046796267815 0.00404174485604)
(-0.314494205085 -0.0335932710786 0.0017217050596)
(-0.00597532354529 0.0454637705538 -0.279916583542)
(0.821280706404 0.00482235308121 0.00153794555771)
(0.757208051127 0.00739067994189 0.00296537496119)
(0.756947103128 0.00531130105536 0.00358842349861)
(0.820207319643 0.00374029181112 -0.000739200627172)
(0.819638517626 0.00326192579055 -0.000778740373002)
(0.755919436958 0.00401797392107 0.00333291098666)
(0.817797533517 0.00435132031802 -0.000280951370318)
(0.817712552299 0.00394766881668 -0.000754573312909)
(0.815072395842 0.00762781005311 -0.000770918539914)
(0.818241440178 0.00232352881351 -0.000484237505978)
(0.817975188957 0.00164489188196 -0.000783779533156)
(0.815507670208 0.00765187304068 -0.000293618349201)
(0.81851708736 0.00273011210054 0.000362044497809)
(0.818250960845 0.00170136897133 0.000464596818482)
(0.816148726028 0.00793545593659 -0.00124085671698)
(0.818829847805 0.00259580449655 -0.00103181952913)
(0.820509072576 0.00874904693679 0.000488906891447)
(0.820715732311 0.00341697573527 -0.000970944086876)
(-0.341057870152 -0.0894513614579 -0.0026728021816)
(0.0973966198945 0.316947620809 -0.370341127708)
(-0.0903207908923 -0.212740668125 -0.161220915424)
(0.821910092433 0.008799862969 0.00190087639687)
(0.821432979091 0.00734501685197 0.00238935385324)
(0.754426657624 -0.000438551908602 -0.00146287773579)
(0.756084554135 0.00109320804886 0.00149290168411)
(0.822260094495 0.00697932002207 0.000452622841118)
(0.821461762572 0.00301567854839 -0.00124520053468)
(0.820102165362 0.00291159980638 -0.00161633308677)
(0.820955564481 0.00231226933037 -0.00203848554941)
(0.818283456163 0.00391588814679 -0.000486830859268)
(0.742977654484 -0.010239571586 -0.00038461670494)
(0.818001037427 0.00342202578575 -0.00140988648543)
(0.818648330081 0.00219505731815 -0.00253323392786)
(-0.206870732456 0.0481128587447 0.00829272726505)
(-0.0700301099945 0.0288057672922 0.00629065779253)
(-0.0702658593169 0.185072676899 -0.0211435071665)
(-0.0703632907508 0.198314671621 0.00108112846158)
(-0.255893706193 0.0307034399143 0.00589303738965)
(-0.121728452335 0.163055124665 -0.0240542984999)
(0.821898461566 0.00569395892694 0.00321925167678)
(0.820927288369 0.00482116494855 0.0040453525728)
(0.7575081361 0.00690369858153 0.00344955962753)
(0.757357043342 0.00862827250947 0.00266192361949)
(0.821557385116 0.00492020606102 0.00254543800739)
(0.757424853175 0.00807075655844 0.00289037825266)
(0.820976770871 0.00575236678351 0.00476550712234)
(0.82023389991 0.00490360877117 0.00387568930935)
(0.819330651406 0.00587771935986 0.00464460031383)
(0.757121054869 0.0060543275465 0.0041599699929)
(0.756721513303 0.00670164401509 0.00354473704555)
(0.81926212823 0.00497489692806 0.00437517868189)
(0.75710578405 0.00742698511323 0.00379137133387)
(0.820360443017 0.00586399848081 0.00449412793605)
(0.817304040763 0.00494639238389 0.00223872286081)
(0.818241541971 0.00578233424937 0.00376525486844)
(0.754538033234 0.00263627742454 0.0011015659319)
(0.75556770881 0.00544204935803 0.00336411098388)
(0.818088574084 0.0050411706846 0.00378198425676)
(0.754199982171 0.00422616848841 0.00159824897739)
(0.817496034398 0.0053842119095 0.00206196479011)
(0.817953352384 0.00451389789951 -0.000406795107651)
(0.750355368643 -0.00184564748361 -0.000487662180123)
(0.749553150247 6.7922517502e-05 -6.90903729461e-06)
(0.817354088367 0.00467203781784 0.00100496664049)
(0.75258915334 0.000565053579582 0.000365893617891)
(0.751853647177 0.00218348688029 0.000756920566237)
(0.817534707832 0.00496309352294 0.00104500114651)
(0.817615556221 0.00363141823727 -0.000604942093442)
(0.750066332648 0.000447192452974 0.000181568275568)
(0.749642552419 0.000219998297795 0.000208584292138)
(0.817373979338 0.00409469839687 0.00115707519395)
(0.751896700233 0.00179959424355 0.00135801676962)
(0.817436293945 0.00363444406906 0.000911994272002)
(0.752771932381 0.00232846365332 0.0017549806181)
(-0.106201545742 -0.0104289412268 -0.00313812268493)
(-0.198575805948 0.161946403454 -0.0193980373888)
(-0.124806945 0.0156520833607 -0.00442961199457)
(-0.132776957828 -0.0428003269649 -0.00343049472863)
(-0.209572391551 0.0184910953388 -0.0166129827972)
(-0.206899169219 -0.00199466869878 -0.0284460760113)
(-0.131596593395 -0.047289645292 -0.000589427792269)
(-0.0479710142098 0.0189501250964 0.00164963923346)
(-0.0373578347858 0.0072907606297 0.0196187531779)
(-0.210173584014 -0.108785589085 -0.00834494806825)
(-0.0729217623271 0.0159741833309 0.0143161459852)
(-0.329900847992 -0.115578860448 -0.00416908821989)
(-0.0580568217759 -0.0114014419575 0.00044551980663)
(0.821727521046 0.00877387647721 -0.000887830492577)
(0.820902702738 0.00911828020299 -0.00171608028548)
(0.754886764325 7.57377233309e-06 -0.000662235333017)
(0.754631465776 0.000937243381001 -0.00198838106276)
(0.821777485926 0.00925452928842 -0.00110282064572)
(0.820790393716 0.0086166981867 -0.00197715118883)
(0.755126460136 0.00161030877419 -0.000792687524414)
(0.82238853595 0.00887267898236 -0.000131087545461)
(0.82289350319 0.00952492093713 0.00126258071194)
(0.755311229456 0.000669345212791 -0.000185379661053)
(0.756260481743 0.00241804257366 0.00189742970301)
(0.822522074128 0.00931992089762 -0.0005026959701)
(0.822808522085 0.00902513583185 0.00192573553952)
(0.755643303932 0.00204042673509 -6.36446035943e-05)
(0.756362673897 0.00613226389564 0.00111278487723)
(0.756724378007 0.00632683637898 0.00341119762228)
(0.822701583506 0.00681831067478 0.00304955275895)
(0.822413702623 0.00806501519569 0.0005782000415)
(0.756576756455 0.00379543172036 0.00310235208573)
(0.822845017125 0.0081054083897 0.00302689697525)
(0.756131305183 0.00346900772379 0.0010312271091)
(0.818456043013 0.00417254824794 -0.000857056030682)
(0.747738510484 -0.00394994404805 -0.000649012934943)
(0.747179979437 -0.00202691181536 -0.000143445374016)
(0.818906323451 0.00352970163762 -0.00104772604492)
(0.745781635776 -0.00652852621852 -0.000624742585079)
(0.819071513082 0.00407153644593 -0.00164874916252)
(0.745410482378 -0.00433035286322 2.99347396759e-07)
(0.819504127604 0.00309119435375 -0.00126140919809)
(0.82078535501 0.00372582653908 -0.00233578401275)
(0.743816669685 -0.00838825427132 -0.000559556751644)
(0.743484248633 -0.0083602904986 -0.000581130433266)
(0.819878369596 0.00400685713839 -0.00179594759206)
(0.820383018468 0.00271014216037 -0.00184122186357)
(0.744368731471 -0.00625536824514 -0.000159261491475)
(0.818184998054 0.00289362401508 -0.00221258284376)
(0.817749316525 0.00329230774504 -0.00124282080289)
(0.747626425935 -0.00140780498907 -0.00050585866961)
(0.747052237515 -0.00116373259793 -2.72068400286e-05)
(0.745279050666 -0.00309769124504 -0.000391374802353)
(0.818636905356 0.00301199548669 -0.00251984205957)
(0.745895380788 -0.00349350999518 -0.00114299704535)
(0.744230759425 -0.00468481966836 -0.00102617558483)
(0.743273867835 -0.00683607282321 -0.001706810961)
(0.819301352765 0.00145305287199 -0.00382234186151)
(0.819198616987 0.00232755202074 -0.00268384010285)
(0.74409379123 -0.00743156927191 -0.00137063053291)
(0.820026292966 0.00180205578359 -0.00352941954557)
(0.744604448751 -0.00542730287509 -0.00135125876585)
(0.819650303968 0.00102744097024 -0.00165775801321)
(0.822395275446 0.00256054543677 -0.00242619768415)
(-0.310056261468 -0.115072440832 -0.00411446448654)
(0.0593546292224 -0.0429822088916 -0.246241512992)
(0.822069022221 0.00697794925205 0.00181684382502)
(0.75717048898 0.00576675893924 0.00419738494414)
(0.821650180461 0.00196042114965 -0.00307299326965)
(0.821918321647 0.00150407193594 -0.00307698140036)
(0.741798718496 -0.0114171955228 -0.000449664088292)
(0.743637625624 -0.00828626414083 -0.00243549249482)
(0.743860712747 -0.011604989813 -0.00265840027708)
(0.822347247195 0.00125202861013 -0.00248615695541)
(0.822429347089 0.000455521231932 -0.000896774434243)
(0.744239872917 -0.0117096146265 -0.00210070342639)
(0.743851696314 -0.0101672042501 -0.000358960588855)
(-0.160554241229 -0.0327587513458 0.00284210796109)
(-0.236576856911 -0.129173903551 -0.0109171168291)
(-0.238770532276 -0.12924807516 -0.00653682901731)
(-0.0107951650628 0.0235958428489 -0.00236391418764)
(-0.0325278098609 0.0287381305932 0.0101718763417)
(-0.0183389100104 0.00512276613119 0.00408650142626)
(-0.221931631262 -0.0706519373329 -0.00201708883791)
(-0.17423436525 0.0246386480331 0.000801749343118)
(0.821354940376 0.00838872647595 0.00439171038598)
(0.822294432634 0.00687229059523 0.00369644309997)
(0.757276610424 0.00331693093977 0.00363566565421)
(0.757254609187 0.00535028647362 0.00427642439417)
(0.822325769402 0.00833146311295 0.0036186664533)
(0.757464695272 0.00286398854424 0.00353303138132)
(0.821142527176 0.00702179852313 0.00492860426271)
(0.821856331667 0.00169732090044 -0.00289372213575)
(0.82154854617 0.00348800446597 -0.00232805836703)
(0.741192344759 -0.0123066021819 -0.000403753990242)
(0.742716598969 -0.0103191123476 -0.00114527874908)
(0.822086620794 0.00303470158203 -0.00289667758083)
(0.821158300926 0.00220660408529 -0.00218279061335)
(0.741995074839 -0.0117861760049 -0.00141997867941)
(0.821533495388 0.000849790158212 -0.0040468188493)
(0.820152234139 0.000797805945918 -0.00402819831153)
(0.743621236679 -0.00923424903892 -0.00207020896134)
(0.743534157274 -0.009720616731 -0.00250400897231)
(0.820683846598 0.00116961383461 -0.00359894958082)
(0.743469104617 -0.0107968697965 -0.00185806012609)
(0.821277443021 0.000466125446277 -0.00452969857496)
(0.822146721611 0.000719246198861 -0.00347508630883)
(0.822215975291 -5.86681028722e-05 -0.00371633141273)
(0.743321755743 -0.0118857633697 -0.00131381001349)
(0.743915272438 -0.0111169796805 -0.00307690757851)
(0.82255986246 0.000297292118856 -0.0031548074534)
(0.743379424201 -0.0116603403666 -0.00174606333289)
(0.821732401587 0.000260750340466 -0.00405853978891)
(0.822724397472 -5.36034398172e-05 -0.00181054759157)
(0.822413264488 -3.3783231877e-05 -0.00288102932986)
(0.743362441287 -0.0117145440076 -0.000889247826561)
(0.744178167228 -0.011555245266 -0.00145299703633)
(0.822679172882 0.000328611889167 -0.00234815174027)
(0.743083178502 -0.0112065465189 -0.000793065377608)
(0.822422413217 -0.000229707170351 -0.00200788901531)
(0.822601356436 -0.000289247346493 -0.00106055144117)
(0.821747387395 -0.00128594415776 -0.000596493494469)
(0.742554812324 -0.00918579705172 -4.37096518878e-05)
(0.744055292131 -0.0108678525872 -0.000496653047452)
(0.822546622509 -0.00106087963393 -0.000404131468508)
(0.743080171868 -0.0102038802643 -0.000527246493597)
(0.822100349812 -0.00044334444291 -0.000909936959875)
(0.795950258866 0.00797797993127 0.00444220224847)
(0.802028826322 0.0099211971722 0.000576954749468)
(0.802568380997 0.0157542222409 -0.00255363998278)
(0.805901021027 0.0122936454595 -0.00397949560864)
(0.0708587648048 0.0963141672017 0.00675715158224)
(0.241592415738 0.104122496296 0.00220994370827)
(-0.171132633237 0.0997263681579 -0.00142141553403)
(0.00294084432187 0.122803297551 0.00075835962257)
(-0.16632619156 -0.0130552309094 -0.00695019538053)
(-0.171629728617 -0.00876202351854 -0.279811046686)
(0.12344668893 -0.292671742484 -0.074054304472)
(-0.0813728684331 -0.140558836698 -0.244569721816)
(0.198862970018 -0.108798427614 -0.185388711019)
(0.0261763519523 -0.0665966780001 -0.291531212101)
(0.297799408824 -0.0617829390473 -0.226893919445)
(0.794116463772 0.00113026658368 0.00623170852006)
(0.795676471117 0.00281224884433 0.00614063557443)
(0.75244868944 0.00263838716886 0.0116606011627)
(0.754353632656 0.0046130386095 0.00693085595831)
(0.791489172307 0.00589268883705 0.00692608337209)
(0.755022474123 0.00529651729544 0.00709280772944)
(0.797382159931 0.00574317746252 0.00435365649558)
(0.799981589755 0.00668991933131 0.00353249860614)
(0.755005421005 0.00356992793577 0.0057318569071)
(0.757101805846 0.000231861118889 0.00255998248497)
(0.793569549275 0.0127151917967 0.00586085958087)
(0.799459089825 0.00944694447107 0.00268708360585)
(0.7980305065 0.0134031827198 0.00278482505808)
(0.75578067514 0.00438877061779 0.00604559184172)
(0.761039248324 0.00797742327253 0.00609824442235)
(0.757907091686 0.00100144041416 0.0028314412817)
(0.764072813307 0.0038506246348 0.00110560149497)
(0.798860614901 0.0180964863046 0.00130509713364)
(0.801311257023 0.0221928683625 0.00152364632406)
(0.762899126842 0.0093679926215 0.00652903661287)
(0.766334947757 0.0136145327851 0.00418310658958)
(0.765649443697 0.00489676012184 0.000917539487763)
(0.768083170297 0.00754751190033 -0.00245453015294)
(0.801665910444 0.0124970610464 6.87258418003e-06)
(0.803688795338 0.0115111547918 -0.00108594229622)
(0.758081333569 4.30899516087e-05 0.00241199809492)
(0.76407686306 0.00231766587461 0.0014618800283)
(0.764267433836 -0.000460973300922 -0.00158864349853)
(0.804164405349 0.0185912236561 -0.00328367366953)
(0.804789172028 0.0135322514367 -0.00327001151843)
(0.806352577217 0.0155030826944 -0.00428444137889)
(0.765643656199 0.00299295131672 0.00102064174292)
(0.767920117413 0.00464119787431 -0.00319146684505)
(0.76584570487 -2.23949112255e-05 -0.00205129342332)
(0.766694562424 -0.000302143704692 -0.00483100147055)
(0.765629850348 -0.000346130934417 -0.00212457345121)
(0.766126828112 -0.000799978468745 -0.0042708532378)
(0.0246579333419 0.00373630987047 0.0148350331513)
(-0.00189267363085 0.0523665991365 0.0141345601289)
(0.114717845027 0.0559553014572 0.00861867433926)
(-0.205552721889 -0.0450986049647 -0.301595912951)
(-0.10204949699 0.0459184278839 -0.281122509745)
(-0.191785386637 -0.0750314258225 -0.272958694299)
(-0.0545024197115 -0.0123435615409 -0.269706805705)
(0.000328310331944 -0.0998890154185 -0.219882929579)
(-0.00390258284873 -0.173370727215 -0.0975833788856)
(0.0384026862947 -0.134047360138 -0.232376490885)
(-0.0220309419797 -0.104632576823 -0.152698555008)
(-0.0435744266546 0.0702912106076 0.0100791300399)
(-0.14956828499 0.0909723589178 0.00554306338945)
(0.162980244589 0.109221395523 0.00514448835275)
(-0.0435225622795 0.125264505559 0.00242753333966)
(0.0517824536125 0.141856501452 0.00288972539169)
(-0.116390690269 -0.133084465755 -0.230295524059)
(-0.012887541803 -0.0876752271222 -0.219933902324)
(-0.0669178102411 -0.140814496442 -0.151474281954)
(0.00338226221451 -0.117055696392 -0.150590466407)
(0.30541404863 0.0842119386887 -0.00186540649267)
(0.135481437982 0.135370516471 0.00337771244109)
(0.178335906324 0.111133942753 0.00331882051813)
(0.0916822028181 -0.103315671493 -0.182640732746)
(0.102809762757 -0.0682938658536 -0.105314588214)
(0.088852968041 -0.137405352961 -0.107882770835)
(0.141343106198 -0.0487786044723 -0.0401861040105)
(-0.0782522961083 0.11879243515 -0.00163908079329)
(-0.169060766856 0.046157122694 -0.00607650197437)
(0.0375269284399 -0.126416905898 -0.0843313146991)
(0.0792273229395 -0.098240677875 -0.0648056664754)
(0.0782801862404 -0.0796845049611 -0.00658419934821)
(0.0660073614904 0.10417766291 0.00125439090275)
(-0.105774299051 0.0480311293678 -0.00481671349457)
(-0.0397678244397 0.0512837384417 -0.00566681122082)
(0.14996616508 -0.114556620718 -0.0424468219197)
(0.209262090104 -0.0541202132462 -0.001247445213)
(0.153283387488 -0.0942984288515 0.0113825508233)
(0.211250513563 -0.0683375862621 0.0177310381567)
(0.797065131335 1.25709537944e-05 0.0108135618679)
(0.794319869716 0.000728142263171 0.0139627873081)
(0.752062862011 0.00277819925725 0.0110984409734)
(0.752728285983 0.00455320398038 0.0104467847173)
(0.795355007657 0.000688864432747 0.0129004640317)
(0.752485546014 0.00430103751696 0.00940722787162)
(0.796272314417 7.66536708831e-05 0.0122523171842)
(0.797634756327 0.00061075392891 0.00889701348193)
(0.797187223386 0.00251126322463 0.00940501040076)
(0.753507581388 0.00484792553521 0.00846447996555)
(0.754197425957 0.00378853271086 0.00609268200782)
(0.796242178846 0.00116920229643 0.0107105894935)
(0.798341760895 0.00155665107531 0.00764471842475)
(0.753457909462 0.00445504842308 0.00746132617407)
(0.792455039661 0.00403663921036 0.0113982003521)
(0.795399921334 0.00352082079731 0.00937008236522)
(0.754272663863 0.00544796724595 0.00898971941159)
(0.756486010431 0.00630149429896 0.00708655967824)
(0.794092833962 0.00252299597311 0.011234194709)
(0.793968166766 0.00570849764439 0.0100083977379)
(0.755973319043 0.00581234479164 0.00917992396617)
(0.800219456372 0.00330241534648 0.00561495835173)
(0.797948043802 0.00373429943129 0.00776739111085)
(0.754773511641 0.00287264985128 0.00516631672623)
(0.756051575521 0.002536803876 0.00481719892945)
(0.799392649298 0.00260983698127 0.00627702111232)
(0.799193499391 0.00466597620083 0.00674695873)
(0.755718901992 0.00204050779751 0.00464273676315)
(0.801326213073 0.00399666130076 0.00380109233349)
(0.801650570042 0.00614692343786 0.00352041076663)
(0.756300718159 0.00130704293745 0.00371793568724)
(0.756620967679 -0.000329400363337 0.00237884368987)
(0.800384393462 0.00542566439591 0.00479715447632)
(0.802158117221 0.00490531808294 0.002913629109)
(0.755964446618 0.000743445857461 0.00340196959548)
(0.797379786418 0.00749325526483 0.00643605133159)
(0.797082432196 0.00480561566664 0.00738949811032)
(0.757402257309 0.00575205522978 0.00610555520813)
(0.756731057037 0.00353855572149 0.00486663191837)
(0.795714190749 0.00668880593571 0.0078120942991)
(0.798430090664 0.00555258482424 0.00652490620604)
(0.75859938985 0.00449098948534 0.00446725327422)
(0.796854533261 0.00940775676277 0.0066258794205)
(0.793957454079 0.0106489587195 0.00773031749645)
(0.758963212476 0.00690609520141 0.0066530316216)
(0.76200596973 0.00710838622229 0.00380790519768)
(0.794846920476 0.00828552334416 0.00783521325653)
(0.796152081231 0.0117272487529 0.00600444010017)
(0.759986236643 0.00598849433348 0.00512203175402)
(0.799186561239 0.00837512579537 0.00469309844319)
(0.801265150119 0.00725663462582 0.00367554274339)
(0.75709121118 0.00226623439337 0.00382797333538)
(0.759931617021 0.00192666430508 0.0027530140308)
(0.799870276335 0.00646520483834 0.00451603915653)
(0.800706994674 0.008930404741 0.00362887841704)
(0.759012253133 0.0032361454205 0.00414745332653)
(0.798956715113 0.0100893926108 0.00474530669429)
(0.800173945652 0.012361928977 0.00222373905792)
(0.763079148226 0.00571597238061 0.00325675161937)
(0.761526398278 0.0028997283327 0.00254154990549)
(0.79842274965 0.0121435150884 0.00358487052614)
(0.800642971281 0.0104756989324 0.00358856383485)
(0.760611011599 0.00462066828014 0.00414751227425)
(0.796906300304 0.0163256623709 0.00486085905798)
(0.794281957489 0.0130464111461 0.00741379255259)
(0.763938901536 0.0107748860586 0.00575960452397)
(0.763965885717 0.00888632467205 0.0042901257794)
(0.794289714782 0.0160972605587 0.00719247276279)
(0.796775011369 0.0138265673611 0.00592489486398)
(0.764940432334 0.0103626418178 0.00319232407318)
(0.798575624682 0.0187775696752 0.00468672954063)
(0.798842584233 0.0213248049485 0.00501696906373)
(0.765535060641 0.0122985001189 0.00537335811867)
(0.767125057084 0.0130986884798 0.0018554183981)
(0.796205288135 0.0187666661583 0.00676551533762)
(0.766771103791 0.012107422601 0.00301006604615)
(0.801327712748 0.0209977124298 0.0028688531469)
(0.799313815049 0.0161026989487 0.00148079479611)
(0.800737430046 0.0141866227283 0.00211089532052)
(0.764717708261 0.00738178016388 0.0030326933425)
(0.766732806498 0.0061188664824 -0.000581782239322)
(0.799036562593 0.0141845480146 0.00368748723782)
(0.801098852192 0.0157067003575 3.55880346086e-05)
(0.765951402499 0.00880359038269 0.00165155650301)
(0.800899274027 0.01825033115 0.00150945183449)
(0.804575205574 0.0187147940601 -0.00296828616878)
(0.767799377116 0.0112239499705 -0.000341920122056)
(0.768064570532 0.0071493654132 -0.00152790761339)
(0.802563046326 0.0174378258453 -0.000307973762352)
(0.767587780298 0.0102587636455 0.000965960873301)
(0.803328925802 0.0199200172723 -0.000987875846851)
(0.80340885936 0.00895491280521 0.00121482300517)
(0.802439543467 0.00773633130842 0.0025645225075)
(0.759881471079 0.000825869169466 0.00251671241004)
(0.758533223283 -0.000800527568773 0.00120159481781)
(0.802161803203 0.00902837525222 0.0022837546155)
(0.803466638602 0.00789599990466 0.00168299651006)
(0.760396534041 -0.000393068712535 0.00110447590809)
(0.803389872713 0.0103279732955 0.00123889245383)
(0.80184819159 0.0120740969179 0.000961205092406)
(0.761509133172 0.00172862157333 0.0022868294112)
(0.76450327347 0.000795362258773 -0.000252732472572)
(0.802139985511 0.0106602013385 0.00241505739898)
(0.803169827815 0.0115475272595 -0.000183381303849)
(0.762162867967 0.000354575557726 0.00100438647076)
(0.804447212845 0.0101138217239 7.07643693677e-05)
(0.805167116798 0.0110241387835 -0.00211895062724)
(0.76428809573 -8.38921373953e-05 -0.000283484278844)
(0.762281931506 -0.000545587688478 -0.0010035278381)
(0.804298544935 0.0111649191581 -0.0010188200945)
(0.805354552414 0.0100973572646 -0.00110945391821)
(0.762218199527 -0.000261923914388 0.00032603721688)
(0.803898277978 0.0140759387078 -0.0025899198835)
(0.802491047417 0.0138735636404 0.000745562946629)
(0.766837128171 0.00408324926983 -0.000310083907272)
(0.76619728146 0.00119281014063 -0.000893437697274)
(0.802675126163 0.0150606119671 -0.00129165496025)
(0.803703858064 0.0130418773116 -0.000618115107647)
(0.767028309844 0.00164671833692 -0.00234823353482)
(0.80512910953 0.0151364459673 -0.00318047077792)
(0.80562282037 0.0176278917802 -0.00471387125617)
(0.76795427916 0.00451487531588 -0.00161123044234)
(0.767625109516 0.00146898088931 -0.0048663617697)
(0.804034264199 0.016440722039 -0.00186300128081)
(0.767895037147 0.00169194002875 -0.00349216218088)
(0.80660171567 0.0163719411421 -0.00572051612004)
(0.805063629278 0.0133802180522 -0.00318751396098)
(0.805811484014 0.0120985970094 -0.00239846101668)
(0.765976827223 0.000144771087752 -0.000759270166051)
(0.766448718623 3.71703927976e-05 -0.00313291764237)
(0.804902380481 0.012538675206 -0.00135896696956)
(0.805991438392 0.0128954744477 -0.00401209523892)
(0.766872556658 0.000385632994435 -0.00196520361115)
(0.806434300044 0.0144758957613 -0.00351625523725)
(0.808611939296 0.0144903912542 -0.00619839067382)
(0.76736197868 -0.000154462186052 -0.00404518350318)
(0.766992071542 7.79551020016e-05 -0.00389212888673)
(0.807385149041 0.0136679754817 -0.0042242677325)
(0.767542410275 0.000350361324354 -0.00280965194007)
(0.807639915877 0.0155547828732 -0.0058201808549)
(0.807390055092 0.011901268655 -0.00462153965743)
(0.806542095054 0.01183811879 -0.00281902696976)
(0.766303445563 -0.000363570474214 -0.00321582738875)
(0.76536891791 -0.000493495154446 -0.00256800577765)
(0.806822468512 0.0124818296175 -0.00428984758356)
(0.807091714121 0.0114175384479 -0.0032144712136)
(0.765917727685 -0.000631274547352 -0.00349595512997)
(0.809274868105 0.0135784337991 -0.00598022751318)
(0.766553442979 -0.000443220893793 -0.00371931849356)
(0.808046783905 0.0129829713331 -0.00437735203993)
(0.817405887144 0.00561384920394 -0.000651636568429)
(0.81898479893 0.00439271247303 -0.000746932458507)
(0.819913592983 0.0027712215044 -0.000795496760201)
(0.81750996307 0.000274053681176 -0.000352972928215)
(0.80970079071 -0.000801486254861 0.000373346451304)
(0.835618248596 -0.0497183371141 0.000575886337588)
(0.817880793769 0.00604672479349 6.15855771062e-06)
(0.819055558281 0.00465178479017 -0.000157419107953)
(0.820090640483 0.00353857794758 0.000120546513186)
(0.818599493108 0.000360511775198 0.00223019820659)
(0.810865642381 -0.00128032649871 0.00562737724591)
(0.840614972163 -0.0568282899892 0.00692301939621)
(0.817840687823 0.00616735986237 -0.000598830355657)
(0.813637867342 0.00589492369872 0.00119457170562)
(0.789121926036 0.0106780429875 0.002419911891)
(0.785498466664 0.0113086028079 0.00125636167711)
(0.781792434241 0.0116966724483 0.00229505802295)
(0.772875106604 0.0146649865966 -0.00057476662339)
(0.782219657799 0.0181512729241 -0.0322363711273)
(0.712301868424 -0.00957319220328 0.0260726864488)
(0.82695905794 0.00588328904792 -0.00050288249386)
(0.824672583531 0.00298563231456 -0.000285710968386)
(0.82018879033 0.000665082651767 -0.00134837598539)
(0.818608204683 -0.000959584984972 -0.00365471868771)
(0.817533701989 0.000144093928367 -0.00411056082903)
(0.818523754498 0.00291906235402 -0.00337310404537)
(0.809799136129 0.010439813438 -0.00098292919811)
(0.840587626412 -0.0851924314858 0.00927222041805)
(0.820819851321 0.00715762461776 -0.000919427075749)
(0.822897440315 0.00509747815766 -0.000904280453552)
(0.822935898972 0.00393072699413 -0.00141192335634)
(0.822406055258 0.00369864232408 -0.00225944262068)
(0.821273365941 0.00351468782586 -0.00224087631458)
(0.821281470686 0.00297859792663 -0.00135631642337)
(0.812720744363 0.00176274525278 0.000371900142093)
(0.845474783207 -0.0635096146659 0.00368118467952)
(0.817141244069 0.00826580178501 -0.00107161283076)
(0.819834057622 0.00540335502751 -0.000882019460592)
(0.820912367246 0.00346952082167 -0.000963776535465)
(0.821061895177 0.00218053223458 -0.00123335376662)
(0.820213223091 0.00156470653377 -0.00148278125295)
(0.820127861707 0.000694914591115 -0.000707108813491)
(0.811477859094 -0.000613723996269 0.000832613285028)
(0.840288033687 -0.0673853434878 0.00233182952874)
(0.819433306462 0.00221980340019 -0.00100611985008)
(0.819067151181 0.00099002413854 -0.000434487750756)
(0.810518413747 -0.000507580139849 0.000560873671567)
(0.838168193425 -0.0525915666575 0.00101641560691)
(0.639855428359 0.0421128715046 0.00879265177028)
(0.636044369781 0.0403804100273 0.0153863705385)
(0.645505379328 0.0251443818629 0.0184083157848)
(0.642697107655 0.0220319344019 0.0158031403515)
(0.638938536002 0.021293423884 0.0174438041144)
(0.594511466719 0.0225050845882 0.0219348913056)
(0.682578097397 0.0277993042831 0.0273356358503)
(0.143942102684 -0.0109779517343 0.0640535090927)
(0.774223810079 0.014118196099 0.00524831973474)
(0.770923068337 0.00935190116313 0.00798821831946)
(0.775737746124 0.0031099025388 0.0110198661263)
(0.773119314969 0.00189468934747 0.0125829781956)
(0.772195160898 0.00402684705741 0.0132047735799)
(0.77197689427 0.00778038323076 0.0184631759319)
(0.770703248738 0.0518322141926 0.0314762237434)
(0.802212502821 -0.186153886651 0.0499515597147)
(0.822655675512 0.00816486917491 -0.00173169838352)
(0.822499573599 0.00650036131348 -0.00111137722823)
(0.821901768162 0.00658961499812 -0.000784666016554)
(0.82188765839 0.00723772945253 -0.000551803775337)
(0.821666555603 0.00771922327879 0.000748775438559)
(0.82384259837 0.00721066614026 0.00436079263257)
(0.816788700183 0.00520723838076 0.0135800804443)
(0.887642608294 -0.112763184124 0.0185702399982)
(0.817862779152 0.00793835527772 -0.000803622043377)
(0.820019133948 0.00533507759222 -0.000524936672185)
(0.820845847664 0.00438954661894 -0.000262933033914)
(0.820994189083 0.00373639511011 -1.57815971355e-05)
(0.820789182773 0.00299971831413 0.000989014295491)
(0.822666783838 0.00160269091514 0.00407931899647)
(0.814849465325 -0.000503713920174 0.00988912611189)
(0.856673644038 -0.0845550222565 0.013302523093)
(0.819878870962 0.00295999165603 0.000855075029429)
(0.820677486613 0.00144116498872 0.00325439048639)
(0.812226690993 -0.00106380858671 0.00726301505113)
(0.846933327504 -0.0657801072643 0.00882482158776)
(0.633325992584 -0.0158798642004 0.0130782202314)
(0.628612187383 -0.0153143107868 0.0208262745455)
(0.63569299498 -0.0197934440742 0.0228871154935)
(0.633692485753 -0.0185266058254 0.0233478875673)
(0.636529381993 -0.0149508012043 0.0255179317724)
(0.631678026711 -0.00323649213542 0.0289824540207)
(0.686993920559 0.0610389995751 0.0774411846384)
(0.593535385047 -0.415292913684 0.0173821094733)
(0.733578201385 0.00716130106033 0.0185013073331)
(0.732262257873 0.00111338181133 0.022996609155)
(0.784154038219 0.000896127244044 0.00843374969508)
(0.783056309779 0.000594336565334 0.0097074708914)
(0.784669195929 0.00219910074066 0.010588411402)
(0.79370698953 0.00109757550253 0.0109415367511)
(0.804746940427 0.0145288221438 0.015938993077)
(0.912158805177 -0.212074634234 0.011237343513)
(0.822501930361 0.00819397258963 -0.00253759645747)
(0.823472714717 0.00728089196046 -0.00241431091439)
(0.823562051923 0.00455873782295 -0.00249802482103)
(0.823900938714 0.00285664121678 -0.00300302497044)
(0.825522796231 0.00274184240089 -0.00294131638907)
(0.832713572853 -7.32030224551e-05 -0.00078731511244)
(0.825757491455 -0.00556960325667 0.00050526953515)
(0.922306358917 -0.190224912914 0.00158572555384)
(0.81529434683 0.0116702611743 -0.00241047517275)
(0.81856684404 0.00881163286578 -0.0017399382786)
(0.820227650927 0.00619242410744 -0.00137122458585)
(0.821516979453 0.00430272967946 -0.00157873072758)
(0.822576995559 0.00339219757284 -0.00231104437612)
(0.82365912601 0.00250174541777 -0.00166187114223)
(0.828550456082 -0.000692699497248 0.000273718085385)