/*--------------------------------*- C++ -*----------------------------------*\
| =========                 |                                                 |
| \\      /  F ield         | OpenFOAM: The Open Source CFD Toolbox           |
|  \\    /   O peration     | Version:  v1906                                 |
|   \\  /    A nd           | Web:      www.OpenFOAM.com                      |
|    \\/     M anipulation  |                                                 |
\*---------------------------------------------------------------------------*/
FoamFile
{
    version     2.0;
    format      ascii;
    class       surfaceScalarField;
    location    "3.55";
    object      alphaPhi0.water;
}
// * * * * * * * * * * * * * * * * * * * * * * * * * * * * * * * * * * * * * //

dimensions      [0 3 -1 0 0 0 0];
oriented        oriented;


internalField   nonuniform List<scalar> 
92311
(
0.201172131018
-9.97622433597e-05
0.000636846445434
-0.201327917143
-0.000381207456116
-0.000183968667684
0.200964217503
0.00112917722817
-0.000737175186308
0.201113763138
-0.000263342270351
0.000683301620441
-0.201261797395
-0.00037147374444
-0.000453175262128
0.200911510949
0.00118200817804
-0.000710265788923
0.200908182829
-0.000113429097084
-0.000133756917818
0.00077990766436
-0.201096683939
-0.000420992817238
-8.77491023138e-05
-9.86960913689e-05
-0.000216658020959
-0.000231970785644
-0.000162846701177
0.200685796685
0.00127680422614
-0.000744266275486
-0.000151708604099
0.0502203208335
-1.49427510968e-05
-3.36825258163e-05
-2.43059411767e-05
-2.20947769508e-05
0.000144440172577
-0.0502550147587
-0.000128160934212
-0.0502150395528
0.0501844390916
-6.42831497307e-05
-5.65061191314e-05
-6.1132972463e-05
-6.08903196501e-05
0.00026809166695
-0.000211240212663
4.70119556181e-07
0.000875614734906
1.47846166177e-06
2.59443716033e-06
3.08737885602e-06
-0.000195208940122
-0.000879705593486
2.53235556123e-07
0.000205910179411
0.000825997933028
0.000156401517942
1.03166588348e-06
-0.000843332610894
4.11370108248e-06
4.36731453022e-06
3.76559344235e-06
4.21390809039e-06
-0.00019146766038
-6.99296118796e-09
-7.14847864877e-08
-7.1133938402e-08
-9.88406072846e-08
2.89383381992e-09
1.15300073176e-08
1.8873646547e-09
-9.82585104073e-08
-4.45090016594e-05
-4.26664955599e-05
-4.9805796509e-05
-3.52932057173e-05
0.000222611883866
-0.000178753193281
-2.72219165125e-06
0.0117367716858
1.50740900569e-05
-6.266881683e-06
-0.011747526925
0.0116915125056
-3.51168831523e-06
4.62790149802e-05
-0.0117042238389
1.76348379222e-05
-1.03499515454e-05
-0.000228609911515
-7.21375813992e-05
0.0501659246813
-6.99573134068e-05
-7.05895646088e-05
-6.86115734552e-05
0.000296556784722
-6.21177525462e-05
0.0501673430096
-6.08856210624e-05
-6.09901766373e-05
-6.01166970109e-05
-0.0501664141386
-0.000148029798769
-3.63108098337e-06
5.55793032106e-05
0.0116741620788
1.57314959414e-05
-9.3810772434e-06
-6.36696460264e-05
0.0125345626982
6.35683592e-05
-7.11088672081e-05
-0.0125348063214
0.012534330835
-4.6746766477e-05
-8.02195969347e-05
-0.0125324488101
8.09819188896e-06
0.201835858911
-6.52353396713e-05
0.000100033228219
-0.201878733911
0.200875411715
-0.000261070769956
0.00120902598013
-0.000858666138915
-0.000320741480807
0.200865917315
0.00117837724761
-0.000847523844994
6.54042767483e-05
0.20171288061
3.22868064348e-05
9.05989575261e-05
-0.201892948117
0.200824240205
-0.000610710832377
0.00125556135252
-0.000818153615968
-0.00074527345116
0.200872077471
0.00121288533475
-0.00083562790676
-1.17906111411e-06
-3.67639140175e-06
8.91237982294e-05
-1.47332071265e-05
0.201608336949
7.62566377664e-05
-0.201774327198
8.55967744183e-05
-0.000291532281779
-0.000324731304055
-0.000207384765809
-0.000240077136879
0.200641025305
0.00130604635971
-0.000808154670877
0.0504854408587
6.12393940119e-06
-4.28130197184e-06
1.46224838902e-06
1.00552505977e-05
-0.000183997699981
-0.0504545583624
0.000138642814279
0.050119041903
-0.000226947949178
-8.06874055202e-05
-7.99639231125e-05
-8.23688268105e-05
-8.16202114939e-05
0.000307032604068
0.000109690821238
1.69955692203e-06
0.000811143069093
3.89253409546e-06
4.69243733162e-06
4.68941888121e-06
5.42760969836e-06
-0.00016049225191
1.20444079255e-08
1.72789561661e-08
3.36408599743e-08
3.09275155107e-10
-2.80740696893e-09
-2.38789124943e-08
-1.44109804966e-09
8.67978437286e-09
-4.53162972693e-08
-6.50338693958e-08
-7.97867332728e-08
-1.27692584225e-07
2.14023965044e-08
-1.35209013953e-09
3.49714163637e-08
6.80471643868e-06
3.06283532919e-06
4.55569070607e-06
-5.2481732525e-07
1.12208153908e-05
0.0504795156751
-2.284343932e-05
3.90461530069e-05
3.72929809197e-05
2.61122411856e-05
3.25521746586e-05
0.050331761983
-3.86806477552e-05
-0.0503321262489
-5.96796451209e-08
4.41353271084e-06
0.0117777425258
-2.4235303794e-05
2.45417912934e-05
-0.0117760483466
2.25776224271e-05
-1.76368263317e-05
-0.0117647896544
-3.39967456453e-05
3.37058992756e-05
0.0117463418284
4.95677486578e-05
0.0125645077601
-1.0269194165e-06
-9.20506030243e-06
-0.0125647881661
-0.000204574245641
-9.3614161296e-05
-0.000101985119377
-9.54088156142e-05
-9.90844863804e-05
0.0500968412004
0.000292218978233
0.0501427939431
-6.69022201816e-05
-6.18889105393e-05
-6.17518630982e-05
-6.58531033196e-05
-0.000153150129044
-6.48564009643e-05
-6.50907494756e-05
-6.99404718058e-05
-7.03480747377e-05
0.0501243345128
-0.000155861912723
-6.2023992012e-05
6.41844144521e-05
-7.66707374901e-05
0.0125289006109
-6.64936664225e-06
0.000105067259945
-0.011576350489
-9.27997202415e-06
0.0115441901816
4.16611744946e-06
-4.48193506455e-05
-8.13161320023e-05
0.0125321131655
-0.0125360051323
-6.92568934623e-05
0.0125307154308
3.62247046394e-05
-2.61544054379e-05
0.000869692128186
3.0799258371e-06
3.71216479156e-06
3.18486564131e-06
-0.000211743420578
0.000212835132269
3.42467293138e-07
1.3516546338e-06
5.3006539641e-06
4.93999300052e-06
4.64100236131e-06
4.9530295276e-06
0.000789850532659
0.000116555340406
-0.000830654543464
-1.29937088365e-07
3.71987128809e-07
-3.92674169857e-07
4.40988589321e-08
-5.84439665226e-07
2.95834878479e-07
-3.55829983194e-08
7.41487509969e-07
3.78592022302e-06
3.58408419447e-06
4.0694468104e-06
-0.000207395578383
0.000196333786792
-9.16252600782e-10
-1.14660830955e-06
1.36610336103e-07
-4.5176775244e-05
0.0125409497984
3.60298604682e-05
-0.0125495383116
-0.012534707575
-3.55810961411e-05
5.02437557745e-05
0.0125334511196
-4.72702764898e-05
1.55338359904e-05
1.52819409847e-05
0.0117198554519
-6.89482033615e-06
2.12842614694e-05
0.0117389769007
-0.011745680757
2.51253556996e-05
-0.0125383603367
-4.46379538833e-05
0.0117231296174
2.37691097922e-05
0.0125375399395
4.67504355114e-05
0.0125329173666
-4.70037046691e-05
5.35136064202e-05
-5.04787769044e-05
-5.60892217679e-05
-0.0125355948724
0.0125378412174
5.74564894613e-05
1.77780370816e-05
3.39044900574e-05
-9.1541962444e-06
5.2510223621e-05
-0.0117003899155
0.0116778194922
1.97725362899e-05
0.0125342795082
-5.46709448446e-05
2.12789606902e-05
5.39109544304e-05
-0.0125329762561
-6.56077128413e-05
6.16511305883e-05
0.0125352363538
-6.20819566968e-05
-5.88200095043e-05
0.0125365358778
5.95145863783e-05
1.32240021212e-05
5.92570378883e-05
0.0116563366948
-9.38426786128e-06
6.00179468958e-05
0.0116609784166
1.72490155029e-05
-5.83835473452e-05
0.0116500533231
1.37011110701e-05
0.0125368156924
6.02494212264e-05
-6.57258960426e-05
-0.0125353210289
0.0125330914582
6.21742178018e-05
4.57902156546e-06
-0.0116422223859
0.0116314884599
-5.73700391343e-06
-0.0116388193711
3.65086470721e-06
0.0116274237739
-6.90551825416e-05
6.32729874865e-05
-6.37114200112e-05
8.71432371309e-06
6.44289954157e-05
-7.80587216985e-06
8.6941989005e-06
6.11070965265e-05
-7.89101202299e-05
-0.0125358951514
0.0125376654239
-2.94488096325e-05
7.17574565912e-06
-0.0116345106307
0.0116254007246
-0.0116566053204
0.0116432968058
1.15987701434e-05
-4.77843475064e-05
-7.61022942562e-05
-0.012532132635
7.90816703262e-05
-1.22411728234e-05
-0.0116660022084
1.58922461632e-05
-0.0125332803483
-3.04132839029e-05
-0.0116441990773
-7.19917023726e-07
-2.67593165868e-05
-2.31289411422e-05
-2.83961043703e-05
-1.72112218567e-05
-1.24871645135e-05
0.000876656101114
-0.000839441355361
0.000130784247424
-1.32543646122e-07
6.61255334745e-07
1.43529259715e-07
-5.66729332288e-07
0.000736608673632
-1.80979116719e-07
-4.67403542921e-06
-2.40227995732e-05
-2.50973636282e-05
0.000100726175391
-4.9881889591e-05
-0.000739088003232
-4.57696370989e-07
-1.31370611662e-05
-2.37221670162e-05
-1.33227795989e-05
0.000794742909078
4.20535065312e-05
2.19384417786e-07
-1.17543009671e-07
-2.57297762711e-07
1.7183061485e-07
-6.55184861736e-08
1.99487058111e-07
1.35798924034e-06
0.000742567840686
5.87808378896e-06
5.53942532555e-06
5.96040201155e-06
5.88030496703e-06
8.98428546107e-05
-2.52256009263e-07
6.56536163048e-07
2.73386137831e-07
1.79605160383e-07
-8.90459274542e-08
1.62477453451e-06
-7.121754375e-05
5.44377733706e-06
4.59867861251e-06
5.56342302339e-06
5.47241222117e-06
0.000680523005107
8.17106795087e-05
-3.84772939942e-07
1.30648193139e-06
4.17707902592e-07
2.82973158379e-06
5.62421861056e-06
6.62913577806e-06
5.42313357974e-06
0.000759101011719
-0.000112957548911
1.90453604457e-07
-1.41435829577e-07
-4.39765935025e-05
-0.0125972931404
1.9610130626e-05
0.0126007627087
2.71923709083e-05
0.0126165103005
6.18959936946e-05
-6.67139134636e-05
-0.0126112722584
-2.32265903179e-06
-2.65917865146e-05
0.0117738282776
2.7769884902e-05
-2.43433481272e-05
0.0117610643238
-0.0117592080354
-2.50174974529e-05
0.012620476242
-4.87174974722e-05
-0.012592629749
4.31637573522e-05
0.0117539515639
-2.83801615714e-05
-2.36528437565e-05
0.0125997645317
1.81710267775e-05
9.52338021196e-06
-0.0126202499858
3.62410730895e-06
-1.32410838476e-05
0.0126167733066
-6.76393642433e-06
-3.36773354817e-05
3.22381846067e-05
-2.84148397219e-05
-0.0117513813846
-2.95532448641e-05
0.0117459804783
-3.06989484054e-05
-1.17609096828e-05
0.0125978848123
-2.98096505089e-05
0.0117552204266
1.02998407109e-05
1.01438775694e-05
-0.0117554679991
-4.87939279803e-05
9.18829290854e-06
0.0117444281146
8.06880406694e-06
1.64524100719e-05
0.0125598936478
-2.34491173422e-05
0.0125827638859
3.46663343207e-05
-0.0125827163353
-3.99139889107e-05
-0.0117500315106
0.0117464057167
0.0125799560708
-0.0117525165975
-6.93124861789e-05
0.0125239286777
6.31774448486e-05
-1.47801437635e-06
0.0116173444823
-2.98095872748e-06
0.011615104119
-4.2535692585e-06
6.10532037744e-05
-8.1242634163e-05
0.0125248917536
-5.76651019534e-05
7.73126262949e-05
-5.90808675512e-06
0.0116006866275
-1.15623498868e-06
0.0125181074208
6.29004308966e-05
0.0115980218261
-1.02172175856e-05
5.48239445088e-05
0.0125159187726
-8.76721418023e-05
-5.13418023031e-05
-0.0125071668952
-4.84446651335e-05
0.0125014191449
5.78278981601e-05
9.0817304634e-05
-6.93873966102e-06
2.34625965737e-06
9.63617312298e-05
-0.0115694470716
-1.09225812752e-05
0.0115307283804
6.1507576013e-05
-4.41945252968e-05
0.0125093366236
-1.16529071384e-05
-0.0125368466173
-7.4456351558e-05
4.08358447091e-05
-2.68653977318e-05
-7.59063952937e-05
-2.89906593524e-05
-1.05467828396e-07
0.0116134590298
0.0116280390444
5.19360964942e-06
7.50507216508e-06
0.011605701074
1.94582446115e-06
-8.01486787901e-05
0.0125301250512
0.0115957665623
0.0115801230833
8.59171950811e-06
-1.83900531931e-07
6.20589367328e-05
6.94846936904e-06
0.0115488028232
-3.02548357869e-07
3.03487584796e-05
0.012522881477
-2.54460003715e-05
0.0125228823007
-7.72908576962e-05
7.70836991249e-05
-0.0115672625276
0.0115327482357
0.012516114042
-0.00037764033875
-0.000285542117063
-0.000347145132837
0.00122861219723
0.200963885634
-0.000455284686619
-0.000831055432651
-0.000195316122019
-0.000124369948297
-0.0001136335782
-0.000130124967214
-0.000109583786802
0.000273880609715
0.0501184056089
8.06740455734e-06
4.48870282347e-05
4.0644241853e-06
1.06137015325e-05
7.31203324053e-06
9.32816684012e-06
-7.21658789747e-05
0.000655880486363
-1.27777561761e-07
2.26734327857e-08
-1.29633474829e-08
2.80237128181e-10
2.09009906155e-07
-2.05618968614e-07
6.50564477177e-08
2.71146925624e-05
2.06703532537e-05
2.78611172788e-05
1.29895269907e-05
-1.72664717703e-05
0.000136107247469
0.0502687174255
1.81946072972e-05
-3.26678670336e-05
7.46313862714e-06
0.0117344621291
0.0501338164719
-8.74173587896e-05
-7.36487016952e-05
-7.86751465613e-05
-7.98705575683e-05
-0.000170733346505
0.0502003068171
-9.98570939329e-05
-0.000106280779181
-0.000117737446529
-9.28268440648e-05
0.000185686007573
-0.000182644347454
0.000117284593733
0.0115026588571
-7.38785632737e-06
3.69120772304e-06
-4.19225327502e-06
6.34887385843e-05
6.77607211004e-06
0.0115093912886
-4.54325764527e-07
0.0113257805005
-9.90070087053e-06
0.000119814027895
7.70176530492e-06
-0.0114033928436
-5.41217100242e-06
0.050348479808
-0.000130968918083
-0.000104858576125
-0.000115317726786
-0.000126656840198
0.000330735130481
0.00017962850803
-0.000180693573076
-0.0001124860293
-0.000107422809011
-0.000105433711777
-0.000110964070679
0.000342798677982
0.000181206397265
0.0504376989785
-0.000176884187843
-1.20377725565e-05
0.000132305478257
1.50310883638e-05
0.0112412917285
-1.33943945186e-05
-1.57542594306e-05
0.000132839183984
2.89662485368e-06
-0.0110835982495
0.0110194681126
1.85719764326e-06
-1.99300576721e-05
1.06934889057e-07
-2.2443704856e-05
-0.000115026069128
0.000924951329451
-7.16081600122e-07
0.000585402393653
2.16645821466e-06
5.62869571316e-06
4.86389732331e-06
6.86407271749e-06
8.40710294601e-05
2.76734688506e-06
0.000451352501499
1.15269013431e-05
6.72526318005e-06
9.08950767879e-06
-4.40524315831e-05
9.94630793602e-05
2.52409397435e-08
1.84669162421e-07
8.87260731857e-07
2.34405701636e-06
3.91509220401e-07
5.76567354534e-07
2.91115117009e-06
4.23624749793e-07
0.000283708515234
1.33093186634e-05
1.62536252885e-05
1.49561686711e-05
-8.38644532899e-05
3.49397454169e-06
0.000131430626274
1.36964358966e-05
1.68416499968e-05
1.33488876518e-05
-0.000151536659457
4.76749869443e-06
9.6847404746e-05
0.000170474742467
-0.012567912861
4.07011947496e-05
-5.22017396011e-05
4.91868309971e-05
0.0125568981446
3.47846512993e-05
0.0125490246008
-4.30909142531e-05
0.0117398502264
2.70069687058e-05
9.47055515191e-06
-1.3066280329e-05
0.011729744135
3.09830127907e-05
2.58352262893e-05
0.0117308747047
0.0125432732404
3.58434844728e-05
-0.0125027113034
-0.000130647664242
-3.49680858268e-05
0.0125087711241
0.0124963625616
-4.09196494624e-05
5.02596052576e-05
0.000145878410806
-5.19241649213e-06
2.2466342573e-06
0.0114384942135
0.000105345723101
0.0114896299689
-1.01107240139e-05
4.49136360295e-05
0.0125036876977
-3.80894249688e-05
-8.68665760126e-06
0.0114320316929
-0.0125087032124
-9.66711741938e-05
-2.75380908444e-05
0.0125108262124
2.69206893271e-05
0.0125110909677
-2.52345635939e-05
8.21320831436e-05
0.0114917022961
4.21132360914e-06
7.61353083164e-05
0.0114586691262
6.52588889817e-07
0.0114359923208
0.0125083413348
-2.84172124011e-05
0.0125150364305
-0.000107260505806
-2.97099187022e-05
3.32606882806e-05
3.34886391414e-05
-0.0125099549736
0.0125262847864
-3.62318105725e-05
0.000134371469795
-0.0113771816827
0.0113067528764
8.90762716617e-06
6.68916180824e-06
9.12888444439e-05
-6.1380520149e-06
0.0125302277567
3.53751355286e-05
1.11104914883e-05
-3.27626625226e-05
-0.0125595002142
-0.000155422409063
-4.21497505284e-05
0.0125862939897
4.03512020049e-05
3.86583142463e-05
0.0125557271727
-4.04036055544e-05
0.000143549716163
0.0112383199412
1.49811529008e-05
1.57379384502e-05
0.000156323481537
0.0111534077434
-1.02543365551e-05
3.80175951133e-05
0.011153907089
1.12639658967e-05
0.0125854631684
-4.16674553767e-05
0.0126201662
-0.00014361833685
-4.477826908e-05
4.27108862069e-05
3.85714763205e-05
-0.0126256827018
0.0126469819729
-3.36826278563e-05
0.000124479423979
-0.0110712504341
2.74295220685e-06
0.0110084401829
1.14398036058e-05
0.000155118916366
-4.18377209627e-06
3.96580416611e-05
0.0126388508773
5.73581719211e-06
-4.00464390214e-05
-0.000530185429721
-0.0491727178449
0.0491319929357
0.000667562398348
-2.78665695517e-05
-8.69117428604e-06
-2.90586007978e-05
-7.06960761416e-06
-2.41827058571e-05
-0.000698119349628
0.04961968149
-1.05917346348e-05
4.6022688274e-06
-1.20636423049e-05
4.67952034493e-06
3.31346595959e-05
-0.0495765459657
0.000635154589441
-0.00102191696655
-0.049791158291
0.0500793379601
0.000869612392658
-5.18202186191e-05
-4.72777821013e-05
-5.04359380059e-05
-4.39754178997e-05
5.75417895775e-05
-0.000724276072183
-3.92335157004e-05
-3.9889369752e-05
-3.97900005321e-05
-4.02576009528e-05
9.27676445604e-05
0.0501744770414
0.000624134636637
-0.0500079957374
1.03833149201e-06
-0.000105261645515
-0.000819303930849
0.000740570708307
1.32770302966e-05
2.80829542357e-06
2.38696652551e-06
7.91242730463e-07
1.69387171436e-06
6.88266734561e-06
-0.000632312576099
0.000519105174272
4.61977364992e-05
3.67554828577e-06
5.22489637323e-06
4.31383735597e-06
5.61017704944e-06
-0.000118817187985
-2.83219962461e-05
4.3710977393e-05
0.000728761566879
8.88734431654e-07
8.47723492391e-08
-2.61162692174e-05
-5.90926369545e-06
-0.000759258559051
-5.83903618891e-05
4.52464607795e-06
3.74115867757e-05
-0.000627444698517
0.000533991488933
-0.000103702531989
3.19198278843e-06
2.2138157778e-06
1.00343111517e-06
3.45841287035e-06
3.95724324225e-06
0.000164415717832
1.7807341751e-06
-9.76656188869e-07
2.03709730364e-06
0.000547156643792
-0.000213523979401
2.56819168786e-06
-0.000633780024354
2.69965522411e-07
-4.88768447009e-08
-6.12112406628e-08
-3.83924221772e-07
-1.93455061662e-07
-4.86095949764e-07
4.81278354968e-08
-1.9937022213e-09
-7.38319796981e-08
-9.33778877849e-07
-8.01372024516e-07
-9.7112265009e-07
-7.12745035595e-07
3.2162189379e-07
4.2624256294e-08
1.49339885508e-07
1.18602820383e-08
-1.54370554749e-07
-3.92222430346e-07
-5.34533689582e-08
-2.7181129929e-07
-3.27743966775e-10
1.04237722648e-07
-7.53688275227e-07
-5.01031591256e-07
-6.25182245439e-07
-4.3258296256e-07
1.9769019059e-07
8.10062255323e-08
-1.87287822479e-09
-1.4630216459e-07
-9.22578899226e-08
2.6314107369e-30
1.11780959303e-08
2.42324563038e-08
-5.46949441526e-07
-4.62064089866e-07
-4.07147360251e-07
-4.54375435473e-07
2.54794200133e-07
1.70363053964e-07
0.000143157208332
3.23774426116e-05
3.17732915824e-05
2.55429904252e-05
3.88420826823e-05
0.048881619865
-3.99698655147e-05
4.11446625511e-05
-0.0491546016033
0.0489635780944
0.000343919587138
2.54595511961e-05
5.42406771881e-06
1.76487238476e-05
1.71220167083e-05
-2.86314707e-05
-0.0492014375529
3.61544946821e-05
-3.95025706133e-05
-0.0119056263911
3.23909184045e-05
0.0119083355272
-1.64635222094e-05
0.0119415927713
6.63512957632e-05
-2.0533335037e-07
9.10022452624e-06
-5.44993107709e-05
-0.0119353239893
-6.77131056518e-06
2.97629196571e-06
1.26820971709e-05
-1.1443042497e-05
-0.000256579559024
0.0122287045737
0.0122148520794
0.0121381851154
0.0121987152813
-8.79790936711e-05
7.89633017046e-05
-9.98497647564e-07
2.6040973228e-05
-6.76808777363e-05
0.0119344185877
0.000489458614887
1.07632883126e-05
-9.28044063219e-07
1.29632569902e-05
1.23320405275e-06
-4.57920829906e-05
-0.0492964764817
0.049381336411
1.45732369433e-05
9.03010214699e-06
6.79652851219e-06
1.43251184842e-05
-4.83910949727e-05
-0.0494391403781
0.000550880852786
0.0119584925462
-5.94517987755e-08
1.3938042682e-05
-0.0119510980771
6.81312770179e-05
0.0119840968565
1.74077798934e-05
-6.4751501504e-06
-6.36377615835e-05
-0.0119823013327
5.95847020276e-05
0.000948854871361
-2.30866303151e-05
-4.50568390815e-05
-2.47712729099e-05
-4.09713935683e-05
0.0492224977675
-0.000208499340581
-0.000177609504575
-0.000209689344402
-0.000175179796077
-3.75258336275e-05
-3.04368933012e-05
-3.54188215942e-05
-3.12367967635e-05
0.0493695893793
-2.21643294823e-05
4.15182455487e-06
-1.23729736765e-06
-1.51550065802e-05
1.54427960422e-05
0.0495894265954
0.000868790691604
-2.72470728487e-05
-4.70463581637e-05
-4.76152982452e-05
-2.36404566398e-05
5.60507291907e-06
2.93953476581e-05
0.0119551274291
8.24056343487e-05
0.011828078605
-5.88992305745e-06
0.000104113595908
-0.0118602278646
0.000125321107925
-0.000120625071305
7.46815724484e-05
1.17005496954e-05
-2.18470296989e-06
-8.03008393206e-05
0.0119833713021
0.0119059817549
0.000100942112847
-3.32659385442e-06
8.27610097684e-05
-0.000113726129987
-0.0119404169519
0.0499077888005
-4.65418128144e-05
-3.58587609541e-05
-3.5552186024e-05
-3.71854888606e-05
-0.00113479708631
-5.071685552e-05
0.00115919599161
-1.37549581525e-05
-6.11959061108e-06
-1.40536666237e-05
1.50987561926e-06
0.0504626936588
-0.000229519297671
-0.00145247338683
9.67289584137e-05
0.0118094314531
0.000151737561191
-0.000135753501075
-4.59858732174e-06
1.96572352214e-05
-0.0117145522365
0.000192220853751
0.0117683329254
-0.000194073589973
0.000116635292609
-4.96669650258e-06
8.40244543924e-05
-0.000119436966817
0.0119015402042
0.000134146412525
-2.79800557261e-06
3.64028686019e-05
-0.00015167601419
-0.011805231336
0.0118361818663
0.000757439789262
-2.38360282025e-05
-5.05835544286e-05
-2.4966734541e-05
-4.63668620957e-05
8.54506578175e-05
0.0499211284799
-1.73846481619e-05
-4.22048112163e-05
-3.89896413638e-05
-2.17494319111e-05
8.59101527034e-05
-0.0497683914361
0.000639016565283
-1.23802856792e-05
0.0119878264871
6.53156402441e-05
-0.0119908697676
0.011926079477
-2.96928409842e-06
7.28973633277e-05
-0.0119622365155
9.11453325194e-05
0.0119243770445
-2.6276398971e-06
6.06853492846e-05
-6.44812659138e-05
-0.0119591883499
5.56153347038e-05
0.000959444984519
-3.90674800922e-05
-2.80097808429e-05
-3.28590378372e-05
-2.39153210843e-05
0.0503921915908
1.05452774917e-05
0.050136397674
-4.47735236131e-05
-4.18274443429e-05
-3.62990450552e-05
-4.25016012617e-05
9.51888379122e-05
-3.37157321651e-05
-2.11333910757e-05
-3.1074948181e-05
-2.25263459115e-05
0.0503522654324
0.000767232666942
8.46197519083e-05
7.93024066186e-05
0.011918072505
0.000112635723992
-2.20812038611e-06
3.51912972446e-05
-0.0118244013968
0.00011375143063
0.0118488894651
6.44229982516e-05
-4.46387116824e-06
7.01361456462e-05
-5.92645877495e-05
0.0119142914152
6.19325034331e-05
-9.69544623834e-07
2.13895280479e-05
-7.26491361502e-05
-0.0118302173072
0.0118341652645
6.50503437997e-05
0.0119025029798
6.81022826414e-05
-0.0119082724931
2.10954785678e-05
-0.0118286852859
0.0118286216282
-7.48153609954e-07
5.14540783979e-05
0.000157168843831
-3.78183741659e-05
-3.52104715982e-05
-4.18069566014e-05
0.000912144316277
-0.000123985646053
-0.000890642019117
-1.31809925893e-07
0.000873423815959
0.000107075991395
-1.36564398452e-05
-1.07930149951e-05
-2.72481255221e-05
-0.000888824644904
9.57590855647e-07
2.50779665542e-06
8.47028510609e-07
2.50897326288e-06
1.82644630714e-06
-0.000158724132783
0.0007854892568
1.39023706931e-06
1.31466951139e-08
-1.16010985644e-06
-2.71596798054e-08
-5.21376059611e-07
-4.49488207498e-08
3.05235578552e-06
-3.06486440296e-06
-8.51570903722e-08
1.68923459146e-06
1.02558839324e-08
-8.86240052407e-07
2.98956501467e-06
-1.26620301838e-07
-3.70467513201e-06
3.1471133869e-06
-1.30152621796e-07
-2.87752229364e-06
-1.75934662699e-07
-5.89775623053e-08
1.65760113229e-06
-1.25528034882e-06
-2.7221517223e-07
2.62551216862e-06
-3.48125853711e-07
-3.15805680922e-06
-2.13360592289e-07
1.32080634496e-06
-1.69687641214e-06
1.79861826801e-05
-1.19103409856e-05
-2.1665144923e-06
-1.11194755506e-05
1.50962584457e-06
-0.00084420650466
0.000781193526562
-2.06605509129e-05
-1.81325278428e-05
-2.02120775814e-05
-0.000774250154108
8.11580839492e-07
-3.78550129535e-05
3.35795125432e-05
3.85980790449e-06
4.01246125447e-06
5.24470163163e-06
3.17666117731e-06
-0.000118557436731
0.00072021423055
1.80558126377e-06
2.66996667937e-07
5.31086022273e-07
1.10783696577e-06
3.2131866213e-06
0.000625059770074
-3.46619182795e-05
4.00047502845e-06
1.89309986065e-06
2.76384028538e-06
1.33090236869e-06
8.63890966122e-08
-6.07967238654e-07
6.79612206633e-08
2.42848480722e-06
8.20089905558e-07
4.87801576707e-08
-1.31197410828e-07
1.94498516877e-06
1.63899577175e-07
5.29586316002e-05
2.44094078833e-06
1.84399637642e-06
1.16537654272e-06
4.50727180174e-06
0.000458123777578
-0.000124995221094
0.000530640236144
3.54488698972e-06
2.74794211523e-06
2.74878350903e-06
5.15007979308e-06
2.6977762724e-06
-3.90943319428e-05
7.54943086541e-07
-8.37476092754e-06
4.37302244881e-06
0.000472864602943
2.11312618043e-06
2.80887920427e-08
1.3624021916e-07
1.03055289444e-06
1.84255730465e-06
3.55232454408e-07
4.78299585813e-07
1.00788795528e-06
-7.39102057285e-05
2.58664038378e-06
1.37097600195e-06
2.37285117516e-06
1.80968318401e-06
2.25773787545e-06
0.000627745903707
2.02635715517e-06
5.93012435339e-07
1.55584141935e-06
-0.000724858205921
-9.5413087857e-05
4.34841876905e-07
-2.00933529725e-08
2.8948324888e-08
1.54969833882e-07
1.66699243116e-06
1.68198004329e-06
-3.73722281075e-07
1.13225761329e-07
-0.000119466844793
2.63105509356e-06
-1.30181620664e-05
1.78712016569e-07
3.3825892918e-06
0.000472809015878
0.000539603581566
2.93953018065e-06
9.93948496553e-07
2.01996459381e-06
3.37889348347e-06
2.55486156393e-06
1.56954109983e-07
-2.02612636415e-05
3.18831934191e-06
0.0004819206587
-0.000197488711323
1.98661131313e-06
4.20141302542e-07
6.39564363619e-07
1.46157429735e-06
2.58110080509e-06
3.0968605973e-07
2.60342707215e-06
5.00602625039e-07
0.0122567922033
4.27550574232e-05
2.9024571018e-06
1.97545328129e-05
-0.0122898190279
1.3650574605e-06
-0.0122577407241
0.0122249015555
2.36640067256e-05
3.23901515819e-05
-5.24461133804e-05
-1.47337885404e-05
-0.0118963167439
-2.42147241184e-05
-0.0119132530671
4.00158338699e-05
0.0119069979724
2.97363058924e-05
0.0122298521055
4.09619219097e-05
-0.0119108663823
1.91946056592e-05
-0.0122876239393
0.0122656660999
4.38858347757e-05
2.96692405849e-05
-0.0122940008791
-5.89048080687e-05
-0.0122773013113
0.0122605981313
9.01322803322e-05
-1.2275702293e-05
-0.0119235734383
0.0119201999231
-1.35147253671e-05
-5.19840395678e-05
6.19453468073e-05
-0.0119257004557
0.0122420109402
7.22634148723e-05
-0.0123018976589
-0.0119179640342
-0.0122299147594
0.000100016146224
-4.67980779066e-05
-5.89202613996e-05
0.0122288865932
-7.36439472391e-05
0.012251817874
0.000111525192725
9.46104883533e-06
0.011914971626
-4.89605874421e-05
5.53245467991e-05
-6.82518880376e-05
8.61628099757e-05
0.0118875980553
-3.92975172705e-05
0.000139207047885
0.0122564299739
-5.36817810097e-05
0.0118900663248
-9.47897851568e-05
0.0123186435065
4.80429611686e-06
0.000113977474574
-0.0123317762526
-0.012296736823
0.000113984212418
0.0122858948895
-8.41515696358e-06
6.44382859651e-05
-0.0119409655992
8.24233300733e-06
-0.0119681501359
7.06045367708e-05
0.0119645501388
-0.0123145172348
0.000132527449627
0.0123096555688
6.31172325192e-05
-0.0119583912544
0.0123418706179
0.000126912157253
1.24746345428e-05
-0.0123526648872
-0.000143186141682
-0.0123618959257
0.0123571754717
0.000150416960445
-2.88603276477e-06
-0.0119774017426
0.0119747633702
-1.4288042882e-05
-5.76145724749e-05
-0.0119727993574
5.23594356773e-05
0.0123351595331
-0.0123702060918
0.000135328477428
-0.0119697117925
-0.000163899501602
-0.0123036207822
-5.95646176883e-05
0.0123163013021
0.000183210673632
0.0122789760627
0.000139100570103
6.25617920939e-05
9.3273275555e-05
0.0119085058589
2.06669621119e-05
0.0119632759803
8.22236483068e-05
0.012287511575
0.000158776632238
0.0119389170206
9.07724303157e-05
-0.000185223332221
0.0123451657655
-7.25533281255e-05
0.000205975908896
-0.0123115576668
0.000226252469962
0.0123504719872
-0.000205673961251
7.0213863024e-05
0.000110537301542
-0.000104441327245
9.34424608589e-05
-0.0119191319932
0.000124708702574
0.0118490459124
-0.000163384353632
0.000237765119404
0.0123854000004
0.000108266613322
-0.0123310390264
0.00019224864452
-4.48403223719e-05
0.0123446770484
-0.000169707940444
0.0123547751103
0.000173965575062
7.75467648127e-06
0.0119819949634
2.87935883609e-05
-8.73589535693e-05
0.0119707206801
7.97791965251e-05
0.012368082347
0.000192579989582
0.0119657834228
0.0123727274283
0.000213277494277
-6.23310755359e-05
-0.000235170575982
-0.012392021294
0.0124294180378
0.000233553178909
8.30669501792e-05
-0.0119487356555
0.011887043714
4.34153132798e-05
-0.000103261144525
9.17397862806e-05
0.0124102546433
0.000209172636637
-0.000270860212606
-0.0124214906657
-8.23627568306e-05
0.012463888843
0.000285044257793
2.73351046476e-05
0.0123983133524
0.000247268128671
2.39913219858e-05
-0.000222545813413
6.03881094231e-05
0.000159129414777
0.0117415350033
-0.000157548228478
6.50434628451e-05
0.0117803638838
0.000143603788406
0.0124375792721
1.96952124375e-05
-0.000268513508404
0.000254385124911
2.24245592134e-05
0.0117919219747
0.000156062819734
-0.000286602173949
-5.08894533934e-05
0.0125342746329
0.000302953731326
-3.43884468625e-05
-0.0125065064083
0.000313448109908
0.0125840146148
-0.00031528950934
-5.60663561211e-05
1.80850634872e-05
0.000168201824212
-0.000178383274054
-0.0118223406371
1.27595438614e-06
0.000181984673423
0.0117834437587
-0.000290686874811
-4.58339853566e-05
0.000172261716903
0.00032268433479
0.0125874816067
-6.16973855023e-05
-0.0124483261582
0.00027806184686
-8.23885136436e-05
0.0124924979365
-0.000246239643687
0.0124767678943
0.000246809378992
6.48420259657e-05
0.0118149880893
5.89322158687e-05
-0.000144843333917
0.0118547556388
0.000126232306289
0.0125126316925
0.000264677435566
0.0118257900102
0.000295363938486
-6.00551421975e-05
0.0125478019532
-0.0125474170488
-0.000296500501423
0.000284109923355
0.0125896279567
-0.0118542125239
1.88412169997e-05
0.0118209295418
2.7960044516e-05
-0.000167107595639
0.000131802154147
0.000275007646182
0.012593867505
-0.000182219852287
-0.0123973702483
-9.13755257897e-06
0.0124085521873
0.000169583731213
0.01237943645
0.000166685179692
-0.0123800865615
1.32296786402e-05
7.24164367296e-05
0.0119873774293
-1.47958662954e-05
0.0119854018588
-0.0119855108031
5.90580019216e-05
0.0123909626237
-0.0123961192362
0.000155369186388
0.0119841605283
6.35276145722e-05
-0.000196623779395
0.0124319246564
-3.39753303803e-05
0.000183449734107
-0.0124126306124
0.000218601519911
0.0124498549264
3.39673011404e-05
7.93512090886e-05