/*--------------------------------*- C++ -*----------------------------------*\
| =========                 |                                                 |
| \\      /  F ield         | OpenFOAM: The Open Source CFD Toolbox           |
|  \\    /   O peration     | Version:  v1906                                 |
|   \\  /    A nd           | Web:      www.OpenFOAM.com                      |
|    \\/     M anipulation  |                                                 |
\*---------------------------------------------------------------------------*/
FoamFile
{
    version     2.0;
    format      ascii;
    class       volScalarField;
    location    "3.55";
    object      alpha.water;
}
// * * * * * * * * * * * * * * * * * * * * * * * * * * * * * * * * * * * * * //

dimensions      [0 0 0 0 0 0 0];


internalField   nonuniform List<scalar> 
28582
(
1.00000175169
1.00000190945
1.00000201327
1.00000212554
1.00000157547
1.00000167503
1.00000391892
1.00000397879
0.0266966935991
0.0275113414172
1.27464794089e-06
1.00000310105
0.943471599072
0.940176709642
1.00000383096
1.00000658848
0.939634173316
0.999864137158
0.999894663573
1.00000071673
1.00000104668
1.00000088426
1.00000080413
1.00000195563
1.00000209291
1.00000083117
1.00000249227
1.00000579746
1.00000376638
0.0278338307805
1.541425575e-06
1.92641759758e-06
1.00000732744
1.00000646282
0.944799634902
0.944523367983
0.999952322474
1.00000421347
1.00000748496
1.00000964447
0.999873311479
0.935608626377
0.999889356204
0.999932420257
0.0273177382291
0.0272241460105
6.76664236372e-05
8.18730356086e-05
0.0275197033984
0.000113630311478
0.999941350642
0.999909689195
0.942517370875
0.943508020242
0.999932495981
0.942458463415
0.99993608428
0.999887583935
0.999885842377
0.941062600432
0.939568614749
0.999870524091
0.941247710472
0.999912919787
0.999838599755
0.999872048675
0.938860160944
0.938605472879
0.999833629525
0.938336049702
0.999868428904
0.999881266024
0.938426580573
0.938192278002
0.999843657053
0.938653586521
0.938261218024
0.999871727461
0.999915616663
0.938727733441
0.940685912954
0.999860649176
0.940618144063
0.999877088586
0.938431010005
0.0260391700671
5.41480880505e-05
0.0254098387057
0.0255644236115
3.33831574751e-05
3.74279568381e-05
0.0273452839701
8.93759671122e-05
7.47088321671e-05
0.0281526428033
0.000143130791531
0.0288399166973
0.000107339049506
0.999945712913
0.999947462552
0.945088789193
0.943993852863
0.999959044419
0.999924292933
0.944088712623
0.999949726204
0.999973745544
0.945028432703
0.943951517399
0.999972538495
0.999954816906
0.944029057886
0.944195140725
0.943791320196
0.999959235505
0.999988034524
0.943663066283
0.99998911475
0.943777450598
0.99988955773
0.938261204648
0.938052589277
0.999872070846
0.937706855715
0.999890990408
0.937421468051
0.999871730535
0.999867182732
0.936770973254
0.934504678293
0.999873601024
0.999856133733
0.936355209941
0.999933961357
0.999920360446
0.938470680031
0.940132784119
0.938895768491
0.999881129142
0.937803490983
0.937243807037
0.935575075589
0.999920757879
0.999865587982
0.934750594034
0.999869491609
0.936498574147
1.00000312867
1.00000418484
0.0306847568482
5.39129921075e-06
1.00000659929
0.943017380252
1.00001075991
1.00001015339
0.933716682364
0.933757196542
0.924723331119
1.0000092722
1.00000813359
0.918984918226
0.90054807551
0.0264742310527
0.0298822657268
0.032453219166
0.000190918918587
0.000213275776047
0.000290304736799
0.0351721283867
0.0379455710738
0.999931182692
0.999952905731
0.94334630379
0.942793065747
0.999973062795
0.942736315016
0.99995496329
0.99980642072
0.999856172313
0.930751181555
0.93234330053
0.99982988831
0.99982920228
0.92968725412
0.999838542246
0.999904458026
0.932803945856
0.931759950462
0.999864957066
0.930416073617
0.999885298864
0.999810212781
0.999803475521
0.922645159096
0.928858002855
0.999766374029
0.926785081175
0.999851432525
0.999624116998
0.999731595745
0.917782704382
0.912310507333
0.999709623705
0.912135294297
0.999638467198
0.99954271111
0.999449390857
0.900322533849
0.906183480107
0.99945745833
0.906079725304
0.999536862496
1.00001307391
1.00000567267
1.00000488586
1.00000515703
0.0182197180021
0.0219242425009
0.0168084638394
0.0196154579133
0.0198475593479
4.72241620624e-06
1.60104828094e-05
2.90424223371e-06
9.2004768339e-06
1.0916669575e-06
8.66381695594e-06
1.00000415261
1.00000482771
0.962546801026
0.964343683004
1.00000674126
0.965907899491
1.00000627608
1.00000752843
0.965111486622
0.965097372282
1.00001326146
1.00001287496
1.00001398641
0.966466386009
0.958440789622
0.96595915308
0.960760044573
1.00001439429
1.00001215495
0.955582414133
0.942045226177
0.958041654952
0.947553762944
1.00000677451
1.00000866495
0.965094187014
0.961140216726
0.959606673193
1.0000044527
1.00000858586
1.00000739139
0.958497892357
0.94865655623
0.956671674918
0.949518585558
0.955049489099
0.949264572767
0.0189153442025
0.0185350343491
0.0190293628218
5.57588141852e-05
0.00012203762944
7.35291526732e-05
0.000128732394062
0.000212737536904
0.000237326712475
0.000207298136615
0.000207827247803
0.0177064985583
0.0168920407123
0.0198605562159
0.0171855547636
0.0185272778276
6.37409364182e-05
0.000113942188288
3.89881451197e-05
9.19689541127e-05
0.0230519939843
0.0205331028504
0.0218388632468
0.000177921660574
0.000168279459704
0.000153823953926
0.00014533023758
0.0178180780878
0.0177194858861
1.88794279632e-05
6.78029654047e-05
5.46352815147e-05
0.0209951848781
0.0194088384956
0.0207855905679
0.000132530717519
0.000141007146895
0.000107739995476
0.000140299279931
0.999972825794
0.999992027472
0.961151118999
0.962773772235
0.999987994264
0.961704291949
0.999991102447
0.999972014015
1
0.963628096471
0.962631987903
0.999975949382
0.999987295903
0.962343642666
0.999989789
0.99999828789
0.964518402681
0.964800926467
0.999990638277
0.999987597859
0.964529033048
0.999993305287
1
0.963426021091
0.965458907079
0.999995989287
0.999997506543
0.964334253971
1.00000159445
1.00001512287
0.965303236578
0.964324499383
1.00000910967
1.00000587682
0.964502120483
0.999994837912
0.999999560966
0.96527173183
0.965869513372
0.99997436703
0.999999446627
0.965524682565
0.999998184284
0.999952957746
0.96146763433
0.960312192354
0.999949203415
0.999957706641
0.964340372255
1
1.00002096505
0.966261964081
0.965816894203
1.00001021908
1
0.966218138625
0.999994868166
0.999987235398
0.9613983603
0.963601887757
0.999969770438
0.999999200813
0.965040195982
0.999937203573
0.999939773433
0.950259463108
0.952396828881
0.999915364472
0.999912543479
0.948981960861
0.999951343953
0.999938879854
0.942778331944
0.946422198399
0.999935021997
0.948916283101
0.999947549045
0.999945810538
0.999966376153
0.954502516708
0.954593342213
0.999941073988
0.99996364338
0.950486917884
0.999956068993
0.999958219602
0.948545208758
0.94911134706
0.999972324803
0.950523285767
0.999938742468
1
1.00001462206
0.965771006614
0.964225744081
1
1.00001063625
0.965028913597
0.999999161673
0.999990866907
0.964061725458
0.961976605681
0.999997552655
0.99999805711
0.964138030738
1
0.999988910887
0.961598730245
0.962314877964
0.999996154336
0.999999733946
0.963431489014
0.999974980413
0.999972529675
0.955480281716
0.957577398856
0.999941989101
0.999983836662
0.953350220839
0.999959087401
0.999961921203
0.950317299001
0.951473439624
0.99995289878
0.952540645837
0.999961650548
0.999971739671
0.99998179453
0.957652149323
0.95480259771
0.999974084662
0.999966659363
0.953154977246
0.999959909252
0.999976681183
0.951687840059
0.951364291513
0.999979993862
0.952349394791
0.999968705037
0.999954870792
0.999971934162
0.953802172666
0.953720622798
0.99993150671
0.999957816508
0.95010272257
0.99996274163
0.950957470726
0.999952102161
1.00000127431
1.00000144803
1.00000160639
1.00000051518
0.999999861488
0.999999079316
1.00000132399
1.00000153777
1.00000170343
1.00000187946
1.00000130965
1.00000122365
0.999970949828
0.999974429826
0.999940546291
0.999965420255
0.999992020576
0.999997433181
0.999997909616
0.999997739627
0.999999932083
1.00000090599
0.999994006454
0.999983200645
0.999986703218
0.999995376067
0.999998465348
0.99999946781
0.999997388561
0.999998006717
0.999998954006
0.999999539384
0.999999662809
0.999999692335
0.999999743489
1.00000030109
0.99999990025
1.00000045416
1.00000062073
1.0000006114
1.00000091575
1.0000007907
1.00000065972
1.00000096053
1.00000118347
1.00000095647
1.00000075733
1.00000141852
0.999912285062
0.999650224152
0.999939995418
0.999992863939
0.999998660677
0.999999469616
0.999999674783
1.00000059794
0.999897276338
0.999857869994
0.999963044143
0.999993754889
0.99999883241
0.999999422415
0.999999759895
1.00000091043
0.999978058267
0.99998565148
0.999996750929
0.999999662285
1.00000004933
1.00000024861
1.00000042299
1.00000138256
1.00000059432
1.0000008025
1.00000075416
1.00000073509
1.00000064937
1.00000052418
1.00000056618
1.00000137783
1.00000177019
1.00000167206
1.00000170523
1.000002865
0.99979466842
0.999589485492
0.999988980083
0.999999404616
1.0000017485
1.00000262472
1.00000238786
1.00000257903
0.999955330773
0.999763944181
0.999994155428
0.99999998014
1.00000134981
1.00000165161
1.00000144885
1.00000208205
0.999993680334
0.99999411551
0.999998375849
0.999999991226
1.00000066633
1.00000108138
1.00000153699
1.00000253031
0.999999761352
1.00000073111
1.00000081466
1.0000007252
1.00000065421
1.00000066281
1.00000089171
1.00000146552
1.00000256223
1.00000105426
1.00000128428
1.00000164791
1.00000192069
1.00000189467
1.00000242104
1.00000315882
1.00000340501
1.00000392398
1.00000476247
0.999891296041
0.999868649161
0.99999785103
1.00000244882
1.00000971764
1.00001485715
1.0000124255
1.00001185022
1.00000574784
1.00000609965
1.00000444632
1.00000505581
1.00000805988
1.00001030231
1.00001019862
1.00000782061
1.00001100734
1.00000350734
1.00000324042
1.00000386133
1.00000490121
1.00000546532
1.0000056653
1.00000508709
1.00000447422
0.999999994834
1.00000121471
1.00000670828
1.00000766615
1.00000719653
1.00000428711
1.00000091569
1.00000047457
1.00000043611
0.999998237461
1.00000060077
1.00000745567
1.00000533997
1.0000041829
1.00000349812
1.0000016244
0.999998734292
1.00000191361
1.00000208755
1
1.00000473128
0.027316314899
0.0278271875922
0.0273417338371
0.0260353594427
0.0274544895697
0.0327279332799
0.0393005911005
0.042941035154
0.0235343945881
0.0230347893586
0.02511606478
0.0266840227134
0.0265219027501
0.0255655585312
0.0265854234074
0.0320472830554
0.0389037380449
0.0426144602332
0.0215427884212
0.0223222059055
0.023468660392
0.0249725049506
0.025726935059
0.0261925414115
0.0280160738955
0.0331129593851
0.0395230099391
0.0437876395412
0.0237514582402
0.0240387834284
0.0247856724229
0.0265371928951
0.0276106622436
0.0295131506813
0.0350948045065
0.040916786571
0.0451768640988
0.0261316488497
0.0266823358882
0.0272773573799
0.0301778263966
0.0359038637372
0.0411128477648
0.0437432590636
0.03559208376
0.0403084211822
0.0429013081524
4.82926395138e-06
1.05499597373e-07
4.33998148897e-09
5.12583211441e-09
3.15178078767e-28
3.08958191378e-09
3.34104814565e-07
5.06595874866e-06
3.09911166804e-06
7.11973643151e-05
1.5940740905e-06
8.31031243496e-09
3.12477272284e-10
3.95629028395e-09
-1.09367309617e-25
2.65255906131e-08
4.27744711935e-07
3.57091655504e-06
3.93798315553e-06
7.7304589819e-05
4.26749819068e-06
3.78456446734e-07
1.8719891399e-08
2.39445162179e-07
7.6533746982e-07
9.30625302937e-07
1.70475269224e-06
6.35073188677e-06
2.46976975132e-06
5.73954046841e-05
1.13161297299e-06
3.55803177545e-07
5.38727325993e-07
1.92903334087e-06
1.32294655201e-06
3.3257707952e-06
1.01201515794e-05
3.28934365346e-06
5.31740616122e-05
8.11110631145e-07
3.19980254745e-07
6.32614224606e-07
5.46758728994e-06
7.39188686823e-06
8.80326383569e-06
7.13140005184e-05
4.36765548564e-06
8.54723732995e-06
8.0903140565e-05
0.999949878115
0.999993181569
0.999996260233
0.999880383184
0.999899169731
0.99988224465
0.999887781082
0.99999690473
0.999998074221
0.99999996669
0.999931100623
0.999887496082
0.999935526301
0.999956226606
1.0000009897
0.999998614676
1.00000060041
0.999988429422
0.999992343633
0.999992801511
0.999995406142
0.999999931794
1.00000035131
0.999999786153
0.999995183884
0.999994429346
0.999998379297
0.999998473664
0.999867014529
0.999853820892
0.999613025087
0.999892949467
0.99953802445
0.999639511752
0.999513071303
0.999727182438
0.999637392249
0.999799150142
0.999548060335
0.99981739516
0.999513302097
0.999735411209
0.999833303914
0.999991748986
0.999990333585
0.999943390177
0.999730010749
0.999974279035
0.999934087052
0.999898546975
0.999987411874
0.99998998433
0.999560871062
0.999770565609
0.999928282778
0.999947820653
0.999513071324
0.999880031501
0.999575873239
0.999702787126
0.999553213132
0.999815723162
0.999758469439
0.999861735454
0.999661702434
0.999879783248
0.999780921464
0.999961225958
0.999840977783
0.999957251234
0.999800035712
0.999982707406
0.999956052037
0.999953179951
0.999930019107
1.00000365876
1.00000228255
0.999880966238
0.999949397157
0.999966991224
0.999942574746
0.999978054804
1.00000024604
0.999999761649
1.00000242184
1.00000517591
0.926877935049
0.932540619899
0.999800201745
0.999962938608
0.999943798289
0.927174571087
0.930038377176
0.932164159463
0.932824602999
0.999968695571
0.999955783368
0.999984578853
0.930871445663
0.933384313858
0.933191936972
0.935259233498
1
0.999999165474
1.00000202632
0.934177641008
0.937543831143
0.936038608464
0.939278371253
1.00000611757
1.00000720156
1.00001070921
0.937687451654
0.937105551491
0.94007776129
0.940469900046
1.00001133692
1.00001201607
1.0000117597
0.93670175919
0.935409671848
0.940569811932
0.938437341616
1.00001530091
1.0000097157
1.0000111968
0.932979071865
0.911590829323
0.93533727591
0.913503294223
1.00001100046
1.00001020193
1.00001093458
0.902923239258
0.88695822548
0.905865369332
0.890383119017
1.0000137614
1.00001546142
1.00002079758
0.888619688588
0.883449479472
0.891497154042
0.881378338092
1.00001259791
1.00001095073
0.943168368163
0.93739330915
0.948561959491
0.946082128058
1.00000808162
1.00001061878
1.0000059839
0.937247808324
0.934989784769
0.945153385063
0.942319423856
1.00000562954
1.00000414161
1.00000246768
0.934406595108
0.934415067962
0.941315058467
0.939920426655
1.0000039519
1.00000126993
1.00000142642
0.934626166626
0.936268383516
0.939816431388
0.940324254884
1.00000706969
1.00000141941
1.00000272719
0.936917695844
0.940208740535
0.940688374576
0.941909347869
1.00001063152
1.0000051107
1.00000692964
0.941033949466
0.942027244589
0.941962830872
0.940423203867
1.00001075633
1.00000814446
1.00000816051
0.942065958094
0.938884896078
0.940138053002
0.937175485969
1.00000708557
1.0000067655
1.00000409382
0.935276410954
0.913438394859
0.933498114226
0.912009522823
1.00000946294
1.00000317316
1.00000242056
0.906175337442
0.891281869838
0.904584634045
0.889214217226
1.00001521142
1.00000795955
1.00000938387
0.892171341284
0.879707856835
0.890186548379
0.87788120795
1.00000483563
1.00000731868
1.00000634001
0.949540374063
0.947329191189
0.949860028451
0.948637866511
1.00000423105
1.00000601142
1.00000585033
0.946522773199
0.944130036954
0.948457254842
0.947297186625
1.00000481002
1.00000653487
1.0000077639
0.943313274575
0.941918130465
0.947124681516
0.946116499974
1.00000543117
1.00000819959
1.00000806313
0.941688348358
0.941863463726
0.945581952115
0.943165029145
1.00000575503
1.00000667487
1.0000058215
0.94202188732
0.941278537648
0.941821713264
0.936771757896
1.00000557004
1.00000447256
1.00000356413
0.940728162068
0.938719422043
0.935697662518
0.935269310574
1.00000486263
1.0000046236
1.00000508846
0.938520191099
0.935655807446
0.935688335704
0.932791399149
1.00000130009
1.00000339549
1.00000162029
0.932021442658
0.910974359537
0.928692781176
0.905661974956
1
1
0.999999722822
0.903354804644
0.887863696991
0.897058338409
0.881238976905
1.00000536165
1.00000595298
1.00000839586
0.888720297661
0.878771344401
0.882613434162
0.879276186393
0.949506880901
0.947962427142
1.00000737841
1.0000061569
0.947724780249
0.946828196718
0.944758504349
1.00000823893
1.00000685125
1.00000892258
0.94699691112
0.946071745707
0.945599830722
0.945479490036
1.00000598201
1.00000900626
1.00000802428
0.945702112812
0.943406779203
0.944735401986
0.943242282777
1.00000198888
1.00000612505
1.00000415607
0.941699062947
0.936055770704
0.942502802142
0.939402655077
1.00000137542
1.00000328891
1.00000282259
0.935029472127
0.934530196597
0.938407897798
0.936149237835
1.00000065989
1.00000259428
1.0000030917
0.934742762605
0.931113230939
0.93582513574
0.928742524369
0.999997788804
0.999999721132
0.999997829791
0.926651335525
0.903078182146
0.922792572305
0.897463484994
0.999999407211
0.999998089912
0.999998548406
0.894623405966
0.880592532901
0.890729390383
0.883840813653
1.00000607867
1.0000054956
1.00000958341
0.881926954784
0.880189220737
0.885359573504
0.883247423431
1.00000731588
1.00000599142
0.943534712965
0.942761774786
0.941426364602
1.00000478834
1.00000446812
1.00000417409
0.942793198295
0.941658493729
0.940904614728
0.939620525342
1.00000408438
1.00000443312
1.00000564009
0.940817803341
0.93791549098
0.939441427932
0.937263074228
1.00000177904
1.00000551929
1.0000047782
0.936911364667
0.927304364074
0.935479053212
0.922029895074
0.999997983823
1.00000019697
0.999998091526
0.921185437494
0.896952011627
0.916074493234
0.899211582942
1.00000041663
1.00000003303
1.00000169727
0.891434048043
0.886739756279
0.89561590729
0.893859274121
1.00000713078
1.00000733004
1.00000905816
0.888300183247
0.882574673895
0.895470733178
0.883393597661
1.0000029439
0.921446511659
1.00000110882
0.91586641211
0.900482944938
1.00000370583
0.896853459785
0.895043444987
1.00000649516
0.896406495604
0.883481687142
0.000181772597079
4.11950540562e-05
0.000139145775993
2.66300261059e-05
0.0258788880777
0.0249920453102
1.02589614192e-06
1.63474538474e-07
3.79425871067e-07
1.78222829765e-07
0.027882954721
0.0264343161682
0.0271179970958
5.45580837686e-07
9.01800129612e-07
5.87685037046e-07
2.29781582996e-06
0.0276778574282
0.02740087627
0.0273132953753
4.60584593207e-07
2.64912880023e-07
3.25292923492e-06
2.56787056332e-06
0.026603283375
0.0269340177012
0.0262908304526
1.21036919738e-06
8.09649091099e-06
2.68146404173e-06
2.62676339018e-06
0.02632497324
0.0257927060925
0.0259570203045
1.62719170821e-05
1.18507535266e-05
2.76652622333e-06
1.79434930224e-06
0.0295796427432
0.0268385026995
0.0289615618916
1.69991882047e-05
8.35239650571e-05
7.14008805741e-06
6.58955766068e-05
0.0359768178304
0.0321651666308
0.0356841618233
0.00017366083791
0.000285984915479
0.000154948733184
0.000281311761673
0.0422465314623
0.0390378588932
0.0419703868169
0.000357161768945
0.000383128360364
0.000359965981778
0.000385343208545
0.0423794726737
0.0425978758243
0.041995253045
0.000681442720513
0.00120880368519
0.000676867834971
0.00121444962442
0.0229455966192
0.0220050789254
0.0221062903706
9.63061776822e-05
2.15256280404e-05
7.86109842133e-05
1.99762881456e-05
0.0239508813519
0.0223079366818
0.0231181711021
9.72418346109e-07
3.36952615612e-07
3.84251408807e-06
3.39707844341e-07
0.0260391997952
0.024047260008
0.0251264350875
4.88799203736e-07
1.43098808537e-06
3.89603338875e-07
4.08548499881e-07
0.0268155512949
0.0258069670856
0.0260546459857
2.4366191239e-06
2.98876052121e-06
2.07420189378e-06
3.65539205782e-06
0.0259718829617
0.0259666296355
0.025692344099
3.34948887478e-06
3.47802313346e-06
7.65406382518e-06
6.18762011512e-06
0.0256903619577
0.0256004581135
0.0259441802675
1.90056732859e-06
1.15310732661e-06
6.00201934642e-06
3.81384126015e-06
0.0288094067168
0.0270267949817
0.0292702939722
9.30571276956e-06
6.83571489258e-05
2.45704599412e-05
8.22817704951e-05
0.0356022753106
0.0323414571641
0.0357881019274
0.000153709871257
0.000280683716028
0.000172662074335
0.000306883961297
0.0418582868187
0.0390276769533
0.0420851709215
0.000376096091375
0.000413248144313
0.000394054138395
0.000434443984597
0.0420441135115
0.042958727883
0.042390573677
0.000717004154404
0.00124232502433
0.000763856752925
0.00126202548568
0.0217331785148
0.0216580425977
0.0222612341461
9.90237554311e-05
4.08576883349e-05
0.000128332585175
9.20027672546e-05
0.0228639802556
0.0226780491593
0.0230364545798
1.19416871987e-05
2.90698062097e-06
4.92876068711e-05
2.75562620965e-05
0.0242734923812
0.0234442259161
0.023893023158
5.70342064486e-08
3.12451729666e-08
1.61128502428e-05
3.49039238932e-06
0.0253501988528
0.0246487456745
0.0254950843201
1.83993161548e-07
3.06904783687e-06
6.35973379005e-07
3.78775089063e-05
0.0258893317302
0.0261369335935
0.0265623625951
1.42019671449e-05
3.32455669237e-05
0.000100819580974
0.000145368601728
0.0267835823185
0.0270286688459
0.0276316489267
3.80819443272e-05
4.11696717491e-05
0.000143676756765
0.000119425094991
0.0302062874401
0.0288212884068
0.031085433062
5.86876690996e-05
0.000115458700313
0.00011276221504
0.000158224266555
0.0363237772928
0.0340401791579
0.0370688542234
0.000204152942959
0.000337579613021
0.000243570240257
0.000363215422301
0.0426583598691
0.040215962407
0.0433600882186
0.000385922610499
0.000412634393037
0.000409592199503
0.000440579356998
0.0432821752953
0.0446399835558
0.0437697334062
0.000684402937328
0.00107298069474
0.00070713755839
0.00107859981772
0.0239948651945
0.024866752617
7.85271158133e-05
5.51284215009e-05
6.08700814298e-05
0.0241545241642
0.0247378142543
0.0247145384721
2.95706673379e-05
5.0073432042e-06
2.87354501036e-05
2.26295336379e-05
0.0256738588524
0.0252725238551
0.0260411528293
1.95822131972e-05
7.05242531752e-05
3.72009898457e-05
4.73419194209e-05
0.0271488074348
0.0266763356819
0.0271578938958
0.000129418081327
0.000151331344585
7.6103079913e-05
8.88051096655e-05
0.0282198249732
0.0275943531958
0.0283014086413
0.000136046470623
0.000111380057546
8.45485771578e-05
8.57041643128e-05
0.0320908913419
0.0298843696319
0.0327524128855
0.000111824088871
0.000177241493155
0.000122469226041
0.000208304281207
0.0379157105411
0.0357033743164
0.0384929272023
0.000269939632223
0.000392094509235
0.000308279628379
0.000431575685185
0.0437623812252
0.0412558749187
0.0436160712098
0.000436263307068
0.000461167810483
0.000456082933325
0.000462024972882
0.0440573683739
0.0447823027328
0.0436909183296
0.000694142802816
0.00103243353128
0.000674050775994
0.00101727876053
0.0266142730572
0.0269848120971
3.56819757324e-05
2.21964677363e-05
6.38812002201e-05
6.51123402147e-05
0.0268851586983
0.0270909945332
0.0271392251697
6.54122200268e-06
1.58350510515e-05
5.11053455918e-05
4.1705434316e-05
0.0282227899522
0.0274727112791
0.0285137770872
2.72364536905e-05
5.82894505906e-05
4.96780706307e-05
8.03331040693e-05
0.033120758889
0.0305903744713
0.0332590711971
0.000126543474872
0.000234134160056
0.000155367017979
0.000287368200764
0.0387029180985
0.0358193996461
0.0384607225729
0.00032024486149
0.00042188798966
0.000362915854929
0.000433482401902
0.0429766454878
0.0406229231366
0.0423535292707
0.000493931041208
0.000515309120854
0.000482556138094
0.000502711052629
0.0431341103376
0.0430335211303
0.0429566751484
0.000749014833199
0.00112433981053
0.00074031049632
0.0011084754136
0.0330370105024
0.000300560469259
0.03823386841
0.000358885328938
0.000404508694249
0.000334442187983
0.000378475953648
0.0419445743727
0.000462323573518
0.000491309103195
0.000429037362854
0.000442945377588
0.0430662250033
0.000762858231582
0.00122401708856
0.000675545525199
0.00122140567174
0.999991282895
0.999952000026
0.925721407877
0.927968350137
0.999993403447
0.927954226606
0.999969959645
1.00001038866
0.999971687119
0.929656423826
0.932396353067
1.00001392017
0.999982948672
0.929654764417
0.999947174555
0.999918249885
0.927785912611
0.928634791722
0.999975405065
0.929342927479
0.999913034124
0.999934768899
0.999909438932
0.928952437133
0.930282888517
0.999934806105
0.929702801615
0.999911596375
0.999977543213
0.999955328029
0.93018365899
0.932085179018
1
0.999955047225
0.930922208493
0.999966011616
0.999957087753
0.931574321241
0.932371549214
0.999962534404
0.999960399498
0.931162121839
0.999932144358
0.999915465966
0.931849864264
0.931051496707
0.999931147411
0.931663490706
0.999927961912
0.999937638931
0.999938440238
0.932724630609
0.933300064214
0.99994820685
0.932351140897
0.999936942801
0.99995092623
0.999958206974
0.932148547474
0.933764939446
0.999953883068
0.999953359552
0.932630297708
0.999948969111
0.999933849537
0.934043222842
0.934527396689
0.999947387698
0.999944495914
0.933178376221
0.999936376813
0.999937753203
0.935275416248
0.934295401959
0.999943823291
0.93525519781
0.99992630001
0.999908012765
0.999896639676
0.936567078406
0.938466665095
0.999856495108
0.936506986601
0.999894663733
0.999935590833
0.999933210799
0.935067760575
0.937101562461
0.999941399387
0.999930131536
0.936085720767
0.999911807364
0.999945185109
0.938587247042
0.93829241792
0.999908166788
0.999933845746
0.937137206786
0.999846006311
0.999894653726
0.937683744429
0.939623576322
0.999849525461
0.94019483251
0.999907922688
0.999831139903
0.999920346627
0.937695564308
0.93942708679
0.999804653539
0.940158798877
0.999930286488
0.999922186541
0.999955560936
0.939779589188
0.940602613881
0.999915630377
0.999967998833
0.940502718154
0.999922056844
0.999965787149
0.940079989025
0.940670638281
0.999907843843
0.999968968622
0.940497795854
0.999765959725
0.999884369878
0.936486183142
0.938702722456
0.999782559779
0.93825184032
0.999858203274
0.999779154456
0.99984174574
0.936122505634
0.936631518383
0.999814071512
0.937816460175
0.999843169379
0.999887851476
0.999956269276
0.939766548198
0.94039400577
0.999899317749
0.99994864821
0.939331218592
0.999883156809
0.999903129436
0.937450460725
0.93971295005
0.999888546085
0.999928852007
0.938724592641
0.999815585659
0.999857699132
0.928424035194
0.933421196395
0.999826203945
0.928833055552
0.999818716421
0.999761658103
0.999662185121
0.920724708526
0.913380035603
0.999663133084
0.92173994794
0.999744331165
0.999843856861
0.999885178355
0.934181205236
0.929907264778
0.99987088931
0.999837198009
0.929449415686
0.99979897164
0.999685842016
0.91403740004
0.92197473238
0.999711137866
0.999773533179
0.922332907075
0.999466904092
0.999577260246
0.895971218794
0.904975046853
0.999556863311
0.897404138177
0.999474495537
0.999387128115
0.999358742589
0.890750701993
0.888510067183
0.999366349977
0.892190913411
0.999397149567
0.999509309681
0.999582126153
0.90581769982
0.899771441247
0.999606384709
0.999505122736
0.89868221695
0.999450453158
0.999410315391
0.889642944729
0.894694679858
0.999410223156
0.999440345179
0.893495167945
0.999301310794
0.999362255657
0.888615376651
0.88987320651
0.999356193744
0.889712785738
0.999310763207
0.999164840155
0.99926100477
0.878239243144
0.883659137191
0.879229769102
0.999253369364
0.999177983338
0.999302954853
0.999403603061
0.890901908436
0.891273450692
0.999376794508
0.999339251773
0.890433627181
0.999177498518
0.999316582053
0.882208531015
0.881153745181
0.999193710016
0.879328186732
0.999270924193
0.999929393115
0.999916936297
0.939816385161
0.94213007899
0.999918120825
0.942530225087
0.999922276927
0.999970983856
0.999940583784
0.936548948346
0.940684480138
0.999937380385
0.999959275628
0.942872967939
0.999938558805
0.999942353623
0.944513408853
0.947428814411
0.999959766247
0.9450169338
0.999920298605
0.999965938729
0.999972787374
0.943614725382
0.946377567253
0.99997068564
0.999993441939
0.94529068531
0.999998736266
0.999939415526
0.935578351964
0.939518766133
0.999960217996
0.999965334636
0.939477023256
0.999988682911
0.999983454595
0.935007767372
0.937193438173
0.999981834296
0.99998127304
0.938556030268
0.999981678178
0.999955712481
0.942482947919
0.943755124141
0.999975780918
0.999972707911
0.942048926411
0.999983672771
0.999947004477
0.939602932922
0.943038843271
0.999970423479
0.999971439723
0.940845286259
0.999972831713
0.999980707457
0.934109850218
0.936825025711
0.999972559317
0.999970453572
0.936635375171
0.999971448865
0.99998213527
0.934164329322
0.93641338715
0.999977257841
0.999970524316
0.936397585301
0.999956139742
0.999941118076
0.939161628149
0.94073123173
0.999956485775
0.999945174037
0.93875777112
0.999961158187
0.999938098415
0.938227098243
0.940309205633
0.999966173469
0.999944530862
0.938258366099
0.999960893269
0.999981879893
0.935043011636
0.936495745537
0.999973479176
0.999968132541
0.93664014395
0.999953916485
0.999930939967
0.935652647269
0.937338454509
0.999956791533
0.999953613545
0.936857058915
0.999958255689
0.999937083512
0.938234327111
0.939892775548
0.999963841197
0.9999385751
0.938297846063
0.999952333786
0.999936481668
0.938762936556
0.940056585849
0.999946515894
0.999937553251
0.938409958762
0.999950325647
0.999926941005
0.937852281048
0.938107256999
0.999928750832
0.999952104527
0.938918864567
0.999949715052
0.999929120492
0.939058744825
0.940617627777
0.99992851165
0.999943816526
0.939698560569
0.999931383956
0.99993677759
0.939425476804
0.94112063683
0.999935202138
0.999947647209
0.940298872562
0.999927167692
0.999987315499
0.941791990573
0.941352907405
0.999930401955
0.999965573662
0.941080915341
0.999948433415
0.999936973917
0.941637423292
0.941430210199
0.999958155081
0.999949142843
0.942107114991
0.999948728723
0.999956100033
0.941948026746
0.942204724257
0.999962618087
0.999955813703
0.942340729942
0.999952124203
0.999988035489
0.942112886065
0.941559218193
0.999946768846
0.999988981956
0.942371499126
0.99995603329
0.999970311178
0.941990559217
0.941127094156
0.999948715885
0.999982053604
0.942277658849
0.999941134618
0.999939050711
0.94163182174
0.942045991206
0.999928873295
0.99995533002
0.941563843803
0.999929824303
0.999894768356
0.940634005927
0.938882166146
0.999910346189
0.999914738636
0.940697967445
0.999933058853
0.999951713941
0.941685227395
0.939763426753
0.999934137852
0.999940375203
0.941049835398
0.999925312969
0.999921160501
0.938273327552
0.938917669333
0.999904704429
0.99993339256
0.940054307053
0.999840280894
0.999875528256
0.92958538724
0.935059727243
0.999831093808
0.999880501132
0.929267656069
0.999779566564
0.999686260462
0.921636278201
0.913546029584
0.999771788814
0.99967788637
0.921688886397
0.999824337823
0.999897105973
0.934513772665
0.927814713066
0.99987288419
0.999840909239