/*--------------------------------*- C++ -*----------------------------------*\
| =========                 |                                                 |
| \\      /  F ield         | OpenFOAM: The Open Source CFD Toolbox           |
|  \\    /   O peration     | Version:  v1906                                 |
|   \\  /    A nd           | Web:      www.OpenFOAM.com                      |
|    \\/     M anipulation  |                                                 |
\*---------------------------------------------------------------------------*/
FoamFile
{
    version     2.0;
    format      ascii;
    class       surfaceScalarField;
    location    "13.35";
    object      phi;
}
// * * * * * * * * * * * * * * * * * * * * * * * * * * * * * * * * * * * * * //

dimensions      [0 3 -1 0 0 0 0];
oriented        oriented;


internalField   nonuniform List<scalar> 
92311
(
0.203834462331
7.76396772941e-06
-0.00115659821055
-0.203596227566
0.000910599784973
-8.05403045168e-05
0.20400870426
-0.000790469016216
0.000697198693239
0.203837329045
4.17382188582e-05
-0.00120308108321
-0.203599421475
0.000931640365839
-9.59151624281e-05
0.204000973642
-0.000780468712576
0.000632772597671
0.203605249044
9.36353971077e-05
0.000100469221031
-0.00122508430435
-0.203637115385
0.000919071128057
8.52841299572e-05
0.000100524163798
1.97834315734e-05
-8.74014876928e-05
-9.20542439955e-05
0.203826300135
-0.000767123252204
0.000581239573512
2.88973367071e-05
0.0510942338277
3.29962404717e-05
2.49415458432e-05
2.60813088457e-05
3.18487545833e-05
-0.000344104419257
-0.0510582926842
0.000286002735688
-0.051158286658
0.0511936929148
8.1946503964e-06
2.14619250891e-05
1.46355917161e-05
1.41696643024e-05
-0.000215450516637
0.00014140086101
1.02012414653e-05
-0.010637425288
1.07342843374e-05
1.80571160604e-05
2.12303569622e-05
0.00170888923104
0.00800158210362
-0.00103675023719
0.00190366585706
-0.0213034245307
-0.00216667428865
0.000181648596953
0.0189041867599
1.69501362837e-05
2.83529271781e-05
9.71268877745e-06
1.35758315955e-05
0.00431557559537
-0.0145975220405
0.00184465026203
0.00341649502971
0.00328867801753
-0.0181871112449
0.0386319212547
0.0438832390872
0.00299564866963
2.40181733077e-05
2.73191892782e-05
2.03515472789e-05
3.26784879319e-05
-0.000268196371903
0.000200366289482
-3.42952214361e-05
0.0117447443928
2.3801457903e-05
2.67661500523e-06
-0.0117267776578
0.01179676719
-2.18405268359e-05
-2.65723974353e-05
-0.011778996847
4.84131249769e-05
-1.78085089489e-05
6.63556478308e-05
-2.71493890737e-05
0.0512384285298
-1.69410777872e-05
-1.01846137111e-05
-3.79070664312e-06
-0.000140352221413
-4.50183279711e-05
0.0511736735796
-5.58172209995e-05
-2.2376742237e-05
-2.95301236514e-05
-0.05109686266
5.01876798466e-05
-2.0376532253e-05
-2.63273543259e-05
0.0118136536372
4.75954202868e-05
-1.78027599877e-05
-3.18701962864e-06
0.012778524359
-5.83697338164e-06
-2.20957545041e-05
-0.0127745621985
0.0127689323613
-5.32528732218e-06
-5.22569144487e-05
-0.0127595342288
-0.000143622446109
0.204058814938
-0.00200109165673
0.00167922781593
-0.203593328627
0.204119583349
-7.89513494429e-05
-0.000368005650002
0.000336851039144
-7.92328802215e-05
0.204230653656
-0.00021557659322
0.000184300128874
-7.64625666585e-05
0.20410558612
-0.00211049663557
0.00171048577225
-0.203772326271
0.204218148107
-0.00018710827841
-0.000472942679436
0.000364551085873
-0.000149344661174
0.204409514888
-0.000304945153306
0.000184120012766
-1.85232601366e-05
6.72415207385e-05
8.26772693646e-05
-0.00219806502288
0.204162524221
0.00174504872949
-0.203916527839
-5.57700673046e-07
-0.000190627619935
-0.000210575270423
-0.000191313143003
-0.000244114217693
0.204469196133
-0.000318593630245
0.000325326780971
0.0511841075719
1.24086877566e-05
-8.72628213925e-06
9.73098676965e-07
2.90990993257e-06
-0.000687271781726
-0.0511409103297
0.000617981396634
0.0512977483593
8.68221145233e-06
-4.4384585252e-05
-3.49668919274e-05
-6.1739367992e-05
-4.81343284358e-05
-6.93849297008e-05
-0.00501437146842
-4.93118164258e-05
-0.0211803880724
3.44197103663e-05
6.10342884023e-05
3.54761867454e-05
5.7875424498e-05
0.00475154270006
0.00799335255799
0.00914515710458
0.00848386789772
-0.0241645536963
-0.00305985345429
0.0609578105903
0.0218428524996
0.00833860183187
-0.000421994155905
0.000806365769404
-0.000135873618889
0.000604606338214
-0.00452162655711
0.0269128252645
-0.0108555360663
0.000523703482087
1.99972163982e-05
1.43908356735e-05
9.56629257915e-06
2.58415464486e-05
0.0512500268726
-0.000592206105878
3.61918899175e-05
3.85836167818e-05
3.14355328669e-05
3.48938977493e-05
0.0511525770333
0.00041327424568
-0.0511005734696
1.6492568171e-05
7.26961302128e-06
0.0117572692152
-7.45320889956e-05
7.98444379613e-05
-0.0117863224653
1.36149586094e-05
-1.28733680246e-05
-0.0117083551217
-8.67764875753e-05
0.000101958948645
0.0116924127965
5.99567112313e-05
0.0127522494485
-0.000116808736415
9.14143537813e-05
-0.0127506117074
-5.97900378565e-06
-6.08220450528e-05
-5.68758681833e-05
-4.90663918797e-05
-6.88660793388e-05
0.0513576648012
-2.88787221097e-05
0.0512762207
-6.05125043965e-05
-8.69709065403e-05
-7.01651988392e-05
-7.57259605786e-05
8.18238663326e-06
-8.64747402433e-05
-9.32542673844e-05
-7.58894256641e-05
-8.04882503539e-05
0.0513548200035
7.18723222414e-06
-6.32658910956e-06
-2.36837995412e-06
-4.07950928754e-05
0.0127836078495
-4.55160309591e-05
5.15159296315e-05
-0.0117255406907
-1.71220417233e-05
0.0116921851536
4.44636894763e-05
-9.84613679048e-06
-6.66176926977e-05
0.0127785497869
-0.0127878633231
-0.000108516717505
0.0128049236708
5.978789855e-06
-9.44245687367e-07
-0.0146180359759
1.43293968858e-05
1.90118244887e-05
1.84825794072e-05
0.00176602763725
0.00248516209291
-0.000343991221863
0.000828909523461
5.45890839452e-05
6.80544106247e-05
5.19819780423e-05
4.23471168863e-05
-0.0077395858553
0.00150968078334
0.00301709534083
-0.0110401602006
-0.0044126575814
0.00572140713142
0.0124068640416
0.0057977621137
-0.00338567626574
-0.00985563409118
-0.000177180445223
1.82958520683e-05
1.19288792857e-05
1.07880289295e-05
0.00305525855204
0.0013464378015
-0.00700429218477
0.00784794192307
0.00806313270043
6.46355838207e-05
0.0127531971354
-7.40770604381e-05
-0.0127450201199
-0.0127442786106
2.0792670523e-05
-5.80410744594e-05
0.0127527533991
5.37291628772e-05
3.34656652634e-05
-3.0424887638e-05
0.0117592103627
-6.79971067092e-06
-2.29815592751e-05
0.0117653424171
-0.0117523140766
5.17682512497e-05
-0.0127354580775
5.9060420553e-05
0.0117773473745
6.34142047714e-05
0.0127637680465
-6.7082278955e-05
0.0127585670721
2.36752313777e-05
-4.96701835216e-05
4.42975282321e-05
4.39811584416e-05
-0.0127725328078
0.0127808509329
-5.14940298462e-05
3.97049409039e-05
-3.3004580641e-05
-1.20551674457e-05
-2.01638865348e-05
-0.0117878902616
0.0117966074292
7.88944691896e-05
0.0127657966959
3.70265743404e-05
7.12554126492e-05
-5.86089168463e-05
-0.0127702102447
1.26915598494e-05
-2.54604878387e-05
0.0127763496034
1.48313895923e-05
3.28177330188e-05
0.0127844712711
-4.12491984863e-05
3.80986828989e-05
-1.97276815221e-05
0.0118217542104
-8.14000551572e-06
-1.96593018987e-05
0.0118086325683
6.72112646725e-05
2.34174878424e-05
0.0118135754901
5.65986063651e-05
0.012788123596
-3.46155939301e-05
-5.96226783134e-07
-0.0127860280662
0.0127868945411
-2.30398879321e-05
1.97537437633e-05
-0.011815988425
0.0118040314249
8.59589627059e-06
-0.0118140440314
4.02445762856e-05
0.0117997200709
2.48668341862e-06
-1.41288074365e-05
3.24578303932e-06
3.12510548367e-05
-1.16712907417e-05
-4.12843911538e-06
4.68345023878e-05
-2.75614404588e-05
-7.28688973276e-05
-0.0127503856262
0.012762602867
-5.11900950386e-07
5.19517597978e-05
-0.0118225910938
0.0118132441943
-0.0118241928788
0.0118104591361
6.08938739448e-05
4.01234431123e-06
-2.35529783128e-05
-0.0127591185076
3.83335528593e-05
-5.68761462713e-05
-0.0118151238646
6.15586823216e-05
-0.012747258392
9.76602806131e-06
-0.011813819425
-0.00268138945891
0.00719966584476
-4.47226869006e-05
-3.45428079672e-05
-3.00892030898e-05
-3.45819164129e-05
-0.00813596636541
0.00668643221636
-0.00292484332405
-0.00625474423794
-0.00541378570351
0.0087763557904
0.00820286535357
-0.0101297139411
-0.00251670136669
-2.63021317486e-05
-4.42828403504e-05
-5.07812969956e-05
0.0073303322228
-0.00569854112033
0.011152185084
-0.00217518181898
-1.71161080887e-05
-3.56430175442e-05
-3.53266562196e-05
-0.0114031050281
0.0107499220867
-0.00966750800916
-0.00128681323098
0.0118816478629
0.00570214029351
-0.00122349164669
-0.00838563357545
0.00114907281202
-0.0128494886289
6.00640306338e-05
7.59815715546e-05
7.4642570818e-05
6.14051696614e-05
-0.00132549672729
-0.00280203102487
-0.00425017345143
0.00336663706584
-0.00306329140808
-0.00237231780275
0.00100004217162
0.00684403079803
6.03939627062e-05
5.89730615641e-05
4.16136625558e-05
4.30402618293e-05
-0.0162569368387
-0.0046420760927
-0.00130992775001
-0.00394448332501
0.00187508627884
0.000369227647885
3.42935931436e-05
4.87646284162e-05
4.84840014534e-05
-0.0202719694402
0.00538917026351
-0.00210973887218
-0.00129415786344
-0.000160982596347
-0.0127773962524
2.93955413682e-05
0.0127748754063
0.000146509211569
0.0127878359652
0.000169712000031
-0.000172362969478
-0.0127867020882
-6.26804005156e-06
-7.85218183169e-05
0.011728694844
8.70753381638e-05
-1.53338613063e-05
0.0117417265209
-0.0117711245886
-7.40666077398e-05
0.0127865683069
-0.000165087201203
-0.0127787436434
0.000158573253452
0.0117168940778
-7.51286560513e-05
-0.000150045840644
0.0127762421957
3.08030513489e-05
0.00013783276384
-0.0127898690898
0.000140712259962
-0.000144501774126
0.0127951837373
-1.00880453737e-05
-8.40963129871e-05
9.73411711528e-05
-3.61584353146e-05
-0.0117037775342
-7.5049456354e-05
0.0116925392646
-0.000153887803317
0.000126353173474
0.0127802692797
-7.55827001269e-05
0.011718775187
4.80033266923e-05
-2.18247205796e-05
-0.0117297005196
-5.75560309394e-05
4.43400004902e-05
0.0117102596811
-1.28671887306e-05
-0.000105097500752
0.0127566934359
8.16183219281e-05
0.0127632541041
5.26829827328e-05
-0.0127634882397
-5.16818485945e-05
-0.0117115771006
0.0117024803034
0.0127676869145
-0.0117211044692
-1.78605102666e-05
0.0127873958312
-2.00100682422e-05
1.03820936134e-05
0.0117889918457
2.1239326158e-05
0.0117885230922
4.17835980043e-05
-1.10056007253e-07
-5.56468191964e-05
0.0127848962963
-7.30928067206e-06
3.26177504839e-05
9.40977423575e-07
0.0117582404202
3.26735952001e-05
0.0127889416392
-1.72725907036e-05
0.0117589606593
3.27881274289e-05
-7.27406980294e-06
0.01279504623
-6.16328532374e-05
-2.10471757352e-06
-0.0127953779129
1.18828705582e-05
0.0128017883773
-2.36544100168e-05
3.99215843277e-05
-6.3298961076e-06
3.3416741123e-05
6.86707266865e-05
-0.0117174047339
5.36041994533e-06
0.0116750514544
-2.28227570258e-05
1.98660636654e-06
0.0128047291248
2.20118519463e-05
-0.012775859296
-0.000103648963897
1.06992376467e-05
-6.01257276961e-06
-8.8268927964e-05
-4.88181633928e-06
4.80822198429e-05
0.0118003839747
0.011795210871
5.10334386348e-05
-3.81201865753e-05
0.0117631785398
4.10876061491e-05
-8.08089456282e-05
0.0127871430198
0.011775642726
0.0117176764147
-2.37591717895e-05
2.13343715778e-05
0.000114571671893
-3.70854831098e-06
0.0116742810992
-8.31237399465e-06
-1.14250727414e-06
0.0128189613205
8.4584577127e-06
0.0128002094437
-8.49741254599e-05
8.95873081789e-05
-0.0117320078374
0.0116857557308
0.0128101160113
-0.000203257176839
-0.000218155049429
-0.000135639966917
-0.000131417234089
0.204988148435
-0.000158516093335
0.000178665207863
1.47681755765e-05
-6.32422711449e-05
-5.32851366326e-05
-5.69269748836e-05
-6.37070288766e-05
-3.28448914759e-05
0.0514096588996
4.67126436259e-05
-0.00752930688055
0.000897077515854
4.83423003056e-05
4.65522785411e-05
4.32662820741e-05
0.00449840641551
-0.0183227497849
0.00118736178692
0.00119578534754
0.0021790040791
0.00552807230914
0.0262118015928
0.00140702051285
0.00324813534073
2.99568315681e-05
3.80009384449e-05
3.55410591611e-05
3.46554105182e-05
-7.88261574423e-05
-0.000442897308882
0.0511921109638
-3.65837189206e-06
-5.14353716431e-05
3.78741083612e-05
0.0117302010851
0.0514243473985
-7.09832125157e-05
-8.74271165062e-05
-7.43604181006e-05
-8.02215645619e-05
4.00276990018e-05
0.0514569575053
-5.54413742745e-05
-4.10616047759e-05
-3.99531641979e-05
-6.29929633102e-05
-1.12652817231e-05
4.23664435892e-05
5.69582793355e-05
0.0116529823557
-3.13747850959e-05
6.03020217975e-05
-5.02428129308e-05
0.000113517081537
2.11248536088e-05
0.0116185559159
-2.8804432211e-05
0.0115069260091
-8.0000705639e-06
3.8403532913e-05
9.13288561398e-05
-0.011534853919
-9.3718818867e-05
0.0514321548521
-1.70776994033e-05
-2.85110248907e-05
-2.90607012083e-05
-1.13572337515e-05
8.19053128376e-05
-2.99749702118e-05
5.89181300388e-05
-1.46969283579e-05
-5.56545385765e-06
-1.63508008127e-05
-5.48069054185e-06
7.87003532479e-05
-2.64640044591e-05
0.0513711569351
5.08848592777e-05
-7.07358289814e-06
1.70490377916e-05
0.000120626179792
0.011496196238
-0.000119806672151
-2.56638302981e-06
-4.91681201051e-06
0.000193329151745
-0.0114957121444
0.0114996574064
-0.000189732629425
6.07082250381e-06
7.78635817786e-06
1.47517665157e-05
0.00809739727403
-0.0132510460669
-0.00130602271286
-0.0173119318233
0.00101653141619
3.74191689342e-05
3.84528353284e-05
3.18694811511e-05
-0.00764907835213
0.000361550022904
-0.0162441666294
2.18650385744e-05
2.19764008856e-05
2.90676001851e-05
0.00670289580261
-0.00821287537957
0.00062691619934
-0.00188605096757
0.00123364470198
-0.000131602461317
-0.000967934796449
0.000489172769733
0.00367279045723
-0.0017236457604
-0.0122506520659
1.79044746021e-05
-2.40801360463e-06
1.11272566516e-05
0.00181649682242
-3.35654993844e-05
-0.00581016666449
1.4163315022e-05
3.05646914606e-06
1.3660845341e-05
-0.00253156587808
-5.58558674322e-05
-0.00821160303899
-0.00148516299633
-0.0127765114396
3.46459193133e-05
8.76907517175e-05
-0.000104425174195
0.0127885627751
-9.59209347803e-05
0.0127651080883
-4.6013140481e-05
0.0117173716081
7.50678628407e-05
3.36722030544e-05
-4.36853510726e-05
0.011741302106
-0.000115213867493
7.30925413522e-05
0.0117273775518
0.0127766789298
-2.66853632186e-05
-0.0128183488087
-6.63394158454e-05
1.98917474677e-05
0.0128282402868
0.0128121453001
2.16521154813e-05
-2.82831864726e-05
5.87722432652e-05
-5.31025327019e-05
7.98854489579e-05
0.0116157341608
7.07856225514e-05
0.0116338491598
-1.44254606418e-05
-3.37332905205e-05
0.0128211301135
1.51591085155e-05
-3.90180491271e-05
0.0115967330879
-0.0128279141076
-8.14291255285e-05
2.23002456092e-05
0.0128360140891
-1.44097657406e-05
0.0128393754212
2.01014660123e-05
9.13712645229e-05
0.0116385028745
4.62811438418e-05
8.81087615044e-05
0.0115753789578
-5.26579581385e-05
0.011596186427
0.0128425862393
2.70317391142e-05
0.0128434509273
-6.80126265852e-05
3.44314595875e-05
-2.92872082372e-05
-3.87315848105e-05
-0.0128470813242
0.0128466181316
3.65788369595e-05
4.4251100782e-05
-0.0115598567681
0.0115338897424
9.49169550301e-05
6.85708411239e-05
6.79614824018e-05
-7.40010812387e-05
0.0128443571867
-3.53288273014e-05
6.60070386709e-05
3.49926396082e-05
-0.0128407803053
-1.21702824518e-05
4.05155801707e-05
0.0128364472691
-4.10994359912e-05
-3.98029715835e-05
0.0128391035149
3.59189166055e-05
2.65599720542e-05
0.0115200753309
0.000125796230369
0.000146155976447
-2.93918484015e-07
0.0114891629889
-0.000141161382427
-3.87543682622e-05
0.0115114585102
0.000153685864011
0.0128312731798
3.68084528486e-05
0.0128304454776
-7.46221180199e-06
3.59048636413e-05
-3.71503137337e-05
-3.51416591704e-05
-0.0128221604243
0.0128184148617
2.84787536775e-05
1.18321588153e-05
-0.0115110411359
0.000197229888836
0.0115094269599
0.000170803945275
-7.87217447603e-06
-0.000166321878384
-3.47531678085e-05
0.0128255052024
0.000177459292786
3.18139178968e-05
-0.000413243669648
-0.0495387693186
0.0494433832427
0.000586013808725
-4.42115540479e-05
-3.29097956427e-05
-2.48205875339e-05
-4.60790225628e-05
7.08416005572e-05
-0.000706867392081
0.0500512828921
-7.19120505425e-05
-7.32788632799e-05
-7.52350821454e-05
-7.12680069648e-05
0.000216026894989
-0.0499789421929
0.000710066736373
-0.00115455504746
-0.0501856068956
0.0503521885924
0.0010272219382
-7.19069650791e-05
-7.1488477052e-05
-8.40634704417e-05
-6.67496904121e-05
0.000254963523657
-0.000857925288321
-1.15170369372e-05
-1.26323370961e-05
-1.44203606112e-05
-1.03260844237e-05
0.000115050253233
0.0505735031607
0.000688499116034
-0.0504702340036
-3.77124995538e-05
-0.00934866065416
-0.00672309106899
0.0107887817294
0.0083400465551
-0.00296331647443
-3.9294458758e-05
-5.07529905991e-07
-1.00613535131e-06
2.23685304706e-05
-0.0136924226474
0.0140041637312
0.00704769672772
0.00082696706926
5.01235039227e-05
5.04478345599e-05
9.71897330382e-05
-0.00838661953878
3.92749741846e-05
-0.00454830218446
-0.00825559236502
-0.000373477907068
3.89185747007e-05
3.63762700292e-05
3.41146298484e-05
0.0118903947177
0.00113809218927
6.89651307212e-05
-0.00429990692396
0.00495678685604
-0.00265212102708
0.00120169312887
0.000530417797588
7.9867485101e-05
5.6475045017e-05
5.78373688336e-05
2.51136665775e-05
0.000876414198136
2.58675602424e-05
2.43047680792e-05
2.65135649578e-05
-0.0133494297868
-0.00162010749823
-0.00154230300712
0.0155333369884
-0.00547673747827
-0.0181581166875
0.00516717285853
0.00400487492194
0.00479898460363
0.00410004497791
-0.00223099108594
0.0340018871147
-0.0528071957509
-0.00353989296864
-0.00940705502266
-0.00201922255269
-0.0104576717659
-0.000358028525664
0.0647269818215
0.0327161474417
-0.0188206025793
0.00302427137611
0.00217086865327
0.000658334611486
-0.000536210036511
-0.00779771610955
-0.0214605509746
-0.00197406780228
-0.00936501587991
-0.00430805539067
-0.00737712236305
0.0442916686515
0.0424938728079
0.00297538764555
0.00245094182891
0.00365638601359
-0.011137233139
-0.00468902494914
0.00401584149132
0.000622282752964
-0.00109320536116
0.00186413616644
0.000889924674126
0.067799514849
-0.00648705745208
8.1436853357e-05
-2.00316810064e-06
1.51822164992e-05
9.05149662982e-06
3.42178065266e-07
0.0492985959269
2.03673344976e-05
4.59887694553e-05
-0.0494687920245
0.0493379529977
0.000233386791858
-1.02223735192e-05
-9.14028003233e-06
-1.8429271869e-06
-1.77519698685e-05
4.19470773693e-05
-0.0494928160951
7.67740786123e-05
-2.6199921512e-05
-0.0118321500531
0.000120068220242
0.0117704476518
-0.000108903814911
0.0118186484579
0.000116493908597
4.99931562053e-05
1.33112642864e-05
-0.000122304948302
-0.0118760559444
2.57636078526e-05
1.0613402835e-07
1.31002067089e-05
1.63687436913e-05
-0.000171835275976
0.0123160384825
0.0122307290218
0.012243950107
0.0123094789917
-5.90422175494e-05
0.000131865859983
5.17302113613e-05
2.04992106616e-06
-0.000141625583903
0.0117742013386
0.0003783298809
-4.96286998315e-05
-3.16839042095e-05
-3.77219694403e-05
-4.67284991308e-05
8.03941691534e-05
-0.0495983254807
0.0497615277063
-6.81116119411e-05
-7.69392135227e-05
-6.73245313485e-05
-7.60085633718e-05
0.00011762486572
-0.0497369357766
0.00052448406084
0.0118250666517
4.0305307255e-05
3.68944138333e-05
-0.0118796591022
9.39024310993e-05
0.0118329102317
-4.19769516922e-05
0.000110871323012
-5.64520120066e-05
-0.011883736694
3.85938434765e-05
0.000839061835936
-3.64967667088e-05
-1.57148252385e-05
-1.47184664558e-05
-3.89119447271e-05
0.049345510113
-0.000188142238198
-0.00014490144562
-0.000176284251795
-0.000144029970674
-1.27659905883e-05
8.61632941522e-06
6.98436942978e-06
1.51321137834e-05
0.0497376586569
-7.17971809606e-05
-7.39858406834e-05
-6.72294792001e-05
-8.01191448391e-05
0.000196330861309
0.0498546133791
0.000904502054255
-6.57370049811e-05
-8.36754931761e-05
-7.38337645885e-05
-7.24430528128e-05
0.000113537821089
2.86947830535e-05
0.0117822397458
0.00010845551888
0.0116964264947
3.4780456789e-05
2.06911715334e-05
-0.0117234187483
0.000163387572154
-0.000191509232298
3.86412079744e-05
-3.91452730638e-05
0.000101575815148
-6.35685941489e-05
0.0117956129385
0.0117215582284
6.61376320616e-05
-6.55608602101e-05
0.000119967877652
-0.000100254349223
-0.0117418697373
0.0500264682452
-9.66845070097e-05
-8.86256493092e-05
-7.92943860797e-05
-0.000102718815553
-0.00113657534524
0.000177832158594
0.00142228067024
-9.10353963342e-05
-0.000113591780568
-9.4964989237e-05
-0.000120430558139
0.0505926261589
5.87424954173e-05
-0.00162683995249
3.69236486699e-05
0.011704694298
0.00019197112549
-0.000214963880569
-0.000239193977918
0.000198207361121
-0.0117744942056
0.000284171280811
0.0118442362149
-0.00031333168516
8.22726824839e-05
-9.35308009916e-05
0.000118657666513
-0.000121399748606
0.0117354944718
0.000143698823591
-0.000139628585676
0.000158666505006
-0.000199409889685
-0.011791179907
0.0118278854545
0.000878893784059
-5.86448308984e-05
-7.19168797339e-05
-6.25557808668e-05
-6.53339733826e-05
0.000149932403761
0.0503588453263
-3.68167275201e-05
-3.34333018716e-05
-4.01870609254e-05
-3.38875654347e-05
0.000142552984854
-0.0502423289764
0.000764183154312
8.28525910493e-05
0.0117808534913
3.0023457041e-05
-0.0118157137044
0.0117197969012
-5.19525098324e-05
8.87962514446e-05
-0.0117353378265
4.49312378746e-05
0.0117106525269
-1.73603510937e-05
1.61015202928e-05
-2.663451436e-05
-0.0117135584076
3.08793115706e-05
0.0012039161346
-7.79639056825e-05
-9.91339113483e-05
-8.33035650281e-05
-8.41062832927e-05
0.0506321450601
0.000283073929304
0.0504863330647
-4.1881011159e-05
-2.92970147621e-05
-3.61986175858e-05
-3.00132128831e-05
0.000179161413939
-4.38974682865e-05
-4.10425050502e-05
-4.06551770588e-05
-5.03936149213e-05
0.0506672855082
0.000985612897192
0.000213408132936
8.37348355508e-05
0.0117337225085
5.37265688161e-05
-0.000102813891908
0.000115357517211
-0.0117871657707
0.000100346798294
0.011818166216
2.93269234539e-05
-2.86594869884e-05
1.14140463599e-05
-2.89673732895e-05
0.0117275486265
3.09500609328e-05
-4.57521541192e-05
1.88891275592e-05
-4.21040765582e-05
-0.0117838191349
0.0118218773979
-9.76742303273e-07
0.0117244376506
3.48859042695e-05
-0.0117038578076
1.06329944643e-05
-0.0117836296574
0.0118203690109
-4.29556538305e-05
2.65245656498e-05
0.00751657944982
-6.23237555098e-05
-7.38602358965e-05
-6.00134611922e-05
0.012378260411
-0.00455189484583
-0.00795315860588
-0.00711701857312
0.0103565078568
0.00926518801336
-6.9532889812e-05
-4.540271134e-05
-5.82309041888e-05
-0.00589121073807
-0.00599134692854
-0.00594912443185
-6.57070873849e-05
-5.34255070812e-05
-7.23994973672e-05
-0.00741949258012
0.0146192947567
-0.0100434324417
0.00185539203973
0.00648266521037
-0.00440727845563
0.0112656950789
0.0045469987084
-0.00671623872619
0.00539138954324
-0.00927306343233
-0.00842593153797
-0.0025594807144
0.0116924983888
-0.00429694438539
-0.000742983341813
0.00524355071857
-0.00754817581588
-0.00250224838769
0.00126410535478
-0.00149191685186
0.00214995513617
-0.0145752199271
-0.00203072302048
-0.00250573518407
-0.00703341813937
-0.00332709351953
0.00157041224611
0.0018256739997
-0.0144025886439
-0.00273914124835
0.00800885393681
-3.49716970681e-05
7.95835972456e-07
2.7904078222e-06
-0.00317679508364
-0.00221932677085
-0.00155868801523
2.46915783695e-05
4.23277083921e-05
2.64143326967e-05
0.00558110404146
-0.000539306423218
0.00439088496954
0.00806930365563
-0.00195926129493
-3.67764526836e-05
1.47198376057e-05
4.27944595704e-06
-0.00897029119452
0.00197887996156
0.000113358435189
2.77665632537e-05
4.19475831176e-05
3.1970300343e-05
0.000807885694277
0.00444498377785
0.00457850128276
5.40174670317e-05
5.57471059228e-05
4.49982539831e-05
-0.00273169866001
-0.00397566903521
0.00415515749698
-0.00310866137505
-0.000120396025372
-0.000918620160958
-0.0049125393881
0.00258727840377
0.000830840313148
-0.00456458721895
0.0055524158757
0.00339476345908
0.000164211937106
0.000234991959798
0.000177572064132
0.0112266500354
-0.00698508010366
0.0052562619048
0.00154541137364
8.61803545193e-05
0.000105850125015
0.000107531718879
0.00271890657073
0.00361744937098
0.000177812372082
0.000133247127416
0.000147088634487
0.00387445867213
-0.000905787273589
-0.00364574727429
0.000549753601104
-0.00568580434021
0.000632386533298
-0.0062136698524
-0.00181578712334
-0.00163803443057
0.00112435898185
-2.7286320861e-05
4.80228493746e-05
4.23812800682e-05
4.06753126163e-05
-0.00149800625494
-0.0114554606672
2.82788172919e-05
1.89681837852e-05
2.71998447411e-05
0.0149011463099
-0.000915826140551
0.00222496720197
-0.000731247441895
-0.00382708066847
-0.00380858897963
0.00390071903843
0.00358134046304
-0.00163526796304
-0.00359027472516
0.00122693667065
0.00120807256197
9.36820111762e-05
7.43774847831e-05
7.19595498527e-05
-0.00181259278784
-0.00868861212344
-0.000832189750444
4.10646251462e-05
3.01641366449e-05
4.3202025566e-05
-6.62265992912e-05
5.53979180163e-05
4.56158286981e-05
5.34563466244e-05
-0.00705815307539
-0.000538089494837
0.00400526328902
-0.00517405654246
-0.00347988948467
0.00579961286046
0.00447632255184
-0.00504682454276
0.00716891945854
-0.0053484789461
0.0124132249606
-1.22475133903e-06
7.04538714634e-06
5.39613186252e-06
-0.012426438659
-1.86772086145e-06
-0.0124082618119
0.0123832059591
1.59762352607e-05
0.0001088153319
-3.64446099448e-06
-0.000100085117603
-0.0118996120392
-1.78694489982e-05
-0.011844433909
0.000126238081216
0.0117822989239
1.18514349609e-05
0.0123907584655
0.000114492506634
-0.0119113630637
1.86952820869e-05
-0.0124232213683
0.0124207089303
1.43358101394e-05
-9.45633996345e-06
-0.0124304143152
-2.57740321714e-05
-0.0124318566358
0.0124184139741
4.34505319901e-05
-4.45116265547e-06
-0.0118594341244
0.01179820393
2.4885298565e-05
-0.000111288494372
0.000104198191226
-0.0119393137213
0.0124004922127
2.91222645353e-05
-0.0124395870952
-0.0119239664494
-0.0123761728071
6.02898770755e-05
3.04673058809e-05
-3.50939957413e-05
0.012346305131
-3.77017745547e-05
0.0123957968572
6.23886716089e-05
-1.84863594957e-05
0.0117586876161
-0.000149356648495
-1.03464133807e-05
-0.000159797483076
0.000150961317594
0.0117395042927
-1.87568886005e-05
8.83406514177e-05
0.0123736588137
-0.000165074278947
0.011722075547
-3.89947434633e-05
0.0124648469453
-7.66790332985e-05
6.5206148489e-05
-0.0124640168075
-0.0124480214869
5.39402640357e-05
0.0124426585956
4.48014730283e-05
8.60096402977e-05
-0.0119412513615
7.27724513533e-05
-0.011892994167
7.45692022141e-05
0.0118402585288
-0.0124508898674
8.22264746413e-05
0.0124624822566
7.04338578208e-05
-0.0119512704049
0.0124820421338
8.98341601477e-05
-9.67259911236e-05
-0.012478098235
-0.000108825668602
-0.0125014965017
0.0125039420474
0.000140532278061
9.38604994313e-05
-0.0118874152461
0.0118363875512
0.000113526023821
-5.73608500001e-05
-0.0119407417166
4.29614742556e-05
0.0124821835007
-0.0124950778398
0.000121067659499
-0.0119447369389
-0.000101110354463
-0.012450248522
-6.33249798919e-05
0.0124389355202
0.000131529701591
0.0124251073315
7.57144477965e-05
2.1350916446e-05
0.000125442320019
0.0117469162398
6.43445294589e-05
0.0117991304522
8.50992147724e-05
0.0124087421264
0.00010616690939
0.0117618730671
9.83972653803e-05
-0.000134538904298
0.0124293535148
-5.84692457687e-05
0.000166123906738
-0.0123904007394
0.000169814745343
0.0123793487982
-0.00015377668399
1.42156145353e-05
0.000144729163488
-0.000172500403021
7.08888846975e-05
-0.0117410721107
0.000129546794408
0.0117193213865
-0.000116870793237
0.000203529722971
0.0124276760506
0.000111596234597
-0.0124739622843
0.000160338454383
-9.58829027748e-05
0.0124691759681
-0.000135336954529
0.0124996649336
0.000167357823124
8.8000031719e-05
0.0117976112987
0.000109102289621
-7.45427965818e-05
0.0117578743011
4.51847160812e-05
0.0124979441785
0.000191239251874
0.0117572987249
0.0124659595054
0.00019289254118
-8.92277294198e-05
-0.000227844818671
-0.0125013833244
0.0125130568687
0.000252589009476
0.000105597172856
-0.0117383369325
0.0117154768886
0.000104689851216
-8.59477571613e-05
5.29606699643e-05
0.0124736076174
0.000221904486907
-0.000258462023484
-0.0124296737862
-0.000125759215491
0.0124546890578
0.000298121196053
6.13238036745e-05
0.0123744946401
0.000212367715147
2.03287181836e-05
-0.000191034577603
8.36967390523e-05
0.000215273464152
0.0117021842286
-0.000246158796238
8.29318643949e-05
0.011723320909
0.00015552305233
0.0124015023468
3.76182155643e-05
-0.000239395181419
0.000249805675888
4.36558788668e-05
0.0117272165709
0.000183687561526
-0.000304995313227
-0.000154135107759
0.0125172483679
0.000342395816796
5.43914501241e-05
-0.0124707332285
0.000343181245965
0.0125792514268
-0.00032208179315
6.86226763567e-05
0.000124771571079
0.000243936312586
-0.000276867618955
-0.0117800635338
0.000206584254229
0.000253144715724
0.0118401705156
-0.000283872745087
3.49534372752e-05
0.00021429091499
0.000381099841055
0.01260310341
8.36423828288e-05
-0.0124815141771
0.000311376746334
-0.000136633258703
0.0125083890947
-0.000268855845145
0.0125250238202
0.000287059619145
0.000105816588634
0.0117301461079
0.000136372522662
-0.000143827293343
0.011746786329
0.000102116173575
0.0125480514203
0.000322342281133
0.0117406731519
0.000348348584416
-0.000144454725183
0.0125563867546
-0.0125836159338
-0.000382319295749
0.00037925731336
0.012631871271
-0.0117896175473
0.000187158256026
0.0118342880831
0.000135976366328
-0.000169300999519
0.000122203774856
0.000354027315221
0.0126224961047
-0.000201599165813
-0.012552056692
-7.13231389982e-05
0.0125524385981
0.000200647535843
0.0125269323953
0.000178533676271
-0.0125284777784
8.52814772857e-05
3.27233346042e-05
0.0117470798475
7.43669764543e-05
0.0117669162783
-0.0118009802569
2.60380817413e-05
0.0125266875127
-0.0125505787731
0.000180091702636
0.0117383227476
2.42273624619e-05
-0.000229548941191
0.0125608284584
-6.1844579027e-05
0.000224353235326
-0.0125332443399
0.000257145739779
0.0125456493804
7.67644190577e-05
3.59729876721e-05
6.81948485802e-05
-0.011728541415
2.80315907532e-05
0.0117196206144
0.000247389140925
0.0125734987935
2.45255905468e-05
0.012583967937
0.000211128616139
-3.04730458604e-05
-0.0125770915092
-0.000229983567241
-0.01260299767
0.0126131978449
0.00020239899321
3.4566679829e-05
-0.0117220971625
0.0117171324254
1.75843987937e-05