/*--------------------------------*- C++ -*----------------------------------*\
| =========                 |                                                 |
| \\      /  F ield         | OpenFOAM: The Open Source CFD Toolbox           |
|  \\    /   O peration     | Version:  v1906                                 |
|   \\  /    A nd           | Web:      www.OpenFOAM.com                      |
|    \\/     M anipulation  |                                                 |
\*---------------------------------------------------------------------------*/
FoamFile
{
    version     2.0;
    format      ascii;
    class       volScalarField;
    location    "1.75";
    object      p_rgh;
}
// * * * * * * * * * * * * * * * * * * * * * * * * * * * * * * * * * * * * * //

dimensions      [1 -1 -2 0 0 0 0];


internalField   nonuniform List<scalar> 
28582
(
19555.3295654
19555.215336
19554.8458232
19554.7861331
19553.5658151
19553.417502
19552.2710291
19551.5442998
352.982041101
370.154312513
0.0281862025927
19551.6209804
18591.8534502
18620.2680317
19551.8314676
19552.291823
18558.8112184
19550.9158446
19550.8091262
19555.1808822
19555.8757885
19557.0328523
19554.7443004
19555.483261
19556.8937916
19553.6292061
19554.3405051
19553.3879257
19552.3884114
371.395288608
0.00879736231768
0.0167485549799
19552.034373
19552.773938
18690.3148115
18737.8514241
19553.014981
19553.2658609
19552.5839999
19553.3890785
19551.5854347
18615.726505
19551.3570436
19551.7114948
363.770006718
353.578438248
-0.0202964894746
-0.00150296004946
366.264600729
0.0109614243417
19551.1037927
19550.930325
18588.788158
18693.7575197
19551.8927682
18667.3163597
19550.6254689
19550.1842856
19550.2699167
18650.2850774
18584.684584
19550.1902429
18564.3288296
19550.8649163
19550.3319637
19549.993003
18591.7786907
18650.5678017
19550.683187
18621.6250747
19550.309585
19550.6054989
18604.8728944
18613.2622117
19550.2431582
18635.2866073
18575.4069516
19550.9190198
19551.068805
18622.9477787
18671.1845783
19550.2733165
18687.51964
19551.2186709
18591.9179393
337.906450069
0.649031718122
312.493572264
332.510371084
0.169594766863
0.506415158752
358.95966029
-0.0216398125752
-0.00940455047674
372.812096085
0.486678933991
378.870442197
0.0654567638235
19552.3212163
19552.2431713
18661.4388533
18806.1152935
19551.4194476
19553.7354528
18806.0730137
19551.045142
19550.2730114
18726.1049603
18596.7461973
19551.1264344
19550.1881152
18634.9169609
18747.3331407
18732.4532404
19551.7283619
19551.9127578
18605.8389032
19550.4208271
18637.076262
19550.6758947
18569.5797442
18660.8661102
19551.3838605
18604.9760101
19551.1920203
18631.4248837
19551.3510598
19552.2204868
18645.4988038
18596.9049902
19552.1475043
19552.1937684
18573.4823034
19551.3961641
19550.9390386
18677.6152616
18602.7734014
18618.4201599
19551.389393
18650.7809888
18673.4188558
18643.9912216
19551.9414255
19551.2284165
18585.8921214
19551.8882146
18575.2601849
19556.374816
19554.5835126
390.236456448
0.0278714971747
19551.7527916
18590.2875405
19554.4732985
19556.2022023
18581.9310255
18543.2482807
18562.9151447
19558.425612
19560.9043328
18553.4866953
18567.3063307
352.977904706
393.158050181
420.997298199
0.3819613047
1.13663266787
1.08552681477
457.895348185
502.045051528
19550.0697312
19550.5440961
18667.2791967
18581.9589561
19550.4383595
18662.4748221
19550.3245097
19553.5248956
19552.7632135
18611.670417
18645.4898473
19553.9175948
19553.0999809
18612.4073414
19553.1601749
19552.1127337
18636.459022
18551.7002486
19552.62639
18610.8457874
19553.1628861
19553.9109919
19555.3257895
18581.2772162
18596.2351595
19555.362595
18556.3247195
19554.4911631
19558.6362189
19556.678629
18589.9438151
18574.4434098
19557.0200963
18570.2502526
19558.7500733
19560.6586863
19562.6660461
18601.8679402
18572.5864074
19562.9194683
18580.283045
19560.7582389
19577.4430358
19572.240105
19567.1203569
19564.9494481
179.547244053
181.687612683
204.207556861
219.53618742
258.573978299
0.0467941898435
0.0942091756547
0.0481647076425
0.0773693762679
0.0356971266316
0.0447056376606
19579.5130122
19578.708068
19346.0889905
19335.684697
19579.8572013
19339.8616132
19577.1763804
19575.4049963
19326.2386702
19279.4618536
19577.4820822
19574.5525647
19573.1409695
19325.2544303
19350.1228699
19241.3461546
19222.3080752
19570.3370999
19565.4016498
19312.646496
19037.6139646
19147.3202714
18920.4620888
19570.0955855
19568.4873334
19205.2823701
19176.332808
19114.6977523
19562.6215918
19565.3934796
19561.5867368
19079.1797571
18891.0901605
18954.2899034
18832.1753519
18939.4319059
18828.810702
189.564770942
191.727216522
176.991677346
0.132487179987
0.129112417231
0.0949141170278
0.0980247809364
0.114785233468
0.0142546974562
0.0570699825214
0.0153481883309
197.398725823
204.551065179
170.897089921
187.368176023
185.793581955
0.0745565477677
0.0491505462432
0.088996940354
0.0164715584833
214.996899989
197.472037182
235.472521642
0.00908378460228
0.0370664193862
0.0142308925556
0.1257608739
205.192218612
226.042629007
0.0855972777204
0.168654840326
0.489217820228
255.435740465
243.69350881
277.544321431
0.307061691429
0.553552274841
0.805844698929
0.995492503277
19577.9662321
19578.5430931
19349.877131
19340.8923676
19578.3614652
19322.6630761
19578.3882464
19577.7934666
19577.6989696
19335.9612247
19340.300066
19578.0727386
19577.7606908
19318.3857441
19579.2479395
19577.8079661
19361.4141407
19362.8325156
19578.7046423
19578.1251798
19373.4036757
19575.8508248
19576.871712
19332.7850091
19291.0148352
19577.1424053
19575.7838846
19271.4519591
19575.190939
19574.3515445
19280.7173682
19305.6668317
19574.9982697
19575.4714806
19248.0774005
19575.6163694
19576.7997262
19357.5542456
19325.6162268
19576.9911233
19575.9959085
19317.943739
19574.6825476
19576.5285141
19366.6321921
19352.9288671
19577.0207707
19574.4708478
19313.3583564
19574.1233312
19573.2610626
19312.9678065
19274.1872966
19574.7958632
19572.875238
19286.1923254
19573.3032604
19571.1098033
19320.7531538
19275.6788424
19572.7054647
19572.4929087
19269.754248
19571.4743563
19575.2879105
19360.2106967
19320.4050933
19574.3987056
19573.6156097
19221.8379814
19568.0748077
19566.0385682
19281.6394505
19207.7060994
19572.2796257
19084.000529
19565.5689886
19569.0208731
19568.9930664
19290.1602962
19223.6526354
19571.699884
19568.0530569
19173.0025647
19565.4582959
19560.9201968
19165.8967034
19160.5652222
19565.974891
19037.076143
19563.5295666
19570.7333097
19572.1868406
19244.839362
19265.6539816
19571.6692428
19572.5494015
19207.6542495
19568.7545959
19569.3006636
19256.7477392
19169.3885826
19571.1713984
19568.1879726
19117.1520969
19568.1037458
19566.7037488
19132.2557277
19209.1961565
19567.3099673
19569.4114084
19081.9664222
19563.9978123
19566.752141
19171.8320434
19173.1562246
19566.2654175
19567.1857659
19031.9059038
19560.583923
19559.4474298
19128.8320158
19005.2107325
19564.6170651
18862.9949992
19560.3705012
19563.2701879
19563.8012656
19153.4788596
19026.7860355
19566.4424873
19563.5766539
19003.7339554
19559.8275116
19557.5288841
18946.6581121
19035.2681645
19562.1598323
18822.3792495
19559.5404313
19562.4785798
19563.711023
18994.3094383
19124.4189317
19563.2622457
19566.1249468
18992.6054733
19557.5862947
19015.4833172
19561.7334092
19554.3002081
19554.4782619
19555.2807946
19558.4811125
19559.668858
19560.0213172
19553.8101827
19553.9639834
19554.8840773
19558.6846345
19560.1801489
19560.3582766
19543.695745
19548.2215621
19550.6554597
19552.745502
19554.6468935
19556.5094922
19558.1520384
19558.5285651
19546.9161573
19549.4402863
19551.7676773
19553.292045
19554.9473073
19556.7532537
19558.3410666
19558.6806269
19550.6544305
19551.2362381
19552.5393512
19553.8710454
19555.4263946
19557.1686373
19558.6756711
19558.9703085
19553.3071001
19552.944526
19553.5888757
19554.614745
19555.9880037
19557.6111151
19559.0007721
19559.3437671
19556.5327956
19558.0580262
19559.3375625
19559.6676384
19540.4936897
19547.0063449
19549.2229543
19551.9516609
19554.416648
19556.6886877
19558.5553239
19558.8392021
19544.8092759
19548.2153215
19551.2841414
19552.8568088
19554.795363
19556.9703606
19558.8089752
19559.0098957
19549.6818426
19550.6085772
19551.8426314
19553.3744014
19555.2749383
19557.3850265
19559.2005283
19559.3948179
19552.7327748
19552.3857313
19553.0255205
19554.1926514
19555.8675029
19557.8444717
19559.5471873
19559.8086537
19556.4132517
19558.2800227
19559.875114
19560.0687746
19537.7239286
19545.28692
19548.2557442
19550.7444387
19553.8300623
19557.1355966
19559.8881987
19559.3993942
19542.094399
19546.7774566
19549.5763871
19551.3997903
19554.2030239
19557.4717658
19560.1704829
19559.6497268
19547.5509937
19548.9462765
19550.4637988
19552.2083872
19554.8587303
19557.9385524
19560.6219446
19560.4155358
19554.0287406
19551.3318525
19551.0343421
19551.7525448
19553.1207109
19555.5090883
19558.4296115
19561.0017894
19560.9969254
19552.4734848
19552.6656016
19553.8337724
19556.0495976
19558.8528364
19561.2279394
19561.000924
19559.1037472
19561.4124921
19561.0389649
19537.7783847
19543.714799
19546.5635298
19548.372626
19551.5832055
19556.2990972
19561.1068336
19561.6117872
19539.2639231
19540.983022
19544.7486999
19547.263005
19548.9207449
19551.9660149
19556.7813935
19561.5250885
19561.3419362
19557.2978009
19547.7527889
19545.3182322
19547.2433407
19548.4338104
19549.6940676
19552.6715885
19557.3025142
19561.8971304
19562.6001747
19553.0282979
19549.8408167
19549.5395694
19549.8834366
19550.8455414
19553.5754558
19557.9135267
19562.3421154
19563.6720098
19551.2056745
19550.7333307
19551.8287522
19554.2849057
19558.4662715
19562.8711671
19563.4184257
19558.549876
19562.9173924
19562.5448134
400.811593289
416.368576733
403.082811113
440.357900741
477.889472418
522.397545802
585.995770357
687.15079472
269.852111883
361.383754736
400.994522354
411.414521307
411.223512473
439.352505761
473.438088296
502.035949784
564.137639182
681.287809287
299.58703642
356.664391134
382.877204147
377.420656426
386.342265899
414.231941302
448.273422977
489.682008191
549.781388047
651.785957658
319.488753612
332.669239882
345.849371584
364.464236594
399.922364463
432.461772053
482.999644696
545.20589118
634.089304721
350.081915285
373.240406827
392.822014718
416.877159434
459.200630013
531.019934775
638.951767586
450.817667787
544.771891424
666.338116656
0.0431648905926
-0.067283638974
-0.0852319135721
-0.0487998676858
-0.0391138528674
-0.0564101491155
-0.0388696866602
-0.0529477731255
0.0160197164521
0.314762806299
0.00564018971528
-0.0585550951003
-0.0793979834479
-0.0461941311291
-0.0230653623481
-0.0229037233164
-0.0127431551295
-0.0222157621804
0.0604460040357
0.283780118528
0.00272878459701
-0.0491072969458
-0.040554420191
-0.00782528262905
0.00277938613251
0.0038386836557
0.00678299195262
-0.0256183868109
0.0277099753761
0.194215143636
0.039791742
0.00735675207229
0.0202953988317
0.0171890267184
0.0087645667146
0.0110982383591
-0.0260867545081
0.00946505924022
0.167828786907
0.00753724204434
0.0156579512526
0.000264035202556
0.0146478438288
-0.00955438596959
0.0547900684022
0.193367690673
-0.0146522599157
0.0490487674131
0.27635844886
19546.6332745
19544.9605115
19547.609195
19542.4685672
19545.9557693
19543.9100769
19546.6182371
19549.0947352
19548.6715173
19549.5427742
19547.9821381
19548.8071012
19548.2374627
19549.279442
19548.5442784
19548.5269559
19549.4097572
19546.2399611
19548.0363254
19548.1673232
19549.1846212
19550.0451
19550.2045221
19550.9610218
19548.9862079
19549.6996469
19549.8889252
19550.6436442
19544.3361763
19541.3344344
19544.9746683
19539.5123551
19543.2474681
19539.7836443
19544.0535517
19548.259602
19547.4621906
19548.8591049
19546.1326658
19547.5810083
19546.6968974
19548.1222684
19546.5956463
19547.3592216
19548.4068032
19543.1907595
19545.7913905
19546.376966
19547.3761842
19549.2725516
19549.2428977
19550.237299
19547.729591
19548.7256549
19548.5170816
19549.5262221
19542.0791655
19539.0210309
19543.185687
19537.9620617
19541.7929315
19539.3119368
19542.708124
19546.7860391
19545.7776054
19547.3059029
19544.889991
19546.6408655
19545.3681423
19547.1990932
19544.8528747
19544.8608804
19546.296022
19541.7220766
19544.2230812
19544.0499313
19545.9627826
19547.7165655
19547.6216043
19548.6382284
19545.9073542
19547.250821
19546.8895304
19547.9883316
19534.2638813
19536.3743736
18280.7506193
18325.3414175
19540.9636529
19538.9000545
19541.6707376
18274.6402717
18353.8195409
18263.597844
18365.4469405
19545.5628235
19543.8682367
19545.4973633
18370.0990568
18469.5745982
18354.5687333
18430.1190504
19547.3275422
19546.5398989
19547.4629141
18470.1481165
18407.2945453
18427.9221375
18405.417078
19549.8254065
19548.5321796
19549.8593211
18381.9189726
18397.7907756
18404.1064528
18380.5548521
19553.8004564
19551.6624161
19553.9010885
18386.7929347
18398.4218028
18391.3088267
18420.8055062
19558.9700835
19556.4844898
19559.1751867
18415.5531226
18446.8366962
18445.9099392
18497.0493079
19562.2090746
19561.2825238
19562.1637283
18475.5186012
18486.5171769
18521.8995506
18471.9387663
19558.246622
19561.1965896
19558.0063821
18392.6188534
17762.5418394
18323.5446078
17807.2236862
19557.3393515
19549.0360471
18760.1886239
18487.8642879
18708.190262
18561.1640483
19539.0185489
19543.9536382
19542.3514585
18210.4343199
18355.877667
18312.1563384
18450.5913549
19543.2272223
19543.0826357
19544.7908282
18281.4051149
18382.2558928
18340.3840989
18495.7676658
19545.9103598
19545.8884847
19546.8973881
18363.744771
18430.9316108
18434.3650958
18511.3369089
19547.9618493
19547.6264046
19548.2965211
18426.3631776
18407.245671
18450.3973852
18475.9531688
19550.1956153
19549.2080249
19550.5478184
18407.0791661
18387.0065334
18418.2661723
18446.4625312
19554.2256152
19552.3029846
19554.536357
18397.9717413
18423.9009846
18432.6380935
18473.1893451
19559.4456241
19557.0539504
19559.5918919
18449.051331
18508.727572
18489.0826293
18535.5228203
19562.375782
19561.6964295
19562.6455268
18533.7986002
18473.296982
18558.6409281
18531.4487037
19558.1940914
19561.846081
19558.8239548
18320.9637456
17825.6753963
18398.6086984
17877.2576464
19551.7884835
19557.2847097
19553.4666189
18679.5037434
18576.9376756
18610.675904
18661.9770144
19545.3588383
19550.4500407
19548.2664336
18347.1181648
18483.0972715
18449.9829135
18635.8038445
19546.1869026
19547.6611079
19547.9394837
18371.2097549
18524.8710031
18494.0856272
18632.1261277
19547.852907
19548.4462567
19548.7798017
18472.0956638
18535.588121
18564.4356127
18617.0228673
19548.8191525
19549.1805479
19549.5121364
18471.7493255
18491.1616965
18544.0874131
18560.6815116
19550.9584137
19550.2838337
19551.4992554
18430.6038461
18455.5920678
18487.3001401
18512.3036047
19554.8889849
19553.1578923
19555.2590557
18439.7222799
18475.1230376
18487.7487185
18504.9923733
19559.7945371
19557.6105507
19560.014384
18487.7005665
18534.2393721
18513.2396844
18541.9071895
19563.1048389
19562.0510767
19563.4269561
18556.6739043
18544.2939186
18561.3601525
18568.2487758
19559.9041596
19563.2614984
19560.9946234
18426.4515716
17899.6046496
18486.5354479
18006.1548107
18620.3800633
18712.9519885
19550.938824
19553.2166263
18514.6956829
18695.9679119
18843.5795925
19549.4743775
19551.7948822
19550.9079042
18550.4927775
18657.6817478
18669.3768361
18730.3947237
19549.5750843
19550.3773296
19550.1617406
18578.1185841
18624.6351053
18593.837296
18635.4884554
19550.1211679
19550.3150858
19550.6687509
18550.6079893
18565.2461557
18538.1776393
18582.7249885
19551.9937616
19551.3945613
19552.4769652
18494.7960038
18516.6061716
18518.3553025
18545.0790394
19555.6400682
19553.9955435
19555.9819231
18493.6776471
18508.2772489
18523.739741
18545.5600978
19560.2891355
19558.2364165
19560.5944548
18515.2650247
18544.6114712
18553.6445416
18578.8158748
19563.7401971
19562.6192312
19563.9014871
18563.5592816
18568.8817996
18596.6704028
18586.2385986
19561.5975701
19563.6942554
19561.5649872
18491.9941132
18024.2316676
18495.0619245
18015.5018743
19550.7107578
19551.2350705
18595.2779461
18629.8446993
18612.8149341
19551.1431213
19551.157246
19551.4899054
18537.3166829
18582.9506183
18547.9574535
18592.9023304
19552.8300779
19552.1723376
19553.1650411
18527.0685654
18548.9332663
18556.2684991
18599.2438385
19556.2395024
19554.5479212
19556.387686
18531.3021951
18556.9211077
18577.9520562
18594.3335431
19560.8332368
19558.6020152
19561.0228437
18564.2478046
18590.9002935
18594.9608018
18601.6725508
19563.9011439
19562.9299783
19563.7251555
18607.564252
18583.2603693
18612.1237418
18543.7219048
19561.0109004
19562.8269485
19560.3222612
18477.167341
17985.7920342
18398.7878848
17937.2370958
19556.370557
18595.2302955
19560.9991894
18589.2946503
18598.9084856
19563.5857703
18602.9949999
18515.6981377
19559.9646481
18365.6154753
17925.9096419
0.161219225135
0.168314686174
0.123110570114
0.0535182009883
391.908543854
391.291585253
0.102010151741
0.147338060873
0.068498294893
0.128927326769
417.305397746
398.137505217
416.213072181
0.208075206414
0.0943883403241
0.364700203432
0.461828883449
399.5926155
419.856009677
412.138843097
0.012050210898
0.0317188956387
0.246346872405
0.149613434832
416.809132386
411.559518722
423.111212948
0.0592777899358
0.177663108808
0.204573774728
0.15503438447
456.406682834
443.261636553
463.760914913
0.359122216727
0.430331559841
0.156051895707
0.0360091033335
496.976841564
479.547777042
493.509664761
0.409745071599
0.431824127573
0.0619197216482
0.137610253046
550.954603435
513.538736779
541.053964627
0.395623371853
0.747429196171
0.550947418815
1.10592220881
628.97879645
577.446135808
628.869517197
1.52201081212
3.98434556431
2.43825822664
4.82780807621
732.929444589
686.745313081
723.075852533
6.96464481926
10.1801568776
7.22321294802
9.87619565438
321.150999581
285.139851501
327.291291406
0.135956045583
0.062073916944
0.336527645595
0.228063051476
385.987512991
359.744578046
380.575602526
0.0758057224154
0.11490865258
0.108513242346
0.0514581941003
414.541152743
397.966435143
396.453097586
0.220633139371
0.457144773879
0.0723172775081
0.0311017277055
410.224139725
398.352319662
397.235260125
0.382611791852
0.271248836126
0.229935210866
0.21854898849
424.381525166
403.306277685
412.226713262
0.232827848101
0.22143394341
0.355722583614
0.17130286931
458.993623225
429.982392149
444.202172123
0.0606800027121
0.0342846052705
0.189927993955
-0.00646136234261
488.689762645
461.537583207
475.410260844
-0.0422172219095
0.111013218011
0.0379296275093
0.0317252507824
527.848280111
493.49704837
519.735814034
0.291540515072
1.13057063655
0.23478669558
0.703094651611
624.247895322
555.810075546
608.546813692
2.57371142461
4.97096903076
2.13966304707
4.43780490843
710.857750578
667.053703144
699.765650249
7.08056537213
9.31641910058
6.61001112593
8.88685686287
336.196633105
311.583165878
330.629832621
0.686848973602
0.512862984631
0.933887368146
0.431728098139
377.224734604
349.689450718
355.25180399
0.109043886931
0.0312836675644
0.105831133993
0.0255532386698
382.897968273
362.115876817
359.691892945
0.017581026098
0.0114168986413
0.0242645494909
0.0128284611011
379.680058754
359.234840796
360.813659022
0.00767597659064
0.0703184126596
0.0201035918178
0.0195903051775
400.225204736
370.12747715
386.338367737
0.0813411497668
0.266747843673
0.0326886664422
0.0119704294284
433.303532507
404.046711484
421.068187339
0.140491961489
0.201989845646
0.0974616566175
0.0325467772287
467.210428553
439.234787337
461.344231876
0.0347413927313
0.11953518184
0.0510047884999
0.00716786899109
516.671815658
486.653859498
517.069772235
0.144740111682
0.62349254021
0.17061829141
0.472243779151
594.533792637
547.630628165
586.80744623
1.50672053078
3.79624578292
1.44397207673
3.23617043373
691.209779484
639.60893434
682.732158624
5.8485381284
8.2068604146
5.33852432789
7.77334740544
329.089548167
302.453984921
0.00222525362165
0.0144798064268
-0.00351861731931
342.053475026
315.755972337
330.673661167
0.0185621430511
0.0184782589494
0.0223960437086
0.177717188143
354.623755678
344.361922819
356.608744107
0.00870146848351
0.0274065682404
0.291510206018
0.182864448312
382.3522226
367.23832403
381.569441308
0.013867550119
0.0334724997267
0.0533311183216
0.00936370467278
416.26359144
396.872616373
412.735489268
0.0387989230684
0.140894022916
0.0256732629743
0.0412182775433
455.464475625
426.794202766
446.630225751
-0.000507910780285
0.0466175914624
0.0633847894293
-0.0141665727101
513.729913045
472.802963949
504.271787412
0.00212775012252
0.430186218099
0.0947840841277
0.315737656179
583.06790734
538.471337657
579.764752241
1.12665800319
3.13533542808
1.34645603942
3.13684364818
678.306084895
633.514025021
675.713720191
5.10838065221
7.57687949201
5.16087456552
7.52100673005
363.179386511
366.845696584
0.438205050254
0.246998361001
0.519355560981
0.0490369906062
379.746725356
372.832232259
379.15976376
0.0194216871337
0.0174420607819
0.00993837095926
0.00255056863638
405.371105699
384.297696438
391.967397723
-0.00530279777239
-0.0177341253215
-0.00336130026093
-0.0265005672535
434.129767501
402.093450324
421.749034102
-0.0372473646685
0.0752891157877
-0.0374336466807
0.1479881049
492.280923957
449.132273271
490.373129594
0.135575454333
0.712634044969
0.524034559021
1.10732655652
581.171263391
533.345430628
595.491373452
1.58592122964
3.62505070369
2.43684639231
4.31170154766
676.868382791
651.59855386
679.637787794
5.41982719961
7.71172738906
5.93507919792
7.90567011764
415.384409622
0.75127760359
491.997089493
0.786788972778
1.38579056379
0.745580684083
0.842698821497
612.293299758
2.6991004946
4.89048615089
2.15810609316
4.6692462908
686.939020798
6.61037278283
8.60192468912
6.81599720268
9.12095886712
19533.3110175
19533.3935662
18384.6454539
18320.3726788
19534.6938042
18165.8918394
19533.4350582
19534.0757991
19536.4576118
18328.4776889
18457.0322086
19535.067481
19537.3808659
18177.7201818
19535.4910666
19534.7125354
18365.9396253
18375.9151464
19535.6668891
18318.9395558
19537.4984687
19535.9133833
19539.8912956
18375.9029213
18380.2434372
19537.9094687
18312.7990576
19538.9403346
19536.793779
19536.2525578
18399.573567
18363.6383682
19536.2544907
19538.4456561
18334.550036
19537.8119631
19540.5838651
18374.870366
18408.5129358
19539.2168617
19540.1863719
18314.2224262
19540.8207469
19541.2542378
18446.6743266
18411.9224109
19539.8258172
18414.5214629
19542.8200888
19542.0565468
19544.5606098
18471.1099445
18477.2452893
19543.5286697
18434.3264698
19544.1324274
19541.5417208
19541.2579712
18403.1038875
18408.4980175
19540.7212063
19542.4388413
18397.4525148
19542.4733711
19543.9417071
18458.5761867
18439.7803077
19543.5341632
19543.6260356
18409.1702805
19544.686253
19545.0253233
18497.1460894
18467.0704273
19544.5434489
18433.6430636
19545.5347403
19545.2544014
19545.7242025
18476.3381564
18452.8593903
19545.7160271
18419.6848143
19545.8137265
19544.868816
19544.3162062
18457.3981791
18460.1204548
19544.5299708
19544.9228546
18428.1640367
19545.2727683
19545.3551745
18451.0537129
18448.0062693
19546.0750609
19545.2629388
18421.990136
19546.0906104
19546.0225786
18428.9163523
18442.9653449
19545.9736223
18381.6642743
19547.0780925
19546.803555
19548.2702157
18443.9712756
18417.2361697
19547.9233826
18374.3574726
19548.1087828
19547.1309982
19546.0798285
18435.077248
18434.2864213
19546.9127501
19547.0234255
18378.1762183
19547.6013262
19548.2775836
18421.6800696
18421.9996632
19548.2805012
19547.8000622
18378.8512936
19549.7899261
19549.0283113
18424.7874109
18418.2511229
19549.0452831
18385.3194398
19550.4277874
19551.2513408
19553.1135597
18426.0949787
18443.3009753
19552.9902148
18398.3227593
19551.9406538
19549.9883669
19549.3912497
18417.4621698
18441.74004
19549.1637432
19550.8921632
18384.2142637
19551.4139128
19553.3589441
18452.6767255
18440.450932
19553.1326267
19552.2391076
18400.9434327
19556.2783155
19554.6819465
18452.5646926
18438.2087321
19554.6433776
18423.2449479
19556.5981726
19558.4974957
19559.9935913
18449.3311295
18492.7292687
19560.9056579
18450.9997299
19558.2392231
19556.3040407
19555.1037607
18449.7222422
18498.821565
19554.7420448
19557.213969
18433.3684215
19558.5607691
19561.1391635
18505.9869764
18500.1015093
19560.9191002
19559.1763074
18459.3962214
19564.5735668
19562.061162
18508.3300802
18493.0025176
19563.0706139
18495.1649689
19564.0195468
19565.3607699
19564.52705
18509.2240469
18496.3648781
19564.8759039
18500.6067101
19564.8682602
19564.0373846
19563.1469168
18506.7318974
18554.7909381
19562.6560609
19564.862127
18507.6928274
19564.6573309
19564.3274167
18472.0748908
18544.7893782
19564.0342861
19565.6452736
18487.2015544
19557.9713368
19562.2298672
18299.6656696
18452.3117249
19562.6710783
18306.6090727
19558.5380373
19551.1276991
19551.6613784
18170.1004582
17735.5520723
18087.3116012
19550.9350922
19552.6889733
19557.3589123
19561.0422362
18426.0019008
18226.8026599
19561.7844412
19557.1079871
18289.0761604
19550.9404921
19551.6171538
17752.7732058
18131.2412254
19551.9031573
18082.3961266
19550.6909965
19553.0417207
19558.1008657
18974.0525312
19112.3879741
19554.9652019
18719.4907734
19561.0506441
19545.4839999
19541.4364213
18929.4313099
18653.3216089
19549.6944924
19543.7283103
18427.5062181
19553.0546619
19555.5533697
19081.9791781
18905.5622292
19555.1800766
18723.702449
19559.9539781
19546.4672419
19546.5198661
18654.5888082
18886.9386282
19545.2110914
19552.1276886
18453.1990931
19539.1640323
19535.2358203
18399.2406917
18686.6023059
19536.6195515
19541.9662607
18412.175889
19538.4754431
19537.3070902
18492.1286233
18363.6394241
19538.3046676
19538.7602507
18233.2678889
19540.4429761
19542.3767234
18700.6356916
18464.8247989
19543.7720847
19542.4839513
18449.5885182
19539.0154854
19541.8083655
18384.3985039
18574.1031652
19539.4079856
19543.0964735
18271.9404739
19540.1387419
19537.1215395
18370.8499563
18460.2369043
19538.5715544
19540.1317713
18392.2553895
19540.2066493
19540.9152744
18425.9110986
18390.248493
19540.6132821
19541.4119906
18334.8877467
19541.1886127
19542.0031605
18489.9588803
18412.4283723
19541.0659958
19542.7971349
18425.7090807
19541.106077
19544.2448171
18414.2164915
18517.6942702
19542.2728607
19543.641061
18364.6690528
19542.9726017
19541.3801147
18411.6718039
18460.6395221
19542.1096331
19542.7002694
18436.4005117
19543.3408888
19543.5692665
18446.9211475
18438.7936487
19543.2540377
19544.0286096
18402.9007319
19543.6893797
19544.4508779
18489.6048362
18458.32367
19543.5070485
19544.8379126
18467.9882849
19543.9236378
19545.7959042
18448.2802124
18525.0414927
19544.3406408
19545.5998385
18422.0292163
19545.1514262
19544.1079749
18456.9164189
18473.7731296
19544.7196559
19545.1522135
18444.4998832
19545.3628421
19545.8324593
18450.6221572
18451.0632669
19545.7065621
19546.0778691
18416.389521
19545.1539374
19545.8096477
18491.5832803
18469.1808148
19545.0938217
19546.0564583
18461.1355913
19545.2861529
19546.6284889
18448.5647664
18512.3475455
19545.8933638
19546.6517919
18418.2039075
19546.9062813
19546.3377835
18438.3070484
18452.7525224
19547.1964919
19546.8269225
18406.2384398
19547.6454318
19548.2775774
18427.759417
18442.6896109
19547.9106981
19548.8419451
18401.2472664
19546.872237
19546.7379987
18467.5478866
18451.4931506
19546.6615808
19547.6813799
18422.3941031
19547.4983007
19549.0994987
18448.1292625
18482.7263674
19548.6772687
19548.76322
18404.1981337
19550.5836057
19549.2486622
18445.4765848
18442.837685
19550.6694124
19549.9001322
18408.5283495
19551.8520024
19552.9116247
18443.0511845
18480.1467169
19551.8631219
19553.7383449
18420.5546218
19550.6456402
19549.9790543
18456.2213668
18475.7497852
19549.8018448
19551.4685257
18425.3159771
19551.9842333
19554.1362325
18489.8440642
18489.2044675
19553.7802837
19552.9572947
18434.2885483
19557.0044186
19554.6347593
18505.6773907
18488.2513626
19556.8583098
19555.4185432
18482.9263938
19559.0646294
19560.7382686
18509.8236354
18554.8045435
19558.8016465
19561.4739415
18508.7160881
19557.0584867
19555.7098727
18496.9305979
18531.8148891
19555.4157238
19557.7233875
18489.7806902
19559.120028
19561.4850475
18556.1640538
18535.6128806
19561.4805035
19559.6042425
18512.420802
19564.4060575
19562.783293
18566.543653
18557.6796574
19564.3758339
19563.3248038
18559.2362632
19564.662164
19563.0294106
18551.3961479
18468.1112181
19564.6970056
19563.6812802
18510.6809397
19564.4495642
19563.4274033
18561.0038723
18592.0752729
19563.294846
19564.9487633
18565.8759883
19564.8603219
19564.6044371
18495.1365737
18588.029612
19564.0435896
19565.7288276
18529.864248
19556.962098
19559.6503825
18225.1066777
18417.2485977
19555.8895636
19561.282412
18288.5924473
19550.9939861
19551.2569452
18138.8401298
17793.1861729
19551.23623
18100.7774673
19551.1641602
19557.499984
19561.7626008
18444.6536721
18298.0446108
19561.7301732
19558.08216
18314.1964765
19551.5941493
19553.4378766
17811.5845505
18199.1346391
19553.3869545
18120.8538986
19551.6157795
19552.404135
19554.6275044
18858.5302706
18981.6369845
19555.0605049
18691.6000148
19558.2934958
19547.9291851
19546.892904
18863.5970507
18616.6291825
19552.7957006
19549.0437215
18451.2008887
19552.7954573
19553.5767902
18950.6637246
18758.1285405
19554.6535833
18691.1410163
19557.8694976
19548.7547214
19550.4347586
18609.2821216
18825.4956839
19549.6384588
19553.7265823
18466.9714597
19545.1980009
19543.9486972
18470.4580957
18707.6806401
19544.1574034
19548.9777353
18546.288296
19544.061315
19543.1590192
18593.7378646
18432.6167673
19544.7732752
19543.906281
18355.5957346
19546.5982305
19549.4167877
18720.7398236
18532.5759258
19549.7799096
19548.5421611
18581.3153623
19545.1324461
19547.1690706
18450.2039763
18684.260383
19544.6381618
19548.7163006
18388.1310464
19544.6807372
19542.9999339
18431.8294333
18569.2545962
19543.4892801
19544.9747245
18532.3111285
19544.8127643
19544.8423621
18541.0555659
18490.5097855
19544.6184275
19545.4416838
18453.5471669
19545.6276161
19546.6454784
18592.8815471
18521.5745967
19545.5373599
19547.0130549
18571.946854
19545.7503855
19547.6151068
18520.2599574
18631.9055906
19546.2010855
19547.7269747
18490.1596799
19546.4156331
19545.02311
18495.5857959
18578.6841766
19545.2773873