/*--------------------------------*- C++ -*----------------------------------*\
| =========                 |                                                 |
| \\      /  F ield         | OpenFOAM: The Open Source CFD Toolbox           |
|  \\    /   O peration     | Version:  v1906                                 |
|   \\  /    A nd           | Web:      www.OpenFOAM.com                      |
|    \\/     M anipulation  |                                                 |
\*---------------------------------------------------------------------------*/
FoamFile
{
    version     2.0;
    format      ascii;
    class       volScalarField;
    location    "11.8";
    object      alpha.water;
}
// * * * * * * * * * * * * * * * * * * * * * * * * * * * * * * * * * * * * * //

dimensions      [0 0 0 0 0 0 0];


internalField   nonuniform List<scalar> 
28582
(
0.999998240909
0.999999317323
0.999998267984
0.9999989223
1.00000097155
1.00000054904
0.999990243912
0.999984641621
0.0587844188004
0.0602199308546
-1.64516831852e-27
0.99998894793
0.854157497518
0.853838460753
0.999984048208
0.9999927062
0.854449368176
0.99759476886
0.99782106647
0.999998507964
0.999998723071
0.999994003639
0.999998845635
0.999998409658
0.999995257571
1.00000126365
1.00000003503
0.999988662386
0.999983995039
0.0609955605033
5.63803927724e-07
-2.32277988173e-27
0.99998714404
0.999988525781
0.86372858524
0.858275208145
0.998468019536
0.999983371417
0.999990126545
0.999984685329
0.997653839087
0.85372647443
0.997838548665
0.997994127589
0.0589164982259
0.059415180091
0.000199877740477
0.000359374978611
0.0595267922011
0.000337359552949
0.998247642659
0.998225685539
0.852544476053
0.855357707454
0.998289094156
0.853783684309
0.998155338336
0.998126198969
0.997894388714
0.853151106105
0.854653091161
0.997998578409
0.854274787384
0.998039389903
0.99761191443
0.997668701457
0.855024114846
0.855061841221
0.997812907311
0.85534385251
0.997492973666
0.997508430173
0.856631928079
0.856183811182
0.997581619508
0.855607573472
0.855630483883
0.997481720146
0.99796250363
0.857341838804
0.85778465391
0.99782597075
0.857062177119
0.997999914124
0.856551913627
0.0589676745813
0.00054445210398
0.0580902679444
0.0587660456196
0.000434183496242
0.000498853328089
0.0606491417488
0.000209357388382
0.000325451018876
0.0616858373547
0.00024754721408
0.0616660382601
0.000291053142766
0.998493227049
0.998439799915
0.861693756361
0.863809274587
0.998442726278
0.998494485941
0.860987638858
0.998444104296
0.998267920195
0.860032183947
0.856601148647
0.998398058311
0.998301264802
0.858881202595
0.85746526452
0.855054409863
0.998352827961
0.998451036005
0.855519976119
0.998324917783
0.857867433948
0.997573772014
0.856252607482
0.856182702944
0.997756550254
0.855407935417
0.997644906578
0.856062251268
0.99788641762
0.997817065526
0.854634507439
0.855228214284
0.997730415963
0.998020537858
0.855825526099
0.997977900791
0.997968949482
0.857391955633
0.858088443899
0.858216098397
0.997887847387
0.857424075906
0.85802393393
0.8576868333
0.998020720794
0.997985273635
0.856116143597
0.998073639029
0.857122236339
0.999999728398
0.999983818848
0.062745375099
-2.09009073165e-27
0.999986373262
0.853042901629
0.99998033492
0.999978748669
0.852814518539
0.857033048123
0.850563089188
0.999980835143
0.999984611143
0.848603292498
0.845693354418
0.0596287947166
0.0628545933192
0.0642004032227
0.000269908243355
0.000268114207681
0.000268192458309
0.0653757902153
0.066154466356
0.997947556281
0.998191208223
0.853418196109
0.851265800321
0.998140348461
0.851355715575
0.998018509133
0.998157186248
0.997862791842
0.851872121121
0.85419469991
0.997874760133
0.998133524596
0.852941327227
0.99804061729
0.998061848599
0.854454517037
0.855168315249
0.998066690919
0.852737746472
0.998044041947
0.997996727022
0.997938180293
0.849989840373
0.852938609553
0.997956467489
0.851253089393
0.997989721956
0.997946658592
0.997883884536
0.848480845073
0.847038786214
0.997936295324
0.847380823916
0.997817540704
0.997989003218
0.997820417184
0.845188776734
0.846119324062
0.998037712487
0.846175142575
0.997812600611
1.00000158718
1.00000191465
1.00000086664
0.999999348232
0.0509166019108
0.0563516534497
0.0494421311138
0.0533195532778
0.052123376083
1.13866691316e-06
2.88307773062e-06
3.88577703118e-07
-4.05576785232e-26
0
-1.53304032092e-27
1.00000136409
1.0000001074
0.877270161422
0.882966540988
1.00000905338
0.883967682179
0.999996648861
1.00000045466
0.885143190435
0.890616512686
0.999999979205
1.00000859374
1.0000128094
0.885825963456
0.888981111238
0.891025767428
0.891952223046
1.00001310364
1.00001088068
0.890056470683
0.891647739531
0.891776565375
0.88989236226
1.00000133583
1.00000309078
0.891453624458
0.891959312027
0.89338599788
1.00000021566
1.00000210658
1.00000235427
0.891787138955
0.889648018963
0.892844418365
0.889699530485
0.892673908672
0.889050156824
0.0490580711099
0.0477991483584
0.0521095164488
0.000185847332841
0.000126183382772
0.000148312036838
0.000106882218118
0.000106278712723
9.52580019959e-05
7.26437789786e-05
7.00831922153e-05
0.0466709944048
0.0461900790769
0.0544894762937
0.0498528966209
0.052982563721
0.000123546976788
8.76355060426e-05
0.000136297309046
0.000102782539168
0.055355357239
0.0545835320941
0.05450182604
4.11418360906e-05
4.48336179414e-05
5.62541152004e-05
5.50604160126e-05
0.0520107370838
0.0514444702496
0.000144908884108
0.000110617237368
0.000118614811569
0.0537341840854
0.0525039575562
0.0532121380905
8.22998828824e-05
6.47947356802e-05
9.91861140934e-05
8.79901509634e-05
0.998994718009
0.99900720451
0.874779832823
0.878199941619
0.99900559712
0.876428013004
0.998994401717
0.999079131763
0.999101010297
0.880521579438
0.882240755822
0.9990565721
0.999133538344
0.879494744608
0.999034857348
0.999098768766
0.88183307141
0.885224213776
0.999051558926
0.999068120427
0.883360543301
0.999251989926
0.999178364933
0.884665048392
0.887205097226
0.999226598834
0.999213582683
0.886862421503
0.999327777545
0.9993218138
0.888982580975
0.890450114227
0.999300618307
0.999356557282
0.888761082243
0.999056897043
0.99912944888
0.88652265975
0.888122631874
0.999054452011
0.999149784188
0.88904502638
0.998943102518
0.998981286644
0.887237407425
0.890276419512
0.998984887456
0.998928418371
0.889275054871
0.999184024151
0.999277523778
0.889665718079
0.891579829427
0.999261277835
0.999217108859
0.8901628573
0.999052187414
0.999032881208
0.890730261424
0.891610229215
0.998950550891
0.999131899896
0.890233526214
0.998956236197
0.99898439858
0.891332878152
0.891040318909
0.998992735621
0.99893388285
0.891860213218
0.998996610289
0.998990490497
0.891838973944
0.890968304411
0.999000026127
0.891534395548
0.99901272647
0.998924968889
0.998958399715
0.89106467062
0.891528238792
0.998932364902
0.99892948067
0.891451997004
0.998929693704
0.998899622151
0.890372942231
0.890884536907
0.99891814844
0.891080510367
0.998926274446
0.999317823383
0.999334167299
0.891793264368
0.892387216084
0.999285911512
0.999346745178
0.892796423896
0.999254752515
0.999108644098
0.891742624975
0.892721836828
0.999204693626
0.999172372799
0.89271974114
0.999302463319
0.999280143722
0.89262974753
0.89366402773
0.999224341062
0.999370203125
0.89279845431
0.998988809241
0.99900808942
0.891356222587
0.892358839481
0.998923137545
0.999073530375
0.891674382007
0.99892197788
0.998821864484
0.890597757227
0.88951556533
0.998867655668
0.890713418219
0.998848888901
0.999060663452
0.999182505339
0.892230227013
0.89208593845
0.999138073135
0.999111437948
0.891521928196
0.998997771696
0.999002742646
0.889297541852
0.891019420391
0.99906288259
0.89053823852
0.998932325352
0.999149924334
0.999209820168
0.891611942901
0.892800817438
0.999137826486
0.999229585663
0.891667172119
0.999037780453
0.890400536074
0.999089492363
0.999999301848
0.999999370225
0.999998833712
0.999987872373
0.999990678693
0.999993792449
0.999999475393
0.999999541535
0.999998790732
0.999988626198
0.999990906439
0.999995097879
0.99999033845
0.999954826231
0.999997136335
0.999993763382
0.999949481054
0.999943116759
0.999970260957
0.999994312402
1.00000138399
1.00000159204
0.999994496112
0.999992923371
0.999993268078
0.999987659864
0.999979810382
0.999979795813
0.999995463078
0.999996139048
0.999997719332
0.999997885767
0.999995137925
0.999984914285
0.99998858356
0.999995790839
0.999996520004
0.999999348545
0.99999940266
0.999997543349
0.99999055826
0.99998755345
0.999994198897
0.999997580999
0.999991940027
0.999987711052
0.999991854967
0.999997545481
0.999796278629
0.999938214557
0.999985744427
0.999904237609
0.999896801307
0.999950383063
0.999989755871
0.999992311816
0.999943914469
0.999911720678
0.999988041348
0.99998444443
0.999927759317
0.999927545575
0.9999724055
0.999995511183
0.999977329014
0.999970455704
0.999983541168
0.999994055168
0.999988472652
0.999974615996
0.999978041719
0.999993643421
0.999998768213
0.999999004769
0.999998871238
0.999997861795
0.999996413513
0.999996315647
0.999996855123
0.999997453032
0.999994742883
0.999991347224
0.999993811379
0.999997732338
0.999872167133
0.999827371135
0.999983907629
0.999936067293
0.999933322258
0.999973543737
0.999997143277
0.999997670214
0.999868365152
0.999669611963
0.999981465763
0.999989213879
0.999970155649
0.999968663449
0.999986064428
0.999998589459
1.00000004228
1.00000021411
1.00000046979
1.00000020416
0.999999394423
0.999998304119
0.999998374207
0.999999404649
1.00000085408
1.00000104761
1.00000069111
1.00000039039
1.00000026238
1.0000000629
1.000000035
0.999999980996
1.00000003069
1.00000163352
1.00000116829
1.00000057952
1.00000029337
1.00000039127
1.00000046375
1.00000059612
0.999999326167
0.999999508103
1.00000010106
0.999948538705
0.99974385946
0.999934040539
0.999994360884
0.99999558128
0.999997272878
1.00000525604
0.999997988508
1.00000100028
0.999985936307
0.999983259636
0.999984225023
0.999992914011
0.999993688435
0.999991690271
0.999985524335
0.999961542094
0.999998579363
0.999992908385
0.999992252617
0.99999256883
0.999991654575
0.999987918973
0.999988482533
0.999989916155
0.999989379262
0.999981408457
0.999996875736
0.999992144735
0.999985969735
0.999978440782
0.999979478355
0.999986260243
0.999989324096
0.999990583971
0.999989017386
0.999984200111
0.999972387279
0.999971728547
0.999971739283
0.999979022518
0.999985530153
0.999985471152
0.999987024594
0.999989396982
0.999990899762
0.0504517722267
0.0533222503093
0.0569512285035
0.0601627803594
0.0667263300913
0.0701070127095
0.0703136159246
0.0699040656628
0.0536368733317
0.0512269982572
0.0519009715648
0.0535119999182
0.0563093376807
0.0574033837245
0.0614933239751
0.0644738511717
0.0661267025121
0.0662725398403
0.0533469584597
0.0540744922886
0.0549686027065
0.0551612461791
0.0563857678934
0.0573683277969
0.0589990731224
0.061687153174
0.0629577188759
0.0636693807121
0.0560347426565
0.0572431589047
0.0577023062763
0.0581736547259
0.0587879413687
0.0594037377903
0.0617736878672
0.0628645700132
0.0648973479843
0.0594904899713
0.0601964213214
0.0594370338575
0.0618085844438
0.063372303329
0.0650874954703
0.0666256197812
0.0649939677015
0.0664881888749
0.0663747973822
1.19204165477e-06
5.08922135519e-07
3.81030086883e-25
1.85535878476e-06
3.94748656484e-05
2.22803566361e-05
-9.52362924659e-27
-5.69290145256e-29
-1.53811520018e-27
5.32824150998e-05
1.94171233587e-05
1.22359103445e-05
2.87632416814e-07
3.88458637835e-07
4.53109350488e-07
6.05520308352e-05
-7.23586591386e-27
-5.5600777099e-26
-2.05782568975e-26
3.71360101563e-05
2.78300530904e-05
1.03979097589e-06
-2.0918751338e-28
1.27792747319e-06
3.77810982826e-07
1.06192621423e-25
4.38375075798e-05
-1.59871385051e-24
-1.60806659199e-24
4.67106880451e-05
1.56225859386e-06
-1.05982561857e-25
2.07985139684e-06
-1.06329794431e-27
-1.09120076336e-28
9.23359981247e-06
-7.22291435969e-25
-8.87322767929e-25
5.88739015781e-05
2.39217283739e-07
4.13590306277e-26
4.8428981245e-05
-1.72208814715e-26
-1.02794013282e-25
-1.67230151219e-25
5.9785385798e-05
-2.16967138212e-27
-4.45386893848e-26
6.79013515431e-05
0.999957574842
0.999997050836
0.999997858754
0.999884592662
0.999808130203
0.999949031501
0.999904404693
0.999979054938
0.999997394474
0.999996406269
0.999899102727
0.999982344903
0.999925106152
0.999975166327
1.00000189275
0.99999476911
0.999998768192
0.999995647968
0.999996556804
0.99999813859
0.999999468088
1
0.999999324703
0.999998675195
0.99999570275
0.999996120125
0.999999457477
0.999996523428
0.999802205431
0.999889155615
0.999765120816
0.999876445584
0.999705661503
0.999848187142
0.999698611712
0.99999240733
0.999885434517
0.999978855637
0.999876608026
0.999982363016
0.999875485108
0.999981323197
0.999897449798
0.999990031888
0.999991626644
0.999934899237
0.999755534411
0.999994810957
0.999925137073
0.9999609654
0.999988463327
0.999976394612
0.99980416921
0.999932115146
0.999819761694
0.999895050588
0.999648405512
0.999871544624
0.9996269765
0.999689108285
0.999583397612
0.999795919308
0.999583591009
0.999967184377
0.999817155271
0.999964189354
0.999652374217
0.999893851696
0.999660831092
0.999894451271
0.999641055379
0.999979234927
0.999934434484
0.99991611138
0.999862754678
1.00000230516
1.00000081024
0.999864694482
0.9999025441
0.999920090235
0.999858131191
0.999895550773
0.999999997571
1
1.00002782849
1.00000197122
0.878382211067
0.878611587233
0.999758649509
0.999947420295
0.999876552382
0.878623053467
0.880562694439
0.878236170225
0.879184823251
0.999836584688
0.999874010153
0.999904732504
0.880364626026
0.874499379861
0.878904204475
0.873199116938
0.999986862574
0.999955231586
0.999991774786
0.869946952404
0.849978998689
0.869593355475
0.856198598348
0.999997781325
0.999995961595
0.999994515095
0.845233183988
0.836505304151
0.854174383671
0.851281725215
0.999997224877
0.999993491577
0.999992021635
0.834446009414
0.837291917371
0.8505472066
0.848948955828
1.0000001673
0.999989887694
0.999989961226
0.838864106151
0.844879664937
0.848847655538
0.847398255669
1.0000082544
0.999991135563
0.999997385712
0.844285046984
0.835941268586
0.844859716352
0.830925377928
0.99984855815
0.999993051388
0.999942199321
0.842247376042
0.788989643607
0.83538995351
0.830405062574
1.00000413909
0.99999974705
0.89111693891
0.886431712314
0.888722586225
0.883934058465
0.999991542519
0.999993900845
0.999992167195
0.884323089144
0.878962574842
0.881942323554
0.876429302294
0.999984582579
0.999993427554
0.999997816966
0.878072170005
0.878594735766
0.874984648604
0.873850131328
0.999981223451
0.999999683049
0.999999473021
0.878451811768
0.874810762215
0.873767182179
0.871695227249
0.999989673727
0.999997264634
0.999992586985
0.870690067973
0.857402186691
0.870005716314
0.864836718325
0.99999402684
0.999991278176
0.999989701762
0.857717293749
0.856502123206
0.864378766964
0.862890895181
0.999992088099
0.99998854743
0.999988595616
0.854977659958
0.851396745514
0.86232209401
0.860828527946
0.999989214961
0.999987023593
0.999986426044
0.850733005572
0.848060435984
0.858983787035
0.848443277632
0.999976842193
0.999984649888
0.99998177668
0.845209562937
0.830501241854
0.845178355241
0.838095654665
0.99993916814
0.999968994422
0.999971546349
0.834783265987
0.833716663914
0.842196627465
0.836668008395
0.999996307835
1.00000009836
0.999999542225
0.888454345572
0.883735298521
0.888206032351
0.88180334089
0.999992145828
0.999996605615
0.999992195436
0.881564873657
0.874030656962
0.878547846532
0.868622553812
0.999992351068
0.999992243809
0.999991928679
0.872402999166
0.871693968246
0.867023824747
0.867329959023
0.999992645805
0.999993626914
0.999993037092
0.871864324638
0.870755108716
0.867472500166
0.866105595775
0.999990143944
0.999992823163
0.999991387499
0.869944522702
0.866155126688
0.865672531177
0.8652543002
0.999987852867
0.999989807136
0.999988834865
0.864794382917
0.862185876508
0.864507833065
0.864152349126
0.999989523844
0.999988798455
0.999990808392
0.862600268946
0.8620200456
0.86465851671
0.858634357627
0.999989256545
0.99999016793
0.999990127245
0.858479608829
0.848347629725
0.853734126448
0.847044096991
0.999987812044
0.999991427295
0.999990781994
0.846525787245
0.84164286662
0.846973672347
0.84526309442
0.999983334628
0.999985784996
0.999987214186
0.845401616173
0.83652890883
0.848457720184
0.836375637543
0.887201664253
0.880073412142
0.999994314809
0.999993943875
0.877077292925
0.867509186523
0.865957821654
0.999989542346
0.99999130896
0.999987715744
0.865996038843
0.865310207357
0.864046276902
0.859743097387
0.999981086036
0.999984568767
0.9999794124
0.865099873861
0.863586836424
0.858284090221
0.855993985995
0.99997846306
0.999979679858
0.999980649241
0.863746308676
0.86394260885
0.856711110607
0.859857625439
0.999981271991
0.99998232835
0.999985765793
0.863239041921
0.862974771897
0.859025550023
0.8561592815
0.999987543898
0.999987998705
0.999988610755
0.862754857846
0.855751101342
0.855647299098
0.851720452302
0.999990557505
0.999989733922
0.999990306352
0.852797923439
0.847862324017
0.850028021491
0.846190600642
0.999989888367
0.99999128055
0.99999053131
0.847179179389
0.844180184721
0.845063604597
0.840969307376
0.999991246611
0.99998862179
0.999990971289
0.847409489757
0.836215461589
0.844567391255
0.834941010115
0.999976805086
0.999983123578
0.856377196179
0.855140659431
0.852851094443
0.9999709297
0.999982426736
0.999981194298
0.856064953973
0.858101205015
0.853828965147
0.856820135381
0.999970923212
0.999980186799
0.999979286881
0.858133057116
0.854945743237
0.857036797642
0.853516172934
0.999974894635
0.99997954787
0.999981607357
0.853931548381
0.851227308371
0.852737522478
0.849533379282
0.999984238234
0.999985120893
0.999988732997
0.849241661398
0.845335132526
0.84771775291
0.843730334803
0.999985087465
0.99998916556
0.999988201614
0.844446679363
0.840054682709
0.84329196399
0.838012804734
0.999989609711
0.999987601737
0.999992816864
0.843876812493
0.83439154073
0.842323102524
0.833939685579
0.999985820937
0.849433998366
0.999988968956
0.847779426169
0.843828784902
0.999989865945
0.843081296345
0.836876882077
0.999995536157
0.841457799706
0.834317886822
8.76136791186e-05
5.69344299081e-05
8.98737809206e-05
4.41499608827e-05
0.0491131589562
0.0500289715759
1.94697764406e-05
8.70908789427e-06
1.42411263607e-05
1.44825168737e-05
0.051912659056
0.0511339849763
0.0521159171695
1.28391404879e-05
2.1798873823e-05
2.96481915959e-05
2.92746116784e-05
0.0555563618254
0.0532668253014
0.0552449697896
5.12133708686e-05
0.000189474858475
4.57069718217e-05
0.000171667487893
0.0583927643461
0.0561907350606
0.0574883706799
0.000799698545933
0.0012149822394
0.000765549010837
0.00115370603553
0.062549438596
0.0590819895191
0.0611073284985
0.00115339388762
0.000935050495547
0.00109502211792
0.00076173224897
0.0688816715178
0.0637720657812
0.0657800707919
0.000478291735267
0.000350220588011
0.000347840637822
0.000273159246973
0.0702570861297
0.0673140467491
0.0680497450797
0.000368652305641
0.000383453981841
0.000302416107463
0.000343747630011
0.0702708804018
0.0681799825283
0.068654151785
0.000505120205137
0.000528377323877
0.000397701383508
0.000393516731002
0.0725631667798
0.0673899672149
0.0719683799911
0.000506743731325
0.00123106555608
0.000454055870291
0.000725580471246
0.0520398313027
0.0535753818564
0.0528088207121
0.000201969373487
0.000221146224025
0.000261353014296
0.000302798490347
0.0512582919094
0.0528970291384
0.0530331146371
0.000179444127053
0.000140505925387
7.83461588438e-05
9.76246957649e-05
0.0524690953453
0.0531675207771
0.0533013614929
4.83699898075e-05
2.61306967392e-05
5.14291362133e-05
3.8384527352e-05
0.0550287665874
0.054074002554
0.0552037354937
1.91291215554e-05
6.06117431319e-05
4.09627026944e-05
9.30389791433e-05
0.0571128873896
0.0562254255577
0.0566530175914
0.000334640492244
0.000879207162258
0.000243962235146
0.000475618897115
0.0593852242076
0.0567561916272
0.058367849257
0.0013575984931
0.000857870726263
0.000782854377345
0.000698502538745
0.0629617277773
0.0602100880349
0.0613021151293
0.000306859086694
0.000239117871576
0.000274844481242
0.000203469778451
0.0656018738089
0.062601806201
0.0635538475444
0.000234653756093
0.000220709343053
0.000201328393628
0.000186085199635
0.0670608826609
0.0642709416044
0.0649528817049
0.000247348531073
0.000228001519882
0.000161321182125
0.000158980115153
0.0711592005287
0.0646528037318
0.0694036431753
0.000323585402202
0.000571695689567
0.000265117949103
0.000611525195271
0.053314834504
0.0534244634513
0.0538606262638
0.000239566615678
0.000260759503468
0.000249983134026
0.000395265509662
0.0545714752033
0.0551468161527
0.0557411173004
4.43574088824e-05
0.000119593383655
0.000141089049905
0.000243403194917
0.0548980355807
0.0561904252724
0.0562549575995
0.000115858570484
6.52023273201e-05
0.000218666406844
0.000181111348314
0.0558403033816
0.0564012916111
0.056775086208
8.36287805255e-05
0.000131503842228
0.000174519376919
0.00021702495026
0.0566234350497
0.0570940170487
0.0571638620055
0.000198887298612
0.000220441562871
0.000233055215692
0.000204427749184
0.0582260062766
0.0578297122268
0.0581514454074
0.000252780690038
0.000395644403738
0.000248244572835
0.000399200387612
0.0603721462658
0.0583787209023
0.0599523514657
0.000632919209866
0.000475526391835
0.000866224085883
0.000874740706434
0.0623850584881
0.0615762752044
0.0621243362393
0.00024172202989
0.000178623992846
0.00028637127689
0.000178949299487
0.0635387497758
0.0625313046825
0.0633962152165
0.000148719872002
0.000149738953823
0.000145144721087
0.000145129854977
0.0682131631767
0.0639679967724
0.0682511945561
0.000268502305746
0.000753401861529
0.000263681713857
0.000950049658241
0.0568334049287
0.0574310636995
0.000217711633079
0.000321599999511
0.000384172652672
0.0574671492307
0.0578923269558
0.058336677979
0.000298501138217
0.000302325608916
0.000378006021795
0.00041175771436
0.0579960318841
0.0587619046725
0.059198269374
0.000338115347292
0.000354377602181
0.000482637564691
0.000504468633881
0.0583350896727
0.0594592764003
0.0594399023022
0.000373528462003
0.000374856991284
0.000512171712571
0.00057761132382
0.0590042469097
0.0597134865378
0.0600583005847
0.000379900335767
0.000499126883078
0.000576686527132
0.000562904201629
0.06041436647
0.0602305744156
0.0612471373521
0.00073319904602
0.000751053523028
0.000686617769181
0.000565097149011
0.0623496204539
0.0625280075338
0.0632258948877
0.000282112388311
0.000189631820921
0.000271656583831
0.000205805685781
0.064221216245
0.0639784263403
0.0655587102351
0.000156008368223
0.000155845072167
0.000173096432986
0.000172154039468
0.0685958603718
0.0659232380722
0.0688963638458
0.000277236769729
0.00110684436724
0.000292252605389
0.0011897339376
0.0599347716045
0.0599963075259
0.000553788069972
0.000529609298348
0.000609436258194
0.000554626662176
0.0600285451333
0.0602551976072
0.0600467402341
0.000469467858521
0.000666394913025
0.000455422445505
0.000617305357627
0.060682314345
0.0598347692479
0.0613028767533
0.00120118344245
0.000618720617459
0.00106074253548
0.000487758580344
0.0626156338265
0.0625684722499
0.0634973204077
0.000331140022334
0.00031036203492
0.00027781344165
0.000284815795445
0.0642383555539
0.0644298264982
0.0653528006792
0.000290452021483
0.000285094878751
0.000306759417166
0.000337006093096
0.0666534315711
0.0660324130308
0.0673193494167
0.000258395024435
0.000241581718556
0.000303231899692
0.000307065953523
0.0688863491506
0.0667081946435
0.0688955693578
0.000345918485428
0.00117566557869
0.000422255767323
0.00116805423302
0.0639216265185
0.00027585562251
0.0659586349724
0.00029185867028
0.000328180911804
0.000273282474537
0.000269067722237
0.0675593779807
0.000312260868649
0.000321995016008
0.000242591076066
0.000257228625358
0.0685324579762
0.000464041693827
0.00122341230493
0.000412468492984
0.00129432124992
0.998921779675
0.998959373226
0.879150734154
0.879040852385
0.998956429297
0.880494330146
0.9988981135
0.998884939971
0.998852092243
0.878190145388
0.88034361907
0.998897588884
0.998835161241
0.879518995936
0.999133350704
0.999097560399
0.879440062027
0.879045275947
0.999024680305
0.879520905076
0.999238070529
0.999230098971
0.999304464723
0.879814405117
0.880419772637
0.999266771881
0.87980657103
0.999300839459
0.999062453329
0.998904447404
0.878277450692
0.878536284351
0.998953035129
0.998994107703
0.878837377662
0.999181794814
0.999180756389
0.879919614145
0.878806803764
0.999245613894
0.999103572922
0.879215856688
0.999269327738
0.999305771507
0.879927478484
0.880186615547
0.999276400553
0.87976640224
0.999309509886
0.999243574142
0.999235699599
0.877306918861
0.874035882495
0.999176671691
0.877156846519
0.999294645836
0.999253227264
0.999200242839
0.879804468622
0.878337698766
0.999255612124
0.999198510413
0.879434406162
0.999234272422
0.999146547066
0.873709917428
0.875906321358
0.999179871571
0.999188406736
0.876995558358
0.998879893947
0.999116402145
0.863531672208
0.869378510859
0.999053509546
0.863019862585
0.998906579936
0.998717823644
0.998458946119
0.857091497111
0.851384057751
0.998544255219
0.857043673013
0.998687916004
0.998937981672
0.999070474578
0.869728227638
0.864819305343
0.999070138256
0.998981043001
0.864304279246
0.998834740001
0.998829028682
0.854447879606
0.86033074387
0.998744606032
0.998904749587
0.85935884297
0.99824216587
0.998210533983
0.839863981461
0.847354167374
0.998389026209
0.843885732286
0.998017220717
0.998075888063
0.997631487067
0.838343793045
0.841391375283
0.997895920692
0.842854299406
0.997801698042
0.998500124351
0.998733836137
0.851483240358
0.852189840912
0.998627353771
0.998620560354
0.848083201451
0.998342994389
0.998300998686
0.846363822105
0.851685814332
0.998142640386
0.998475664912
0.847301520718
0.997408699312
0.997380234351
0.834823782379
0.839440416262
0.99766969497
0.839485819384
0.99718085703
0.997316571404
0.997192470805
0.835870098798
0.841129817451
0.997334689422
0.840033464434
0.99715838265
0.997572902666
0.99806884472
0.84511454638
0.849387406948
0.99789019348
0.997763428401
0.843619154018
0.997436970038
0.997502706659
0.844035252822
0.848683270345
0.997439855245
0.997529692889
0.84359138048
0.997539410777
0.997291683621
0.841417697988
0.84213885142
0.997393183638
0.843850793304
0.997470312911
0.997721025683
0.997934881905
0.843143161485
0.846172070924
0.997963391384
0.844862639438
0.997686970806
0.997602987487
0.997523759173
0.844478272879
0.848887831695
0.997484129576
0.997615965955
0.845240718638
0.997785821722
0.998055068185
0.845498321588
0.848474789081
0.998061013301
0.997784479168
0.845396018907
0.998172061987
0.998139378679
0.843111529002
0.844497755642
0.998164294328
0.841845038689
0.998200281574
0.998028597622
0.997897972604
0.839716725124
0.832966614452
0.997825361154
0.837807211568
0.99807668606
0.998106173058
0.998053806862
0.844137168245
0.841562186558
0.998111960315
0.998007718655
0.841853994627
0.99794221847
0.997599412417
0.832466979414
0.836883151525
0.997741855361
0.997792795774
0.837645141634
0.996370957935
0.99742216254
0.838126600559
0.837189215441
0.99736384117
0.835691778316
0.996200847448
0.993388280955
0.990476469583
0.818779820189
0.828230141446
0.820025678871
0.992071427816
0.99110464449
0.996451700864
0.997292083139
0.837357812271
0.833331092513
0.997368230986
0.996545616853
0.8338871496
0.993662181486
0.995228854295
0.827801960714
0.802527273337
0.994449576633
0.799078864447
0.994357846022
0.998947005348
0.998959412808
0.890134177776
0.890280153506
0.998897499818
0.889091038116
0.999004049458
0.998840847122
0.99874988718
0.888596656619
0.88535373916
0.998826964921
0.99871343276
0.887509978239
0.998844258242
0.99885844167
0.889405694256
0.887215964344
0.998769181745
0.888081805073
0.998910453114
0.998726469554
0.998539270401
0.884815003602
0.88560927631
0.998600773197
0.998652183109
0.886511229043
0.998619707072
0.998685632167
0.882377457841
0.883426603905
0.998670328591
0.998642253221
0.88179653279
0.998616877857
0.998693828078
0.880633535753
0.878631327734
0.998673122139
0.998632477054
0.880188804254
0.998539127436
0.998509541667
0.882944592457
0.880419762203
0.998555928992
0.998509047916
0.881365814149
0.998542627798
0.998543573443
0.878035999589
0.878352406859
0.998555850162
0.998519206915
0.879730710442
0.998758983341
0.998742758997
0.878040931953
0.877673612505
0.998820821315
0.998680932236
0.877093476494
0.998837411533
0.998995646023
0.878250696017
0.876855579842
0.998920319389
0.998891885939
0.876835006956
0.998652900565
0.99858899097
0.876960662916
0.873389662922
0.998588409117
0.998660423516
0.876103968444
0.998731083913
0.998801697108
0.875839007931
0.873624546009
0.998802605134
0.998750670202
0.876051028789
0.998927569371
0.999016016429
0.878001353446
0.876683507955
0.999018302731
0.998928534742
0.876325225331
0.99891918718
0.998955003701
0.876783763499
0.874005099443
0.999006469518
0.998895808267
0.875322759379
0.998837821209
0.998829793994
0.875585726123
0.873202547962
0.998837332301
0.998835062804
0.875300694985
0.998832881433
0.998794867121
0.873919972787
0.872331656573
0.998810376401
0.998831506309
0.874716848381
0.998747615194
0.998870580859
0.86540784944
0.870636477559
0.998764144474
0.998831846153
0.866709872786
0.998643565403
0.998568454978
0.861372883235
0.859595359557
0.998650884359
0.998542834742
0.863234918608
0.998647952253
0.998723586825
0.871404113093
0.868206327629
0.998744160864
0.998629838777
0.868444326275
0.998523229034
0.998412276363
0.862390807689
0.866593290125
0.998405232643
0.998519606453
0.865788217843
0.998299656135
0.998470190894
0.857645593834
0.859785287002
0.998334616673
0.998438984124
0.859875695465
0.998115760993
0.997920924848
0.857335098865
0.85905376578
0.99815518259
0.997889852205
0.859622550128
0.998170542626
0.998293608079
0.862740643935
0.863943569478
0.998294012341
0.998183633382
0.862720467288
0.998043461349
0.997913389493
0.861414044968
0.86329363103
0.997894229945
0.998062111476
0.86214252675
0.997299278279
0.997644639127
0.852966263327
0.85816919028
0.997295799831
0.99760602752
0.857170963027
0.997137952812
0.997110474949
0.851858060448
0.855890998877
0.997100693109
0.99713317672
0.856271776077
0.997550317144
0.997753199985
0.860495428129
0.861725919332
0.99771145981
0.997677461038
0.8593955624
0.997513429216
0.997664376975
0.857764205566