/*--------------------------------*- C++ -*----------------------------------*\
| =========                 |                                                 |
| \\      /  F ield         | OpenFOAM: The Open Source CFD Toolbox           |
|  \\    /   O peration     | Version:  v1906                                 |
|   \\  /    A nd           | Web:      www.OpenFOAM.com                      |
|    \\/     M anipulation  |                                                 |
\*---------------------------------------------------------------------------*/
FoamFile
{
    version     2.0;
    format      ascii;
    class       surfaceScalarField;
    location    "7";
    object      alphaPhi0.water;
}
// * * * * * * * * * * * * * * * * * * * * * * * * * * * * * * * * * * * * * //

dimensions      [0 3 -1 0 0 0 0];
oriented        oriented;


internalField   nonuniform List<scalar> 
92311
(
0.203619458024
-0.000368457882293
-0.000705268554011
-0.203192584579
0.000646967178939
-0.000220368450866
0.20379453039
-0.000236851257696
0.000282179470482
0.203754376508
-0.000837643274192
-0.000688348382276
-0.203265542998
0.000668791855329
-0.000448154291291
0.203908857259
-0.000276331511476
0.000349672569529
0.204309891543
-0.000463146888015
-0.000421658215684
-0.00062070727307
-0.203474963196
0.000734786378523
-0.000502938824085
-0.000399007777193
-0.000243361236431
-9.21155611965e-05
-2.41672832192e-05
0.204187746255
-0.000318486767461
0.000536647704198
-0.000184571915628
0.0511759745227
-0.000174811649883
-0.000190645466522
-0.000184410029689
-0.000181160336533
-0.00014494784082
-0.0509142612679
0.000151115180588
-0.0512738814814
0.0512786127757
-5.26098012978e-05
-8.98960868961e-05
-9.4867840015e-05
-5.26164965034e-05
-0.000107125337056
0.000149054033526
2.42424377763e-05
-0.000220900651855
2.59747618313e-05
2.82578855294e-05
3.11884761711e-05
-0.00020803589353
-2.26465639908e-05
8.71646364193e-06
0.000153004803529
-0.000614941276834
0.000123973558692
1.94344334606e-06
0.000591979368922
-9.19392486254e-06
-1.5026614863e-05
1.45965220645e-06
4.94809435485e-07
-0.000169972063661
1.25315412839e-24
-2.80332495539e-06
-3.27373617342e-06
-4.32234063057e-06
-2.18503105346e-06
-6.18156729794e-07
-5.77014140364e-08
-4.16818626264e-06
-0.0001540613474
-0.000125462422081
-0.000130056385448
-0.0001473249639
-0.000111682095557
0.000149143964918
0.000217721252734
0.0109482447156
9.14386569555e-06
-2.24443962447e-05
-0.0110330249596
0.0107257851032
-2.21511717573e-05
0.000144805191783
-0.0107808563156
2.16624433134e-05
-2.2971875498e-05
0.000118085382471
1.36025349464e-05
0.051164544577
1.16366203987e-05
-2.9762851628e-05
-3.33286468049e-05
-5.83585902008e-05
2.51561242006e-05
0.0511054130398
3.54286062838e-05
-4.35546423444e-06
7.52359004229e-06
-0.0512525723
0.000177237797335
-1.51730101883e-05
0.000100378502087
0.0106896003972
3.23807157959e-05
-2.66683299945e-05
4.17423821474e-05
0.0127627716385
-3.23901750643e-05
3.13221953867e-05
-0.0127904258271
0.0127503614076
6.83616800554e-05
2.87560274728e-05
-0.0127811702978
-0.000405926552859
0.203602300437
-0.00146043465349
0.00121873515615
-0.202954534039
0.203742927732
-7.65562318014e-05
0.000271626816528
-0.000143607419688
-6.94037973841e-05
0.20364735378
0.000549590877093
-0.000384953140152
-0.000815028431182
0.203603070262
-0.00143303676773
0.00119268071113
-0.202953492972
0.20377550634
-4.67367772801e-05
0.000190617823393
-8.71019031353e-05
-9.36899474683e-05
0.203645825571
0.000472188109357
-0.000318045514471
-0.000331635000544
-0.000441509208824
-0.000441511909499
-0.0013832106405
0.203745538391
0.00112163814941
-0.202758835476
-0.000325538442201
4.6328905331e-06
8.69540752178e-06
4.1791546227e-05
5.20987321125e-05
0.203814325805
0.000194331485293
2.5317404614e-05
0.0507799012884
-0.000129819564024
-0.000102880984019
-0.000124808877737
-0.000109549416697
-0.000315964581709
-0.0505816023688
0.000253168992278
0.0510222758921
6.78348146552e-05
1.56183992816e-05
1.39969493956e-05
2.32685894766e-05
2.44368225896e-05
1.6529986365e-06
0.000108748587482
1.82829732513e-06
-0.00051131275916
-2.27820549499e-05
-3.41832468349e-05
-2.56642512738e-05
-3.65748334641e-05
-0.000242438792694
-2.00697265013e-06
-1.1822384336e-06
-1.63446998464e-06
-3.72568628339e-07
2.62540539294e-06
3.08541445342e-07
-1.55454742043e-07
-1.44294595429e-06
0
0
0
0
-4.71648765041e-29
0
-3.08794880774e-25
0.000187219338247
-0.000137276055015
-0.000150633154726
-0.000131535128192
-0.00015703170151
0.0509751966234
-0.000247458184532
-0.000147225831734
-0.000172650870492
-0.000141148602934
-0.000163452369653
0.050934024931
0.000157152515219
-0.0507209167253
-9.46624988142e-06
0.000117946010786
0.011333267996
0.000125453518184
-0.000148412157865
-0.0113836273963
-1.60565328488e-05
0.000163873086605
-0.0111993420159
0.000104362484574
-0.000120885693086
0.0111252729176
-0.000171591562164
0.0126757191385
-3.35067229056e-05
2.82014353926e-05
-0.0126452106948
-5.48189701273e-06
1.00210745187e-05
7.85106267802e-06
1.39382954538e-05
2.6898241081e-06
0.0509236943967
7.82457293293e-05
0.0509616770532
2.06230138375e-05
3.37612483277e-05
2.82617609389e-05
2.50454880119e-05
0.000145639445323
2.05573286733e-05
1.63919883588e-05
1.02474698745e-05
2.43897281814e-06
0.0508780134662
8.08173296329e-05
3.28759938506e-05
-2.13675975687e-05
3.38050956477e-05
0.0127328457852
2.34720115154e-05
-7.38761174518e-06
-0.0107280750945
2.87523864244e-05
0.0107314336673
-1.96609613473e-05
6.2738510102e-05
2.23714327885e-05
0.0127186144758
-0.0126846084585
2.7307935223e-05
0.0126646486208
-4.3921871615e-05
5.77108936266e-05
-0.000455136223465
2.40113776175e-05
2.61850850284e-05
2.83674645303e-05
-6.81560729019e-05
7.27737672991e-05
6.55085510752e-06
1.78953026579e-06
-2.58731812622e-05
-4.78907497531e-05
-3.61044954768e-05
-1.93401383366e-05
-0.000588223954812
-1.3604768085e-05
0.000676633425825
-5.17480486526e-07
-4.33989756531e-06
6.3435285915e-06
-2.16486969193e-06
5.71095934957e-06
-6.42772153073e-06
-3.45294583653e-06
3.63170195167e-06
1.04199295591e-05
1.71582779646e-05
9.2018921042e-06
-5.48761044283e-05
6.48329929042e-05
-4.46858677163e-06
-4.83148573806e-07
2.36105009064e-08
1.80847040097e-05
0.0127583140104
-2.20538795332e-05
-0.012709585291
-0.0127634532299
-0.00023002075452
-2.63284689572e-05
0.0127988975865
3.25364634837e-05
1.33117585242e-05
0.00021364878192
0.0108610745142
-2.27226169616e-05
0.000236080567807
0.0109065792401
-0.0110023813908
2.77525255763e-06
-0.0127126400983
2.11668509173e-05
0.0108047373193
1.29446303235e-05
0.012792620539
-2.60808681674e-05
0.0128377381255
-0.000198177211034
-3.3636306638e-05
4.11844741701e-05
4.25003370347e-05
-0.0128300568562
0.0128451181552
-3.63605588662e-05
1.83440555593e-05
0.000187028745762
-2.24031515866e-05
0.000145565508435
-0.0107192244627
0.0106726330074
3.22404653102e-05
0.0128463162001
5.15313079289e-05
2.45052596755e-05
-2.92760487658e-05
-0.0128427129396
-3.17135236781e-05
-4.75539720692e-05
0.0128163501153
5.378216981e-05
4.8702441311e-05
0.012846960767
-3.85064185782e-05
4.0433210878e-05
4.04157940233e-05
0.0106969552649
-2.91510779201e-05
9.93127365961e-05
0.0106436982753
4.7651340001e-05
5.86536904631e-05
0.0106495879
5.43539811726e-05
0.0128258428267
-3.77116010388e-05
2.17533689281e-05
-0.0127995488855
0.0127751687999
-1.87370881165e-05
4.2521192041e-05
-0.0106934709815
0.0107048637149
-2.69339393237e-05
-0.0106523398769
5.79098910674e-05
0.0106724107629
-1.16509540723e-05
-4.10636759177e-05
4.85974230418e-05
4.08867010018e-05
1.74329863324e-05
-2.60114380564e-05
5.7541583396e-05
-3.05687470441e-05
5.93718281415e-05
-0.0127756618026
0.0127402072094
7.99630945285e-05
5.81639675814e-05
-0.0106275980271
0.0106581745197
-0.0105619051548
0.0106075365261
5.64919275412e-05
7.11830167933e-05
-1.48756988895e-06
-0.0128072314635
-2.08607053266e-05
-6.00226182373e-05
-0.0105517029556
6.10531861915e-05
-0.0128019693768
8.4071135113e-05
-0.0106172803644
7.26101401245e-06
-0.000308986370284
1.53304144211e-05
1.96310453669e-05
1.70281331116e-05
1.45308479009e-05
3.48296398815e-06
-0.000207519292919
0.000263611975542
-5.42353940117e-06
3.8779334146e-06
4.1935473303e-06
-3.79850852614e-06
0.000205721400124
5.90134067315e-06
1.23324547659e-05
8.90358309064e-06
1.18185302462e-05
-0.000232062906809
0.000296842834871
-0.000466673941065
6.05466149174e-06
1.35914231861e-05
1.60259359619e-05
1.40800399238e-05
-0.000103117605383
-0.000219192274447
1.76306009532e-06
-2.44790860726e-06
-2.20472186994e-06
3.03851794333e-06
-4.2341877533e-06
-2.77462742847e-07
4.44203765528e-07
-0.000368667727489
-4.00257733223e-05
-5.84100909826e-05
-6.30884170821e-05
-3.74650832527e-05
-0.000107525639327
4.00765456309e-07
-9.44335859157e-07
8.92183156792e-07
-1.83882355189e-06
1.32766971708e-06
3.36308010814e-07
1.46914847804e-05
-6.68633857066e-05
-5.96321114308e-05
-3.1004808552e-05
-3.74836854084e-05
-0.000148820762005
-0.000228999732835
4.68555797007e-07
-1.7876455651e-07
5.04223251091e-07
3.63933828598e-06
-3.01221823624e-05
-2.47860660362e-05
-3.5581888659e-05
-0.000379729447447
-0.000186590841834
1.70278714214e-07
1.33968416667e-06
-6.37922169312e-05
-0.0126321833985
-0.000151271250688
0.0126638192248
5.42704688836e-05
0.0126422860283
7.18448023217e-05
-8.0518083977e-05
-0.0126181333684
0.000144358244466
0.000122862221532
0.0112621633671
-0.000141699744387
0.000122098206022
0.0113085006139
-0.01135680442
9.27965487909e-05
0.0126739940581
-7.5270465886e-05
-0.0126098602689
6.26555007083e-05
0.0112491432438
9.14035338041e-05
-5.4103146118e-05
0.0126928960353
-0.000155801981505
4.43207054754e-05
-0.0127016691142
4.53753868502e-05
-5.86180276908e-05
0.012728935079
0.000144776287306
0.00011023828946
-0.000129907753468
0.000174970383927
-0.0111927625155
7.78013027364e-05
0.0111159306974
-6.77578930335e-05
3.53942531046e-05
0.0127216652904
8.38762623844e-05
0.0111586561381
-5.59624318053e-05
2.62688904208e-05
-0.0112282854294
0.000202643456112
-5.10275048802e-05
0.0110695528992
2.48899212275e-05
-2.61564650676e-05
0.0127096373517
2.326770824e-05
0.0126848226752
-0.000160101402478
-0.0126542069419
0.00018532004336
-0.0111815711435
0.0111017342615
0.0127169441023
-0.0112360154989
2.82523485495e-05
0.0127458277403
-6.64718084145e-06
4.40568465459e-05
0.0107099056469
-2.78059741949e-05
0.0106761937706
5.4868603548e-05
-6.92891240251e-06
3.96078554686e-05
0.0127038724394
1.9426632292e-05
-3.95451891912e-05
4.35958754301e-05
0.01072358382
-2.62796349084e-05
0.0127155176176
8.14225075502e-06
0.0106899246318
5.13881719945e-05
2.57703150899e-06
0.0126823682569
1.85980149e-05
1.05627355915e-05
-0.012690011614
-9.00805523411e-06
0.0126781380487
2.22519690951e-05
-2.50908183167e-05
3.75160165787e-05
-2.55001861597e-05
-9.60377463457e-07
-0.0106952299625
3.11155476109e-05
0.010701737187
1.71621200841e-05
3.02214037591e-06
0.0126728948574
4.15436096964e-05
-0.0127101898068
4.68653220012e-05
-5.03794386094e-05
6.34042058753e-05
4.56949891621e-05
7.57585634598e-05
4.94206337592e-05
0.0106676286548
0.0106331391335
4.18735727006e-05
-4.41223824465e-05
0.010658217028
2.62016560288e-05
2.18755448504e-05
0.0126908276834
0.0106808452235
0.0106611595061
-2.72958844523e-05
4.22530140706e-06
-1.23991409549e-05
-1.16554273066e-05
0.0106639170229
-1.52336154899e-05
-3.39456207956e-05
0.0126568678302
4.65639145743e-05
0.0126695291376
-1.50863336326e-06
1.98019471279e-05
-0.0106848138017
0.0106869965392
0.012661914897
-6.84441114958e-05
-3.05838004766e-05
-6.78276946737e-05
0.000541480701143
0.2037171216
-0.000114584842424
-0.00025640830406
-3.35982547895e-05
-3.67051740379e-05
-2.01049495171e-05
-3.50131174536e-05
-2.48961688435e-05
0.000115946851347
0.0508897353788
1.19694135894e-06
-8.52722796319e-05
6.99388500007e-06
4.54929305577e-06
1.0007920048e-06
2.57054774073e-06
-0.000152799073756
-0.000307055123185
0
3.56864058668e-10
4.15339391724e-10
0
6.21332325994e-29
0
-7.72203450392e-10
-0.00015420697351
-0.000155266552944
-0.000146306213587
-0.000165768807169
0.00039761815894
-0.000164036707471
0.0511771974559
-2.11500470374e-05
0.000198714605445
-4.3521890873e-05
0.0109944427365
0.0508339513074
-3.16759736306e-05
-4.97650807694e-06
-2.07852094369e-05
-1.56149267672e-05
5.32234692065e-05
0.0508511374479
-4.02096670993e-05
-4.034331972e-05
-5.15644703454e-05
-2.50340023983e-05
7.33233208802e-05
-9.19085909051e-07
2.08225579994e-05
0.0107374866543
1.47233507397e-05
-9.64380810875e-06
2.48988460424e-05
8.34221394875e-06
7.35345157325e-06
0.0106767673016
-3.09945147208e-05
0.0106466956805
-4.77201472679e-06
6.22540444532e-05
4.98054019462e-05
-0.010665286139
-6.24157797564e-05
0.0508807555262
-6.56100068718e-05
-4.97146867143e-05
-5.70902712098e-05
-6.34132723977e-05
0.000144064175502
0.000134417532666
-7.20741754378e-05
-6.34886058913e-05
-6.57266918258e-05
-6.46792523719e-05
-6.24156320584e-05
0.00021255250362
0.000205860812544
0.0508819646892
-0.000163254565767
-1.19389264506e-05
6.92408423362e-05
6.00075898852e-05
0.0106257240942
-6.65998671479e-05
-1.40369225982e-05
7.56607903687e-05
7.22070586603e-05
-0.0105818246993
0.0105639213794
-7.62634281196e-05
1.66169784319e-05
2.27813302055e-05
1.89187843557e-05
-0.000228346965271
-0.000223560808204
7.0502739668e-06
-3.71600192815e-05
3.21198829309e-06
-1.0548519957e-06
-1.78752818892e-05
8.07019425393e-07
-0.000270020772964
4.39061465293e-06
-1.49688936463e-05
6.46400434268e-06
1.75790399973e-06
4.03597976394e-06
0.000102717923627
-0.000234303099607
-2.58079318317e-07
1.76332756731e-06
7.82963726485e-07
2.43828235307e-07
3.89912638261e-07
3.83640350012e-07
3.47077272006e-07
2.56428354473e-07
-7.35457542455e-05
1.27711512095e-05
1.46801312251e-05
1.43725242257e-05
7.19447308308e-05
3.58071669713e-06
-0.000115702995245
1.33952460499e-05
1.60718220384e-05
1.49966265819e-05
-1.28373331816e-05
4.44718893083e-06
-0.00019315517738
1.02377050291e-05
-0.0127535530156
-0.000180924443309
2.21732690851e-05
-2.58742298171e-05
0.0127851588496
-2.22295433502e-05
0.0127545517164
0.000173929717852
0.0110217250694
-6.80251969548e-05
-4.03955668715e-05
0.00020049295013
0.0109125009701
-3.00857102395e-05
-6.09224917633e-05
0.0109369428184
0.0127868116635
1.43790953038e-05
-0.0126642288614
-4.65373165554e-05
-6.8281149188e-06
0.0126687079835
0.0126682751671
-1.36556147631e-05
2.58392657139e-05
5.23506663692e-05
2.39516365986e-06
2.56885938542e-06
0.0107179164823
2.35663439939e-05
0.0107111625381
1.43069843276e-05
2.69454377664e-05
0.0126751481471
-4.71172344825e-06
5.36810760732e-07
0.0106939405964
-0.012654921474
-5.68363218777e-05
1.83770705905e-05
0.0126571554028
-2.34687879383e-05
0.0126500139269
3.4966506765e-05
4.01312467289e-05
0.0106922643208
2.08101757058e-05
2.71086188048e-05
0.0106666696127
-4.11268816622e-05
0.0106753710167
0.0126510905395
3.02277068333e-05
0.0126602642785
-6.29883070407e-05
5.47986100223e-06
1.64435906849e-05
4.6071689426e-06
-0.0126495742072
0.0126605643665
7.84535807236e-06
8.10517343563e-05
-0.0106647861808
0.0106451624374
3.16836001495e-05
3.77800072973e-05
3.44608354801e-05
-5.40084615868e-05
0.0126730426501
2.35793309139e-05
1.55262221013e-05
1.77059420161e-05
-0.0126821976266
-8.74920088851e-05
-3.05146584165e-05
0.0126904050546
4.56182326789e-05
1.94673088575e-05
0.0126688034435
-6.56278646149e-06
8.1548304113e-05
0.0106285679394
4.75957748024e-05
6.32402316374e-05
8.15236035903e-05
0.0106011801848
-6.79364636296e-05
3.64613859839e-05
0.0106076528878
5.21833601293e-05
0.0126770249432
-1.92376192499e-05
0.0126971711615
-8.25068644194e-05
-3.86939634008e-05
5.1874275033e-05
5.20620101464e-05
-0.0126865733154
0.0126869893898
-4.22145655488e-05
7.43525725446e-05
-0.0105889229029
6.57202619198e-05
0.0105672564422
7.10766162946e-05
8.089038027e-05
-7.43392663717e-05
6.31939155801e-05
0.0126960167405
6.12470710164e-05
-2.88609582706e-05
-0.000684764651669
-0.0493542566796
0.0492959868982
0.000862673602802
7.22249357634e-06
-1.14755062754e-05
-4.24058928841e-07
-7.66422918083e-06
-0.000107155996718
-0.000862391547063
0.0498273587851
4.02299466451e-05
2.45166832118e-05
3.17745064841e-05
3.16435250983e-05
-5.77318071007e-05
-0.0497674754034
0.000732154749006
-0.00122682637086
-0.0499468713601
0.0500389343869
0.000970718286424
5.75044503875e-05
4.85115686241e-05
5.43078538468e-05
5.0863856514e-05
-4.71258352914e-05
-0.000743441587478
3.6149238792e-05
3.5994088153e-05
4.10708119531e-05
3.11401855104e-05
-1.14466078288e-05
0.0501873528462
0.000541415082253
-0.0501181774352
-1.04443848323e-05
0.000100350034288
-0.000511659348221
0.000596274235475
-0.000111047010668
-4.81362703075e-07
-8.08790334464e-06
-2.18637655623e-05
-3.05433109465e-05
1.64008770945e-06
-0.000694027674549
0.00074862517471
-0.00018632094645
-3.34336424058e-07
2.60137338097e-06
-1.22020089688e-05
8.43261507281e-07
0.000170391961222
-4.24467360049e-05
5.77254033149e-05
0.00062035623023
-6.10348540165e-07
-4.72582451617e-05
-4.07041699293e-05
-5.13860089364e-05
-0.000484910004207
2.79084659914e-05
-6.52309593309e-05
6.64924884414e-05
-0.000778980152464
0.00095146226275
8.8304775165e-05
-4.76343429742e-07
-6.71923787033e-05
-5.5306327996e-05
-5.76396497656e-05
-4.34441121202e-05
-0.000194030539148
-4.92982258337e-05
-4.02379546953e-05
-4.66481446693e-05
0.000839836149897
0.000283894384713
-5.03272602262e-07
-0.000706205061049
1.43004881741e-07
2.04949757505e-09
1.43351085151e-08
6.94456396045e-08
1.83570834096e-08
2.50321038733e-07
1.63534829158e-09
-1.73593717276e-07
-2.56806713484e-07
-4.84582988744e-07
-9.28923797486e-07
-4.936422558e-07
-9.14627152615e-07
4.51450814907e-07
-5.95904025518e-08
0
-8.36557498627e-29
0
0
8.1053111306e-10
1.23896646199e-09
1.11125976585e-26
-4.92811597225e-08
-9.31972555661e-08
-2.84449976098e-07
1.99350579812e-07
9.02019848296e-08
4.07302769414e-07
0
0
1.37173625689e-09
1.05358887586e-09
-2.42532513275e-09
-7.46349771788e-29
0
8.97167450022e-08
9.63920606293e-08
4.49664916047e-08
7.95338958678e-08
2.82172456331e-07
-5.08460728345e-08
0.000262215926791
-1.8373116089e-05
-1.47791277058e-05
-9.99872853606e-06
-1.98264260826e-05
0.0490137093259
3.66957663807e-05
-3.40040011252e-05
-0.0492156525967
0.0490463787231
0.000482775467083
-1.12393514279e-05
4.69431485665e-06
1.43893573099e-06
-8.48207588089e-06
1.26783509926e-05
-0.0492661551542
-1.64427340734e-06
2.61809181316e-05
-0.0115210501697
4.4361673605e-06
0.0114676606845
2.31219780496e-05
0.0114724521667
4.89264745388e-05
2.88583061256e-05
-3.78711048224e-08
-4.28588910621e-05
-0.0115261005756
2.09581584455e-05
1.09413893938e-05
1.60259033143e-05
2.24117555087e-05
-0.00038992941117
0.0122644414303
0.012212778614
0.0121702240389
0.0121586071646
-0.000124639383026
7.04732532006e-05
1.45812688123e-05
-1.46042886252e-06
-5.67613282833e-05
0.0114421064699
0.000638805579366
-8.69712088019e-06
-5.86057834913e-06
-1.27176899785e-05
-5.23818411936e-06
-5.25603044569e-05
-0.0494252788818
0.0495506437762
-1.22584250209e-06
1.89029655727e-05
8.00849159127e-07
1.35683084649e-05
-5.32419677261e-05
-0.0495655899907
0.000674998280528
0.0115190572923
1.04865136557e-05
2.30402220247e-05
-0.0115616848096
4.46879963348e-05
0.0115932720168
3.69856629898e-05
-2.05940575363e-05
-3.21397831857e-05
-0.0116208593785
2.99365021532e-05
0.00110805949329
1.34492081144e-05
1.17032726453e-05
1.86777387763e-06
2.63405790372e-05
0.0491754946806
-0.000231256744808
-0.000195969084338
-0.000223767951006
-0.000186871946399
-6.44140414363e-05
-4.42490454348e-05
-5.18269138401e-05
-4.22897276977e-05
0.0495436296812
8.74599360053e-06
1.88986024562e-05
1.52701232244e-07
2.80970907562e-05
-4.84128030907e-05
0.0496569763529
0.00104911855794
1.05537734139e-05
4.45822279067e-05
2.51980579859e-05
2.96524566497e-05
-0.000164085165845
2.74666164501e-05
0.0114856636997
6.49564082757e-05
0.0114278966253
-3.73471697345e-07
2.65409547534e-05
-0.0114413650465
0.000120319473024
-0.00012531237982
3.31565821707e-05
5.3844227095e-05
-2.32547183107e-05
-4.08849217406e-05
0.0115566412669
0.0114934661502
7.04638459349e-05
6.88928345633e-05
-5.53563869219e-05
-8.45786882629e-05
-0.0115071281898
0.0497929499143
2.23991288267e-05
4.04308951213e-05
1.7458947853e-05
4.67117622389e-05
-0.00131749280942
-0.000172044051309
0.00145383668586
2.55609569019e-05
4.51503093423e-05
4.59232808636e-05
1.85335193403e-05
0.0503015728745
-0.00032001040582
-0.00177734223887
3.44469647531e-05
0.0114218895041
0.000138806986679
-0.000147339317779
-5.69123166257e-06
3.38871212467e-05
-0.0114277557757
0.000194450499424
0.0114412187888
-0.000216264724282
8.48789429155e-05
7.00175536751e-05
-5.81129118865e-05
-0.000103445831391
0.0114814042023
0.000127472549955
3.41731748538e-05
-3.28163564198e-05
-0.000151054319149
-0.0114983019872
0.0115138258928
0.000852493127829
4.45239459606e-05
4.96440010591e-05
3.5164833323e-05
5.5293705958e-05
-0.000107427867801
0.0500632787502
3.9694897246e-05
4.26995039106e-05
4.55366822689e-05
3.76627180663e-05
-8.50717699309e-05
-0.0499649075207
0.000673691144121
-4.12934270614e-05
0.0115629087866
4.7662658544e-05
-0.0115939912741
0.0115048703741
6.296882989e-05
-7.46972909311e-05
-0.0115195903014
8.14368043893e-05
0.0115224267892
4.78274966945e-05
-6.4889562776e-05
-0.000119067830199
-0.0115366184549
0.000139147109542
0.00108694464154
5.47737055856e-05
4.70615212566e-05
4.9634731453e-05
5.66007071917e-05
0.050280761118
-8.29623966435e-05
0.0501547909288
5.57573334828e-05
4.25509015414e-05
4.66067680639e-05
5.02650888575e-05
-5.93374605943e-05
5.79282715523e-05
5.70907214045e-05
5.27388272253e-05
6.10473924516e-05
0.0502900890396
0.000793673127165
-7.07993323893e-05
-8.59770540698e-05
0.0114928700187
9.46424597791e-05
4.70373858679e-05
-6.97127930958e-05
-0.0115047902817
0.000122092011046
0.0115233859834
0.000148785468808
4.46260613358e-05
-6.80067868354e-05
-0.00013123734486
0.0115162837462
0.000171624421546
4.25024284441e-05
-8.86472195301e-05
-0.000152869315447
-0.0115163640615
0.0115307749879
-6.38437012953e-05
0.0115193639459
0.000164820103897
-0.0115264683549
-7.91488660311e-05
-0.0115183469301
0.0115278447294
4.21072848697e-05
0.000186950808649
-8.85473202949e-05
2.56477922418e-06
4.37340526028e-07
1.45910688843e-06
0.000630152752005
8.06130973649e-05
-0.000613340755152
4.89018630262e-07
0.000631410113879
-7.24191042881e-05
-2.02174167339e-05
-1.22666335614e-05
2.5863543412e-07
-0.000591171764827
-2.97371171007e-07
-1.29111742381e-06
-1.45321078556e-05
-1.52213913547e-05
-1.37474824231e-05
0.000139381556945
0.000686053297589
3.46535999627e-06
-6.14507761793e-07
6.93690318771e-07
4.63593882415e-07
-2.53928811813e-06
-2.5497030349e-07
4.07357429248e-06
2.40539820946e-07
-4.24171056099e-08
3.20002710036e-06
-5.31281186778e-07
-2.61033576882e-06
3.85782198451e-06
-3.14924905138e-07
9.9824220262e-07
3.04522283829e-06
1.11136590946e-07
3.29188823094e-07
-4.3799778212e-07
2.54007836189e-07
4.18497887275e-06
2.73480294579e-07
-1.41490643944e-06
4.40356223227e-06
-3.90245722088e-07
3.929300809e-07
-5.45860276202e-07
5.50578623241e-06
7.4399527111e-07
-0.000103003626661
-1.02066952596e-05
-8.42854199272e-06
-3.37532785795e-06
3.18871657372e-07
-0.000466604890266
0.00046473975388
-1.278251035e-05
-3.49751771763e-05
-1.05702628824e-05
-0.000384269515345
-5.03348882826e-07
-8.84416471367e-05
-0.000144567449087
-5.84394065557e-07
4.87646471444e-08
-3.26275431348e-05
-3.09452317993e-05
0.000142863895449
0.000604489147722
-6.92520420943e-07
-2.78632978614e-05
-6.13314501385e-05
-3.42217271086e-05
-5.52196815993e-07
0.000776595790833
-4.10961005704e-05
-5.16580655804e-05
-5.16781418103e-05
-3.51958184782e-05
1.57282099947e-06
-1.87467734654e-07
-1.80907076251e-06
-9.99806198324e-08
1.78207988242e-06
5.88710597381e-07
-6.51146836165e-08
-8.10134703339e-07
5.59734163289e-07
-3.52136584896e-08
-0.000170332742168
-2.93048826481e-07
4.55040355534e-06
4.56347014847e-06
3.90427184292e-06
0.000770832415691
0.000156764483793
0.000933284731697
-7.24647927993e-07
-3.95717980869e-05
-6.58336791695e-05
-3.5660928732e-05
-7.33914089727e-07
-8.25994688771e-05
1.64238377938e-06
-5.04506447826e-05
-7.80103537497e-06
0.000984465360169
2.47427514635e-06
-1.41799282874e-07
-2.60438480089e-07
4.11153880695e-06
7.60017260523e-07
-4.39688521037e-08
-5.05805056902e-08
1.08355744352e-06
7.56714947099e-05
-3.65990334531e-07
-4.45119486357e-05
-6.31728932453e-05
-4.96584986778e-05
-3.63380373153e-07
0.000742987351939
-5.40635088657e-05
-3.95167777388e-05
-5.11949075565e-05
-0.000610684760799
0.000172558671916
3.96039800054e-07
-5.38376966039e-07
-3.66370756885e-08
-2.27545728557e-08
3.54305818481e-07
4.11678681895e-07
-4.60207775185e-07
-2.12125607818e-08
6.81293067707e-05
-5.28127332492e-07
-5.37823171728e-05
-4.31510793213e-05
-5.51743668819e-05
0.00105873242792
0.000903331902688
-4.22574131691e-07
-4.97263588828e-05
-5.31439491823e-05
-6.04843418781e-05
-4.74596513036e-07
-5.05779801875e-05
-4.61449176432e-05
-5.39661209851e-05
0.00102862938518
0.000194205893448
4.05163216032e-07
-2.51356345402e-08
-2.25962176645e-08
5.41435920352e-07
4.14287655512e-07
-2.55951901239e-08
5.44394645177e-07
-3.39531680706e-08
0.0123740229136
-3.08021956121e-05
-4.74714811593e-05
6.89063934536e-05
-0.0123830719884
5.28268991532e-05
-0.0123670122082
0.0123440162026
-1.83962700226e-05
3.943080279e-06
4.26721176442e-05
1.60478254186e-05
-0.0115856408552
1.26635674129e-05
-0.0115127051745
3.10909796817e-05
0.0114554646596
7.96846478464e-05
0.0123498780991
2.23955589267e-05
-0.0115748107507
-1.59012508619e-05
-0.012375439569
0.012379397937
9.14040235847e-05
-2.25202842021e-05
-0.0123906302502
-0.000104076759762
-0.012391049758
0.0123773119081
0.000122422160411
4.88699332852e-06
-0.011521746731
0.0114600556518
1.49279637181e-05
-3.22668574683e-05
3.5435653166e-05
-0.0115838193165
0.0123613429833
0.000107401361592
-0.0124007106417
-0.0115742052771
-0.0123405135443
0.000136596592256
1.86150342359e-05
-0.000105484277565
0.0123117647177
-0.000114473340663
0.012360599845
0.000140770820807
-8.49631896743e-06
0.0114250019396
-3.52616891319e-05
-1.65930233419e-05
-6.65691028595e-05
8.5636040276e-05
0.0114243336639
-8.62350443399e-05
0.000164102969291
0.0123392103269
-4.10424653932e-05
0.0114035888642
-0.000130649005226
0.0124276512549
-2.86179978395e-05
0.000153538583925
-0.0124305234365
-0.0124085882937
0.000149904575328
0.0123985768534
2.9607083003e-05
3.12355800646e-05
-0.0116151999364
2.46808188722e-05
-0.0115913695545
3.60858798165e-05
0.0115547538367
-0.0124147432152
0.000175315712797
0.0124218750476
2.96324679879e-05
-0.0116309700915
0.012452031587
0.000168364640831
-1.3299090729e-05
-0.0124548507888
-0.000190144295068
-0.0124734596987
0.0124723293639
0.000189380319569
1.01559230027e-05
-0.0116125874244
0.0115803819491
-1.42135013876e-05
-3.05409687426e-05
-0.0116559281604
2.89654369218e-05
0.0124481484499
-0.0124753666466
0.000169297446659
-0.0116473516053
-0.000202010657109
-0.0124137424983
-5.83806123733e-06
0.0124052946806
0.000224037271826
0.0123830038423
0.000172829326467
2.29243905787e-05
8.23939995245e-05
0.0114592669394
2.41624536644e-05
0.0115134330814
5.08306459912e-05
0.0123680873803
0.000197788300329
0.011484305249
6.88012911701e-05
-0.000233166613452
0.0124004664023
-1.87221172856e-06
0.000253695792523
-0.0123542334611
0.000268125623585
0.0123486808179
-0.000224061537855
2.64133697201e-05
0.000101696084128
-0.00010685820996
-8.22062086293e-06
-0.0114614748381
0.000109191861791
0.0114441660997
-0.000190716409892
0.000289504761949
0.0123972146985
8.56526590709e-05
-0.01244396844
0.000238780887594
-1.81751216175e-06
0.0124398928851
-0.000213454710057
0.0124694537019
0.000211940502511
1.12690051754e-05
0.0115392848806
-3.29865460892e-05
-5.6489364301e-05
0.0115264708488
4.37635586249e-05
0.012469367032
0.000233987773818
0.011507345595
0.0124385515112
0.000265441999494
2.70853212256e-07
-0.000294981291969
-0.0124716449073
0.0124739930006
0.000281907037319
-2.05185719175e-05
-0.0114841597241
0.0114641068907
-3.47852655069e-05
-6.39474594528e-05
5.35565408058e-05
0.012437796401
0.000258273872042
-0.000338985907693
-0.0123960963222
-3.14438961831e-06
0.0124067313852
0.000360085594843
-2.8491615362e-05
0.0123493769959
0.000305211714424
-6.23828802141e-06
-0.000264872325425
3.19738741206e-05
0.000157543099707
0.0114258793817
-0.000170301612419
-1.73697133212e-06
0.0114401682337
0.000130230467962
0.012368291902
-1.78728276497e-05
-0.000307675598487
0.000325352278602
-2.0747260743e-05
0.0114506352721
0.00015300554921
-0.000368145860473
-2.55412802551e-05
0.0124622222694
0.00039135105207
-5.2754883741e-05
-0.0124376725796
0.000395440104918
0.0125234560117
-0.000382330936493
-6.48032858081e-05
4.18435708476e-05
0.000176467959627
-0.000193465674873
-0.0114509380043
2.59815209912e-05
0.000180705559923
0.0114605273021
-0.000343556246225
-5.18138650883e-05
0.000169222263519
0.000414512826849
0.0125318597042
-6.24712374398e-05
-0.0124384023765
0.000356797071276
1.36544250713e-05
0.0124504181988
-0.000326656695089
0.012474397236
0.000308479064604
-1.54808940383e-05
0.0114581290604
-6.38445276985e-05
-0.00011987581157
0.0114834724468
9.95226042447e-05
0.012480700561
0.000333107318087
0.0114650815321
0.000380386276863
3.65644508321e-06
0.0124832713876
-0.0125013880542
-0.000401486057103
0.000376362532061
0.0125387944049
-0.0114884392591
2.13107339238e-05
0.0115038300414
-4.85956965352e-05
-0.000139554385101
0.000112692915866
0.000356913135919
0.0125362394863
-0.000215924573914
-0.0125154511145
6.29124549185e-05
0.0125159808754
0.000192719316311
0.0124960038163
0.000198273158664
-0.0124990903064
-4.88956513681e-05
5.72338183765e-05
0.0115368939944
-5.32423519531e-05
0.011569845046
-0.0115915576969
6.93224442711e-05
0.0124970734595
-0.0125170388304
0.000178379024562
0.0115484103141
7.73372432109e-05
-0.00023648841929
0.0125190924257
6.89203904065e-05
0.000208944248471
-0.0125013085258
0.000252724665176
0.0125053721016
-5.28512172624e-05
6.71209573376e-05
-8.31294378967e-05
-0.0115289341292
0.000101980007819
0.0115102401662
0.000220933391049
0.0125229443174
8.98205003895e-05
0.0125317110444
0.000182288959815
6.3903947239e-05
-0.0125291624318
-0.000192972113822
-0.0125414826048