/*--------------------------------*- C++ -*----------------------------------*\
| =========                 |                                                 |
| \\      /  F ield         | OpenFOAM: The Open Source CFD Toolbox           |
|  \\    /   O peration     | Version:  v1906                                 |
|   \\  /    A nd           | Web:      www.OpenFOAM.com                      |
|    \\/     M anipulation  |                                                 |
\*---------------------------------------------------------------------------*/
FoamFile
{
    version     2.0;
    format      ascii;
    class       volScalarField;
    location    "7";
    object      alpha.water;
}
// * * * * * * * * * * * * * * * * * * * * * * * * * * * * * * * * * * * * * //

dimensions      [0 0 0 0 0 0 0];


internalField   nonuniform List<scalar> 
28582
(
0.999998844765
0.999998593395
0.999998913909
0.999998345515
1.00000099125
1.00000069892
1
0.999998116071
0.0435464036122
0.0494163860553
7.63894855747e-05
0.999998730836
0.897470296565
0.877709717537
0.999996935552
0.999999210405
0.873410235543
0.99879023787
0.99868670141
0.999999041337
0.999996785845
0.999993113174
0.999999041639
0.999996718733
0.999994292273
1.00000119303
1.0000017288
1.00000405723
0.999997683799
0.0510738520342
2.61402139684e-05
-1.41633805176e-23
1.0000023611
1.00000677032
0.924407281972
0.908095763669
0.999605434184
0.999997608611
0.99999917848
0.999999400703
0.998774969871
0.880766161151
0.998667198994
0.998771614459
0.0464286397335
0.0510317205157
0.000905111047402
0.000967705455584
0.0481557058961
0.00115333939859
0.999381106572
0.999206719874
0.890892562603
0.895036056356
0.999347081124
0.887319828347
0.999252484043
0.999060776122
0.9990126503
0.884110516279
0.87318868764
0.998932707043
0.879789523648
0.999118752305
0.998849364876
0.998919637677
0.870097486235
0.869494464186
0.998846005087
0.866853112516
0.998898898466
0.998868150779
0.872096652209
0.869869966877
0.998830637579
0.870864097344
0.868004859989
0.998891862997
0.998648491213
0.868767869495
0.865108014025
0.998723476936
0.861829064022
0.998636928631
0.866060825404
0.0390630565496
0.000556947784463
0.0352183721812
0.0381150468429
0.000345411183453
0.000494916696512
0.0518178568533
0.000286504793832
0.000403158495806
0.051770089227
0.000141431313011
0.0512663749762
0.000258103670582
0.999664429653
0.999755682973
0.919390761589
0.922971444535
0.999702883493
0.999713701278
0.918737061269
0.999599064899
0.99956296801
0.91379962674
0.908517355484
0.999644878295
0.999515092686
0.913888979863
0.912782358523
0.906639968926
0.999509089356
0.999603313682
0.908041709019
0.999516579954
0.913331197073
0.998837369478
0.873745265134
0.871874043696
0.998775231494
0.875723735015
0.998834477728
0.874128679035
0.998785551693
0.998888313753
0.877954903047
0.87994635223
0.998841996
0.998823401301
0.876736896365
0.998726331405
0.998678454352
0.871557006541
0.869087935042
0.87299227916
0.998671883334
0.874158748778
0.876270589818
0.879594595007
0.998821618139
0.998682280597
0.880272141943
0.998713305026
0.87689911685
1.00000187648
0.999998767227
0.0507154412363
1.68022884733e-27
1.00000253797
0.900254267281
1.00000179698
1.00000315705
0.883185456035
0.882347905596
0.885831447955
1.00000360828
1.00000044341
0.884234078035
0.874982794669
0.0418707981922
0.0511638901251
0.0510000752248
0.000249445797489
0.000143392116956
0.0001239775517
0.0512007917129
0.0517303934599
0.999314371615
0.999403667443
0.902046177431
0.894226072191
0.999426652584
0.895921221992
0.99927927967
0.998985139698
0.998962848965
0.884968617283
0.882613002584
0.999043589567
0.998893469467
0.884599758456
0.998874848863
0.998894594542
0.882846703684
0.884516036046
0.998783050352
0.88448921875
0.998971069248
0.998966345198
0.999071721697
0.885095191621
0.885431387755
0.999054270517
0.884851730217
0.999041025962
0.999076962936
0.999106139899
0.883722898875
0.881587488136
0.999088030782
0.881448502951
0.999091194509
0.999037219149
0.998959537063
0.875077222519
0.87819048441
0.998954154109
0.87839805299
0.999044406452
0.999998164014
0.999999474763
1.00000275495
1.00000194454
0.0302297010196
0.0306274995911
0.0281711992508
0.0293503188085
0.0283640238388
1.36237362119e-06
2.49471455213e-05
-5.99874998715e-26
8.24831411848e-06
-4.13590306276e-26
2.38295337598e-06
0.999999197023
0.999998213891
0.94049433236
0.939462423731
0.999999065804
0.938477597323
0.999998416141
1.00000107891
0.941313437799
0.943211985629
1.00000089494
1.00000113349
1.00000318686
0.940467548841
0.940650832676
0.942496928422
0.940838304525
1.00000484037
1.00000498511
0.940656011516
0.936360846728
0.940193718194
0.938951193193
1.00000215932
1.00000286824
0.942226433771
0.940635268566
0.939282367323
1.0000040955
1.0000046754
1.0000057004
0.939866372764
0.938286426099
0.938983570788
0.937867656202
0.938720023913
0.937706142605
0.0305734117138
0.0309446483788
0.0320063701278
0.000211212192192
0.000181757802703
0.000181966407437
0.000159041444325
0.000186863368415
0.000335460236766
0.000203384116702
0.000365705072306
0.0290998886485
0.0277710503048
0.0306307930901
0.0289078305074
0.029528512627
0.000101999228567
7.43930870548e-05
4.32149979701e-05
2.2947684063e-05
0.0304821696402
0.0300005524471
0.0295943479878
0.000101365142152
0.000190916525109
3.15349091048e-05
5.1702181548e-05
0.0287569141126
0.0284794186142
3.09612634054e-05
1.47413501111e-05
1.7285235574e-05
0.0291789878544
0.028665784854
0.028739136734
1.65755793705e-05
2.14309968227e-05
1.73246019026e-05
2.03493881624e-05
0.999779820839
0.999783943492
0.94249061706
0.939660609686
0.999799386941
0.941791587329
0.999788599975
0.99976802637
0.999772568596
0.939550417886
0.941444385445
0.999784721014
0.999770584543
0.941694156577
0.999782097569
0.999777587578
0.93799690434
0.938488065257
0.999781296273
0.999785007578
0.937950904939
0.999728988344
0.99973195517
0.942807354194
0.942693147263
0.999718648064
0.999726574164
0.943729077829
0.999806715535
0.999808135245
0.94322063335
0.94410888747
0.999794826578
0.999829769762
0.944193638535
0.999763792997
0.999751530837
0.94046740066
0.941740240269
0.999784309658
0.999734341488
0.941257492739
0.999801919427
0.999798936098
0.940489504692
0.940683100163
0.999789011422
0.999812540158
0.940848513437
0.999793797443
0.999800675166
0.942190095289
0.941845758294
0.999793032768
0.999802640636
0.941615847646
0.9998018962
0.999837386541
0.940482622699
0.941234518152
0.999818756831
0.999819992255
0.941079583502
0.999811984863
0.999809478292
0.940353894266
0.94061570306
0.999832717612
0.999810155739
0.940625646933
0.99982540885
0.999836301631
0.938876183988
0.937056306009
0.999832977608
0.939196393725
0.999839599202
0.999822492033
0.999838613046
0.939799280969
0.939523699659
0.99982543606
0.999831084783
0.939713448247
0.999822013955
0.99982033971
0.939099471625
0.939064403426
0.999823775794
0.939693734363
0.999819727585
0.999898536654
0.999858021716
0.941505051994
0.941796528702
0.999864125389
0.9998939137
0.941387238719
0.999896897255
0.999887240727
0.940996715727
0.940250484485
0.99988197733
0.999896667496
0.940836186575
0.999905888625
0.999884160424
0.939582611091
0.939562125563
0.999908162735
0.999881089252
0.939933080371
0.999872878543
0.999881800247
0.938948118168
0.939590055367
0.999868653039
0.999892315293
0.938926454366
0.999850281832
0.99981952165
0.938412140227
0.938104547824
0.999835768995
0.938389374529
0.999832179674
0.999893149753
0.99989069598
0.939267659904
0.938672019482
0.999905585482
0.999897985661
0.93888966049
0.999863586781
0.999879922211
0.937929817373
0.938248271523
0.999896231128
0.938291860839
0.999846880612
0.999881882897
0.999890130302
0.938456256854
0.938664776589
0.999903079426
0.999874401822
0.938344479483
0.999888608277
0.938060676686
0.999899624134
0.999998690777
0.999998142745
0.99999578691
0.999991853998
0.999992509462
0.99999105154
0.999998909002
0.999998491334
0.999996938754
0.999993408451
0.999994117267
0.99999417746
0.999990873898
0.999999257869
1.00000569176
1.00000410884
0.999999660711
0.999968501487
0.999896273399
0.999941660231
0.999995729219
0.999991818671
0.999991858767
0.999993540879
0.999984934732
0.99998010967
0.99998254597
0.999985838547
0.999999248613
0.999999297897
0.999998547388
0.999996382844
0.999990818391
0.99999116119
0.999993904909
0.999996486629
0.99999882125
0.999998365209
0.999997467707
0.999993642455
0.999990796111
0.9999932642
0.99999729863
0.999998480354
0.999990798368
0.999993146625
0.99999724404
0.999997391785
0.999972938
1.00001122569
1.00002396159
1.0000040901
0.999871099961
0.999756654225
0.999800549672
0.999949169346
0.999993299266
0.999996325563
1.00000666187
1.00000484493
0.999994413254
0.999933561335
0.999896374495
0.99995326846
0.999998715377
0.999999153062
0.999998754463
0.999998854928
0.999997157848
0.999991092534
0.999987282153
0.999991337328
0.999999511523
0.999999056411
0.999998578927
0.999997958474
0.999997655979
0.999997656164
0.999997846864
0.999998465036
0.999995925962
0.999996549269
0.999997963314
0.999999229592
0.999993584203
1.00000794753
1.00003892803
1.00001432594
0.999929095385
0.999821785635
0.999884280249
0.999977722316
0.999980996163
0.999996226783
1.00002360225
1.00002185592
1.00001013257
0.999994455374
0.999974514039
0.99998133065
1.0000025836
1.00000400603
1.00000492838
1.00000513964
1.00000378213
1.00000163285
1.0000001571
0.999999877678
1.00000087683
1.00000098235
1.00000059146
1.00000101661
1.00000142797
1.00000130163
1.00000093447
1.00000085479
1.00000109558
1.00000177097
1.00000196822
1.00000194517
1.00000182784
1.00000163022
1.00000174665
1.00000204826
1.00000157875
1.00000169202
1.00000279797
1.00003392266
1.00001801118
1.00003408676
1.00005024781
1.00002811548
0.999977987593
0.999946061657
0.999984747255
1.00000920247
1.0000110243
1.00001522603
1.00000374818
0.999998104112
0.999998075751
0.999994362043
0.999991178038
0.99999224516
1.00000493163
1.00000676682
1.00000636162
1.00000127328
0.999996637932
0.999997223617
0.999999939763
0.999999698151
0.999995704993
0.999996051043
1.00000529611
1.00000509149
1
0.999997704372
0.999998876868
1.00000004744
0.999999880421
0.999996957378
0.999996097387
1
0.999996491609
0.999997021793
0.999998851714
0.999999162367
0.999996000398
0.999996164628
0.999999986956
0.999996770288
0.999998399394
0.0316380608384
0.0376473304045
0.0463751559298
0.0534290995842
0.0586027469734
0.0530306732238
0.0507094862364
0.052132829352
0.0301638936583
0.0304541639797
0.0324056770015
0.0381104252381
0.0459228034785
0.0507806074379
0.0539890906832
0.0524467366271
0.0512701074504
0.0519393355956
0.0285806141919
0.028451979436
0.032386672522
0.0402976168848
0.0459986329768
0.0503505127955
0.0512289866359
0.0496031011678
0.0502878763297
0.0514110378362
0.0284978182244
0.0334644356083
0.0402550284287
0.0447175678613
0.0482986244575
0.0498840302915
0.0488562218477
0.0498685171702
0.0507640092935
0.0408716461234
0.0452217124361
0.0481830534311
0.0495577157938
0.0495443699304
0.0503855335939
0.0507652389356
0.0503690592197
0.0515566379402
0.0519795865098
2.43717846825e-05
3.55962949676e-06
1.62287988164e-06
2.16119340679e-05
9.14006032234e-05
3.31604840333e-05
-1.68258872874e-29
-2.96928414378e-28
-3.65969193535e-25
5.69759039019e-05
2.05353286886e-05
6.14833909064e-06
4.42636173561e-06
1.10143077321e-05
2.07655982399e-05
5.5830727783e-05
3.15000362265e-05
-7.13173732725e-27
-1.11348160299e-25
6.22592355282e-05
1.53463979361e-05
4.08104507837e-07
6.99233598892e-06
1.75795653976e-05
0
0
2.71951163029e-05
0
-2.36330944819e-27
3.93493169373e-05
1.68224901677e-07
6.38008932899e-06
3.30695092389e-06
1.74446875335e-07
-8.27180612554e-26
2.90784127783e-05
0
-2.35718358667e-26
3.31259131222e-05
3.96685503363e-05
4.85618097235e-05
5.89842533021e-05
3.53075196566e-05
-5.78636268191e-28
-6.82230372492e-27
5.0637406094e-05
-6.56131233503e-27
-4.3044972407e-26
7.20074587206e-05
0.999993423084
0.999995235199
0.999994716852
0.999961380825
0.999975986059
0.999977870652
0.999982155689
0.999999379717
0.999986871225
0.999983438608
0.99999552677
1.0000102447
0.999992323719
0.99999653584
0.999992575167
0.999993163876
0.999996177552
0.999990671869
0.999993681479
0.999993360872
0.999994591664
0.999987182864
0.999994838055
0.999990457162
0.999986226113
0.999984785457
0.999993653118
0.999990393439
0.999992872884
0.999976982407
0.999983605889
0.999985906935
0.999995505159
0.999990016688
0.99999369713
1.00002614504
0.999994907201
1.00000726826
1.00000373327
1.00002523278
1.00000032799
1.00001673704
0.999991723605
0.999995206206
0.999997698652
0.999992417234
0.999994027165
0.999994719117
0.999996440998
0.99999845734
0.999994574668
0.999994687302
0.999996734295
1.00000290858
0.999998416356
1.00000103277
0.999997344055
0.999985705485
0.999991471758
0.999998822306
0.999988683242
0.999988485602
0.999982050358
1.00002974984
1.00000241093
1.00002536798
1.00000011721
1.00002885142
0.999998094386
1.00001684231
0.999981153759
0.999993179263
0.999996030428
0.999989482257
0.999996997133
1.00000315889
1.00000713907
1.0000097811
0.999999144283
1.00000376241
1.00000708096
1.00002060398
1.00000991157
1.00001337748
1.00005528502
1.00002269583
0.910313623161
0.912342536001
1.00001730618
1.0000158365
1.00001584997
0.913609680506
0.919362108918
0.914602726437
0.920134241288
1.00002854438
1.00002182893
1.00002702543
0.915791590144
0.885237836846
0.916492443949
0.886345686973
1.00004154946
1.0000442816
1.00005325573
0.871168603939
0.840990627783
0.873258582984
0.848217312319
1.00004611168
1.00005006502
1.00003770618
0.841071619426
0.849697251302
0.849278049818
0.860773257084
1.00000618265
1.00002344875
1.00000859306
0.853626356375
0.873237924992
0.863528218863
0.873862182445
0.999945488114
0.999996751502
0.999981622205
0.877054012286
0.883006901409
0.875348616174
0.87899955365
0.999962036048
0.999976229776
0.999977850283
0.882506995404
0.87512326469
0.87813767936
0.869438270525
0.999986475202
0.999978860532
0.999986234216
0.878021939425
0.862185698723
0.871654178342
0.858684831907
1.00000678591
1.00000633572
0.932797470766
0.919439808121
0.938442160877
0.931747521894
1.00000794783
1.00000657138
1.00000984698
0.916024803542
0.914189025322
0.928695553688
0.92260084318
1.00001276677
1.00000961094
1.00001139693
0.91516544152
0.920302467718
0.92125440183
0.916562368656
1.00001024895
1.00000770583
1.00000432025
0.916883848837
0.886899377907
0.912009403078
0.883295622287
1.00000039692
0.999999961563
0.999994539105
0.873504436247
0.849483173168
0.871211963991
0.853417185631
1.00000004088
1.00000127513
1.0000015638
0.850869245041
0.863095271153
0.854807277185
0.869502283198
0.999997039239
1.0000031235
1.00000184963
0.865727889419
0.87470591797
0.872752451056
0.879485814114
0.999991163019
0.999999705017
0.999996783983
0.875307757334
0.877906639675
0.879917453308
0.879254337524
0.999991677628
0.999994438531
0.99999477802
0.876991879495
0.868004059714
0.877337502644
0.866883547606
0.999997891418
0.999997825679
1
0.870177477924
0.85970225918
0.869054659508
0.859971957094
1.00000578884
1.00000634237
1.00000711687
0.938104273061
0.935788962391
0.937608059021
0.937138081457
1.0000075137
1.00000751663
1.00000821288
0.932738076812
0.925263737809
0.937044222551
0.933905111272
1.00000459982
1.00000709232
1.0000070949
0.923476378411
0.916147541042
0.930389339506
0.911455161464
0.999996742804
1
0.999994236771
0.910310157487
0.88138527455
0.903372253213
0.880957580397
0.999996689206
0.999995280477
0.999994891136
0.87041553466
0.855847030544
0.87425856651
0.867205096761
1.00000092086
1.00000070831
1.00000129856
0.856880983062
0.87051413636
0.867785289063
0.876070622482
1.00000060589
1.00000348129
1.00000420973
0.873885590953
0.881147987397
0.879056638287
0.884645064069
0.999997292834
1.00000359722
1.00000163725
0.881935420077
0.880431356709
0.886148253744
0.88207805981
0.999994417715
0.999999813368
0.999997174442
0.877914381576
0.866187505328
0.878711264198
0.865159348042
1
1.00000046784
1.00000214234
0.868820409669
0.859848969482
0.868585089712
0.859096387682
0.937436700495
0.937145306362
1.00000692195
1.00000988616
0.936980926354
0.934769270242
0.930066379018
1.00000221316
1.0000077674
1.00000463729
0.930575437574
0.909483398328
0.924937730116
0.907811260088
0.999999413209
1.00000082669
0.999999354205
0.902303882207
0.88276208847
0.902328204027
0.885495295016
1.00000068042
1
0.999999016432
0.877125524619
0.870202514042
0.88079219816
0.875059078763
1.0000007246
1.00000152355
1.00000075175
0.870584724058
0.876971075797
0.875407980351
0.879855755153
1.00000038327
1.0000018126
1.00000195507
0.87962854143
0.885210352306
0.881687105776
0.885245665652
0.99999785014
1.00000059188
0.999999554961
0.886377718309
0.881525078285
0.884592076394
0.877872983007
0.999993840476
0.999998060196
0.999995245533
0.878237805931
0.865435370353
0.875301520895
0.867167950459
1
0.999999742567
1.00000253001
0.869086035992
0.859848259904
0.870784501224
0.862354367573
1
1
0.902707336212
0.886079739014
0.881376990847
0.999998011998
1
1.00000023182
0.881356833741
0.875775074982
0.876714198762
0.87388018885
0.999998075609
1.00000155647
1.00000152294
0.876150373418
0.880581722431
0.875310408717
0.88179325428
0.999999242208
1.00000168599
1.00000206861
0.882397280868
0.88436657737
0.884004217325
0.883838237096
0.999997477427
1.00000065049
0.99999996242
0.883380714142
0.877106102008
0.882386486673
0.875323871175
0.999994695545
0.999998344495
0.999995143431
0.875069811886
0.868286439848
0.873749592729
0.869375966366
1
0.999998886116
1.00000147265
0.871695562399
0.863515287678
0.872506859503
0.866069338778
1.00000012374
0.884608339375
0.999999371558
0.883176182719
0.875049305879
0.999996967854
0.873481248444
0.869827216259
1.00000152168
0.872819611436
0.866570026733
0.000472089406721
0.000457434945609
0.000505769104873
0.000466815891139
0.0318836483787
0.0315470630292
0.000302944599281
9.56356728961e-05
0.000272898369688
0.000117896752791
0.0332519721516
0.0319404042744
0.0334406340277
3.39472801002e-05
7.93525603406e-05
4.43821429056e-05
6.65816872178e-05
0.0425206207389
0.0375752330109
0.0422387630133
0.000365739415227
0.000683055218583
0.000307319970028
0.000657325732503
0.0490495844615
0.0458716641112
0.0482576785667
0.00118525246728
0.00145120452281
0.00111877105706
0.00132512691119
0.0569618912562
0.0517807833388
0.0545273974739
0.000853603527033
0.000382555965163
0.00110201259826
0.00049455577951
0.0557431436309
0.0562544669435
0.0547397190287
0.000114405035127
6.18149048307e-05
0.00012007535541
6.636355462e-05
0.0512243423251
0.0531336606633
0.0516589409214
3.43406631201e-05
5.81646139968e-05
2.89617148636e-05
4.00269706635e-05
0.0517471560297
0.0510741282202
0.0521275556243
6.32198642102e-05
8.98206296933e-05
5.34613166667e-05
8.31842486557e-05
0.0527186130655
0.0519203930341
0.0536402508798
0.000134056020943
0.00117560405614
0.000142349570332
0.00109185738772
0.030009523498
0.0289559033835
0.0289461721156
0.00038034138946
0.000373709563597
0.000175002271754
0.000294030124455
0.0310431386829
0.0294694958191
0.0304873967582
0.000244538818975
0.000161159417739
0.000248454380656
0.000195810352084
0.0343164764727
0.0324621241104
0.0357008489316
0.000103945617967
9.20722525787e-05
0.000165950152057
0.000188697730495
0.0420993513863
0.0394244468003
0.0426183577919
0.000261278110919
0.000590061458757
0.000321718994217
0.000592929749173
0.0481219451647
0.0459002549056
0.0477220729589
0.000868894496006
0.000982122441114
0.000810489540122
0.000855480505496
0.0521359177345
0.0505773761017
0.050977025353
0.00125013905415
0.000676480617389
0.000857791718246
0.00051268897781
0.0531091176311
0.0521465886697
0.0515289287697
0.000317755794363
0.000113840646968
0.000555008474835
0.000160412812035
0.0516835614911
0.0509565811054
0.050682306572
2.68942502351e-05
3.14918512407e-05
2.77997713869e-05
3.25912458335e-05
0.0522383300106
0.0508579797238
0.0520385926641
5.11430877168e-05
7.47221528713e-05
4.95153394739e-05
7.4086591367e-05
0.0537805884602
0.0516313834204
0.0535192367751
0.000160865058353
0.00116073289843
0.000169105181446
0.00123616511137
0.0279885451638
0.0284261608479
0.0280357208827
6.19740200869e-05
0.00020807797107
3.96880327032e-05
0.000113475399777
0.0298664969479
0.0280739312188
0.0295108091925
0.000184737166825
0.000184049068962
0.00011818226661
0.000148096837218
0.0363007023078
0.0326667700631
0.0368121981546
0.000185048966915
0.00024726385286
0.000203369660727
0.00029226028761
0.0431348408125
0.0403624846924
0.0429819059509
0.000411373169636
0.000614352162977
0.000454081337897
0.00060185692576
0.0473821767209
0.0452425192361
0.0464812021229
0.000590712219863
0.000515329355936
0.000506090007259
0.00044163323825
0.0509197142638
0.0491074613926
0.0502699188308
0.000330511702944
0.000151662562559
0.000281363214754
0.000129286276302
0.0505040604018
0.0502865551312
0.0498517504169
0.000305047478955
0.000160508031854
0.000249837833773
0.0001661774276
0.0497878702729
0.0487839579477
0.0492443082753
2.06329501968e-05
2.51194035607e-05
1.75299279986e-05
3.46415281893e-05
0.0518244133448
0.0499166651356
0.0517841013595
5.15602218379e-05
8.62224419124e-05
6.99164821942e-05
0.000120788036808
0.0538170025061
0.0509634706981
0.0535941524709
0.000154396165251
0.000909292307965
0.000160871366697
0.000838252466622
0.0300898032741
0.0311375951593
0.00010234158668
0.000102513493966
0.000165630406527
0.0371457579827
0.0344977919799
0.0376667938899
0.000203737001041
0.000330504149608
0.000257680996694
0.000377492152408
0.0429656689955
0.0405439912924
0.0430881666123
0.000436699537106
0.000503124483187
0.000436831837951
0.000481836260773
0.046126623008
0.0449686571987
0.0463394634876
0.000444901320413
0.000398191993836
0.000452262819887
0.000414238265194
0.0498152780223
0.0480715565627
0.0497787893495
0.000274849764623
0.000143242835683
0.000289549709271
0.000176193465119
0.0494651711551
0.0499206776994
0.0495317025487
0.0002960258949
0.00021433744353
0.000414776667544
0.000327935988723
0.0492378065931
0.0492462803594
0.0494757078827
3.94775304708e-05
8.36178961355e-05
0.000107212970316
0.000152200541673
0.0516751512609
0.0500716423858
0.0515430074644
0.000123622747128
0.00016657095097
0.000184710935078
0.000209608443447
0.0537381693634
0.0506305028013
0.0534156388551
0.000189694088245
0.000710117997183
0.000241380033017
0.000647734084827
0.043412920391
0.044730610317
0.00059640664446
0.000690436701346
0.000685705529141
0.000820539405758
0.046551524554
0.0463861865093
0.0474688843588
0.000749344205663
0.000758737536403
0.000973622493241
0.00103572872924
0.0496683262882
0.0488733041886
0.0499236896571
0.000631841369719
0.000500250323
0.000997778633567
0.00088869523852
0.0498859990819
0.0499167439016
0.0500178722231
0.000716786633175
0.000414935931155
0.000723863476633
0.000395644473466
0.0499097493434
0.049893749469
0.0503812046879
0.000182541480182
0.000208508706938
0.000211067197412
0.000237683784162
0.0515432826457
0.0508678209371
0.0517699056689
0.00022287448808
0.000236607813304
0.000258887555401
0.00027853118629
0.052743452305
0.0512040862909
0.052471705663
0.000301675378861
0.000820494010141
0.000394475586908
0.00118307570284
0.0505654704763
0.000185255702989
0.0509461319478
0.00017625083525
0.00023947666499
0.000156271808908
0.000238428842421
0.0523341892642
0.000278148690384
0.000310294939077
0.000285920979205
0.000327387266949
0.0526096105067
0.000468394041918
0.00150394059552
0.000544366002524
0.00166569446661
0.99986663977
0.999852685486
0.907505973584
0.910973581154
0.999888531268
0.908173383976
0.999839532574
0.999846989749
0.999861116291
0.91125924941
0.911006107158
0.999864127112
0.999854018335
0.909388904458
0.999977192337
0.999903268792
0.917904664507
0.914555737621
0.999924007528
0.918224768373
0.999979805318
0.999984045916
0.999997427714
0.919634198474
0.919515955212
0.999996706579
0.919672208431
1
0.99995792919
0.999858650384
0.914102266484
0.917441440373
0.999894921621
0.999883314971
0.9179455568
0.999982818356
0.999968619656
0.92000530614
0.919429941428
0.999985192278
0.999959039377
0.920097822477
0.999876890295
0.999974360371
0.909265869338
0.915897126815
0.999965676977
0.909147492561
0.999890762753
0.999718354041
0.999427115183
0.898482711145
0.885445783696
0.999451373073
0.898164241039
0.999707682439
0.999856188082
0.999953683329
0.916246523999
0.909631270734
0.999948537253
0.999872878928
0.909398959848
0.999692663462
0.999481705843
0.885870905762
0.898779590099
0.99944924904
0.999732455466
0.898348811224
0.998879216988
0.999130693053
0.858459660109
0.87244595732
0.999154056737
0.8602263881
0.998805801056
0.998609153913
0.998366153889
0.850239312205
0.843795917049
0.998470300617
0.851785598397
0.998531009038
0.998992709651
0.999202907368
0.872990409962
0.861387690979
0.999200452734
0.998964614462
0.861133974076
0.998809658846
0.99870470112
0.846129457532
0.854049781263
0.998741053107
0.998786010304
0.853435605462
0.997971736989
0.998070380114
0.843350540979
0.844377680167
0.998282480162
0.846891825663
0.997801855622
0.997865413874
0.997837604325
0.846246068593
0.853106506609
0.997909387095
0.849694516625
0.997781866152
0.998227448134
0.998551172976
0.84693786564
0.852956788803
0.998551689143
0.998315523576
0.850117825802
0.998007977246
0.998080497273
0.856896793629
0.857164870033
0.998018318214
0.998131328982
0.853418800257
0.998155702893
0.997956066546
0.859407383019
0.857139023292
0.997993072909
0.862366390507
0.998114863388
0.998350351161
0.998723264064
0.866440687664
0.873502830117
0.998597984407
0.868135720595
0.998369410029
0.998130183421
0.998080779561
0.859947504582
0.866737634341
0.998051976366
0.998097100772
0.864062769147
0.998260982202
0.998316542218
0.872926195493
0.87060875791
0.998456884727
0.998170723886
0.868531473893
0.998969220927
0.999013966722
0.879055563659
0.876815608319
0.998840250853
0.878642693645
0.999065636402
0.999019591687
0.999023320229
0.880982631545
0.882014595434
0.998987845347
0.880517845042
0.999050288812
0.998727921605
0.998490476004
0.875588866155
0.876191590831
0.998631528628
0.998605893569
0.877202301217
0.998783535468
0.998713019174
0.880357862165
0.877584879985
0.998785042748
0.998678380958
0.878982186187
0.998999891605
0.9990625055
0.881272016877
0.881327105838
0.999004482113
0.879853885054
0.999070164732
0.998970619389
0.998940823903
0.878360353644
0.873603706593
0.998904922324
0.877053245859
0.999032230479
0.99887623811
0.998732580873
0.879576726227
0.876308267495
0.998851395353
0.998730511466
0.878067896482
0.998869497789
0.998659191163
0.871645623806
0.873076116032
0.998841005918
0.998692938713
0.875053819975
0.998643478282
0.998890056924
0.87537765019
0.876383694275
0.998842194319
0.873962982933
0.998730234563
0.997894525168
0.998296002738
0.849570646816
0.861057334343
0.848424782335
0.998100175234
0.998077152282
0.998504629792
0.998606131935
0.873967359392
0.868961295375
0.998755511926
0.998399954312
0.870932858136
0.997796935735
0.998091072768
0.859664309989
0.843234433751
0.997770086942
0.844508391433
0.998100677853
0.999834844369
0.999838447137
0.928508893878
0.934427154887
0.999838591617
0.93104185593
0.999829922805
0.999843917432
0.999822108681
0.92368435049
0.923021659705
0.999819596256
0.999835031093
0.926897438486
0.999801330968
0.999821692065
0.937068825398
0.937005981877
0.999821862837
0.933902961297
0.999804179525
0.999804636461
0.999876244685
0.927105912311
0.934462734173
0.999821338676
0.999833418637
0.930204723606
0.999834823401
0.999811337866
0.91426046018
0.920681984789
0.999814456976
0.999839089513
0.918940837283
0.999813909202
0.999811237543
0.913893790907
0.916250997175
0.999813603864
0.999810060634
0.916908441609
0.999856546838
0.999882464165
0.924821471155
0.926064439717
0.999844762772
0.999883649011
0.922530397821
0.999853438395
0.999840771716
0.919107873666
0.9243509431
0.999833915455
0.999857119851
0.920027483326
0.999768042756
0.999796816831
0.9168368476
0.917241303365
0.999786926549
0.999785212106
0.917946987333
0.99975833744
0.999905751568
0.918840249907
0.91883330508
0.999828894869
0.999792962926
0.918804878371
0.999781919517
0.999819678097
0.918930396656
0.920006835676
0.999824127488
0.999805360112
0.918768862501
0.999770319915
0.999709298402
0.917277943794
0.918646014344
0.99975225163
0.999759328107
0.918252935324
0.999712967601
0.999903744968
0.910058868122
0.915368017187
0.999817820065
0.999775089311
0.909124170317
0.999569605691
0.999373537079
0.899335674139
0.887130287287
0.999652337407
0.999313659094
0.899012874489
0.999594762162
0.999650906643
0.913347543319
0.904847797605
0.99968937442
0.999532999412
0.906690739189
0.999451739489
0.999138163857
0.885562175069
0.894710843147
0.999204831663
0.999367422717
0.897037077393
0.998736317997
0.999063354361
0.861131201963
0.873731169017
0.998788120487
0.999002889262
0.860874030691
0.998509309007
0.998550805373
0.854415329969
0.850300040088
0.998580524168
0.998493361006
0.854032521149
0.998640313502
0.998874600976
0.873027053967
0.86028086503
0.998900547525
0.99862223569
0.860787668116
0.998390078071
0.998468620769
0.8520820345
0.855400146963
0.99842215352
0.998400908387
0.855003446035
0.9984210813
0.998467126686
0.85473307436
0.85187025032
0.998350784518
0.998453069383
0.856100774518
0.99838330993
0.998233468752
0.859201536514
0.865927836098
0.998283848853
0.99837403862
0.86131215611
0.998521545444
0.99855779762
0.853469635843
0.858916483456
0.998453890215
0.998631301783
0.857612382065
0.998617504376
0.998834327067
0.867762979057
0.864312829627
0.998711667717
0.998716853207
0.862992110433
0.998188448983
0.998129290145
0.868971899072
0.868566122848
0.998022551711
0.998316680873
0.870873551517
0.998077488296
0.998037676386
0.872289077654
0.875742348415
0.998011740261
0.998069556202
0.873433925505
0.998647983602
0.998860706309
0.870705440083
0.875294908375
0.99870660587
0.998833229261
0.873168445636
0.99853467595
0.998688726439
0.87775763367
0.877629735737
0.998480134296
0.99875639352
0.875719583741
0.998144139198
0.998113674548
0.875688818817
0.876437328034
0.998213480607
0.99809344551
0.876535468217
0.998236346741
0.998412231545
0.876632321447
0.877576550208
0.998328269067
0.998286716311
0.877000282768
0.998479601364
0.998657003679
0.877995087377
0.879842519374