/*--------------------------------*- C++ -*----------------------------------*\
| =========                 |                                                 |
| \\      /  F ield         | OpenFOAM: The Open Source CFD Toolbox           |
|  \\    /   O peration     | Version:  v1906                                 |
|   \\  /    A nd           | Web:      www.OpenFOAM.com                      |
|    \\/     M anipulation  |                                                 |
\*---------------------------------------------------------------------------*/
FoamFile
{
    version     2.0;
    format      ascii;
    class       volVectorField;
    location    "7";
    object      force.turbine;
}
// * * * * * * * * * * * * * * * * * * * * * * * * * * * * * * * * * * * * * //

dimensions      [1 -2 -2 0 0 0 0];


internalField   nonuniform List<vector> 
28582
(
(0 0 0)
(0 0 0)
(0 0 0)
(0 0 0)
(0 0 0)
(0 0 0)
(0 0 0)
(0 0 0)
(0 0 0)
(0 0 0)
(0 0 0)
(0 0 0)
(0 0 0)
(0 0 0)
(0 0 0)
(0 0 0)
(0 0 0)
(0 0 0)
(0 0 0)
(0 0 0)
(0 0 0)
(0 0 0)
(0 0 0)
(0 0 0)
(0 0 0)
(0 0 0)
(0 0 0)
(0 0 0)
(0 0 0)
(0 0 0)
(0 0 0)
(0 0 0)
(0 0 0)
(0 0 0)
(0 0 0)
(0 0 0)
(0 0 0)
(0 0 0)
(0 0 0)
(0 0 0)
(0 0 0)
(0 0 0)
(0 0 0)
(0 0 0)
(0 0 0)
(0 0 0)
(0 0 0)
(0 0 0)
(0 0 0)
(0 0 0)
(0 0 0)
(0 0 0)
(0 0 0)
(0 0 0)
(0 0 0)
(0 0 0)
(0 0 0)
(0 0 0)
(0 0 0)
(0 0 0)
(0 0 0)
(0 0 0)
(0 0 0)
(0 0 0)
(0 0 0)
(0 0 0)
(0 0 0)
(0 0 0)
(0 0 0)
(0 0 0)
(0 0 0)
(0 0 0)
(0 0 0)
(0 0 0)
(0 0 0)
(0 0 0)
(0 0 0)
(0 0 0)
(0 0 0)
(0 0 0)
(0 0 0)
(0 0 0)
(0 0 0)
(0 0 0)
(0 0 0)
(0 0 0)
(0 0 0)
(0 0 0)
(0 0 0)
(0 0 0)
(0 0 0)
(0 0 0)
(0 0 0)
(0 0 0)
(0 0 0)
(0 0 0)
(0 0 0)
(0 0 0)
(0 0 0)
(0 0 0)
(0 0 0)
(0 0 0)
(0 0 0)
(0 0 0)
(0 0 0)
(0 0 0)
(0 0 0)
(0 0 0)
(0 0 0)
(0 0 0)
(0 0 0)
(0 0 0)
(0 0 0)
(0 0 0)
(0 0 0)
(0 0 0)
(0 0 0)
(0 0 0)
(0 0 0)
(0 0 0)
(0 0 0)
(0 0 0)
(0 0 0)
(0 0 0)
(0 0 0)
(0 0 0)
(0 0 0)
(0 0 0)
(0 0 0)
(0 0 0)
(0 0 0)
(0 0 0)
(0 0 0)
(0 0 0)
(0 0 0)
(0 0 0)
(0 0 0)
(0 0 0)
(0 0 0)
(0 0 0)
(0 0 0)
(0 0 0)
(0 0 0)
(0 0 0)
(0 0 0)
(0 0 0)
(0 0 0)
(0 0 0)
(0 0 0)
(0 0 0)
(0 0 0)
(0 0 0)
(0 0 0)
(0 0 0)
(0 0 0)
(0 0 0)
(0 0 0)
(0 0 0)
(0 0 0)
(0 0 0)
(0 0 0)
(0 0 0)
(0 0 0)
(0 0 0)
(0 0 0)
(0 0 0)
(0 0 0)
(0 0 0)
(0 0 0)
(0 0 0)
(0 0 0)
(0 0 0)
(0 0 0)
(0 0 0)
(0 0 0)
(0 0 0)
(0 0 0)
(0 0 0)
(0 0 0)
(0 0 0)
(0 0 0)
(0 0 0)
(0 0 0)
(0 0 0)
(0 0 0)
(0 0 0)
(0 0 0)
(0 0 0)
(0 0 0)
(0 0 0)
(0 0 0)
(0 0 0)
(0 0 0)
(0 0 0)
(0 0 0)
(0 0 0)
(0 0 0)
(0 0 0)
(0 0 0)
(0 0 0)
(0 0 0)
(0 0 0)
(0 0 0)
(0 0 0)
(0 0 0)
(0 0 0)
(0 0 0)
(0 0 0)
(0 0 0)
(0 0 0)
(0 0 0)
(0 0 0)
(0 0 0)
(0 0 0)
(0 0 0)
(0 0 0)
(0 0 0)
(-0.00212978429513 3.70701740329e-05 0)
(0 0 0)
(0 0 0)
(0 0 0)
(0 0 0)
(-2.58208277573e-05 2.39243761861e-07 0)
(0 0 0)
(-2.59489130053e-06 2.23067677027e-08 0)
(0 0 0)
(0 0 0)
(0 0 0)
(0 0 0)
(0 0 0)
(0 0 0)
(0 0 0)
(0 0 0)
(0 0 0)
(0 0 0)
(0 0 0)
(0 0 0)
(-0.0161241330261 0.000472595270609 0)
(0 0 0)
(0 0 0)
(0 0 0)
(-0.0297287431379 0.000627291854457 0)
(0 0 0)
(0 0 0)
(-0.028617469927 0.000817389137401 0)
(-0.128254620737 0.00366328449298 0)
(-0.0808115466941 0.00170516542701 0)
(-0.867628835268 -0.00369339267238 0.000226810976764)
(-0.0060486456855 6.0080720881e-05 0)
(-0.0806652420484 0.00170207832332 0)
(0 0 0)
(0 0 0)
(0 0 0)
(0 0 0)
(0 0 0)
(-0.0161241845806 0.000472596781662 0)
(0 0 0)
(0 0 0)
(0 0 0)
(-0.0296540969405 0.000625716781088 0)
(0 0 0)
(0 0 0)
(0 0 0)
(0 0 0)
(0 0 0)
(0 0 0)
(0 0 0)
(0 0 0)
(-1.73452945434e-05 1.6561682973e-07 0)
(0 0 0)
(-1.03186393582e-05 9.85247228494e-08 0)
(-0.000146678470823 2.04289242979e-06 0)
(-0.000739501984293 1.02995551906e-05 0)
(-9.02008166993e-05 1.25628911019e-06 0)
(-0.000458670228758 6.38821725396e-06 0)
(0 0 0)
(0 0 0)
(-0.000229149651457 2.23735500387e-06 0)
(0 0 0)
(0 0 0)
(0 0 0)
(0 0 0)
(0 0 0)
(0 0 0)
(-0.00950117447806 0.000165373644751 0)
(-0.000440783735567 6.39640728152e-06 0)
(-0.00206021760067 3.58593239594e-05 0)
(-2.96216477576e-05 3.71492975972e-07 0)
(-0.000147178354101 2.04985464965e-06 0)
(-3.62851556976e-06 3.11922329478e-08 0)
(-2.82888906358e-05 3.54778513851e-07 0)
(0 0 0)
(0 0 0)
(0 0 0)
(0 0 0)
(0 0 0)
(-0.000218632841313 2.13467172396e-06 0)
(0 0 0)
(0 0 0)
(0 0 0)
(0 0 0)
(0 0 0)
(0 0 0)
(0 0 0)
(0 0 0)
(0 0 0)
(0 0 0)
(0 0 0)
(0 0 0)
(0 0 0)
(0 0 0)
(0 0 0)
(0 0 0)
(0 0 0)
(0 0 0)
(0 0 0)
(0 0 0)
(-0.00523120015722 5.25553903869e-05 0)
(0 0 0)
(0 0 0)
(0 0 0)
(0 0 0)
(0 0 0)
(-0.00469946470832 4.66794125679e-05 0)
(0 0 0)
(0 0 0)
(0 0 0)
(0 0 0)
(0 0 0)
(0 0 0)
(0 0 0)
(0 0 0)
(0 0 0)
(0 0 0)
(0 0 0)
(0 0 0)
(0 0 0)
(0 0 0)
(0 0 0)
(0 0 0)
(0 0 0)
(0 0 0)
(0 0 0)
(0 0 0)
(0 0 0)
(0 0 0)
(-0.0363851025193 0.000877061361426 0)
(-0.00877547285153 0.000143808181201 0)
(-0.0144712838151 0.000237148361154 0)
(-0.0103425207335 0.000184196233852 0)
(-0.0194758066856 0.000469463498624 0)
(0 0 0)
(0 0 0)
(0 0 0)
(0 0 0)
(0 0 0)
(0 0 0)
(0 0 0)
(0 0 0)
(0 0 0)
(0 0 0)
(-0.00533954957874 5.30373251386e-05 0)
(0 0 0)
(-0.0080550026489 0.000143456434831 0)
(0 0 0)
(0 0 0)
(-0.130855666233 0.0031337772968 0)
(-0.101910240094 0.00244058210019 0)
(-0.196865958442 0.00414688477935 0)
(-0.0432534523458 0.000912670213059 0)
(-0.325294693071 -0.0117965366406 0.000199925110743)
(-0.0529406052779 0.00127613105708 0)
(-0.103760733956 0.00218940514642 0)
(-0.277025163296 0.00663429557443 0)
(-1.57732796845 -0.121399344727 0.00163728714779)
(-0.440556656011 0.00384492508584 5.57284720799e-05)
(-0.415305301125 0.00874820230806 0)
(-0.874746861268 -0.0713564233255 0.000948593424617)
(-0.222804057038 0.0046932580941 0)
(-0.517558479592 0.0123946716241 0)
(-0.0618124889041 0.00148030711977 0)
(-0.00912769488022 0.000162560662339 0)
(-0.0204137692322 0.000430741087798 0)
(-0.0204077895946 0.000430614914354 0)
(-0.0250077530256 0.0006028108318 0)
(-0.0250078941706 0.000602814234095 0)
(-0.0489656189508 0.00103319988248 0)
(-0.130856977529 0.00313380870017 0)
(-0.101911346085 0.00244060858687 0)
(-0.19660362089 0.00414135876759 0)
(-0.0431821930296 0.000911166604634 0)
(-0.0529413257464 0.00127614842394 0)
(-0.103658043802 0.00218723833108 0)
(-0.244472460774 0.00585471206042 0)
(0 0 0)
(0 0 0)
(0 0 0)
(0 0 0)
(0 0 0)
(0 0 0)
(0 0 0)
(0 0 0)
(0 0 0)
(0 0 0)
(0 0 0)
(0 0 0)
(0 0 0)
(0 0 0)
(0 0 0)
(0 0 0)
(0 0 0)
(0 0 0)
(0 0 0)
(0 0 0)
(0 0 0)
(0 0 0)
(0 0 0)
(-0.00533084677146 5.29508808398e-05 0)
(0 0 0)
(-0.00805540423321 0.00014346358689 0)
(0 0 0)
(0 0 0)
(0 0 0)
(-0.036385850927 0.000877079401761 0)
(-0.0144363850038 0.000236576456408 0)
(-0.00875324310815 0.000143443890978 0)
(-0.0194762587175 0.000469474394836 0)
(0 0 0)
(-0.0103429668489 0.000184204178993 0)
(0 0 0)
(0 0 0)
(0 0 0)
(0 0 0)
(0 0 0)
(0 0 0)
(0 0 0)
(0 0 0)
(0 0 0)
(0 0 0)
(0 0 0)
(0 0 0)
(0 0 0)
(0 0 0)
(0 0 0)
(0 0 0)
(0 0 0)
(0 0 0)
(0 0 0)
(0 0 0)
(0 0 0)
(0 0 0)
(0 0 0)
(0 0 0)
(0 0 0)
(0 0 0)
(0 0 0)
(0 0 0)
(0 0 0)
(0 0 0)
(0 0 0)
(0 0 0)
(0 0 0)
(0 0 0)
(0 0 0)
(0 0 0)
(-0.0150229536467 0.000282318529184 0)
(0 0 0)
(0 0 0)
(0 0 0)
(0 0 0)
(0 0 0)
(0 0 0)
(0 0 0)
(-0.00335209031234 6.29940841812e-05 0)
(0 0 0)
(0 0 0)
(0 0 0)
(0 0 0)
(0 0 0)
(0 0 0)
(0 0 0)
(0 0 0)
(0 0 0)
(0 0 0)
(0 0 0)
(0 0 0)
(0 0 0)
(0 0 0)
(0 0 0)
(0 0 0)
(0 0 0)
(0 0 0)
(0 0 0)
(0 0 0)
(0 0 0)
(0 0 0)
(0 0 0)
(0 0 0)
(0 0 0)
(0 0 0)
(0 0 0)
(-0.32144741087 0.008537613233 0)
(-0.00771319839901 0.000144950112909 0)
(0 0 0)
(0 0 0)
(0 0 0)
(0 0 0)
(0 0 0)
(0 0 0)
(-0.0705851708695 0.00189211623481 0)
(0 0 0)
(0 0 0)
(0 0 0)
(0 0 0)
(0 0 0)
(0 0 0)
(0 0 0)
(0 0 0)
(0 0 0)
(0 0 0)
(0 0 0)
(0 0 0)
(0 0 0)
(0 0 0)
(0 0 0)
(0 0 0)
(0 0 0)
(0 0 0)
(0 0 0)
(0 0 0)
(0 0 0)
(0 0 0)
(0 0 0)
(0 0 0)
(0 0 0)
(0 0 0)
(0 0 0)
(-1.51327585757 0.0525461625335 0)
(-0.0431217145046 0.00152721214021 0)
(0 0 0)
(0 0 0)
(0 0 0)
(0 0 0)
(0 0 0)
(0 0 0)
(-0.33194640643 0.0113989100734 0)
(-0.00655374845882 0.000251832000977 0)
(0 0 0)
(0 0 0)
(0 0 0)
(0 0 0)
(0 0 0)
(0 0 0)
(0 0 0)
(0 0 0)
(0 0 0)
(0 0 0)
(0 0 0)
(0 0 0)
(0 0 0)
(0 0 0)
(0 0 0)
(0 0 0)
(0 0 0)
(0 0 0)
(0 0 0)
(0 0 0)
(0 0 0)
(0 0 0)
(0 0 0)
(0 0 0)
(0 0 0)
(0 0 0)
(0 0 0)
(0 0 0)
(0 0 0)
(0 0 0)
(0 0 0)
(0 0 0)
(0 0 0)
(-2.57613739032 0.0735811629982 0)
(-0.07779137201 0.00222192327367 0)
(0 0 0)
(0 0 0)
(0 0 0)
(0 0 0)
(0 0 0)
(0 0 0)
(-2.57607377364 0.073579345941 0)
(-0.574800799796 0.0164178011236 0)
(-0.0161243638709 0.000472602036627 0)
(0 0 0)
(0 0 0)
(0 0 0)
(0 0 0)
(0 0 0)
(0 0 0)
(-0.0471822356839 0.00134764698014 0)
(-0.0777904981874 0.00222189831503 0)
(-0.0161242210832 0.000472597851545 0)
(0 0 0)
(0 0 0)
(0 0 0)
(0 0 0)
(0 0 0)
(0 0 0)
(0 0 0)
(0 0 0)
(0 0 0)
(0 0 0)
(0 0 0)
(0 0 0)
(0 0 0)
(0 0 0)
(0 0 0)
(0 0 0)
(0 0 0)
(0 0 0)
(0 0 0)
(0 0 0)
(0 0 0)
(0 0 0)
(0 0 0)
(0 0 0)
(0 0 0)
(0 0 0)
(-0.0443961008972 0.000773089594785 0)
(-0.00157847222859 2.74742565967e-05 0)
(0 0 0)
(0 0 0)
(0 0 0)
(0 0 0)
(0 0 0)
(0 0 0)
(-0.0257114451811 0.000447725145558 0)
(-0.0427858188974 0.000745049018394 0)
(-0.0100816352691 0.000175476913234 0)
(-0.000283331761644 2.76637442229e-06 0)
(0 0 0)
(0 0 0)
(0 0 0)
(0 0 0)
(0 0 0)
(0 0 0)
(-0.00069344527603 1.00628903814e-05 0)
(-0.00120293034266 2.09377246579e-05 0)
(-0.000241869161049 2.36154484335e-06 0)
(0 0 0)
(0 0 0)
(0 0 0)
(0 0 0)
(0 0 0)
(0 0 0)
(0 0 0)
(0 0 0)
(0 0 0)
(0 0 0)
(0 0 0)
(0 0 0)
(0 0 0)
(0 0 0)
(0 0 0)
(0 0 0)
(0 0 0)
(0 0 0)
(0 0 0)
(0 0 0)
(0 0 0)
(0 0 0)
(0 0 0)
(0 0 0)
(0 0 0)
(0 0 0)
(-0.000199730031717 2.12358603237e-06 0)
(-0.000195681744585 2.08054350174e-06 0)
(-2.52346278614e-05 2.33812306696e-07 0)
(0 0 0)
(0 0 0)
(0 0 0)
(0 0 0)
(0 0 0)
(0 0 0)
(0 0 0)
(-2.57099472431e-05 2.38216394668e-07 0)
(-2.53483645063e-05 2.34866137465e-07 0)
(-2.58507859082e-06 2.22224135581e-08 0)
(0 0 0)
(0 0 0)
(0 0 0)
(0 0 0)
(0 0 0)
(0 0 0)
(0 0 0)
(0 0 0)
(0 0 0)
(0 0 0)
(0 0 0)
(0 0 0)
(0 0 0)
(0 0 0)
(0 0 0)
(0 0 0)
(0 0 0)
(0 0 0)
(0 0 0)
(0 0 0)
(0 0 0)
(0 0 0)
(0 0 0)
(0 0 0)
(0 0 0)
(0 0 0)
(0 0 0)
(0 0 0)
(0 0 0)
(0 0 0)
(0 0 0)
(0 0 0)
(0 0 0)
(0 0 0)
(0 0 0)
(0 0 0)
(-0.00335208258967 6.29939390532e-05 0)
(-0.0091119216864 0.000171235589821 0)
(-0.00203314349232 3.82078047946e-05 0)
(-0.086586750773 0.00197693101989 0)
(-0.0177472587624 0.00033351497373 0)
(-0.0525183842396 0.0011990890291 0)
(-0.0107643229118 0.000202288303857 0)
(0 0 0)
(0 0 0)
(0 0 0)
(-0.00240187717887 4.51372245675e-05 0)
(0 0 0)
(0 0 0)
(0 0 0)
(0 0 0)
(0 0 0)
(0 0 0)
(-0.0177475191405 0.00033351986688 0)
(-0.0039600186943 7.44185650577e-05 0)
(-0.00396001742596 7.44185412223e-05 0)
(0 0 0)
(0 0 0)
(0 0 0)
(0 0 0)
(0 0 0)
(0 0 0)
(0 0 0)
(0 0 0)
(-0.0705851408032 0.00189211542885 0)
(-0.194968497938 0.00517834510943 0)
(-0.0428116556727 0.00114761539484 0)
(-0.801170230053 0.0248149418851 0)
(-0.17663633269 0.00551869932408 0)
(-0.485936303275 0.0150510848672 0)
(-0.107135157885 0.00334725429588 0)
(0 0 0)
(-0.0046782150481 8.79152543931e-05 0)
(0 0 0)
(-0.0227644123421 0.000733959217129 0)
(0 0 0)
(-0.012176098369 0.000380826306082 0)
(0 0 0)
(-0.0149121929548 0.000389154073885 0)
(-0.0149122448364 0.000389155427807 0)
(-0.0028374887722 5.33234459469e-05 0)
(-0.176635787794 0.00551868229974 0)
(-0.0375318069183 0.00121008243961 0)
(-0.0375318328626 0.00121008327609 0)
(-0.00738514829914 0.000230981933735 0)
(0 0 0)
(0 0 0)
(0 0 0)
(-0.00335209367802 6.29941474306e-05 0)
(0 0 0)
(0 0 0)
(0 0 0)
(-0.331951827722 0.0113990962385 0)
(-0.902328129779 0.0309855958939 0)
(-0.20133777992 0.00691386080172 0)
(-2.22781606805 0.0752530584556 0)
(-0.491381045401 0.016465478263 0)
(-1.33571190284 0.0447578015219 0)
(-0.298035694746 0.00998675121751 0)
(0 0 0)
(-0.0261544972846 0.000926295863539 0)
(0 0 0)
(-0.0665019525759 0.00222838561811 0)
(0 0 0)
(-0.0403353916583 0.00135158146777 0)
(0 0 0)
(-0.0740672664886 0.00254344103064 0)
(-0.0740681563095 0.00254347158674 0)
(-0.0139823715236 0.000540519211216 0)
(-0.491381437633 0.0164654914061 0)
(-0.109642842003 0.00367397531627 0)
(-0.10964351692 0.00367399793179 0)
(-0.0244648727662 0.000819783006505 0)
(0 0 0)
(0 0 0)
(0 0 0)
(-0.0133120186813 0.00048409955643 0)
(0 0 0)
(0 0 0)
(0 0 0)
(-7.19181523432 0.21080100799 0)
(-4.27286218815 0.122772659822 0)
(-4.33766349507 0.091370752303 0)
(-2.05352887988 0.0432565778428 0)
(-0.574804406971 0.0164179041539 0)
(-1.56247808039 0.0446284250003 0)
(-0.348635988995 0.00995794775143 0)
(-2.64044146128 0.0556196032733 0)
(-0.280050845952 0.00589913360194 0)
(-1.24861044718 0.0263013661667 0)
(-0.132397633509 0.00278889116008 0)
(0 0 0)
(-0.0471830321342 0.00134766972882 0)
(0 0 0)
(-0.101024197093 0.00213166280342 0)
(0 0 0)
(-0.0477569321759 0.00100769596645 0)
(0 0 0)
(0 0 0)
(0 0 0)
(0 0 0)
(0 0 0)
(0 0 0)
(0 0 0)
(0 0 0)
(0 0 0)
(0 0 0)
(0 0 0)
(0 0 0)
(0 0 0)
(0 0 0)
(0 0 0)
(0 0 0)
(0 0 0)
(0 0 0)
(0 0 0)
(0 0 0)
(0 0 0)
(0 0 0)
(0 0 0)
(0 0 0)
(0 0 0)
(0 0 0)
(0 0 0)
(0 0 0)
(0 0 0)
(0 0 0)
(0 0 0)
(0 0 0)
(0 0 0)
(0 0 0)
(0 0 0)
(0 0 0)
(0 0 0)
(0 0 0)
(0 0 0)
(0 0 0)
(0 0 0)
(0 0 0)
(0 0 0)
(-0.348632832152 0.00995785758382 0)
(-0.574798107529 0.0164177242255 0)
(-1.36538330978 0.00687507806754 0.00022594875739)
(-2.65727276102 0.0559741463405 0)
(-0.135029083638 0.00284432136535 0)
(-0.283819510663 0.00597851867416 0)
(-1.56246576705 0.0446280732995 0)
(-0.574798242846 0.0164177280905 0)
(-0.348633898266 0.0099578880348 0)
(-2.64741380604 0.0557664722932 0)
(-1.24804628311 0.0262894823275 0)
(-0.282890850076 0.00595895689476 0)
(-0.132752165319 0.00279635919863 0)
(-0.128255617767 0.00366331297073 0)
(-0.128255213425 0.00366330142169 0)
(-0.0286176573704 0.00081739449127 0)
(-0.757785954331 0.015962389155 0)
(-0.0790648397438 0.00166830900705 0)
(-0.0791465331307 0.00167003277976 0)
(-0.00589677759743 5.85722271313e-05 0)
(0 0 0)
(0 0 0)
(0 0 0)
(-0.0289784005423 0.000611459237649 0)
(0 0 0)
(0 0 0)
(0 0 0)
(0 0 0)
(0 0 0)
(0 0 0)
(0 0 0)
(0 0 0)
(0 0 0)
(0 0 0)
(0 0 0)
(0 0 0)
(0 0 0)
(0 0 0)
(0 0 0)
(0 0 0)
(0 0 0)
(0 0 0)
(0 0 0)
(0 0 0)
(0 0 0)
(0 0 0)
(0 0 0)
(0 0 0)
(0 0 0)
(0 0 0)
(0 0 0)
(0 0 0)
(0 0 0)
(0 0 0)
(0 0 0)
(0 0 0)
(0 0 0)
(0 0 0)
(0 0 0)
(0 0 0)
(0 0 0)
(0 0 0)
(0 0 0)
(0 0 0)
(0 0 0)
(0 0 0)
(0 0 0)
(0 0 0)
(0 0 0)
(-0.077790422187 0.00222189614426 0)
(0 0 0)
(0 0 0)
(-0.0488818590608 0.00103143250548 0)
(-0.103227765635 0.00217815923923 0)
(0 0 0)
(0 0 0)
(-0.0471823573891 0.00134765045635 0)
(0 0 0)
(0 0 0)
(-0.10289157969 0.00217106554193 0)
(-0.0482134906758 0.00101732958691 0)
(0 0 0)
(0 0 0)
(0 0 0)
(0 0 0)
(0 0 0)
(-0.0291865319479 0.000615850917942 0)
(0 0 0)
(0 0 0)
(0 0 0)
(0 0 0)
(0 0 0)
(0 0 0)
(0 0 0)
(0 0 0)
(0 0 0)
(0 0 0)
(0 0 0)
(0 0 0)
(0 0 0)
(0 0 0)
(0 0 0)
(0 0 0)
(0 0 0)
(0 0 0)
(0 0 0)
(0 0 0)
(0 0 0)
(0 0 0)
(0 0 0)
(0 0 0)
(0 0 0)
(0 0 0)
(0 0 0)
(0 0 0)
(0 0 0)
(0 0 0)
(0 0 0)
(0 0 0)
(0 0 0)
(0 0 0)
(0 0 0)
(0 0 0)
(0 0 0)
(0 0 0)
(0 0 0)
(0 0 0)
(0 0 0)
(0 0 0)
(0 0 0)
(0 0 0)
(0 0 0)
(0 0 0)
(0 0 0)
(0 0 0)
(0 0 0)
(0 0 0)
(0 0 0)
(0 0 0)
(0 0 0)
(0 0 0)
(0 0 0)
(0 0 0)
(0 0 0)
(0 0 0)
(0 0 0)
(0 0 0)
(0 0 0)
(0 0 0)
(0 0 0)
(0 0 0)
(0 0 0)
(0 0 0)
(0 0 0)
(0 0 0)
(0 0 0)
(0 0 0)
(0 0 0)
(0 0 0)
(0 0 0)
(0 0 0)
(0 0 0)
(0 0 0)
(0 0 0)
(0 0 0)
(0 0 0)
(0 0 0)
(0 0 0)
(0 0 0)
(0 0 0)
(0 0 0)
(0 0 0)
(0 0 0)
(0 0 0)
(0 0 0)
(0 0 0)
(0 0 0)
(0 0 0)
(0 0 0)
(0 0 0)
(0 0 0)
(0 0 0)
(0 0 0)
(0 0 0)
(0 0 0)
(0 0 0)
(0 0 0)
(0 0 0)
(0 0 0)
(0 0 0)
(0 0 0)
(0 0 0)
(0 0 0)
(0 0 0)
(0 0 0)
(0 0 0)
(0 0 0)
(0 0 0)
(0 0 0)
(0 0 0)
(0 0 0)
(0 0 0)
(0 0 0)
(0 0 0)
(0 0 0)
(0 0 0)
(0 0 0)
(0 0 0)
(0 0 0)
(0 0 0)
(0 0 0)
(0 0 0)
(0 0 0)
(0 0 0)
(0 0 0)
(0 0 0)
(0 0 0)
(0 0 0)
(0 0 0)
(0 0 0)
(0 0 0)
(0 0 0)
(0 0 0)
(0 0 0)
(0 0 0)
(0 0 0)
(0 0 0)
(0 0 0)
(0 0 0)
(0 0 0)
(0 0 0)
(0 0 0)
(0 0 0)
(0 0 0)
(0 0 0)
(0 0 0)
(0 0 0)
(0 0 0)
(0 0 0)
(0 0 0)
(0 0 0)
(0 0 0)
(0 0 0)
(0 0 0)
(0 0 0)
(0 0 0)
(0 0 0)
(0 0 0)
(0 0 0)
(0 0 0)
(0 0 0)
(0 0 0)
(0 0 0)
(0 0 0)
(0 0 0)
(0 0 0)
(0 0 0)
(0 0 0)
(0 0 0)
(0 0 0)
(-0.00221845362212 3.09125064473e-05 0)
(-0.0036212607712 5.04595840188e-05 0)
(-0.00137443612636 1.91427217778e-05 0)
(-0.00221051950967 3.08019504727e-05 0)
(-0.121589120664 0.00211728692666 0)
(-0.0729927319546 0.00127105580059 0)
(-0.00323804206046 4.51197154056e-05 0)
(-0.00165207125171 2.30203880355e-05 0)
(-0.00191876661789 2.67365902335e-05 0)
(-0.00102096576618 1.42196957951e-05 0)
(-0.0103370235053 0.000179922098778 0)
(-0.0271770221656 0.000473245907385 0)
(-0.00630425322594 0.000109729311446 0)
(-0.0005728452309 7.9784114129e-06 0)
(-0.000133418964921 1.85821812769e-06 0)
(-0.000350946490898 4.88787431101e-06 0)
(-7.99673734842e-05 1.11376087441e-06 0)
(0 0 0)
(-0.00090428479076 1.31224756121e-05 0)
(0 0 0)
(-2.00401367812e-05 1.91347798261e-07 0)
(0 0 0)
(-1.16359552864e-05 1.11102755885e-07 0)
(0 0 0)
(0 0 0)
(0 0 0)
(0 0 0)
(0 0 0)
(0 0 0)
(0 0 0)
(0 0 0)
(0 0 0)
(0 0 0)
(0 0 0)
(0 0 0)
(0 0 0)
(0 0 0)
(0 0 0)
(0 0 0)
(0 0 0)
(0 0 0)
(0 0 0)
(0 0 0)
(0 0 0)
(0 0 0)
(0 0 0)
(0 0 0)
(0 0 0)
(0 0 0)
(0 0 0)
(0 0 0)
(0 0 0)
(0 0 0)
(0 0 0)
(0 0 0)
(0 0 0)
(0 0 0)
(0 0 0)
(0 0 0)
(0 0 0)
(0 0 0)
(0 0 0)
(0 0 0)
(0 0 0)
(0 0 0)
(0 0 0)
(-0.0421810393857 0.000734517716361 0)
(-0.00548339499018 9.54417811429e-05 0)
(-0.00903765333115 0.000157305780966 0)
(-0.000463577064368 6.45655814452e-06 0)
(-0.0007606437246 1.05940108185e-05 0)
(-8.80777257593e-05 1.22671935545e-06 0)
(-0.000159895544155 2.22697574414e-06 0)
(-0.026436800414 0.00046035608773 0)
(-0.00919557780651 0.000160054551252 0)
(-0.00576371036459 0.00010032083849 0)
(-0.00068924653766 9.59961285481e-06 0)
(-0.00039009615434 5.43313872933e-06 0)
(-0.000154274603761 2.14868902275e-06 0)
(-8.96342646985e-05 1.24839834895e-06 0)
(-0.00237817952264 4.13936420639e-05 0)
(-0.00225331772716 3.92203475669e-05 0)
(-0.000521827470726 7.57246868276e-06 0)
(-0.000136452071997 1.90046230607e-06 0)
(-2.93722634154e-05 3.68365380499e-07 0)
(-3.13548535685e-05 3.93229571787e-07 0)
(-4.1800473236e-06 3.59334298955e-08 0)
(0 0 0)
(0 0 0)
(0 0 0)
(0 0 0)
(0 0 0)
(0 0 0)
(0 0 0)
(0 0 0)
(0 0 0)
(0 0 0)
(0 0 0)
(0 0 0)
(0 0 0)
(0 0 0)
(0 0 0)
(0 0 0)
(0 0 0)
(0 0 0)
(0 0 0)
(0 0 0)
(0 0 0)
(0 0 0)
(0 0 0)
(0 0 0)
(0 0 0)
(0 0 0)
(0 0 0)
(0 0 0)
(0 0 0)
(0 0 0)
(0 0 0)
(0 0 0)
(0 0 0)
(0 0 0)
(0 0 0)
(0 0 0)
(0 0 0)
(0 0 0)
(0 0 0)
(0 0 0)
(0 0 0)
(0 0 0)
(0 0 0)
(0 0 0)
(0 0 0)
(0 0 0)
(0 0 0)
(0 0 0)
(0 0 0)
(-0.00118400349787 2.06082915637e-05 0)
(0 0 0)
(0 0 0)
(-9.45628613847e-06 9.02907775566e-08 0)
(-1.77308151422e-05 1.69297868366e-07 0)
(0 0 0)
(0 0 0)
(-0.000723587175507 1.05002927848e-05 0)
(0 0 0)
(0 0 0)
(-1.7388934319e-05 1.66033512264e-07 0)
(-1.05408086986e-05 1.00646046401e-07 0)
(0 0 0)
(0 0 0)
(0 0 0)
(0 0 0)
(0 0 0)
(0 0 0)
(0 0 0)
(0 0 0)
(0 0 0)
(0 0 0)
(0 0 0)
(0 0 0)
(0 0 0)
(0 0 0)
(0 0 0)
(0 0 0)
(0 0 0)
(0 0 0)
(0 0 0)
(0 0 0)
(0 0 0)
(0 0 0)
(0 0 0)
(0 0 0)
(0 0 0)
(0 0 0)
(0 0 0)
(0 0 0)
(0 0 0)
(0 0 0)
(0 0 0)
(0 0 0)
(0 0 0)
(0 0 0)
(0 0 0)
(0 0 0)
(0 0 0)
(0 0 0)
(0 0 0)
(0 0 0)
(0 0 0)
(0 0 0)
(0 0 0)
(0 0 0)
(0 0 0)
(0 0 0)
(0 0 0)
(0 0 0)
(0 0 0)
(0 0 0)
(0 0 0)
(0 0 0)
(0 0 0)
(0 0 0)
(0 0 0)
(0 0 0)
(0 0 0)
(0 0 0)
(0 0 0)
(0 0 0)
(0 0 0)
(0 0 0)
(0 0 0)
(0 0 0)
(0 0 0)
(0 0 0)
(0 0 0)
(0 0 0)
(0 0 0)
(0 0 0)
(0 0 0)
(0 0 0)
(0 0 0)
(0 0 0)
(0 0 0)
(0 0 0)
(0 0 0)
(0 0 0)
(0 0 0)
(0 0 0)
(0 0 0)
(0 0 0)
(0 0 0)
(0 0 0)
(0 0 0)
(0 0 0)
(0 0 0)
(0 0 0)
(0 0 0)
(0 0 0)
(0 0 0)
(0 0 0)
(0 0 0)
(0 0 0)
(0 0 0)
(0 0 0)
(0 0 0)
(0 0 0)
(0 0 0)
(0 0 0)
(0 0 0)
(0 0 0)
(0 0 0)
(0 0 0)
(0 0 0)
(0 0 0)
(0 0 0)
(0 0 0)
(0 0 0)
(0 0 0)
(0 0 0)
(0 0 0)
(0 0 0)
(0 0 0)
(0 0 0)
(0 0 0)
(0 0 0)
(0 0 0)
(0 0 0)
(0 0 0)
(0 0 0)
(0 0 0)
(0 0 0)
(0 0 0)
(0 0 0)
(0 0 0)
(0 0 0)
(0 0 0)
(0 0 0)
(0 0 0)
(0 0 0)
(0 0 0)
(0 0 0)
(0 0 0)
(0 0 0)
(0 0 0)
(0 0 0)
(0 0 0)
(0 0 0)
(0 0 0)
(0 0 0)
(0 0 0)
(0 0 0)
(0 0 0)
(0 0 0)
(0 0 0)
(0 0 0)
(0 0 0)
(0 0 0)
(0 0 0)
(0 0 0)
(0 0 0)
(0 0 0)
(0 0 0)
(0 0 0)
(0 0 0)
(0 0 0)
(0 0 0)
(0 0 0)
(0 0 0)
(0 0 0)
(0 0 0)
(0 0 0)
(0 0 0)
(0 0 0)
(0 0 0)
(0 0 0)
(0 0 0)
(0 0 0)
(0 0 0)
(0 0 0)
(0 0 0)
(0 0 0)
(0 0 0)
(0 0 0)
(0 0 0)
(0 0 0)
(0 0 0)
(0 0 0)
(0 0 0)
(0 0 0)
(0 0 0)
(0 0 0)
(0 0 0)
(-7.16137883948 0.172049764965 0)
(-5.56435079312 0.133257020417 0)
(-6.29181894091 0.132534077537 0)
(-3.83074674625 0.0806927998182 0)
(-4.91069821094 0.117603119589 0)
(-5.55658972429 0.117046834989 0)
(-8.12319816 0.19543829004 0)
(-5.56431912712 0.133256262069 0)
(-2.62843534309 0.0629466895964 0)
(-2.98432308527 0.0628633008821 0)
(-2.98349496952 0.0628458570303 0)
(-3.82436236258 0.0915871684552 0)
(-3.82432373643 0.0915862434226 0)
(-4.33326203795 0.0912780377692 0)
(-1.59441151452 0.0381835250226 0)
(-3.37511992766 0.0808285533808 0)
(-1.41996339627 0.0299108319277 0)
(-2.3325917057 0.0491348992856 0)
(-2.97859459712 0.071332425974 0)
(-1.25354982453 0.026405411726 0)
(-1.80670965749 0.0432677152588 0)
(-0.753151827462 0.0180367435809 0)
(-0.355768488495 0.00852006828791 0)
(-0.672005663323 0.0141554694317 0)
(-0.247185316215 0.00520683735068 0)
(-0.31396436295 0.00751892845714 0)
(-0.593067401128 0.0124926736869 0)
(-0.853446430533 0.0204386338401 0)
(-1.24170503985 0.0297367869135 0)
(-1.59422269484 0.0381790031028 0)
(-1.81572448257 0.0382473449441 0)
(-0.670405090625 0.0141217541535 0)
(-2.31966439564 0.0555521348714 0)
(-0.853346945839 0.0204362513459 0)
(-0.975969048209 0.0205583089284 0)
(-0.586554513677 0.0140470127982 0)
(-0.168048298036 0.00402447946131 0)
(-0.192610455849 0.00405724470612 0)
(-0.317362571335 0.00668508678199 0)
(-0.244512879105 0.00585568001274 0)
(-0.40312305203 0.00965413195038 0)
(-0.46209487722 0.00973380176098 0)
(-0.0363879366196 0.000877129677294 0)
(-0.130876896698 0.00313428573141 0)
(-0.0325643011124 0.000687123594129 0)
(-0.0891638039234 0.00188140237393 0)
(-0.115497454016 0.00276597345497 0)
(-0.0287341576175 0.000606305585624 0)
(-0.0412335055904 0.000993931912938 0)
(-0.00912659811515 0.000162541129383 0)
(0 0 0)
(-0.00838393527118 0.000137391853756 0)
(0 0 0)
(0 0 0)
(-0.00577854108026 5.73977931249e-05 0)
(-0.010341680252 0.000184181265206 0)
(-0.0283383673701 0.000683095150082 0)
(-0.0618205914806 0.00148050116311 0)
(-0.069467301704 0.00146579599103 0)
(-0.0139940970904 0.000229328457186 0)
(-0.0899479674117 0.00215410540699 0)
(-0.0194769808749 0.000469491802408 0)
(-0.0223843673702 0.000472321727608 0)
(-0.00523073267626 5.25506938271e-05 0)
(0 0 0)
(0 0 0)
(0 0 0)
(0 0 0)
(0 0 0)
(-0.00450125609273 4.47106220107e-05 0)
(0 0 0)
(0 0 0)
(0 0 0)
(0 0 0)
(0 0 0)
(0 0 0)
(0 0 0)
(0 0 0)
(0 0 0)
(0 0 0)
(0 0 0)
(0 0 0)
(0 0 0)
(0 0 0)
(0 0 0)
(0 0 0)
(0 0 0)
(0 0 0)
(0 0 0)
(0 0 0)
(0 0 0)
(0 0 0)
(0 0 0)
(0 0 0)
(0 0 0)
(0 0 0)
(0 0 0)
(0 0 0)
(0 0 0)
(0 0 0)
(0 0 0)
(0 0 0)
(0 0 0)
(0 0 0)
(0 0 0)
(0 0 0)
(0 0 0)
(0 0 0)
(0 0 0)
(0 0 0)
(0 0 0)
(0 0 0)
(0 0 0)
(0 0 0)
(0 0 0)
(0 0 0)
(0 0 0)
(0 0 0)
(0 0 0)
(0 0 0)
(0 0 0)
(0 0 0)
(0 0 0)
(0 0 0)
(0 0 0)
(0 0 0)
(0 0 0)
(0 0 0)
(0 0 0)
(0 0 0)
(0 0 0)
(0 0 0)
(0 0 0)
(0 0 0)
(0 0 0)
(0 0 0)
(0 0 0)
(0 0 0)
(0 0 0)
(0 0 0)
(0 0 0)
(0 0 0)
(0 0 0)
(0 0 0)
(0 0 0)
(0 0 0)
(0 0 0)
(0 0 0)
(0 0 0)
(0 0 0)
(0 0 0)
(0 0 0)
(0 0 0)
(0 0 0)
(0 0 0)
(0 0 0)
(0 0 0)
(0 0 0)
(0 0 0)
(0 0 0)
(0 0 0)
(0 0 0)
(0 0 0)
(0 0 0)
(0 0 0)
(0 0 0)
(0 0 0)
(0 0 0)
(0 0 0)
(0 0 0)
(0 0 0)
(0 0 0)
(0 0 0)
(0 0 0)
(0 0 0)
(0 0 0)
(0 0 0)
(0 0 0)
(0 0 0)
(0 0 0)
(0 0 0)
(0 0 0)
(0 0 0)
(0 0 0)
(0 0 0)
(0 0 0)
(0 0 0)
(0 0 0)
(0 0 0)
(0 0 0)
(0 0 0)
(0 0 0)
(0 0 0)
(0 0 0)
(0 0 0)
(0 0 0)
(0 0 0)
(0 0 0)
(0 0 0)
(0 0 0)
(0 0 0)
(0 0 0)
(0 0 0)
(0 0 0)
(0 0 0)
(0 0 0)
(0 0 0)
(0 0 0)
(0 0 0)
(0 0 0)
(0 0 0)
(0 0 0)
(0 0 0)
(0 0 0)
(0 0 0)
(0 0 0)
(0 0 0)
(0 0 0)
(0 0 0)
(0 0 0)
(0 0 0)
(0 0 0)
(0 0 0)
(0 0 0)
(0 0 0)
(0 0 0)
(0 0 0)
(0 0 0)
(0 0 0)
(0 0 0)
(0 0 0)
(0 0 0)
(0 0 0)
(0 0 0)
(0 0 0)
(0 0 0)
(0 0 0)
(0 0 0)
(-1.24155235144 0.0297331302781 0)
(-2.20459643964 -0.106377641046 0.00163729065765)
(-1.86848569562 0.0339835019472 5.51137616e-05)
(-0.6828035722 0.0143829220819 0)
(-2.67672765554 -0.0282024743078 0.000948598745584)
(-0.98987797744 0.0208512936952 0)
(-0.853301424117 0.0204351611757 0)
(-1.59419922744 0.0381784410973 0)
(-3.37484625042 0.0808219992625 0)
(-2.35584891346 0.049624800951 0)
(-1.42787055672 0.0300773923812 0)
(-3.05910188576 0.0536738916829 0.000199922489643)
(-1.80644834917 0.0432614573556 0)
(-1.2653767418 0.0266545399329 0)
(-0.586448166209 0.0140444659519 0)
(-0.168023631057 0.00402388872787 0)
(-0.323444410381 0.00681319773612 0)
(-0.196165809136 0.0041321364779 0)
(-0.244472982356 0.00585472455144 0)
(-0.46902059879 0.00987968868624 0)
(-0.403060684418 0.009652638349 0)
(-0.753016838068 0.0180335108076 0)
(-0.355725418456 0.00851903683154 0)
(-0.677459534944 0.0142703525603 0)
(-0.251198950619 0.00529138258923 0)
(-0.85329410536 0.0204349859036 0)
(-0.313913147526 0.00751770193225 0)
(-0.599852090422 0.0126355898365 0)
(-1.594184742 0.038178094195 0)
(-3.37480993053 0.0808211294609 0)
(-2.33183941958 0.0491190527477 0)
(-1.42425511754 0.0300012349294 0)
(-2.97826859247 0.0713246187004 0)
(-1.80645567436 0.0432616327819 0)
(-1.25452632746 0.0264259812809 0)
(-1.24152638108 0.0297325083308 0)
(-1.59414717324 0.0381771944851 0)
(-1.81531083132 0.0382386315834 0)
(-0.669536143484 0.0141034502085 0)
(-2.31947593485 0.0555476215464 0)
(-0.853284489794 0.0204347556266 0)
(-0.974867579646 0.0205351070338 0)
(-0.753055895933 0.018034446179 0)
(-0.355727628941 0.008519089769 0)
(-0.675792039499 0.0142352275873 0)
(-0.248943770178 0.00524387832025 0)
(-0.853314076551 0.0204354641806 0)
(-0.313928902333 0.00751807923387 0)
(-0.594908549859 0.0125314565811 0)
(-0.586478699972 0.0140451971851 0)
(-0.168026834249 0.00402396543905 0)
(-0.317251523249 0.00668274760858 0)
(-0.19351925941 0.00407638820703 0)
(-0.403072660143 0.00965292514784 0)
(-0.244481594644 0.00585493080153 0)
(-0.46205958968 0.00973305844629 0)
(-0.277009284589 0.00663391530561 0)
(-0.966885204626 0.0231553053077 0)
(-0.406353571465 0.00855963851689 0)
(-0.406532635542 0.00856341041378 0)
(-0.517531241349 0.0123940193132 0)
(-0.517530354771 0.0123939980811 0)
(-0.217768469028 0.00458718590447 0)
(-0.130848651876 0.00313360931454 0)
(-0.101920043367 0.00244081687241 0)
(-0.192366807503 0.00405211237332 0)
(-0.0422528727329 0.000891557465776 0)
(-0.244474700082 0.00585476568814 0)
(-0.0529396958191 0.00127610913461 0)
(-0.101356240077 0.00213866908209 0)
(-0.130851735214 0.00313368315538 0)
(-0.101911278715 0.00244060697346 0)
(-0.192385659903 0.00405250948988 0)
(-0.042306779139 0.000892694918821 0)
(-0.244473535546 0.00585473779942 0)
(-0.0529403516007 0.0012761249422 0)
(-0.101352271383 0.00213858534061 0)
(-0.0618092666738 0.00148022995267 0)
(-0.0091265155275 0.00016253965853 0)
(-0.0199250951879 0.000420429812745 0)
(-0.0199547799514 0.000421056176607 0)
(-0.0250059243613 0.000602766751925 0)
(-0.0250061011817 0.000602771014174 0)
(-0.0478485682919 0.00100962953589 0)
(0 0 0)
(-0.0363889129473 0.000877153211631 0)
(-0.00849183449675 0.000139160053788 0)
(-0.0140822561232 0.000230773164541 0)
(-0.0103428184518 0.000184201536099 0)
(-0.0194750778941 0.000469445931136 0)
(0 0 0)
(0 0 0)
(0 0 0)
(0 0 0)
(0 0 0)
(0 0 0)
(0 0 0)
(0 0 0)
(0 0 0)
(0 0 0)
(-0.00518565536624 5.15087060548e-05 0)
(0 0 0)
(-0.00805396132837 0.000143437889321 0)
(0 0 0)
(0 0 0)
(0 0 0)
(0 0 0)
(0 0 0)
(0 0 0)
(0 0 0)
(0 0 0)
(0 0 0)
(0 0 0)
(0 0 0)
(0 0 0)
(0 0 0)
(0 0 0)
(0 0 0)
(0 0 0)
(0 0 0)
(0 0 0)
(0 0 0)
(0 0 0)
(0 0 0)
(0 0 0)
(0 0 0)
(0 0 0)
(0 0 0)
(0 0 0)
(0 0 0)
(0 0 0)
(0 0 0)
(0 0 0)
(0 0 0)
(0 0 0)
(0 0 0)
(0 0 0)
(0 0 0)
(0 0 0)
(0 0 0)
(0 0 0)
(0 0 0)
(0 0 0)
(0 0 0)
(0 0 0)
(0 0 0)
(0 0 0)
(0 0 0)
(0 0 0)
(0 0 0)
(0 0 0)
(0 0 0)
(0 0 0)
(0 0 0)
(0 0 0)
(0 0 0)
(0 0 0)
(0 0 0)
(0 0 0)
(0 0 0)
(0 0 0)
(0 0 0)
(0 0 0)
(0 0 0)
(0 0 0)
(0 0 0)
(0 0 0)
(0 0 0)
(0 0 0)
(0 0 0)
(0 0 0)
(0 0 0)
(0 0 0)
(0 0 0)
(0 0 0)
(0 0 0)
(0 0 0)
(0 0 0)
(0 0 0)
(0 0 0)
(0 0 0)
(0 0 0)
(0 0 0)
(0 0 0)
(0 0 0)
(0 0 0)
(0 0 0)
(0 0 0)
(0 0 0)
(0 0 0)
(0 0 0)
(0 0 0)
(0 0 0)
(0 0 0)
(0 0 0)
(0 0 0)
(0 0 0)
(0 0 0)
(0 0 0)
(0 0 0)
(0 0 0)
(0 0 0)
(0 0 0)
(0 0 0)
(0 0 0)
(0 0 0)
(0 0 0)
(0 0 0)
(0 0 0)
(0 0 0)
(0 0 0)
(0 0 0)
(0 0 0)
(0 0 0)
(0 0 0)
(0 0 0)
(0 0 0)
(0 0 0)
(0 0 0)
(0 0 0)
(0 0 0)
(0 0 0)
(0 0 0)
(0 0 0)
(0 0 0)
(0 0 0)
(0 0 0)
(0 0 0)
(0 0 0)
(0 0 0)
(0 0 0)
(0 0 0)
(0 0 0)
(0 0 0)
(0 0 0)
(0 0 0)
(0 0 0)
(0 0 0)
(0 0 0)
(0 0 0)
(0 0 0)
(0 0 0)
(0 0 0)
(0 0 0)
(0 0 0)
(0 0 0)
(0 0 0)
(0 0 0)
(0 0 0)
(0 0 0)
(0 0 0)
(0 0 0)
(0 0 0)
(0 0 0)
(0 0 0)
(0 0 0)
(0 0 0)
(0 0 0)
(0 0 0)
(0 0 0)
(0 0 0)
(0 0 0)
(0 0 0)
(0 0 0)
(0 0 0)
(0 0 0)
(0 0 0)
(0 0 0)
(0 0 0)
(0 0 0)
(0 0 0)
(0 0 0)
(0 0 0)
(0 0 0)
(0 0 0)
(0 0 0)
(0 0 0)
(0 0 0)
(0 0 0)
(0 0 0)
(-0.02833756843 0.000683075891666 0)
(-0.0618121235854 0.00148029837099 0)
(-0.0711151592246 0.00150056663691 0)
(-0.0144281886488 0.000236442138528 0)
(-0.0899369191971 0.00215384082048 0)
(-0.0230809764467 0.000487020539372 0)
(-0.0194761697294 0.00046947224978 0)
(-0.0363863581596 0.000877091628582 0)
(-0.130866011637 0.00313402505215 0)
(-0.0912594668497 0.00192562194544 0)
(-0.0335796619086 0.000708548232024 0)
(-0.115483976203 0.00276565068361 0)
(-0.0412318577144 0.000993892190958 0)
(-0.0296353651965 0.000625321531602 0)
(-0.00523151745682 5.25585781457e-05 0)
(0 0 0)
(0 0 0)
(0 0 0)
(0 0 0)
(-0.0046974799543 4.66596981626e-05 0)
(0 0 0)
(-0.00912784099286 0.000162563264547 0)
(0 0 0)
(-0.00874670008595 0.000143336667112 0)
(0 0 0)
(-0.010343376294 0.000184211471048 0)
(0 0 0)
(-0.00603076242248 5.99030878388e-05 0)
(-0.0363884845553 0.00087714288526 0)
(-0.13086793582 0.00313407113316 0)
(-0.090515787623 0.00190992992917 0)
(-0.0335261355506 0.000707418798189 0)
(-0.115490509358 0.00276580714188 0)
(-0.0412330010382 0.00099391975073 0)
(-0.0295171899235 0.000622827972228 0)
(-0.0283391974404 0.000683115158892 0)
(-0.0618158193222 0.00148038687779 0)
(-0.0703083548139 0.0014835426466 0)
(-0.014283403995 0.000234069478037 0)
(-0.089943077452 0.00215398830053 0)
(-0.0194771437924 0.000469495729528 0)
(-0.0229207381348 0.000483639428125 0)
(-0.00912818270516 0.000162569350309 0)
(0 0 0)
(-0.00874547566952 0.000143316601971 0)
(0 0 0)
(-0.0103435896117 0.000184215270154 0)
(0 0 0)