/*--------------------------------*- C++ -*----------------------------------*\
| =========                 |                                                 |
| \\      /  F ield         | OpenFOAM: The Open Source CFD Toolbox           |
|  \\    /   O peration     | Version:  v1906                                 |
|   \\  /    A nd           | Web:      www.OpenFOAM.com                      |
|    \\/     M anipulation  |                                                 |
\*---------------------------------------------------------------------------*/
FoamFile
{
    version     2.0;
    format      ascii;
    class       volScalarField;
    location    "7";
    object      p;
}
// * * * * * * * * * * * * * * * * * * * * * * * * * * * * * * * * * * * * * //

dimensions      [1 -1 -2 0 0 0 0];


internalField   nonuniform List<scalar> 
28582
(
17100.5836218
17098.4113887
12202.0134415
12199.8223855
7302.09574852
7299.23379902
3629.1194416
3622.90419392
33.8699226049
41.051086763
-27.8546632768
3624.97049668
634.886036273
633.223949905
3622.71331888
3621.67399507
632.565994498
1784.89641817
1784.43608783
17103.0110355
17097.8262019
17098.0712494
12205.2524315
12199.636575
12200.2296539
7307.74353097
7300.55684895
3638.58438046
3624.53270932
41.9570540619
-27.3804582675
-27.204366623
3634.55385737
3634.62342112
630.583082731
631.982888473
1801.71983909
3627.40681716
3624.40135044
3627.86543593
1787.03351727
644.401172368
1786.89992518
1792.51448154
37.4381916225
42.9455387681
-23.1565673555
-23.1083277295
39.7896549741
-23.0869181995
1794.18813658
1788.61537786
634.399094477
635.290544817
1792.7137397
634.436593779
1790.51925517
1785.04178595
1784.2388494
633.878203426
632.938614565
1782.25625578
633.523951309
1787.18842427
1781.71024482
1782.58331988
632.690319144
632.398029265
1781.17623503
632.835141902
1782.53713631
1785.26314828
636.433312483
637.152551067
1783.32197024
633.97606634
634.543626749
1783.78702898
1783.56559818
637.65460658
638.080488991
1782.60637768
635.463619005
1781.00322146
635.025446318
27.9798416926
-23.0894415884
23.0211740448
26.775997092
-23.0866256086
-23.0569010569
42.9829240794
-23.1207609958
-23.0648059634
42.995241873
-23.131632152
42.4374105845
-23.0723629468
1803.73608561
1805.51302305
631.272770367
631.137159214
1803.40718468
1805.64121722
632.070869273
1801.28446907
1798.06548182
631.700841366
632.796678332
1800.83888002
1798.52824292
632.658961092
634.561489003
634.6199326
1798.54139542
1801.56029634
633.625010322
1798.6933764
633.528799416
1787.25437778
638.985268446
639.726381703
1789.47605467
641.085987976
1789.55783069
641.776878109
1791.82787499
1793.98946732
642.922086007
644.978702734
1791.84741031
1794.08691174
643.552273001
1789.73719037
1786.52948543
640.185752066
640.66973913
642.75041451
1789.66732582
642.219463818
644.674797108
646.193962112
1794.95476205
1792.25591643
645.397111943
1794.61512614
643.93215066
7302.19563354
3629.66363414
41.7752650112
-27.2205073384
3630.17650399
634.343888293
3630.51056353
3631.6135659
645.463180543
647.135569177
647.97942828
3631.10766147
3629.56435349
647.530801808
644.432218246
31.7025601094
42.2538749756
41.9476827658
-23.0646635292
-23.1054586504
-23.0735032463
42.2567697063
43.0084379569
1792.46223182
1795.19556391
633.607167427
634.142477075
1795.68748734
633.620311874
1791.80046342
1796.8190924
1795.55550478
645.985340993
645.900825691
1796.41847396
1795.78739496
646.406419077
1797.37450818
1796.69095762
646.350925641
647.643578058
1796.31997159
646.856097044
1797.86257287
1797.7469333
1798.3528505
646.970083982
647.933032222
1797.49090824
647.093377676
1798.43587711
1794.94997308
1797.48207694
646.453528943
646.597742773
1796.55734045
645.492748716
1795.82759666
1793.12226977
1792.30351067
643.47006841
645.339536195
1791.43618137
644.37163838
1794.01326223
3655.56565473
3650.75599093
3648.97407576
3646.9587239
16.2094191547
16.6927795136
13.7522152874
14.9882635633
13.9023376092
-27.1291337213
-27.245493295
-27.0854507594
-27.1555179202
-27.0705602058
-27.0932946344
3658.14624862
3657.0097683
631.650083888
631.768800254
3658.22647652
632.367510637
3655.08394578
3652.94475836
630.140393094
626.275405265
3655.19715606
3652.88486084
3652.31891559
630.930060504
632.088457472
627.13188939
628.441627831
3650.78844549
3648.18475326
631.955566427
628.555873156
628.689534787
627.001119187
3650.2280132
3648.65251562
626.131480082
627.392326984
625.10054339
3647.23950237
3647.86447149
3646.68871593
627.716878358
626.174988237
625.137250692
624.636234732
624.642255741
624.295795833
16.5864794381
16.9653958872
18.3512633781
-23.1674848895
-23.1891634797
-23.1962133786
-23.2208168636
-23.2357495933
-23.1999225825
-23.2581376676
-23.2110756098
14.8719232164
13.3104463526
16.658262643
14.6534714569
15.3597173366
-23.2209773514
-23.2443237208
-23.2246715346
-23.2444511881
16.6158265751
15.8105170495
15.4875271757
-23.2716120937
-23.2416477838
-23.2708629279
-23.2335264683
14.4371053692
14.0321505907
-23.2209840222
-23.2437251941
-23.2460621829
14.8563102887
14.2472742751
14.3209482564
-23.2587563291
-23.225114781
-23.2536371109
-23.2285613057
1820.33125719
1820.78457061
630.750798011
632.229946346
1820.66571172
631.262198467
1820.3879307
1820.08939953
1819.69796646
632.503343285
630.688032437
1820.33044814
1819.47549124
631.438781873
1821.24765526
1819.94574102
633.005406071
632.864346015
1820.64293899
1820.44537402
633.518550346
1817.6736334
1818.88594569
629.150447165
628.692492393
1818.61921834
1817.99487178
627.77849383
1816.70605123
1815.99814641
627.350736855
625.383788251
1816.98379723
1815.75128458
626.479445847
1818.47272183
1819.12207037
631.560688809
629.589384394
1819.50995292
1818.24380393
630.241647568
1818.51702759
1819.69335838
631.88886392
630.858294167
1819.74239082
1818.28982831
630.594764682
1817.33247014
1816.17587034
628.192674827
627.793054208
1817.17951332
1816.26098535
628.892322343
1817.36492299
1816.00014162
629.49987565
628.128948447
1817.085495
1816.2114326
629.211988041
1816.6069937
1819.1315857
631.450601265
630.927444746
1817.79875529
1817.66798693
630.474602302
1814.66437064
1812.21312045
630.452632213
627.978969624
1815.47944463
629.511238475
1812.05399879
1815.64889552
1815.56368824
629.589495577
628.431114044
1816.54743679
1814.77534216
629.299574527
1814.07813649
1812.01243112
627.608504249
627.839291953
1813.60188213
628.777205587
1812.07740824
1814.15961209
1815.13313192
626.71825177
625.316942595
1815.16149014
1814.11497517
625.881736706
1814.11807864
1814.94279126
627.062461629
626.544228204
1815.11858958
1813.96324957
626.214624676
1813.17465547
1812.27288051
625.766827894
624.839677556
1813.05904657
1812.3618561
625.45629724
1813.0719985
1814.56654076
627.496036188
626.784636179
1813.87822158
1813.63234007
626.604347352
1812.3297486
1811.77626549
626.907304002
625.553617314
1812.95260575
626.153045746
1811.41218133
1812.35082857
1812.04169466
625.841158061
625.148819576
1812.77450225
1811.71829163
625.780406211
1811.76581554
1810.62754204
625.043560502
625.035569445
1811.24371665
625.551046587
1811.01772732
1810.79985421
1811.48199889
624.687610376
624.387498997
1811.20147209
1811.05448401
624.431528498
1810.27834337
624.612072981
1810.78572993
17099.5227461
17097.2515779
17096.6827472
17098.243112
17098.3561946
17102.7061948
12201.240389
12198.8395267
12198.5170355
12200.3268367
12200.1467015
12204.223203
18317.097219
18318.1128591
17087.3013142
17090.8124293
17094.4210628
17097.6259853
17102.7150126
17094.7273352
18318.3045809
18319.1140323
17093.1048899
17093.2824388
17094.3145299
17095.1759558
17095.5861189
17099.0049957
17098.632728
17095.411963
17093.898458
17094.0633113
17094.6735096
17094.9056468
17095.2594879
17099.869394
17101.5192485
17097.8001717
17095.7929696
17095.6924458
17096.1878015
17096.1355814
17096.1351385
17100.761489
17096.959352
17096.9296736
17096.7887016
17101.3387557
13417.1476162
13417.6436452
12191.1674838
12191.7653201
12194.1900324
12199.6931301
12211.0929353
12168.382127
13420.6636372
13420.4706468
12195.8962069
12196.0475104
12195.7774654
12195.3670808
12194.9567887
12188.8071514
12200.4958509
12197.5534584
12195.7674736
12195.5100688
12195.682549
12195.5589728
12195.0231782
12197.1794009
12203.7197382
12199.791314
12197.6499943
12197.5332083
12198.0248972
12197.7665412
12196.8967658
12200.7867829
12198.96458
12198.6749639
12198.1104303
12202.3447025
8517.85656883
8518.72150332
7290.84130482
7290.52179149
7294.87048773
7300.46507474
7309.87405516
7259.65696526
8522.66973907
8523.05180248
7290.4169049
7291.65585341
7295.57805483
7296.59112645
7292.62857562
7282.10189017
7303.52119194
7298.92328904
7294.50091868
7294.88418053
7296.78929151
7296.82855629
7293.96325599
7295.20649357
7312.24460968
7306.60836899
7300.8448533
7297.17587562
7297.45707262
7298.94208662
7298.51967591
7295.88109524
7299.59309462
7302.29427272
7298.96670986
7299.43234548
7300.72827269
7300.02458098
7297.84041987
7302.30093536
7301.94941991
7300.2826184
7304.82349985
3624.62576054
3625.25734398
3615.26776141
3610.51728864
3619.22696731
3626.99562685
3631.73962582
3638.37486197
3628.68987095
3628.01342402
3627.25383348
3616.33796938
3612.22231372
3620.51173157
3624.86989707
3624.2289694
3619.17000295
3645.16842699
3639.07615955
3634.27893014
3627.7271254
3617.87870269
3615.77330083
3622.26621837
3625.83863001
3623.4837236
3621.52551312
3642.55550692
3637.94986064
3628.63827444
3621.03529774
3620.63529121
3625.23011731
3627.24216788
3624.23556219
3622.56069408
3630.18013603
3623.49851329
3623.71114326
3627.74448827
3628.05513058
3624.87632167
3624.31800077
3629.79084268
3626.77950587
3627.02321965
18.210541862
25.8934594614
37.7809386749
45.572314628
50.8404904126
44.1693831235
41.4520542905
43.0230417192
16.6340750031
16.8638476753
19.0816742435
26.4223869496
36.849098237
42.895384909
45.8409617865
43.3886214825
42.0419715686
42.7960530931
14.2719467264
14.4922929584
19.3888301724
29.2680187819
36.5345605689
41.0590223654
42.4236842737
40.0191223234
40.844934253
42.1687000827
14.4229798376
20.7086661003
29.4217512379
34.8902304495
38.7528828829
40.8166348242
39.1421486997
40.4627082316
41.3965003596
30.3400774084
35.7948761004
39.0927363199
41.2903465771
40.1908930802
41.3230310324
41.716226748
41.2950918013
42.8244989557
43.5977059363
-27.1942242935
-27.0723144326
-27.1189084226
-27.387924826
-27.7992058217
-27.4010028341
-27.260289487
-27.1387314817
-27.2048549852
-27.5333916945
-27.1967341996
-27.0861773093
-27.1104702947
-27.1290216159
-27.256160706
-27.3991440844
-27.3350339082
-27.180463554
-27.2518724077
-27.5529584024
-27.1801637315
-26.9801915511
-27.0980048127
-27.0943626436
-27.1999029197
-27.2736722173
-27.3994096179
-27.1369886156
-27.2455698278
-27.4404207295
-27.0065197928
-27.1384623716
-27.1562726301
-27.2365871337
-27.2013048538
-27.4088916592
-27.1185759647
-27.2386575456
-27.4219353963
-27.5050408828
-27.6059707404
-27.5975230629
-27.3963570285
-27.1369216896
-27.2264878542
-27.5144139198
-27.0827044919
-27.2185198229
-27.6282809636
18317.8253742
18316.9008793
18317.9353566
15867.4306643
15868.4319858
15867.7676455
15868.5855756
18317.7452489
18318.6725879
18318.4951002
15868.8951176
15864.0631104
15868.785613
15866.4284396
18318.5873752
18320.7094846
18319.8151512
15869.3014336
15869.8126568
15871.4483739
15870.9540328
18318.7715704
18319.53509
18319.3286268
15869.9341484
15868.7114348
15870.8780116
15870.8346233
13417.7410772
13418.2809306
13418.6794036
10966.8923176
10967.7811091
10968.4864951
10969.1870456
13416.7586866
13418.2282798
13418.0289475
10967.7254588
10966.3599755
10968.8837905
10967.3365179
13420.8409647
13422.4593952
13422.1513795
10971.3958056
10971.7978472
10973.6504578
10972.8008147
13419.0890442
13421.7201023
13423.7565879
10971.6299678
10966.3657038
10971.915621
10973.2848993
8518.89729287
8519.89920773
8520.57846713
6070.28060967
6071.61192901
6072.30786168
6072.97705215
8516.85591986
8520.31966256
8518.69500932
6071.40872049
6069.19763374
6072.29054732
6071.47182438
8523.12475656
8525.05957773
8524.1465228
6074.70134454
6075.14321629
6077.09853953
6076.20936086
8517.23602521
8523.08832301
8522.6004095
6074.49536793
6070.90732468
6075.106532
6073.85473033
3621.39841947
3624.15584194
616.022074992
616.603651291
3626.71374072
3626.27924546
3627.81309028
617.714687773
626.995375344
618.629918252
627.887703444
3621.08829574
3626.21814663
3621.56622249
630.564461741
630.565665902
630.973542804
630.022716379
3610.22165343
3615.30837473
3611.01180501
627.480752835
623.239573364
627.126567012
623.320811538
3614.85579094
3611.13716803
3615.65244306
627.36346149
643.29435732
627.155079635
641.41468666
3623.52460511
3620.02323079
3623.35426697
647.280774868
649.173504878
644.962359771
647.277304933
3629.25241691
3625.75320592
3627.07973982
648.221606426
645.511982885
646.806917007
644.386337939
3633.69144745
3627.39461125
3625.19915549
644.84814797
643.836972721
643.441821089
641.331689816
3607.20262327
3619.21434406
3613.70259903
645.224807832
607.677531136
641.455119891
616.219672692
3644.78893916
3639.85010549
626.376157986
618.148169475
625.81875971
621.584945838
3627.23684161
3634.79997404
3631.93687349
616.57854801
617.475969004
620.508780344
620.924565802
3628.87549022
3630.9295903
3630.26620417
619.529536063
628.769473947
622.697342572
631.408087048
3622.31740756
3627.72375373
3622.94805333
631.775568981
630.225477935
633.459276699
629.521067209
3612.31471902
3617.90347555
3614.44350741
627.198764203
623.303217236
626.366616675
623.945692406
3616.42425589
3614.27101064
3617.82024175
627.253361318
640.209032831
628.06448553
638.735231844
3623.37901468
3621.47361996
3624.01833227
643.830754473
646.261710283
641.862067874
643.858828782
3625.09978394
3625.26604634
3624.74419026
645.941881418
643.915479932
643.475398576
642.131674215
3622.22850808
3623.44562468
3621.87401961
642.997963244
640.576266652
641.393177352
639.038135069
3622.67817629
3620.05695611
3626.90341262
640.725684195
617.417313201
639.300592525
618.7872801
3642.47075285
3645.15629622
3643.42332285
625.350578394
622.519825628
624.171028646
623.107364521
3636.38956763
3641.45605097
3639.40161296
621.529322214
622.049386759
623.21369979
626.302914454
3631.62380346
3636.70350377
3632.69831783
623.893500092
632.086572857
628.186527389
631.399321927
3622.55647479
3627.95482976
3622.87286908
633.614815714
628.976294795
631.103798932
628.155576824
3615.01158944
3619.29138862
3617.68086578
626.003566053
624.586084608
626.542222832
627.705341363
3618.93485974
3618.49487859
3621.00573626
628.679032386
638.832258157
630.928772251
639.70090771
3624.69469081
3623.89260338
3625.88395185
641.559973236
643.415668829
641.581840007
643.085631222
3624.95958976
3626.71780604
3625.64749313
643.071051408
641.874580151
642.590122039
641.134225378
3622.11578602
3623.95908637
3622.56012263
641.059073779
638.630301427
640.14505203
637.792132717
3628.6662767
3621.92938651
3629.35938472
638.921937414
619.065220663
637.687532366
619.322578522
623.934067919
623.247095178
3640.87638599
3641.39132429
623.485881833
627.474950104
628.841849691
3633.49533984
3638.37458109
3634.04159505
629.209728159
630.695898262
630.048710858
631.294796558
3623.9426425
3629.46046503
3625.12486856
630.410385947
628.663112373
631.398532429
630.590802411
3619.83622767
3622.4753894
3621.47691201
627.281483766
628.837134406
629.875531284
631.858155012
3622.80103128
3622.43086348
3624.46935491
631.618522421
639.875257953
634.039982207
641.242770098
3626.87840302
3626.52752636
3627.79436151
641.589521215
643.129617196
642.692092166
643.795134916
3626.0191534
3627.6369071
3626.18528742
642.694071102
640.893925468
642.932197526
640.139876581
3622.89184875
3624.4959098
3623.3359704
639.852307509
637.717085104
639.413822151
638.363698408
3629.78812799
3623.17100604
3630.22139278
637.539801279
619.894370652
638.314986102
621.556119787
3626.01044056
3626.05931769
632.100794528
631.30609216
633.169598724
3622.66550155
3623.6762614
3623.06587985
630.606336332
632.768907655
632.346851199
635.3349448
3625.82634578
3624.46028181
3626.85810743
634.923175252
641.788641077
637.742179547
643.837842194
3628.66151668
3628.83865986
3629.62772674
643.142266201
644.009803547
645.087634437
644.654194021
3626.37738128
3628.83541343
3627.08796215
642.864840883
640.213436692
643.668951614
641.074352906
3624.05088198
3625.64780127
3625.01499566
639.525587845
638.858262486
640.63579962
640.675168137
3630.8352801
3625.49557402
3631.59225804
638.916808527
621.404471251
641.088166551
623.096479019
3630.48483905
645.436508214
3628.15993366
644.490487893
641.666726465
3626.2589454
641.281392992
641.507070525
3632.62565346
642.275976863
623.36288302
-23.1829395491
-23.1777632973
-23.1857835804
-23.1726730172
18.3082483847
18.0026359156
-23.1416328031
-23.1579946981
-23.128003965
-23.1380670812
20.3167776557
18.5126247866
20.5513633712
-23.1739849893
-23.1547617836
-23.1524196937
-23.1249665395
32.1720812858
25.7983052582
31.8980017085
-23.1212160971
-23.0797475509
-23.0770519094
-23.0153182594
41.2903476689
37.136188643
40.2349308835
-23.0912833757
-23.0442182088
-23.0205468827
-22.9420830764
49.3840881002
43.9257555234
46.7256295792
-23.0022060126
-23.0750122236
-22.8920687581
-22.9695645515
47.4704336294
48.1372912404
46.2820962721
-23.1408674733
-23.1674976445
-23.0560133927
-23.1278563773
42.0388484144
44.2595998382
42.4672274296
-23.1491854199
-23.1773243459
-23.1173611405
-23.1697602929
42.5872359015
41.8496656987
43.0211638903
-23.1795790691
-23.1853200686
-23.1851769585
-23.1894358085
45.7829870921
42.7575053765
46.5505826759
-23.2256200822
-23.1280396598
-23.2346899542
-23.1241634487
16.5661952541
15.0178705253
15.1340196348
-23.2249253749
-23.1919669649
-23.2170947921
-23.1939848748
17.5506735954
15.7749234912
16.9899466793
-23.1389253405
-23.1303551003
-23.1329602798
-23.1211095575
21.5839121446
19.3571391659
23.2736757106
-23.1244398669
-23.0939979698
-23.089056249
-23.0674019897
31.8078987973
28.0997465002
32.501716392
-23.0021088369
-22.9093908694
-22.9505089102
-22.8672661672
39.6115185653
36.7855042734
38.9839289715
-22.8072014978
-22.7447102352
-22.7966118728
-22.7652037085
44.3877515828
42.0566349785
42.7502849521
-22.889372718
-22.9228387705
-22.9402101255
-22.9554371998
44.4302841184
44.0523072668
42.6427557471
-23.0343100629
-23.1113880663
-22.9741947557
-23.0720980543
42.3928477469
41.6201815631
41.2371140077
-23.0740807808
-23.1734216775
-23.0661388597
-23.172160141
43.1046714804
41.5232953737
42.8563629189
-23.1825121226
-23.1829420441
-23.1753000811
-23.175672333
46.8874654247
42.4736501897
46.7565627938
-23.2375937944
-23.1212828722
-23.2317669594
-23.1207772358
13.8848743511
14.0134472929
13.7569276256
-23.2161699401
-23.1770286103
-23.2227659782
-23.1661573437
16.300862404
14.0314383897
15.8932232275
-23.1252325923
-23.1120310235
-23.1180607521
-23.1185371719
24.1476735235
19.7660804893
24.8342621368
-23.05585599
-23.0150031932
-23.0485449897
-23.0026969781
33.1677943371
29.4632310617
32.9461476361
-22.9117235951
-22.8694717067
-22.9120577461
-22.898975013
38.1184672331
35.6156143897
36.9994549491
-22.8559396205
-22.8771246374
-22.9039546819
-22.9576489491
41.80490295
39.6827538131
41.0399269347
-22.9890976336
-22.9835164554
-23.0817776104
-23.0955212064
41.2926066898
41.2228214889
40.4143165614
-23.0428526721
-23.0866467682
-23.1183597835
-23.1229179905
40.16364237
39.000593279
39.5076635718
-23.0690576791
-23.1791854554
-23.0809453586
-23.1848837078
42.6453364907
40.4154691052
42.6134135213
-23.1671967752
-23.1667790731
-23.1603867181
-23.157384194
46.4765636278
41.6498254992
46.1158603776
-23.2129124129
-23.1249714172
-23.2058567746
-23.1258084908
16.488594996
17.8076844498
-23.1099335864
-23.1252025887
-23.1233945525
25.3511109024
21.9917380433
26.052594335
-23.0425024795
-22.9967440643
-23.04772103
-23.0136405051
32.7443028596
29.7188298578
32.8154766258
-22.9410950889
-22.9368717284
-22.9775223612
-22.9778206846
36.4438921571
34.9814498124
36.5567609398
-22.9432380694
-23.0006077332
-22.9789469531
-23.0233808827
40.5281460513
38.5251989868
40.3590398342
-23.0970771008
-23.1059523362
-23.0747930824
-23.0719892558
40.0678438608
40.9889897036
40.3464938531
-23.1177698975
-23.1190867372
-23.0822471465
-23.096351432
39.5925759004
39.6424257642
40.0247295749
-23.0829006151
-23.1569071885
-23.0708566807
-23.1240196529
42.624923642
40.8005610948
42.5742821942
-23.1284378464
-23.1320874965
-23.0995944293
-23.1063731886
46.0123780975
41.3547648685
45.5666100747
-23.1905045407
-23.1200904362
-23.175285561
-23.1167594533
33.4857606375
35.1541575181
-23.059545484
-23.0705012507
-23.0887990912
-23.1080359726
37.361597139
37.4795918308
38.8967884674
-23.0747992417
-23.0790970933
-23.0797265609
-23.0759868207
40.7964016126
40.5077636084
41.8339758395
-23.1207538947
-23.1164951749
-23.1032994471
-23.1125227892
40.9906326364
41.6176681638
41.1551000997
-23.03702762
-23.0797773455
-23.0814509598
-23.0808606829
40.7156535624
40.7407775305
41.356448928
-23.0426530965
-23.0819991032
-23.0297545329
-23.0597271081
42.6636540509
41.9535124271
43.000472619
-23.075875577
-23.0808277293
-23.060906068
-23.0633135359
45.1857914125
42.4743266627
45.3558841774
-23.1638352187
-23.1149670942
-23.1504486892
-23.1280773177
41.4083794172
-23.0582888737
42.0467659208
-23.0375201425
-23.0518341954
-23.0440774626
-23.0472216502
43.7392494948
-23.0503608127
-23.0518553934
-23.0397137874
-23.0430398877
46.2695744144
-23.1455154138
-23.1291032388
-23.135997387
-23.1191078364
1784.80230196
1786.43960814
614.060058611
616.032344199
1786.85092964
614.084887349
1784.11243041
1786.06639499
1789.16620579
616.23910067
615.314419778
1787.77558142
1787.6815922
614.540846599
1792.40055189
1789.06633312
620.456746374
617.950818385
1789.4629915
620.519717525
1792.12502202
1794.70138548
1796.02479431
623.574845907
626.950945098
1796.04986502
623.533017143
1794.55300953
1793.06201573
1791.51911941
618.176654489
621.399606686
1790.29547436
1793.96157217
620.812628169
1795.32253608
1797.22325582
627.33266732
624.541125107
1796.53675216
1796.06818254
623.939830674
1792.78262874
1795.77511073
632.322754475
630.280913493
1795.61090005
631.858122059
1793.05171605
1787.70980533
1781.15562002
632.195727821
630.186175446
1781.29831636
631.665847518
1787.84976812
1792.92883007
1796.41504722
630.472612292
632.139311785
1795.87461161
1793.32246402
631.865625164
1787.91958849
1781.80818167
630.056512434
631.643131066
1781.61300257
1788.21921638
631.536395035
1768.36196412
1774.1388579
624.607421527
627.486108519
1774.70269019
624.68858683
1767.50448118
1765.34416688
1764.47463882
622.112627152
622.990892196
1765.29112478
622.038672759
1764.43720763
1768.93732333
1775.25138198
627.299483389
624.373516166
1775.09221953
1769.20268078
624.518931661
1766.08528542
1766.10275194
623.191315349
621.866962354
1765.33256431
1766.57953965
621.925134292
1770.07553357
1765.34396833
632.894542124
627.331836795
1766.28418022
632.674997479
1769.13451443
1774.67073806
1778.52302227
638.721159428
643.008734475
1779.27243721
638.400576427
1773.78885181
1770.92587184
1767.8070692
627.224139616
631.969743189
1766.96574355
1771.75042952
632.31488608
1775.54408417
1780.78205234
642.124288738
637.129610989
1780.02639998
1776.38766556
637.655185139
1787.04173271
1782.8643132
649.392869206
647.012716114
1783.40675916
648.899880338
1786.70659367
1789.69702583
1791.7706711
649.583929189
648.867872223
1791.57998131
649.14354837
1789.65830318
1787.18514019
1784.41453062
645.790422454
646.871833067
1783.87556065
1787.49156777
647.737253871
1789.57923579
1791.02059234
648.030522655
647.288082246
1791.24304261
1789.63414344
648.126101378
1793.45084218
1793.24846449
647.182261905
647.982117041
1792.92390296
646.918108944
1793.90808277
1793.80667984
1794.69187424
646.385407506
645.268776478
1793.9312525
646.115368617
1794.3498028
1792.800953
1791.95930872
647.466072794
646.045989282
1792.38097481
1792.18229567
646.577198162
1793.00524239
1791.9163633
644.884386728
645.258057061
1792.99154467
1792.22543785
645.791839079
1792.79506038
1794.56230897
644.394647032
644.485128328
1793.6790792
643.955968195
1793.75156212
1791.32882946
1790.11832564
644.026596595
643.34043385
1788.77393311
643.629670442
1792.41469803
1791.42486035
1791.18409018
644.015100861
642.704789066
1792.60993584
1789.80848531
643.349288945
1789.55353552
1784.7357255
642.259104729
642.037162313
1786.53442789
1787.86815963
642.802631404
1780.96173922
1787.0082282
649.602960872
644.380156255
1785.34666004
648.109338909
1783.10236804
1772.17941568
1776.44790737
656.944471888
610.323288094
654.012440514
1778.43447885
1775.81194162
1777.79703609
1780.48900451
642.641740944
643.958132138
1782.5199372
1775.44419869
645.35296889
1768.31097569
1783.86494681
613.60083861
647.799898889
1765.705727
649.492113312
1781.49042063
1805.16842816
1808.30924605
623.90451753
626.225812957
1803.58970827
623.973969645
1808.98645205
1801.06030621
1794.25690688
620.736717397
619.570078944
1798.55680963
1797.45494447
621.40265736
1806.50996534
1809.99748019
625.96534186
624.417346902
1807.72236483
624.029838915
1809.56102212
1803.29895177
1802.91269215
620.590555265
622.875610912
1800.36307296
1805.28891934
621.974429086
1792.97543749
1791.27968402
616.248444671
618.401998824
1789.9129971
1794.71327903
617.640352646
1792.18341471
1790.84551249
616.51616503
618.554714615
1789.728072
1792.753449
617.452634084
1795.92879935
1800.64775005
619.700001498
620.067070226
1797.8561617
1798.82039649
618.931534985
1794.80340334
1797.36282806
619.788747924
620.131576494
1794.89264349
1797.67872627
618.73675456
1795.95720708
1792.68645431
622.112090297
620.571211257
1794.77030232
1794.13651569
623.013231767
1797.56958692
1797.84788063
625.265167568
629.581871894
1796.71364405
1798.34376405
626.205091656
1797.2293401
1797.77450179
621.737646162
625.27644784
1795.83336381
1798.64562282
624.177388612
1798.39569741
1798.98358574
630.655315846
628.539285532
1798.70373644
1799.25374579
627.568361896
1793.79880169
1796.92554424
632.692783345
632.382756442
1793.65193111
1797.2595347
633.179851032
1788.40496081
1781.89746122
631.846146535
630.266282562
1788.37943615
1781.84984523
632.182294071
1793.39025502
1796.96516856
633.013474378
633.491701298
1797.1712568
1792.78721775
633.444267417
1787.91372539
1780.68246493
629.939260414
631.693709074
1781.39976493
1787.17153168
632.022781409
1769.44923254
1775.3072974
624.244283249
627.156543046
1769.31048467
1775.2993489
624.185519278
1767.29181307
1767.15027563
621.936560331
623.437594638
1766.95978525
1767.87798098
621.9240524
1769.68436254
1774.70357358
626.783946326
623.717603382
1775.118897
1769.95670864
623.929164204
1767.90855625
1769.66530517
623.604451991
622.002123383
1768.74181957
1768.65403505
621.890765915
1773.11151461
1768.58760046
631.66978485
627.194017152
1772.41399214
1769.35094345
631.455411901
1777.5328527
1781.18414589
636.135074614
639.449304613
1776.89473232
1781.84546293
635.626424004
1774.03999127
1771.48300281
627.77612591
631.946248454
1770.39307401
1775.03328995
631.743038181
1778.32323896
1783.31440724
638.984644306
635.467802262
1782.55045721
1779.19103172
635.458540501
1787.94367523
1784.69521189
645.789483541
642.982211461
1787.64643946
1785.30129755
644.790107114
1789.52418378
1790.66611373
646.189027473
645.238208765
1789.54395785
1790.52580226
645.086363647
1788.37339406
1786.56912283
642.341188123
643.316062116
1785.89458404
1788.95536269
643.997378987
1789.78806376
1790.98414574
644.486904361
643.749299031
1790.6451922
1790.26276456
644.382052073
1791.15163
1791.36377435
645.315433353
645.027288371
1791.5000023
1791.12757737
644.494373824
1790.85170628
1790.90000168
644.674169645
643.3262417
1791.36866367
1790.21229016
643.98432699
1791.01443672
1791.31655407
644.130750352
643.098324233
1791.10061019
1791.12094371
643.676389639
1790.61566498
1789.77927944
642.648062889
642.677936673
1789.83951433
1790.67085752
643.235005483
1787.40280212
1789.91750519
642.172703059
642.461329789
1788.37395663
1789.07061878
641.620611758
1785.28337676
1783.48553129
641.319530534
639.980430541
1786.26939481
1782.58371284
640.744413598
1786.80444411
1788.32069031
641.905016951
640.635393317
1788.55561421
1786.46693213
641.129039707
1784.70464299
1781.68484971
639.593546419
639.79576358
1782.02324533
1784.33483037
640.301460779
1774.25339054
1779.89396832
643.332423675
640.155807546
1775.09057036
1779.07484407
642.73509295
1765.05451662
1784.86816433
647.306980219
617.879891289
1765.93791917
646.510629456
1785.14145406
1774.16697199
1778.41337372
639.81756707
641.804482678
1778.66017689
1773.98595205
642.405811147
1765.57834487
1784.9875964
618.177391859
645.117628973
1765.53702914
646.246239809
1785.31069408
1809.10246271
1810.29884024
624.50008423
624.815188759
1808.54942532
624.149727919
1810.33101829
1807.72024108
1804.88793897
623.532549162
623.042386809
1806.61469778
1806.23559619
623.561236836
1809.2541957
1809.94715296
624.443247622
623.689547384
1809.26779124
623.861051122
1810.1623445
1808.29375467
1807.86335641
623.025179317
623.282629683
1807.18644762
1808.5831425
623.337530841
1803.62922839
1803.06296634
621.132021515
622.606175206
1801.46681252
1804.81322391
622.408653445
1802.74098836
1799.76898381
621.277411745
623.451344313
1800.30712797
1802.18075888
622.538613453
1805.24666844
1807.13532388
622.979657201
623.852189525
1806.05631578
1806.51668594
623.281303316
1804.74711358
1805.90798617
624.860525339
624.911474471
1804.26287757
1806.22120893
623.729387671
1801.57312078
1799.8116037
626.484457346
625.19343726
1800.14644887
1801.88618741
627.680157696
1800.67079346
1799.1149989
629.618205615
632.307269862
1800.03602693
1798.89048013
630.488765443
1802.60541584
1804.92758573
626.678382382
629.760418712
1803.61227496
1803.18614897
628.791709427
1800.8431333
1797.4271307
631.984628265
631.021591001
1798.23919671
1800.57966436
630.968835212
1790.96981013
1796.55838659
633.141313631
633.117839777
1792.00863602
1795.67939068
632.419065354
1785.57423063
1780.05683229
631.147183631
628.307835254
1786.3816838
1779.76691846
630.349479049
1790.16224538
1793.77193671