/*--------------------------------*- C++ -*----------------------------------*\
| =========                 |                                                 |
| \\      /  F ield         | OpenFOAM: The Open Source CFD Toolbox           |
|  \\    /   O peration     | Version:  v1906                                 |
|   \\  /    A nd           | Web:      www.OpenFOAM.com                      |
|    \\/     M anipulation  |                                                 |
\*---------------------------------------------------------------------------*/
FoamFile
{
    version     2.0;
    format      ascii;
    class       volScalarField;
    location    "7";
    object      p_rgh;
}
// * * * * * * * * * * * * * * * * * * * * * * * * * * * * * * * * * * * * * //

dimensions      [1 -1 -2 0 0 0 0];


internalField   nonuniform List<scalar> 
28582
(
19549.5737204
19547.4008724
19548.984245
19546.7890172
19547.0724992
19544.2069737
19547.5734541
19541.3282472
960.28948541
1089.54041897
1.17862633272
19543.4043263
17670.5474573
17294.2111915
19541.118599
19540.115451
17212.0320982
19518.6370677
19516.3402679
19552.0016151
19546.8112634
19547.0473255
19552.2241725
19546.5912667
19547.1665363
19552.72275
19545.5426218
19557.1029131
19542.9498884
1124.91437519
0.300525724592
-0.226866623006
19553.0454173
19553.1850987
18176.9882877
17869.1104793
19549.9199665
19545.8228006
19542.8422987
19546.3099181
19520.503352
17363.3406886
19518.4581828
19525.9247999
1023.7955655
1125.02670996
21.1788949271
22.6819621779
1062.06239491
27.0179006932
19538.4092713
19529.7433428
17545.3421522
17624.797096
19536.3313509
17477.6381509
19532.4589584
19523.5810856
19521.9245212
17416.2289948
17208.2040175
19518.5239406
17333.9457483
19526.7560717
19516.4996548
19518.6191879
17149.3444158
17137.6184128
19515.9060511
17087.9736798
19518.2051443
19520.3857717
17190.9929721
17149.4927241
19517.7792063
17165.1656373
17111.5200895
19519.3302459
19514.792028
17129.0982547
17060.1307583
19515.1628607
16995.3427394
19512.024561
17075.1416752
861.16554096
13.15396347
776.254379619
840.247271758
8.24021741528
11.7447691408
1141.41226707
6.83697182484
9.6042078345
1140.43122872
3.45428338206
1129.39836058
6.2252671604
19552.9826403
19556.3781761
18082.561296
18150.3178981
19553.3358112
19555.7617233
18070.9647869
19549.3716218
19545.5123689
17976.9776019
17877.9179401
19549.7386441
19545.1259454
17979.6299184
17960.550144
17844.1446531
19545.0326143
19549.7228115
17869.7276878
19545.3174592
17969.9238111
19521.8310204
17224.8037638
17190.0652306
19522.9505299
17264.417634
19524.0831811
17234.8651649
19525.4854039
19529.4697298
17308.5582136
17348.3740776
19526.5061155
19528.415795
17286.0941556
19522.3443043
19518.287384
17184.5133583
17138.1820503
17214.2917775
19521.3086715
17235.8778936
17278.3751866
17342.9197779
19529.2520166
19524.0816827
17354.969684
19526.9911857
17289.5498453
19547.183213
19548.0980424
1117.27922084
-0.243007338362
19548.6708766
17722.7913103
19548.9931526
19550.1177835
17410.274193
17396.0660488
17462.9602688
19549.6190547
19548.0254174
17432.2244091
17253.7151254
923.276913545
1127.08359165
1123.37077135
6.03173913116
3.52603015182
3.10674962791
1127.85387681
1139.61892776
19535.4996608
19539.8168703
17756.0304393
17608.291171
19540.7164908
17639.9102128
19534.2154519
19534.0167972
19532.3578295
17444.6063181
17399.8577267
19534.6529285
19531.3591065
17438.0335789
19532.6159383
19532.2826251
17404.7389604
17437.6833034
19529.9331331
17436.3873479
19534.8107042
19534.6112722
19537.0862964
17447.9909976
17455.3284559
19535.9148153
17443.4980955
19536.6248599
19533.776385
19536.8260129
17421.4548276
17381.110184
19535.5800674
17377.3699352
19534.90644
19531.2437295
19529.0470908
17254.5433926
17315.4424486
19528.0842818
17318.410194
19532.2622062
19573.9904704
19569.2016508
19567.4718989
19565.4436595
665.700246585
674.456064378
620.435276484
646.191815901
624.595300576
-0.114969597763
0.403382905022
-0.107950759352
0.0439602529938
-0.0930602058329
-0.0516647250095
19576.5874918
19575.4353772
18483.0768368
18463.6298553
19576.665633
18445.5555791
19573.5127709
19571.4159283
18497.0979489
18529.2307347
19573.6654004
19571.3568987
19570.8236072
18481.8489795
18486.4825641
18516.529242
18486.3903298
19569.319432
19566.7180415
18486.4478674
18401.6088934
18474.4164362
18449.1688914
19568.7163644
19567.1521404
18510.4000679
18481.4913274
18453.547605
19565.7586436
19566.3928346
19565.2333791
18467.2370851
18435.7383188
18447.9189244
18426.2593998
18442.4268993
18422.8565519
673.224974786
681.323978054
704.788979568
5.04028719182
4.3340257331
4.33182425336
3.77439570289
4.40610386214
7.89563920464
4.76769323385
8.58744069891
640.86763172
611.672172684
674.490037773
636.655216908
650.268915909
2.44845239063
1.78348037996
1.07848724069
0.587651960749
671.356888841
660.536063889
651.765811157
2.38308012688
4.49440968278
0.760825656332
1.26689256529
633.300454805
627.124816412
0.797371811798
0.397645241042
0.454433579183
642.496933733
631.215536683
632.81460655
0.425245508371
0.571737319751
0.447773608715
0.543151901564
19571.6245536
19572.1509923
18520.0284829
18467.8487435
19572.3060603
18507.2857985
19571.8369463
19571.1734925
19570.8626268
18466.0328281
18500.1284458
19571.710661
19570.6049596
18505.6150278
19572.581335
19571.1994252
18437.0792048
18446.2508937
19571.9624058
19571.8306698
18436.7201687
19568.0652926
19569.3302287
18524.4336861
18521.8102893
19568.8274677
19568.3437097
18540.5382473
19568.4763901
19567.7936673
18530.470033
18545.3449939
19568.5432567
19567.9305459
18548.04759
19569.4817257
19569.9135752
18482.4767982
18504.6394088
19570.8828694
19568.7304141
18496.1384466
19570.2022959
19571.3257101
18483.2240809
18485.8642146
19571.1987045
19570.163481
18488.7370346
19568.8736754
19567.8390687
18511.7722601
18504.843773
19568.7071552
19567.959046
18501.583777
19569.0497793
19568.314505
18480.7046053
18493.5901334
19569.0694154
19568.2172662
18491.7355054
19568.4707969
19570.9509288
18480.2145513
18484.6554697
19570.0303039
19569.4993461
18484.3911699
19566.7662807
19564.5082403
18451.1981782
18414.2183766
19567.7156049
18456.3281815
19564.407609
19567.6990687
19567.8998066
18467.8375957
18461.4540029
19568.6498294
19566.9779286
18465.9202272
19566.1198298
19564.0244277
18452.5877376
18452.1536081
19565.674826
18465.0240694
19564.0785473
19567.5586206
19567.81351
18497.3089446
18501.4342345
19567.9501316
19567.4319844
18494.2386088
19567.4880084
19568.1414391
18488.014749
18473.3474576
19568.2238784
19567.329104
18484.1231688
19566.7040689
19565.4168918
18459.906718
18458.591148
19566.6287969
19565.4513927
18466.2413261
19566.0158983
19567.6686886
18449.6055038
18461.0656749
19566.7471719
19566.9209977
18448.3030543
19564.8728411
19563.7737518
18438.8542609
18431.6684106
19565.238278
18437.6683494
19563.6341883
19565.6542873
19565.3016298
18454.0093569
18442.023266
19566.2985387
19565.1075269
18446.781476
19564.5449035
19563.6963784
18427.8453441
18433.8754629
19564.601831
18435.2174235
19563.500491
19563.903468
19564.7319004
18437.4710489
18441.1246152
19564.6810576
19564.0254029
18435.0955911
19563.5012481
18429.8950393
19564.2040275
19548.5124681
19546.2399591
19545.6653647
19547.2161075
19547.3307937
19551.677227
19548.2111565
19545.8072286
19545.4733421
19547.2572322
19547.0822994
19551.1592427
19541.5825178
19542.6084138
19536.3081643
19539.8154067
19543.4131577
19546.5418479
19551.4541663
19543.5775296
19542.7958191
19543.6004868
19542.0778971
19542.2595613
19543.2705971
19544.1202183
19544.5363419
19547.9632741
19547.6238147
19544.4031703
19542.8878291
19543.0473868
19543.6439715
19543.8769473
19544.237501
19548.8537234
19550.5092896
19546.7890972
19544.7796993
19544.6698168
19545.1582088
19545.1120269
19545.1214545
19549.7506961
19545.9297648
19545.9058316
19545.7748841
19550.3252996
19539.464408
19540.1946179
19538.3221278
19538.7741149
19540.22273
19544.8858393
19556.6078204
19514.9878242
19543.1049656
19542.9304851
19542.9238775
19543.0618453
19542.7152358
19541.8582211
19541.1749917
19535.4429346
19547.4651973
19544.5260172
19542.7371069
19542.4804394
19542.6404637
19542.4723704
19541.9086091
19544.0945952
19550.694928
19546.7631634
19544.6183391
19544.4969992
19544.986468
19544.7281134
19543.8597376
19547.7542918
19545.9134531
19545.6284119
19545.0742568
19549.317823
19538.2540971
19539.2771636
19536.2821249
19535.6616614
19538.9677577
19543.2496565
19553.4231149
19504.349074
19542.9286801
19543.478424
19535.6702492
19536.8878353
19540.6666285
19541.4879257
19537.2814385
19526.8381386
19548.5174213
19543.9369186
19539.5258311
19539.9116772
19541.8001821
19541.8131554
19538.9298027
19540.1696222
19557.2199606
19551.5850108
19545.8167135
19542.1529365
19542.4391656
19543.9226341
19543.495732
19540.8561766
19544.5711216
19547.2805615
19543.9554115
19544.4207651
19545.7152572
19545.0091479
19542.8264111
19547.2906162
19546.9333573
19545.2679414
19549.8223516
19543.6192285
19543.9977795
19534.2638391
19529.7703676
19538.1280866
19545.0995868
19549.3358831
19556.5863175
19547.2902258
19546.6427506
19545.9499781
19534.8515874
19530.6461768
19538.9351437
19543.2342519
19542.5426905
19537.500694
19563.7008648
19557.6377814
19552.8341083
19546.2013863
19536.2792499
19534.1831619
19540.719273
19544.2878424
19541.8694347
19539.9167273
19561.0937409
19556.4848407
19547.0922869
19539.452804
19539.0714431
19543.6848843
19545.6942788
19542.6411894
19540.9526452
19548.6341485
19541.8967336
19542.1177948
19546.1802401
19546.4958226
19543.2667304
19542.7110212
19548.2446477
19545.1821578
19545.4517785
696.989047745
829.638293148
1023.02608511
1177.50840666
1290.36565105
1167.81996248
1116.83217236
1148.00242479
664.756399293
671.022515606
713.823213904
839.7975526
1012.68730692
1119.75451058
1189.42240114
1154.89589268
1129.08054058
1143.75161864
629.469034657
627.014344781
713.7351604
888.12713307
1013.94968868
1108.97407464
1128.60712154
1092.39130613
1107.45742404
1132.13800012
627.898276475
737.467719482
887.395213302
985.664849031
1063.99769914
1099.03090652
1075.98253369
1098.35437536
1117.91045777
901.136470464
997.053480383
1061.93418448
1092.71871459
1091.34172594
1109.9663616
1118.25575529
1109.59582798
1135.82163959
1145.39031314
0.439167827519
0.000982119433949
-0.0977335690598
0.17119434797
1.63806215553
0.468910277575
-0.282789486955
-0.161231481704
-0.227354985177
0.977440679135
0.33341142991
0.0567864521857
-0.0138482925337
0.144894824414
0.280181924959
1.08086937283
0.490193324023
-0.202963553981
-0.274372407662
1.10005869966
0.210337680733
0.00829133486784
0.0676725465783
0.356237647752
-0.222402919708
-0.296172217302
0.309963847497
-0.159488615615
-0.268069827784
0.596045910871
-0.0244925335751
0.0107382394823
-0.0897761497886
-0.254392429025
-0.223804853754
0.351164976738
-0.141075964711
-0.261157545636
0.44704734495
0.540016949178
0.678421996224
0.967357898654
0.531336987114
-0.159421689611
-0.248987854166
0.825837151525
-0.105204491862
-0.241019822927
1.28707978172
19542.3137913
19541.3915132
19542.4253564
19540.7783267
19541.8332467
19541.1758225
19542.0094779
19542.2409526
19543.1529904
19542.9713036
19542.3680892
19537.5900941
19542.24683
19539.9051143
19543.0747552
19545.1975847
19544.3069378
19542.7565886
19543.2788565
19544.9133971
19544.4235727
19543.2523541
19544.0252381
19543.8134159
19543.3729883
19542.1449878
19544.3441072
19544.2887566
19540.1797977
19540.6224594
19541.061444
19538.2468777
19539.2178578
19539.8762466
19540.6083123
19539.4009113
19540.6794429
19540.5557152
19539.2326639
19538.0512785
19540.3618366
19538.9550729
19543.2726559
19544.9123872
19544.6196162
19542.8061127
19543.22194
19545.0804757
19544.2455769
19541.5619212
19544.1692316
19546.2064061
19543.0772414
19537.8658472
19543.3772979
19544.7689803
19539.3362149
19540.2099957
19540.9527385
19539.7258502
19540.9207385
19541.6140118
19542.1966098
19537.6516112
19540.814368
19539.4424588
19540.8713851
19539.0469452
19541.7259929
19541.1595416
19543.3854327
19545.4526478
19544.5709826
19544.0209056
19544.5638973
19546.6021329
19545.7665115
19537.8118721
19543.5470646
19543.1099939
19544.0517366
19540.6456588
19544.7009893
19543.4958248
19540.7316027
19542.9707752
17895.2018083
17934.2529685
19545.442965
19544.9850982
19546.5191571
17959.389937
18077.7406266
17979.1340018
18093.2731159
19539.9962357
19545.019294
19540.4500072
18013.6102195
17434.2912312
18027.3079711
17454.7538826
19529.3364067
19534.466576
19530.3127175
17164.4439784
16588.0075997
17203.7172338
16725.1117508
19534.0430951
19530.3873401
19534.7060786
16593.6671451
16773.1459583
16749.058332
16981.2749808
19542.0769373
19538.8501374
19541.9449308
16851.6309124
17225.3724819
17037.0586255
17235.312633
19546.8395534
19544.1555591
19545.2414992
17296.7762252
17406.9374767
17263.0260517
17329.82976
19551.5417377
19545.4706174
19543.3009318
17396.7950799
17255.7832881
17312.5435134
17145.4866029
19525.4415575
19537.3321859
19531.937701
17312.1319913
16974.318691
17187.6251704
16916.4819881
19563.3508647
19558.4048719
18331.8651174
18070.3666511
18438.3349288
18307.1661519
19545.8172446
19553.358488
19550.5474777
18004.0461923
17970.1359947
18248.2225686
18133.0784479
19547.5325264
19549.536441
19548.9014565
17990.7030849
18097.3445753
18109.3217699
18029.0683359
19540.9344041
19546.3003084
19541.4707686
18035.5313034
17465.4550054
17944.7921644
17396.4209076
19530.7750435
19536.3568768
19532.810678
17208.4509781
16749.0957495
17164.1519787
16824.3298087
19534.8789184
19532.7453009
19536.2991227
16779.3267703
17024.096312
16854.8056945
17144.1038693
19541.7859436
19539.9773039
19542.5017585
17077.634288
17250.2948446
17208.856125
17338.522084
19543.4132662
19543.7153679
19543.14706
17261.3863043
17308.6365008
17346.32283
17332.4059739
19540.550174
19541.8111959
19540.2449895
17290.3745015
17117.5375556
17295.3229684
17094.7537432
19541.098657
19538.4763914
19545.3574251
17158.8964784
16936.9707499
17136.1819767
16943.4543749
19561.0168225
19563.7111683
19561.9905114
18431.4601619
18384.7295253
18420.8720525
18410.8972902
19554.9630668
19560.0295968
19557.9862309
18325.8921314
18184.6935839
18409.223996
18352.7935002
19550.1509646
19555.270302
19551.2651571
18152.6481328
18021.8814046
18288.0156606
17932.2234072
19540.9586897
19546.4088423
19541.2352318
17912.7288375
17359.6546272
17778.6703803
17350.7245337
19533.412952
19537.6703488
19536.0536345
17148.6880798
16871.0417329
17222.0932656
17089.5177428
19537.4035162
19536.9601549
19539.4803992
16894.7391321
17163.386328
17103.7420191
17269.6097789
19543.1583385
19542.4019771
19544.4049097
17230.0391427
17369.5948735
17328.1076261
17435.5718166
19543.3705515
19545.2290234
19544.1275421
17384.1805217
17354.4659738
17463.5778183
17384.9482432
19540.4810262
19542.410131
19540.9692017
17305.9268864
17081.1484689
17320.1223077
17060.8157304
19547.1202892
19540.3908388
19547.8474658
17131.3617834
16941.4003857
17125.66555
16927.3882746
18417.3860161
18411.1740101
19559.4404749
19560.0025515
18408.2960386
18370.3505847
18282.5474297
19551.9845472
19556.9521148
19552.5693521
18292.5674088
17894.1339973
18186.5115777
17863.0280036
19542.3873236
19547.927624
19543.5686113
17757.7199177
17385.4467844
17759.1692226
17439.1979518
19538.3010606
19540.9294019
19539.9152833
17277.1920256
17147.4826306
17349.3087272
17242.587461
19541.2665668
19540.9091042
19542.9353222
17157.5109836
17286.8573438
17251.3847025
17342.920362
19545.3385105
19545.0103638
19546.2794645
17338.9589845
17446.3340567
17379.0933524
17447.6691397
19544.4389777
19546.100332
19544.6322227
17468.0325735
17374.2230329
17434.4137002
17304.2227439
19541.2479094
19542.9190745
19541.7143749
17310.8524685
17065.9742558
17254.7399979
17099.4717804
19548.2421405
19541.6209247
19548.7156388
17135.0161052
16942.2160816
17167.9953598
16991.3953571
19544.4644531
19544.5133302
17767.0600919
17450.994702
17363.6908664
19541.0878998
19542.1302739
19541.5235788
17360.7454115
17257.0739948
17274.4583716
17223.7116867
19544.2497556
19542.9390462
19545.3363384
17266.3441791
17357.2310723
17253.2368745
17382.2517511
19547.1034784
19547.3194839
19548.1146353
17393.008935
17431.2156895
17425.4229245
17421.8423847
19544.7912785
19547.2997703
19545.541377
17411.3780814
17289.7557124
17393.330955
17256.8243053
19542.4205403
19544.0754871
19543.3917765
17250.4584013
17121.1736731
17226.5363491
17143.6487515
19549.2892926
19543.931873
19550.0696893
17185.8715292
17013.2555528
17203.4256388
17063.3741274
19548.9408193
17437.2263682
19546.6039523
17409.1256719
17252.2107319
19544.6647392
17222.0939502
17153.0366624
19551.1038645
17210.543441
17073.1339196
11.0881757196
10.752751022
11.8681197471
10.9758744955
702.193892951
694.888788338
7.19819617933
2.36353243012
6.51348652191
2.90085504981
732.657527334
703.578541896
736.815448755
0.91377224502
1.98831106007
1.1778660206
1.72128395922
937.259880322
828.043830847
931.124402028
8.67809841443
16.0946633945
7.36447002638
15.5610845217
1082.15182299
1011.91092383
1064.62825304
27.7552633371
33.9836218263
26.2808299829
31.1554442102
1254.78668006
1141.58413277
1201.50147819
20.1361115775
9.11515479556
26.0198057617
11.8237171649
1227.52844526
1238.82857469
1205.47329766
2.81689968768
1.56796265905
3.03354411231
1.71332425437
1128.12570447
1170.05186414
1137.59181928
0.947714875297
1.4732954089
0.854520918284
1.05930192435
1139.5463133
1124.81273028
1147.89087667
1.58853548875
2.20105304603
1.35612812925
2.04269364857
1162.94409022
1143.31914911
1182.87769125
3.18887792507
27.4942573881
3.37256783964
25.5516823066
661.478300422
638.019319971
637.933101589
8.91377017898
8.79259080331
4.14908146492
6.93865268888
683.957420101
649.45683251
671.839709966
5.84342866753
3.91408368816
5.94039973758
4.7286908916
756.061661083
715.272529965
786.540271714
2.59022811851
2.34470766575
4.06672942864
4.61708595503
928.135151577
868.800770558
939.622015464
6.36930203817
14.1036466454
7.8256770758
14.2124365379
1061.18218405
1012.154802
1052.23901457
20.6865108428
23.3806611824
19.3396446547
20.4167388667
1149.4313594
1114.68944438
1123.69403777
29.4652767441
16.0987644126
20.2954499663
12.259298742
1169.71216149
1149.31782352
1135.06366773
7.64976270092
2.83326150945
13.2241366083
3.95498802438
1138.02943896
1122.13878411
1116.05201482
0.849748987974
0.857266150132
0.878737153044
0.884079963085
1150.27800338
1119.99142366
1145.87603813
1.30491237717
1.85251024856
1.27429207587
1.84500815394
1186.13297728
1137.02516745
1180.56711122
3.8000034538
27.1553767348
3.99734833422
28.9090879751
616.769535383
625.99858625
617.622635735
1.52298854161
4.95789748359
0.998418597562
2.77000310785
658.238645562
618.69175312
650.434268372
4.46720340074
4.46441210674
2.92749732929
3.62229936923
799.888576565
719.937205355
811.212024943
4.54382690252
6.03068641759
4.9769499241
7.08880580036
951.028664413
889.671309915
947.626646481
9.94821675299
14.7081336114
10.9405115732
14.3882143269
1044.3052088
997.306908429
1024.44989492
14.1722229711
12.3989793268
12.1574071018
10.6055999697
1121.55683764
1081.74781428
1107.27897987
7.99144966719
3.84019515205
6.75645394015
3.20811775666
1112.40077259
1107.80783617
1097.9573091
7.34585172154
3.94265242227
5.98715463672
4.03815005576
1096.3782094
1074.33820757
1084.41853619
0.709246115006
0.703393089081
0.625237577626
0.919009333638
1141.21102562
1099.30840176
1140.34079098
1.32992281181
2.13596447883
1.76337153247
2.94873754763
1186.47932719
1122.31170122
1181.48432517
3.67433395472
21.3076722838
3.83188709293
19.6557176956
663.070165763
686.178709454
2.56745328881
2.55617977867
4.02495955669
818.66544834
760.240050587
830.202182755
4.99153020711
7.98362768081
6.24008523406
9.05883269926
947.08714458
893.701446203
949.705729003
10.5074840867
12.0555649474
10.4741317683
11.5198322724
1016.52064895
990.977620216
1021.05966185
10.6959680531
9.55297396019
10.8313561269
9.9031504004
1097.3126735
1059.04800358
1096.38476367
6.58976796874
3.52206685064
6.95371007097
4.32187287708
1089.57169118
1099.965366
1091.23390099
7.06125363037
5.16132285458
9.85679775615
7.82433077363
1084.36824218
1084.59430905
1089.7476944
1.13339143959
2.08530116142
2.71975154598
3.71219573725
1138.08661913
1102.91633766
1135.28796899
3.04356861243
4.03812687271
4.49223188201
5.06412434938
1184.37575966
1115.09237552
1177.22277826
4.51714088445
16.6833172367
5.73365152037
15.2367129669
957.129460621
986.20000171
14.1009676874
16.2754711063
16.1472107274
19.2618008791
1026.27443381
1022.95412571
1046.88666683
17.6403092265
17.8543324271
22.8480879289
24.2953091307
1094.52498051
1077.70338601
1100.87298759
14.8633379107
11.8091398846
23.385955294
20.8414010629
1099.2458465
1100.5122388
1102.15269421
16.9213733846
9.86296918336
17.041430989
9.41351120058
1099.46476821
1099.15716529
1109.90975733
4.49875045334
5.06293821139
5.17464756031
5.7633012619
1135.3830634
1120.62629459
1140.43264227
5.40295314853
5.7171927818
6.25494319523
6.70909562952
1162.86344127
1128.13994647
1157.3824013
7.14649437255
19.2538146664
9.31675577627
27.6678767442
1113.79360427
4.54619900641
1122.34807204
4.35767539462
5.81286455112
3.8867628663
5.79312346375
1152.90603147
6.71315833158
7.45881117179
6.90444993542
7.86488885288
1161.16390462
11.0397116908
35.1244356667
12.8149802091
38.893936222
19537.6355421
19539.0253353
17840.0048235
17907.7253353
19540.0724684
17852.6842126
19536.4648588
19538.5510944
19541.9014736
17913.3485585
17907.6241263
19540.5642534
19540.2909606
17876.1872768
19547.1947091
19542.5492775
18043.5678485
17977.5639617
19543.3137875
18049.7002092
19546.9655268
19549.6171075
19551.1778748
18079.4791024
18080.613228
19551.1901545
18080.1579686
19549.7517158
19547.5144944
19544.2106484
17969.1916729
18035.7276604
19543.6303615
19547.0905873
18044.6990763
19550.2164843
19551.8653558
18090.2733806
18076.5725275
19551.4728077
19550.5403531
18088.6347174
19545.7976867
19550.5190362
17891.6363541
18015.3277192
19550.2008045
17888.9272166
19546.3128356
19537.9128394
19526.1928288
17687.0532262
17437.8545561
19526.7657974
17680.4849334
19537.8635156
19545.5766842
19550.7922153
18022.1442291
17898.3811734
19550.1605016
19546.2663707
17893.7027125
19537.6669381
19527.8136878
17445.7855001
17692.1296587
19527.0428088
19538.6723734
17683.8550587
19503.6808735
19513.9183034
16920.6003246
17188.6688334
19514.8965471
16954.1798687
19501.5211815
19495.8728546
19490.6931335
16762.242076
16640.9491339
19493.3569135
16791.4867721
19493.579807
19506.2692995
19516.311723
17198.8054051
16975.8838999
19516.1090217
19506.0363209
16971.2186683
19500.170413
19498.3262004
16685.3950908
16834.2455272
19498.2008032
19500.2452031
16822.6585032
19489.2980908
19486.3161999
16642.408147
16656.3207076
19491.018519
16709.3337974
19485.3438148
19492.0073978
19495.3664124
16703.1359608
16837.5021627
19497.3890683
16768.2003261
19489.6435906
19494.6840846
19497.3073248
16704.7558892
16823.6244187
19496.4751546
19497.0708732
16770.1408691
19495.40945
19501.9337362
16908.4841676
16908.572403
19500.0751879
19498.4409727
16838.0699158
19509.5273701
19501.8089173
16963.355251
16917.9654362
19503.0077605
17018.9670808
19508.4678437
19515.6352209
19524.3233783
17096.902608
17230.0896328
19521.9105508
17128.6012182
19515.9345534
19509.218128
19505.5712216
16969.9938808
17099.8208253
19504.5213573
19508.9377549
17049.9689609
19513.9322563
19516.3591041
17218.3188939
17173.6362418
19519.0708681
19512.3862145
17135.0875262
19530.3661891
19530.9574862
17333.6876723
17292.0164325
19527.5516537
17325.5952197
19532.5335912
19531.615474
19532.5668031
17369.4293514
17387.879466
19531.1769485
17360.3466405
19532.7030846
19525.4362729
19520.3829567
17268.2405124
17278.2485036
19523.3065322
19522.6531533
17297.9434771
19526.6270087
19524.2873526
17356.0822732
17303.8782928
19526.6400462
19523.9820346
17330.9059621
19530.2544259
19533.1322833
17372.925536
17374.060542
19531.2198685
17345.5981018
19532.4573915
19528.2689814
19526.5299826
17317.3503466
17226.4748818
19524.5487888
17292.1697572
19530.4476717
19526.6909321
19523.9020535
17340.4021123
17277.1195733
19527.4353613
19522.4897427
17311.1278499
19524.7000514
19516.1519448
17188.2669553
17215.1681301
19521.1755716
19519.8829734
17253.4322272
19512.0992526
19522.5194101
17266.3726004
17280.2250841
19520.0088829
17238.0559136
19515.7787139
19490.0324346
19501.4221018
16784.3955647
16955.5698826
16759.7371541
19499.9351989
19496.904294
19506.4717358
19510.9640901
17232.6712963
17139.0692681
19515.6446382
19502.2622256
17177.8462918
19484.43301
19505.2042127
16932.4347326
16655.1120308
19481.3515331
16680.9593597
19503.0000559
19557.4376999
19560.6424216
18248.0791073
18362.614705
19555.9254465
18296.1752634
19561.168428
19553.4905107
19546.3002804
18153.4346438
18139.702932
19550.5556192
19549.7275283
18215.0229438
19558.1847959
19562.033464
18412.442125
18409.7025737
19559.7613777
18350.4796597
19561.2863787
19555.0324133
19555.9162986
18218.1636489
18359.9391107
19552.3927886
19557.5329023
18278.3031178
19545.2443373
19543.1320111
17970.2629244
18094.1730051
19541.8206492
19547.0578487
18060.3980038
19544.0813507
19542.6960601
17963.578343
18010.3111459
19541.620592
19544.5831213
18021.6746643
19548.5830169
19553.7616741
18173.9585184
18197.8931266
19550.3013603
19551.9553366
18129.7497246
19547.4024851
19549.7372357
18065.7135238
18165.4685576
19547.1454387
19550.3431076
18082.0979626
19547.0415907
19544.2812157
18024.9766489
18031.1045295
19546.1896357
19545.5254393
18046.9268038
19548.4818233
19551.374863
18066.1156128
18070.3006384
19548.8773871
19549.8701672
18066.3848682
19548.5598616
19549.7747631
18064.2973358
18088.2461622
19547.9125458
19550.39192
18063.6742795
19549.520472
19549.0259962
18041.8833619
18065.7068908
19549.5080263
19550.1835541
18057.2829184
19543.9062943
19550.4169347
17907.0421858
18007.3972794
19545.6192357
19548.468906
17889.8067397
19535.9695833
19525.9843327
17702.8764103
17469.8740108
19537.4115056
19524.8746359
17697.0920543
19541.4010883
19545.97186
17969.7184221
17809.03562
19546.8602673
19539.7025393
17843.931627
19533.3877057
19520.5944232
17439.8145016
17615.033994
19522.4942379
19531.1499502
17659.4700688
19502.2334828
19513.8923284
16970.8914587
17212.7077663
19503.0135773
19512.8118851
16965.9565504
19496.0495099
19496.6440109
16841.2461803
16764.7184859
19496.9806552
19496.3528015
16833.9753536
19500.7657409
19509.9406068
17198.9846636
16954.2418053
19510.816155
19500.7174333
16964.0627015
19494.5514042
19497.7012978
16798.6731839
16859.9845514
19495.9536031
19495.4889848
16852.3514713
19500.3042798
19496.5970919
16857.0040572
16798.2471752
19498.3598739
19497.1110946
16882.7222206
19504.0556513
19505.0491488
16946.194465
17077.0439648
19501.6533482
19508.2038124
16985.7046146
19503.0147309
19501.1007625
16829.1547343
16936.6008366
19498.1677846
19505.9548237
16911.6709664
19509.0000423
19517.8370853
17111.3748781
17042.4408281
19514.8974751
19511.6300269
17017.3898214
19511.0101437
19506.7123553
17141.1016729
17130.6006043
19507.7703187
19510.6422687
17176.1589357
19510.6224962
19511.0582656
17204.3972059
17268.9227777
19509.4760699
19511.4834198
17225.0016453
19519.5908202
19521.5597006
17170.5225082
17258.5168599
19518.1518179
19523.4585685
17218.8789796
19518.9957047
19522.9242446
17306.3826688
17303.2200307
19518.885405
19523.4031027
17267.6349871
19513.4321573
19513.1039374
17267.9850443
17281.8891492
19515.0104672
19512.5089295
17283.2170401
19514.7677573
19517.935795
17285.2332398
17301.7885391
19516.9151794
19515.0217673
17291.5201971
19519.2451967
19522.6939731
17310.5288006
17344.5249567
19519.3339798
19521.8895692
17308.6393451
19518.9344614
19518.4813225
17308.809357
17343.0178559
19517.598691
19520.6214462
17311.5375988
19512.6494318
19518.0355697
17252.3924303
17279.5346511
19516.4709396
19514.533374
17236.9851755
19510.5523257
19511.1451411
17187.9133431
17096.6857646
19513.8525855
19508.4576195
17169.8162048
19513.0290567
19515.8450576
17280.506986
17239.0515172
19515.6231983
19512.91866
17233.6289808
19510.8583103
19508.8571572
17098.153074
17166.1602652
19508.7342617
19510.7747026
17165.875646
19498.853421
19507.3454632
17117.7781092
17137.3783854
19499.7875587
19505.7618217
17100.8399396
19482.4240742
19506.6912244
16660.3835286
16931.3768365
19481.4922228
16654.4830761
19508.6520092
19499.6613605
19506.761448
17139.2518348
17098.8867818
19506.2923488
19500.2127898
17101.505013
19484.203818
19510.3168957
16936.739616
16658.0566965
19485.5516768
16658.4965952
19509.6062964
19561.2498187
19562.2440969
18428.7254661
18426.6492925
19560.654575
18423.1810183
19562.5355793
19559.965197
19558.1551983
18417.1890873
18420.5045049
19559.1327554
19558.7872157
18421.874716
19561.6645865
19562.6591089
18423.0864878
18415.58484
19561.8678827
18419.5437332
19562.5137784
19560.9140456
19560.5594464
18415.8299567
18412.4349655
19560.1112084
19561.2018606
18416.3022365
19556.9116142
19556.5912602
18269.7869155
18391.6989389
19554.9891649
19557.8571064
18349.7488027
19555.9088423
19552.7756263
18223.5131233
18246.6467811
19553.6278184
19555.2731621
18298.0011834
19558.5315512
19560.08767
18413.2936893
18405.9994596
19559.3472059
19559.7619979
18396.594115
19557.9450717
19559.3754333
18306.1529655
18386.1727893
19557.4717597
19559.7034185
18355.0454005
19553.8901716
19552.35913
18124.6517568
18200.9803722
19552.4940796
19554.8146851
18161.4506255
19552.0120472
19549.4868218
18079.9367452
18012.5627527
19551.7786833
19548.9375434
18101.5440088
19555.034508
19557.948136
18243.2550674
18199.9960557
19556.5795018
19555.575999
18183.9196847
19552.585343
19546.4859123
17980.5898274
18079.1355011
19548.1504516
19551.7398525
18096.9451549
19535.5102001
19544.8342521
17756.6017064
17877.046235
19537.2093935
19543.0393292
17702.6688214
19527.2641549
19518.4992473
17570.6651843
17330.5757109
19528.4140366
19517.7390148
17516.2250318
19533.9620253
19540.8400557
17836.8877931
17626.0609832
19541.5889386
19533.7136214
17665.1201564
19526.0461853
19520.5499432
17342.9790609
17486.3295066
19518.4328006
19527.1281884
17499.5746757
19504.3561477
19509.3259644