/*--------------------------------*- C++ -*----------------------------------*\
| =========                 |                                                 |
| \\      /  F ield         | OpenFOAM: The Open Source CFD Toolbox           |
|  \\    /   O peration     | Version:  v1906                                 |
|   \\  /    A nd           | Web:      www.OpenFOAM.com                      |
|    \\/     M anipulation  |                                                 |
\*---------------------------------------------------------------------------*/
FoamFile
{
    version     2.0;
    format      ascii;
    class       surfaceScalarField;
    location    "7";
    object      phi;
}
// * * * * * * * * * * * * * * * * * * * * * * * * * * * * * * * * * * * * * //

dimensions      [0 3 -1 0 0 0 0];
oriented        oriented;


internalField   nonuniform List<scalar> 
92311
(
0.203629810055
-0.000365028882804
-0.000711446489244
-0.203206622965
0.000653287679057
-0.000213533800004
0.203798753146
-0.000242152564598
0.000286962191051
0.203765950947
-0.000828546607557
-0.000696953350808
-0.203284530271
0.000679310056398
-0.000431439608221
0.203910186174
-0.000282855516838
0.000356834545709
0.204328146229
-0.000464567947404
-0.000416242726362
-0.000639874163523
-0.203506550143
0.000761124443346
-0.000504799444152
-0.000385755703712
-0.000231202462257
-8.33774214749e-05
-1.19678254335e-05
0.204173296075
-0.00033254293818
0.000550367611452
-0.000167850294652
0.0511878364486
-0.000176778485394
-0.000191844400645
-0.000186808597028
-0.000182342308667
-0.000153673353205
-0.0509271857671
0.000166208402697
-0.0512819731833
0.0512832321899
-4.9312502582e-05
-8.8035832518e-05
-9.24962675202e-05
-4.9558220697e-05
-0.000114391135478
0.000161286657063
0.00020957620087
-0.00541320199949
0.000203202120459
0.000237393163165
0.000232331870856
-0.00458165736005
-5.77591752884e-05
0.0060409394474
0.00312936756794
-0.0120793595013
0.00221614508166
0.000797190052968
0.0123703600783
-1.44308316865e-05
-2.31736660621e-05
5.89629724884e-06
-9.66400839963e-07
-0.00327177211976
-0.0822997851146
-0.00969448049367
-0.0106277977102
-0.011608848445
-0.0342995049529
-0.00693968554216
-0.027029010171
-0.0111116446668
-0.000153805526939
-0.000124029391871
-0.000127723229266
-0.000147313214271
-0.000120421840584
0.000162908180586
0.000223916840645
0.0122592506336
8.66073705061e-06
-2.36882603382e-05
-0.0122585824468
0.0122681932345
-0.000158931850411
0.000146898575791
-0.0122552335294
2.4817801004e-05
-2.57573060863e-05
0.000127379484833
1.64863874771e-05
0.0511615169679
1.38690814492e-05
-2.46018080513e-05
-2.95704925488e-05
-6.52847425181e-05
2.93688669055e-05
0.0510977094922
4.09174968306e-05
4.48139789245e-06
1.39103492314e-05
-0.0512541368174
0.000183126753939
-0.000107643048678
0.000100091612731
0.0122685054544
3.64535179419e-05
-2.91221223926e-05
4.47244111307e-05
0.0127763386914
-3.51251432341e-05
3.58808794021e-05
-0.0128053552604
0.0127645217729
7.17395765208e-05
3.46129196094e-05
-0.0127968608347
-0.000409497507421
0.203615692117
-0.00146761041203
0.00122562309448
-0.202964207024
0.203747321972
-7.37153275815e-05
0.000269127337004
-0.000143238631553
-7.06956021466e-05
0.203657675737
0.000546114469215
-0.000385175873151
-0.000827045436847
0.203620181293
-0.00143861937245
0.00120231726974
-0.202966148558
0.203776053154
-4.03612407472e-05
0.000187902985937
-8.65887175827e-05
-9.94575524817e-05
0.203655304812
0.000469245902734
-0.000319234872803
-0.000338527011702
-0.000448795338257
-0.000449361665354
-0.00139315055767
0.203772762893
0.00113881516618
-0.202776187848
-0.000332565501551
7.99743843201e-06
8.15984059222e-06
4.60193238942e-05
5.04203496112e-05
0.203802500697
0.000190531482144
2.72912589191e-05
0.0507890849625
-0.000133240789986
-0.000106081475436
-0.000128651196445
-0.000112655051698
-0.000318363430363
-0.0505854042837
0.000256797365771
0.0510144957973
7.34827735064e-05
1.75036163205e-05
1.53232066434e-05
2.49674125025e-05
2.53537423597e-05
-1.7349380799e-06
0.00194642366111
0.000642945564508
-0.00980213048403
-3.03207403684e-05
-4.71793052111e-05
-3.37269163846e-05
-5.04102338956e-05
-0.0047051330395
-0.011342067619
-0.0112634889818
-0.0104804195616
-0.0582687636831
0.0742285128602
0.0107084722098
-0.0591840211564
-0.0118249357258
0.00828205373324
0.00601842672418
0.011583685554
0.00610873407937
-0.0292169893975
0.0191546632653
0.0207355422764
0.000190197865485
-0.000140496647425
-0.000153527769273
-0.000134682740332
-0.00016040555723
0.0509869721288
-0.000247829314398
-0.000150993788015
-0.000176185771839
-0.000144566295497
-0.000167039453353
0.0509454642861
0.000163943773311
-0.0507298471591
-0.000109882489533
0.000123431371721
0.0122959594433
0.000134891132015
-0.000159773986789
-0.0122846523995
-0.000145396961695
0.000169072557022
-0.0123028015922
0.000114003597234
-0.000132903502931
0.0122979607125
-0.000179211300367
0.0126847522254
-3.45611468931e-05
3.00978302878e-05
-0.0126520763757
-4.56524787817e-06
1.08848292622e-05
7.55005654884e-06
1.41941963557e-05
2.59807297139e-06
0.0509150219366
7.6953434305e-05
0.0509501908893
2.31936165944e-05
3.59051934355e-05
3.18147459006e-05
2.69569463781e-05
0.000149120597857
2.07880713246e-05
1.55891765797e-05
1.09132093626e-05
1.95470736308e-06
0.0508665002688
8.04687256852e-05
3.55766276794e-05
-2.39757457921e-05
3.68101040192e-05
0.0127453592661
2.94283845672e-05
-6.62106860166e-06
-0.0121876372621
3.24624236615e-05
0.012154056017
-2.17481369808e-05
6.53946067953e-05
2.61257068192e-05
0.0127317837825
-0.0126953817763
2.79661709113e-05
0.0126750783607
-4.42433329724e-05
5.74425764457e-05
-0.00999564344577
0.000191037515062
0.000174397007406
0.000208958411064
-0.00119502785805
0.00124615016467
0.00379819143811
0.000492288850108
-3.95749475118e-05
-7.4373953775e-05
-5.99219947738e-05
-3.20207246646e-05
-0.0110730982209
-0.000465826230447
0.0134689516806
-0.000516737106156
-0.0105712017683
0.00585395150112
-0.00396321843887
0.00525018146325
-0.0122082466511
-0.00338808458121
0.00185419999344
6.74831844727e-05
0.000114810677572
5.62526989072e-05
-0.000920459307859
0.00109551916191
-0.0041921890385
-0.000295561716382
-1.39330302569e-05
2.20460949551e-05
0.0127709841851
-2.48822351673e-05
-0.0127209138959
-0.0127773397471
-0.000236863836411
-3.10143468081e-05
0.0128144147841
3.89584863885e-05
1.42921667588e-05
0.000219876239377
0.0122531012243
-2.48469239644e-05
0.000244315059841
0.012254263527
-0.0122559772857
3.36063293524e-06
-0.0127247906735
2.71746751694e-05
0.0122490164971
1.52720835069e-05
0.0128070128828
-2.93493549096e-05
0.0128546049781
-0.000202729973437
-3.91123603029e-05
4.7894746877e-05
4.76605311822e-05
-0.0128462536511
0.012861297681
-3.98129039465e-05
2.14318840419e-05
0.000192737941525
-2.52451048594e-05
0.000144773425888
-0.012247400987
0.0122640633
3.76775760635e-05
0.0128624679881
5.7070926651e-05
2.94192177158e-05
-3.27637426055e-05
-0.0128575740056
-2.84602042272e-05
-5.09048584771e-05
0.0128299831467
5.76312587477e-05
5.29242148589e-05
0.0128620980854
-4.15972123523e-05
4.54594660791e-05
3.73517815221e-05
0.0122849051653
-3.16778043073e-05
9.80507388386e-05
0.0122624294834
5.48510007079e-05
6.33369494864e-05
0.0122734853925
6.23269337801e-05
0.0128393929753
-4.02936791785e-05
2.52564617836e-05
-0.0128136150292
0.0127880610931
-2.10480607938e-05
4.61396764003e-05
-0.012258445551
0.0122502659757
-2.71648568123e-05
-0.0122448147555
6.48980798736e-05
0.0122387429966
-8.24306305542e-06
-4.38168939253e-05
5.1994313594e-05
4.49963480526e-05
1.48221623296e-05
-2.75730050902e-05
6.44748942662e-05
-3.29541604238e-05
6.7496101169e-05
-0.0127900843024
0.0127532619165
8.20038065947e-05
6.65312081161e-05
-0.0122350994641
0.0122285014955
-0.0122154363995
0.0122096593867
6.52796781624e-05
7.66244332551e-05
4.89138519043e-06
-0.0128219269107
-3.20446971404e-05
-6.84864037854e-05
-0.0122454520219
7.06599585987e-05
-0.0128187258043
8.72523091528e-05
-0.0122664521979
0.00625665744484
-0.00783808548711
0.000150702213053
0.000171454573868
0.000153925457054
0.000145730974496
-0.000368060396059
-0.00500258909136
0.00633015802655
-0.0102665116738
0.00599780833057
0.00720434511305
-0.00802338660428
0.0050952789974
0.00629194522834
0.000126124609346
9.69479331782e-05
0.000118185056918
-0.00648742561726
0.00808928061475
-0.0134401939295
0.00553905541182
0.000136860220429
0.000146722129565
0.00014412695406
-0.00320995324945
-0.00564487444416
0.00412006406255
-0.00852662083516
-0.008714137088
0.0081495728807
-0.010407288613
-0.000686519492571
9.47378798797e-05
-0.00672728847957
-5.66170671215e-05
-8.4679808266e-05
-8.99760638946e-05
-5.25442272945e-05
-0.00220998755731
0.00135895348605
-0.00661689705191
0.00306576584502
-0.00679818709845
0.0026040347107
0.000233765608094
0.000382876871569
-9.06127829634e-05
-7.92053571355e-05
-4.0851941128e-05
-5.15062687765e-05
-0.00257025763845
-0.00451234230474
0.00329984687931
-0.00150359131141
0.00340877613552
0.00163210808291
-3.88303280625e-05
-3.15742376919e-05
-4.75094033439e-05
-0.00728183574764
-0.00362194673815
0.000507823037202
0.00372658601098
-6.41483900925e-05
-0.012637377092
-0.000156949736458
0.0126703539484
5.48518492539e-05
0.0126475041602
7.25835238847e-05
-8.10493654452e-05
-0.0126216883889
0.000150378906661
0.000132404162292
0.0122929983631
-0.000153628790931
0.000126917438196
0.0122830725233
-0.012276215524
9.81776502309e-05
0.0126805850419
-7.54450041918e-05
-0.0126138443854
6.33521218804e-05
0.0122791160081
9.73204345382e-05
-5.42256716824e-05
0.0127012691734
-0.000162141833564
4.50285717557e-05
-0.0127095349289
4.52655924011e-05
-5.83282656254e-05
0.0127381249541
0.000150004361583
0.00011900125146
-0.000141774773184
0.000181716159481
-0.0122897481218
8.44751090754e-05
0.0122844366134
-6.77762918578e-05
3.60525373774e-05
0.0127317617705
9.02138761072e-05
0.0122730188384
-5.89253149573e-05
2.57880462898e-05
-0.0122682372887
0.000209645600938
-5.41568139913e-05
0.012263731794
2.51978711895e-05
-2.7712353666e-05
0.012720142545
2.56755984948e-05
0.0126931809892
-0.000166498195888
-0.0126607932622
0.000192607442523
-0.0122839440288
0.0122757624668
0.0127271045144
-0.012273565263
3.00133530458e-05
0.0127579848862
-8.66411068337e-06
4.78815874278e-05
0.0122298410196
-2.78276359759e-05
0.0122146324706
6.16463649487e-05
-8.99666736879e-06
4.21349238734e-05
0.0127160031051
2.11496108881e-05
-4.03952380766e-05
4.77921386866e-05
0.0122155041442
-2.67429241282e-05
0.0127274181633
6.49394615535e-06
0.012196028956
5.81514492147e-05
1.73498645292e-06
0.0126936756286
2.03079723982e-05
1.11558724967e-05
-0.0127014900103
-8.69631933969e-06
0.0126888671327
2.22386155915e-05
-2.55075935894e-05
4.16035030184e-05
-2.70750966187e-05
-8.08340695328e-07
-0.0121629694264
3.60046464594e-05
0.0121286333823
1.63997126614e-05
3.2016640981e-06
0.0126836352755
4.75574460747e-05
-0.0127216073342
4.9950571564e-05
-5.16204817753e-05
6.3832249695e-05
5.14538360405e-05
7.7466820121e-05
5.64643492705e-05
0.0122033540362
0.0121841173317
4.87890182347e-05
-5.07469121872e-05
0.0121646662113
3.03010390889e-05
2.48147800838e-05
0.0127034193677
0.0121830260487
0.0121281394319
-3.10751257681e-05
4.97072996563e-06
-1.1119290904e-05
-1.30777910499e-05
0.0120909393339
-1.76202457801e-05
-3.41967320123e-05
0.0126671560147
4.67424692562e-05
0.0126816240747
-3.33345356698e-07
2.11372309631e-05
-0.0121477077942
0.012108566467
0.0126737438061
-7.34247397426e-05
-3.58429963093e-05
-7.46757288249e-05
0.000542835257295
0.20372547316
-0.000121213605403
-0.000260014617126
-3.58015864295e-05
-3.97764279948e-05
-2.1566421369e-05
-3.79249641844e-05
-2.65935638572e-05
0.000118497645384
0.0508847772253
1.03952918443e-05
-0.0017501578752
0.00341208565888
3.63707811015e-05
9.38515495849e-06
2.21997181964e-05
-0.00301420921452
-0.00600781916903
0.00260466045489
0.00570732987204
0.00413955095591
0.051470532777
-0.00960712398828
0.00268928666302
0.0318770146798
-0.000156298312254
-0.000158018222813
-0.00014921873085
-0.000167944430408
0.000402362367296
-0.000168314577952
0.0511892087045
-0.000184869908706
0.000205209281953
-4.68222574493e-05
0.0122665930314
0.0508277470838
-3.52067111732e-05
-7.2345207095e-06
-2.31004108148e-05
-1.9368806849e-05
5.21116286644e-05
0.0508531323156
-4.37186132483e-05
-4.45021502747e-05
-5.57789194697e-05
-2.91116213593e-05
7.64190384541e-05
-3.31339321651e-06
2.27948516412e-05
0.0121360101996
1.73064764791e-05
-1.1563071121e-05
3.14537001047e-05
1.15697270132e-05
8.36255521183e-06
0.0120759013362
-3.61181423161e-05
0.0120223353534
-3.73619448115e-05
6.95921665644e-05
5.76475521155e-05
-0.0120399659996
-7.21255564413e-05
0.050890105187
-6.8188559689e-05
-5.26630134313e-05
-6.02970266667e-05
-6.59178377733e-05
0.000147554893074
0.000137316550218
-7.48095713871e-05
-6.50817509718e-05
-6.50462254907e-05
-6.41162889865e-05
-6.39843598647e-05
0.000213800760049
0.000209318989136
0.0508919500125
-0.000166768241914
-8.32322515186e-05
7.62315502314e-05
7.04945800314e-05
0.0120371782674
-7.81547493056e-05
-8.6711329938e-05
7.58608512453e-05
8.49586061358e-05
-0.0120788801924
0.0120949562074
-9.01389531252e-05
0.000151945694058
0.000181523057858
0.000155660476363
-0.00530141974284
-0.00567479006698
0.00535213465906
-0.000635786608508
0.00173419576454
1.0150665864e-06
-1.99383788962e-05
9.13048527931e-06
-0.00537742771863
0.00213782252591
-0.000299965140481
4.63090371805e-05
1.58894513522e-05
3.03068283282e-05
0.00209945208941
-0.00470293065051
-0.0017995167886
0.00517536428903
0.00314708327464
0.00151256815083
0.00264043457948
0.00315937708459
0.00268623040658
0.00197452847904
-0.00152231100934
8.8363848162e-05
9.6856896571e-05
9.52195637618e-05
0.00152384748907
0.00171012659054
-0.00237490366959
8.44856065266e-05
0.000103671802991
9.96087265015e-05
-0.000165410597804
0.00200800048985
-0.00383972777117
0.00010070229336
-0.0127653721744
-0.000186911793556
2.43415634684e-05
-2.6952336745e-05
0.0127985844514
-2.43038787748e-05
0.0127667138259
0.000180972201541
0.0122742361986
-7.42589557042e-05
-4.42531065511e-05
0.00020695668871
0.0122605914447
-3.0841156479e-05
-6.70578749843e-05
0.0122656375139
0.0128006785753
1.51327304848e-05
-0.012674165372
-5.22448122364e-05
-7.45630000066e-06
0.0126789659364
0.0126778761732
-1.4171178797e-05
2.64707280541e-05
5.77535515637e-05
3.75052245e-06
2.2760744851e-06
0.0121086027347
2.60784686585e-05
0.0121122226523
1.70540465477e-05
2.80278637499e-05
0.012684835671
-5.21024262941e-06
1.45592372525e-06
0.0120846627584
-0.012666009224
-6.31052263119e-05
1.79501951056e-05
0.0126684831194
-2.31173799782e-05
0.0126596392172
3.50372566456e-05
4.37806416998e-05
0.0120911873252
2.36846942541e-05
3.35591749479e-05
0.0120462399341
-4.76237169475e-05
0.0120622995026
0.0126614175175
3.03438668655e-05
0.0126719871805
-6.93186700831e-05
4.94297892962e-06
1.71180232769e-05
5.23658781264e-06
-0.0126607547426
0.0126730443617
7.63182604619e-06
8.86096958258e-05
-0.0120494180358
0.0120289423403
3.57976909681e-05
4.30009361208e-05
4.11423675109e-05
-6.21070034143e-05
0.0126856412754
2.43668927446e-05
1.69820954572e-05
1.7612311542e-05
-0.0126970087622
-9.26112836397e-05
-3.23094496303e-05
0.0127062964889
4.74416976372e-05
2.01769721889e-05
0.0126836549015
-7.1163454951e-06
8.86594316075e-05
0.0120434991006
5.56600236617e-05
7.46145928415e-05
8.61431335219e-05
0.0120535538336
-8.01032900438e-05
3.72386943482e-05
0.0120591306825
6.17093246562e-05
0.0126926031477
-2.08672660271e-05
0.0127137363725
-8.58909307013e-05
-3.93242150775e-05
5.27059804366e-05
5.32155410116e-05
-0.0127027525247
0.0127040338148
-4.36636763598e-05
7.49843492186e-05
-0.0120841571729
7.75393562274e-05
0.0121011754533
8.34569498263e-05
8.33000011158e-05
-8.81605877077e-05
6.43737147268e-05
0.0127135075863
7.21018944217e-05
-3.00398974192e-05
-0.000683983817681
-0.049352700633
0.0492977343245
0.000860216092874
5.87642994228e-06
-1.14066820765e-05
-7.52760607787e-07
-8.57553139426e-06
-0.000106305357192
-0.000860226150623
0.0498251438043
3.85678754682e-05
2.32716306148e-05
3.04301732528e-05
3.03097056156e-05
-5.45022871392e-05
-0.0497654346292
0.000732532843574
-0.00122173972727
-0.0499471625256
0.0500400044992
0.000969887353056
5.52378215952e-05
4.56487184183e-05
5.21103172589e-05
4.83618197825e-05
-4.23569579628e-05
-0.000744983461897
3.44516168437e-05
3.46655809411e-05
3.93549301187e-05
2.95949040995e-05
-7.23176032796e-06
0.0501867169286
0.000543872699278
-0.0501164397527
-1.29703666246e-05
0.00293436406231
-0.0169457128009
0.0194367947606
-0.00340002405258
-0.00195171259706
-9.06465360928e-06
-2.2751079026e-05
-3.16218804036e-05
2.07121234727e-05
-0.0226073903132
0.0244306269416
-0.00585001608898
-0.00136904193468
3.3713804955e-05
-1.18814916307e-05
1.28473031588e-05
0.00533481608819
-4.71300249802e-05
0.00182376542463
0.021667198217
-0.00699330768546
-5.29525547309e-05
-4.57321398653e-05
-5.63707001138e-05
-0.0173346572356
0.0010394484822
-7.01653483796e-05
0.00198877322429
-0.0266892484037
0.0323309572199
0.00314147908867
-0.0105026980693
-7.5053803049e-05
-6.02970899042e-05
-6.42127287021e-05
-5.01596776232e-05
-0.00677425500732
-5.64862644403e-05
-4.54440311349e-05
-5.3083113192e-05
0.0294641563834
0.00981859672837
-0.00735532308636
-0.0249479842839
0.0947698534112
0.00132010834016
0.00575629666074
0.00503204892598
0.00713948044518
0.00690653452454
0.000940979495938
-0.0465439608854
-0.0196314992372
-0.00873070086527
-0.00869008644206
-0.00798647632309
-0.00769488326652
0.0180818633258
-0.00353348454796
0.0742372311981
0.00446731680574
0.00733363004546
0.00811376324365
0.0126488991948
0.0147765441632
-0.0353757062546
-0.0166401734959
-0.00282693214234
-0.00439864686772
0.00521761789322
0.00199554373156
0.0305946489631
0.0756196286279
0.0135180228823
0.0152697009022
0.0134579764824
-0.0351241366433
-0.00724278448678
0.0133117897306
0.0102325096424
0.0085683443288
0.00914699911035
0.00818752560254
0.0598908969285
-0.0214236300021
0.00026225282632
-1.77283664645e-05
-1.39741394963e-05
-9.91381406452e-06
-1.91766631273e-05
0.0490127574118
3.63118073778e-05
-3.52559776075e-05
-0.0492152974505
0.0490456004927
0.000482373848443
-1.07042749092e-05
4.73318747868e-06
4.77628175893e-07
-8.16040467973e-06
1.29329768616e-05
-0.0492650492673
-1.81327827332e-05
2.51495773803e-05
-0.0122463736119
2.7893117024e-06
0.0122110227247
2.53774011298e-05
0.0122262916232
5.46995867903e-05
2.93280214148e-05
6.00349764207e-07
-4.60535792444e-05
-0.0122644560141
2.17774816616e-05
1.17509594352e-05
1.68662357617e-05
2.29983028813e-05
-0.00039164034348
0.0122640618228
0.0122121525329
0.0121708435833
0.0121583692393
-0.000125372397436
7.7027071235e-05
1.70714961056e-05
-2.66352314336e-06
-6.06624677077e-05
0.012195107567
0.000637489432551
-8.49188923011e-06
-5.71553009366e-06
-1.23699296314e-05
-5.1666441281e-06
-5.25186505826e-05
-0.0494236057997
0.0495486534805
-1.27631011259e-06
1.86200865452e-05
7.78258434648e-07
1.32954586475e-05
-5.35346860711e-05
-0.0495630618878
0.000674052388479
0.0122488396688
1.16386707908e-05
2.31830899604e-05
-0.0122788750887
4.96382722687e-05
0.0123000867194
4.12680470789e-05
-1.99058016153e-05
-3.68271232551e-05
-0.0123192063642
3.45141518365e-05
0.00110392505146
1.18875197971e-05
1.05394429625e-05
1.22133972976e-06
2.46697767902e-05
0.0491824805066
-0.000231325018128
-0.0001957043552
-0.000223695086229
-0.000186880084799
-6.32660281573e-05
-4.35192275648e-05
-5.0674203578e-05
-4.17925631909e-05
0.0495427168968
7.48197228576e-06
1.7524147335e-05
-1.02044854995e-06
2.66488728017e-05
-4.45449895258e-05
0.0496585522526
0.00104667900484
8.6330373704e-06
4.17507107646e-05
2.29425429351e-05
2.75063377037e-05
-0.000159233824278
2.72800488422e-05
0.0122154826887
7.04310381727e-05
0.0121490195028
-4.69224819422e-06
2.76568553873e-05
-0.0121663837152
0.000128542223139
-0.0001342259568
3.75905372608e-05
5.85150026039e-05
-2.13911291981e-05
-4.49620277194e-05
0.0122703805303
0.0122226185244
7.58928418914e-05
7.54551627688e-05
-5.11344414977e-05
-9.04195319328e-05
-0.0122323211339
0.0497940672969
2.01443818912e-05
3.7752878081e-05
1.56566527369e-05
4.420611611e-05
-0.0013087943264
-0.000166043669905
0.00144719574648
2.38489923168e-05
4.40755395656e-05
4.41851909067e-05
1.63526020192e-05
0.0502972704527
-0.000316946859332
-0.00176163537403
3.62430228259e-05
0.0121427455891
0.000147697887854
-0.000157006636264
-7.1415966103e-05
3.79543524736e-05
-0.0121883866884
0.000207346991373
0.0122452285364
-0.000230654667857
9.12481697602e-05
7.56663421233e-05
-5.39418546512e-05
-0.000110200948114
0.0122198488698
0.000137145197944
3.70520811793e-05
-3.14000966434e-05
-0.000161516629222
-0.0122472372431
0.0122661431881
0.000853185269687
4.22918222697e-05
4.65314875347e-05
3.29192802028e-05
5.29501742497e-05
-0.000103247058989
0.0500615647226
3.85445097129e-05
4.12889200579e-05
4.39095853791e-05
3.66744043216e-05
-8.15507455431e-05
-0.0499623405574
0.000675098099087
-3.95783123032e-05
0.0122807856396
5.24960594287e-05
-0.0123032982045
0.0122376023054
6.88034163029e-05
-6.99520097089e-05
-0.012247920698
8.73122481667e-05
0.0122724270565
5.32102066391e-05
-6.34968864156e-05
-0.000127009350835
-0.012283661813
0.000148502015723
0.0010848159995
5.30536612976e-05
4.60419683949e-05
4.8271156792e-05
5.52197355987e-05
0.0502797625429
-7.99734389398e-05
0.0501548827271
5.32915915683e-05
4.07391636888e-05
4.43227479101e-05
4.80824567541e-05
-5.48381540868e-05
5.60644179614e-05
5.55655265824e-05
5.08135560393e-05
5.96914224262e-05
0.0502908036235
0.000794264842269
-6.75090569992e-05
-8.14807140201e-05
0.0122384023298
0.000101840704458
5.35345808659e-05
-6.84320275685e-05
-0.0122627466247
0.000131323047271
0.0122833712981
0.000158658832047
5.0738394295e-05
-6.60461953578e-05
-0.000140308241522
0.0122694112382
0.000183310532761
4.83803957734e-05
-8.69166571307e-05
-0.000163763836407
-0.0122787183911
0.012297753029
-6.24664478439e-05
0.0122758836053
0.000175185078462
-0.0122800602327
-7.77157033163e-05
-0.0122831802594
0.0122967670087
4.83868369118e-05
0.00019907446507
-0.00289292122848
3.14151065626e-05
7.03963157006e-06
1.9683235056e-05
0.0198077394489
0.00287994742179
-0.0202283436947
0.000356902285326
0.0197037591572
-0.00215081465583
-1.736984668e-05
-9.50858426702e-06
8.15782030422e-06
-0.0193014901413
-0.0010982360424
-0.00306102102261
-1.68832264478e-05
-1.66404963664e-05
-1.52490612983e-05
0.00434816595844
0.0214175812705
0.0165897117293
-0.00290742952246
0.00169816040951
0.00218606863151
-0.0118020081404
-0.00138367082659
0.0223382637605
0.000889033424858
-0.000226120635283
0.0182621397255
-0.00373828414807
-0.0133404249018
0.0240055662393
-0.00281880638039
0.00258174159025
0.0158681563183
0.000609287525416
0.000841328257779
-0.00371127103178
0.000789350769108
0.0102390083953
0.00044361059192
-0.00430260758066
0.0183156462127
-0.00264462152122
0.000938023100804
-0.00197430844746
0.0124799138386
0.000897998810001
-0.00331696757677
-1.12563029983e-05
-8.38940899311e-06
-3.52663261177e-06
0.000302351240629
-0.0160471908479
0.016201200972
-1.35618686584e-05
-3.92755709404e-05
-1.13254794892e-05
-0.0138635470012
-0.00250807423611
-0.00304141857356
-0.00443867262235
-0.00296808488876
5.23912135508e-07
-3.62575143776e-05
-3.33423439055e-05
0.00429659236353
0.0205648900562
-0.00574679209307
-3.07467531475e-05
-6.74049038288e-05
-3.72276674355e-05
-0.00841637787712
0.0259660753593
-0.00119533489823
-5.76642597807e-05
-5.68360615491e-05
-3.83660389979e-05
0.0180908940969
-0.00338827438212
-0.0130706727843
-0.00319564664727
0.0236295854355
0.0183908710801
-0.00206323025687
-0.0128064541244
0.0238561341215
-0.00230635691992
-0.00544295307992
-0.000733468146307
6.11958382105e-05
5.81756031786e-05
5.15910774326e-05
0.0253775244408
0.00498255460334
0.0311107755815
-0.00877464529558
-4.53930153997e-05
-7.20274090426e-05
-3.94115672674e-05
-0.00526504040867
-0.00259878186207
2.45891175547e-05
-5.55816124033e-05
-5.64192017471e-06
0.0336038439376
0.0199477730895
-0.00316217749017
-0.00337822470035
0.0161989023701
0.0197843918988
-0.00265107252063
-0.00230838391511
0.0154492373154
0.00266677452742
-0.00864157188764
-4.95033549625e-05
-7.02227015706e-05
-5.49216901782e-05
-0.00751713408116
0.0259194875451
-6.06216471036e-05
-4.47725835998e-05
-5.83702035713e-05
-0.0215771641505
0.00605893487253
0.0177590029039
-0.0121721324203
-0.00111984329625
-0.00141073831116
0.0234864043284
0.0233172759045
-0.0176787794212
-0.00110383016095
0.00243902469569
-0.00895196038252
-6.16362527486e-05
-4.83141114705e-05
-6.25098360728e-05
0.0364700790919
0.0313540201916
-0.00883228153637
-5.59360761459e-05
-6.03162005034e-05
-6.7918914111e-05
-0.00847072533707
-5.77737826298e-05
-5.18473896478e-05
-6.07732449752e-05
0.0357457049908
0.00673668339214
0.0220836526335
-0.00153158580875
-0.00114757886828
0.0205439449661
0.0233237933103
-0.00122203250952
0.023184598555
-0.0012831886706
0.0123773007259
-3.14243538894e-05
-4.64502820896e-05
6.8419484646e-05
-0.0123855587157
5.21102743065e-05
-0.0123700029129
0.0123473150616
-1.82878977894e-05
2.44787955972e-06
4.16166526999e-05
1.8407340754e-05
-0.0122772651788
1.3766069924e-05
-0.0122473637793
3.10627104841e-05
0.0122118323809
7.91002309999e-05
0.0123539159092
2.23281212287e-05
-0.0122789611892
-1.55126908148e-05
-0.0123784496721
0.0123830292901
9.14667077702e-05
-2.37130523551e-05
-0.0123930968316
-0.000103844034327
-0.0123946205835
0.0123813186861
0.000122395138901
6.92445886647e-06
-0.012255872782
0.0122169427312
1.59873879539e-05
-3.5299560725e-05
4.10227367151e-05
-0.01229548285
0.0123655081797
0.000107799405517
-0.0124033101092
-0.0122844895073
-0.0123444509525
0.000135837177382
1.99597184382e-05
-0.000105078809723
0.0123155035402
-0.000114056294902
0.0123643317379
0.000140139947489
-9.51436064851e-06
0.0121840002628
-3.59555074794e-05
-1.71462898675e-05
-7.11143217738e-05
9.26315128363e-05
0.0121744330559
-8.57321389451e-05
0.000162997437698
0.0123431721742
-4.18680622671e-05
0.0121592918698
-0.000130720375978
0.0124304971865
-2.84015582403e-05
0.000153187794074
-0.0124330481294
-0.0124121228948
0.000149466701769
0.0124024284789
2.9667442704e-05
3.6113224716e-05
-0.0123148589615
2.51895957986e-05
-0.0122927943437
4.09372584806e-05
0.0122680499584
-0.0124176888778
0.000174938345834
0.0124251154055
3.45908567435e-05
-0.0123233095412
0.0124538831402
0.000167761260599
-1.32763198661e-05
-0.0124564127473
-0.00018969145424
-0.0124751087528
0.0124743807746
0.000189094924299
1.05368846875e-05
-0.0123085015642
0.0122883120021
-1.39244951964e-05
-3.56039014119e-05
-0.0123424869712
3.35950694364e-05
0.0124504314903
-0.0124766930633
0.000168771626878
-0.0123341198296
-0.00020045352353
-0.0124170367488
-8.47818768725e-06
0.0124086953573
0.000223141898846
0.0123865996846
0.000171886308657
2.33080766342e-05
8.88173303817e-05
0.0121867466325
2.5964657858e-05
0.0122336777154
5.58317232867e-05
0.0123717755313
0.000197370832206
0.0122075648197
7.48504392501e-05
-0.000231653774268
0.0124039669949
-4.09596991585e-06
0.000252398407926
-0.0123579393084
0.000266375234917
0.0123524960618
-0.00022274890221
2.70127639345e-05
0.000109017915348
-0.000114699752735
-6.11692785274e-06
-0.0121865489297
0.000117054687097
0.0121679389862
-0.000189458271176
0.000287566307153
0.0124013057745
9.25290636107e-05
-0.0124464389566
0.000237966922135
-3.45309165941e-06
0.0124426108648
-0.000212800060197
0.0124716257847
0.000211686759408
1.24517034306e-05
0.0122560933728
-3.07879065479e-05
-6.16220768702e-05
0.0122467314326
4.85909426083e-05
0.0124717352912
0.000233690619347
0.0122286763688
0.0124417119835
0.000264669226322
-2.76954116465e-06
-0.000293256128274
-0.0124740605813
0.0124768158808
0.000281094441377
-1.75963862248e-05
-0.0122108490482
0.0121971085289
-3.17300847828e-05
-6.91938606674e-05
5.84887329812e-05
0.0124412354449
0.000258075693718
-0.000337084641784
-0.0123999851831
-5.72357916734e-06
0.0124108200685
0.000357896380759
-2.58906439501e-05
0.0123532423456
0.000303528682151
-4.30033411919e-06
-0.000263698125686
3.50078729557e-05
0.000167543104218
0.0121552792791
-0.000181330754427
-2.9739228188e-07
0.0121641478619
0.0001396486792
0.0123724106592
-1.47540242758e-05
-0.000306431251123
0.000323207880628
-1.86337344779e-05
0.0121757786183
0.000163071740585
-0.000365585713107
-2.85935026047e-05
0.0124654709518
0.000388732370851
-4.91913746056e-05
-0.0124418417255
0.00039253041944
0.0125263031928
-0.000378877923377
-6.01803363609e-05
4.58744621613e-05
0.000188120234344
-0.000205931472398
-0.0122069643018
2.90893261831e-05
0.000192301228613
0.012250578326
-0.000341482021939
-4.75039303667e-05
0.0001797957112
0.000411801647212
0.0125339189012
-5.85646534581e-05
-0.0124418496433
0.00035503530741
1.07083007017e-05
0.0124541789139
-0.000324753665245
0.012477719691
0.000307583940593
-1.34285133271e-05
0.0121945633919
-6.02644556592e-05
-0.000127846605491
0.0122288677619
0.000107027327125
0.0124843353766
0.000332281642032
0.0122010268488
0.00037821971216
2.02589792236e-06
0.0124865395455
-0.0125048492609
-0.00039959029433
0.000375212838066
0.0125418786397
-0.0122280434021
2.38131192787e-05
0.0122601416927
-4.60307894037e-05
-0.000149337626195
0.000121379727827
0.000355828114597
0.0125389953718
-0.000216012252005
-0.0125164337126
6.06070566504e-05
0.0125171305856
0.000193281405112
0.0124975088532
0.000198424604514
-0.0125005275935
-4.71259002237e-05
6.21034772429e-05
0.0122613771705
-5.16579211178e-05
0.0122911790665
-0.0123074290082
7.46899795132e-05
0.0124984769082
-0.0125180971481
0.000178786913734
0.0122742702856
8.32118274331e-05
-0.000236799896005
0.0125205235831
6.60036390953e-05
0.000209707650975
-0.0125027740131
0.000252983430019
0.0125074089226
-4.98524498751e-05
7.2263632966e-05
-7.98551905819e-05
-0.0122615430524
0.000109028328338
0.0122494002236
0.000221770407312
0.0125247715953
9.61348497161e-05
0.0125328081938
0.000183013026152
6.28434393639e-05
-0.0125304335124
-0.000193782786712
-0.0125428544511
0.0125469214195
0.000167524059997
-6.73255803203e-05
-0.012272553294
0.0122612018831
-5.93778975079e-05
-0.00011431106169
-0.0122937302031
0.000138944784066