/*--------------------------------*- C++ -*----------------------------------*\
| =========                 |                                                 |
| \\      /  F ield         | OpenFOAM: The Open Source CFD Toolbox           |
|  \\    /   O peration     | Version:  v1906                                 |
|   \\  /    A nd           | Web:      www.OpenFOAM.com                      |
|    \\/     M anipulation  |                                                 |
\*---------------------------------------------------------------------------*/
FoamFile
{
    version     2.0;
    format      ascii;
    class       volVectorField;
    location    "7";
    object      U;
}
// * * * * * * * * * * * * * * * * * * * * * * * * * * * * * * * * * * * * * //

dimensions      [0 1 -1 0 0 0 0];


internalField   nonuniform List<vector> 
28582
(
(0.813754579107 0.00267163377975 -0.000777524475572)
(0.815511571924 0.000966771847478 -0.00053753158469)
(0.814344251953 0.00277866357767 -0.00193865037971)
(0.815879241326 0.00116905565605 -0.000912480847952)
(0.815713957278 0.00260826950988 -0.00491478388559)
(0.817198457956 0.00171423746472 -0.00239401737917)
(0.815743033502 0.00251906517812 -0.00907344782164)
(0.820217647422 0.00215548397115 -0.00327225494562)
(-0.0409979350689 0.0637975098209 -0.0174008394897)
(-0.218980799337 0.0525469353845 0.00415295482099)
(-0.277195991313 -0.277005216043 0.705313483236)
(0.820146246347 0.00221498011677 -0.00638711547105)
(0.784750327571 0.000850670799479 -0.0108508168411)
(0.784348282192 0.00139721749221 -0.00847246183016)
(0.819596109729 0.00141257669379 -0.000495092200488)
(0.818780112283 0.00237867339069 0.00102622722095)
(0.785182594491 0.00192434668783 -0.00699919747408)
(0.818473797795 0.00234310369603 0.00231044993293)
(0.817848677066 0.00373838854414 0.00291024504124)
(0.81263465103 0.00534358360432 -0.00103225874341)
(0.815923754964 -0.000939562174414 -0.000429289306684)
(0.814763252032 -0.00183678878659 -0.000464314871426)
(0.81260809387 0.00511526141406 -0.00234596914713)
(0.816090566855 -0.000787322928256 -5.30969022365e-05)
(0.814795852139 -0.00172874503478 -3.4662024314e-05)
(0.812778525047 0.00497243818369 -0.00489957979023)
(0.816730184709 -0.000410712704146 -0.000337867714374)
(0.810898353831 0.00441181021248 -0.00602644237248)
(0.81820111515 0.000465617179652 0.000273621201411)
(-0.182522186052 0.0646101695748 0.00563631873239)
(0.346729214312 0.257922595815 0.295390235442)
(-0.258187522242 -0.229082648612 -0.487936716196)
(0.814807485405 0.00344324182178 -0.00851734086794)
(0.813977627556 0.0028551108139 -0.00887297658351)
(0.786686713899 0.00956527720845 -0.00534592848298)
(0.787274510378 0.00814542731944 -0.00779591087103)
(0.810790214442 0.00210380096951 -0.0113357796553)
(0.815121922889 -0.000856160420616 0.000220623273989)
(0.817204358232 0.00176472672495 0.00106042498729)
(0.814149419892 0.000666403211251 0.000986402660182)
(0.816852927243 0.00171913153076 0.00202557735361)
(0.779543695551 0.00171891090664 0.000290524756856)
(0.816100590616 0.00318642857836 0.00215856158919)
(0.812334717536 0.0035490281957 0.002025965324)
(-0.122361670726 0.0220254384856 -0.0131137746718)
(-0.219786612683 0.0130997973292 0.0111068339908)
(-0.149203761354 -0.0397624934949 -0.0131608878855)
(-0.170073225504 0.0466837165178 0.00396476210427)
(-0.190765307685 0.0219210405684 -0.00152880889458)
(-0.0205109522689 0.0725209689984 0.0351652402805)
(0.815234334938 0.00154025813671 -0.0142592744731)
(0.819305613079 0.00206819263217 -0.0157862997968)
(0.784370690473 0.00103306149079 -0.0107258654177)
(0.784494960191 0.000403244872591 -0.0119858437432)
(0.815457282208 0.00146685489418 -0.0154346096291)
(0.784095247075 0.00101980001012 -0.0117703211534)
(0.818934602683 0.00199609888885 -0.0148045414369)
(0.820421676129 0.0025859030569 -0.0135011164208)
(0.822817079782 0.00286802995514 -0.0101974625532)
(0.784221616233 0.00125088377282 -0.010125587558)
(0.783770574998 0.00202193700421 -0.00899372575522)
(0.823152035658 0.00315289159147 -0.0105155887282)
(0.783812132288 0.00166103568392 -0.0108973047237)
(0.819920051033 0.00236453043351 -0.0127900004917)
(0.822236968981 0.00330774085304 -0.00238148574578)
(0.822785234247 0.003109705593 -0.00788706855558)
(0.78510661868 0.00231544611831 -0.00393695701215)
(0.784877386435 0.00297610265521 -0.00729698527763)
(0.822750853335 0.0035192804797 -0.00803294300103)
(0.784671701148 0.00361626903122 -0.00332425037658)
(0.822632586314 0.00298480106998 -0.00296142789858)
(0.819107763762 0.00189116684567 0.00200286785568)
(0.784325047127 0.00223845341171 7.51137593856e-10)
(0.783737590352 0.00380387175646 0.000752407320178)
(0.820364849477 0.00289552658758 -0.00105204455003)
(0.785375682743 0.00219779435943 -0.00172327131548)
(0.784630571244 0.00371193042375 -0.00119222740537)
(0.820999818746 0.00252728314145 -0.00159583777693)
(0.817204950374 0.00494974791502 0.00418022970751)
(0.783277244463 0.00409614883467 9.85403273163e-05)
(0.782144726515 0.00451225681747 0.00226793459798)
(0.81981652724 0.00412742017816 0.000285134194594)
(0.783123970053 0.00473318154866 0.000984817377603)
(0.819631000447 0.00520435084838 0.00134037799871)
(0.784238789658 0.00413538716613 -0.000736586525475)
(0.0390642900757 0.119228146591 -0.0126085903337)
(0.114829228869 0.146257301101 0.18010776266)
(0.15844456515 0.128999906658 -0.00866081600064)
(0.0165663601778 0.120768493803 -0.0126744758968)
(0.128092244803 0.143157206419 0.177180749872)
(0.0184750731454 0.187023300012 0.159948455127)
(-0.152825884969 -0.00887106679403 0.0131578549213)
(-0.163228517536 -0.0113032845871 -0.00173544358818)
(-0.189456819194 -0.0491097866974 0.037557501023)
(-0.0545703239992 -0.0496222818958 0.014592960941)
(-0.0646485039067 -0.0465042719485 -0.0110089057888)
(-0.123910313462 0.0348974409226 0.0074589200903)
(-0.0370322404462 -0.0870626997188 0.0575072402203)
(0.809634284219 0.00372273041744 -0.0106091259183)
(0.808711387138 0.00486112280376 -0.00798369851506)
(0.786751348343 0.00928930589619 -0.00650700715305)
(0.785973388346 0.00753094183516 -0.00574544562869)
(0.810244908289 0.00445675231681 -0.0101732999193)
(0.808160283216 0.00426134166762 -0.00827067141598)
(0.785882225676 0.00751731086489 -0.00681006969634)
(0.811869149715 0.00313169738576 -0.0103875566182)
(0.814632475014 0.00343725941397 -0.0114707605241)
(0.787235969657 0.00853603882713 -0.00693946009949)
(0.786280962925 0.00655948309972 -0.00826121634218)
(0.812441846219 0.0039797306368 -0.00971830556153)
(0.814167319345 0.00253799249651 -0.0122564915137)
(0.786377758199 0.00690766130029 -0.00747102030015)
(0.785560159279 0.00276259942415 -0.00822658245919)
(0.785080001 0.00269697518026 -0.00955465938466)
(0.813282529341 0.00173329335406 -0.0138510270426)
(0.811301470783 0.00259879486515 -0.0105878784837)
(0.78584152208 0.00424636784638 -0.00880651479934)
(0.813788718632 0.00206181995947 -0.0128124269573)
(0.785981940345 0.00463622051834 -0.00768357537276)
(0.817637788629 0.00107534604505 0.00177775499941)
(0.783290660156 0.0023258460949 0.000931232340158)
(0.782340213844 0.0037614136832 0.00141810487978)
(0.814771127909 0.000753123409303 0.0027536054445)
(0.78232463346 0.00232139893968 0.00135271881398)
(0.815597963417 0.000212745094113 0.00281289741917)
(0.781283093347 0.00358745380428 0.00162483888855)
(0.813489118777 5.86989577102e-05 0.00126916352913)
(0.812480531228 -0.000867111430044 0.000856262758467)
(0.781262880907 0.00219712809345 0.00103147574889)
(0.77787440702 0.00235796728751 -2.8094963786e-05)
(0.814136564784 -0.000431414342759 0.00166898003887)
(0.812000171409 -0.000506075606343 0.000257374566231)
(0.779796359479 0.00307250747473 0.000881530965423)
(0.813296602336 0.0038701334756 0.00352591020267)
(0.815453068552 0.00467882504021 0.00315817637784)
(0.781730107515 0.00372697096835 0.000261814489902)
(0.780644939509 0.00359021297791 0.00193701079353)
(0.779372737053 0.00274611468473 0.00177868553981)
(0.813906510694 0.00224961534532 0.00256182425504)
(0.780539077068 0.00349180357537 -8.00985153809e-05)
(0.777723102567 0.000989490143886 0.00098904776918)
(0.77558290498 -0.000423064473976 0.000521152021815)
(0.810722701629 0.00285406081848 0.00135257230832)
(0.812721606816 0.00163848828201 0.000935235294654)
(0.776742161741 0.00195321754135 -0.00206983120749)
(0.81120414079 0.00106916596116 -0.000168222013967)
(0.77888973973 0.00262125534721 -0.00109487202679)
(0.815159432771 -0.00164487134075 -0.000995222051254)
(0.814821258157 -0.00143942691 -0.00161069382286)
(-0.109127700966 0.0135390942329 -0.000676174797599)
(-0.0357624538138 -0.138366970222 -0.456819972768)
(0.816156481971 0.00262786791136 -0.00764440213563)
(0.785218879075 0.00233521903315 -0.0101773772106)
(0.813999975737 0.0002638964587 -0.000576640732353)
(0.81355407048 -0.000550925545422 -0.00159249446424)
(0.777548358169 0.000958158000355 -0.000904194546397)
(0.773472178931 -0.00175428799079 -0.000475375927729)
(0.77022058297 -0.00459013136292 -0.0027557407185)
(0.814159214424 -0.00161947966556 -0.00298034811285)
(0.814152966189 -0.00304324190636 -0.00375890143866)
(0.770132600014 -0.00517683681018 -0.00335221903988)
(0.773443982233 -0.00586985549466 -0.0040383089349)
(-0.0502448135476 0.0887268052518 -0.0123738280269)
(-0.0248947617078 -0.0696651692248 0.00537331267404)
(0.00139558851441 -0.063072972618 -0.000910338414704)
(0.0511318421709 -0.0712009241908 0.134011164148)
(0.0207326487893 -0.00450975248491 0.0563420511457)
(0.031321534491 0.00594356641393 0.0897162422756)
(-0.009426660622 -0.0345105015594 -0.0108364264238)
(-0.038276562686 -0.00408922760302 -0.010198991504)
(0.818258173332 0.00154933601944 -0.012526366754)
(0.815214700128 0.00159175560816 -0.0129013435766)
(0.785854917412 0.00375921192418 -0.00885479574458)
(0.784866157783 0.00223297180705 -0.0102581220928)
(0.815545197498 0.00173894735254 -0.0116736779982)
(0.785350583946 0.00349490116803 -0.00904050120798)
(0.81851247344 0.00174851354493 -0.0137677960487)
(0.811588062076 -0.0010374823791 -0.00325584246159)
(0.811580562982 -0.00109301440967 -0.00114846345177)
(0.775986107762 0.00012411798609 -0.0025886143961)
(0.775930033854 0.00120628105731 -0.000877168183686)
(0.811828259376 -0.00108666318702 -0.00317136972856)
(0.811359888198 -0.000965684181328 -0.00159548551649)
(0.774450665043 0.000324175093997 -0.0019733332985)
(0.810989788118 0.000221618537755 -0.00311258689892)
(0.810411491317 0.00213104140661 -0.000432387572908)
(0.774538372001 0.000799348286406 -0.00273472589502)
(0.771990867689 -0.00266012303935 -0.00133269805576)
(0.810756972666 0.000459389454775 -0.00179034076039)
(0.772955751003 -0.000192192021011 -0.0034844357343)
(0.810622431083 0.00186020169497 -0.00179452298196)
(0.811199917832 -0.000414654411936 -0.00367163643086)
(0.810887557156 0.00030330837776 -0.00411356310385)
(0.770678258103 -0.0025662972095 -0.00413358306344)
(0.770767491461 -0.00380773837622 -0.00148579227244)
(0.811713158166 -0.000968147593353 -0.00509899743608)
(0.771548687033 -0.00142044578026 -0.00348186451662)
(0.810562103443 0.000999724734815 -0.00236518481705)
(0.813019692488 -0.00257880442081 -0.00577965962053)
(0.811438088651 -0.000718319132056 -0.00437232812896)
(0.770533517892 -0.00371775178953 -0.00420939578509)
(0.770937714999 -0.00529569405771 -0.00356158808247)
(0.812245766393 -0.00189327137332 -0.00506729533275)
(0.771212059388 -0.00405564647851 -0.00431434588897)
(0.812157384351 -0.00158861264368 -0.00564798711594)
(0.813293427682 -0.00295336836493 -0.00518937566398)
(0.813212548052 -0.0030628717349 -0.00501342593974)
(0.773828555073 -0.00496947509659 -0.00423378042131)
(0.772243258416 -0.00577557511085 -0.00409088898389)
(0.813798187019 -0.00377430151898 -0.00486124046797)
(0.772619507846 -0.00477044529196 -0.00437658163666)
(0.812477206414 -0.00208494473724 -0.00509828713569)
(0.791283468907 0.0124069549733 0.0014373548251)
(0.797498239042 0.0132438508889 0.0007166404358)
(0.800143609288 0.018298660676 0.00108333082565)
(0.802071340845 0.0102914282577 0.000302817392276)
(0.292192117807 -0.0538443870624 0.0067368226142)
(0.370941163044 -0.10305599068 0.000285558531035)
(0.310699362451 -0.00372450102 0.00422794000915)
(0.472425551918 0.0124719958811 0.000356647553746)
(0.437373196376 0.132059287704 0.000520953169751)
(0.315677718201 -0.00841884571854 -0.295220199539)
(0.383268337084 -0.0579354583449 0.510518714461)
(0.207570879821 0.0252311791158 -0.333538208858)
(0.363608087202 -0.0750230524836 0.163962293799)
(0.17758918649 0.00707192418384 -0.331290397252)
(0.448295211501 -0.0580360606617 -0.0518034260577)
(0.786781042639 0.00271871253821 0.000117188957357)
(0.788364641951 0.00570837185686 0.000556731479459)
(0.782582630347 -0.000840939158005 -0.00225580874759)
(0.78377587137 0.00328832080043 -0.000421685483464)
(0.786871077725 0.00854008945329 0.00226319399279)
(0.78149976411 0.00451596007336 -1.84464108078e-06)
(0.790208118729 0.00914671790966 0.00125155380653)
(0.793774131986 0.0106321336497 0.00107111474983)
(0.785110362947 0.00348328478064 -0.00232766773788)
(0.787922131042 0.00225107483089 0.000738532865508)
(0.790379481624 0.0161215663325 0.00358452595611)
(0.794725465963 0.0140735921117 0.00137792968486)
(0.79518906244 0.0178785996576 0.00260762412138)
(0.782821559193 0.00503854306803 -0.00222815916968)
(0.778407163064 0.00897022883013 -0.00258986568413)
(0.786366971549 0.00239298644177 0.00108807168325)
(0.782793665854 0.00479466455641 0.00295461173313)
(0.796855519116 0.0216088990212 0.00246081824353)
(0.799039524036 0.0265760565945 0.00367165540135)
(0.777826393542 0.0104761401047 -0.00235416871895)
(0.781388979921 0.0145957656512 -0.00351375942199)
(0.782196918617 0.00593913073058 0.00353213930786)
(0.784461848296 0.00912498847873 0.00286743159848)
(0.798472475845 0.0156972201409 0.00172116169439)
(0.800203318693 0.0124474585781 0.00130873678087)
(0.786770483097 0.00254025469099 0.00228740889546)
(0.78381744221 0.00500566583056 0.00421390222598)
(0.786090135443 0.00851252010912 0.00370163680184)
(0.801563654383 0.0208612401122 0.00143940653644)
(0.801608964695 0.013910109232 0.00116847051427)
(0.802853148504 0.0149544291383 0.00141438170519)
(0.783278430143 0.00602710340305 0.00526234043447)
(0.785371687433 0.00844253670491 0.00505841525489)
(0.785295710645 0.00924130709844 0.00405165838889)
(0.786391472996 0.0108741030921 0.00565634398104)
(0.785740949582 0.0109303760865 0.00385084947124)
(0.786548046999 0.0122975707781 0.00526925165725)
(0.327160028897 -0.04953513899 -0.000269843205451)
(0.317664013245 -0.0411214475083 0.00345698204076)
(0.324683091585 -0.0623325600636 0.00165723419531)
(0.209425781944 -0.0449676948477 -0.0313448668946)
(0.334987225451 -0.0158148479137 -0.0131245197207)
(0.231555557905 -0.0601326513454 -0.0690212282243)
(0.362440388717 -0.0378219057722 -0.0592376885289)
(0.330516414261 0.0440122130838 -0.0123483691844)
(0.214864564885 0.0489659480081 0.0010584696343)
(0.360687455039 -0.0267013115926 -0.0225654941355)
(0.263788705506 -0.0189349623289 -0.020114629976)
(0.260015001702 -0.0467656201467 0.00565371778881)
(0.235875937445 -0.0620093379759 0.00529236883915)
(0.337981626828 -0.0786823509415 0.00439664839357)
(0.29316835655 -0.0490039482061 0.00896525016122)
(0.378186482118 -0.0525320967591 0.00776204123139)
(0.226713944893 -0.0667803896522 -0.0485853441705)
(0.352716884977 -0.060103363255 -0.0723700505548)
(0.222852634039 -0.0333627520613 -0.174006109423)
(0.357800696812 -0.0330715040533 -0.240192221143)
(0.400619058745 -0.0975235675603 -0.00727829376161)
(0.448898081587 -0.0704688901451 0.00535896841135)
(0.5248798665 -0.0767131199324 0.000367484312532)
(0.36411676525 -0.0600168935215 -0.0305053475272)
(0.310101345684 -0.0557291623969 -0.0046338545681)
(0.363592513716 -0.0391255728839 -0.240202838689)
(0.31191958674 -0.0403110504143 -0.146166891693)
(0.390567127049 0.0161757704097 0.00373336809647)
(0.379713234771 0.0692257806972 0.00305416178626)
(0.217024891037 -0.0299172702756 -0.201691142907)
(0.334189754049 -0.0362130507733 -0.248455658835)
(0.32701465261 -0.0100639309803 -0.20796267838)
(0.542191386272 0.00287300055564 -0.00190959490739)
(0.458904121343 0.080595255459 0.000632716429282)
(0.531903092948 0.0705316425923 -0.00247186787673)
(0.379908757602 -0.0393749779899 -0.278423679908)
(0.367204184673 -0.0309796052002 -0.233674143205)
(0.389785348388 -0.0102825615244 -0.240867520523)
(0.390679071247 -0.00913926821345 -0.221132436815)
(0.79219527924 0.00357916143578 -0.00185762927681)
(0.791388503881 0.00234434611923 -0.00155174885083)
(0.784934998421 -0.000708301906243 -0.0029007256647)
(0.782558227651 0.00120152157584 -0.00133219491274)
(0.791963712816 0.00426506927042 -0.000857530440906)
(0.785007928791 0.000993545502261 -0.0025701702809)
(0.7918574518 0.00217988871625 -0.00219878154843)
(0.792701542691 0.00513920904634 -0.00122017906698)
(0.7933466746 0.00717014478063 0.000272903131568)
(0.783093037039 0.00264014656281 -0.000863188180099)
(0.786164224591 0.00266941961724 -0.00150852670567)
(0.792530464166 0.00585450591113 -0.000207233431271)
(0.793607648455 0.00637274340395 -0.000907260440498)
(0.785511705809 0.00180097038897 -0.00215609859209)
(0.790280861623 0.00770178275557 0.00133189610321)
(0.792398095341 0.00812822166146 0.000202164007582)
(0.781044751416 0.00331489466133 1.35181170444e-05)
(0.78019175096 0.00512356586706 0.000313552401295)
(0.791284224921 0.00626170389721 0.000795439525445)
(0.791502474282 0.00944510676815 0.00141017230327)
(0.779323018141 0.00400988639573 0.000563086609297)
(0.79566989883 0.00902516853242 -0.00157731054746)
(0.794380943319 0.00861995679959 -0.00109945353172)
(0.787008484674 0.00239564762865 -0.00241540593948)
(0.786280991849 0.00273627273825 -0.00239051997979)
(0.79458444396 0.00757894798838 -0.00182327148724)
(0.795590607528 0.0103524248048 -0.00111762277517)
(0.787589041701 0.00226684180042 -0.00221803859664)
(0.797045009856 0.0103559336462 -0.000666517467227)
(0.798426844921 0.0121339501463 0.00147683980578)
(0.787250812298 0.00231579804393 -0.00109908049153)
(0.789187063531 0.00238879391609 0.000614595550954)
(0.797040885886 0.0117333584344 -0.000429028187395)
(0.798412391419 0.0107731137056 0.000902195311181)
(0.788429096876 0.00196262918394 -0.00114428693584)
(0.795011518087 0.0134922900985 -3.0268592169e-05)
(0.793709574905 0.00978483216183 -0.00166998457287)
(0.78108653272 0.0061293939073 -0.00238850045495)
(0.783845358355 0.0037204474024 -0.00203089120212)
(0.793009951936 0.0114301625955 -0.000770932958389)
(0.795110776011 0.0118448501481 -0.00145854105939)
(0.782527933135 0.00490609927841 -0.000990674419413)
(0.79432333869 0.0153895367499 -0.000347076659924)
(0.791672567305 0.0154360962442 -0.000541175893184)
(0.779579645732 0.00771083977874 -0.00210155192954)
(0.7796552107 0.00756165004917 0.000140954013263)
(0.792000823405 0.013287168514 -0.00157287867785)
(0.794331721552 0.017636708686 0.000946228743602)
(0.780891038135 0.00603400777607 -0.000129364560771)
(0.796699616865 0.0147757354259 0.000223599164996)
(0.798205232987 0.0135808671167 0.00128913233862)
(0.785366148228 0.00328205505973 -0.00107959562856)
(0.784787665175 0.00313827072067 0.00139432826395)
(0.796759320762 0.0131598621697 -0.000745718011409)
(0.798310226596 0.0150896247256 0.00222273705181)
(0.783758061066 0.00463557712153 -0.00066156451376)
(0.796374963455 0.016522724735 -0.000169298582386)
(0.79847375071 0.0185463702371 0.00325283963098)
(0.781280288692 0.00701368699829 0.0006304406121)
(0.783629230576 0.00358922512666 0.00187354372521)
(0.796524431264 0.0186045949844 0.0013531432054)
(0.798281182151 0.0167983085746 0.00180303582894)
(0.782371457037 0.00545417730053 -0.0002129449564)
(0.794609656056 0.0223549536121 0.00054419716347)
(0.791508845366 0.0180286065502 -0.00151920148853)
(0.778239994471 0.0119213081064 -0.00287860337598)
(0.778969016093 0.00893197364288 0.000206500114992)
(0.792418539124 0.0205682819478 -0.0006280566555)
(0.79407975829 0.0200825556803 3.74894673278e-05)
(0.77948172263 0.0103083557903 -0.000908425818794)
(0.796477973076 0.0244248054907 -0.00105497937961)
(0.797164900787 0.0249200209424 -0.000249219789171)
(0.779086112319 0.0133316528766 -0.00311256667893)
(0.782273455376 0.0127114765726 -0.00240324761596)
(0.794471127725 0.0227354191984 -0.00144862038907)
(0.780255368003 0.0115660960416 -0.00159240051868)
(0.798836492822 0.0261094870135 -0.000349206584556)
(0.796849320013 0.0228965144329 0.00110575175736)
(0.798531487935 0.0204945554582 0.00302280096795)
(0.780646760096 0.0083837353475 0.000858392182904)
(0.782552141151 0.00710087704168 0.00390294059516)
(0.796552172734 0.0206948188605 0.000696440427906)
(0.79890734336 0.0223278501027 0.00366165706776)
(0.78088970373 0.00974509767709 0.000617226528262)
(0.798450215443 0.0247165658456 0.000217237260992)
(0.801037284145 0.0251483115373 0.00226474384903)
(0.783344165708 0.011828385961 -0.00127955050126)
(0.783098623445 0.00815414839086 0.00367163436846)
(0.799747869166 0.0238364216868 0.00290806240497)
(0.781814037707 0.0110305359828 0.000404056371226)
(0.800102456381 0.0261757578671 -0.000728733362282)
(0.801101465097 0.0132312959979 0.00372851277411)
(0.799798695814 0.0132815249023 0.00223306854862)
(0.785551096522 0.0032261601683 0.00262234117541)
(0.787266386634 0.00420069250833 0.00313608966457)
(0.799921337187 0.0146508244903 0.00294073922774)
(0.801012572431 0.0122772523648 0.0029214106194)
(0.786274581312 0.00463945152938 0.00361315880808)
(0.801116318521 0.0144332021006 0.00373581803424)
(0.80024610208 0.0174085608798 0.00417840834196)
(0.784488148983 0.00395222555172 0.00305662101693)
(0.784637482561 0.00616814694935 0.00475095562652)
(0.799954421956 0.0161385729298 0.00278330913174)
(0.80129755862 0.015309297302 0.0048365051117)
(0.785304972267 0.00534819117494 0.00408261425264)
(0.801881790921 0.0126469445165 0.00358365740922)
(0.802734032592 0.0117318483684 0.00382178827615)
(0.785333599126 0.00774904367481 0.00391798488192)
(0.786609767918 0.00788290573767 0.00347478124583)
(0.802100447678 0.013333515359 0.00410068706866)
(0.802538307713 0.0110387513336 0.00337501179228)
(0.786071434334 0.0068234069996 0.00369830173796)
(0.801758296258 0.0174125753816 0.00549230053635)
(0.800294548127 0.01888594016 0.00450871746984)
(0.783495216023 0.00693139847605 0.00560982329795)
(0.784013616713 0.00699422199013 0.00530705783276)
(0.800608895329 0.0202701228186 0.00517974529905)
(0.801377969515 0.0162958755647 0.0047811397814)
(0.784333357151 0.00779309196709 0.00580308625668)
(0.802078557347 0.0185131484673 0.00512513520181)
(0.801954511616 0.0227794036763 0.00424664532107)
(0.784110837256 0.00778205545047 0.00556251507962)
(0.78608424697 0.00885884349912 0.00613241200597)
(0.801066211162 0.021638642873 0.00458122134384)
(0.784846931734 0.00838775898606 0.00606178113914)
(0.802784538652 0.0194996665983 0.00523790031833)
(0.802742081332 0.0149219119082 0.00516884713044)
(0.802927238053 0.0123168248394 0.00388350508891)
(0.784652315029 0.00870059337381 0.00443441808923)
(0.785148791009 0.00979588612241 0.00468935783326)
(0.80230769458 0.0141726982911 0.00425312268803)
(0.803333349581 0.0127879738836 0.00461677090837)
(0.784666831185 0.00941341168206 0.00521724114731)
(0.802925708929 0.0157814316065 0.00533695426808)
(0.803937791042 0.0139444142999 0.00520681921668)
(0.786174422929 0.0100218952026 0.00607388007232)
(0.785329172135 0.0104135041187 0.0053170075751)
(0.803383294674 0.0133736628875 0.00477934781707)
(0.785053810019 0.00978535992174 0.00586461190484)
(0.80346730047 0.0165080065468 0.00565439105267)
(0.803734047109 0.00888235920155 0.00356601290945)
(0.803312249023 0.0103812297163 0.00364150833612)
(0.785549190994 0.0114796080031 0.00442504393857)
(0.786114718034 0.0114115266191 0.00351592285578)
(0.803614441646 0.0107385590551 0.0040851732003)
(0.803515276938 0.00854114644073 0.00311000601675)
(0.785972118991 0.0118606108333 0.00403344038383)
(0.804142521657 0.0114049071064 0.00452872767036)
(0.785679116903 0.0120106977113 0.00484656092232)
(0.803705212053 0.0111257094153 0.00423061542881)
(0.815823875542 0.00301534180685 -0.000979064285237)
(0.81760763045 0.00102229072184 -0.000565951817523)
(0.817561498113 -0.00107873497361 -0.000421321991591)
(0.814254700809 -0.00370354752069 -0.000344742156663)
(0.809728006754 -0.0049730988718 -0.000220911387998)
(0.820525481453 -0.037967762803 -4.28385200383e-05)
(0.816419792761 0.00293026743614 -0.00206138685542)
(0.818054433848 0.0012127036809 -0.000946771965025)
(0.817893637072 -0.00057839937753 -0.000236894443034)
(0.814510950586 -0.00369755772494 0.000217917869865)
(0.810148249589 -0.00520805695757 0.00153033729055)
(0.821388134648 -0.0393097506842 0.00241995725851)
(0.814997405859 0.00579847593091 -0.000515452786981)
(0.812099167205 0.00620849114181 -0.00030282079814)
(0.792512628087 0.00974433305279 0.00145878293148)
(0.789943371825 0.00947307496446 0.00150699502815)
(0.788354396625 0.00950990792107 0.00449569821661)
(0.783513841301 0.00473514238506 0.0092235266665)
(0.786725085551 0.00341860233573 0.0091192790477)
(0.748957266017 -0.0276764748987 0.0229235093931)
(0.825079026062 0.00528060741017 0.000229821514148)
(0.823016795792 0.00282836770155 -8.62806035743e-05)
(0.821392289957 -0.000217760431695 -0.00114475837874)
(0.819693227815 -0.00386057507149 -0.00286712099093)
(0.820286903947 -0.00736788300816 -0.00231230234061)
(0.817712679007 -0.0124325388382 0.00149160720787)
(0.811886044792 -0.00990325342544 0.00414136821592)
(0.811282747071 -0.0665623827196 0.00918675484907)
(0.818823016559 0.00504898120648 -0.000961990957923)
(0.821737558577 0.0033918899618 -0.00104734282909)
(0.822364308392 0.00225469974704 -0.00149415730282)
(0.821864547071 -0.000272323619662 -0.00174660262129)
(0.820806360403 -0.00307751429028 -0.00123566413052)
(0.819883223647 -0.00719092321384 0.000389884896808)
(0.813054263034 -0.00797229358673 0.00211007284501)
(0.817015980652 -0.0532622801541 0.00406486714841)
(0.815133405604 0.00597590042848 -0.000740916356092)
(0.818152904462 0.00243753848245 -0.000636739429914)
(0.819550695116 0.000242554065334 -0.000769937380663)
(0.819520127878 -0.00208912342814 -0.000902659257338)
(0.818069117887 -0.00349258664582 -0.000995314702207)
(0.817564242285 -0.00703742313614 -0.000400270646675)
(0.811721411726 -0.00832279303092 0.000511393927228)
(0.819411429764 -0.0566600345958 0.00133404958272)
(0.815972453116 -0.00234909020271 -0.000400214486409)
(0.815527877008 -0.00476560527653 -0.000310030486156)
(0.810817658009 -0.0059436542141 -0.000122256113469)
(0.821456481351 -0.0438703054417 0.000139485481282)
(0.637662505929 0.0420181358468 0.0096475385307)
(0.636289444877 0.0397858215072 0.0123867599957)
(0.650437963078 0.0226184579645 0.0151662980776)
(0.65111643326 0.020381337611 0.0164250390047)
(0.654041279904 0.0210373777272 0.0226196648407)
(0.657010020633 0.013079511254 0.0288454750542)
(0.70490036084 0.011355618862 0.0251414656564)
(0.596843596814 -0.0570615975605 0.0385654970481)
(0.772519876305 0.0134513910123 0.00616003789837)
(0.769319355322 0.00872028517488 0.00665846668322)
(0.778794957626 0.00105874815982 0.00959362099892)
(0.777394627167 -0.000881864417511 0.0121687087737)
(0.779269542296 -0.00426340389873 0.0159912894579)
(0.785542360225 -0.0128081125745 0.0177579865182)
(0.795354101886 -0.00908060279456 0.0184205640312)
(0.790644371588 -0.111450754552 0.0233753318015)
(0.819983869401 0.00556813551671 -0.0017789573854)
(0.821762562024 0.0038805420693 -0.00190427934123)
(0.822178630298 0.003457518536 -0.000823585107015)
(0.821826258964 0.00274811837935 -7.83242136877e-05)
(0.821899961564 0.000599666692295 0.000916870385695)
(0.822330163443 -0.00624050440584 0.00139212083357)
(0.816262381937 -0.0088645000391 0.00495439911035)
(0.827015066362 -0.0723853178885 0.00843245257217)
(0.815433360154 0.00590909963775 -0.00196793430012)
(0.818572420933 0.00307003719296 -0.00175950945277)
(0.819534474762 0.000765714398202 -0.000680182080151)
(0.819567013381 -0.00188366963743 -0.000168877138194)
(0.818453729197 -0.00408485581614 0.000526909882639)
(0.81860504767 -0.00769133436498 0.00141215191933)
(0.813442870834 -0.00914761931439 0.00352074941779)
(0.82340099204 -0.0630696295423 0.00541563231721)
(0.816070034532 -0.00182338380474 6.86668824101e-05)
(0.816022361771 -0.00477895630076 0.000500649176244)
(0.811261784532 -0.00655553220769 0.00203320960208)
(0.823150559215 -0.0489988112623 0.003230257846)
(0.633206204174 -0.015121785097 0.0167997296345)
(0.630311313151 -0.0156409583566 0.0163870925303)
(0.641844379451 -0.0212701965108 0.0183499226603)
(0.640943476095 -0.0213890124557 0.0216141409895)
(0.646007851804 -0.0229951810111 0.0272282776963)
(0.649265800565 -0.0257219530374 0.0242617038367)
(0.701396702331 -0.017147293448 0.0208999159274)
(0.599051772005 -0.116616923251 -0.00370333841198)
(0.732862356254 0.00559350527935 0.0202369110697)
(0.733387379839 -0.00101708211001 0.0191466334606)
(0.788495836688 -0.00222024603614 0.00565987489235)
(0.786561200787 -0.00250890643904 0.00855048375576)
(0.785938446764 -0.00658672275832 0.0113150262466)
(0.790608167613 -0.0128648226914 0.00879842494345)
(0.801073529374 -0.00913498776009 0.00633257829631)
(0.806696681881 -0.11836883846 0.000859340352701)
(0.820215312515 0.00449952444269 -0.00346139363361)
(0.823048798833 0.0033792763413 -0.00536375476203)
(0.824089061078 0.000735536843787 -0.00376584561201)
(0.823449480989 -0.00182247933042 -0.000813341201076)
(0.822418442577 -0.00513088187345 0.00112125269115)
(0.823872920323 -0.0111770337045 -0.000279067877146)
(0.819538651944 -0.0134590702745 -0.0020404463271)
(0.839481420868 -0.0866551468013 -0.0029556165663)
(0.809745342705 0.00904529748519 -0.00243590189696)
(0.815509796133 0.0056564963029 -0.0041932707721)
(0.819506676374 0.0023322560121 -0.00440840498139)
(0.821499943777 0.000555031107328 -0.00227834553231)
(0.821195151049 -0.00226029520508 -8.46531865741e-05)
(0.818961287038 -0.00471391097403 0.000438995112294)
(0.820118733055 -0.00831358395343 -0.000795784746318)