/*--------------------------------*- C++ -*----------------------------------*\
| =========                 |                                                 |
| \\      /  F ield         | OpenFOAM: The Open Source CFD Toolbox           |
|  \\    /   O peration     | Version:  v1906                                 |
|   \\  /    A nd           | Web:      www.OpenFOAM.com                      |
|    \\/     M anipulation  |                                                 |
\*---------------------------------------------------------------------------*/
FoamFile
{
    version     2.0;
    format      ascii;
    class       volScalarField;
    location    "3";
    object      alpha.water;
}
// * * * * * * * * * * * * * * * * * * * * * * * * * * * * * * * * * * * * * //

dimensions      [0 0 0 0 0 0 0];


internalField   nonuniform List<scalar> 
28582
(
1.00000172676
1.0000020594
1.00000241361
1.00000291257
1.00000185967
1.00000213767
1.00000492685
1.00000627888
0.0242698968742
0.0255961937497
1.70305936015e-07
1.00000588536
0.94479779369
0.947997162712
1.00000634095
1.0000115149
0.948403422558
0.999974771084
0.999969084969
1.00000062343
1.00000276996
1.00000310952
1.00000095494
1.00000373429
1.00000405429
1.00000080644
1.00000295925
1.00000761836
1.00000608682
0.0260957031937
1.79303351519e-06
1.18971335058e-06
1.00000724856
1.00000683991
0.942089119752
0.941562793436
0.999940496353
1.00000567586
1.0000111483
1.00001103378
0.999974026925
0.949155143009
0.999965311057
0.999972559875
0.0245441176702
0.0257894644706
2.84172805241e-05
2.82385000218e-05
0.0250477025981
4.49300857742e-05
0.999931354011
0.999932586465
0.945894823857
0.946630398261
0.999918274424
0.947597483519
0.999942627357
0.999943381298
0.999977513303
0.947299834404
0.94892734345
0.999954657113
0.948242654734
0.999961415917
0.999971104421
0.999987237056
0.948886477014
0.949281179147
0.999965782999
0.949406229836
0.999994009561
0.999993291899
0.949326830587
0.949563801593
0.999973796415
0.94917617559
0.949409664258
0.999994246089
0.999987122629
0.949228908585
0.94858848438
0.999973815383
0.948854840473
0.999994413644
0.949247968818
0.024716219834
7.56220335795e-05
0.0233958022869
0.0247938899655
4.61855121498e-05
5.81295091717e-05
0.0265129216242
6.54325436208e-05
2.20008593052e-05
0.0275434191266
0.0001251843015
0.0266740380998
3.73538374779e-05
0.999909883987
0.999945396882
0.94187228496
0.942234900078
0.999935489991
0.999930689005
0.940771765721
0.999893526148
0.999917625223
0.941835288064
0.940686518512
0.999924897866
0.99989387579
0.940023896841
0.942506151312
0.943178243141
0.999944489786
0.999909637542
0.941093085828
0.999907869297
0.940419224268
0.999989921118
0.949275038553
0.949537140353
0.999971293948
0.949445617895
0.999986829133
0.949393581148
0.999967065471
0.999976727082
0.94937021277
0.948277754543
0.999982479512
0.99996240145
0.948924962364
0.999977691173
0.999981956807
0.949047936329
0.948525406142
0.948208719074
0.999961977052
0.948614491248
0.947042198198
0.945277090283
0.999964230334
0.999955294449
0.946285627748
0.999949138425
0.947605242272
1.00000325442
1.00000548724
0.0276056155163
4.35622540365e-06
1.00000632431
0.943688215017
1.000010588
1.0000106099
0.948657416509
0.943568003949
0.938447974094
1.00001079051
1.00001030028
0.936366122425
0.923074531142
0.0248816862832
0.0286202605687
0.0301410948117
9.76489158245e-05
0.000182434189579
0.000225527442143
0.0322544380636
0.0345512002019
0.999933103826
0.99995264497
0.94304559976
0.944927924722
0.999919096015
0.944402641713
0.999967225068
0.999946917004
0.999968206146
0.947869196415
0.94753618827
0.999957577239
0.99995682807
0.946141809592
0.999927352054
0.99994908266
0.944737183955
0.94170169044
0.999940288912
0.943072455271
0.999931940352
0.999914117807
0.999905838175
0.939844362924
0.940052713434
0.999899675742
0.941626564161
0.999915740087
0.999863498144
0.999897193484
0.93718358647
0.934358297154
0.999888252433
0.933320242275
0.999881180018
0.999828641163
0.999803467232
0.920891237435
0.92998358893
0.99976919361
0.927568695745
0.999856896372
1.00000836289
1.00000305979
1.00000124611
1.00000277684
0.0137651376653
0.0170631529901
0.0136722975803
0.0160682835826
0.0167011773434
1.36900674219e-06
5.6128471444e-06
8.96650397428e-07
3.25490549572e-06
8.39503809458e-07
5.13568808527e-06
1.00000325831
1.00000415516
0.968327385736
0.970441424336
1.00000460511
0.971548964983
1.00000509122
1.00000460457
0.970138531094
0.967414979361
1.00000685762
1.00000649627
1.00000557736
0.97106237315
0.970275533859
0.967861560833
0.966218377872
1.00000501433
1.00000061646
0.963247210927
0.952696247482
0.960689655141
0.952191040322
1.0000037897
1.00000400309
0.966597151583
0.965437472396
0.962370295141
1.00000114433
1.00000429311
1.00000268595
0.960955455606
0.952719745318
0.959393576811
0.952516971055
0.958951836446
0.951892155382
0.0150227752476
0.0140894144816
0.014316825146
2.96481464549e-05
6.56405222559e-05
2.5217913549e-05
6.03595369384e-05
0.000116212026475
0.0001273142746
0.000103955803962
0.000103799140577
0.0134659569432
0.013346439416
0.0149848823827
0.013592696826
0.0146000401055
2.08834814873e-05
5.46386981792e-05
1.6267801403e-05
4.82889471807e-05
0.0182448518472
0.0163374864821
0.0176981711302
8.99750271886e-05
7.95742675651e-05
8.07566510194e-05
7.29270017486e-05
0.0145103155722
0.0146755536282
1.09484747268e-05
4.02638974189e-05
3.57791305111e-05
0.0174501977294
0.0161906049779
0.0174336398738
7.52315155633e-05
8.0625672716e-05
6.77515123126e-05
9.00201321325e-05
0.999996289013
0.999999513594
0.965883574218
0.968304891332
0.999999819009
0.966929761481
0.999987703325
1.000004851
1.00001029322
0.969351474272
0.968510742769
1.0000084785
1.00000373254
0.967880671836
1.00000687409
1.00001866766
0.971620324878
0.972921834759
1.00002125163
1.00000493981
0.973777520436
1.00000598963
1.00000694712
0.968657051621
0.969009652932
1.00000122454
1.00000841808
0.968011549236
1.00000632738
1.00001019702
0.968000488783
0.966546772348
1.00001060828
1.00000563776
0.967146805781
1
1.00001025044
0.972076999132
0.970645231737
1
1.0000117594
0.971059736363
0.999999833049
0.99999674275
0.972252401273
0.967015943912
0.999997602377
0.999997223429
0.969397198248
1.00000202285
1.00001034392
0.969521286597
0.968553418952
1.0000196692
1
0.970061741678
1
0.999993791816
0.965662514805
0.96793268642
0.999994306605
0.999997915671
0.968540399906
0.999969025961
0.999988316632
0.958936019531
0.964794988134
0.999976343891
0.999990463774
0.960423589624
0.999945812683
0.99996969918
0.957551623729
0.947518933387
0.999972912934
0.95076905417
0.999937112925
0.999979310488
0.999983377704
0.963321805817
0.956054127861
0.999991292838
0.99996196285
0.959894648757
0.999959425324
0.99994703788
0.947328486567
0.954335009104
0.999956253662
0.951060510473
0.999936976943
1.00000549616
1.0000058853
0.967429429695
0.965699326076
1
1.00000830453
0.965981043132
1
0.999996583425
0.966794678281
0.963038428921
0.999997196551
0.999994748328
0.965325706888
1.00000190097
0.999996085154
0.962057214846
0.962885809803
0.999997529593
0.999999478439
0.964284304409
0.999975436808
0.99998958756
0.955454166937
0.960042069919
0.999964331168
0.999989513249
0.958220684912
0.99995930814
0.999962232333
0.953891886518
0.948477046156
0.999956739832
0.952608419749
0.999943468346
0.999985323917
0.999992432956
0.959149928495
0.954434782174
0.999989537085
0.999974644411
0.958059894684
0.999969979883
0.999966520718
0.948568222483
0.951958634781
0.99996712063
0.953428245457
0.999954572558
0.999965918124
0.999992376501
0.95341170858
0.954454018341
0.99996349702
0.999971435704
0.954904410746
0.999968725522
0.950851895208
0.999959089085
1.00000184613
1.00000228656
1.00000243791
1.00000308576
1.00000280645
1.00000248141
1.00000194444
1.00000238371
1.0000025404
1.00000393464
1.00000358347
1.00000361471
0.999963201488
0.999988847077
0.99995643391
0.999993193425
0.999999614309
1.00000083272
1.00000179807
1.00000246628
1.00000052129
0.999999792072
0.999982778176
0.999985441167
0.999996522049
0.99999967517
1.00000051075
1.00000151185
0.99999716377
0.9999989499
1.00000001897
1.00000050453
1.00000083424
1.00000110444
1.00000138358
1.00000190725
1.00000037631
1.00000107311
1.0000013164
1.00000154597
1.00000182039
1.00000183003
1.00000184097
1.00000208399
1.00000233091
1.00000230907
1.00000227896
1.0000027295
0.999862938393
0.999756538692
0.999987311901
0.999999715686
1.00000217374
1.00000317502
1.00000357946
1.00000535071
0.999839516586
0.999912041996
0.999987856015
0.999999218758
1.0000004702
1.00000126173
1.0000018735
1.00000259947
0.999982818849
0.999997293943
1.00000018554
1.00000103123
1.00000137406
1.00000162704
1.00000199341
1.00000274985
1.00000077266
1.00000108662
1.00000116042
1.00000130411
1.00000147374
1.00000162206
1.00000193681
1.00000259074
1.00000249694
1.00000245494
1.00000254724
1.00000326858
0.999504148939
0.999894516821
0.999999053353
1.00000273599
1.00000381007
1.0000040446
1.00000400957
1.00000547889
0.999737186378
0.999939930507
1.00000136765
1.00000213441
1.00000211174
1.00000209356
1.00000205846
1.00000324902
0.999991984503
0.999998248714
1.00000045864
1.00000110593
1.00000137287
1.00000170193
1.00000226623
1.00000302252
0.999999810521
1.00000101851
1.00000088638
1.00000072321
1.00000077304
1.0000010166
1.00000151201
1.00000216986
1.00000287103
1.00000151044
1.00000184371
1.00000194699
1.00000209313
1.00000227541
1.00000242768
1.00000282492
1.00000373243
1.00000393967
1.00000464131
0.999809953761
0.999992395996
1
1.00000831636
1.00001425469
1.00001589802
1.00001536176
1.00001285009
0.999999681696
1.00000265749
1.00000277776
1.00000742388
1.00000984376
1.00001043873
1.00001050303
1.00000720334
1.00001254475
0.999999722344
1.00000085637
1.00000362813
1.00000510646
1.00000537817
1.00000531478
1.00000578631
1.00000658193
1.00000488888
1.00000423305
1.00000607527
1.00000726703
1.00000457766
1.00000275185
1.0000024291
1.00000340153
1.00000540792
1.00000551544
1.00000473491
1.00000563515
1.0000038791
1.00000307776
1.00000340129
1.00000498927
1.00000416756
1.00000461414
1.00000607147
1.00000378136
1.00000412096
0.0250618706558
0.0262867833662
0.0271016530992
0.02841063253
0.0277566574445
0.0294443048393
0.0364304865348
0.0437246213563
0.0186123053524
0.0204809415017
0.0233129687984
0.0254697389226
0.0264953889694
0.0275883494925
0.0274420024514
0.0295109795586
0.0366486465963
0.0438789784851
0.0182084344019
0.0195377080097
0.0216797263029
0.024063573778
0.0256718562527
0.0266937345
0.0271338332988
0.0299489790718
0.0370022703601
0.0438726758632
0.0192880855848
0.0214997088925
0.0242282429631
0.0256971581555
0.0272702288429
0.0274237057132
0.0300361182583
0.0370971671753
0.043525870016
0.0251735201822
0.0260158672607
0.0265854949876
0.0269909860163
0.0306308519685
0.0370332146756
0.0419961367871
0.0321162405771
0.0369335396932
0.0405638747794
1.27543289424e-06
3.5546600206e-08
5.60728136593e-08
2.28466315899e-08
-3.75923727073e-27
3.91969376655e-08
8.26829788585e-26
1.06596329615e-06
7.95835631507e-06
7.64784357716e-05
3.45287165365e-07
3.91091439305e-11
1.51822297592e-08
3.50450345537e-08
5.72351714026e-26
1.26125297459e-09
2.91146876737e-26
8.55880190963e-07
1.35897899358e-05
7.94881862345e-05
2.28405527046e-06
1.07779773821e-07
2.7377104299e-09
1.7032249808e-07
9.83338280071e-07
7.21267333297e-07
1.09753771088e-07
1.97409067944e-06
6.53683384775e-06
6.01509234594e-05
1.50900601216e-07
2.8214413908e-07
6.98739576491e-07
1.36647813421e-06
5.9760183801e-07
1.8272310627e-07
2.56439882119e-06
5.79985158982e-06
5.45171629962e-05
6.88856839244e-07
1.58465734863e-08
1.16281826357e-08
6.5080573805e-07
4.51701132674e-06
1.78935194309e-05
6.06624357366e-05
5.83502348152e-06
1.74005506308e-05
6.55603917288e-05
0.999992005351
0.999995579656
0.99999763559
0.999911175385
0.999946298193
0.99990059513
0.999958263082
0.999955920384
0.999998733634
0.999999569123
0.999867494748
0.999853942383
0.999957504997
0.99993455305
1.00000063946
1
1.00000086375
0.99999145387
0.999993189404
0.999995423139
1
0.999999681679
1.00000054756
0.999998308987
0.999996001532
0.999993703649
1.00000027946
0.999999072476
0.999731665285
0.999707897164
0.999745228437
0.999549198702
0.999649075459
0.999518605379
0.999645586827
0.999901084808
0.999784328851
0.999897750417
0.999847313185
0.999951043324
0.999816486238
0.99993421046
0.999910039744
0.999985720838
0.99998524942
0.999631032609
0.99968227609
0.999920517663
0.999939947791
0.999920600329
0.999986166994
0.999988786686
0.999851808649
0.999957836462
0.99996807694
0.999986294206
0.999676299637
0.99964813603
0.999777872946
0.999620082538
0.999874507054
0.999748807703
0.999894107218
0.999978244262
0.99989571652
0.999969193044
0.999969837879
0.999995543205
0.99998095266
0.999999605107
0.999821993248
0.999942349692
0.999953486881
0.999920360222
0.999962862739
0.999999139878
0.999998197815
0.99999396959
0.999982081002
0.999998655284
0.999995149223
1.00000075708
0.99999887167
1.00000036404
0.999848779391
0.999951527337
0.924160758047
0.929308085925
0.999921292166
0.999940749687
0.999968358026
0.924950923526
0.929763787012
0.929391455367
0.93238690965
1
0.999997137903
1.00000057302
0.931340543084
0.936328173175
0.933617949782
0.937885012171
1.00000348393
1.00000539662
1.00001083608
0.937961998871
0.940047982687
0.938856904978
0.941093886834
1.00001187538
1.00001302863
1.00001297329
0.940328237333
0.941776457791
0.94132883361
0.942375549681
1.00001586217
1.00001296522
1.00001206977
0.941966869713
0.943511321348
0.942730311656
0.943472271267
1.00001540822
1.00001205268
1.000009797
0.942864272249
0.933207693789
0.943044192771
0.930520454312
1.00001392822
1.00000946383
1.00001116233
0.924920739731
0.893869003345
0.921645328937
0.893707957044
1.00001311397
1.00001761012
1.00002241313
0.892927810089
0.881635932297
0.89332394455
0.877595417585
0.999996178784
0.999996374405
0.940075128507
0.938078577892
0.944146714625
0.942738995394
1.0000049118
1.00000056973
0.999998808455
0.930556061854
0.931638406897
0.939794667528
0.93902452608
1.00000340768
0.999999559025
0.999999714657
0.931500425695
0.933487509061
0.93851936337
0.9387312397
1.00000502959
1.00000177037
1.00000273514
0.934495038022
0.938642058228
0.939223196441
0.942078479036
1.00000952671
1.00000500833
1.00000632895
0.939642722777
0.941497320577
0.942518301091
0.943177220149
1.00001052079
1.00000702437
1.00000716808
0.941744747102
0.94258472649
0.943463029697
0.943551309714
1.00001134915
1.00000766165
1.00000769137
0.943209824427
0.943501141256
0.943578101471
0.943035088009
1.00001007202
1.00000883435
1.00000807982
0.94307161815
0.929915877215
0.942307406065
0.929009858168
1.00000810044
1.00000640793
1.00000416415
0.920867858613
0.89387714587
0.920294251949
0.893525357513
1.00001791965
1.00000785892
1.00000911182
0.893720413319
0.877429862448
0.892994417306
0.8771729833
1.00000175871
1.0000023403
1.00000218316
0.945782278967
0.944261359126
0.948979772159
0.94818506809
1.00000325858
1.00000452657
1.00000550901
0.942136796216
0.941134362804
0.947470570686
0.946324905495
1.00000523456
1.00000786253
1.00000814462
0.940699691959
0.940558058891
0.945614364562
0.944173867016
1.00000583764
1.00000812901
1.00000740675
0.940949677637
0.942844076411
0.944362761417
0.944363706316
1.00000551165
1.00000667026
1.00000591734
0.943329973447
0.943667201784
0.945070128448
0.944065899917
1.00000556522
1.00000505171
1.00000486255
0.943907749631
0.944132614536
0.942922466887
0.942574048171
1.00000683399
1.00000530703
1.00000574106
0.944141621558
0.943577768266
0.943010479096
0.943105487035
1.00000620733
1.00000797629
1.00000749175
0.942820016962
0.929469797798
0.942631254811
0.932239902888
1.00000486814
1.00000656045
1.00000445329
0.920778817791
0.892801373766
0.924104944147
0.892559087398
1.0000075537
1.00000760381
1.00000978706
0.892033112741
0.877730912893
0.890110442607
0.875506091663
0.949122623125
0.948234651961
1.00000808427
1.00000785897
0.947818045567
0.946864835215
0.944761365681
1.00000616218
1.0000087618
1.00000752171
0.946104699906
0.944043862506
0.943707367698
0.94197093983
1.00000335526
1.00000632845
1.00000532372
0.944128133151
0.944320755169
0.941982412479
0.944201381956
1.00000187102
1.00000486482
1.00000445148
0.944800487618
0.944038316615
0.944509431678
0.945907749313
1.00000225551
1.00000405839
1.00000387798
0.943223745278
0.943512751816
0.946083244345
0.946564902896
1.00000509181
1.00000465687
1.00000494094
0.944023234227
0.944368025793
0.946522726094
0.946239363205
1.00000608315
1.00000749795
1.00000776169
0.943985164837
0.933228321441
0.945571022685
0.931060610741
1.00000529595
1.00000687611
1.00000404508
0.924679017149
0.891983709501
0.921480975868
0.892136921314
1.0000082227
1.00000840407
1.00001028155
0.88971656506
0.876218768995
0.892585326134
0.882975791518
1.00000443073
1.00000609335
0.94165728397
0.944451324944
0.947213186781
1.00000331611
1.00000612081
1.00000592013
0.944835258555
0.946116756865
0.947672680327
0.948591857511
1.00000334264
1.00000586742
1.00000581617
0.94632065901
0.947245125369
0.948731960877
0.949202791442
1.00000519241
1.00000655042
1.00000652325
0.947321126129
0.947000587992
0.949034038771
0.945613816766
1.00000542661
1.0000074374
1.00000591198
0.945789555408
0.928857605958
0.942049987918
0.921250872628
1.00000482558
1.00000467135
1.00000256321
0.919383891314
0.89439928142
0.913587909288
0.898346887109
1.00000816689
1.0000075552
1.00000885198
0.895330532651
0.884862789514
0.89941673632
0.891769368586
1.00000610721
0.943741882736
1.00000573026
0.93995830341
0.920332979362
1.00000534546
0.913037055574
0.898563127344
1.00000666104
0.899687776812
0.892765318952
9.45494672289e-05
1.58616329706e-05
5.7431378338e-05
3.18899561759e-06
0.0240372295532
0.0231342876519
7.69334022877e-07
3.79720779909e-07
3.45841424442e-07
3.37111681101e-07
0.0256971955132
0.0242517211131
0.0251468208606
1.38695199302e-06
1.62972904988e-06
1.51813655977e-06
4.78707406887e-06
0.0266714892294
0.0258682511967
0.0263753619475
4.77296957236e-07
2.68077482889e-07
4.97795885943e-06
3.29855136611e-06
0.0278535350831
0.0269384511311
0.0275371706394
1.97791975386e-06
1.52565331476e-05
3.80382515328e-06
3.71387893171e-06
0.0280542512119
0.0280042501345
0.0278022010706
2.62684645677e-05
1.31825989696e-05
3.56463846577e-06
2.01945912035e-06
0.0280164669103
0.0276334799759
0.0279541957442
1.15857445592e-05
1.59911935448e-05
2.32230850243e-06
4.54732872967e-06
0.0326989098767
0.0294074587704
0.0326176803391
2.6006480286e-05
0.000127387598867
2.45839416177e-05
0.000147640725091
0.0407794914666
0.0364548697756
0.0408348810975
0.000269829294148
0.00043828314185
0.000317660257427
0.000478403600861
0.0451218977874
0.0438329595169
0.0455453600718
0.000788819590184
0.00111143410938
0.000812527159824
0.00111954856714
0.0193235774255
0.0185369862705
0.019134138378
3.05917533522e-05
2.774164116e-06
3.45270014856e-05
1.07294876811e-05
0.021852961284
0.0201089150689
0.0211103486226
7.48728632083e-07
5.03914518436e-07
2.57864183452e-06
3.13559516555e-07
0.0247039042776
0.0225231004298
0.0237805830773
1.02864136041e-06
3.28104872644e-06
6.14703730022e-07
6.29800700439e-07
0.0260413555068
0.0247649141979
0.025367012304
4.73877422745e-06
5.04206051594e-06
3.61354773685e-06
5.64396793418e-06
0.0271844371255
0.0260561923808
0.0266651593213
4.86253730967e-06
4.92178672367e-06
1.06097557226e-05
7.78609703687e-06
0.0275363821158
0.0269854595456
0.0270666490971
2.37091710681e-06
1.36533618745e-06
6.79365285353e-06
1.99751481537e-06
0.0279040389099
0.0272707000301
0.0279345141372
2.83865153907e-07
2.68540904271e-06
2.1214107464e-06
4.99767931918e-06
0.0327875807146
0.0297393267832
0.0330862523852
2.57300796479e-05
0.000164113799411
4.84790650846e-05
0.000192590675249
0.0409649525143
0.0368340767381
0.0410274222163
0.000357841826648
0.000528186243491
0.00037135166886
0.000539631292944
0.0456882855076
0.0438258218547
0.0455131981021
0.000836727539181
0.00110984576844
0.000845141847247
0.00109109323949
0.018982113589
0.0181912848439
0.018497081803
5.57419955221e-05
2.65306419159e-05
7.76884263503e-05
3.86747806835e-05
0.0205393082911
0.0191401519445
0.0199988287843
5.58704309895e-06
4.74652543412e-07
7.07417116319e-06
5.32921369901e-07
0.0229756870465
0.0212860191666
0.022602449145
2.21554520887e-08
3.91927630621e-08
1.31120068264e-07
3.70236946887e-08
0.0248904623599
0.0237499671933
0.0248530498001
1.64483217934e-07
3.90165046746e-06
2.63587006005e-07
4.04082636087e-05
0.02622140917
0.0254075434805
0.0262758289567
1.66287266032e-05
3.63032498297e-05
9.30394418414e-05
0.000126060229945
0.0269015948821
0.0270991618364
0.0273984919538
3.04663094462e-05
2.06177615086e-05
0.000121748374132
8.7305791742e-05
0.027913889502
0.027537918138
0.0281975032592
1.15661096435e-05
1.65939768799e-05
5.82552638038e-05
4.92319634369e-05
0.0334167378993
0.0301219290893
0.0336211366
6.55414738588e-05
0.000204144635212
9.2372094863e-05
0.000208594465346
0.0409835759144
0.0370520225924
0.0408247584421
0.000344979866369
0.000492513796537
0.000337869379172
0.000483700067173
0.045495855457
0.0437539433297
0.0452410850738
0.000761429473344
0.000967459236757
0.000748692188911
0.000952392471133
0.0200076297049
0.0208509547898
8.53578383263e-06
5.19241209368e-07
1.3996233972e-05
0.0228851198466
0.0223795788507
0.0237754082099
1.44908763308e-07
8.61573132254e-07
1.71794319809e-05
3.17049166956e-05
0.0250975118145
0.0248188604339
0.0254788442096
2.6466241153e-05
7.47172695095e-05
4.81081779684e-05
5.32793921812e-05
0.0266043682384
0.0260259684633
0.0265209649102
0.000104181951793
0.000119839076778
6.09938374912e-05
5.74645867244e-05
0.0273303478805
0.0268012159937
0.026991243902
0.000102488347266
7.04266410754e-05
5.01009721096e-05
4.09519643251e-05
0.0280450161133
0.0272464159435
0.028049062832
3.76820731596e-05
3.6489040771e-05
3.76615807878e-05
4.34124215588e-05
0.033727540835
0.0301921074275
0.0338202853608
7.66201548438e-05
0.000202519886519
0.000101234192899
0.000234161536532
0.0406607639946
0.0370593749455
0.0404113299359
0.000332717904913
0.000477020051191
0.000352570696118
0.000476038407608
0.0449580653
0.0429103421779
0.04417933285
0.000724691970638
0.000912792483239
0.000700830695414
0.000877097127298
0.0255298428341
0.0250207481057
4.56834489006e-05
2.12469658335e-05
6.64955488603e-05
3.3130534928e-05
0.0264093858391
0.0254405518379
0.0258702010918
2.84747709688e-06
1.14536936948e-06
1.39737263171e-05
1.05780834149e-05
0.0267010643468
0.0261961141442
0.0264231103511
9.43200162867e-07
2.7862223983e-06
9.44980079344e-06
8.13099747128e-06
0.0280895352676
0.0270048010594
0.0286183318923
1.26609209912e-05
4.60936701686e-05
2.63366468196e-05
0.000111098932758
0.0340279599658
0.0314050179851
0.0344325224009
0.000129164162573
0.000262070839521
0.000217751136126
0.000316739115573
0.0400327272341
0.0369808967047
0.0395476217771
0.000403027628986
0.000527164958914
0.000425367709053
0.000517017439274
0.0429170505805
0.0411794991623
0.0416825641386
0.000715403024586
0.00087190949159
0.000682005930258
0.00082421774149
0.0294914859475
0.000194548451897
0.0346222197117
0.00026092560217
0.00031648083682
0.000256331662473
0.000285109783918
0.0392668156832
0.000409917233496
0.000499324377482
0.000354029391305
0.000451521128592
0.0406108691613
0.000702822812115
0.000868617091753
0.000671748203161
0.000857688285262
0.999921097668
0.99991617839
0.924183947513
0.925756415034
0.999925081316
0.923542579367
0.999915787238
0.999935394564
0.999955087259
0.927053024615
0.929946525382
0.999943891994
0.999956373818
0.924955127136
0.999922545514
0.999909208209
0.927483922401
0.9274103626
0.999925646425
0.927751671828
0.999910490064
0.999925042176
0.999934562326
0.928899028144
0.930616115955
0.999934252678
0.928856104763
0.999923611908
0.999942066705
0.999945214474
0.928716691674
0.930689378578
0.999946624
0.999943466686
0.929013379909
0.999940633311
0.999937978195
0.931701474073
0.931711514815
0.999943842715
0.999942230258
0.929983525786
0.999952766516
0.999935488995
0.933345518753
0.931837480314
0.999948988994
0.93296762712
0.999934068079
0.999950583214
0.999921972832
0.934876298804
0.936779905877
0.999936905853
0.934638916978
0.999928627635
0.999944217209
0.999936628709
0.932909121136
0.935311104705
0.999944989873
0.999938040931
0.933989963396
0.999941808376
0.999949940235
0.937147595439
0.936723881252
0.999933251254
0.999942453958
0.935419421852
0.99984041071
0.999916867966
0.939358371122
0.938487621429
0.999898963443
0.939420379153
0.999917321225
0.999808513721
0.999923368613
0.939884622733
0.939691614818
0.999809360158
0.939602810187
0.999919006464
0.999893890594
0.999954943937
0.938655373017
0.939823994234
0.999916722762
0.99996232545
0.93975252683
0.999894527134
0.999963997842
0.940515619693
0.940627092185
0.99988942097
0.999967542952
0.940252160866
0.999811460227
0.999926498493
0.94083426355
0.939932857018
0.999808464296
0.940605080357
0.99992213912
0.999839704091
0.999932988213
0.941473461994
0.94266451447
0.999897737457
0.941478162866
0.999921213561
0.999895286921
0.999958931715
0.940718638841
0.941573991058
0.99988880357
0.999956371467
0.941149991401
0.999911135871
0.999958497446
0.942840353509
0.94189637115
0.99993595117
0.999957544256
0.941868507699
0.999984694029
0.999961302146
0.942681502458
0.943407306782
0.999960769328
0.943527716962
0.999989858352
0.99998680574
1
0.94346967353
0.94309929081
0.999982744981
0.943347267397
0.99999984768
0.999987748218
0.999959623065
0.943252715592
0.94335610699
0.99996480007
0.999962017706
0.94328191632
0.999998586763
0.999970693781
0.943256314666
0.94356235894
0.999999834923
0.999969627492
0.943282936136
0.999959883956
1
0.94179120746
0.942782297451
0.999973841128
0.942025768612
0.999997449177
0.999942905611
0.999932008099
0.938516169939
0.932647623303
0.999899784358
0.938662899008
0.99998328896
0.999989601606
0.999969792472
0.942923672092
0.941624866574
0.999998093218
0.999960576023
0.9419132373
0.999969658144
0.999890148486
0.931507599183
0.937265477662
0.999906276841
0.999940216334
0.938073873565
0.999723090693
0.999865976829
0.91387982345
0.923530760324
0.99983338357
0.912794246906
0.99975428136
0.999599567883
0.999521630541
0.902922452988
0.894431059774
0.999495453475
0.90316802202
0.999632881265
0.999711983711
0.999816117343
0.922221377646
0.911390958751
0.999826399669
0.999701862665
0.912043196553
0.999597292852
0.999490102238
0.895327054802
0.901843869601
0.999525079997
0.999584587569
0.903112998269
0.99936039909
0.999443866424
0.891115021578
0.891813480253
0.999436080685
0.890281397627
0.999360046497
0.99925223519
0.999331337093
0.880852272515
0.880712290285
0.883285139667
0.999363346111
0.999228977239
0.999411135485
0.999492497491
0.892505569703
0.892635125412
0.999478358229
0.999473016209
0.890876053948
0.999283284021
0.999418361226
0.878661347068
0.885805485676
0.999350827536
0.884696755627
0.999381024153
0.999926997805
0.999940910051
0.937238523048
0.948092113432
0.999925076535
0.945944734152
0.999940996265
0.999928153898
0.99994695254
0.940307760023
0.935381246189
0.99994520516
0.999919893864
0.936203552373
0.999942743722
0.999925237161
0.9483297056
0.942584999755
0.999914372163
0.946555064045
0.999942128528
0.999913190564
0.999934169239
0.938041297984
0.944341156637
0.999921276562
0.999935395053
0.938558213811
0.999950110987
0.999942390765
0.931076381254
0.937659900538
0.999947656051
0.999937890617
0.935555235378
0.999950418207
0.999965775479
0.932355000736
0.934150997906
0.999975105849
0.999953685667
0.933723217546
0.999934631887
0.999922635777
0.939819332942
0.93999752945
0.999934263203
0.999924625796
0.937958867363
0.999935076397
0.999933749414
0.936506776759
0.940039509071
0.999945129717
0.999936083296
0.936314494656
0.999952319359
0.999961498216
0.932269641552
0.934255369919
0.999959462058
0.999957384638
0.934051372251
0.999948662857
0.999937255166
0.932971529562
0.935185857172
0.999951443694
0.999948571454
0.934294270091
0.999949711146
0.999929039115
0.936446231854
0.938545332639
0.999950110749
0.999929632059
0.936149464421
0.999947740458
0.999932277074
0.936932234531
0.938588694848
0.99994426169
0.999931285482
0.936306566442
0.999958641812
0.999926678632
0.935969051102
0.936132627214
0.999925377137
0.999951331526
0.937052028619
0.999961379958
0.999930491541
0.937316888561
0.939312878769
0.999925915008
0.999959162695
0.938083050383
0.999933558106
0.9999360799
0.937632284461
0.939976044957
0.999939121281
0.999945902527
0.93856584425
0.999933038558
0.999973919491
0.940540187371
0.940898936277
0.999931533931
0.999960797425
0.939624755955
0.999941021958
0.999940168609
0.940445502126
0.940595485966
0.999946391514
0.99995063562
0.941531618021
0.999937366856
0.999940802075
0.941022351548
0.941858505322
0.999944844171
0.999937090149
0.941779257873
0.99993235404
0.999981142443
0.941314973251
0.942556787575
0.999930942856
0.999981226704
0.94212074952
0.999937403297
0.999977070577
0.942579218797
0.942688429605
0.999940161504
0.999980152121
0.942465574705
0.999938002861
0.999934163551
0.941931284242
0.941996141211
0.999931714918
0.999937611385
0.942275353319
0.999940417163
0.999936073553
0.942188542154
0.943193943718
0.999933126391
0.9999455533
0.942678827932
0.999939002074
0.999974030945
0.942689820826
0.943544044792
0.99993998868
0.999970269795
0.942909697924
0.999939466884
0.9999695542
0.943418975952
0.943583787546
0.999940747795
0.999969813624
0.94313352486
0.999964284862
0.999943083438
0.943628385495
0.943358116101
0.999958487493
0.999956248877
0.943315373042
0.999968711919
0.999986550649
0.94366554402
0.943189707007
0.999979083923
0.999969426415
0.943313324598
0.999949339347
0.999970257512
0.943550555741
0.943580195193
0.999945278653
0.999972230047
0.943519108668
0.999952356425
0.999971686577
0.943326590962
0.943456733281
0.999955421565
0.999974904596
0.943450880987
0.999952430671
0.999984443008
0.941615131548
0.942804315777
0.999969934521
0.999966387469
0.941314538675
0.999927803608
0.999884477
0.93692756061
0.929271157641
0.99994163934
0.999872418322
0.936666317312
0.999934876412
0.999965179159
0.942756414738
0.94055488326
0.99995117337
0.999946320925
0.941132367754
0.999908202776
0.999859484178
0.928963956838
0.935856095313