/*--------------------------------*- C++ -*----------------------------------*\
| =========                 |                                                 |
| \\      /  F ield         | OpenFOAM: The Open Source CFD Toolbox           |
|  \\    /   O peration     | Version:  v1906                                 |
|   \\  /    A nd           | Web:      www.OpenFOAM.com                      |
|    \\/     M anipulation  |                                                 |
\*---------------------------------------------------------------------------*/
FoamFile
{
    version     2.0;
    format      ascii;
    class       surfaceScalarField;
    location    "3";
    object      alphaPhi0.water;
}
// * * * * * * * * * * * * * * * * * * * * * * * * * * * * * * * * * * * * * //

dimensions      [0 3 -1 0 0 0 0];
oriented        oriented;


internalField   nonuniform List<scalar> 
92311
(
0.201070306374
4.02524660129e-05
0.000814063263092
-0.20142222255
-0.000502496264521
-2.51052984762e-05
0.200726720991
0.00111875906772
-0.000750054058192
0.201026661972
2.58462992844e-05
0.000860790758377
-0.201396013636
-0.000477035841282
-8.31367004044e-05
0.200638311748
0.00116721245701
-0.00072073075473
0.200868086072
-2.96429620188e-05
-2.96912288598e-05
0.000963925488918
-0.201314239619
-0.000507452953833
3.21472805798e-05
4.27096549804e-05
-7.62639384346e-05
-7.16778955992e-05
2.0071985012e-05
0.200378838302
0.00124823734774
-0.000731512873044
1.73260596369e-05
0.0502987260009
4.30125545708e-07
-1.16963208461e-05
-1.12175008934e-05
-6.02900935404e-06
0.000175386543709
-0.050346611326
-0.000128587738625
-0.0502458935019
0.0501555872517
-1.57955272254e-05
-1.69369223544e-05
-1.85398991252e-05
-1.36081558619e-05
0.000269036981558
-0.000190094706893
-3.00817992783e-05
0.000776875767935
-1.16336874916e-05
-1.49365627665e-06
-3.87082686073e-06
-0.000201318776079
-0.000821818503167
2.39439393674e-06
0.000123635397293
0.000832505140267
5.01020309596e-05
1.56476884147e-06
-0.000781300105983
7.65828890859e-08
3.86239344713e-07
5.25340953514e-08
3.43672731138e-07
-0.000161463899247
-6.27175354283e-10
-1.35972548032e-08
-2.48222659781e-08
-5.89276776949e-08
2.53873180773e-10
2.98762669981e-10
6.27438584579e-10
-7.45317307157e-09
-1.39372235057e-05
-7.63273688926e-06
-1.27998434027e-05
-9.7961152982e-06
0.000233851740721
-0.000166472631502
-7.78698104886e-06
0.011774160662
1.16327712811e-05
-1.6212251547e-05
-0.0117875494001
0.0117750218047
1.01862294241e-05
4.10495513334e-06
-0.011781111956
4.63492727125e-06
-8.27415669533e-06
-0.000209751557336
-1.8783467754e-05
0.0500840516668
-1.9794840045e-05
-2.13667698346e-05
-1.92201805023e-05
0.000288782062492
3.55147121995e-06
0.0500644525395
1.38275477363e-05
3.17858966954e-06
1.35934078752e-05
-0.0501419841395
-0.000146300655079
3.93493915471e-06
9.25479929333e-06
0.0117725984389
1.97460963107e-07
-6.20822990619e-06
-5.42240269615e-05
0.012510163849
6.27390810877e-05
-1.59017197972e-05
-0.0125214977624
0.0125062470409
-3.68318403517e-05
-2.48225593492e-06
-0.0125176466342
9.22129709293e-05
0.201847174987
0.000391302822089
-0.000179164422308
-0.202151568126
0.200540248409
-0.000122726954561
0.0010963366295
-0.000786890529655
-0.000221258349435
0.200485675404
0.00104251076011
-0.000766417121096
0.000256973929872
0.201753345633
0.000423947019796
-0.000199541017151
-0.202142523559
0.200424928006
-0.000285280819022
0.00114394354207
-0.000767716988786
-0.00050407713822
0.200391001476
0.00108448681592
-0.000767463295878
7.52042727352e-05
7.0555471024e-05
0.000165356534005
0.000499578660739
0.201723649173
-0.000251611630198
-0.202183245069
0.000157456694545
-0.000152159380694
-0.000166697275604
-6.57721951387e-05
-9.43864693616e-05
0.20011869505
0.00120225904896
-0.000748203866637
0.0505678164511
4.10487865467e-05
2.87404696062e-05
2.55574530241e-05
3.38356175378e-05
-1.69922531882e-05
-0.0506123008584
7.50360321851e-06
0.0499896479725
-0.00022455084825
-3.13202152124e-05
-3.30814609751e-05
-3.46439725615e-05
-3.4041733995e-05
0.000299871642845
5.48409737297e-05
1.19192799409e-06
0.000872678487011
6.37279385255e-07
6.91155269002e-07
7.99346783329e-07
1.08805408381e-06
-0.000137181961376
-6.5845273123e-08
4.62917664694e-08
7.73780120016e-09
1.52357692725e-08
2.22883412477e-09
-1.5914598232e-08
-5.22280301602e-09
2.32249638237e-09
-2.43086087523e-08
-6.11987701124e-09
-1.325343338e-07
-1.77389908086e-08
2.10888388299e-08
2.720347348e-10
1.47725466466e-08
-0.000123673200342
3.15114596192e-05
2.95985705586e-05
2.98156787427e-05
2.19873111135e-05
0.0505140989904
0.000134967363956
3.90013988569e-05
3.96534831799e-05
5.27083927831e-05
4.30186951807e-05
0.0503989374298
-0.00010078660484
-0.0504308585007
4.58957638209e-05
-4.50955372681e-05
0.0117732607835
5.39172349674e-06
-1.11828194937e-05
-0.0117847989355
5.7387471504e-05
-4.82188334821e-05
-0.0117606488182
2.82669517348e-06
-8.53149398894e-06
0.0117476305739
3.17912060612e-05
0.012582346083
3.57561521387e-05
-2.44986086298e-05
-0.0125863749817
-0.000236457102691
-4.57075706652e-05
-4.83678139574e-05
-4.39721522448e-05
-5.0029845895e-05
0.0499433818288
0.000304098107017
0.0499771952674
-1.036380364e-05
-1.22633761413e-05
-3.28523800941e-06
-1.71031031117e-05
-0.000160071673911
-2.61801669319e-05
-3.87648098852e-05
-3.33096525141e-05
-3.88991710315e-05
0.0499505990989
-0.000167086406413
-5.79964236366e-05
6.52325889546e-05
-2.24349597506e-05
0.0124941140963
-1.63784376919e-06
4.39642870344e-05
-0.0117622967582
-2.34294868646e-05
0.0117501262374
1.21767491913e-05
-3.95210085371e-05
-1.16672310137e-05
0.0124890860589
-0.0124779860809
-3.4904494463e-05
0.0124711360836
4.47252700201e-05
-2.90427835455e-05
0.000755857306964
-5.89110619601e-06
1.20382801209e-07
-5.26377991722e-07
-0.000194725815577
9.71710704758e-05
2.43578444795e-06
5.35115080952e-07
-1.77612579436e-06
-1.47868024522e-05
-2.0919717152e-05
-2.86100858883e-06
0.000866168895642
-7.31356984227e-06
-0.000804291147104
-7.54335121452e-08
2.65051700273e-07
-9.36275145868e-08
4.37254734098e-08
-1.82790287978e-07
9.64310600965e-08
-1.9815497583e-08
2.12269818871e-06
-5.28642509594e-06
1.08658405803e-07
-2.53235464664e-07
-0.000178693649536
6.32834863648e-05
-4.73699509515e-09
-3.82123267388e-07
7.64203081246e-08
-4.40496297528e-05
0.0125669428003
4.13543248248e-05
-0.0125715372572
-0.0125635146796
-1.55122581995e-05
4.74444221982e-05
0.0125630823857
-4.29500259177e-05
1.06905338476e-05
4.28988585968e-06
0.0117799846678
-1.38283358025e-05
1.45673799936e-05
0.01180233246
-0.0117966785355
1.02687130085e-05
-0.0125642133539
-3.97025106919e-05
0.0117953560291
6.94231361012e-06
0.0125661415814
4.6800174005e-05
0.012561727335
-1.83171755155e-05
5.11217170033e-05
-4.51819900207e-05
-5.33133166354e-05
-0.012564501327
0.0125589264672
5.55381905713e-05
8.87992554664e-06
8.85110821568e-06
-1.08705831589e-05
1.70310552619e-05
-0.011789436594
0.0117871140107
-6.45791416874e-07
0.0125584709499
-4.56043267261e-05
4.0242485475e-06
5.21137518026e-05
-0.0125477034441
-1.10309004683e-05
5.79019877039e-05
0.0125348668932
-4.97472215212e-05
-5.51541988459e-05
0.0125479738102
5.85582360651e-05
-3.06970317843e-06
5.4810806537e-06
0.0117734172841
-3.34798131115e-06
1.57549195392e-05
0.0117818593799
-6.05819891477e-06
-4.70102522611e-05
0.0117787113475
-1.01391969819e-05
0.012535722718
6.20820139556e-05
-1.36632102264e-05
-0.0125229910936
0.0125122117524
6.74189464867e-05
-1.09507233902e-05
-0.0117733887134
0.0117724122974
5.02687436648e-07
-0.0117758455096
-1.90593649826e-05
0.0117758903172
-1.73287259886e-05
6.01929705176e-05
-5.07825996971e-05
-6.91486137791e-06
1.14955030275e-05
-1.10439434484e-06
-1.51150385659e-05
6.52457941101e-05
1.32185041061e-05
-0.0125148181375
0.0125034315571
-2.49388046783e-05
-2.05501632971e-05
-0.0117649599626
0.0117618354418
-0.0117573327417
0.0117541585957
-2.18604803861e-05
-3.34423684639e-05
-6.84562408086e-07
-0.012531199753
-1.68694840957e-05
1.61628638488e-05
-0.0117660507661
-1.95405493902e-05
-0.012530173423
-2.14266520979e-05
-0.0117683636962
2.38813500074e-07
-0.000187998123707
-1.70622960607e-05
-3.2641147005e-05
-3.6700752339e-05
-6.91929576983e-05
0.000851164189624
-0.000837398839651
0.000181288544282
-1.07157316261e-07
8.10366140122e-07
1.15881752644e-07
-9.31814318473e-07
0.000783869428887
-4.6024078894e-07
-3.60472374682e-05
-5.44367046019e-05
-7.70488964259e-05
-8.77030196097e-05
0.000117343898677
-0.00067396671246
-3.37036967824e-07
-5.09994609853e-05
-3.82042451088e-05
-6.65577615969e-05
0.000846663134798
-0.000156866893484
3.53940813103e-07
-1.02768393807e-07
-3.19209018943e-07
2.16797452968e-07
-3.92445578896e-08
2.98390767523e-07
1.23768087019e-06
0.000880049557756
6.56102744745e-07
-2.33788115889e-06
1.25147097922e-06
1.55588043161e-06
5.38200022584e-06
-1.29372105285e-07
8.32293541362e-07
2.36717246958e-07
7.87075884321e-08
-3.34715972135e-08
2.18279335153e-06
-5.65417861182e-05
3.27546976564e-06
4.60700227676e-06
3.78366370576e-06
2.84327934207e-06
0.000853821990718
1.19384739107e-05
-2.24561411847e-07
1.86234569969e-06
2.59673529944e-07
1.67171746691e-06
1.2786396423e-06
2.81001506813e-06
1.71886707434e-06
0.00087674033974
-0.000119698676105
1.8964467419e-07
-3.00184006762e-08
-1.61745787041e-07
-0.0126285924935
7.1064760478e-05
0.0126149231175
-1.65163394771e-05
0.0126452407342
1.37468923443e-05
-2.26875203993e-05
-0.0126529045466
-3.92115900534e-05
9.14822271285e-06
0.0117711359582
-9.03123993653e-06
-5.49902381359e-05
0.0117733889185
-0.0117822544477
-1.18002659042e-07
0.0126364960771
-5.19484372551e-06
-0.0126384594481
2.25545192113e-06
0.0117469122903
-1.30404131814e-06
1.93385506472e-05
0.0126039436107
5.608763187e-05
-3.30278892052e-05
-0.0126262678602
-4.03044134899e-05
3.20395309108e-05
0.0126158598751
-4.60637506769e-05
7.04173879049e-06
-8.91577523058e-06
-3.17747027238e-05
-0.0117364055252
-7.06368746171e-07
0.0117466060958
1.32210276215e-05
-4.5570646662e-05
0.0125994553067
-1.2890251219e-06
0.0117807651393
-2.68188346542e-06
1.84175275802e-05
-0.0117689085819
-3.50416820544e-05
-8.39702925238e-06
0.0117756869742
1.74471878935e-05
4.12780605947e-05
0.0125791835426
-3.34275878123e-05
0.0125895260379
6.71891755794e-05
-0.0126014368125
-4.16077433195e-05
-0.0117415664065
0.0117509650455
0.0125867063611
-0.0117565762657
-2.24931280533e-05
0.0124973390284
6.9556367216e-05
-1.48341185454e-05
0.0117709970635
3.74688986027e-06
0.0117734446542
-2.46080808671e-05
6.74551093515e-05
-2.96998337776e-05
0.0124830254031
-6.12383644226e-05
2.61258271989e-05
-1.73600013228e-05
0.01177009016
6.87032077705e-06
0.0124850038713
7.19377962288e-05
0.0117674041104
-2.73865034413e-05
7.0898257456e-05
0.0124721120058
-4.25654015942e-05
-6.3015586619e-05
-0.0124733856765
-7.24209391322e-05
0.0124666245767
7.48639837373e-05
3.51938924172e-05
-1.96487285906e-05
1.01845549389e-05
5.34919286078e-05
-0.0117535384708
-3.06922199061e-05
0.0117393802731
7.38265106217e-05
-6.30440503406e-05
0.0124663685583
-3.03730901117e-05
-0.0124861870657
-1.82538419234e-05
4.27771250847e-05
-2.85490464278e-05
1.59386142312e-06
-2.72075912525e-05
-2.45780862179e-05
0.0117565577413
0.0117500760386
-2.2588526385e-05
2.7047061441e-05
0.0117395786142
-2.29655322726e-05
-2.61086635317e-05
0.0124796928021
0.0117451377234
0.0117226683997
3.03350001073e-05
-2.30598530832e-05
5.525253238e-05
3.04602460952e-05
0.0116965349633
-2.18117384168e-05
4.49497806226e-05
0.0124702521526
-2.74307222364e-05
0.0124715767032
-4.33725718528e-05
5.40734831063e-05
-0.0117268781828
0.0117067772898
0.0124688165657
-0.000264775626334
-0.000203895619561
-0.000265056489297
0.00113826664515
0.200288111535
-0.000327679512308
-0.000750210015317
-0.00023844419753
-7.80143849389e-05
-6.60538064022e-05
-7.21303437607e-05
-6.9817086871e-05
0.000305196273451
0.0498978839566
2.21884660686e-06
5.40531030286e-05
2.78577114287e-06
3.41285181429e-06
3.82600079344e-06
5.30268001514e-06
-0.000110691184028
0.000838587556263
-5.22015566495e-08
-1.31885280712e-07
-2.29402997636e-07
7.38097354643e-09
2.16194026416e-07
-2.32684402179e-07
2.90514168868e-08
3.24922953273e-05
3.29186423134e-05
3.18292075308e-05
2.88178272571e-05
-0.000118828449496
0.000231027632008
0.0503360701705
3.77143817026e-05
-2.90739387697e-05
-1.03085505389e-05
0.011765225986
0.0499230453009
-6.59813223811e-05
-5.84611146031e-05
-5.90882533102e-05
-6.44006228628e-05
-0.000166818955353
0.0499535024773
-8.64663368997e-05
-9.25522997576e-05
-9.7046325036e-05
-8.26930753873e-05
0.000219931595272
-0.000156646765163
5.79373945353e-05
0.0117268832088
-2.49764000121e-05
1.51313254788e-05
-5.23475753053e-06
7.17705926929e-05
2.56890645712e-05
0.0116668075955
-1.84323398079e-05
0.011542406322
-6.44870194826e-06
0.000104197888457
6.89271667595e-06
-0.0115890870346
-5.63670549552e-06
0.0500642949201
-0.000130243744011
-0.000112397808976
-0.000110204680723
-0.000125516073546
0.00031348238539
0.000208475918306
-0.000154291117725
-0.000137036127181
-0.000161244918363
-0.000164262802269
-0.000133638724321
0.000413192647157
0.000187439789259
0.0502202038566
-0.000160147630866
-9.20262029277e-06
0.000125370898122
3.53392244235e-06
0.0114991383346
-2.17110202214e-06
-2.08711056905e-05
0.000204167859407
4.13822346558e-06
-0.0113587937499
0.0112593790357
-3.69976379568e-06
-2.45524728635e-05
-1.82476658993e-05
-3.05547490151e-05
-0.000226734903458
0.000824317417722
1.05649270466e-06
0.000793863016935
2.79783494357e-06
4.41312969359e-06
5.67064711318e-06
5.43193662981e-06
1.41985762479e-05
4.09285420347e-06
0.000684763800093
7.70983323716e-06
4.88962627244e-06
6.35588027118e-06
-6.95329196012e-05
3.61776831942e-05
-9.56983508638e-08
1.02195501901e-08
9.76025165975e-07
2.89057752293e-06
-6.35829168704e-08
6.61711157735e-07
3.49064143358e-06
-1.37556761331e-07
0.000535333680321
9.03651228108e-06
1.12064874223e-05
1.2858748823e-05
-0.000101792407056
5.02888521421e-06
7.79766479561e-05
2.15671614823e-05
1.50043497118e-05
1.70669060361e-05
-0.000128552747682
4.41566490955e-06
0.000399043660893
0.000105313588714
-0.0125827840692
2.69818568859e-05
-6.08425277408e-05
7.10524786772e-05
0.0125782473816
5.03232145373e-05
0.012574206536
-2.62470151265e-05
0.0117644316575
1.71148734316e-06
-6.15002489394e-06
-1.67299220924e-05
0.0117745599302
6.00759711454e-05
2.36531334776e-06
0.0117600088474
0.0125724787039
7.06270956148e-05
-0.0124568522255
-8.97494289997e-05
-5.66519960903e-05
0.012454849268
0.0124544395172
-7.21636464417e-05
7.6344550282e-05
7.33298568842e-05
-2.14629650124e-05
1.57083324076e-05
0.0116950128103
7.05172046472e-05
0.0117153445212
-2.83076922935e-05
7.61340336685e-05
0.0124503113375
-6.17279831412e-05
-2.26084157269e-05
0.0116758042876
-0.012460993766
-8.29344873091e-05
-3.65349431574e-05
0.0124580651132
4.42371695001e-05
0.0124656743265
-2.61802580043e-05
6.85670115253e-05
0.0116771757619
1.87837106158e-05
7.72175949787e-05
0.0116345657551
-1.47465940386e-05
0.011642950275
0.0124644606018
-2.23031252023e-05
0.0124534152761
-0.000100603780846
-3.36590712844e-05
5.2796117943e-05
3.30494686841e-05
-0.0124563472011
0.0124580767887
-2.26387767875e-05
0.000118395627916
-0.0116054497226
0.0115528040488
9.83488926777e-06
1.369610253e-05
8.5732096841e-05
-1.05289994521e-05
0.0124588121369
4.94851113504e-05
1.64842119331e-05
-2.21872339434e-05
-0.0124665614002
-0.000163293906772
-3.9563162919e-05
0.0124920256624
4.78206177568e-05
3.40622045895e-05
0.012463530988
-2.58985251714e-05
0.000129766502695
0.0114899723941
4.444575478e-06
-3.20028825084e-06
0.000158250265953
0.011435789726
2.57936731767e-06
4.64978022793e-05
0.0114066055519
3.90496248579e-08
0.0124895106734
-3.19851156215e-05
0.012528715601
-0.000176797741064
-4.56610692896e-05
4.95815559323e-05
5.13344776832e-05
-0.0125247584905
0.0125631532868
-4.57288190088e-05
0.00020360826302
-0.0113291544482
4.63827133395e-06
0.0112430972133
2.05283420495e-06
0.000174444753507
-3.70940352933e-06
5.27862835763e-05
0.0125676253642
6.88898490115e-06
-3.91301195708e-05
-0.00055278656176
-0.049326912442
0.0492215767011
0.000685006164121
-7.93707716315e-06
6.82705265975e-06
-8.2669607574e-06
5.93627706198e-06
-2.35047932979e-05
-0.000695681137593
0.0497622341401
-4.93444011405e-06
9.27541163666e-06
-7.07148177263e-06
7.1658353617e-06
3.11808262912e-05
-0.0497142967376
0.000612070353312
-0.00103463108834
-0.0499350157492
0.0502383930914
0.000859755025237
-4.8707226188e-05
-3.59250251131e-05
-5.19383632223e-05
-4.04223229974e-05
4.8368440355e-05
-0.000669680563785
-4.00307766396e-05
-2.460716801e-05
-3.17889693487e-05
-3.73392388891e-05
7.9616603931e-05
0.0503292453451
0.000541261739018
-0.0501467602645
-1.71561962595e-05
2.97811120215e-05
-0.000660845300161
0.000633759567601
-6.59717535776e-05
9.13086791005e-07
5.93982697544e-07
-6.48509316276e-06
2.56433674277e-08
2.11944546986e-06
-0.000560341731385
0.000445358603663
-0.000101691293565
2.68212038605e-06
5.84155574082e-06
4.92737412746e-06
4.78150842165e-06
7.03933677655e-05
-3.430214725e-05
7.50640299093e-05
0.00063615411507
2.57357142068e-07
9.11668549492e-08
-1.53499658321e-05
-1.3743040039e-05
-0.000666007401994
-5.57128249524e-05
-5.74969269747e-06
0.000108164072435
-0.000559407572407
0.000480057517737
-9.79641009729e-05
1.51898385721e-06
3.80390464039e-06
4.27698528754e-06
1.92342959028e-06
-2.43146395299e-05
9.72411083062e-05
2.59944699577e-06
4.05276662679e-06
1.18998085735e-06
0.000527396619217
-0.000103970459209
1.27502365432e-06
-0.000576831457661
3.00539894073e-08
-1.20804037139e-09
-5.31224054802e-08
-2.83930625765e-07
-4.71188659164e-08
-2.45965384772e-07
1.35235132303e-08
2.15474081316e-09
2.97541188537e-08
-7.34237214796e-07
-6.9840801097e-07
-6.03320585034e-07
-5.03672936031e-07
1.50465917804e-07
2.12737452974e-08
2.08142615716e-08
8.31344972221e-09
-2.14237745613e-08
-1.65490017389e-07
-8.84312482844e-09
-1.13429792352e-07
1.98483700585e-09
5.84444505256e-08
-3.95112595166e-07
-2.46132660901e-07
-2.76021874849e-07
-1.62691042672e-07
7.91176000785e-08
4.52684324375e-08
1.48699828464e-08
-5.99656010824e-08
-3.36092951263e-08
7.57330190477e-10
4.03459196604e-09
2.63634819138e-08
-2.35303655104e-07
-1.93169643103e-07
-1.85699798953e-07
-2.04104600914e-07
1.49573523127e-07
9.06172126678e-08
0.000199261200239
1.01283908577e-05
1.23794291578e-05
5.12190489748e-06
1.12980193171e-05
0.0490458332534
2.39202278659e-06
2.29833350633e-05
-0.0493093996219
0.0491492189686
0.000387159638606
1.16131749844e-05
4.88518573566e-06
7.03110699922e-06
9.16609593776e-06
-8.81225894123e-07
-0.0493689380115
1.86568451621e-05
-1.25877917118e-05
-0.0120134409397
1.93211731174e-05
0.012022336193
-1.08615604596e-05
0.0120551515622
3.93315276254e-05
1.16513221818e-05
-5.5404764099e-07
-3.39875810314e-05
-0.0120543901445
1.13136570796e-05
1.60696020968e-05
1.65485786268e-05
6.86319896866e-06
-0.000285046304132
0.0122561422919
0.0122442785274
0.0121714106247
0.0122387537865
-7.99189285094e-05
5.13372221708e-05
1.82966189445e-05
-2.16017439241e-06
-4.7765424186e-05
0.0120475280387
0.000506683957672
1.40652168642e-05
7.82980162667e-06
1.12369638372e-05
9.09133838601e-06
-3.39062624467e-05
-0.0494548442544
0.0495284797136
1.88856717175e-05
1.66638722673e-05
1.43273588896e-05
2.03805075378e-05
-3.68732106951e-05
-0.0495889464534
0.000533697399888
0.0120622871709
1.14364622821e-05
-4.1704947555e-06
-0.0120604971078
4.29660424841e-05
0.0120558288238
2.18253072803e-05
-2.2587307814e-05
-4.70095302628e-05
-0.0120530038218
5.0270726521e-05
0.00097578834448
-6.02059580508e-06
-2.818470402e-05
-7.16098860135e-06
-3.09313542419e-05
0.0492606385387
-0.000226123640062
-0.000197307552431
-0.00022777322664
-0.000191084764307
-3.26624619251e-05
-1.73913619869e-05
-2.64890430923e-05
-2.39160913745e-05
0.0494973268332
-4.66573164215e-06
1.04558585757e-05
1.03697702247e-05
-5.11039439471e-06
9.33626260691e-06
0.0496993650023
0.000869559025946
-1.0510505462e-05
-3.4301217206e-05
-3.5863207186e-05
-1.28411628881e-05
-2.51549808676e-06
-4.87866285343e-06
0.0120564071857
5.46923824794e-05
0.0119935971312
-2.45424596811e-06
6.99751946492e-05
-0.0120507549123
0.000103956043183
-0.000100596572717
5.77861606872e-05
2.70942744656e-05
-1.46530850078e-05
-6.17555751069e-05
0.0120509979059
0.0120109844961
9.20708374641e-05
-2.06066127891e-06
6.07096356479e-05
-9.91075130757e-05
-0.0120487691598
0.0500615942764
-4.23486008378e-05
-2.60284834502e-05
-3.06667253422e-05
-4.2793035184e-05
-0.00120011761018
-5.53043462696e-05
0.00120933786113
-1.89460251845e-05
-1.67818964936e-05
-2.37316103798e-05
-2.94450533151e-05
0.0506964877585
-0.000186229476758
-0.00156978092984
5.75650162086e-05
0.0119081626827
0.000114021950622
-0.000131626769088
-3.33677514205e-06
4.63778188288e-05
-0.0119428605616
0.00016228120091
0.0118661263809
-0.000184277181669
0.000101246491761
4.30702967306e-06
3.81212460561e-05
-0.000139844892272
0.0119207668166
0.000123194284101
-5.21851639343e-07
2.71236450329e-05
-0.00015343837515
-0.011932813597
0.0118901035753
0.000737960295679
-1.59572389849e-05
-3.82543818611e-05
-1.71561528384e-05
-3.68126222378e-05
6.68126685305e-05
0.0500679864995
-3.83825367971e-06
-2.41912794781e-05
-2.31712552459e-05
-1.08490632949e-05
4.7318542983e-05
-0.0499086640755
0.000593222815983
-2.26500332269e-05
0.0120472842694
5.3755793487e-05
-0.0120528795613
0.0120181847563
-1.41388732525e-06
5.15727449738e-05
-0.0120479070335
7.94752384506e-05
0.0120043293283
-6.24078609463e-07
3.00963845131e-05
-7.6311610643e-05
-0.012018551279
6.46328264832e-05
0.00093751761883
-3.53289318736e-05
-3.660298956e-05
-4.23502906736e-05
-3.74252085857e-05
0.0506079206955
5.3776291068e-05
0.0502866302933
-3.71096028005e-05
-2.38312663839e-05
-2.92887187808e-05
-3.18788730782e-05
9.33266371221e-05
-2.47788339486e-05
-2.43554063232e-05
-2.92006777269e-05
-2.68816714166e-05
0.0505374714995
0.000715682217096
7.58625821923e-05
3.60329727437e-05
0.0119317461555
6.81506326564e-05
-5.00061159466e-07
3.02295757756e-05
-0.0119374698922
9.19049700972e-05
0.0119127184817
6.4792504806e-05
3.1435793101e-05
1.62511281477e-05
-9.55858897565e-05
0.0119254946846
6.55589930703e-05
-8.32722441682e-07
2.50750225882e-05
-7.56521437348e-05
-0.0119214230041
0.0119254251404
1.85669691712e-05
0.0119257333469
3.9288790969e-05
-0.0120026252235
2.98650949855e-05
-0.0119082183248
0.011918220842
-9.23099572373e-07
5.37457589276e-05
3.8279430129e-05
1.66158797003e-07
-4.8315627377e-06
-3.88627214646e-05
0.000757467864992
-0.000100432334658
-0.000751295292705
6.24622436657e-07
0.000694962622781
-2.85175855572e-05
-5.68799114607e-06
2.15202305912e-07
-3.81734537109e-05
-0.0006958019233
7.67433189486e-07
1.22160188115e-06
-6.95092839292e-06
5.56640602006e-07
1.53289908529e-07
-3.31678851784e-05
0.000665173198239
4.41797958153e-07
2.16376282619e-08
-1.18263465184e-06
1.3077689448e-08
-2.86945405347e-07
-2.04678170696e-08
1.17060422642e-06
-2.94843316423e-06
2.7655538079e-08
3.92118007627e-07
2.38604952046e-08
-1.2880145006e-07
1.00224772924e-06
9.7287029271e-10
-2.59825187805e-06
1.24790825069e-06
-6.73058367392e-08
-4.27746499772e-06
2.32498545158e-08
-3.97659137155e-08
6.74070717857e-07
-3.94150396344e-06
5.18788009997e-08
9.05860155842e-07
-3.92618488929e-08
-3.62480218848e-06
4.7605207017e-08
4.23176840513e-07
-3.32796886627e-06
-6.79272089522e-05
1.13089576996e-08
-9.58854438187e-06
-3.45891520801e-05
4.60893495205e-07
-0.000657201304788
0.000663081195635
-1.57124657826e-05
-1.14928148889e-05
-4.12628972012e-05
-0.000647278798705
2.48192932461e-09
-7.13631591652e-05
-7.7663743603e-05
2.02731216634e-06
1.8141285974e-06
2.28476618599e-06
1.04476979444e-07
4.27066703638e-05
0.000628010648922
6.25538750961e-07
-6.96072176721e-06
3.69142520004e-07
-1.42399227736e-07
1.5890322318e-06
0.000556147553755
-9.00723407295e-05
2.41137942437e-06
2.00628385869e-06
-7.72907941002e-07
3.34739751064e-07
3.66675265892e-08
-5.46948455113e-08
8.11736131857e-08
8.42105360158e-07
3.13439738529e-07
3.01925186756e-08
-1.79324048851e-09
8.22078737337e-07
1.33217473944e-07
-0.000103100911585
2.18304201939e-06
6.70873720052e-06
6.10605917633e-06
-2.11323212889e-05
0.000329283175217
7.55054295507e-05
0.000461525014326
1.97508089985e-06
4.76592201514e-06
3.85063535526e-06
3.37066534501e-06
1.20096881446e-06
-8.62451449558e-05
5.20177337182e-06
5.36709430939e-06
-2.84479717107e-05
0.00038180715443
7.17417236892e-07
1.46365393286e-07
2.24841504892e-07
3.01260678266e-07
7.61625452991e-07
3.13889719634e-07
3.19782803907e-07
4.02427168537e-07
-7.76122395865e-05
1.25021931441e-06
1.51460869536e-06
1.58251244041e-06
-2.12249763968e-05
1.01577649851e-06
0.000561337962812
1.48041759323e-06
1.28223592387e-06
-2.603308201e-05
-0.000643297419212
-4.61792135423e-05
2.45623487586e-07
-2.28589912142e-08
3.37966577125e-08
1.48783682459e-07
8.94108304364e-07
1.06368819573e-06
-3.21346046298e-07
1.45474621926e-07
-7.28811776377e-05
1.10888450234e-06
4.97156341965e-06
2.70948322734e-06
-4.92302074761e-05
0.000410403270747
0.00049940661982
1.4047216953e-06
3.81406085559e-06
2.66503983094e-06
1.68659543804e-06
1.01360630831e-06
2.54774895811e-06
4.72163981186e-06
-3.62531249904e-05
0.000450674693954
-7.52478977081e-05
1.01815741742e-06
3.50384926075e-07
4.20890679457e-07
7.47011419204e-07
1.59835562454e-06
3.21710390643e-07
1.53257693179e-06
4.66557210828e-07
0.0122996599324
1.47636924457e-05
-1.06294524417e-05
3.58338349062e-05
-0.012329459856
1.52189835531e-05
-0.0122961660671
0.0122636924733
1.70924013519e-05
2.7202492947e-05
-7.75518589032e-06
-1.12119546797e-05
-0.0119781726678
-4.09399047448e-07
-0.0120070840006
2.7170710526e-05
0.0120180819769
4.750974083e-05
0.0122720637689
2.2963034156e-05
-0.0120189606583
1.73895364577e-05
-0.0123204983211
0.0123105960078
6.0554357118e-05
1.60928763075e-05
-0.0123397437564
-7.86921118058e-05
-0.0123261401448
0.0123042826981
0.000104937542366
-1.25264240109e-06
-0.0120252965379
0.0120377960498
-2.20608343225e-06
-1.89479331362e-05
3.31343973383e-05
-0.0120260213435
0.0122852818786
8.90778445549e-05
-0.012347656085
-0.0120347856886
-0.0122642140141
0.000119579833556
-1.24479645639e-05
-7.98700831461e-05
0.0122484255348
-9.63252889775e-05
0.0122854605184
0.000129122170881
-1.34566205636e-06
0.0120479811764
-3.4610891229e-05
2.01391995564e-05
-5.10228271892e-05
6.3090665979e-05
0.0120481279395
-6.0014603102e-05
0.00015535034027
0.012277126348
-3.89333132083e-05
0.0120384083714
-0.000110769808189
0.0123620492926
1.82077775564e-05
0.000122050938214
-0.0123774570522
-0.0123450487847
0.00012409705663
0.0123295543107
-5.78861690964e-06
4.38033162303e-05
-0.0120365513855
-5.27474329834e-06
-0.0120479973161
4.44194669675e-05
0.0120584071168
-0.0123612291269
0.000138420425786
0.0123515621144
3.65160411801e-05
-0.0120524770949
0.0123816456031
0.000126673011568
2.86603961152e-05
-0.0123960420011
-0.000145748223776
-0.0124010720687
0.0123933964658
0.000147512283737
-1.53745211643e-05
-0.0120445944243
0.0120561158545
-2.27652029044e-05
-3.04998399614e-05
-0.0120339155519
4.06873746493e-05
0.0123732615651
-0.0124093541421
0.000132603141699
-0.0120490491824
-0.000175794298462
-0.0123411976922
-1.70966192098e-05
0.0123409740916
0.000185177441046
0.0123119574815
0.000148645867142
2.3910824337e-05
7.15316797097e-05
0.0120522908754
-2.26405526975e-06
0.0120654196059
5.7515265916e-05
0.0123071573869
0.000162667597147
0.0120533252819
6.71862614253e-05
-0.000206422042418
0.0123524393308
-2.44481000893e-05
0.000213115689735
-0.01231934964
0.000240166234054
0.0123460580208
-0.000224983696589
4.19996293595e-05
9.86955725121e-05
-8.29374277247e-05
7.23275703345e-05
-0.0120104631852
9.88767101066e-05
0.0119748608914
-0.000183634110384
0.000249812561915
0.0123841867099
8.4844013178e-05
-0.0123691174282
0.000186833342614
-9.8230456654e-06
0.0123725459169
-0.000169905131671
0.0123891571064
0.000169912555378
-7.1974348196e-06
0.0120662553455
1.5950991386e-05
-6.35216994579e-05
0.012047436968
6.73300776618e-05
0.0123967659325
0.000190065113524
0.0120594085536
0.0123856270888
0.000210274634658
-2.07506222649e-05
-0.000247261169959
-0.0124198250778
0.012456658424
0.000236871403285
6.91210198423e-05
-0.0120166202634
0.0119793679383
3.75293289596e-05
-7.15940921165e-05
8.23428810999e-05
0.0124215539996
0.00021199339771
-0.000322425892952
-0.0124404773474
-8.53185647952e-05
0.0125005373562
0.000318611771708
2.87601294417e-05
0.0123878876128
0.000261629595522
1.16128653145e-05
-0.000257624843013
0.000103014646815
0.000149143547599
0.0119065522589
-0.000148122319997
9.05654448455e-05
0.0119813284495
0.000125070287729
0.0124531448837
3.21930520438e-05
-0.000316698007107
0.000276050836853
1.96471493853e-05
0.0119205913172
0.00014251477137
-0.000356679182024
-2.64137168683e-05
0.0125667438848
0.000339265030401
-2.27421530081e-05
-0.0125631849159
0.000363330023728
0.0126601339353
-0.000386819463217
-2.69593086233e-05
9.75401025805e-05
0.0001997346286
-0.000174359823027
-0.0118156976469
7.86133428407e-05
0.000158984623468
0.0118566167326
-0.000344094157002
-2.46448082497e-05
0.000152632875779
0.000367705587297
0.01265277432
-1.15746509573e-05
-0.0124776011731
0.000294266622805
-7.72091593083e-05
0.0125365136885
-0.000277490963392
0.0124914990928
0.000254510469928
8.81628290944e-05
0.0119861553583
8.20699989037e-05
-0.000123344316881
0.011908560895
0.000109144746523
0.0125461621438
0.000278965934584
0.0119363730969
0.000296098159006
-2.53515254119e-05
0.0125855527712
-0.0126113503216
-0.000333772630222
0.000299425624657
0.0126559057057
-0.011826205237
6.71263686461e-05
0.011863983965
8.02309902274e-05
-0.000105005774834
0.000121016696766
0.000287792397888
0.0126571455647
-0.00018000065433
-0.0124351074218
3.71438365934e-06
0.0124433065242
0.000163097555281
0.0124131370805
0.000160103649209
-0.0124167543655
7.10451275478e-06
7.0205818144e-05
0.0120471863084
-1.61975143584e-05
0.0120478777932
-0.0120398806289
5.57897341555e-05
0.0124232345707
-0.0124341065043
0.000150056411839
0.012044045224
6.23908156832e-05
-0.000201706156835
0.0124586830705
-8.9505263424e-06
0.000179322897943
-0.0124458547278
0.000215316535993
0.0124807637747
2.93896493066e-05
8.72173475869e-05
5.07664276321e-05