/*--------------------------------*- C++ -*----------------------------------*\
| =========                 |                                                 |
| \\      /  F ield         | OpenFOAM: The Open Source CFD Toolbox           |
|  \\    /   O peration     | Version:  v1906                                 |
|   \\  /    A nd           | Web:      www.OpenFOAM.com                      |
|    \\/     M anipulation  |                                                 |
\*---------------------------------------------------------------------------*/
FoamFile
{
    version     2.0;
    format      ascii;
    class       volVectorField;
    location    "3";
    object      force.turbine;
}
// * * * * * * * * * * * * * * * * * * * * * * * * * * * * * * * * * * * * * //

dimensions      [1 -2 -2 0 0 0 0];


internalField   nonuniform List<vector> 
28582
(
(0 0 0)
(0 0 0)
(0 0 0)
(0 0 0)
(0 0 0)
(0 0 0)
(0 0 0)
(0 0 0)
(0 0 0)
(0 0 0)
(0 0 0)
(0 0 0)
(0 0 0)
(0 0 0)
(0 0 0)
(0 0 0)
(0 0 0)
(0 0 0)
(0 0 0)
(0 0 0)
(0 0 0)
(0 0 0)
(0 0 0)
(0 0 0)
(0 0 0)
(0 0 0)
(0 0 0)
(0 0 0)
(0 0 0)
(0 0 0)
(0 0 0)
(0 0 0)
(0 0 0)
(0 0 0)
(0 0 0)
(0 0 0)
(0 0 0)
(0 0 0)
(0 0 0)
(0 0 0)
(0 0 0)
(0 0 0)
(0 0 0)
(0 0 0)
(0 0 0)
(0 0 0)
(0 0 0)
(0 0 0)
(0 0 0)
(0 0 0)
(0 0 0)
(0 0 0)
(0 0 0)
(0 0 0)
(0 0 0)
(0 0 0)
(0 0 0)
(0 0 0)
(0 0 0)
(0 0 0)
(0 0 0)
(0 0 0)
(0 0 0)
(0 0 0)
(0 0 0)
(0 0 0)
(0 0 0)
(0 0 0)
(0 0 0)
(0 0 0)
(0 0 0)
(0 0 0)
(0 0 0)
(0 0 0)
(0 0 0)
(0 0 0)
(0 0 0)
(0 0 0)
(0 0 0)
(0 0 0)
(0 0 0)
(0 0 0)
(0 0 0)
(0 0 0)
(0 0 0)
(0 0 0)
(0 0 0)
(0 0 0)
(0 0 0)
(0 0 0)
(0 0 0)
(0 0 0)
(0 0 0)
(0 0 0)
(0 0 0)
(0 0 0)
(0 0 0)
(0 0 0)
(0 0 0)
(0 0 0)
(0 0 0)
(0 0 0)
(0 0 0)
(0 0 0)
(0 0 0)
(0 0 0)
(0 0 0)
(0 0 0)
(0 0 0)
(0 0 0)
(0 0 0)
(0 0 0)
(0 0 0)
(0 0 0)
(0 0 0)
(0 0 0)
(0 0 0)
(0 0 0)
(0 0 0)
(0 0 0)
(0 0 0)
(0 0 0)
(0 0 0)
(0 0 0)
(0 0 0)
(0 0 0)
(0 0 0)
(0 0 0)
(0 0 0)
(0 0 0)
(0 0 0)
(0 0 0)
(0 0 0)
(0 0 0)
(0 0 0)
(0 0 0)
(0 0 0)
(0 0 0)
(0 0 0)
(0 0 0)
(0 0 0)
(0 0 0)
(0 0 0)
(0 0 0)
(0 0 0)
(0 0 0)
(0 0 0)
(0 0 0)
(0 0 0)
(0 0 0)
(0 0 0)
(0 0 0)
(0 0 0)
(0 0 0)
(0 0 0)
(0 0 0)
(0 0 0)
(0 0 0)
(0 0 0)
(0 0 0)
(0 0 0)
(0 0 0)
(0 0 0)
(0 0 0)
(0 0 0)
(0 0 0)
(0 0 0)
(0 0 0)
(0 0 0)
(0 0 0)
(0 0 0)
(0 0 0)
(0 0 0)
(0 0 0)
(0 0 0)
(0 0 0)
(0 0 0)
(0 0 0)
(0 0 0)
(0 0 0)
(0 0 0)
(0 0 0)
(0 0 0)
(0 0 0)
(0 0 0)
(0 0 0)
(0 0 0)
(0 0 0)
(0 0 0)
(0 0 0)
(0 0 0)
(0 0 0)
(0 0 0)
(0 0 0)
(0 0 0)
(0 0 0)
(0 0 0)
(0 0 0)
(0 0 0)
(0 0 0)
(0 0 0)
(0 0 0)
(0 0 0)
(0 0 0)
(0 0 0)
(0 0 0)
(0 0 0)
(0 0 0)
(0 0 0)
(0 0 0)
(0 0 0)
(0 0 0)
(0 0 0)
(0 0 0)
(0 0 0)
(0 0 0)
(0 0 0)
(-0.00121436939426 1.86269165311e-05 0)
(0 0 0)
(0 0 0)
(0 0 0)
(0 0 0)
(-2.47422436209e-05 1.41742834319e-07 0)
(0 0 0)
(-2.47681598583e-06 9.38409412724e-09 0)
(0 0 0)
(0 0 0)
(0 0 0)
(0 0 0)
(0 0 0)
(0 0 0)
(0 0 0)
(0 0 0)
(0 0 0)
(0 0 0)
(0 0 0)
(0 0 0)
(-0.0163764701161 0.000459760865942 0)
(0 0 0)
(0 0 0)
(0 0 0)
(-0.030818080481 0.000598079690637 0)
(0 0 0)
(0 0 0)
(-0.0290713453994 0.000799542445931 0)
(-0.224850003216 0.00212756879997 0.0207780828377)
(-0.083166038901 0.00161398497379 0)
(-0.792960031323 0.0153968615401 0)
(-0.00614286518107 4.6662559077e-05 0)
(-0.0822124498408 0.00159547888122 0)
(0 0 0)
(0 0 0)
(0 0 0)
(0 0 0)
(0 0 0)
(-0.016376376647 0.000459758241845 0)
(0 0 0)
(0 0 0)
(0 0 0)
(-0.0302610456043 0.000587269437644 0)
(0 0 0)
(0 0 0)
(0 0 0)
(0 0 0)
(0 0 0)
(0 0 0)
(0 0 0)
(0 0 0)
(-1.53933244127e-05 1.00484919412e-07 0)
(0 0 0)
(-9.29035980934e-06 6.0645837879e-08 0)
(-0.000136566447568 1.54743208456e-06 0)
(-0.000618122753317 7.00393835905e-06 0)
(-8.19242096512e-05 9.28281820126e-07 0)
(-0.000367106845857 4.15968139948e-06 0)
(0 0 0)
(0 0 0)
(-0.000114600040767 8.16981835482e-07 0)
(0 0 0)
(0 0 0)
(0 0 0)
(0 0 0)
(0 0 0)
(0 0 0)
(-0.00579842377109 8.89406107453e-05 0)
(-0.000245638452304 3.02049973821e-06 0)
(-0.00125705533149 1.92816657314e-05 0)
(-2.89873443078e-05 2.8551739632e-07 0)
(-0.000132093647524 1.49675086367e-06 0)
(-3.64629626147e-06 1.38149897001e-08 0)
(-2.85349715219e-05 2.8106164837e-07 0)
(0 0 0)
(0 0 0)
(0 0 0)
(0 0 0)
(0 0 0)
(-0.000132271875024 9.42964055827e-07 0)
(0 0 0)
(0 0 0)
(0 0 0)
(0 0 0)
(0 0 0)
(0 0 0)
(0 0 0)
(0 0 0)
(0 0 0)
(0 0 0)
(0 0 0)
(0 0 0)
(0 0 0)
(0 0 0)
(0 0 0)
(0 0 0)
(0 0 0)
(0 0 0)
(0 0 0)
(0 0 0)
(-0.00521605980133 4.12467156698e-05 0)
(0 0 0)
(0 0 0)
(0 0 0)
(0 0 0)
(0 0 0)
(-0.00484917558076 3.68354074756e-05 0)
(0 0 0)
(0 0 0)
(0 0 0)
(0 0 0)
(0 0 0)
(0 0 0)
(0 0 0)
(0 0 0)
(0 0 0)
(0 0 0)
(0 0 0)
(0 0 0)
(0 0 0)
(0 0 0)
(0 0 0)
(0 0 0)
(0 0 0)
(0 0 0)
(0 0 0)
(0 0 0)
(0 0 0)
(0 0 0)
(-0.0367363753494 0.000831176281988 0)
(-0.0090926735059 0.00013197736533 0)
(-0.0149106257729 0.000216423156913 0)
(-0.0104092568406 0.000168046539406 0)
(-0.0196635741905 0.000444896817687 0)
(0 0 0)
(0 0 0)
(0 0 0)
(0 0 0)
(0 0 0)
(0 0 0)
(0 0 0)
(0 0 0)
(0 0 0)
(0 0 0)
(-0.0054490915113 4.13925012299e-05 0)
(0 0 0)
(-0.0081067106874 0.000130874345579 0)
(0 0 0)
(0 0 0)
(-0.132149229307 0.00297981023392 0)
(-0.102919906696 0.00232072326758 0)
(-0.201803452427 0.00391840659377 0)
(-0.0445870275069 0.000865290608679 0)
(-0.246889068382 0.00556705912294 0)
(-0.0534507754543 0.0012093467684 0)
(-0.106474601477 0.00206632910676 0)
(-0.279753432797 0.00630811202147 0)
(-0.976458725515 0.0220179997911 0)
(-0.426601790679 0.0082833036274 0)
(-0.422136770035 0.00819660656585 0)
(-0.52266237038 0.0117854238599 0)
(-0.226727763264 0.00440236057352 0)
(-0.522643677295 0.0117850023527 0)
(-0.062423517262 0.00140757715008 0)
(-0.00918600638081 0.000148298443096 0)
(-0.0210292943725 0.000408110877651 0)
(-0.020870806042 0.000405035129577 0)
(-0.0252483794544 0.000571255437194 0)
(-0.0252476396549 0.000571238698913 0)
(-0.0502673699923 0.000975527762433 0)
(-0.132147961822 0.00297978165361 0)
(-0.102915662495 0.00232062756583 0)
(-0.199363254086 0.0038710253961 0)
(-0.044104131859 0.000855919159349 0)
(-0.053448948711 0.00120930543755 0)
(-0.1054376729 0.00204620566255 0)
(-0.246879358616 0.00556684017911 0)
(0 0 0)
(0 0 0)
(0 0 0)
(0 0 0)
(0 0 0)
(0 0 0)
(0 0 0)
(0 0 0)
(0 0 0)
(0 0 0)
(0 0 0)
(0 0 0)
(0 0 0)
(0 0 0)
(0 0 0)
(0 0 0)
(0 0 0)
(0 0 0)
(0 0 0)
(0 0 0)
(0 0 0)
(0 0 0)
(0 0 0)
(-0.00539154704187 4.09553807453e-05 0)
(0 0 0)
(-0.00810646792718 0.00013087042647 0)
(0 0 0)
(0 0 0)
(0 0 0)
(-0.0367351088272 0.00083114762638 0)
(-0.0147084726811 0.000213488966827 0)
(-0.00887055126894 0.000128753329231 0)
(-0.0196627789333 0.00044487882465 0)
(0 0 0)
(-0.0104086939085 0.000168037451458 0)
(0 0 0)
(0 0 0)
(0 0 0)
(0 0 0)
(0 0 0)
(0 0 0)
(0 0 0)
(0 0 0)
(0 0 0)
(0 0 0)
(0 0 0)
(0 0 0)
(0 0 0)
(0 0 0)
(0 0 0)
(0 0 0)
(0 0 0)
(0 0 0)
(0 0 0)
(0 0 0)
(0 0 0)
(0 0 0)
(0 0 0)
(0 0 0)
(0 0 0)
(0 0 0)
(0 0 0)
(0 0 0)
(0 0 0)
(0 0 0)
(0 0 0)
(0 0 0)
(0 0 0)
(0 0 0)
(0 0 0)
(0 0 0)
(-0.0153032818608 0.000306827510721 0)
(0 0 0)
(0 0 0)
(0 0 0)
(0 0 0)
(0 0 0)
(0 0 0)
(0 0 0)
(-0.00341475104254 6.84650241459e-05 0)
(0 0 0)
(0 0 0)
(0 0 0)
(0 0 0)
(0 0 0)
(0 0 0)
(0 0 0)
(0 0 0)
(0 0 0)
(0 0 0)
(0 0 0)
(0 0 0)
(0 0 0)
(0 0 0)
(0 0 0)
(0 0 0)
(0 0 0)
(0 0 0)
(0 0 0)
(0 0 0)
(0 0 0)
(0 0 0)
(0 0 0)
(0 0 0)
(0 0 0)
(0 0 0)
(0 0 0)
(-0.328295813816 0.00899381288523 0)
(-0.00785534470832 0.000157497972306 0)
(0 0 0)
(0 0 0)
(0 0 0)
(0 0 0)
(0 0 0)
(0 0 0)
(-0.0720759331498 0.00199347630545 0)
(0 0 0)
(0 0 0)
(0 0 0)
(0 0 0)
(0 0 0)
(0 0 0)
(0 0 0)
(0 0 0)
(0 0 0)
(0 0 0)
(0 0 0)
(0 0 0)
(0 0 0)
(0 0 0)
(0 0 0)
(0 0 0)
(0 0 0)
(0 0 0)
(0 0 0)
(0 0 0)
(0 0 0)
(0 0 0)
(0 0 0)
(0 0 0)
(0 0 0)
(0 0 0)
(0 0 0)
(-1.54829922558 0.0536225932506 0)
(-0.0442540730694 0.00156821937892 0)
(0 0 0)
(0 0 0)
(0 0 0)
(0 0 0)
(0 0 0)
(0 0 0)
(-0.339724305517 0.0116342595653 0)
(-0.00671051805272 0.000260459086994 0)
(0 0 0)
(0 0 0)
(0 0 0)
(0 0 0)
(0 0 0)
(0 0 0)
(0 0 0)
(0 0 0)
(0 0 0)
(0 0 0)
(0 0 0)
(0 0 0)
(0 0 0)
(0 0 0)
(0 0 0)
(0 0 0)
(0 0 0)
(0 0 0)
(0 0 0)
(0 0 0)
(0 0 0)
(0 0 0)
(0 0 0)
(0 0 0)
(0 0 0)
(0 0 0)
(0 0 0)
(0 0 0)
(0 0 0)
(0 0 0)
(0 0 0)
(0 0 0)
(0 0 0)
(-2.61640917191 0.0719584924649 0)
(-0.0790231137791 0.002173354305 0)
(0 0 0)
(0 0 0)
(0 0 0)
(0 0 0)
(0 0 0)
(0 0 0)
(-2.61690517487 0.0719721339189 0)
(-0.583912206619 0.0160592015084 0)
(-0.0163764033699 0.000459758992076 0)
(0 0 0)
(0 0 0)
(0 0 0)
(0 0 0)
(0 0 0)
(0 0 0)
(-0.0479302921354 0.00131821566844 0)
(-0.0790237816797 0.00217337267412 0)
(-0.0163764172819 0.000459759382647 0)
(0 0 0)
(0 0 0)
(0 0 0)
(0 0 0)
(0 0 0)
(0 0 0)
(0 0 0)
(0 0 0)
(0 0 0)
(0 0 0)
(0 0 0)
(0 0 0)
(0 0 0)
(0 0 0)
(0 0 0)
(0 0 0)
(0 0 0)
(0 0 0)
(0 0 0)
(0 0 0)
(0 0 0)
(0 0 0)
(0 0 0)
(0 0 0)
(0 0 0)
(0 0 0)
(-0.03539532165 0.000543884046507 0)
(-0.00111260897763 1.70660382715e-05 0)
(0 0 0)
(0 0 0)
(0 0 0)
(0 0 0)
(0 0 0)
(0 0 0)
(-0.0161560441379 0.000248253561535 0)
(-0.0291744210325 0.000448293769515 0)
(-0.00732524096016 0.000112360087943 0)
(-0.000189757422651 1.35277759428e-06 0)
(0 0 0)
(0 0 0)
(0 0 0)
(0 0 0)
(0 0 0)
(0 0 0)
(-0.000448686997291 5.51729155247e-06 0)
(-0.000837442372324 1.28453246949e-05 0)
(-0.000162589914472 1.15910086826e-06 0)
(0 0 0)
(0 0 0)
(0 0 0)
(0 0 0)
(0 0 0)
(0 0 0)
(0 0 0)
(0 0 0)
(0 0 0)
(0 0 0)
(0 0 0)
(0 0 0)
(0 0 0)
(0 0 0)
(0 0 0)
(0 0 0)
(0 0 0)
(0 0 0)
(0 0 0)
(0 0 0)
(0 0 0)
(0 0 0)
(0 0 0)
(0 0 0)
(0 0 0)
(0 0 0)
(-0.000191162927653 1.39252018195e-06 0)
(-0.000190926783772 1.39079999947e-06 0)
(-2.46058543223e-05 1.40961490231e-07 0)
(0 0 0)
(0 0 0)
(0 0 0)
(0 0 0)
(0 0 0)
(0 0 0)
(0 0 0)
(-2.46129529987e-05 1.41002156976e-07 0)
(-2.46044789924e-05 1.40953611271e-07 0)
(-2.46883719337e-06 9.35386429186e-09 0)
(0 0 0)
(0 0 0)
(0 0 0)
(0 0 0)
(0 0 0)
(0 0 0)
(0 0 0)
(0 0 0)
(0 0 0)
(0 0 0)
(0 0 0)
(0 0 0)
(0 0 0)
(0 0 0)
(0 0 0)
(0 0 0)
(0 0 0)
(0 0 0)
(0 0 0)
(0 0 0)
(0 0 0)
(0 0 0)
(0 0 0)
(0 0 0)
(0 0 0)
(0 0 0)
(0 0 0)
(0 0 0)
(0 0 0)
(0 0 0)
(0 0 0)
(0 0 0)
(0 0 0)
(0 0 0)
(0 0 0)
(0 0 0)
(-0.00341472199188 6.84644416864e-05 0)
(-0.00928220988413 0.000186106312269 0)
(-0.00207114523186 4.15260165507e-05 0)
(-0.0882947068774 0.00211255154043 0)
(-0.0180783860826 0.000362467753649 0)
(-0.0535528807196 0.0012813137351 0)
(-0.010965226509 0.000219850433707 0)
(0 0 0)
(0 0 0)
(0 0 0)
(-0.00244645087975 4.90508140908e-05 0)
(0 0 0)
(0 0 0)
(0 0 0)
(0 0 0)
(0 0 0)
(0 0 0)
(-0.0180792016506 0.000362484105612 0)
(-0.00403402215386 8.08812767691e-05 0)
(-0.00403403115584 8.08814572568e-05 0)
(0 0 0)
(0 0 0)
(0 0 0)
(0 0 0)
(0 0 0)
(0 0 0)
(0 0 0)
(0 0 0)
(-0.072068166206 0.0019932614873 0)
(-0.199090631189 0.00545417824035 0)
(-0.0437121448247 0.00120899059034 0)
(-0.819099406438 0.0257295295942 0)
(-0.180740962088 0.00573386643379 0)
(-0.496793712701 0.0156052713904 0)
(-0.10962455278 0.00347775366604 0)
(0 0 0)
(-0.00476463971421 9.5530001753e-05 0)
(0 0 0)
(-0.0232904158694 0.000762880423766 0)
(0 0 0)
(-0.0124423190358 0.000398198050739 0)
(0 0 0)
(-0.0152189793222 0.000411718524224 0)
(-0.0152201300612 0.000411749655126 0)
(-0.00289048025305 5.7953507548e-05 0)
(-0.180737703129 0.00573376304585 0)
(-0.0383930721018 0.00125756977801 0)
(-0.038402212669 0.00125786917841 0)
(-0.00754757893165 0.000241549120363 0)
(0 0 0)
(0 0 0)
(0 0 0)
(-0.00341424373465 6.84548527317e-05 0)
(0 0 0)
(0 0 0)
(0 0 0)
(-0.339703636099 0.0116335517167 0)
(-0.923384232145 0.0316223822106 0)
(-0.206061584547 0.00705682202341 0)
(-2.27522046304 0.0754721319892 0)
(-0.501970174085 0.0165109999341 0)
(-1.36432503661 0.0448759144518 0)
(-0.304466263087 0.010014623795 0)
(0 0 0)
(-0.0268414843066 0.000951174274568 0)
(0 0 0)
(-0.0679407462423 0.00223473368468 0)
(0 0 0)
(-0.0412086032143 0.00135544954677 0)
(0 0 0)
(-0.0758091625381 0.00259617419205 0)
(-0.0758182791433 0.00259648640095 0)
(-0.0143435720867 0.000555072524556 0)
(-0.50199317084 0.0165117563524 0)
(-0.112014572913 0.00368442728567 0)
(-0.112018632563 0.00368456081725 0)
(-0.0249947119002 0.000822135871501 0)
(0 0 0)
(0 0 0)
(0 0 0)
(-0.0136955875673 0.000493100718236 0)
(0 0 0)
(0 0 0)
(0 0 0)
(-7.30544556471 0.206651155099 0)
(-4.34046641127 0.120150548756 0)
(-4.42663592771 0.0859517475975 0)
(-2.10262841508 0.0408266208868 0)
(-0.583864744119 0.0160578961583 0)
(-1.58713977692 0.0436507358652 0)
(-0.354148520572 0.00974006433039 0)
(-2.68718352683 0.0521768955067 0)
(-0.284699200195 0.00552798879241 0)
(-1.27542288605 0.0247648163915 0)
(-0.134861383392 0.00261859610216 0)
(0 0 0)
(-0.0479301683864 0.001318212265 0)
(0 0 0)
(-0.103253754831 0.00200382284628 0)
(0 0 0)
(-0.0488927581108 0.000948850972834 0)
(0 0 0)
(0 0 0)
(0 0 0)
(0 0 0)
(0 0 0)
(0 0 0)
(0 0 0)
(0 0 0)
(0 0 0)
(0 0 0)
(0 0 0)
(0 0 0)
(0 0 0)
(0 0 0)
(0 0 0)
(0 0 0)
(0 0 0)
(0 0 0)
(0 0 0)
(0 0 0)
(0 0 0)
(0 0 0)
(0 0 0)
(0 0 0)
(0 0 0)
(0 0 0)
(0 0 0)
(0 0 0)
(0 0 0)
(0 0 0)
(0 0 0)
(0 0 0)
(0 0 0)
(0 0 0)
(0 0 0)
(0 0 0)
(0 0 0)
(0 0 0)
(0 0 0)
(0 0 0)
(0 0 0)
(0 0 0)
(0 0 0)
(-0.448719789178 0.00828462539888 0.0207779907236)
(-0.583908541534 0.0160591007084 0)
(-1.29006851233 0.0250491897157 0)
(-2.72528092795 0.0529166306598 0)
(-0.136560506673 0.00265158788593 0)
(-0.288668007139 0.00560505089968 0)
(-1.58724151521 0.0436535339497 0)
(-0.583910988777 0.0160591680144 0)
(-0.354159294088 0.00974036063189 0)
(-2.70345004309 0.052492741563 0)
(-1.27850310125 0.0248246247615 0)
(-0.287767407431 0.00558756400443 0)
(-0.135820423838 0.00263721773802 0)
(-0.130288521818 0.00358329488987 0)
(-0.130288020887 0.00358328111288 0)
(-0.0290711914859 0.000799538212883 0)
(-0.775336603923 0.0150546684145 0)
(-0.0805992798349 0.00156417244672 0)
(-0.0810332746957 0.00157259488926 0)
(-0.0060026045021 4.55971080171e-05 0)
(0 0 0)
(0 0 0)
(0 0 0)
(-0.0296827863277 0.000576047287404 0)
(0 0 0)
(0 0 0)
(0 0 0)
(0 0 0)
(0 0 0)
(0 0 0)
(0 0 0)
(0 0 0)
(0 0 0)
(0 0 0)
(0 0 0)
(0 0 0)
(0 0 0)
(0 0 0)
(0 0 0)
(0 0 0)
(0 0 0)
(0 0 0)
(0 0 0)
(0 0 0)
(0 0 0)
(0 0 0)
(0 0 0)
(0 0 0)
(0 0 0)
(0 0 0)
(0 0 0)
(0 0 0)
(0 0 0)
(0 0 0)
(0 0 0)
(0 0 0)
(0 0 0)
(0 0 0)
(0 0 0)
(0 0 0)
(0 0 0)
(0 0 0)
(0 0 0)
(0 0 0)
(0 0 0)
(0 0 0)
(0 0 0)
(0 0 0)
(0 0 0)
(-0.0790238529146 0.00217337463327 0)
(0 0 0)
(0 0 0)
(-0.0495291101672 0.000961200516838 0)
(-0.104684690444 0.00203159269811 0)
(0 0 0)
(0 0 0)
(-0.0479304614584 0.00131822032529 0)
(0 0 0)
(0 0 0)
(-0.104449402462 0.00202702651614 0)
(-0.0492859639186 0.00095648183122 0)
(0 0 0)
(0 0 0)
(0 0 0)
(0 0 0)
(0 0 0)
(-0.029879656359 0.000579867900681 0)
(0 0 0)
(0 0 0)
(0 0 0)
(0 0 0)
(0 0 0)
(0 0 0)
(0 0 0)
(0 0 0)
(0 0 0)
(0 0 0)
(0 0 0)
(0 0 0)
(0 0 0)
(0 0 0)
(0 0 0)
(0 0 0)
(0 0 0)
(0 0 0)
(0 0 0)
(0 0 0)
(0 0 0)
(0 0 0)
(0 0 0)
(0 0 0)
(0 0 0)
(0 0 0)
(0 0 0)
(0 0 0)
(0 0 0)
(0 0 0)
(0 0 0)
(0 0 0)
(0 0 0)
(0 0 0)
(0 0 0)
(0 0 0)
(0 0 0)
(0 0 0)
(0 0 0)
(0 0 0)
(0 0 0)
(0 0 0)
(0 0 0)
(0 0 0)
(0 0 0)
(0 0 0)
(0 0 0)
(0 0 0)
(0 0 0)
(0 0 0)
(0 0 0)
(0 0 0)
(0 0 0)
(0 0 0)
(0 0 0)
(0 0 0)
(0 0 0)
(0 0 0)
(0 0 0)
(0 0 0)
(0 0 0)
(0 0 0)
(0 0 0)
(0 0 0)
(0 0 0)
(0 0 0)
(0 0 0)
(0 0 0)
(0 0 0)
(0 0 0)
(0 0 0)
(0 0 0)
(0 0 0)
(0 0 0)
(0 0 0)
(0 0 0)
(0 0 0)
(0 0 0)
(0 0 0)
(0 0 0)
(0 0 0)
(0 0 0)
(0 0 0)
(0 0 0)
(0 0 0)
(0 0 0)
(0 0 0)
(0 0 0)
(0 0 0)
(0 0 0)
(0 0 0)
(0 0 0)
(0 0 0)
(0 0 0)
(0 0 0)
(0 0 0)
(0 0 0)
(0 0 0)
(0 0 0)
(0 0 0)
(0 0 0)
(0 0 0)
(0 0 0)
(0 0 0)
(0 0 0)
(0 0 0)
(0 0 0)
(0 0 0)
(0 0 0)
(0 0 0)
(0 0 0)
(0 0 0)
(0 0 0)
(0 0 0)
(0 0 0)
(0 0 0)
(0 0 0)
(0 0 0)
(0 0 0)
(0 0 0)
(0 0 0)
(0 0 0)
(0 0 0)
(0 0 0)
(0 0 0)
(0 0 0)
(0 0 0)
(0 0 0)
(0 0 0)
(0 0 0)
(0 0 0)
(0 0 0)
(0 0 0)
(0 0 0)
(0 0 0)
(0 0 0)
(0 0 0)
(0 0 0)
(0 0 0)
(0 0 0)
(0 0 0)
(0 0 0)
(0 0 0)
(0 0 0)
(0 0 0)
(0 0 0)
(0 0 0)
(0 0 0)
(0 0 0)
(0 0 0)
(0 0 0)
(0 0 0)
(0 0 0)
(0 0 0)
(0 0 0)
(0 0 0)
(0 0 0)
(0 0 0)
(0 0 0)
(0 0 0)
(0 0 0)
(0 0 0)
(0 0 0)
(0 0 0)
(0 0 0)
(0 0 0)
(0 0 0)
(0 0 0)
(0 0 0)
(0 0 0)
(0 0 0)
(0 0 0)
(0 0 0)
(-0.00163377181917 1.85320300422e-05 0)
(-0.00250041732435 2.83624729166e-05 0)
(-0.000956072967653 1.08332464648e-05 0)
(-0.00149770604679 1.69886229692e-05 0)
(-0.0924320728198 0.00142031001411 0)
(-0.0540412325408 0.000830396867788 0)
(-0.00246335836681 2.79421096159e-05 0)
(-0.00149352211315 1.69411642096e-05 0)
(-0.00149347165565 1.69405918654e-05 0)
(-0.000904570024708 1.02496674981e-05 0)
(-0.0080435113485 0.000123377462586 0)
(-0.0208010531483 0.000319628708839 0)
(-0.00477807014747 7.32896548919e-05 0)
(-0.000549223855323 6.22324612281e-06 0)
(-0.000122578045432 1.38892973891e-06 0)
(-0.000333164641223 3.77508285857e-06 0)
(-7.4581132468e-05 8.45077537998e-07 0)
(0 0 0)
(-0.000627588845046 7.71716286431e-06 0)
(0 0 0)
(-1.44541793967e-05 9.43543456179e-08 0)
(0 0 0)
(-8.80624521876e-06 5.74856228198e-08 0)
(0 0 0)
(0 0 0)
(0 0 0)
(0 0 0)
(0 0 0)
(0 0 0)
(0 0 0)
(0 0 0)
(0 0 0)
(0 0 0)
(0 0 0)
(0 0 0)
(0 0 0)
(0 0 0)
(0 0 0)
(0 0 0)
(0 0 0)
(0 0 0)
(0 0 0)
(0 0 0)
(0 0 0)
(0 0 0)
(0 0 0)
(0 0 0)
(0 0 0)
(0 0 0)
(0 0 0)
(0 0 0)
(0 0 0)
(0 0 0)
(0 0 0)
(0 0 0)
(0 0 0)
(0 0 0)
(0 0 0)
(0 0 0)
(0 0 0)
(0 0 0)
(0 0 0)
(0 0 0)
(0 0 0)
(0 0 0)
(0 0 0)
(-0.0276027209137 0.00042414304618 0)
(-0.00357030146782 5.47639851154e-05 0)
(-0.00606632957799 9.30499527025e-05 0)
(-0.000342812792999 3.88440590154e-06 0)
(-0.000549982843798 6.23184620825e-06 0)
(-7.67832639532e-05 8.7002985224e-07 0)
(-0.000123688959473 1.40151748694e-06 0)
(-0.0188252702849 0.000289268855369 0)
(-0.0063599900877 9.75543397767e-05 0)
(-0.00404051390776 6.19764592704e-05 0)
(-0.000548874662746 6.21928942769e-06 0)
(-0.000332828069125 3.77126916588e-06 0)
(-0.000122693890322 1.39024237538e-06 0)
(-7.42498852828e-05 8.41324181801e-07 0)
(-0.00172798091057 2.65050785541e-05 0)
(-0.00158138721463 2.42565135365e-05 0)
(-0.000351077835806 4.31703791161e-06 0)
(-0.000122504663623 1.38809825088e-06 0)
(-2.66869021425e-05 2.62858671518e-07 0)
(-2.66161501415e-05 2.621617837e-07 0)
(-3.37656930546e-06 1.27930554271e-08 0)
(0 0 0)
(0 0 0)
(0 0 0)
(0 0 0)
(0 0 0)
(0 0 0)
(0 0 0)
(0 0 0)
(0 0 0)
(0 0 0)
(0 0 0)
(0 0 0)
(0 0 0)
(0 0 0)
(0 0 0)
(0 0 0)
(0 0 0)
(0 0 0)
(0 0 0)
(0 0 0)
(0 0 0)
(0 0 0)
(0 0 0)
(0 0 0)
(0 0 0)
(0 0 0)
(0 0 0)
(0 0 0)
(0 0 0)
(0 0 0)
(0 0 0)
(0 0 0)
(0 0 0)
(0 0 0)
(0 0 0)
(0 0 0)
(0 0 0)
(0 0 0)
(0 0 0)
(0 0 0)
(0 0 0)
(0 0 0)
(0 0 0)
(0 0 0)
(0 0 0)
(0 0 0)
(0 0 0)
(0 0 0)
(0 0 0)
(-0.000814790227754 1.24978689635e-05 0)
(0 0 0)
(0 0 0)
(-9.24999586072e-06 6.03823491084e-08 0)
(-1.48296652471e-05 9.68054513317e-08 0)
(0 0 0)
(0 0 0)
(-0.000503126634274 6.18670999129e-06 0)
(0 0 0)
(0 0 0)
(-1.45278220471e-05 9.48350719117e-08 0)
(-8.7668798491e-06 5.72286525973e-08 0)
(0 0 0)
(0 0 0)
(0 0 0)
(0 0 0)
(0 0 0)
(0 0 0)
(0 0 0)
(0 0 0)
(0 0 0)
(0 0 0)
(0 0 0)
(0 0 0)
(0 0 0)
(0 0 0)
(0 0 0)
(0 0 0)
(0 0 0)
(0 0 0)
(0 0 0)
(0 0 0)
(0 0 0)
(0 0 0)
(0 0 0)
(0 0 0)
(0 0 0)
(0 0 0)
(0 0 0)
(0 0 0)
(0 0 0)
(0 0 0)
(0 0 0)
(0 0 0)
(0 0 0)
(0 0 0)
(0 0 0)
(0 0 0)
(0 0 0)
(0 0 0)
(0 0 0)
(0 0 0)
(0 0 0)
(0 0 0)
(0 0 0)
(0 0 0)
(0 0 0)
(0 0 0)
(0 0 0)
(0 0 0)
(0 0 0)
(0 0 0)
(0 0 0)
(0 0 0)
(0 0 0)
(0 0 0)
(0 0 0)
(0 0 0)
(0 0 0)
(0 0 0)
(0 0 0)
(0 0 0)
(0 0 0)
(0 0 0)
(0 0 0)
(0 0 0)
(0 0 0)
(0 0 0)
(0 0 0)
(0 0 0)
(0 0 0)
(0 0 0)
(0 0 0)
(0 0 0)
(0 0 0)
(0 0 0)
(0 0 0)
(0 0 0)
(0 0 0)
(0 0 0)
(0 0 0)
(0 0 0)
(0 0 0)
(0 0 0)
(0 0 0)
(0 0 0)
(0 0 0)
(0 0 0)
(0 0 0)
(0 0 0)
(0 0 0)
(0 0 0)
(0 0 0)
(0 0 0)
(0 0 0)
(0 0 0)
(0 0 0)
(0 0 0)
(0 0 0)
(0 0 0)
(0 0 0)
(0 0 0)
(0 0 0)
(0 0 0)
(0 0 0)
(0 0 0)
(0 0 0)
(0 0 0)
(0 0 0)
(0 0 0)
(0 0 0)
(0 0 0)
(0 0 0)
(0 0 0)
(0 0 0)
(0 0 0)
(0 0 0)
(0 0 0)
(0 0 0)
(0 0 0)
(0 0 0)
(0 0 0)
(0 0 0)
(0 0 0)
(0 0 0)
(0 0 0)
(0 0 0)
(0 0 0)
(0 0 0)
(0 0 0)
(0 0 0)
(0 0 0)
(0 0 0)
(0 0 0)
(0 0 0)
(0 0 0)
(0 0 0)
(0 0 0)
(0 0 0)
(0 0 0)
(0 0 0)
(0 0 0)
(0 0 0)
(0 0 0)
(0 0 0)
(0 0 0)
(0 0 0)
(0 0 0)
(0 0 0)
(0 0 0)
(0 0 0)
(0 0 0)
(0 0 0)
(0 0 0)
(0 0 0)
(0 0 0)
(0 0 0)
(0 0 0)
(0 0 0)
(0 0 0)
(0 0 0)
(0 0 0)
(0 0 0)
(0 0 0)
(0 0 0)
(0 0 0)
(0 0 0)
(0 0 0)
(0 0 0)
(0 0 0)
(0 0 0)
(0 0 0)
(0 0 0)
(0 0 0)
(0 0 0)
(0 0 0)
(0 0 0)
(0 0 0)
(0 0 0)
(0 0 0)
(0 0 0)
(0 0 0)
(0 0 0)
(0 0 0)
(0 0 0)
(0 0 0)
(-7.23162615636 0.163649079506 0)
(-5.61883154655 0.126698065761 0)
(-6.44087870877 0.125062189465 0)
(-3.91323014101 0.0759829755292 0)
(-4.95864554152 0.111811645126 0)
(-5.6801151453 0.110290484979 0)
(-8.20315924491 0.185935110206 0)
(-5.6189394199 0.126700498179 0)
(-2.6542512632 0.0598502550406 0)
(-3.05189057109 0.0592583922296 0)
(-3.06140578659 0.0594431486484 0)
(-3.86186960641 0.0870806332777 0)
(-3.86191776402 0.0870817191752 0)
(-4.430436752 0.0860255479949 0)
(-1.60983243137 0.0362998345054 0)
(-3.40796987221 0.0768457262696 0)
(-1.44228037095 0.028004679046 0)
(-2.37772993412 0.0461682520293 0)
(-3.00757224961 0.0678172291704 0)
(-1.27317500214 0.0247211693527 0)
(-1.82415715832 0.0411326058966 0)
(-0.76043289288 0.0171468704607 0)
(-0.359206480699 0.00809968512783 0)
(-0.682323353159 0.0132486352138 0)
(-0.251476235554 0.00488290030582 0)
(-0.316998508539 0.00714794482595 0)
(-0.602120451125 0.0116913398535 0)
(-0.861682124931 0.0194299219731 0)
(-1.25376321002 0.0282708908989 0)
(-1.60986889087 0.0363006566245 0)
(-1.85438349042 0.0360064627679 0)
(-0.683637038489 0.01327414297 0)
(-2.34234871335 0.0528172181102 0)
(-0.86169921761 0.019430307393 0)
(-0.992896704238 0.0192790209782 0)
(-0.592234957363 0.013354204153 0)
(-0.169677706062 0.00382603339907 0)
(-0.196078059026 0.00380723694337 0)
(-0.323281546785 0.00627714010505 0)
(-0.246881052043 0.00556687836389 0)
(-0.407037386124 0.00917821598444 0)
(-0.469500442374 0.00911626440008 0)
(-0.0367347614345 0.000831139766471 0)
(-0.132144801724 0.00297971039711 0)
(-0.0335936734378 0.000651945010962 0)
(-0.0911696862206 0.00176930999203 0)
(-0.116618951074 0.00262962066218 0)
(-0.0296343224753 0.000575106760111 0)
(-0.0416251604961 0.000941787147188 0)
(-0.0091857054271 0.000148293584514 0)
(0 0 0)
(-0.00874348572518 0.000126909011861 0)
(0 0 0)
(0 0 0)
(-0.00597646454838 4.53985431619e-05 0)
(-0.0104085395821 0.000168034960019 0)
(-0.0286088166169 0.00064728677235 0)
(-0.0624208555284 0.00140751713111 0)
(-0.0710845908621 0.00137952297639 0)
(-0.0144222683177 0.00020933479833 0)
(-0.0908225675505 0.00204794244867 0)
(-0.0196624116133 0.000444870513877 0)
(-0.0231044963911 0.000448383865517 0)
(-0.00521572075688 4.12440346288e-05 0)
(0 0 0)
(0 0 0)
(0 0 0)
(0 0 0)
(0 0 0)
(-0.00465835799802 3.53859150213e-05 0)
(0 0 0)
(0 0 0)
(0 0 0)
(0 0 0)
(0 0 0)
(0 0 0)
(0 0 0)
(0 0 0)
(0 0 0)
(0 0 0)
(0 0 0)
(0 0 0)
(0 0 0)
(0 0 0)
(0 0 0)
(0 0 0)
(0 0 0)
(0 0 0)
(0 0 0)
(0 0 0)
(0 0 0)
(0 0 0)
(0 0 0)
(0 0 0)
(0 0 0)
(0 0 0)
(0 0 0)
(0 0 0)
(0 0 0)
(0 0 0)
(0 0 0)
(0 0 0)
(0 0 0)
(0 0 0)
(0 0 0)
(0 0 0)
(0 0 0)
(0 0 0)
(0 0 0)
(0 0 0)
(0 0 0)
(0 0 0)
(0 0 0)
(0 0 0)
(0 0 0)
(0 0 0)
(0 0 0)
(0 0 0)
(0 0 0)
(0 0 0)
(0 0 0)
(0 0 0)
(0 0 0)
(0 0 0)
(0 0 0)
(0 0 0)
(0 0 0)
(0 0 0)
(0 0 0)
(0 0 0)
(0 0 0)
(0 0 0)
(0 0 0)
(0 0 0)
(0 0 0)
(0 0 0)
(0 0 0)
(0 0 0)
(0 0 0)
(0 0 0)
(0 0 0)
(0 0 0)
(0 0 0)
(0 0 0)
(0 0 0)
(0 0 0)
(0 0 0)
(0 0 0)
(0 0 0)
(0 0 0)
(0 0 0)
(0 0 0)
(0 0 0)
(0 0 0)
(0 0 0)
(0 0 0)
(0 0 0)
(0 0 0)
(0 0 0)
(0 0 0)
(0 0 0)
(0 0 0)
(0 0 0)
(0 0 0)
(0 0 0)
(0 0 0)
(0 0 0)
(0 0 0)
(0 0 0)
(0 0 0)
(0 0 0)
(0 0 0)
(0 0 0)
(0 0 0)
(0 0 0)
(0 0 0)
(0 0 0)
(0 0 0)
(0 0 0)
(0 0 0)
(0 0 0)
(0 0 0)
(0 0 0)
(0 0 0)
(0 0 0)
(0 0 0)
(0 0 0)
(0 0 0)
(0 0 0)
(0 0 0)
(0 0 0)
(0 0 0)
(0 0 0)
(0 0 0)
(0 0 0)
(0 0 0)
(0 0 0)
(0 0 0)
(0 0 0)
(0 0 0)
(0 0 0)
(0 0 0)
(0 0 0)
(0 0 0)
(0 0 0)
(0 0 0)
(0 0 0)
(0 0 0)
(0 0 0)
(0 0 0)
(0 0 0)
(0 0 0)
(0 0 0)
(0 0 0)
(0 0 0)
(0 0 0)
(0 0 0)
(0 0 0)
(0 0 0)
(0 0 0)
(0 0 0)
(0 0 0)
(0 0 0)
(0 0 0)
(0 0 0)
(0 0 0)
(0 0 0)
(0 0 0)
(0 0 0)
(0 0 0)
(0 0 0)
(0 0 0)
(0 0 0)
(0 0 0)
(0 0 0)
(0 0 0)
(0 0 0)
(0 0 0)
(-1.25374433501 0.0282704652896 0)
(-1.60986196787 0.036300500519 0)
(-1.87138082106 0.0363364990068 0)
(-0.696406447785 0.0135220858916 0)
(-2.34229828952 0.0528160811122 0)
(-1.0109728332 0.0196300041852 0)
(-0.861697090862 0.0194302594373 0)
(-1.60984145158 0.0363000379007 0)
(-3.40809838659 0.0768486241183 0)
(-2.41076106851 0.0468096157586 0)
(-1.45454781568 0.028242875349 0)
(-3.00763101937 0.0678185543597 0)
(-1.82417429668 0.0411329923466 0)
(-1.28476119373 0.0249461378008 0)
(-0.592236206045 0.0133542323093 0)
(-0.169675546224 0.00382598469725 0)
(-0.329041463229 0.00638898008747 0)
(-0.198366052641 0.0038516627902 0)
(-0.2468737832 0.00556671446002 0)
(-0.477857544267 0.00927853379027 0)
(-0.407037344756 0.00917821505163 0)
(-0.760423888875 0.0171466674309 0)
(-0.359206339631 0.00809968194693 0)
(-0.689031573819 0.0133788883673 0)
(-0.255181101195 0.00495483747926 0)
(-0.861680114468 0.0194298766395 0)
(-0.316998870331 0.00714795298394 0)
(-0.60840295327 0.0118133268539 0)
(-1.60987676615 0.0363008342028 0)
(-3.40808285436 0.0768482738847 0)
(-2.3871188636 0.0463505563593 0)
(-1.45808740289 0.0283116033203 0)
(-3.00763838377 0.0678187204182 0)
(-1.82420709565 0.0411337319248 0)
(-1.28387245366 0.0249288811835 0)
(-1.25377367094 0.0282711267805 0)
(-1.60990196005 0.0363014022958 0)
(-1.86164032752 0.0361473683768 0)
(-0.686177032024 0.0133234618855 0)
(-2.34241536451 0.0528187210159 0)
(-0.861708014977 0.0194305057633 0)
(-0.997924986754 0.0193766548647 0)
(-0.760440178454 0.0171470347418 0)
(-0.359202200615 0.00809958861697 0)
(-0.69033622256 0.0134042206606 0)
(-0.254008605208 0.00493207118883 0)
(-0.86169129447 0.0194301287355 0)
(-0.316995459687 0.00714787607792 0)
(-0.608014852567 0.0118057911238 0)
(-0.592231669465 0.0133541300148 0)
(-0.169676989206 0.00382601723482 0)
(-0.324943599441 0.00630941209052 0)
(-0.197830925826 0.00384127226212 0)
(-0.407038565199 0.00917824257119 0)
(-0.2468791382 0.00556683520899 0)
(-0.472693178685 0.00917825758634 0)
(-0.279755251337 0.00630815302743 0)
(-0.976450725388 0.0220178193976 0)
(-0.415350115555 0.00806483046716 0)
(-0.416233858384 0.00808199005332 0)
(-0.522655346964 0.0117852654901 0)
(-0.522654262232 0.0117852410306 0)
(-0.222745334007 0.00432503396253 0)
(-0.13214654095 0.00297974961462 0)
(-0.102914656656 0.00232060488533 0)
(-0.196345056958 0.0038124212276 0)
(-0.0432200916425 0.000838762785851 0)
(-0.246882926806 0.00556692063762 0)
(-0.0534485384984 0.00120929615631 0)
(-0.103580869864 0.00201017109558 0)
(-0.132146679347 0.00297975273529 0)
(-0.102913811898 0.00232058583702 0)
(-0.197075527661 0.00382660473728 0)
(-0.0433751852691 0.000841772653655 0)
(-0.246882598039 0.00556691322429 0)
(-0.0534475271772 0.00120927327473 0)
(-0.103786326209 0.00201415834154 0)
(-0.0624215484825 0.00140753275642 0)
(-0.0091855374324 0.000148290872416 0)
(-0.0204538094485 0.000396942568661 0)
(-0.0204899323521 0.000397643597884 0)
(-0.025247193173 0.000571228597067 0)
(-0.02524686587 0.000571221191697 0)
(-0.0490334076044 0.000951580526535 0)
(0 0 0)
(-0.0367338040168 0.000831118104485 0)
(-0.00875369480864 0.000127057193574 0)
(-0.0144349224314 0.000209518468908 0)
(-0.0104085057806 0.00016803441433 0)
(-0.0196626726929 0.000444876420915 0)
(0 0 0)
(0 0 0)
(0 0 0)
(0 0 0)
(0 0 0)
(0 0 0)
(0 0 0)
(0 0 0)
(0 0 0)
(0 0 0)
(-0.00529108506852 4.01922494331e-05 0)
(0 0 0)
(-0.00810626376142 0.000130867130428 0)
(0 0 0)
(0 0 0)
(0 0 0)
(0 0 0)
(0 0 0)
(0 0 0)
(0 0 0)
(0 0 0)
(0 0 0)
(0 0 0)
(0 0 0)
(0 0 0)
(0 0 0)
(0 0 0)
(0 0 0)
(0 0 0)
(0 0 0)
(0 0 0)
(0 0 0)
(0 0 0)
(0 0 0)
(0 0 0)
(0 0 0)
(0 0 0)
(0 0 0)
(0 0 0)
(0 0 0)
(0 0 0)
(0 0 0)
(0 0 0)
(0 0 0)
(0 0 0)
(0 0 0)
(0 0 0)
(0 0 0)
(0 0 0)
(0 0 0)
(0 0 0)
(0 0 0)
(0 0 0)
(0 0 0)
(0 0 0)
(0 0 0)
(0 0 0)
(0 0 0)
(0 0 0)
(0 0 0)
(0 0 0)
(0 0 0)
(0 0 0)
(0 0 0)
(0 0 0)
(0 0 0)
(0 0 0)
(0 0 0)
(0 0 0)
(0 0 0)
(0 0 0)
(0 0 0)
(0 0 0)
(0 0 0)
(0 0 0)
(0 0 0)
(0 0 0)
(0 0 0)
(0 0 0)
(0 0 0)
(0 0 0)
(0 0 0)
(0 0 0)
(0 0 0)
(0 0 0)
(0 0 0)
(0 0 0)
(0 0 0)
(0 0 0)
(0 0 0)
(0 0 0)
(0 0 0)
(0 0 0)
(0 0 0)
(0 0 0)
(0 0 0)
(0 0 0)
(0 0 0)
(0 0 0)
(0 0 0)
(0 0 0)
(0 0 0)
(0 0 0)
(0 0 0)
(0 0 0)
(0 0 0)
(0 0 0)
(0 0 0)
(0 0 0)
(0 0 0)
(0 0 0)
(0 0 0)
(0 0 0)
(0 0 0)
(0 0 0)
(0 0 0)
(0 0 0)
(0 0 0)
(0 0 0)
(0 0 0)
(0 0 0)
(0 0 0)
(0 0 0)
(0 0 0)
(0 0 0)
(0 0 0)
(0 0 0)
(0 0 0)
(0 0 0)
(0 0 0)
(0 0 0)
(0 0 0)
(0 0 0)
(0 0 0)
(0 0 0)
(0 0 0)
(0 0 0)
(0 0 0)
(0 0 0)
(0 0 0)
(0 0 0)
(0 0 0)
(0 0 0)
(0 0 0)
(0 0 0)
(0 0 0)
(0 0 0)
(0 0 0)
(0 0 0)
(0 0 0)
(0 0 0)
(0 0 0)
(0 0 0)
(0 0 0)
(0 0 0)
(0 0 0)
(0 0 0)
(0 0 0)
(0 0 0)
(0 0 0)
(0 0 0)
(0 0 0)
(0 0 0)
(0 0 0)
(0 0 0)
(0 0 0)
(0 0 0)
(0 0 0)
(0 0 0)
(0 0 0)
(0 0 0)
(0 0 0)
(0 0 0)
(0 0 0)
(0 0 0)
(0 0 0)
(0 0 0)
(0 0 0)
(0 0 0)
(0 0 0)
(0 0 0)
(0 0 0)
(0 0 0)
(0 0 0)
(0 0 0)
(0 0 0)
(0 0 0)
(0 0 0)
(0 0 0)
(0 0 0)
(-0.0286086141531 0.000647282191519 0)
(-0.0624212246314 0.00140752545395 0)
(-0.0719219576198 0.00139577356837 0)
(-0.0146292420719 0.000212338958852 0)
(-0.0908200000725 0.00204788455505 0)
(-0.0234622526492 0.000455326762311 0)
(-0.0196625171375 0.000444872901408 0)
(-0.036733989089 0.000831122291823 0)
(-0.132145140886 0.00297971804481 0)
(-0.0925112998277 0.0017953463914 0)
(-0.0340144451815 0.000660110835386 0)
(-0.11661667681 0.0026295693802 0)
(-0.0416251362836 0.000941786599369 0)
(-0.0300189030226 0.000582570229969 0)
(-0.00521581693029 4.12447951334e-05 0)
(0 0 0)
(0 0 0)
(0 0 0)
(0 0 0)
(-0.00472704047985 3.59076423051e-05 0)
(0 0 0)
(-0.00918575696754 0.000148294416581 0)
(0 0 0)
(-0.00885146235973 0.000128476259573 0)
(0 0 0)
(-0.0104088253685 0.000168039573741 0)
(0 0 0)
(-0.0060531263255 4.59808829331e-05 0)
(-0.0367341875629 0.000831126782379 0)
(-0.132143998751 0.002979692291 0)
(-0.0921836909554 0.00178898855827 0)
(-0.0340237391203 0.000660291200807 0)
(-0.116616982153 0.00262957626534 0)
(-0.041625213697 0.000941788350882 0)
(-0.0299978559142 0.000582161773379 0)
(-0.0286087346636 0.00064728491812 0)
(-0.0624216135193 0.00140753422292 0)
(-0.0717838749566 0.00139309382858 0)
(-0.0145451422603 0.000211118275898 0)
(-0.0908228314518 0.00204794839933 0)
(-0.019662557749 0.00044487382026 0)
(-0.0233392667556 0.000452940002201 0)
(-0.0091858262332 0.000148295534802 0)
(0 0 0)
(-0.00885360053933 0.000128507294593 0)
(0 0 0)
(-0.0104088752541 0.000168040379091 0)
(0 0 0)
(-0.00604981271762 4.59557120366e-05 0)
(-0.00521584338698 4.12450043433e-05 0)
(0 0 0)
(0 0 0)
(0 0 0)
(0 0 0)
(0 0 0)