/*--------------------------------*- C++ -*----------------------------------*\
| =========                 |                                                 |
| \\      /  F ield         | OpenFOAM: The Open Source CFD Toolbox           |
|  \\    /   O peration     | Version:  v1906                                 |
|   \\  /    A nd           | Web:      www.OpenFOAM.com                      |
|    \\/     M anipulation  |                                                 |
\*---------------------------------------------------------------------------*/
FoamFile
{
    version     2.0;
    format      ascii;
    class       volScalarField;
    location    "3";
    object      p;
}
// * * * * * * * * * * * * * * * * * * * * * * * * * * * * * * * * * * * * * //

dimensions      [1 -1 -2 0 0 0 0];


internalField   nonuniform List<scalar> 
28582
(
17112.7318555
17114.0519381
12215.4043216
12216.9600171
7318.90676062
7321.14855279
3645.73238736
3649.32541939
8.97447654586
10.6143592618
-26.9710859113
3647.76510867
618.601994137
621.39008275
3650.54589283
3650.51317083
622.225499777
1816.20734029
1816.17005134
17110.2406472
17114.7862154
17114.6308077
12212.3772348
12217.7175213
12217.370074
7314.85339966
7322.09550988
3640.43341155
3651.4534607
11.2328839865
-27.0674440018
-26.978687349
3641.97135796
3642.88169313
613.27383759
617.409656123
1806.35538265
3651.99862538
3651.34242921
3651.68366045
1816.73542838
626.870991072
1816.69319851
1816.84208122
9.35896638354
10.7876600735
-23.2560676795
-23.25695415
9.94906854758
-23.2633222505
1809.19409115
1810.91287989
619.688614635
618.667917496
1809.7102729
619.493781975
1810.462689
1812.06045412
1812.75620621
620.666572079
621.285804725
1813.08162925
620.389355187
1811.70851703
1814.8028013
1813.68852436
623.056518144
622.194628181
1813.95768336
623.029753549
1814.62026064
1816.00615167
624.466768125
624.624971181
1815.53888958
623.802148593
623.831480167
1815.3755149
1816.01767625
624.769544907
624.921615844
1815.4870139
623.973154817
1815.52221405
623.92043438
9.20342217
-23.2945727046
7.76814608244
9.31332568734
-23.2669688831
-23.2882624281
11.7269907088
-23.2475516765
-23.246828543
13.0036134781
-23.2357202338
11.9911940208
-23.2367671638
1804.38981847
1803.31003365
614.715363083
614.169698785
1804.22467198
1803.63300694
615.0530645
1805.32229713
1806.30367259
616.310418182
617.642264309
1805.23319645
1806.52568874
616.270362177
616.936038815
617.773573066
1807.54547234
1805.77517455
617.755252738
1806.91222054
616.491476532
1816.55329133
625.056927749
625.315873397
1817.12241313
625.721984162
1817.07520211
625.952446177
1817.38126552
1817.76462315
626.306887844
627.207195839
1817.45822387
1817.52965499
626.545572111
1816.80693276
1816.46391887
625.544023509
625.816782374
626.447800595
1817.00869516
626.242941591
627.05029773
627.464797359
1816.64366454
1817.14617362
627.341831543
1817.07532662
626.849608641
7321.33123296
3652.00041852
13.2903318663
-26.9821800188
3644.90941371
618.601527321
3651.44827058
3650.48137238
627.646271384
627.795449349
630.344631452
3648.30320253
3644.59596725
631.643527127
631.615269346
9.60869208146
14.4932904577
16.5134946685
-23.2051923237
-23.1966759801
-23.1566690697
19.1610855557
22.0022170624
1809.5850894
1808.71729941
618.918766316
619.726496874
1808.26759765
619.636777958
1810.05582329
1817.438273
1817.98960116
628.750430679
627.887125331
1818.04998727
1817.5622069
628.817595411
1816.62029304
1816.30800049
627.803827745
628.179043878
1816.87594033
628.539568385
1815.94444299
1816.33904507
1815.47460123
630.69003838
629.04004432
1815.85030006
629.58326595
1815.71212603
1812.74041565
1814.75823786
631.864622269
632.563893509
1814.7995723
632.488899146
1813.16058915
1809.49541895
1806.1582136
630.961994719
632.821610781
1805.52853886
632.104721131
1810.25634979
3650.06561157
3644.33064629
3642.86981658
3639.80291198
-3.7499328564
0.2108364798
-4.00673785748
-0.979736300795
-0.245660563671
-26.9766515962
-27.0466624964
-26.9378330545
-27.0161410328
-26.9439167983
-27.0275507302
3650.76628769
3649.9001768
610.210708478
608.369407997
3652.9626357
609.512180125
3648.1136689
3645.82149391
607.474295043
605.271029251
3650.65501416
3646.95664009
3647.0224355
608.468625215
611.14450767
605.940782884
607.16027215
3645.21711416
3641.85964097
610.391010995
606.067417297
607.235029644
605.172223906
3644.17892425
3642.1290713
605.30603696
606.673963338
605.852608524
3640.44655898
3641.14203145
3639.41639145
606.803675418
605.151004857
606.726770851
605.559274927
606.823779772
605.920093514
-2.48091333268
-3.477245659
-3.0586515055
-23.3779223123
-23.3410173763
-23.3619048055
-23.3279663498
-23.314453796
-23.2998641093
-23.3141405935
-23.3042445419
-4.22237117608
-4.45029197842
-2.210627279
-4.04813147384
-2.7324002524
-23.3442283605
-23.3067462558
-23.3581977681
-23.3125519229
1.65033477111
-0.624729120211
0.95439670586
-23.2896117672
-23.2757965445
-23.2806886716
-23.2630506807
-2.88885462722
-2.6702479567
-23.3512381223
-23.3208862669
-23.3250398958
0.643103859044
-0.854204780803
0.654594129471
-23.2890330444
-23.2659296734
-23.303323834
-23.2741020657
1813.01383754
1815.09476524
608.95772518
609.865550652
1814.95333884
608.548641525
1812.95963646
1812.74795287
1813.89311904
609.220164358
607.257165098
1814.55967535
1812.19721247
607.879607928
1817.73951778
1815.39888296
610.877045138
611.550700557
1816.37004546
1816.71771451
612.021365932
1810.62989749
1812.99019132
606.616706452
606.882057872
1811.50888094
1811.89072286
605.745797198
1809.60559774
1809.52326747
606.128198562
604.641039563
1810.69380016
1808.52817999
605.035006988
1813.49474443
1814.21973719
610.376363916
608.136461575
1815.25625307
1812.88980255
608.298376738
1813.6728933
1814.71791302
612.066145622
611.592462165
1815.46150652
1813.28277162
609.157622154
1812.05725956
1810.25623459
607.261793428
607.354981684
1811.56013559
1810.67846933
607.429373724
1812.02828809
1809.54227428
610.04026879
608.169607624
1811.35779807
1810.40038724
608.118504529
1808.31352257
1812.78042092
612.863411376
612.257231662
1810.35417679
1811.30951715
608.276383566
1805.63263724
1802.90861001
612.191437994
608.594526917
1806.98769832
606.325636471
1802.65531679
1806.95297929
1808.20307473
610.50957537
608.767112412
1809.59229076
1806.04036394
607.083721802
1804.56053049
1801.93070773
607.519196167
608.057211748
1803.82517967
605.305775523
1802.02762056
1808.1634517
1809.03887733
606.583258179
605.13776543
1809.35307391
1807.88531831
605.507391435
1808.09625121
1808.40969083
607.316817651
607.335397921
1809.0763377
1807.41111445
606.458855997
1807.04605913
1805.69500833
606.687962789
605.491359791
1806.37681676
1805.97747765
605.97201412
1804.3725992
1807.2019718
607.794086993
607.203894029
1805.09426043
1805.9383217
605.677716813
1802.95517995
1801.72589097
607.303862689
606.218481797
1803.17802101
605.603811368
1801.14954603
1803.78819216
1804.99202916
606.672823671
606.796650792
1805.08411011
1803.18379823
605.803454852
1802.53725913
1801.12726316
606.158902559
606.088257839
1801.68497342
605.843821877
1800.94184996
1802.12009809
1804.32472189
606.725683371
605.783308383
1802.61692818
1802.6306335
606.067694628
1800.95300085
606.071687778
1801.31012375
17111.7012749
17113.3849063
17114.4201513
17113.6320781
17112.2233748
17110.9588876
12214.2844468
12216.2252024
12217.3329094
12215.9973697
12213.8785093
12212.3644161
18321.3696523
18328.7197621
17108.4463572
17112.2461186
17113.616526
17112.9238004
17111.7435488
17109.7081494
18324.1261198
18331.2322334
17111.6690153
17113.5312822
17113.8344964
17113.0297566
17111.876374
17109.7921307
17105.7587757
17108.5695719
17111.534554
17113.2755621
17113.6714658
17113.040219
17111.8933808
17109.9181832
17108.2962084
17110.2348797
17112.6338257
17114.0547026
17114.112912
17113.3283909
17111.9939356
17110.2721121
17114.3556473
17113.4850204
17112.1112423
17110.6362128
13420.3513767
13427.9826809
12209.2166137
12214.3575242
12216.1686591
12215.3609847
12213.4738109
12211.2744937
13424.908024
13431.0826525
12215.5316103
12216.873531
12216.6686396
12215.4992075
12213.6122379
12211.3710721
12207.5823574
12211.12211
12214.0052821
12215.6529295
12216.2262034
12215.4356499
12213.6589753
12211.329309
12210.4302329
12212.7465908
12215.4498924
12216.8883935
12216.9331675
12215.8491573
12213.8103903
12211.6091425
12217.1869382
12215.9591089
12213.8505089
12212.0302046
8520.34228532
8530.38964823
7314.68589973
7319.50288516
7320.52717271
7318.4378295
7314.72593326
7310.04534147
8525.2768376
8533.18743269
7317.3794144
7320.156747
7320.38028292
7318.39435387
7314.77026184
7309.97487409
7310.07972887
7314.13653656
7317.78185784
7319.70151785
7320.24104785
7318.60503755
7314.89434728
7309.46607251
7311.58308718
7312.95409113
7315.96459409
7319.30114897
7321.05623201
7321.0419835
7319.13614941
7315.03102797
7309.73407463
7317.62332448
7320.32739951
7321.6873171
7321.35594488
7319.06909668
7314.84825916
7310.75459689
7318.75741861
7314.55508719
7311.26269593
3625.05807643
3633.45428712
3642.4221338
3647.42263023
3649.7065179
3649.0847263
3642.92826694
3637.17440364
3624.28596738
3628.44399361
3636.79425564
3643.70744868
3647.77437826
3649.45781653
3648.65722785
3642.38270985
3637.07208294
3637.39127772
3633.09089632
3634.51962824
3640.25825593
3645.16332955
3648.08100422
3649.54193581
3648.91363827
3642.47266093
3636.46055209
3637.151037
3638.62907388
3642.49540842
3646.7453866
3649.19870839
3650.57098169
3650.05417709
3643.02449903
3636.08728729
3643.94620191
3647.91141688
3650.42835781
3651.78193795
3650.0335147
3642.27077711
3636.6315396
3648.71896019
3640.73712027
3636.81232324
9.73087444272
11.2420950378
12.3236868143
13.7723224314
13.23643441
15.4708840519
24.3757293139
33.7727709774
2.08236954183
4.26214650128
7.66205464352
10.2735843238
11.5915472312
12.8189904146
12.791953338
15.5367507293
24.7511871641
34.0900275613
1.59897989399
3.16652946335
5.75489111966
8.6095267115
10.5728857371
11.8876838951
12.5071178994
16.0959459634
25.1611900495
33.8990463982
2.95483926932
5.54109790309
8.77147630482
10.7611252827
12.6161486299
12.867201682
16.3016902385
25.2404811939
33.3643938126
9.92571130353
10.9659683156
11.6866569594
12.3310345547
17.1041197672
25.2155162363
31.5064925057
18.9751515494
25.0491885164
29.8083222201
-27.0100925258
-27.023498216
-27.0173824154
-27.0098612785
-27.0190224707
-27.0139862102
-26.9985232788
-27.0360132999
-27.120265712
-27.6897357119
-26.9972741578
-26.9954854926
-27.0082736274
-27.0123991601
-27.0183960454
-27.0186037022
-27.0114106869
-27.0446248659
-27.1453274507
-27.7190735765
-27.010327679
-26.9791266457
-26.9940903176
-27.0040195961
-26.9981406021
-26.9953041543
-26.9943008912
-27.039639678
-27.1441359565
-27.6618093944
-26.9747556854
-27.0096084072
-27.0068500517
-26.9990072132
-26.9852866899
-26.9868771859
-27.0331592485
-27.1556759684
-27.6488892269
-27.0169776731
-27.0030102163
-27.006314435
-27.0035236619
-27.0658288835
-27.2989957888
-27.6827015058
-27.0569238891
-27.2712355854
-27.6545233332
18324.65959
18322.1875604
18326.4831014
15870.977464
15874.220074
15871.8179922
15875.2232079
18331.3986871
18330.1021836
18332.736768
15878.2987544
15880.1989905
15879.147151
15882.2962418
18328.0696119
18326.3439974
18329.0040879
15874.3339586
15878.0562272
15876.6685391
15879.6462677
18333.1684902
18331.6703369
18333.6155879
15881.4068379
15883.3337252
15882.3700638
15884.6731024
13424.0980769
13421.7514254
13424.7669444
10969.5553354
10974.4008706
10971.4073231
10975.3173018
13430.7851302
13428.3334852
13432.5176049
10979.1755409
10980.7171949
10979.670799
10983.3427752
13427.7660455
13427.2625429
13430.3336399
10974.7077885
10977.7086969
10977.860154
10980.7482488
13433.8626332
13433.039154
13436.1139531
10981.5763694
10984.8008807
10983.9105069
10986.5753727
8525.4662556
8522.28573719
8526.66176346
6072.20023931
6076.83523466
6073.96983568
6077.97662968
8532.59773943
8531.25392903
8535.43341321
6081.704384
6085.24360613
6082.6850006
6087.92177055
8528.75727139
8528.784481
8531.86815811
6076.61976059
6080.66075596
6079.59206491
6083.61495494
8536.1783496
8535.50107161
8537.82577169
6084.89568475
6088.49594201
6087.18550149
6090.32911825
3620.9741419
3623.04746138
606.175376395
605.894539701
3628.98493262
3626.55673001
3630.47596836
607.981589717
613.197471101
607.639305833
613.108504337
3638.11102628
3634.78928025
3638.95014508
614.791149101
619.305087296
614.74211004
619.204326218
3645.50548316
3642.7816033
3645.79381728
620.680858546
624.162444888
620.474122288
623.833882958
3648.8944715
3647.43149648
3648.66925366
625.092182108
625.585382474
624.611372861
625.245955485
3649.90152125
3649.46365859
3649.6789503
625.445218213
627.285614304
625.203583324
627.05625619
3646.53265987
3648.81244174
3646.19725583
628.785641734
633.869089571
628.596854491
632.365931766
3639.38623187
3642.57617339
3639.31168253
633.563997883
631.793218513
632.04043973
632.262814748
3635.98691341
3637.15519225
3636.00001266
633.726066927
621.202397858
634.49953285
622.147042279
3637.36913854
3632.27622863
601.438355941
600.550482445
603.578390501
604.109247602
3624.87264037
3629.13591465
3628.66390217
600.11355173
605.842843875
604.224249503
607.361055064
3632.83827611
3631.22046762
3635.18914001
607.593397928
613.310136978
608.791393072
613.506189826
3640.38222829
3638.71939367
3641.88991583
614.816743471
619.219111635
615.037342184
619.163325911
3646.364213
3644.56944427
3646.59768854
620.441147957
623.670964792
620.374833823
622.979907177
3648.75110372
3647.91271968
3648.79869863
624.337762691
624.969355115
623.590402579
624.370563229
3649.60618304
3649.42365418
3649.58922303
625.062035697
627.038489053
624.65707484
627.154350318
3646.00222113
3648.64033686
3646.00523427
628.640667962
632.211725421
628.947776193
632.745606685
3639.22546545
3642.34052029
3639.06376846
631.828547492
632.325099752
632.286185587
632.256356377
3636.28578054
3636.78895444
3636.14545767
634.59526936
622.496574319
634.275477985
622.221481385
3634.8118348
3637.67811532
3636.24947864
603.895464108
605.045313158
605.788173336
606.389259722
3632.79700403
3635.63767572
3635.84077828
604.969349728
607.964762668
606.912004603
609.386558707
3637.28187907
3636.97652497
3639.01563652
609.16841322
613.657804866
610.623954289
614.625587071
3642.96105896
3641.49439058
3643.92294133
615.162546199
619.157629316
616.124580518
619.939261313
3646.94043319
3646.03730409
3647.64779585
620.369786172
622.86576209
620.979298895
623.466084254
3648.90187743
3648.51999689
3649.23910771
623.48767772
624.298821829
623.865513451
624.738870941
3649.7616331
3649.91004755
3650.1969392
624.652111551
627.3894639
625.139555159
627.914216048
3646.27391771
3649.45639671
3646.84004919
629.328781491
633.334223629
629.970527641
635.37762539
3638.86805272
3642.87579329
3638.92971225
632.816894583
632.008501677
634.788480225
631.12141442
3636.45833697
3636.17778221
3636.06310198
633.906191754
621.81907058
632.454784423
620.522227736
606.239271113
606.937246156
3637.71997148
3638.72815645
607.393592425
609.786881625
611.567734335
3640.35450723
3639.78679744
3641.33603879
611.053952537
615.059706704
612.759419201
616.739822144
3644.77889383
3643.28792062
3645.50334786
616.623365622
620.29092654
617.81694819
621.299794542
3648.23347937
3647.32587077
3648.80686467
621.244227043
623.864328189
622.152474307
624.47271028
3649.95333506
3649.90619512
3650.74550949
624.291333301
625.134736357
624.926648346
625.869164076
3650.8452881
3651.29950413
3651.43961838
625.548865021
628.36398303
626.174325919
629.511979127
3647.25861675
3650.31822738
3647.19095193
630.50858137
635.979754311
631.801098472
635.231356445
3638.81940803
3642.80282109
3638.68506669
635.181757638
630.712370423
633.665402824
630.105511271
3636.63339708
3636.29232987
3636.60511825
632.017322005
620.337437453
631.833270903
621.091596058
3646.11606866
3647.03085332
618.211000322
621.421405026
621.387169326
3649.33697304
3648.6973367
3649.98605453
622.294575187
624.409694418
622.218032097
624.381926778
3651.30900303
3651.0683503
3651.86435219
624.805996496
625.892741119
624.910188418
626.44892038
3651.64064168
3652.14200421
3651.52799182
626.294506749
630.046731984
627.20459654
631.257675919
3646.67762686
3649.3985467
3645.70792959
632.305883232
634.282820624
632.648162948
631.315702941
3638.42982324
3641.42733955
3638.24257719
632.503951337
630.055792202
629.816427507
629.997569993
3637.4499111
3636.86428428
3637.94445464
631.996020943
621.112183126
632.019724197
621.142296019
3651.08083003
631.334917292
3644.85029767
632.454114485
630.921904688
3637.9194734
629.507018949
629.582915053
3638.1535155
631.538640098
620.413767536
-23.2876413649
-23.2660043017
-23.2734665225
-23.2464238279
8.31008837833
7.30665126268
-23.2315956035
-23.2553927057
-23.244120522
-23.2563974383
10.5219217795
8.80090233827
9.89351284116
-23.2574072009
-23.2688764247
-23.2547438738
-23.2650615303
11.7762536276
10.7765373814
11.4290506319
-23.2763509522
-23.2811724248
-23.2745421261
-23.2764808094
13.1582038311
12.1031173353
12.8166996287
-23.2772364787
-23.2790122801
-23.2745457556
-23.2728902999
13.4823935213
13.3216724943
13.1660453695
-23.2823622477
-23.262023121
-23.2721916709
-23.257994376
13.6351105961
13.0396136699
13.5244750493
-23.2319656073
-23.1978564921
-23.2327392963
-23.2045944082
19.5100754
15.4196805414
19.4474462764
-23.1697506244
-23.1519152145
-23.1821659821
-23.1533726192
29.7514452148
24.4738864746
29.9165968167
-23.1019176125
-23.1304956118
-23.0932074162
-23.1203768019
36.0882852422
33.9823310806
36.5658723562
-23.2590250958
-23.2592520166
-23.2611940974
-23.2622850248
2.86091572039
1.89085705805
2.66217219377
-23.2605920153
-23.2474003382
-23.2559808379
-23.2466691542
5.92178925431
3.77888607046
5.03576133639
-23.254809799
-23.2488243034
-23.2507735036
-23.2510176673
9.27617339721
6.68806093679
8.21644625761
-23.2502978301
-23.2677355793
-23.2558480687
-23.2691901672
10.9921032402
9.41322017721
10.2050494106
-23.2731114459
-23.2764947284
-23.2730723632
-23.2740966044
12.3719979793
11.0214954313
11.7421697219
-23.2715620236
-23.2689936908
-23.2700386838
-23.26724615
12.8108933871
12.1398575087
12.3024525978
-23.2641425324
-23.2470900591
-23.259835112
-23.2433269579
13.4445391669
12.5811107093
13.4597128843
-23.2255620466
-23.2000705582
-23.2241087872
-23.20097486
19.6669521956
15.8061408943
20.0409210252
-23.1740790268
-23.144246609
-23.1742226054
-23.1439242435
30.128929787
24.9874169165
30.2069385644
-23.0871329784
-23.1120824395
-23.0875829378
-23.1136007019
36.7074733508
34.0361774969
36.5144541632
-23.2570050178
-23.2599573572
-23.2590652175
-23.2652949012
2.42799680513
1.56755350895
2.02428902353
-23.2540853647
-23.2522559196
-23.2561006211
-23.2510029146
4.34608655932
2.74451460722
3.77672677436
-23.2513283041
-23.2524523043
-23.2519724661
-23.2502048106
7.29728836822
5.29539539887
6.8739742315
-23.2559304639
-23.2667958225
-23.2567654993
-23.2688282677
9.62542486966
8.25220614547
9.52212637452
-23.27174008
-23.2752233732
-23.2767665938
-23.2916571984
11.2999790956
10.3969125296
11.4642372326
-23.2726720158
-23.2663238261
-23.2764563956
-23.2641252037
12.2016678961
12.4147868076
12.7796655329
-23.2574660929
-23.2408755215
-23.2541579303
-23.2418670286
13.5243695139
12.9757290657
13.8633285348
-23.2253136801
-23.205324418
-23.2291547639
-23.2030820837
20.4437509566
16.3450404117
20.7048194358
-23.1761986646
-23.1477623069
-23.1715032204
-23.1443191638
30.1256785403
25.2089181418
29.9539680665
-23.0751648135
-23.0965398581
-23.0860285305
-23.1007900477
36.215207399
33.7301136682
35.8932044582
-23.2330406164
-23.2411930643
-23.2299006301
-23.2449439815
3.88669449107
4.83060569866
-23.2498367932
-23.261006809
-23.249425716
7.19774900062
6.54883217445
8.21963338798
-23.2600598422
-23.2708490766
-23.2612570555
-23.272802425
9.91712880971
9.51134590776
10.379777242
-23.2774729178
-23.2801206441
-23.2740556569
-23.2736256641
11.85303246
11.0936820852
11.7243931007
-23.2677853474
-23.2616539204
-23.268639947
-23.2613060221
12.7396174912
12.0833488869
12.3028430711
-23.254193454
-23.240677162
-23.2514939255
-23.2410456809
13.7420563766
12.6443004671
13.7599360184
-23.2275280277
-23.197622692
-23.2258267985
-23.1970573056
20.8408147684
16.55040314
21.0187040627
-23.1670043153
-23.1468877394
-23.1621717405
-23.1335419888
29.7381817469
25.2121698824
29.392121449
-23.0902000487
-23.1029218684
-23.0946269465
-23.1174148061
35.406566276
32.5812371184
34.4063693138
-23.2258247318
-23.2435839094
-23.2391963391
-23.260726782
10.3872154438
9.82450535727
-23.2819252823
-23.2794547122
-23.2935705937
-23.283848776
11.4443542642
10.3212513477
10.8506803347
-23.2751450033
-23.2692839509
-23.2823435548
-23.2727643302
11.8828123501
11.2552089959
11.5958766596
-23.2599752153
-23.2499544079
-23.263125326
-23.2481571199
13.8597680634
12.4179833279
14.5557795107
-23.2289754454
-23.1921791675
-23.2206082517
-23.1842526354
21.3265058918
18.0645730618
21.863967158
-23.1485927702
-23.1233846877
-23.1372310358
-23.1136745195
28.8913198084
25.1595908696
28.2885984676
-23.1252248111
-23.1700756228
-23.1302796137
-23.1846447282
32.9580519403
30.4860159208
31.4722241104
-23.2822067238
-23.3028463488
-23.2962253019
-23.314763174
15.7333816805
-23.166204939
22.1289136207
-23.1188739384
-23.1008078489
-23.1178944702
-23.1008167848
27.8964631923
-23.1329951504
-23.1920520663
-23.1276725849
-23.1833236778
30.3701547635
-23.3079270299
-23.3149024271
-23.296828038
-23.3028398839
1783.39095695
1785.40508012
604.349134983
606.469012742
1786.0263797
602.87331677
1783.06902146
1784.32052435
1788.27494792
606.232182395
604.819503742
1786.76278114
1786.55135874
602.881998665
1790.48214263
1787.74517616
610.119238871
608.576113089
1788.50039239
609.925814945
1790.18709744
1792.55330649
1794.63105999
611.813255603
612.9554146
1794.78994111
611.378117335
1792.50156018
1791.05048062
1790.19496959
608.41452109
609.740355844
1789.16913944
1792.17726946
609.729124161
1793.13552502
1796.22695679
612.962964531
611.559623182
1795.36369068
1794.20888117
611.305150164
1799.5462735
1797.01862588
616.277341252
614.542018541
1797.14791964
616.113861613
1799.45097974
1801.73167222
1804.16534755
617.745881669
619.209686178
1804.20898763
617.571303677
1801.72713188
1799.95015282
1798.41348135
614.609555038
616.31661626
1797.64690379
1800.69125182
616.178117423
1802.23468239
1804.93922088
619.213878355
617.815003484
1804.56405671
1802.84929418
617.636162719
1808.28273965
1806.28785781
621.999479623
620.816749597
1806.31962409
622.161753688
1808.29604571
1809.70204588
1810.92448375
623.205474658
624.209126622
1810.81079608
623.303671532
1809.74146577
1808.43592611
1806.76986165
620.719993275
621.810896071
1806.59863933
1808.52975084
621.990638078
1809.8526022
1811.04974251
624.045146105
622.98825309
1810.96612887
1809.93964188
623.110420634
1812.46862222
1811.83180007
625.605406108
625.030491497
1811.69067908
625.438144113
1812.60980935
1813.09664365
1813.55003186
625.660375019
625.590185272
1813.59620912
625.47000383
1813.1894415
1812.46566643
1811.76061718
624.788923571
625.007799713
1811.73286761
1812.36639842
625.202614923
1813.06628334
1813.40291967
625.43811767
625.127219798
1813.57180222
1812.88652461
625.264249892
1814.40891458
1813.92007428
625.897449541
625.746179502
1814.05750369
625.902436336
1814.39551081
1814.78469243
1815.39194656
626.485267082
627.195303159
1815.21370008
626.304599859
1814.91688401
1814.29926375
1813.79279899
625.523717426
625.547965424
1813.97047569
1814.19396212
625.736709378
1814.69493357
1815.11257139
627.115493229
626.092931504
1815.15468611
1814.65154099
626.148122109
1815.29295913
1815.77102252
630.723340221
628.593061343
1815.5688995
630.504415605
1815.56705147
1813.78134799
1811.46782117
632.895991707
633.275520103
1810.92916153
632.548823695
1814.21145348
1814.99724528
1815.32267768
628.577209713
630.353528394
1815.43353972
1814.71268237
630.374562114
1813.3114505
1809.84198145
632.692139377
631.887275939
1810.32389775
1812.84248452
632.195569168
1802.41280033
1807.39503831
632.469953757
632.83709919
1806.90011324
632.041220137
1802.6692016
1798.95470814
1795.92400891
631.316422672
631.973483191
1796.42335881
631.571097834
1798.84515627
1802.12197115
1805.99257296
632.21148002
631.379287162
1806.37758433
1801.80404527
631.718240137
1798.93835308
1796.89821465
632.131320696
631.147485277
1796.80207121
1798.74339507
631.512957856
1793.12907649
1794.61438064
636.470411184
633.821613661
1794.94658093
636.585968733
1792.87793337
1789.80226744
1791.41434722
640.104114311
621.516552614
640.489634401
1791.35488554
1789.35284967
1793.4953085
1795.67570892
634.024526873
637.391543409
1795.35238156
1793.91488702
636.936485561
1790.67784705
1791.00657931
621.997107979
641.422196445
1791.33003779
640.788113727
1791.14590692
1795.82832504
1798.79438635
603.561120306
607.05196471
1794.01754086
602.741161116
1799.53892205
1792.15592829
1788.17561378
603.402111883
602.43168009
1790.71861626
1790.31905944
600.763749659
1796.73559576
1799.75930983
606.920868735
604.757935484
1797.34996555
603.363157784
1799.44877164
1793.90033365
1794.62923969
603.508231342
604.899462176
1792.60376617
1795.84704724
601.649021289
1789.09146887
1786.33573352
602.728062405
603.400927595
1786.65115186
1789.37848938
603.244961699
1789.68136708
1789.56718046
604.935138552
606.394543695
1788.21828662
1791.11316885
604.181049596
1791.40845835
1793.63446823
604.667770911
605.603367184
1791.86205364
1793.51447424
604.415395118
1791.61598026
1794.68203149
606.912365312
606.615740722
1792.79401163
1793.89204726
605.062097913
1794.51138196
1791.24057017
609.668203013
608.193101904
1793.15511589
1792.83039603
609.782180159
1796.33718782
1797.19662387
611.704389735
613.425709417
1795.20655395
1798.31401898
611.642853287
1795.85160248
1795.84138956
608.598011381
610.378114609
1794.32466586
1797.30040253
610.094090228
1797.56194523
1800.56560847
613.443164731
611.967249991
1799.3883656
1798.92355686
611.750258486
1802.27316237
1799.28572627
616.38056912
614.981288391
1801.4354073
1800.32261057
616.44708719
1804.12340324
1805.42436817
617.848968184
619.159542668
1803.44876057
1805.97836234
617.779228178
1803.15988601
1802.26339261
615.011515096
616.49931942
1801.29364644
1803.98239216
616.467354891
1804.94108355
1807.26165322
619.118096362
617.799685836
1806.61820933
1805.65740426
617.811397775
1809.1678826
1807.16989735
621.692478777
620.389691902
1808.81738824
1807.60675945
621.567068314
1810.45067045
1811.18604458
622.823095605
623.450436553
1810.17657705
1811.32305769
622.65919283
1809.49543907
1808.58922678
620.334467068
621.346339771
1808.08687292
1809.75251704
621.422353043
1810.65628487
1811.55355337
623.15892309
622.165893366
1811.4785337
1810.74432356
622.412485538
1812.38950978
1811.86107529
624.696900707
624.005298058
1812.38076524
1811.90035402
624.413785863
1812.85845749
1813.34585104
624.827171832
624.90890989
1812.86040317
1813.2657559
624.640076181
1812.44372398
1812.12390507
623.647692274
623.972988401
1811.99865315
1812.57409756
624.033489707
1812.85953783
1813.32288375
624.491691745
624.170984036
1813.25066164
1812.93375641
624.254637414
1814.10269819
1813.7673416
625.41070577
625.061327164
1814.17809087
1813.66923771
625.387299366
1814.56108511
1815.08188558
626.01060323
627.058597175
1814.61145492
1815.0308144
625.953831745
1814.11141987
1813.75864424
624.750184354
625.182815754
1813.66132575
1814.18013724
625.190496003
1814.57080766
1815.13645169
627.105162131
625.908138022
1815.05464819
1814.61518017
625.894205255
1814.52230421
1815.26885194
630.403198047
628.724591264
1814.58410776
1815.21213014
630.49332582
1812.4759836
1809.50191278
631.839636049
632.168979088
1812.55924973
1809.28411862
631.923975328
1814.54936193
1815.36142601
628.860638095
630.824429786
1815.22450882
1814.72402744
630.636673636
1812.5205745
1809.63771149
632.344446271
632.330766529
1809.30958159
1812.75236878
632.080953048
1801.43341278
1805.65123373
631.257477886
631.520582232
1801.56953352
1805.36950958
631.358326288
1798.71335873
1796.99039312
631.127931653
632.407841908
1798.66509087
1797.17156019
631.570823151
1801.424162
1805.689779
631.687284251
631.628162239
1805.39301631
1801.51317246
631.465849798
1798.65166565
1796.5912366
632.365778931
631.336143033
1797.0426081
1798.45740846
631.599385729
1794.11577107
1795.88064185
637.555435471
634.44700176
1794.23313106
1795.89562723
637.489398293
1791.52362355
1791.16792757
641.728305672
622.606543912
1791.62573854
641.889713942
1791.28027613
1793.87589264
1795.36234958
634.285865695
637.020855593
1795.73358491
1793.71396701
637.198178363
1791.36403831
1790.99872171
622.485073126
641.042367457
1791.16673988
641.438972061
1791.2013583
1799.15084823
1800.35526207
604.98912445
605.7185332
1798.28052504
605.004773347
1799.92534102
1798.05653414
1796.28240563
605.632141532
605.966369742
1797.13353706
1797.49187432
604.908199053
1799.61964467
1800.43393853
605.902866808
606.058892866
1799.75809061
605.459395855
1799.97696645
1798.82527364
1799.33916958
606.292298201
606.122446296
1798.50932779
1799.34664956
605.274668681
1797.13233272
1795.53323604
606.284380849
606.513789449
1795.50327906
1797.25795232
606.613407459
1797.35946401
1796.42141456
607.271158805
608.566974195
1795.82525401
1798.02193827
607.397925403
1798.47943524
1799.35340122
606.897975494
607.710470955
1798.46773424
1799.59419772
607.131984806
1798.75417807
1800.4883255
608.981694957
608.530021601
1799.3512676
1799.95343503
607.862572592
1800.04981953
1797.38745675
610.633394145
609.719974001
1798.72615458
1798.92635761
610.981116094
1801.31933736
1801.66091302
612.140169086
613.898274517
1800.14948228
1802.69749862
612.471674774
1801.15654764
1801.205831
610.158799821
611.785012855
1800.13674168
1802.07081331
611.396219694
1802.33790466
1804.36249812
614.217122088
613.046160626
1803.61834277
1803.10326619
612.835283149
1805.6518368
1803.24337609
616.587251862
615.269417419
1804.84887333
1804.13277209
616.773058893
1807.11426886
1807.77635687
617.877871167
619.312072525
1806.37181114
1808.27826582
618.220591717
1806.32931232
1805.67234505