/*--------------------------------*- C++ -*----------------------------------*\
| =========                 |                                                 |
| \\      /  F ield         | OpenFOAM: The Open Source CFD Toolbox           |
|  \\    /   O peration     | Version:  v1906                                 |
|   \\  /    A nd           | Web:      www.OpenFOAM.com                      |
|    \\/     M anipulation  |                                                 |
\*---------------------------------------------------------------------------*/
FoamFile
{
    version     2.0;
    format      ascii;
    class       volScalarField;
    location    "3";
    object      p_rgh;
}
// * * * * * * * * * * * * * * * * * * * * * * * * * * * * * * * * * * * * * //

dimensions      [1 -1 -2 0 0 0 0];


internalField   nonuniform List<scalar> 
28582
(
19561.7290051
19563.0499015
19562.4008116
19563.9601692
19563.8941344
19566.1393273
19564.2647492
19567.8792819
534.527638958
563.748652508
0.0109973525869
19566.3127132
18551.6253359
18615.0756633
19569.1007424
19569.1502991
18623.6140466
19570.9585507
19570.8204048
19559.2350974
19563.7859172
19563.6313402
19559.3630187
19564.7237046
19564.378606
19559.8278895
19567.0963345
19559.0085751
19570.0042689
574.754772635
-0.0416899830014
0.0308301508505
19560.5406408
19561.4444774
18494.9388571
18489.0951665
19560.4986478
19570.5428984
19569.9737277
19570.3131377
19571.4734393
18642.5126751
19571.2766125
19571.5540705
540.614713031
567.941132687
0.703160563464
0.698118852484
551.677162705
1.07969882536
19563.1751948
19564.9158441
18573.5124035
18586.4387033
19563.4593784
18605.6011699
19564.6437527
19566.2548908
19567.5560565
18601.1303279
18632.6082523
19567.4760698
18618.7296334
19566.2228413
19569.4889746
19568.6608489
18633.60411
18640.2260441
19568.5494684
18643.4322166
19569.712712
19571.0858735
18643.3637668
18648.0151032
19570.2728119
18639.8426248
18644.2990622
19570.4721616
19570.9879712
18641.809875
18629.8190622
19570.2212727
18633.920896
19570.6218328
18641.3221596
544.038135476
1.76179473604
515.14399268
545.763235482
1.10523098085
1.36154141564
583.925184285
1.57199027273
0.563268377924
606.631614333
2.972580081
587.539900349
0.930165733634
19557.9900993
19557.5402216
18492.2690457
18498.5988137
19558.2791372
19557.6023151
18471.7401449
19558.6324321
19560.041263
18493.1626142
18472.7129989
19559.0997847
19559.8420255
18458.7773339
18506.5082638
18520.0891217
19561.7595707
19559.3710841
18480.5347835
19560.476766
18466.4941283
19571.5732242
18642.9719138
18648.20049
19571.8119481
18646.8712719
19572.0402912
18646.1150814
19571.9957983
19572.5505279
18646.0264425
18626.2129906
19572.3461619
19572.06146
18637.8228727
19571.609938
19571.3425855
18639.1529951
18629.5182219
18624.1446354
19571.5329725
18631.6334961
18602.6290938
18569.5759324
19571.2079093
19571.5519188
18588.5755311
19571.3718799
18613.1041079
19566.3356684
19570.541692
608.211743566
0.112554478273
19563.4639986
18530.5864937
19570.0706589
19569.104109
18633.8507184
18537.5011312
18442.9710232
19566.9288113
19563.2137801
18404.7965782
18152.7506012
547.884378421
630.514848328
664.161703408
2.36312686651
4.34223390711
5.38381996975
710.757521727
761.361185285
19563.5972302
19563.0760497
18518.7193052
18555.2172126
19562.0312761
18545.1677663
19564.6731869
19571.695424
19572.6243665
18620.0096821
18612.8323132
19572.4962233
19571.9951546
18587.3244038
19570.5304123
19570.6035646
18559.6779672
18502.498137
19571.0155261
18528.8493062
19569.9359468
19570.014423
19569.0031198
18469.7929234
18472.0933984
19569.269513
18502.4779131
19569.416279
19565.5179314
19568.133422
18420.5173543
18367.6471955
19568.0161652
18347.8899662
19566.2517357
19561.6546619
19557.870936
18110.7005752
18284.9574338
19556.6333357
18238.4525072
19562.9167672
19568.652615
19562.8333172
19561.3436454
19558.3010832
303.350526052
375.89548181
301.163056371
354.016009132
367.91148632
0.0376910375333
0.0818901354084
0.0637975514215
0.0489548038689
0.0561758817463
0.0881606234195
19569.2721156
19568.4202667
18989.3713107
19027.6136372
19571.489881
19049.7561423
19566.6486445
19564.3487306
19020.9754599
18967.1317786
19569.21808
19565.5139596
19565.5651421
19039.4864713
19027.2433392
18976.2690243
18946.3326337
19563.7508671
19560.3234568
18893.2280022
18688.8508794
18841.5790028
18678.3766106
19562.6932025
19560.646743
18951.6602087
18931.0398196
18872.0626729
19558.9187692
19559.6643152
19557.9131172
18846.1874083
18688.3800021
18816.4962068
18684.9435326
18808.2175143
18673.457416
330.772865649
310.366742139
315.514476052
0.609913881588
1.48335844022
0.522963321402
1.37366809818
2.68531170005
2.95794132584
2.4007641362
2.40701899633
296.656447017
293.943088291
330.255147082
299.466317817
321.730350509
0.439898315392
1.26192369092
0.318650652628
1.10853626004
401.909109306
359.969250411
389.844621214
2.1003498747
1.8724292482
1.8950182358
1.7306784689
319.708021201
323.362851333
0.201977794806
0.913682633738
0.805293451263
384.376574298
356.685286679
384.043734132
1.75825792412
1.90673301869
1.57011589644
2.1169079114
19568.1467205
19570.2848439
18941.781979
18988.5996435
19570.1488348
18961.2093259
19567.9402314
19568.0327033
19569.2744004
19007.7981901
18989.8943429
19569.9087684
19567.4621244
18978.5702072
19573.0601526
19570.9287053
19052.47404
19077.8252186
19571.9457008
19572.0040402
19094.5202734
19565.9348444
19568.3121215
18992.0280008
18998.9789158
19566.7293074
19567.2387442
18978.917922
19564.9165353
19564.9028426
18979.0906096
18950.0399864
19566.0806699
19563.8268856
18961.8110007
19568.6934507
19569.6002598
19060.632217
19031.2450193
19570.4549593
19568.2970902
19039.2662275
19568.8686383
19569.8588441
19065.647744
18965.8872248
19570.6176851
19568.4322287
19008.602606
19567.291846
19565.6384153
19009.0595777
18990.8013293
19567.1077227
19565.8771756
19019.4745584
19567.2269943
19564.6308634
18938.673084
18979.8464392
19566.4555182
19565.5621229
18991.318002
19562.9628293
19567.7718944
18813.9572464
18924.441144
19565.1332847
19566.3390754
18837.5755714
19559.8702004
19557.569858
18787.0361757
18593.2125503
19561.7059499
18652.5681869
19556.7385687
19561.784707
19563.1069444
18894.760937
18755.2182977
19564.6365544
19560.5643894
18826.3538267
19559.0395468
19556.1900027
18588.5262168
18721.9127222
19558.2479388
18657.0745381
19556.1084605
19563.4596457
19564.3419736
18968.7179958
18934.4685476
19564.5517802
19563.2313255
18940.1797229
19563.2949575
19563.5477959
18957.4162316
18886.2137386
19564.225318
19562.5166696
18928.7055612
19562.2784836
19560.8242753
18866.9618092
18881.4759369
19561.5317044
19561.1669328
18908.4730116
19559.1356178
19562.2159882
18742.8696002
18829.2692057
19559.6602937
19560.9510201
18793.2083151
19557.4321177
19556.2546963
18712.7574639
18609.0029827
19557.6094036
18686.7219992
19555.3455267
19558.7265826
19560.0565156
18811.8225198
18722.5439273
19560.0972313
19557.9327618
18790.2853597
19557.203486
19555.7321334
18610.6721694
18674.8860755
19556.3004845
18702.5064694
19555.3347907
19556.7142799
19559.388207
18703.0747804
18721.8953159
19557.1681658
19557.3226829
18730.7194521
19555.5969786
18653.8849613
19555.783176
19560.6987166
19562.3834255
19563.4190407
19562.6325525
19561.2231659
19559.9578835
19561.2774933
19563.221473
19564.33033
19563.0050235
19560.8835856
19559.3697217
19545.8211002
19553.2025815
19557.332696
19561.2223911
19562.6085074
19561.9187627
19560.7408729
19558.7071083
19548.62322
19555.7284415
19560.6198065
19562.4885885
19562.8189125
19562.0218869
19560.8705485
19558.7887545
19554.7447618
19557.5599278
19560.5275255
19562.2697214
19562.6664318
19562.035846
19560.8896908
19558.9157743
19557.2900541
19559.2304301
19561.6299714
19563.0514099
19563.1102906
19562.3257932
19560.9913646
19559.2701356
19563.3542749
19562.4835947
19561.1097429
19559.6358156
19541.9953723
19548.9758986
19556.1022629
19561.3342125
19563.1633885
19562.3630631
19560.4788578
19558.2925409
19546.4087636
19553.026983
19562.4212531
19563.846572
19563.6508657
19562.4872432
19560.6047637
19558.3689262
19554.4350292
19558.0810236
19560.9854189
19562.6392734
19563.2150635
19562.4263667
19560.6523812
19558.3282669
19557.414679
19559.7333412
19562.4371844
19563.8767402
19563.9227592
19562.8398376
19560.8033808
19558.6069326
19564.1840397
19562.9559022
19560.8479796
19559.0329697
19535.3514093
19549.6965009
19559.6389447
19564.5009787
19565.5384052
19563.4519308
19559.7396061
19555.0769881
19542.8515714
19552.9942642
19562.3607695
19565.1474816
19565.3707403
19563.3845888
19559.7600674
19554.9792434
19554.9463027
19559.0797386
19562.7520932
19564.6796714
19565.2224668
19563.5904818
19559.8866944
19554.4676711
19556.5453943
19557.9311752
19560.9400619
19564.2746208
19566.0303134
19566.0190442
19564.1192704
19560.0221962
19554.73382
19562.6064263
19565.3145781
19566.675759
19566.3461745
19564.061556
19559.8425813
19555.7537782
19563.7677013
19559.5679049
19556.2840967
19540.4898762
19551.7873768
19560.8761463
19566.0088937
19568.3872157
19567.7915573
19561.6265701
19555.8327649
19542.734918
19546.9402668
19555.2924415
19562.2795196
19566.3849314
19568.077831
19567.2782649
19560.9512736
19555.7255885
19555.8408748
19551.5585273
19553.0313371
19558.793474
19563.7028685
19566.6195351
19568.0879651
19567.4723199
19561.0044189
19554.9818807
19555.7016616
19557.1986504
19561.0222172
19565.2431604
19567.6913496
19569.0790871
19568.5941891
19561.5662209
19554.6165968
19562.4898274
19566.4271169
19568.9313144
19570.2900394
19568.5668691
19560.7910643
19555.1589285
19567.2695244
19559.2512659
19555.3318693
551.75360177
578.737609302
596.764900892
625.4345408
611.298852667
648.628931693
802.815572397
963.898477563
409.982557841
451.021732772
513.315329677
560.778174375
583.425138844
607.3813449
604.31093423
650.081338738
807.727798229
967.425682269
401.100432036
430.311015353
477.443918945
529.872077863
565.280625646
587.845988556
597.61753833
659.748993851
815.491617198
967.103634341
424.908278655
473.486556819
533.458420911
565.995033282
600.562995367
604.005691043
661.766849235
817.544343946
959.356948295
554.270256808
572.827621346
585.394056708
594.47086095
674.937119309
816.189448795
925.687336425
707.697688953
813.950320647
894.20442748
0.00173185365151
-0.0450415878267
-0.0383733869727
-0.03174643123
-0.0415224707054
-0.0354313444222
-0.0210232787873
-0.0298261545986
0.0714091328327
1.34594772043
-0.010481808718
-0.017984440091
-0.030365044041
-0.0339560300843
-0.0408960454102
-0.0410697594464
-0.0339106868992
-0.0440914655306
0.19790022423
1.39760809373
0.0286406900465
0.00127391763834
-0.0165166404688
-0.0219358864742
0.00582294330301
0.00160655222633
-0.0138472037445
-0.00901305883051
0.00928295434426
0.934468929854
0.00680534327385
-0.0245153597321
-0.0105456108981
0.0152673707422
0.00829593771784
-0.00445975179473
0.01335371069
-0.0220906832795
0.795773647528
-0.0209391959237
-0.0250837542284
-0.0285014979664
-0.00850921389639
0.0332326754448
0.16005361617
0.927342608638
0.0776079400152
0.174547070469
1.08733430192
19549.1462728
19546.6786156
19550.9766716
19544.140882
19547.512386
19544.9425827
19548.5594289
19555.8412283
19554.597097
19557.2327034
19551.3018727
19553.1523742
19552.4805899
19555.5454513
19552.5668567
19550.8404599
19553.501607
19547.7919835
19551.5206211
19550.1411304
19553.1356552
19557.6645633
19556.1674692
19558.1099818
19554.8815518
19556.8000063
19555.8604769
19558.159086
19544.9391601
19542.4471344
19545.6909846
19537.1704103
19542.8711794
19538.7604307
19543.7577378
19552.6624426
19549.4966773
19554.3745231
19549.3433378
19551.7732217
19549.574628
19554.2546641
19549.6981295
19549.6575191
19552.7257327
19543.0235983
19546.463299
19548.6547929
19551.7092658
19555.8593094
19555.436859
19558.527681
19551.7826604
19555.9150764
19555.1123907
19557.933249
19542.370661
19538.8800773
19544.6844333
19536.549168
19544.6076926
19540.0508866
19546.0128268
19552.8263836
19550.5739897
19555.5624086
19550.7596108
19554.6447231
19551.8897876
19557.3775444
19547.2656807
19548.6179464
19551.8242376
19545.0092174
19549.6221255
19549.0415786
19553.0517923
19556.5801207
19555.7719561
19558.2791296
19554.2915003
19557.9672167
19556.6314062
19559.7951043
19537.0233667
19540.7306367
18147.906318
18245.2223608
19546.1872928
19544.0685137
19548.426794
18164.6946127
18261.1656985
18248.5478689
18310.8129424
19556.5650388
19553.1977782
19557.41327
18292.6557568
18391.7385945
18335.7879163
18421.1565724
19564.0148989
19561.3214356
19564.4201507
18424.0928255
18467.1261008
18440.854125
18486.6286014
19567.5373325
19566.092697
19567.329574
18473.369659
18501.322116
18491.8608439
18512.3418836
19568.6077822
19568.1238506
19568.3249025
18504.7922929
18535.916555
18519.0260427
18534.9467805
19565.2317018
19567.4581222
19564.8070652
18525.1480862
18347.1361598
18528.3707158
18294.6810919
19558.061738
19561.1806846
19557.9432041
18189.7047153
17599.1716414
18126.0771141
17596.5876889
19554.6494709
19555.8892499
19554.8104503
17583.2588178
17356.6333737
17591.5432658
17280.9670781
19555.7623841
19550.672585
18444.9167153
18406.1728679
18524.2568251
18498.0963566
19543.4047629
19547.5989873
19547.0989661
18263.1038554
18289.3551545
18442.3848756
18430.9192692
19551.3464792
19549.6674675
19553.6386148
18288.48949
18331.8826974
18422.7713746
18431.5034924
19558.9162239
19557.2015596
19560.3874239
18352.4927465
18435.5254721
18442.3624832
18500.6265902
19564.9697241
19563.1031018
19565.1523472
18455.720797
18494.1150647
18510.177427
18525.2760592
19567.3724231
19566.4784373
19567.3667015
18499.4732398
18516.0314195
18531.3057003
18533.7597109
19568.2406756
19567.9995062
19568.1655477
18527.9763873
18535.4764082
18534.5542126
18526.7555791
19564.6164041
19567.2348377
19564.5877362
18528.9345334
18283.0636877
18514.7516545
18266.4188242
19557.8082953
19560.896435
19557.5840015
18111.1238494
17599.8579105
18100.7055103
17593.1190177
19555.0247605
19555.3679436
19554.7443711
17599.1563231
17278.1775708
17585.0711476
17273.0318724
19553.2938152
19556.1693445
19554.7382089
18555.5853243
18527.8974864
18618.1047053
18603.6376556
19551.3028361
19554.1636721
19554.3823979
18487.5383479
18471.5269333
18590.6130379
18571.3649914
19555.8191343
19555.5555714
19557.5991689
18464.4889255
18466.2928567
18559.1300418
18535.8188497
19561.5079046
19560.0776748
19562.4947397
18475.222959
18515.1371468
18540.899411
18544.7320077
19565.4820948
19564.5973905
19566.1959089
18525.5622458
18534.4523032
18559.1662951
18542.6122163
19567.444391
19567.0543443
19567.770447
18539.6351715
18544.709909
18521.3313683
18515.5984671
19568.3243232
19568.4484551
19568.742249
18545.2339781
18537.2802839
18524.274182
18528.8502588
19564.8266423
19568.0372523
19565.4131993
18524.8521152
18275.7282131
18521.9148011
18330.2947141
19557.3994808
19561.4341334
19557.4545432
18110.4239212
17579.1439329
18175.4611519
17573.6629293
19555.0324723
19554.7527144
19554.6727534
17566.4748651
17283.2081907
17528.5683087
17239.727206
18621.2643557
18605.1257863
19556.3025442
19557.3071464
18597.6829886
18582.0027535
18543.900376
19558.9065138
19558.3801446
19559.9096654
18568.8571357
18533.7879943
18525.1075336
18496.164069
19563.2862634
19561.8425713
19564.0420209
18536.9494827
18544.2692896
18497.4587244
18543.0147593
19566.7172457
19565.8572461
19567.3316668
18554.3186475
18542.4874619
18549.7082739
18578.5415746
19568.4432159
19568.4247463
19569.2611916
18527.4696338
18533.7927997
18582.3230193
18592.3981127
19569.3802732
19569.8275725
19569.9722043
18543.8860263
18553.2386297
18591.9035733
18589.8684711
19565.8093667
19568.8914762
19565.7683948
18548.1239208
18349.637939
18579.4853942
18307.7882543
19557.3576394
19561.3661809
19557.2034061
18186.7392486
17562.3443244
18124.5858299
17564.6424667
19555.2181711
19554.8799881
19555.2226332
17520.6626569
17253.0552685
17574.8722903
17381.927225
19564.640541
19565.5817653
18491.6881162
18547.8754609
18600.2080266
19567.8437201
19567.2486855
19568.534212
18556.0282766
18582.4414858
18609.7512033
18629.34333
19569.8161719
19569.6156695
19570.4108564
18586.7039129
18605.319176
18632.5280479
18642.9940515
19570.1772265
19570.7001849
19570.0857404
18607.1619684
18604.8365699
18640.5500608
18579.7533769
19565.2179361
19567.9708326
19564.2559574
18584.1337098
18265.0692315
18513.571216
18117.8732142
19556.9605746
19559.9556382
19556.7373511
18083.6622118
17607.4886524
17971.0788794
17682.2797511
19556.0337977
19555.4384435
19556.5392358
17627.0860454
17417.7265928
17704.5869827
17548.7101987
19569.6319626
18544.3374606
19563.3954357
18473.7173896
18100.0755278
19556.4584921
17960.3249053
17685.9651599
19556.7134552
17709.2450129
17566.8655747
2.20864002558
0.401403897878
1.36011127081
0.126445235731
529.024795738
509.244145787
0.0850353610105
0.0521828155949
0.0626675707126
0.0501877566267
565.756606653
533.976089011
553.682830105
0.073578523182
0.0677519562857
0.0792908596482
0.144950286831
587.271954682
569.568426733
580.766609075
0.0334924476352
0.0238082679574
0.139906260973
0.0989345635527
613.235250091
593.150449609
606.314759484
0.0674845973436
0.37433210824
0.112613258467
0.112178172065
617.733450826
616.532927714
612.175570366
0.626922926753
0.343118611235
0.109408134078
0.0876921636004
617.10042092
608.540483349
615.694819509
0.336061820716
0.472562971678
0.119986109187
0.199845215645
720.349566768
647.811492307
718.59772119
0.733445476258
3.10759443304
0.687967284139
3.57686290276
898.631427479
803.420793525
899.948439335
6.46824100936
10.3548899174
7.58864486526
11.2974938133
995.271184653
966.360994026
1004.55492134
18.3735755506
25.8715985275
18.9224210604
26.057162834
425.552429002
408.224740339
421.414188029
0.749175616517
0.115827156055
0.845250358589
0.301457036662
481.213341346
442.801961832
464.884242309
0.0613422522128
0.0616377454102
0.107909635516
0.055020125041
543.854777397
495.915554369
523.594037801
0.0723599902728
0.107272994973
0.0571889577697
0.0441977450644
573.383799479
545.260561685
558.573378447
0.135777779852
0.139443517955
0.109664197671
0.155831254784
598.534755025
573.721733272
587.106236581
0.140203720341
0.144149135907
0.275304680819
0.212469360941
606.292555426
594.164757666
596.015737674
0.0897126407634
0.0833932675812
0.196813878253
0.101849549171
614.571842484
600.537756064
615.220766645
0.0797855853603
0.161094078733
0.123947325716
0.213931872573
722.350406272
655.099344986
728.935429788
0.722692933175
3.96885831428
1.25128432328
4.63104404498
902.86568463
811.820157853
904.242787944
8.52862472075
12.4628430284
8.84217232486
12.7273321395
1007.66874162
966.266408521
1003.8346759
19.4890786008
25.8339767538
19.6825848769
25.3927904184
418.018566907
400.712370411
407.528335216
1.3402275667
0.663122815917
1.84829419729
0.946631521939
452.319444863
421.621586127
440.510492899
0.177276500488
0.0573296336954
0.211196368261
0.0609314193341
505.936589156
468.797049615
497.751571298
0.0433344760609
0.0328651009708
0.0450320109261
0.0307822420123
548.083614932
522.993122208
547.202300049
0.0308328609852
0.114209309904
0.0281097307243
0.946267080609
577.435998143
559.608111442
578.731948047
0.412565076787
0.876191172467
2.18472878249
2.96453355747
592.482552593
596.804193598
603.393819799
0.749385954858
0.537075255062
2.87428410018
2.0860558853
614.856521741
606.489333597
621.0933972
0.342257390558
0.479105016889
1.4235718858
1.23992380945
736.210902165
663.594686576
740.722562959
1.64587505583
4.89574466775
2.27417138972
5.00261135929
903.249718042
816.573972495
899.775303958
8.24165348087
11.6492818163
8.06552686739
11.4401817474
1003.17477854
964.465588098
997.554674242
17.7629552632
22.5433741922
17.4700535774
22.1894394889
440.803480983
459.28483794
0.247303038754
0.0498114647846
0.374626629962
503.953651104
492.791709173
523.489610493
0.0420581467314
0.047925721593
0.436779605271
0.762837498499
552.681035189
546.480531417
561.07371714
0.636409006575
1.75521814877
1.14283106377
1.26345111042
585.952912663
573.16539562
584.089851585
2.45237554043
2.82241196502
1.44773699948
1.37304360494
601.936675301
590.276795013
594.448032354
2.42660445048
1.6949382697
1.21170958366
1.00951536304
617.801064325
600.095943826
617.903097884
0.947033767439
0.949210484455
0.94825871023
1.11069001517
743.071297522
665.259449506
745.177864284
1.91256159356
4.8588566083
2.48947694006
5.60762182971
896.149155752
816.730120782
890.615966137
7.94162409392
11.2827921
8.39861843042
11.2454836706
991.18247186
945.773524823
973.988071334
16.9163131857
21.2704113345
16.3483546213
20.4236322146
562.141702012
550.992064844
1.07860556037
0.513120115596
1.55067786578
0.784925557545
581.489459729
560.218878647
569.683118913
0.0897864410555
0.0560868775292
0.341185665302
0.271842902365
587.993545527
576.865202965
581.9263915
0.060696769319
0.113553346495
0.255258210683
0.239574613136
618.844578253
594.845101745
630.53722941
0.364041377325
1.17788609288
0.690261623802
2.69667365116
749.804382803
691.996814473
758.75496006
3.15220800913
6.26645089174
5.22252005681
7.54676845954
882.241896568
815.045540166
871.551119286
9.54074736261
12.3811130121
10.0549236954
12.1306938951
946.289844859
907.684395666
919.132138663
16.6440362645
20.2609409233
15.8537979435
19.1405660498
649.872588473
4.65426625677
762.964774709
6.24434388105
7.55363218079
6.1385503871
6.82449302845
865.319454598
9.6931061348
11.7120620433
8.39947598099
10.6097409137
895.743536093
16.3259249739
20.1723624467
15.6147837393
19.9304162046
19537.1901395
19539.1170074
18146.5197649
18178.4547091
19539.8962219
18132.8831651
19536.7740108
19538.373297
19542.6770181
18202.8024889
18256.2525764
19540.9662762
19540.9762492
18159.674725
19544.3070063
19541.3334705
18214.859664
18211.9217937
19542.3802582
18219.7429535
19543.7981285
19546.4224545
19548.6690709
18243.3850596
18277.0843854
19548.8224596
18242.1360645
19546.3453389
19545.2215998
19544.4219221
18236.5291001
18275.2584364
19543.4210933
19546.3732207
18243.4691163
19547.2812195
19550.3255564
18297.6710723
18296.4581103
19549.5663117
19548.3829013
18263.4397759
19553.9071797
19551.0730735
18332.1576677
18301.8288982
19551.4418224
18324.8291026
19553.4802239
19556.0538523
19557.9800533
18362.6508515
18400.2083564
19558.2885666
18357.9753507
19555.6598767
19554.1594164
19552.4881445
18322.2154823
18369.4658053
19551.8698724
19554.7909642
18344.2775579
19556.4012195
19559.2499961
18407.1841957
18397.7514082
19558.5788125
19557.0272822
18372.8391194
19560.6507439
19560.0120164
18451.8876256
18434.194882
19559.7262027
18453.2256146
19562.028244
19561.5042799
19564.763947
18463.0717134
18460.4158024
19562.6280437
18457.8265504
19563.5035558
19561.7525255
19561.1693897
18437.2788113
18460.5275767
19560.3202224
19563.0602078
18459.3522476
19563.1804921
19565.6098634
18475.8755215
18476.9322237
19564.2034486
19564.5626439
18469.9454353
19564.3231197
19565.7267794
18483.4774884
18465.8112855
19563.4920365
18478.9647553
19566.4274646
19565.4521144
19567.560122
18495.6520997
18518.1650847
19566.9810419
18495.5508603
19566.9906797
19565.807033
19566.2308781
18480.4686817
18496.9056247
19564.9592363
19566.7912471
18489.0611146
19566.6887694
19567.8654778
18521.3470463
18503.1375932
19567.6344476
19567.3321756
18502.7463131
19569.3361324
19568.4323805
18518.7944529
18532.4049324
19568.5603591
18534.8442492
19569.4143304
19569.7493666
19570.5906528
18534.3265365
18528.0138613
19570.1063468
18531.8249647
19570.1128885
19569.280655
19568.2753227
18529.251315
18531.2359351
19568.5448261
19568.7189605
18530.0179729
19569.8685726
19569.791461
18530.9113317
18535.6915801
19570.3504643
19569.3115174
18530.448722
19569.7801103
19570.9697288
18506.7397377
18523.4012072
19570.3036149
18510.9682539
19570.7205127
19567.9673472
19565.4605266
18446.8154236
18335.9232685
19564.350301
18449.2503397
19569.113749
19570.0115109
19569.9855804
18526.0659161
18503.2159881
19570.5984246
19569.2121091
18508.7047293
19567.9719706
19563.0922055
18313.7242457
18422.0927214
19563.8601971
19566.9807829
18437.7287573
19552.6998504
19560.2165195
17979.2672991
18162.6228504
19559.1434742
17958.255287
19553.5094936
19547.0507825
19542.6376761
17770.3544822
17610.0088828
19542.6727124
17775.2653152
19547.532124
19552.2120121
19557.9296756
18137.1704344
17930.9860448
19558.4970689
19551.714565
17943.6918754
19546.9940743
19543.0526511
17627.1554028
17749.7348614
19543.5769228
19546.5737574
17774.1638871
19536.982914
19539.9487131
17551.6314442
17562.2259039
19540.1428145
17535.9409179
19536.7255168
19531.7375566
19534.7526999
17360.6763613
17339.4346402
17407.1907171
19535.2609956
19530.8756029
19538.2490787
19541.872631
17575.5513094
17581.3747914
19541.2985096
19539.7662615
17547.5665278
19533.1638623
19535.8885155
17301.0279005
17455.9107742
19535.0141006
17434.2544067
19535.3655798
19549.7321608
19552.9449895
18393.2554877
18602.5378763
19547.8872983
18557.5112835
19553.6910544
19546.0802702
19542.4333951
18451.2913249
18356.9107999
19544.9454035
19544.0968897
18370.8343607
19550.9187235
19553.6319164
18606.9116913
18495.8251812
19551.0298551
18569.705555
19553.6209874
19547.5592646
19548.6602782
18408.4237641
18529.2646511
19546.4061219
19549.8998285
18416.3656339
19543.4052728
19540.5126007
18275.58398
18401.0849023
19540.9214116
19543.4755355
18361.0230363
19544.0006203
19544.1588321
18302.0345616
18337.5473093
19542.9754349
19545.4903784
18327.2228051
19545.4477031
19547.4609329
18443.2960703
18447.610395
19545.8947588
19547.3762367
18407.7679865
19545.6631094
19548.7056234
18382.7323194
18449.418731
19547.0194607
19547.9570362
18377.236251
19548.8643568
19545.7563542
18305.1491572
18341.3248327
19547.6347837
19547.2732158
18339.0459748
19550.6253057
19551.2823988
18320.4936237
18364.200119
19549.5439967
19552.6005156
18345.5121581
19550.1583143
19549.7814329
18383.2699924
18424.8504913
19548.6384656
19551.2509632
18379.1391565
19551.8337021
19554.5630849
18397.330091
18427.261804
19553.5984181
19552.903445
18383.7740872
19556.7382811
19553.1839008
18382.0048747
18383.7071096
19555.3104966
19554.6580638
18402.6053919
19558.6370897
19559.3901738
18409.0291997
18448.1851223
19557.3333903
19560.4527202
18423.4864151
19557.1800846
19556.3283213
18412.1718699
18458.0989864
19555.4125214
19558.2215489
18431.3286459
19558.9520667
19561.9977586
18471.4142918
18476.8980075
19560.6025043
19560.160758
18452.7503835
19563.3204707
19561.3073492
18472.1933768
18473.7343868
19563.0652184
19561.929869
18492.6614713
19564.5384264
19565.3347325
18484.2614558
18500.7428478
19564.3969613
19565.4059056
18498.4490179
19563.4942806
19563.4534487
18487.3211361
18511.8786631
19562.0606837
19564.6182335
18503.6870948
19564.7446872
19566.3455509
18514.1165579
18515.1942402
19565.6158595
19565.5909797
18511.2153501
19566.4885469
19565.8920129
18503.3692503
18503.9073805
19566.3682704
19565.9924473
18509.609922
19567.000318
19567.4106672
18508.3773086
18527.5221523
19566.8729443
19567.4987183
18517.4863687
19566.5604845
19566.8619873
18516.7024176
18533.2243881
19566.1329135
19567.2454667
18521.2572362
19566.9845429
19567.9815601
18531.3717002
18534.1759337
19567.3983868
19567.5970343
18525.7222967
19568.6679101
19567.956495
18536.2612633
18530.7873909
19568.6404724
19568.091912
18530.3029253
19569.2048216
19570.0420351
18537.565712
18529.5915086
19569.439164
19569.6872242
18530.8306178
19568.4115369
19568.4297955
18534.1250361
18535.119652
19567.8894166
19568.8862762
18533.9690897
19568.9244399
19569.8329509
18532.2334876
18533.5040514
19569.4626481
19569.3687587
18533.3791551
19568.8772534
19570.1916173
18503.081075
18523.9502197
19569.24953
19569.8146369
18497.471755
19566.3941123
19562.6515393
18415.6379416
18270.7966145
19566.7227886
19562.2198553
18410.7689281
19568.5929439
19569.9425005
18523.1780299
18483.3992694
19569.5571567
19568.9706055
18494.1610168
19566.091035
19562.3440299
18265.147343
18395.8133526
19561.8553954
19566.4596277
18404.1383527
19551.0312658
19557.3834164
17920.2121254
18086.5282521
19551.1303654
19556.9607709
17902.8203539
19546.1753547
19542.7027674
17745.7852246
17626.4522285
19545.9588496
19543.1047072
17752.9656074
19550.7401291
19557.1135666
18084.0176224
17913.2229481
19556.6052612
19551.0086702
17901.3266078
19545.9481098
19542.391941
17624.2437296
17739.9606755
19542.9891276
19545.8799947
17751.6836015
19538.5608755
19541.3667293
17590.9249708
17574.8065711
19539.2342011
19541.2323927
17561.6445687
19533.7845156
19535.1474583
17475.2210463
17283.0701317
19534.2916666
17473.7458812
19535.2342892
19538.347053
19540.6334798
17572.7103788
17574.4381585
19541.0563941
19538.3928995
17559.1341018
19533.8007073
19535.1406885
17291.7033366
17464.9231637
19533.770407
17472.4905
19535.3690516
19553.2344657
19554.5349075
18521.1882276
18613.6428974
19552.0015966
18607.6108904
19554.120336
19552.0441563
19550.3824206
18553.1974727
18543.7438897
19551.0812015
19551.5107914
18543.4389658
19554.1135534
19554.8989761
18616.0440809
18582.43812
19553.9938407
18622.4437367
19554.3244015
19553.2470721
19553.8585947
18570.3358564
18601.3194569
19552.9295408
19553.7250331
18573.2398248
19551.2158797
19549.4798017
18490.2922693
18549.1925391
19549.4974296
19551.3098879
18532.566959
19551.5178685
19550.7116696
18489.0730268
18512.9683371
19550.0998107
19552.2536033
18515.6368633
19553.0351118
19553.8652419
18575.2809694
18587.084983
19552.9730374
19554.107171
18565.2611012
19553.3381446
19555.0915834
18545.9339946
18583.2722566
19553.9734839
19554.5570148
18551.6182846
19554.3624395
19551.6549043
18464.571495
18507.3432558
19553.0582347
19553.225988
18499.2411018
19555.6242816
19556.0408171
18463.2720453
18498.5287159
19554.5182982
19556.9747857
18497.380663
19555.7476159
19555.7897515
18535.9169201
18543.6384147
19554.7607668
19556.6581577
18526.7531249
19556.8449115
19558.9742691
18525.3426124
18533.2686725
19558.0426406
19557.7003362
18526.0044505
19559.9621085
19557.6869773
18486.806582
18500.9481021
19559.4357135
19558.4134828
18511.7810327
19561.494602
19562.4661636
18497.9455985
18529.6919046
19561.0116313
19562.7050592
18526.0298752
19560.5926264
19560.3349989
18524.77258