/*--------------------------------*- C++ -*----------------------------------*\
| =========                 |                                                 |
| \\      /  F ield         | OpenFOAM: The Open Source CFD Toolbox           |
|  \\    /   O peration     | Version:  v1906                                 |
|   \\  /    A nd           | Web:      www.OpenFOAM.com                      |
|    \\/     M anipulation  |                                                 |
\*---------------------------------------------------------------------------*/
FoamFile
{
    version     2.0;
    format      ascii;
    class       surfaceScalarField;
    location    "3";
    object      phi;
}
// * * * * * * * * * * * * * * * * * * * * * * * * * * * * * * * * * * * * * //

dimensions      [0 3 -1 0 0 0 0];
oriented        oriented;


internalField   nonuniform List<scalar> 
92311
(
0.20106655422
3.42407764257e-05
0.000808450901996
-0.201411312505
-0.000497933429692
-3.32856405727e-05
0.200728706259
0.00112147695358
-0.000750443567429
0.20102093273
1.24429856065e-05
0.000855455990006
-0.201382007748
-0.000472668711126
-0.000103869039418
0.200640644265
0.00117076323587
-0.000719915439675
0.200856334603
-3.37758088915e-05
-3.54135175323e-05
0.000959481471262
-0.201291929974
-0.000503769249324
2.61523871291e-05
3.53146355692e-05
-8.46098814958e-05
-8.05080929133e-05
9.29534766252e-06
0.200380347442
0.00125257644936
-0.000731799981722
7.17095027965e-06
0.0502893687162
3.85614131256e-07
-1.3612651549e-05
-1.22412248287e-05
-6.83510934591e-06
0.00017512052516
-0.050336783022
-0.000129183359817
-0.0502409633204
0.0501534683042
-1.92310988333e-05
-1.9930139699e-05
-2.20349121582e-05
-1.70320125336e-05
0.000270503526765
-0.000189393640399
-3.52892560777e-05
0.0320273101588
-1.29738594281e-05
6.22160052255e-07
-2.27724095925e-06
-0.00830259634047
-0.0342144222106
0.00511337545151
0.00542623030677
0.0320299845783
0.00197693459986
0.00311947347059
-0.0307627523001
5.94245984292e-06
1.13216095875e-05
5.48539297718e-06
9.69550782098e-06
-0.00639610763984
-0.00152325846571
-0.00151948386404
-0.0029109978442
-0.00422994911925
0.00313901741223
0.00194680847133
0.00276191897223
-0.00167826235948
-1.63140085396e-05
-1.06102840612e-05
-1.56407211453e-05
-1.19998165311e-05
0.000234547113148
-0.00016696908336
-8.66353519479e-06
0.0124552835216
1.26754085045e-05
-1.74339490285e-05
-0.0124771261982
0.0124152748259
7.73318839775e-06
8.00924180887e-06
-0.012427814441
5.9426152969e-06
-9.14788968764e-06
-0.000208297849906
-2.27458292141e-05
0.0500842343692
-2.34009683552e-05
-2.5081636035e-05
-2.27076880933e-05
0.000290947139676
5.43837962333e-08
0.0500647172765
1.08220780332e-05
-6.03350951296e-08
1.02262779672e-05
-0.0501408748637
-0.000143883013
1.0379097114e-06
1.29869298374e-05
0.0124072768497
9.54289818183e-07
-6.95050446838e-06
-5.35738096863e-05
0.0125108681145
6.29191246896e-05
-2.10999541792e-05
-0.0125218550429
0.0125071022605
-3.58853985014e-05
-6.53998539537e-06
-0.0125181597345
9.12641136286e-05
0.201840593101
0.000371328395523
-0.000167303086357
-0.202135882531
0.200547904257
-0.000131306786143
0.00110217669017
-0.000789933299205
-0.000228855834263
0.200497492961
0.00104870052834
-0.000769127693079
0.000254208385312
0.201743404003
0.000407631951043
-0.000187218242666
-0.202126891736
0.200434382571
-0.000305785881077
0.00115014262758
-0.000769249985776
-0.000521821955987
0.200406174996
0.0010912814527
-0.000769842813112
7.53152406535e-05
7.1145643929e-05
0.000165303636684
0.000476560392771
0.20170648451
-0.000238420088566
-0.202159662888
0.000157408919766
-0.000161512145673
-0.000177030941377
-7.39696972601e-05
-0.000103446675496
0.200130366518
0.00120845614994
-0.00074830431076
0.0505613194988
4.17617366274e-05
3.01581516248e-05
2.62128106173e-05
3.28691140938e-05
-2.50062001935e-05
-0.0506051265005
1.31253434647e-05
0.0499917499085
-0.000222746992896
-3.50405691001e-05
-3.6767330401e-05
-3.82316548708e-05
-3.77433069685e-05
0.00030153098238
0.00202418812574
0.002351675083
0.0329047518695
1.30821201411e-05
1.53922677483e-05
1.67553568249e-05
2.09424763891e-05
-0.0053162122947
-0.00222052189057
0.0026464805751
0.00130657204188
0.0082092739728
0.00106784391565
-0.00907597196126
-0.0067149598535
0.0009100126817
-0.00108233787245
-0.00105825070616
-0.00304005343789
-0.00166212003361
0.0108188563612
0.000679620468139
0.00742836842585
-0.000119506226872
3.41465950688e-05
2.98854592812e-05
2.93262388753e-05
2.39599889827e-05
0.0505068830288
0.000127731808926
3.92045238808e-05
3.93419788371e-05
5.47057293289e-05
4.51597174469e-05
0.0503894253509
-9.97332766426e-05
-0.0504222805483
5.94700537745e-05
-4.80804379296e-05
0.0124970091386
2.35600980908e-06
-1.07274209887e-05
-0.0125000552991
6.28244105074e-05
-4.83291010079e-05
-0.0124865793975
2.34914638835e-06
-7.24826727326e-06
0.0124769633695
3.25716207637e-05
0.0125800104106
3.56687215733e-05
-2.46834762011e-05
-0.0125843563455
-0.000233838142954
-4.92325551677e-05
-5.19340183319e-05
-4.77194816779e-05
-5.35052782352e-05
0.0499462725613
0.00030466981609
0.0499796427464
-1.3530910071e-05
-1.49907361919e-05
-5.70483590139e-06
-1.98891145757e-05
-0.000157524116351
-2.86547479221e-05
-4.0790689454e-05
-3.59924927238e-05
-4.14474288811e-05
0.0499538710986
-0.000164615801784
-5.73828847075e-05
6.54134312474e-05
-2.72507462283e-05
0.0124950915847
-2.86388215335e-05
4.84910659044e-05
-0.0123884821738
-2.52108694749e-05
0.0123801230915
1.369329301e-05
-3.83148252351e-05
-1.59173659522e-05
0.0124904031952
-0.0124795602907
-3.77511875172e-05
0.0124730654111
4.36280321952e-05
-2.80197100119e-05
0.030599539247
-2.39143577252e-06
5.2090596786e-06
1.40431700846e-06
-0.00803128392256
0.00425262371414
0.0052102960818
0.00105052824268
1.86689805393e-06
-1.30855728559e-05
-1.91038247316e-05
1.05802980321e-07
0.0328026085101
-0.000321897242535
-0.031523483491
-0.0026515250012
0.00696984888766
-0.00628367326734
0.00149442870378
-0.00553726420352
0.00428625538347
-0.00118403951701
0.00437559760121
-1.26314111781e-06
6.61151475956e-06
4.42937668321e-06
-0.00723235230809
0.00268613461725
-0.000187907107888
-0.00690784885839
0.0017097473664
-4.46898423289e-05
0.0125642007088
4.17354615643e-05
-0.012569500482
-0.0125606396527
-1.79556916365e-05
4.82678243472e-05
0.0125604073904
-4.36811840598e-05
1.21622645261e-05
4.5809343874e-06
0.0124406780862
-1.51401997712e-05
1.55597468517e-05
0.0124561396828
-0.0124701530063
1.1714487894e-05
-0.0125616582469
-4.03092464822e-05
0.0124401203175
8.25294150686e-06
0.0125630482821
4.71968681466e-05
0.0125594368639
-2.12433291447e-05
5.1802701378e-05
-4.58786954434e-05
-5.3917530472e-05
-0.0125619852078
0.0125573657742
5.59682226365e-05
1.08114456171e-05
1.18193455993e-05
-1.20297876347e-05
2.10331120166e-05
-0.0124258299038
0.01241560929
4.41951920365e-07
0.0125570368415
-4.61259776727e-05
5.3974067087e-06
5.27112706829e-05
-0.0125471757188
-1.58332486566e-05
5.80417227168e-05
0.0125349826541
-4.92473439672e-05
-5.550311823e-05
0.0125469977059
5.89371967564e-05
-2.52283055155e-06
1.00672755739e-05
0.012402334518
-3.89598049231e-06
2.06523784337e-05
0.0124078065457
-5.31697305903e-06
-4.70251577447e-05
0.0124037347069
-9.85882152907e-06
0.0125354261649
6.26562545735e-05
-1.82259684219e-05
-0.0125230775499
0.0125125509575
6.83118621045e-05
-1.13598469521e-05
-0.0124001078054
0.0123988401259
4.10108631586e-07
-0.0124001391229
-1.96486690522e-05
0.0123987217361
-2.19312223306e-05
6.0308168753e-05
-5.02739913718e-05
-6.72549392352e-06
1.60052117412e-05
-1.48366893243e-06
-1.53122901362e-05
6.59719700845e-05
1.03627988149e-05
-0.012515663036
0.0125043732123
-2.41796829663e-05
-2.14404223292e-05
-0.012392103181
0.0123892430478
-0.0123917223006
0.0123897361336
-2.21791025354e-05
-3.32271087155e-05
-4.18411857588e-06
-0.0125310960844
-1.2486399922e-05
1.6692680276e-05
-0.0123949497623
-2.0061601675e-05
-0.0125304157717
-2.08125958509e-05
-0.0123948244421
0.000143065580871
-0.00743285594748
-1.75097382379e-05
-3.40385734662e-05
-4.74541259557e-05
-8.33258319638e-05
0.0344475260329
-0.0343996234619
0.00742419050804
-0.00159649215875
0.010867486395
0.00147939113898
-0.0128202481929
0.0323500329092
-0.0036601878895
-4.360657868e-05
-5.57539056697e-05
-8.82103380839e-05
-0.0034663411589
0.00463611630264
-0.0296130951139
-0.00261425419829
-5.23285161451e-05
-4.83495089534e-05
-8.30389790427e-05
0.0338316114259
-0.00605231257333
0.00701702838018
-0.00365624941657
-0.00813536021323
0.00375966127762
-0.000957604229054
0.00508925518341
0.00219979302764
0.0323955533751
1.38892658678e-05
1.46033420784e-06
2.22672604576e-05
2.64022704262e-05
0.000167864992188
-0.00419863490544
0.0093868238477
0.00290212759336
0.00372032515903
-0.00233510369666
0.00348536509434
-0.00193049828557
5.01213322462e-05
6.41509800924e-05
5.49689286632e-05
4.46155081198e-05
0.0302202226698
0.00040564056378
-0.0038733025686
0.0119391684321
0.00177188847912
0.00311914462974
2.43369879886e-05
4.40267390299e-05
2.90987807701e-05
0.0322029149132
-0.00447312726197
0.00383442220938
-0.00253290602701
-1.47597032016e-06
-0.0126287137443
7.16487445655e-05
0.0126152829337
-1.49824589556e-05
0.0126444070803
1.5217812726e-05
-2.51305235516e-05
-0.012652465648
-4.0500405911e-05
7.88345763219e-06
0.0124941498513
-8.15070190182e-06
-5.22315507712e-05
0.0124994096884
-0.0124993821202
-1.23194851127e-06
0.0126356907265
-7.35930190147e-06
-0.0126375826697
4.4146560665e-06
0.0124935149837
-2.66644787528e-06
1.62500898097e-05
0.0126032516164
6.15062724789e-05
-3.17691895208e-05
-0.0126256976472
-3.80276192227e-05
3.01446625032e-05
0.0126152073205
-4.45970000714e-05
7.54378278277e-06
-7.63539131938e-06
-3.61154906046e-05
-0.0124819543024
-1.33755996749e-06
0.0124735072082
1.08583931165e-05
-4.46201709895e-05
0.012597636074
-2.16829020973e-06
0.0124895493302
-2.18599031849e-06
1.9592648673e-05
-0.0124918297732
-3.44911307133e-05
-8.06765808522e-06
0.0124795607858
1.86292154293e-05
4.19755568466e-05
0.0125768052489
-3.37265795031e-05
0.0125885090878
7.14594339727e-05
-0.0126011868783
-4.65480715893e-05
-0.0124828168875
0.0124725203651
0.0125842970091
-0.01249880579
-2.67189330841e-05
0.0124977825214
7.01580747079e-05
-1.57997977332e-05
0.0123972501718
3.80113612889e-06
0.0123970281781
-2.5934293253e-05
6.72370565479e-05
-3.42820711628e-05
0.0124843554225
-6.04465155485e-05
3.09194065925e-05
-1.86080684371e-05
0.0123943308647
7.37677312099e-06
0.0124858654111
7.23747701306e-05
0.0123943426872
-2.91888297684e-05
7.03565416309e-05
0.0124736689629
-4.68792256434e-05
-6.19762102956e-05
-0.01247434958
-7.15756909543e-05
0.0124676216954
7.48860004471e-05
3.99807901961e-05
-2.11213689945e-05
1.13697473695e-05
5.76620168694e-05
-0.0123880466056
-3.28437730378e-05
0.0123820549344
7.41330007877e-05
-6.1645317507e-05
0.0124678715455
-3.25220761254e-05
-0.0124871520247
-2.17552300003e-05
4.17766829959e-05
-2.73534455003e-05
-6.63533921018e-07
-2.6160964225e-05
-2.62386996013e-05
0.0123874931086
0.0123874085325
-2.31748544747e-05
2.87405675775e-05
0.0123827708323
-2.36324606836e-05
-2.94393235169e-05
0.0124813013112
0.0123839832509
0.0123868666099
3.21667279023e-05
-2.38312735392e-05
5.67801607835e-05
3.27319473453e-05
0.0123845257636
-2.26194274085e-05
4.35551386875e-05
0.0124721401224
-2.63969769471e-05
0.0124734763513
-4.65161346506e-05
5.68057382187e-05
-0.0123818549196
0.0123800020208
0.0124708556948
-0.000273744977223
-0.000211245195365
-0.000274040372132
0.00114342681798
0.200314166195
-0.000338481889353
-0.000751594950478
-0.000235305422782
-8.15020279504e-05
-6.96141692348e-05
-7.59972997702e-05
-7.31709859893e-05
0.000305031275574
0.0499030958192
3.67676973655e-05
0.00176635246939
0.004790613878
5.26950941106e-05
5.71405682399e-05
7.49181968784e-05
-0.00394530135117
0.0293697392398
-0.00176255790308
-0.00200985779814
-0.00298394059636
0.00196059602062
0.040053204449
-0.00366121684249
0.0058178678994
3.13380496347e-05
3.2550163387e-05
3.15044790137e-05
2.81127932505e-05
-0.000115165862972
0.000229169929357
0.050327111272
4.49348135718e-05
-3.00211620931e-05
-1.16260436667e-05
0.0124588583412
0.0499276132549
-6.77116688983e-05
-6.01848898103e-05
-6.09742853899e-05
-6.62783441596e-05
-0.000165179112661
0.0499604400891
-8.85964174289e-05
-9.46340325321e-05
-0.000100142076613
-8.46311332276e-05
0.000217320881479
-0.000156167880279
6.27287374179e-05
0.0123640576023
-2.69237731206e-05
1.70717102465e-05
-7.40188798595e-05
7.34234896643e-05
2.81664993395e-05
0.0123760630562
-1.87822031379e-05
0.0123091669079
-7.81338630693e-05
0.000106098395792
7.06734509216e-06
-0.012338252202
-5.70201927059e-06
0.0500785153504
-0.000133365988609
-0.000114020558127
-0.000112768256197
-0.000128698831036
0.000318184791234
0.000207267779608
-0.000154790644957
-0.000137954712061
-0.000161824062532
-0.000163490778877
-0.000134827068055
0.000415040743611
0.000187215317029
0.050235720129
-0.000161414340635
-0.000111599839338
0.000127890596674
3.59768871097e-06
0.0122920737133
-2.72652465609e-06
-0.000212984225112
0.000207504713689
5.49896789356e-06
-0.0122608687543
0.0122658152487
-4.70583283174e-06
-2.54730067928e-05
-2.05568400649e-05
-3.33484002972e-05
-0.00897809706201
0.033286413381
0.00196280593589
0.0269098637088
0.00428683054681
6.17992950899e-05
7.40628489136e-05
7.27536728127e-05
0.00050757296362
0.00577008458262
0.0217474952707
9.85991175005e-05
6.21960201073e-05
8.63886298171e-05
-0.00220502972836
0.00127162314905
-0.000562541886023
0.00020822753936
0.00722080620207
0.0139033245144
-0.000260298279287
0.0029422140805
0.0143171664848
-0.000580246457059
0.0156685381619
0.000114421684711
0.000131195494845
0.000145959310682
-0.00312363716849
0.00618303622279
0.00251615753162
0.000208564549143
0.0001797919747
0.000188489585087
-0.00373621822347
0.00470160681275
0.0107772351087
0.00313580452059
-0.0125801420019
2.5640871709e-05
-6.08761695224e-05
7.08570772327e-05
0.0125758702179
5.01806789545e-05
0.0125710639053
-2.64675229941e-05
0.0124599164462
2.02593847447e-06
-6.63406165558e-06
-1.64596008159e-05
0.0124463763155
5.94175080349e-05
2.78296361487e-06
0.0124429998731
0.0125691002916
6.91338283774e-05
-0.0124583799073
-9.39438644588e-05
-5.49033499173e-05
0.0124565919898
0.0124556103655
-7.0880094063e-05
7.60203572674e-05
7.87377129168e-05
-2.36612620601e-05
1.78007983433e-05
0.012343873525
7.43040098384e-05
0.01236819351
-3.02334678202e-05
7.55771117196e-05
0.0124519959679
-6.01196632828e-05
-2.41994238032e-05
0.012349790198
-0.0124631311559
-8.42364532384e-05
-3.5280391451e-05
0.0124601207343
4.30511332518e-05
0.0124676727406
-2.52582113813e-05
7.01881170779e-05
0.0123695864963
1.97143226455e-05
7.87419331278e-05
0.0123662769331
-1.48157563413e-05
0.0123536450602
0.0124664897611
-2.14623221381e-05
0.01245558792
-0.000102838032179
-3.20909183528e-05
5.09520903914e-05
3.19502565299e-05
-0.012458336651
0.0124603558655
-2.24584448818e-05
0.000122575965225
-0.0123334795155
0.0123063358968
1.02147852992e-05
1.35569865156e-05
8.70101667077e-05
-1.06864648271e-05
0.0124618373684
4.81573571099e-05
1.72035019708e-05
-2.14952787268e-05
-0.0124716350313
-0.000168074486505
-3.99976167148e-05
0.0124986971651
4.76382927903e-05
3.34827533617e-05
0.0124668338102
-2.6085694046e-05
0.000134675095637
0.0122847046613
5.01840029642e-06
-3.25551568872e-06
0.000163917829341
0.0122601817619
2.2476952522e-06
4.57616381558e-05
0.0122596477367
-2.55379543815e-07
0.0124948381918
-3.2558835346e-05
0.012537663287
-0.000179459243809
-4.70202923757e-05
4.96433651982e-05
5.24997803815e-05
-0.0125338989835
0.0125737110669
-4.6461015938e-05
0.000203559301077
-0.0122651865982
5.44199421269e-06
0.012270266342
3.76579275002e-06
0.00018080273285
-4.65616949533e-06
5.27169941184e-05
0.0125776646126
7.42530339716e-06
-3.9807740346e-05
-0.000552930745552
-0.049319192892
0.0492169962635
0.00068608435302
-8.94732074457e-06
6.27054489423e-06
-8.94092978639e-06
5.38192888999e-06
-2.4738078853e-05
-0.000697500367516
0.0497548901706
-5.19085921802e-06
9.9024372152e-06
-6.57878497644e-06
6.93246591623e-06
3.0367082855e-05
-0.0497073848125
0.000614544017615
-0.00103693059906
-0.0499280059419
0.0502317207346
0.000862875764282
-5.00178797983e-05
-3.58155040039e-05
-4.89477083855e-05
-4.07030351647e-05
4.58226694773e-05
-0.00067397648284
-4.15215548288e-05
-2.52450716821e-05
-3.05771542438e-05
-3.71191308612e-05
7.89069772832e-05
0.0503239146895
0.000546680760552
-0.0501410625949
-2.22578097868e-05
0.00184436385347
-0.0488337197022
0.0451085715717
-0.0047297693163
0.00659951043943
1.76268065089e-05
4.9375016542e-07
4.83008257046e-06
2.4778004728e-05
-0.0354223677436
0.0251202035523
-0.00588652655923
0.0120882503476
0.0001358794137
0.000166743040289
0.000107922919589
0.00365565745952
-4.0595454695e-05
0.00547113491052
0.0458748611687
0.00183075650396
2.58248129703e-06
-1.31301359861e-05
-1.50302294223e-05
-0.049072675871
-0.00403858307932
-1.11061430205e-05
0.00664172939687
-0.037106190257
0.0285444068122
-0.0061717916691
0.00785357673819
8.2328039625e-05
0.000122510213497
4.44498021366e-05
-1.19763633041e-05
0.00613008503465
5.13750325509e-05
8.37600019813e-05
3.31055577421e-05
0.0302273520937
-0.00634454229143
0.006064773346
-0.0362339799258
0.0141081476196
-0.00173508708296
-0.00576141137471
-0.0133970013731
-0.0063420055041
-0.0127721179732
0.0105789448621
0.00524278555197
0.00511352635723
-0.0199358963988
-0.0173493504766
-0.0185245049879
-0.015586261255
0.0276590336153
0.0039842331884
0.0144657546578
0.00974841277443
-0.00349410938906
-0.00942962670725
-0.001826551181
-0.00731677805534
0.00785651338855
0.0180771649058
-0.0137936604599
-0.00999195329151
-0.0108791163638
-0.00712829252989
0.0249486311159
0.029054865995
0.00160072956631
-0.00465690748969
-0.0029692631645
0.000788751571654
0.00479507218944
0.00280805627766
-0.0102089194301
-0.00780044946394
-0.0090342144105
-0.00730999072682
0.0297076627846
0.014414374545
0.000197179940769
1.08125846514e-05
1.22328368529e-05
5.7089731505e-06
1.17589019975e-05
0.049037381228
1.79269635655e-06
2.41090211863e-05
-0.0493009538407
0.0491406042445
0.000386489429836
1.17907565708e-05
4.00359379165e-06
7.02915063041e-06
8.9623801016e-06
-7.69634206642e-07
-0.0493609095112
1.59003193565e-05
-1.14729674745e-05
-0.0124129794179
2.16802194785e-05
0.0123986064671
-1.22484974731e-05
0.0124104642451
4.16474988016e-05
7.18295274771e-06
1.1268305903e-06
-3.51781451899e-05
-0.0124262291803
8.78869798517e-06
1.53017372054e-05
1.58909809995e-05
5.22321997258e-06
-0.000284468896975
0.0122552860339
0.0122436335589
0.0121705048346
0.0122367819605
-7.93063884723e-05
5.4066219108e-05
2.23708744147e-05
-1.38443342695e-06
-5.22021765658e-05
0.012386285974
0.0005079364081
1.41782617965e-05
6.93734332217e-06
1.10210352883e-05
9.00547310728e-06
-3.47535889315e-05
-0.0494470101454
0.0495212363495
1.93706661257e-05
1.64160954658e-05
1.44251514373e-05
2.02366688213e-05
-3.81878472102e-05
-0.0495816943956
0.000536092772041
0.0124235519716
9.40965995999e-06
-2.52892599256e-06
-0.012434335949
4.55680911495e-05
0.0124561212779
2.05840224142e-05
-2.16745303749e-05
-4.81123107675e-05
-0.0124595940743
5.21127653413e-05
0.000975811492882
-6.39190130579e-06
-3.07068763247e-05
-8.96300566647e-06
-3.00204754417e-05
0.0492590747494
-0.000224506849285
-0.000196191778373
-0.000226668286154
-0.000190286335131
-3.32428517541e-05
-1.85305697661e-05
-2.74626097361e-05
-2.49887628896e-05
0.0494901782244
-5.53999887621e-06
1.07348582147e-05
1.01631047133e-05
-4.88175933163e-06
8.99364868399e-06
0.0496922663915
0.000871872088705
-1.03263189132e-05
-3.58949264264e-05
-3.45898449039e-05
-1.36696275531e-05
-3.77932090574e-06
-4.31482000066e-06
0.0124038076806
5.49443827855e-05
0.012390816681
-6.70131078573e-05
7.35494006611e-05
-0.012396338835
0.000104465410402
-0.000105768907056
6.04710972093e-05
3.37950051618e-05
-1.51725822779e-05
-6.66483306301e-05
0.012443123333
0.0124548492309
9.49047043024e-05
-5.19717682804e-05
6.26033427514e-05
-0.000106614357896
-0.012454063716
0.0500533071156
-4.42586678216e-05
-2.5695830798e-05
-3.22085375026e-05
-3.90022443069e-05
-0.00119630680094
-6.03312178859e-05
0.00121264009428
-1.4684581415e-05
-1.75446255136e-05
-2.47289227974e-05
-2.4024952016e-05
0.0506885189418
-0.000197236391378
-0.00156955917199
5.39797769156e-05
0.0123907271252
0.000108313836413
-0.000137029450203
-7.25186662558e-05
5.06989892711e-05
-0.0124941046249
0.000169173354171
0.0125418131238
-0.000195931495475
0.000105894418673
1.77286143325e-05
3.69793417436e-05
-0.000151493534563
0.0124454455118
0.0001289665157
-1.80176745129e-05
3.2563908347e-05
-0.000161007665582
-0.0125173024069
0.0125341886363
0.00074088830025
-1.56174422993e-05
-3.96669186814e-05
-1.78072395693e-05
-3.57549306436e-05
6.68442975848e-05
0.0500614311428
-3.67857773342e-06
-2.58470340904e-05
-2.2586441992e-05
-1.14767880341e-05
4.83756267273e-05
-0.0499019132984
0.000596534297366
-2.35792703066e-05
0.0124568062102
5.4950914009e-05
-0.0124685526948
0.0124682304981
-4.08138361309e-05
5.39087648169e-05
-0.0124677773759
8.10994851758e-05
0.0124822541027
-1.96807395307e-05
3.34614619064e-05
-7.88854138979e-05
-0.0124838080199
6.64675202065e-05
0.000942473935381
-3.32990954291e-05
-3.84346916595e-05
-4.22469631742e-05
-3.34584605729e-05
0.050601407427
4.80915201518e-05
0.0502811673378
-3.86285216284e-05
-2.41133980183e-05
-2.97897536709e-05
-3.03068690936e-05
9.21092893825e-05
-2.3366176896e-05
-2.59637684085e-05
-2.93633384354e-05
-2.38106859232e-05
0.0505308457581
0.000720378195954
7.49692847008e-05
3.64005579678e-05
0.0124558577976
7.17553357607e-05
-2.03754474249e-05
3.57812380799e-05
-0.0125236127303
9.94027647486e-05
0.0125377134214
6.75009286994e-05
2.36432609932e-05
2.07215371084e-05
-9.63633583801e-05
0.0124665364909
6.79896374664e-05
-2.68214798981e-05
3.00501868203e-05
-7.70287640678e-05
-0.0125153337342
0.012520852694
2.41932848355e-05
0.0124726255772
4.66447759108e-05
-0.0124873746854
3.44143263636e-05
-0.0125151397358
0.0125199849507
-3.03344324447e-05
5.91235752084e-05
0.00304250125648
3.26422784469e-07
-9.52337372262e-06
-4.0353294667e-05
0.0504797865799
-0.00673226962264
-0.050242156542
0.00351891248014
0.0493937296132
-0.00178313448729
-8.85329970746e-06
5.60008632677e-06
-3.94930427445e-05
-0.0497082919377
0.00519054938257
0.00814670646591
-2.87190404369e-06
1.68326836658e-05
8.02044227777e-06
-0.00264145220628
0.0457316621581
0.0130097641368
0.000674200963503
-0.00675288185712
0.000433243493006
-0.0131546894828
-0.0003584833605
0.0141807905225
-0.0145633043672
0.000359205874401
0.0120410588237
0.000967251322125
-0.0105881429965
0.0132020420059
-7.26539040968e-05
-0.0142422177248
0.0104159478802
-0.000617587175568
-0.0156761318589
0.000111198822557
-0.000351052269952
0.00549439547422
-0.0123855889094
0.000305379368878
0.00914696551353
-0.000564652279612
-0.0145463170767
0.000397256350035
0.00419616829737
-0.0114229703084
-0.00495428323135
1.46449456973e-06
-1.17807073872e-05
-3.81286114449e-05
0.00353198036474
-0.049137194946
0.0492522492838
-1.93308569927e-05
-1.1862154449e-05
-4.60197354071e-05
-0.0489376437534
9.83924092468e-05
-0.00526945131931
-0.00507993461532
0.0121023157855
7.45355789931e-05
5.80124832437e-05
-6.24160969409e-06
0.00245427607972
0.0454678947633
0.00454977245846
-2.97031406005e-06
1.23751194822e-05
1.49720537002e-06
0.0099255363916
0.0363870966325
-0.00610726021355
6.28316022118e-05
7.31218749382e-05
-8.39014275178e-06
0.0111377053001
0.00197354570834
-0.00903375768808
0.0014863601063
0.0122152443063
0.0119009936251
0.00214335183112
-0.00935845648716
0.0131006715539
0.0029391104687
-0.00556725568122
0.00861214430335
0.000220866736949
0.000108121804478
-5.00259724534e-05
0.0180074171072
0.00370169145778
0.0270040650172
0.00983916741788
0.000154888708201
8.74387823038e-05
8.27881637074e-05
0.00511015213119
-0.00493760849344
8.35941145554e-05
0.000156453110591
-5.06704815267e-05
0.0210590010886
0.00830828125359
0.00160993312611
0.00290811943196
0.00436820533999
0.00966577805665
0.00403024440114
0.004420785768
0.00618908786838
-0.00531928602463
0.0078708078517
5.53264273875e-05
4.40910896596e-05
-2.47368893296e-05
0.00630044697789
0.036878300505
3.71733319525e-05
3.56029438996e-05
-2.84998007976e-05
-0.0453694587779
-0.00319242031721
0.013846624343
-0.011302344275
0.00301837259639
0.00392508449456
0.0161067024911
0.0216471853308
-0.0183732602141
0.00400461712289
-0.0043319203787
0.00483120236258
0.000132994526537
4.54568806343e-05
-5.774570102e-05
0.0229783354491
0.0295791388037
0.00708593267059
0.000102509518736
5.45197138649e-05
4.55188245826e-05
0.00451634896871
4.127308598e-05
0.000103498420191
-3.53411013381e-05
0.0252352779294
-0.00463071175966
0.0129059564281
0.00488434435733
0.00503842663875
0.00937606462162
0.019862946289
0.00473986269258
0.0172189625763
0.0049249699213
0.0122973482329
1.49229643536e-05
-9.19321755018e-06
3.50818465693e-05
-0.012327343819
1.490849127e-05
-0.012293276372
0.0122614464036
1.756514097e-05
2.78619415777e-05
-9.57656941106e-06
-1.28309372193e-05
-0.0124182942247
-1.60777340818e-06
-0.0124068175333
2.9091842734e-05
0.0123922386693
4.6834752872e-05
0.0122694740404
2.50289582161e-05
-0.0124292947072
1.78534417593e-05
-0.0123182764656
0.0123083097119
6.02987170939e-05
1.55419192365e-05
-0.0123373990985
-7.80906494299e-05
-0.0123235917151
0.0123019706494
0.000104737190628
-1.38031437583e-06
-0.0124127048393
0.0123993568835
-2.22137642812e-06
-2.18575423251e-05
3.54346795933e-05
-0.0124321204483
0.0122825788596
8.87284008636e-05
-0.0123453578261
-0.0124333859271
-0.0122621095474
0.000119155582606
-1.70605167068e-05
-7.91381608886e-05
0.0122479486887
-9.6230356221e-05
0.0122829061514
0.000129085662572
5.9124573732e-07
0.0123814339485
-3.64679031174e-05
2.37096750374e-05
-5.27162250335e-05
6.5928900162e-05
0.0123679713931
-5.92378104065e-05
0.000155208248067
0.0122758279292
-4.14160472854e-05
0.0123614724174
-0.000110721469124
0.0123599099469
1.8170000766e-05
0.000122439646993
-0.0123756258868
-0.0123426854352
0.000124415832383
0.0123275139969
-5.19732031164e-06
4.65645319495e-05
-0.0124389370108
-4.93598617779e-06
-0.0124375033673
4.63089418362e-05
0.0124297855415
-0.0123590037131
0.000138820524689
0.0123494143425
3.91344783334e-05
-0.0124499195314
0.012379695719
0.000127346459578
2.88631160913e-05
-0.0123942292305
-0.000146064744786
-0.0123989655389
0.0123915217731
0.000148221642832
-1.57046068505e-05
-0.0124465641004
0.0124417537051
-2.26340990771e-05
-3.26784021002e-05
-0.0124592756906
4.31431841157e-05
0.0123711305503
-0.0124074092695
0.000133308834773
-0.0124570882236
-0.000176669802545
-0.0123395506066
-1.91958000348e-05
0.0123399062852
0.000185718638475
0.0123097173178
0.000148846058998
2.62263692761e-05
7.64362993203e-05
0.012387889153
-7.70775439104e-07
0.0124263294298
6.02405165231e-05
0.0123058722444
0.000163079631659
0.0124136630772
6.98150487164e-05
-0.000207227882553
0.0123506352743
-2.44988098578e-05
0.000213999397083
-0.0123198284295
0.000239864884159
0.0123478770361
-0.000225221801718
4.70066858549e-05
0.000108214493621
-8.75081780669e-05
7.2386913654e-05
-0.0123996618598
0.000103882983197
0.012390645763
-0.000183345760121
0.000249888827064
0.0123836036638
8.80851862958e-05
-0.0123672277078
0.000187628199817
-1.19976909319e-05
0.012371415949
-0.000170744489864
0.0123872792744
0.000170528918155
-6.19679519076e-06
0.0124400007371
1.61700835317e-05
-6.50471462219e-05
0.012434452984
6.99278855335e-05
0.0123952681251
0.000190590122306
0.0124328042717
0.0123840179538
0.000210893412403
-2.05098400541e-05
-0.000247768023207
-0.0124188550009
0.0124559581101
0.000237302643453
6.82664832283e-05
-0.0124195751572
0.0124151759322
3.90018193844e-05
-7.10830085336e-05
8.57500571969e-05
0.0124201503489
0.00021223510431
-0.000320685749317
-0.0124412013032
-8.87496659712e-05
0.0124998827687
0.000317982795261
3.14243856101e-05
0.0123865787354
0.000259763307859
1.17672156996e-05
-0.000255591492932
0.000102121692649
0.000162900445483
0.0124176592585
-0.000156134447755
9.60043479379e-05
0.0124427334555
0.000131764276879
0.0124508533171
3.04433417864e-05
-0.000313882056095
0.000275928676419
2.20681094335e-05
0.0124693322742
0.000149525506479
-0.00035674229629
-2.14426334092e-05
0.0125656531091
0.000339200335533
-2.84563765767e-05
-0.0125622848507
0.000363865746012
0.0126598013578
-0.000384920824539
-2.6022380315e-05
0.000106991889017
0.000222387950398
-0.000185041197587
-0.0124528844284
6.8528118511e-05
0.000169633786111
0.0125008165707
-0.000341986035579
-2.04562765287e-05
0.000162738807545
0.000367563412475
0.0126494484227
-1.85219761396e-05
-0.012477622998
0.000294639401783
-8.06086734918e-05
0.0125362161072
-0.000277784943424
0.0124910998092
0.00025446917807
9.19719905867e-05
0.0124643294485
7.74273519359e-05
-0.000125546327041
0.0124656878144
0.000115431084357
0.0125441031807
0.000278979539667
0.0124857466226
0.000296026684011
-2.16458937704e-05
0.012584463357
-0.0126088024482
-0.000331285936495
0.000299576265488
0.0126557516984
-0.012465300076
5.65463925454e-05
0.0125109664412
8.25251401331e-05
-0.000105215322939
0.000127832676612
0.000288040807994
0.0126539615782
-0.000180444728595
-0.0124332623786
2.88339959861e-06
0.0124416385469
0.00016399800491
0.0124113177999
0.000160585426893
-0.012414943858
6.76865381442e-06
7.29826261844e-05
0.0124495834447
-1.5270289881e-05
0.0124717228452
-0.0124723988274
5.84823008201e-05
0.0124215261262
-0.0124318635533
0.000150790191636
0.0124677668432
6.49991493155e-05
-0.000201872960947
0.0124573577073
-9.76686706875e-06
0.000180137322264
-0.0124446024355
0.000216555215639
0.0124797355623
3.09235210293e-05
9.17980414904e-05
4.9925696229e-05
-0.0124567038116
7.60491512154e-05
0.0124557400681
0.000197549954774
0.0124903759485
6.92212094041e-05
0.0124740985838
0.000161347986306
2.28891513019e-06
-0.0124613989096
-0.000179056903008
-0.0124920601717
0.0125193624123
0.000159299419678
3.43308981894e-05
-0.0124643628443
0.0124644793383
1.6605632946e-05
-5.61302613678e-05
-0.0124718556701
6.32822794307e-05
0.0125041481944
-0.0124736864183
0.000147878078815
-0.0124765520987