/*--------------------------------*- C++ -*----------------------------------*\
| =========                 |                                                 |
| \\      /  F ield         | OpenFOAM: The Open Source CFD Toolbox           |
|  \\    /   O peration     | Version:  v1906                                 |
|   \\  /    A nd           | Web:      www.OpenFOAM.com                      |
|    \\/     M anipulation  |                                                 |
\*---------------------------------------------------------------------------*/
FoamFile
{
    version     2.0;
    format      ascii;
    class       volVectorField;
    location    "3";
    object      U;
}
// * * * * * * * * * * * * * * * * * * * * * * * * * * * * * * * * * * * * * //

dimensions      [0 1 -1 0 0 0 0];


internalField   nonuniform List<vector> 
28582
(
(0.805388488355 -0.00238228659949 3.52875614402e-05)
(0.80385585595 -0.00347888153013 -8.29561139986e-05)
(0.805203838951 -0.00220626203654 0.000241695236533)
(0.803623115679 -0.00327215905998 -0.000215076267735)
(0.804641452724 -0.00259437004138 -0.000131360676873)
(0.802873674441 -0.00360502039172 -0.00058163674094)
(0.805024133675 -0.00221763392595 -0.00082234121201)
(0.803282228448 -0.00332601640147 -0.00187883182091)
(0.533161660992 0.118344597854 0.00318587610549)
(0.495384899065 0.0739633215419 -0.000238228966658)
(-0.0225773958707 -0.0146355947837 0.0155610305132)
(0.80432031024 -0.00294716130797 -0.00086662910468)
(0.797806306574 0.00159103717438 0.000403819955639)
(0.794929866199 0.000659650307658 -9.50545776632e-05)
(0.80196162088 -0.00363699484026 -0.00183517119627)
(0.801760931747 -0.00300497806207 0.000355973933205)
(0.794274219968 0.000359531149489 -0.000179215918762)
(0.800989456251 -0.00409236492161 -0.00148256802409)
(0.800768571421 -0.00280979999495 -0.000241356467539)
(0.808587286361 -0.00108043686262 3.05133970548e-05)
(0.802584253065 -0.00359509397978 -0.00025858553627)
(0.8020307981 -0.00351129969873 -0.000470654538882)
(0.80841271961 -0.00123864111841 0.000687902861364)
(0.802195629198 -0.00345115615867 -0.000887636851579)
(0.801697417713 -0.0035171111737 -0.00149054535083)
(0.808562753629 -0.00129942714204 0.00150271054538)
(0.801093063906 -0.0036782559461 -0.00158512532078)
(0.80947586148 0.00048380609057 0.000893473466735)
(0.800900080612 -0.0038307086784 -0.00332327736544)
(0.51919153439 0.0638063805746 -0.000973746909911)
(0.0209913686948 -0.0290082939218 0.0181850588579)
(0.00766742288494 0.016963117755 -0.0548172820926)
(0.808746673045 -0.00178088421771 0.000760100722979)
(0.806536025622 -0.00181194162912 0.00309282115946)
(0.799934468102 0.000462242090725 0.00237316346132)
(0.798979064307 0.000857120819935 0.00241818135926)
(0.805266674254 -0.00196392295764 0.00263607255113)
(0.799426611413 -0.00399548356295 -0.00371761785678)
(0.800673292724 -0.00324277986554 -0.00114460248258)
(0.79938743509 -0.00342692901625 -0.00182321029305)
(0.800208754699 -0.00424496811531 -0.00203175075417)
(0.792565993888 -0.000834513827917 -0.00141832462058)
(0.79996364007 -0.00307839030704 -0.000888307133014)
(0.798566554627 -0.00223230764301 -0.00223432582388)
(0.498662315225 0.109680945686 0.00192717865158)
(0.512407022123 -0.00489028657823 0.000686916955323)
(0.107276590595 0.0444359021411 0.0295800547707)
(0.0837257671639 0.0316772704277 0.0789129466597)
(0.486999078286 0.0894675812758 0.000907508908794)
(0.0866201253632 0.0177050253331 0.1142375631)
(0.804273625178 -0.00250439152264 0.000510904261639)
(0.803963800631 -0.00334640388262 -0.000909564778182)
(0.796732426127 0.00145567536964 -0.000242999375188)
(0.797787349709 0.00019417783437 -0.000840128806121)
(0.803918466796 -0.00306742380003 -0.000816898389509)
(0.796683545582 0.000117379231759 -0.000994873098722)
(0.804140661957 -0.00271892767777 -0.000187407063386)
(0.803852791349 -0.0035014337943 -0.00117046837972)
(0.803852625658 -0.00317867729515 -0.000659204743897)
(0.795803185009 0.00109060079973 -0.000394411042458)
(0.794871077649 3.90055987274e-05 -0.000969192239597)
(0.803774648675 -0.00358011854051 -0.00119198200024)
(0.795726404692 0.000179995714864 -0.0010825937593)
(0.804066505034 -0.00303488822061 -0.000769490777071)
(0.802723061102 -0.0037665701571 -0.00107479807688)
(0.803425316554 -0.00335893538211 -0.00107910828837)
(0.793846814882 9.4812898493e-05 -5.88399545336e-05)
(0.794294093654 -0.000233741509367 -0.000734320109963)
(0.803440915875 -0.00361930462541 -0.00134838544249)
(0.793970033192 -0.000429942734693 -0.000452051790566)
(0.802729985583 -0.00357083020316 -0.000865279628741)
(0.801091032 -0.00384478279176 -0.00152727481455)
(0.793590040348 -0.00023792489126 -0.000210808705595)
(0.79352964194 -0.00114403023733 -0.000556042888119)
(0.801908186446 -0.00386450517645 -0.00164859510876)
(0.793720471067 -0.000112824118648 -0.000118723902011)
(0.7937859624 -0.000772841625582 -0.000527742998279)
(0.801921560644 -0.00374604588252 -0.00140913858794)
(0.800610598439 -0.00184036599942 0.000969514217956)
(0.792980765617 -0.00130682399725 -0.000293735952991)
(0.792991431186 -0.00136751136939 0.000990183921295)
(0.801698724225 -0.00262404652494 -0.000178418376618)
(0.79317501581 -0.0011631142122 0.00115634496136)
(0.801564579136 -0.00164973050618 0.00100638568374)
(0.793214145128 -0.00102249498597 -0.000127061465471)
(0.554994319012 0.116577339156 0.00337337296129)
(0.204854860751 0.0420297500032 0.0150719120997)
(0.497577103847 0.0653991096107 0.00484580575952)
(0.531696940774 0.109368653367 0.00492792774023)
(0.114566624294 0.0633239821786 -0.0938966176528)
(0.109955376238 0.00261846684094 -0.0598522327745)
(0.519755754814 0.00714948576214 -0.0015538527008)
(0.116650818113 0.0790049518084 0.0607652942065)
(0.0567264705047 0.0481583955697 0.0599488605595)
(0.506702533108 0.016313264065 -0.00554224719351)
(0.171927499114 0.0763177029226 0.108636600991)
(0.519344943923 0.0555601556498 -0.00202721948907)
(0.0536058377318 0.047706951271 0.0797644409585)
(0.807857627227 -0.00065178330192 0.00424864280212)
(0.809476932871 0.00161435985884 0.00293347811502)
(0.799685947275 0.000879759686181 0.00197035254008)
(0.800070337324 -0.000112187204007 0.00264159251814)
(0.809024388491 0.000815113432061 0.00250152252588)
(0.808611872757 0.000330199381505 0.00317353835169)
(0.79983254764 -4.99540177932e-05 0.00366022411187)
(0.806947461608 -0.00178025542891 0.00353778497573)
(0.807695483433 -0.00191005464134 0.00300046363004)
(0.799561947309 0.000905616701542 0.00215464287349)
(0.798505709746 -0.000671795923972 0.00151869823084)
(0.808470585858 -0.000471879101055 0.00289448110419)
(0.806433291905 -0.00293666122073 0.0023709327259)
(0.799303054333 -0.000191870569594 0.0031790434185)
(0.799480643767 0.000525466074279 0.00108116675038)
(0.799225135054 0.000567441886215 0.00118267796516)
(0.805024878294 -0.00242347606334 0.0027257208032)
(0.80605015258 -0.00233314894772 0.00453840178279)
(0.798509248227 0.000499704678309 0.00180046018351)
(0.805506997767 -0.00279351008332 0.00336247586785)
(0.79955318018 -0.000101594869231 0.00335044187551)
(0.800361269322 -0.0040516295038 -0.00213876324616)
(0.793476811098 -0.000459231631361 -0.000518889250349)
(0.79344754212 -0.00151648256202 -0.00061822221667)
(0.799388407304 -0.00442137553836 -0.00238637219581)
(0.793299745146 -0.000605420626852 -0.000745806927068)
(0.799497410144 -0.00412327093562 -0.00230430279276)
(0.793383498544 -0.0018180344945 -0.00097883604832)
(0.79879804355 -0.00459648173364 -0.00329293322265)
(0.797974719973 -0.00430859942401 -0.00352197621958)
(0.793083462537 -0.000676577338627 -0.000933767339566)
(0.792631117273 -0.00214312569262 -0.00213129452951)
(0.798829057119 -0.00427337906487 -0.00309499756622)
(0.797936250008 -0.00466113557846 -0.00379454005988)
(0.793046976243 -0.0020227030814 -0.00145928699129)
(0.799002860576 -0.00221252470268 -0.00111956682734)
(0.799757653141 -0.00195051784257 -0.000107370354762)
(0.792826252841 -0.00168448196821 -0.00053536669121)
(0.792878793729 -0.00155914708636 0.000353077596189)
(0.792762772656 -0.00175416725128 -0.000811072658009)
(0.799171836837 -0.00323003760688 -0.00159520404921)
(0.792826388112 -0.0017424804846 -0.00122207485211)
(0.792624569405 -0.00179179852502 -0.00144262498349)
(0.79245298275 -0.00186496327855 -0.0026118332843)
(0.797947740587 -0.00220609995574 -0.00337340813438)
(0.798576825116 -0.00338431441567 -0.00286184206166)
(0.792325438455 -0.00215028550845 -0.00256919809816)
(0.798042859823 -0.00344607990575 -0.00342953593681)
(0.792449680121 -0.00201926156192 -0.00189278294463)
(0.800936814535 -0.00371167579261 -0.00303258236955)
(0.798993459991 -0.00409274088646 -0.0051782144231)
(0.497210438482 0.0499675602313 -0.0032377837627)
(0.0908390872507 0.00153528780879 -0.109514611751)
(0.805812633671 -0.00326415705159 0.00236980934338)
(0.797974810229 0.000642225677576 0.000975452560226)
(0.79915278598 -0.00346256018295 -0.00327294287872)
(0.799005679713 -0.00326342540891 -0.00491182160849)
(0.791906913197 -0.00106480373813 -0.00187208865349)
(0.792447616116 -0.00162358592528 -0.00349735615861)
(0.788861034027 -0.000347133440661 -0.00501042903272)
(0.800334073202 -0.00305716523961 -0.00574885280658)
(0.80292425096 -0.00291711036936 -0.00784209375199)
(0.787244115477 -0.000360664871551 -0.00602477671205)
(0.785318529669 -0.000175964140637 -0.0093682962991)
(0.545391924973 0.138809219454 0.00401455165998)
(0.463560843035 0.0189528199647 -0.0058856694092)
(0.401456058463 0.0296721631811 -0.00465335467565)
(0.0764793865293 -0.0259015689098 0.117541675216)
(0.228262238364 0.0102397015008 0.119606383923)
(0.229873446915 -0.0204701975853 0.151859131957)
(0.288969463771 0.0462769664853 -0.00940484020889)
(0.219141842546 0.0576152814839 -0.0193258012786)
(0.805154401339 -0.00428394307356 0.0021782156764)
(0.804749501357 -0.00281995165327 0.00238511367096)
(0.797999642413 0.000556444339039 0.000933457053996)
(0.797003240765 0.00052015847155 0.000333012726954)
(0.805276691245 -0.00355108869465 0.00217417071611)
(0.796877206255 0.000301215876904 0.000910995494055)
(0.804570150223 -0.0033301012003 0.00179659216824)
(0.79720747734 -0.004363891794 -0.00599690532315)
(0.797615792877 -0.00443513324107 -0.00461652656461)
(0.790568488984 -0.0010602852729 -0.00258909548889)
(0.791924530531 -0.00215490537944 -0.00257784022691)
(0.796932969323 -0.00446374588591 -0.00549600875024)
(0.797642539895 -0.0045024187788 -0.0051704701127)
(0.791103223846 -0.0019599992523 -0.00398470190524)
(0.797449632216 -0.00297935870377 -0.00536160470525)
(0.798063544719 -0.00219763558047 -0.00459911911115)
(0.791914389797 -0.00187756377516 -0.00290282724198)
(0.791754031999 -0.000980155761733 -0.00392203806012)
(0.79789521338 -0.00347697810709 -0.00470699124115)
(0.791231832496 -0.00137852347949 -0.00392916753082)
(0.797829620578 -0.0017659239472 -0.00505132819305)
(0.797537730571 -0.0027161436363 -0.00668482753686)
(0.797340296572 -0.00164203032203 -0.00697021609274)
(0.788748718948 -0.000650298064251 -0.00564312787658)
(0.790690444827 -0.0008654893785 -0.0042014301836)
(0.797351060886 -0.00267887225061 -0.00785710004822)
(0.790090324233 -0.000964365704801 -0.00464154078183)
(0.797879574703 -0.00169089774271 -0.00584896312544)
(0.799116564714 -0.00283494844082 -0.0110310002478)
(0.798012887072 -0.00186398418247 -0.00810780800357)
(0.786921615393 -3.80103362015e-05 -0.00600914835698)
(0.786101085528 0.000165184261378 -0.00713164646033)
(0.798254630435 -0.00252290263191 -0.00868880538543)
(0.785793646748 0.00018148526827 -0.00734937334675)
(0.798856276518 -0.00223507531226 -0.010572340995)
(0.801337424919 -0.00300319752815 -0.0110386921182)
(0.80397120964 -0.00308725045021 -0.0135516390174)
(0.785609955048 -0.000346911070109 -0.00966874785833)
(0.784766971112 -0.000195828524683 -0.00846871400458)
(0.80441133402 -0.00331775432306 -0.0134620368774)
(0.784876162017 -0.000175706170181 -0.00846239455995)
(0.80125112535 -0.00270051527499 -0.0108078325364)
(0.790527202397 0.009816473377 -0.000101625413898)
(0.796267200199 0.0106630164608 -0.000580415452002)
(0.80079921281 0.0157572400314 -0.001924379069)
(0.803252747609 0.00982773803402 -0.00161036497834)
(0.754165713788 -0.0595850903907 0.00233480961159)
(0.513328027756 -0.0797551589312 -0.00754089753901)
(0.762302168738 -0.0794265487052 0.00226685785266)
(0.541886575762 -0.105544138 -0.00309870813316)
(0.54500398804 -0.0965835013068 -0.00157659966877)
(0.0116623051554 -0.0320359406824 0.0347591905569)
(0.0839858703992 -0.00517598597359 0.187551952899)
(0.00657422949336 0.0214257036871 -0.0527050634612)
(0.0899624318846 0.0479274237056 0.0692889259217)
(0.0468699071374 0.0499443688867 -0.0918422940542)
(0.153447169579 0.090778574098 0.143582296041)
(0.787378718112 0.00136615197474 0.000371133583032)
(0.788817712949 0.00466538099386 0.000424673577299)
(0.794145807583 0.00127619948711 0.000271283095069)
(0.794915336512 0.00249216749513 -0.0001619440727)
(0.78599192352 0.00676133535634 0.00163536957616)
(0.793584508352 0.00341054919684 -9.23832803231e-05)
(0.790692005446 0.00716830842583 0.000844372539988)
(0.793662147635 0.00837360332763 0.000906309346331)
(0.795503466269 0.0027764979233 0.000236442522585)
(0.797354216874 0.00335020316112 0.00121830239369)
(0.789342773855 0.0152625850047 0.000890773971406)
(0.793664588429 0.0112862406977 0.000228624359746)
(0.794371953831 0.0150267133522 -0.000145042118877)
(0.794672394492 0.00351204626428 0.000232395609778)
(0.793302656746 0.00666474975442 -0.00343064700212)
(0.796784904186 0.0041619985757 0.000938538423344)
(0.797234194299 0.0065175197302 -0.00282752323604)
(0.7981897871 0.0189368139912 0.000589449589661)
(0.804171324974 0.0228480011275 0.00216704146221)
(0.793031898307 0.00821192371482 -0.00379464306627)
(0.800715305242 0.0114750188587 -0.00493939349594)
(0.796602658773 0.00817470042829 -0.0026054761013)
(0.801576963973 0.00932916675621 -0.00263906711504)
(0.797999729504 0.0133143905688 -0.00153422043617)
(0.799615746619 0.0108963280738 -0.00102365679754)
(0.797745182075 0.00362230572117 0.00156191159816)
(0.797901449062 0.00559475623638 -0.00218468861885)
(0.798960807251 0.00472712828554 -0.00127866435087)
(0.805334364527 0.0174349660126 -0.00125807387415)
(0.802331026804 0.0123987236613 -0.00120179308832)
(0.805643284941 0.0133990913739 -0.000846475707013)
(0.797613726293 0.00566523820467 -0.00205990183178)
(0.801881973108 0.00734550646104 -0.00260760920922)
(0.798356933572 0.00546774316903 -0.00098391930889)
(0.801148166322 0.00444456474851 -0.00201764723735)
(0.798797744629 0.00346381365266 -0.00104601628276)
(0.801132858092 0.00435993911494 -0.00228221198838)
(0.801165853601 0.0832973761496 0.00230690312199)
(0.786033460792 0.00579097172114 0.00323355309111)
(0.760903204052 0.00232718164096 0.00287905133991)
(0.176643450509 -0.00654960801066 0.164685699138)
(0.267145917975 -0.0145809176149 0.379064599453)
(0.162519912908 0.0263358543538 0.189660528822)
(0.250492790105 0.00122365737966 0.36531009714)
(0.19442476633 -0.0163149628076 0.450886652134)
(0.128701260015 -0.0193283799275 0.373445142824)
(0.173631758027 -0.00630104643249 0.414872899655)
(0.108632005766 0.00477199230449 0.33201116957)
(0.77883389555 -0.0619022835345 0.00300889863307)
(0.780308902012 -0.0886193170684 0.00316941776657)
(0.679468235173 -0.065447985905 -0.000789233852859)
(0.760132903997 -0.0894318661082 0.00192380741948)
(0.689236556878 -0.0956131619407 -0.00121264732324)
(0.146943474356 0.0107542940012 0.149819553422)
(0.238929748234 -0.00191658914866 0.312680624907)
(0.170862142594 0.0410485684156 0.0977173083654)
(0.241987348667 0.0413298642218 0.253752938799)
(0.313552881703 -0.0810473682514 -0.00338944778801)
(0.527856253172 -0.105201224776 -0.00359376839054)
(0.367658938712 -0.0849271972071 -0.000733798890804)
(0.154120135605 -0.00746639944978 0.34463500297)
(0.103982442584 0.0141221708591 0.243089077696)
(0.184569252681 0.0546631337348 0.272792677468)
(0.112236883192 0.0710865559959 0.157106113322)
(0.697666398485 -0.0968994033358 -0.000303033243477)
(0.69036778307 -0.0700273949346 0.000100014171932)
(0.187346086742 0.0361625656765 0.0304771243223)
(0.28654632671 0.0506436067972 0.196827102466)
(0.349148317345 0.0781043235515 0.149742727162)
(0.403447831806 -0.0777862819859 0.000244932624468)
(0.538413802947 -0.100818704274 -0.00170267047216)
(0.442206447931 -0.0702177781086 -0.00111586986765)
(0.231670150699 0.0681531889163 0.217371361483)
(0.181590360223 0.0688599116555 0.144736706327)
(0.336990782004 0.0896476445971 0.18911778811)
(0.311459743546 0.09287612141 0.131837211381)
(0.788044748377 0.00125284943222 0.00107837052487)
(0.786141120847 5.76696698357e-06 0.00113736445317)
(0.794544204167 0.00147734899958 0.000170050582838)
(0.793500704195 0.00153497491644 -0.000192639378566)
(0.786577585412 0.00199149481612 0.000402904323748)
(0.794857932659 0.00169440644839 0.000511263197524)
(0.787685888589 -0.000175995869615 0.000989773552226)
(0.788813177904 0.00312650776636 0.00116739419509)
(0.788216784777 0.00591728153565 0.000161021357375)
(0.793938048502 0.00204913183924 -0.000170987476061)
(0.795502150737 0.00175092921574 -0.000183935202554)
(0.787268246541 0.00387827559098 0.000444078359675)
(0.789571516597 0.00470948978136 0.000554193527625)
(0.795219210069 0.00140209290817 0.000498753863926)
(0.78494430456 0.00624075382442 -0.000414048853631)
(0.787398348314 0.00705213794432 0.000504736138098)
(0.793204776096 0.00291828882995 -0.000276720554834)
(0.792427375619 0.00385355652219 -0.0012756755587)
(0.786075555871 0.00499966114195 0.000491236060688)
(0.786220167639 0.00876244427939 -0.000657913429039)
(0.792026871748 0.00290775518593 -0.000877684471879)
(0.791777813389 0.00736898098931 0.00118562359593)
(0.789536529925 0.00722901670037 0.000312463086506)
(0.795940085472 0.00266412197731 0.000165812244507)
(0.795754316235 0.00304080399377 0.000280534266358)
(0.790666012404 0.00649100950987 0.000669346874871)
(0.790699691571 0.00849521789151 0.000533502203822)
(0.796412801623 0.002879068798 0.000854515568542)
(0.792986680983 0.00801024473595 0.00178359476866)
(0.793220349621 0.00955048632196 0.00139829086055)
(0.796375277739 0.00284497068927 0.00090318310108)
(0.797400645654 0.00240399835355 0.00105468396049)
(0.792064280337 0.00899896556354 0.00113445569248)
(0.794079797502 0.00832400621266 0.001703498499)
(0.796972587755 0.00207628192503 0.00141957309859)
(0.789995598319 0.011723101231 -0.000989575463404)
(0.78896098138 0.00895480262256 0.000635152829671)
(0.793308308962 0.00457677284455 -0.00110133456394)
(0.795527579957 0.00362772257143 4.30502535271e-05)
(0.788109036175 0.0104914201833 -0.00114207654089)
(0.790605963784 0.00994556564585 0.000353909990728)
(0.795198738835 0.00482030076294 -0.000742271017869)
(0.790610402624 0.0133658199568 -0.00102891461849)
(0.789493566986 0.0148712575237 -0.00399600187195)
(0.793400019106 0.00639911767729 -0.002265298829)
(0.793627799424 0.00670775908866 -0.00343528180619)
(0.788666534863 0.0125962981031 -0.0017807769626)
(0.791392329939 0.0157937266187 -0.00392710636185)
(0.793948147699 0.00616778006038 -0.00135920555603)
(0.791737624394 0.0117808654266 -0.00074962952369)
(0.793405342589 0.0108970155999 0.00115884654187)
(0.796321631189 0.00405648986356 0.000419926002553)
(0.796324000359 0.00445780825196 -0.000540412418279)
(0.792054423412 0.0107591417723 0.000836350090295)
(0.792981013524 0.0122629862106 -0.000771106331125)
(0.795996258626 0.00414678889517 -0.000262812804599)
(0.792503249351 0.0136832458437 -0.000934568395816)
(0.795719552668 0.0157992610168 -0.00380577734811)
(0.794635875051 0.00676348068387 -0.00314261862825)
(0.796464689905 0.00500671569105 -0.00177999847313)
(0.793597861847 0.0157798670799 -0.00388157025072)
(0.79441151081 0.0134825174574 -0.00171967330199)
(0.795436087286 0.00510562642642 -0.0010002926067)
(0.797860558426 0.0207072373952 -0.0046600689264)
(0.791778944008 0.0167143513325 -0.00229071835753)
(0.793699845974 0.0101741866104 -0.00581339971766)
(0.794493817834 0.00763112724933 -0.00512058439395)
(0.794756848484 0.0203767907375 -0.00500909298425)
(0.794439306454 0.0170217670257 -0.00420018828791)
(0.797037507306 0.0102437742629 -0.00529178568547)
(0.801868240834 0.0222986122567 -0.00101735360655)
(0.805693991685 0.0242565155722 -0.00195001855264)
(0.797122856682 0.0131755180801 -0.00686196462665)
(0.798273144086 0.0110334239797 -0.00528251869069)
(0.800125926097 0.0227943895009 -0.00388890511901)
(0.79692312764 0.012009265278 -0.00315337041232)
(0.805762147704 0.0237314490243 -0.00311284669737)
(0.800075445321 0.0194732379135 -0.00498894462887)
(0.798180926271 0.0171291394253 -0.00237025443489)
(0.796202539458 0.00908069160851 -0.00489148792041)
(0.797054623568 0.00806408443388 -0.00431263327203)
(0.796663000941 0.0178851505059 -0.00436956584644)
(0.80071756397 0.0186977743598 -0.00462873580839)
(0.798267257165 0.00855891720543 -0.0044381153799)
(0.803442748939 0.0203119645598 -0.00174496917585)
(0.808182824903 0.0204329035148 -0.0024041772313)
(0.799060335095 0.0105321951877 -0.00413684081784)
(0.799105531715 0.00731312095897 -0.00484467278501)
(0.804388215491 0.0187457290638 -0.0042271408226)
(0.798089481988 0.00863611247456 -0.00242201812067)
(0.807032325713 0.0222161436766 -0.00377096499911)
(0.79589976044 0.0111251112362 -0.000108013843367)
(0.794674561588 0.0107003484983 0.00148312525987)
(0.796971115145 0.00451798584012 0.000155122709476)
(0.79824776539 0.00358791357884 0.0011066724955)
(0.794606382759 0.0118712192512 -0.000532533061072)
(0.795980189322 0.00984033391167 0.00106980286794)
(0.798255216383 0.00457691370275 0.00072293869865)
(0.796983417823 0.0121541740675 -0.000685935674263)
(0.797307493365 0.0145625602424 -0.00350453317174)
(0.797508614737 0.00575248053854 -0.00126419307803)
(0.79716452066 0.00522219531745 -0.00190862429153)
(0.795944657156 0.0135376537099 -0.00147941057799)
(0.798005877455 0.013403515409 -0.00316022718707)
(0.797599651189 0.00518778285241 -2.34379797608e-06)
(0.798039484844 0.0109920767 0.000152873371741)
(0.800003702809 0.0109029779156 -0.00218030540275)
(0.797523169403 0.00470956534978 -0.00126690990797)
(0.7985245586 0.00381724016749 -0.000652019380436)
(0.798960125808 0.011952678453 -0.00207666910661)
(0.799016779894 0.00982799721024 -0.000846095468162)
(0.798286083815 0.00387496034892 0.000479401016768)
(0.803183100724 0.0150391386825 -0.00426383722655)
(0.799517260434 0.0155834219993 -0.00250391676128)
(0.79763550061 0.00697308228219 -0.00330473598725)
(0.798343756567 0.00492463866761 -0.00339306545769)
(0.801929275098 0.0169808646558 -0.00444444144261)
(0.800461150415 0.0136426514115 -0.00380310890148)
(0.799847727874 0.00615233592158 -0.00311303598077)
(0.805499559837 0.0154719555389 -0.00188762117303)
(0.808530733299 0.01800002048 -0.00274650962389)
(0.799972968713 0.00860459351267 -0.00415691898698)
(0.799582866769 0.0059874452391 -0.00215355851217)
(0.8050724828 0.0179398463739 -0.00429049632495)
(0.799439609134 0.00705928693199 -0.00130597350649)
(0.807656696359 0.0154797256774 -0.0027683751141)
(0.803652650402 0.0132874767509 -0.0035088801203)
(0.801853612221 0.0116237471034 -0.00151196090659)
(0.798868337681 0.0057110018439 -0.00290498840272)
(0.798157892698 0.00492316420974 -0.00191166891605)
(0.801241249786 0.0130365915778 -0.00295556102375)
(0.803487980256 0.0121638565725 -0.00280745674087)
(0.800002866618 0.00496869862285 -0.00279963585156)
(0.80570497624 0.0130904389784 -0.00138310581664)
(0.807687962224 0.0121142806973 -0.0020228055023)
(0.799755667029 0.00484613658259 -0.00172856135562)
(0.799763925075 0.00375987346849 -0.00287210741991)
(0.805547180422 0.0117071542816 -0.00300060949749)
(0.799717117385 0.00403626128697 -0.00114203681006)
(0.807547277026 0.0134347474898 -0.00196342039548)
(0.804507207305 0.00943174608599 -0.00339408206655)
(0.802540153954 0.0102208791256 -0.00159075880222)
(0.798487277499 0.00407429588461 -0.00181773186856)
(0.799029841917 0.00294143757065 -0.00266736150651)
(0.803850282768 0.0107446222833 -0.00258690672633)
(0.802988820086 0.00874441636457 -0.00331782718308)
(0.799899957942 0.00355150503591 -0.00257517306713)
(0.807613633766 0.011092851838 -0.00225373640871)
(0.799942073873 0.00504989745899 -0.00283470707967)
(0.805710016057 0.0112189466848 -0.00299487552592)
(0.807058894463 -0.00419315084611 -0.000192410713913)
(0.804538657255 -0.0054123124585 -0.0003559610841)
(0.802623308935 -0.00513823729176 -0.000479524697649)
(0.802184407382 -0.00311760365839 -0.000676875213492)
(0.803283804473 -0.00255700098162 -0.000649139989635)
(0.801566981202 -0.00804823865437 -0.000482013494853)
(0.806600384482 -0.00471288561822 0.000439852991873)
(0.804297367288 -0.00602681184945 -6.68815987268e-05)
(0.802390168354 -0.00565132829241 -0.000769632703612)
(0.802041204995 -0.00300778759897 -0.00224528295953)
(0.803518447962 -0.00247044519284 -0.00195855032952)
(0.801529639573 -0.00790561920045 -0.00101516700031)
(0.822544252706 0.00451532376679 0.00202963807699)
(0.818762555625 -0.000263283581298 0.00754009812143)
(0.790882595708 -0.00797500715175 0.0166679487312)
(0.787381026879 -0.00657884158847 0.0101811872569)
(0.790732609451 -0.00411142512648 0.00441253789047)
(0.79292199624 -0.00242061279777 0.0013762204257)
(0.79879038012 -0.00121162355018 -9.85443155638e-06)
(0.793682255598 -0.00237577357253 -0.000208623106082)
(0.827904939571 -0.00337663315953 -1.39839005984e-05)
(0.821490446741 -0.0125443018698 0.00284722857877)
(0.804828229129 -0.0165720792927 0.00524709899824)
(0.797722062913 -0.0129234213705 0.0028875606312)
(0.796927524983 -0.00885137301711 0.00113325356352)
(0.796724593743 -0.00569467720122 1.79149169176e-05)
(0.800081397815 -0.00332900293181 -0.000396667845217)
(0.79543357103 -0.00681434397388 -0.00039452858957)
(0.818144899269 -0.00514878439846 0.000974159544004)
(0.812809035123 -0.00902189497757 0.00130955202344)
(0.805463731896 -0.00974032322431 0.00129111980688)
(0.800883727632 -0.00825020833781 0.000825701577712)
(0.799520986568 -0.00666316212509 0.00024017040069)
(0.799179306945 -0.00473928288024 -0.000388893416073)
(0.801254165722 -0.00332843174383 -0.000558533768519)
(0.797409967806 -0.00849553532379 -0.000441325612432)
(0.813145339624 -0.00183658108776 0.000306443586493)
(0.809682931748 -0.00646656759484 0.000653818528556)
(0.804934142485 -0.00790592878083 0.00056222852473)
(0.801763984402 -0.0072689119037 0.000227880238835)
(0.800847623438 -0.00638114385855 -8.12975201536e-05)
(0.80055420765 -0.00481601020503 -0.000527052104048)
(0.802259320435 -0.0034770601858 -0.000632819198547)
(0.799342848631 -0.00948311756468 -0.000462113853594)
(0.801780807661 -0.00480132589969 -0.000517875051565)
(0.801695107634 -0.00379181921738 -0.000776770151936)
(0.802929148324 -0.00299667602117 -0.000703761360204)
(0.80068970404 -0.00896796432682 -0.00049954674812)
(0.647550348993 0.0425478787946 0.0156988733003)
(0.656455615385 0.0349866335197 0.0249287664939)
(0.729189474313 -0.00885621142169 0.0239576338767)
(0.759231325603 -0.00982503975066 0.0114392776546)
(0.778940490705 -0.00606410561244 0.00427412436481)
(0.787815415179 -0.003307030899 0.001231289154)
(0.797622576068 -0.00153196878441 -0.000868086227471)
(0.792494164998 -0.00273138219425 -0.000412198700305)
(0.78000427114 0.004738039861 0.0101641789394)
(0.786772248354 -0.0152885916925 0.0174357818834)
(0.79036378301 -0.0261556244374 0.00993504536679)
(0.790651650716 -0.0195300289101 0.00518424507434)
(0.793941019386 -0.0119201309173 0.0017558283031)
(0.794764460411 -0.00725397574447 9.87419924785e-05)
(0.800041236002 -0.0037486265273 -0.00127896194144)
(0.795071649219 -0.00723911391994 -0.000644410740062)
(0.819524830731 -0.00529230254044 0.00123786253308)
(0.812947522615 -0.0131110774147 0.00177060941143)
(0.805574084599 -0.013340366129 0.0015955629881)
(0.800376565205 -0.0107291590343 0.000778983589669)
(0.79893565416 -0.00799653200417 -0.000155984926931)
(0.798543301547 -0.00540201741281 -0.00138646561641)
(0.801361620863 -0.00360005007538 -0.00185096948379)
(0.797156046206 -0.00861481403258 -0.00092280379883)
(0.813516489954 -0.0021759547732 0.000785611895054)
(0.809919228491 -0.00550512386075 0.00099401330678)
(0.804738261179 -0.00694941421545 0.000491392122194)
(0.80118747729 -0.00679330798197 -0.00024602879354)
(0.800260830146 -0.00624009621696 -0.000837044695977)
(0.800166489091 -0.00485052457459 -0.00185196942147)
(0.802330129453 -0.00354143858159 -0.00204999685555)
(0.799055188748 -0.00955084837961 -0.00102596751511)
(0.801652088709 -0.00514020966181 -0.0012596277807)
(0.801613613593 -0.00394445436501 -0.00223509975135)
(0.803188012731 -0.00302673892999 -0.00204919874215)
(0.800644134011 -0.0090004246614 -0.00103622194595)
(0.639284597467 -0.0191689736593 0.0262209726297)
(0.644501920093 -0.0226339164667 0.0254176857202)
(0.720053027777 -0.0286622980183 0.000969573468002)
(0.755019107772 -0.0159608625471 -0.00287194065887)
(0.777067056252 -0.00772724699492 -0.00311087834099)
(0.78626479881 -0.00369316355686 -0.00396611791586)
(0.79819148556 -0.00161586604032 -0.00420925735593)
(0.791856008866 -0.00301138309414 -0.00295015859642)
(0.74272127219 -0.00282662943383 0.0248404720526)
(0.758163598397 -0.0241101895855 0.0177339395874)
(0.789741011838 -0.0276673399681 3.55348590787e-06)
(0.789249182081 -0.020390927314 -0.00100905891047)
(0.792134801501 -0.012675981352 -0.00193987621292)
(0.793488430011 -0.00761066633397 -0.00420356237341)
(0.800304003591 -0.00427821942025 -0.00412380544787)
(0.794294687685 -0.00831713596843 -0.00283137084315)
(0.821275863942 -0.00598804446593 0.0017598981025)
(0.81364771497 -0.0132432990765 -0.000288510547029)
(0.80479418903 -0.0141958022232 -0.0016952837429)
(0.798881534997 -0.0118573374824 -0.00228347766567)
(0.797596979798 -0.00944814836586 -0.00227227594471)
(0.797618322314 -0.0064309416122 -0.0044957403197)
(0.80194343767 -0.00435709629746 -0.0043298249101)
(0.797022406454 -0.00968763769527 -0.00289928345127)
(0.812406340705 0.00410041914685 0.000976593775678)
(0.813812959912 -0.00278397966859 0.00122703028549)