/*--------------------------------*- C++ -*----------------------------------*\
| =========                 |                                                 |
| \\      /  F ield         | OpenFOAM: The Open Source CFD Toolbox           |
|  \\    /   O peration     | Version:  v1906                                 |
|   \\  /    A nd           | Web:      www.OpenFOAM.com                      |
|    \\/     M anipulation  |                                                 |
\*---------------------------------------------------------------------------*/
FoamFile
{
    version     2.0;
    format      ascii;
    class       volScalarField;
    location    "8.45";
    object      alpha.water;
}
// * * * * * * * * * * * * * * * * * * * * * * * * * * * * * * * * * * * * * //

dimensions      [0 0 0 0 0 0 0];


internalField   nonuniform List<scalar> 
28582
(
0.999995500128
0.999997508521
0.999996967843
0.99999749591
1.00000097868
1.00000086039
0.999996801661
0.999993835695
0.0531978501808
0.0578663807424
1.97646684e-05
0.999995960727
0.859927242408
0.864031651297
0.999993466078
0.999994950349
0.865161831647
0.998502195955
0.998604093502
0.999994087961
0.999996476422
0.999996005812
0.999997454871
0.99999720247
0.999996618822
1.00000087992
0.999999896943
0.999985026254
0.999993404421
0.0578516588726
2.738289694e-05
-2.81086078301e-24
0.999986102187
0.999991203231
0.859290340558
0.854100281454
0.998340283105
0.999995526018
0.999994795889
0.999992858694
0.998496793225
0.862417973389
0.998579679357
0.998608570013
0.0559425273403
0.0565082429397
0.000244592875496
0.000561610858688
0.0575195249733
0.000757029688174
0.99863339016
0.998726137264
0.860736627424
0.862875975337
0.998731580713
0.863840805624
0.998643586048
0.998701425535
0.998565948331
0.862038388195
0.866212558297
0.998654189813
0.864613659281
0.998613604133
0.998568160593
0.998536160199
0.865799261319
0.867777590723
0.99860442031
0.868562419581
0.998513699562
0.998451675891
0.867114121296
0.868657722773
0.99853243434
0.866315013554
0.868488455213
0.998475954332
0.998631407017
0.869972954738
0.872370073964
0.998667318471
0.872633899279
0.998688377905
0.869846718021
0.0520747741536
0.000975045412787
0.0489817646837
0.0524275896576
0.00087820599537
0.000823750323861
0.0567004378205
0.00013256541576
0.000345238471534
0.0571201888383
0.000300728320681
0.0581059647222
0.000442244873752
0.998008433825
0.998152124505
0.854958273063
0.860711814074
0.998043641942
0.998105614581
0.856161627082
0.997930481182
0.998035616291
0.853390331369
0.854895087151
0.997998416545
0.997973229395
0.854603948257
0.857060235701
0.857291929275
0.998338817472
0.998167425163
0.855605472381
0.998188953163
0.855147988815
0.998457951964
0.866427766739
0.868199046989
0.99851263679
0.865305486544
0.998493661685
0.867153952256
0.998562651467
0.998623799791
0.863791214261
0.86327427122
0.998551046576
0.998643979679
0.865351517789
0.998596505221
0.998603129563
0.869836973126
0.872126939751
0.872140895705
0.99857752491
0.869283575927
0.870953220384
0.868475581243
0.998666041708
0.998592481784
0.864634380242
0.998633723901
0.867269219051
0.999999362594
0.999995436677
0.0585864167096
-1.25590511603e-27
0.999992096037
0.857611501051
0.99999406009
0.999994052656
0.860715627787
0.865117512957
0.853923372947
0.999991542035
0.999990351631
0.851319114339
0.847633046561
0.0549258758315
0.05782127454
0.0590372231401
0.000484394462836
0.000423817364434
0.000481368793417
0.0603084844064
0.0614198010508
0.998224471308
0.998354906591
0.856221867943
0.858394902229
0.998213135519
0.857084637081
0.998355704703
0.998755214882
0.998694511851
0.858775472424
0.861136206492
0.998708950078
0.998743037603
0.859049715057
0.998667646114
0.998682311069
0.862158201658
0.861287959626
0.998672029376
0.859809781097
0.998657929562
0.998626707553
0.998493692626
0.854631649262
0.857772874866
0.998531408499
0.857240740854
0.99859630011
0.99814657113
0.998327062728
0.852449148628
0.848641113
0.998369432704
0.850145708507
0.998111864314
0.997866155385
0.997512333724
0.849521499499
0.847638051135
0.997546782138
0.849498690463
0.997828353447
1.00000236802
1.00000143545
0.999998440433
0.999999101181
0.025597788052
0.0280277375392
0.0243266777159
0.0259950066431
0.0259788284545
-4.13590306277e-26
1.16561385879e-05
0
1.27139031968e-06
-9.36437328041e-27
2.21683943912e-07
1.00000402016
1.00000485276
0.950291212163
0.949700870431
1.00000415882
0.949362599339
1.00000253953
1.00000290615
0.949129629248
0.948344625357
1.00000068233
1.00000184959
1.00000120845
0.948902642242
0.947423941097
0.948035968107
0.947319332183
1.00000059576
1.00000106908
0.946863150938
0.944706221621
0.947105795042
0.944283648413
1.00000003442
1.00000020237
0.948226803668
0.947741700106
0.94894607546
0.999998866954
1.00000051641
1.00000018829
0.94751083024
0.944835493957
0.948035008913
0.945338758244
0.947542078704
0.944814531371
0.0246022184878
0.0245987987829
0.0259453542734
2.39615026627e-05
1.20430006846e-05
2.34031948239e-05
1.37374260737e-05
2.33131737923e-05
0.000158364398595
2.54516641812e-05
0.000127523383907
0.024524272424
0.0242039454959
0.026735217359
0.0251655708015
0.0259655646925
2.33769206104e-05
1.37367957641e-05
1.85018267144e-05
8.72069009221e-06
0.0293929645234
0.0269029943894
0.0285406403175
1.85469996164e-05
5.53453621891e-05
8.96641467904e-06
5.22809450907e-05
0.0250481804302
0.0241775511635
1.42339699703e-05
6.92443339041e-06
6.08175286753e-06
0.0279823909561
0.0256908839295
0.0280045676462
1.10890103466e-05
4.1456293997e-05
7.68419054106e-06
2.99151289392e-05
1.00000492676
0.999996830313
0.950732601991
0.950074224202
1.00000532015
0.950701739018
1.00000544041
1.00000146289
0.999992408639
0.95001643648
0.950043760406
0.999995965624
1.00000236199
0.950652084263
0.999978055238
0.999987756078
0.949549791962
0.9488507841
0.999990552157
0.999986831149
0.949136040877
0.999992207637
0.999990453396
0.949384095767
0.948784725917
0.999994217278
0.999992958128
0.949173046563
0.999990771015
0.999986422494
0.948198739017
0.948752299999
0.999984975061
0.999991680244
0.948680502547
0.999974006116
0.999986063358
0.948456851801
0.948308140162
0.999979661351
0.99998856091
0.947943475137
0.999949964928
0.999928972375
0.947915941754
0.947327286453
0.999965443694
0.999925797716
0.947656155294
0.999947133484
0.999972320167
0.947771375794
0.947738176953
0.999971505314
0.999943275038
0.947477151794
0.999929851392
0.99990149575
0.947215103773
0.947528124626
0.999912953759
0.999910082393
0.94737073418
0.999817700512
0.99986217492
0.946252834794
0.946764364148
0.999788679205
0.999886549528
0.946042222159
0.99975564438
0.999757436955
0.945470331704
0.944213304235
0.999763538841
0.945203364328
0.999731787476
0.99985442965
0.999899121521
0.946896837807
0.946837218479
0.999888004076
0.999893346173
0.946379634706
0.999800288218
0.99984074287
0.94431063505
0.945964545985
0.999878318912
0.945584219543
0.99976284568
0.999956610869
0.999970426908
0.948097458166
0.949020271968
0.999941179028
0.999979940218
0.948833589864
0.999921161585
0.999900314736
0.94793092067
0.948509779049
0.999905607022
0.999886901513
0.948680579352
0.999915681072
0.99994063118
0.948904466034
0.949633823697
0.999916029149
0.999946883314
0.949311575912
0.999895140913
0.999899294337
0.947196701794
0.948183932891
0.999900307577
0.999891595697
0.947545743625
0.999894291129
0.999872984743
0.946403850617
0.945374013223
0.999896038954
0.946639599739
0.999895620078
0.999915805014
0.99992632071
0.94827271016
0.947055556927
0.999920262613
0.999907741005
0.947436757391
0.999907426551
0.99990297327
0.945597020991
0.946164864401
0.99990876733
0.94648072031
0.999905605831
0.999914336486
0.999926079065
0.946528706456
0.946946062033
0.999901922071
0.999934295982
0.945907879189
0.999886184959
0.945648110871
0.999889718827
0.999994867132
0.999997993265
0.999998957611
0.99999580831
0.999990434973
0.999981618505
0.999997490137
0.99999771519
0.999997979071
0.999992373326
0.999987358967
0.99998725042
0.999961436634
0.999977652561
0.999973554079
0.999987291287
0.99999875512
0.999999778878
0.999996923181
0.999962798499
0.999993594581
0.99999368785
0.999979168313
0.999981010956
0.999992281958
0.999997059967
0.99998862128
0.999978547302
0.999991651794
0.999994225182
0.999997092884
0.999998481111
0.999999007165
0.999997850981
0.999989110296
0.999989939867
0.999992573204
0.999995756807
0.999998886212
0.999998957256
0.999997849222
0.999990476573
0.999986980708
0.999993632366
0.999998028281
0.999990934113
0.999986983762
0.999990987353
0.999816662858
0.999981047131
0.999999099453
1.00000288993
1.00000207164
0.999984218568
0.999840602548
0.999823733766
0.999913614658
0.999921589332
0.999993692183
0.999998490808
0.999999973051
0.999999312706
0.999985859933
0.99995571532
0.99998139637
0.999985534544
0.999994631437
0.999998847404
0.999999086655
0.999998529301
0.999995384909
0.999993246289
0.999998318381
0.999999003851
0.999999144812
0.999998911817
0.999998252373
0.99999691208
0.999995813635
0.999996949876
0.999997276089
0.999994771306
0.999993631543
0.9999956879
0.999809284052
0.999994131276
1.00000776113
1.00001496043
1.00001099657
0.999998794278
0.999907747114
0.999901444535
0.999876704693
0.999957908833
1.00000242213
1.00000836484
1.00001275327
1.00001232466
1.00000660058
1.00000001753
0.99999609043
0.999999546845
1.00000170769
1.00000301602
1.00000364277
1.00000350992
1.00000315533
1.00000246238
0.999999969401
1.00000122046
1.00000190725
1.00000184901
1.00000129505
1.00000075557
1.00000072193
1.00000100422
1.00000130737
1.00000201075
1.00000169751
1.00000144499
1.0000015741
1.00000167386
1.00000192372
1.00000208699
1.00000010142
1.00000083161
1.00000195649
0.999955227352
0.999999378905
1.00000427019
1.00000432533
1.00002528031
1.00003209955
1.0000115007
0.999976878524
1.00000057013
0.999997209212
0.999998348525
0.999999566524
0.999998460213
0.999999974463
0.99999943046
0.999987196409
0.999974802789
0.999999435302
0.999997769707
0.999993685022
0.999996015747
1.00000003874
0.99999927767
0.999996821653
0.999995257041
0.999988658291
0.999989331765
0.999996556592
0.999991140822
0.999996335787
0.999998378869
0.99999779393
0.999995798689
0.999993422853
0.999991168717
0.999990256115
0.999991449931
0.999990811929
0.999990895384
0.999990530642
0.999990594005
0.999988474621
0.999989611968
0.999995809105
0.99998812906
0.999990725592
0.0444772601613
0.051624677352
0.0581286414775
0.0579494777256
0.0554990728702
0.0569428771037
0.0607893089188
0.0631284162991
0.0314746264815
0.0381493282226
0.0438278039871
0.0509982018269
0.0560981565959
0.0563635729527
0.0551377204115
0.0565834985495
0.0614309579273
0.0618372129008
0.0316600203084
0.0400067535389
0.0454372873846
0.0509827162494
0.054315696615
0.054504208272
0.0548883489247
0.0576381221843
0.0611536657318
0.0593375031675
0.0423013649794
0.0479549537102
0.053378045314
0.0554530097772
0.0557975693042
0.0567564979074
0.0586750349949
0.0593789339232
0.057911770823
0.0555059119506
0.0585907619059
0.058310297782
0.0581093511177
0.0590567457454
0.0591066548744
0.0582611915396
0.0599116343262
0.0602317481577
0.0593052313652
3.36039243351e-05
1.02135198009e-05
1.77644442766e-05
1.0458187276e-05
1.06787842253e-05
1.02379922778e-06
1.66380056097e-26
3.73156629889e-07
7.59618911502e-26
7.02328890059e-05
4.33986481125e-05
4.46478908931e-05
7.76924415254e-05
-4.12483241107e-24
-9.41110392111e-27
1.21374540366e-05
1.13045898754e-05
4.2854296589e-07
-1.19014954831e-25
4.22730960091e-05
2.75211549918e-05
1.64509368591e-05
7.99203708574e-06
-1.32348898008e-24
-1.11552228317e-26
-1.84186326908e-28
3.70704922302e-05
2.0453324782e-06
-6.09124037138e-28
2.80499335628e-05
1.66833485056e-05
3.58123718542e-06
-1.64569209115e-37
-1.84096633176e-28
8.68874204495e-08
5.8217926661e-05
2.5037752905e-07
-5.2742418674e-28
2.74977719112e-05
1.24600359714e-05
1.92609425933e-05
7.41122307372e-05
1.78556495506e-05
-2.73586625406e-26
-7.72966152989e-27
4.69167060372e-05
-2.76949519413e-27
-4.26152102416e-26
7.93936754904e-05
0.999955782371
0.999993744307
0.999993517713
0.999866258618
0.999939288561
0.999930195336
0.999955053955
0.999992344831
0.999994342712
0.999994461083
0.999981706939
0.999976377901
0.999978328095
0.999971679219
0.999992192633
0.999994514195
0.999991984727
0.999983045181
0.999983313513
0.999992162841
0.999990216372
0.999994342618
0.9999664843
0.999963647845
0.999987991327
0.999987330178
0.999960179762
0.999971435033
0.999916437933
0.999784942425
0.999896969092
0.999784771472
0.999908643974
0.999785113036
0.999871303924
0.999994253454
0.999968978384
0.999983900369
0.999985808196
0.999997893812
0.999972350557
0.999994171935
0.999874784441
0.999987422967
0.999963873067
0.999811375392
0.999843360727
0.999953945578
0.99992462176
0.999974777017
0.999946449016
0.99997176671
0.999941389469
0.99998635295
0.999951002499
0.999985808424
0.999938213741
0.999828832776
0.999922239463
0.99988989974
0.999984058875
0.999896423316
0.99998261218
1
0.999988236679
0.999999994363
1
1.0000000722
1
1.0000043376
0.99989649358
0.999971056287
0.999969932098
0.999960442169
0.999969649322
0.999996954237
0.999997781896
0.999993869727
0.999976717972
0.999993564487
0.999994768654
1.00000006343
1.0000005568
1.00000428288
0.999968650497
0.99998809563
0.884575346264
0.88302612844
0.999984318511
0.999984065377
0.999994384488
0.875562529344
0.84795550955
0.874729522058
0.850869812192
1.00000335987
1.00000334152
1.00000641456
0.845294542625
0.846684565652
0.849083918837
0.85294302223
1.00000225244
1.00000182731
1.0000016397
0.850623988739
0.86276052077
0.856647360067
0.867045332702
1.00001401218
1.00001066414
1.00002280544
0.866064069283
0.87457323308
0.869359119219
0.875079573528
1.00003144811
1.0000323704
1.00003760535
0.875883292814
0.879531439418
0.875762046256
0.878848856416
1.00002710761
1.00003671373
1.00002956742
0.878861589668
0.867915295805
0.878102750344
0.865620096083
0.999997886896
1.00001825914
1.00000628507
0.864997303034
0.861145788923
0.860628046142
0.849343698915
0.99993630354
0.999998432649
0.99996211621
0.864715626431
0.831014075841
0.853866577419
0.846494443587
1.00000092079
0.999999336219
0.942475498128
0.923094708509
0.941503150983
0.924809765856
1.00000002663
0.999998497232
0.999995788898
0.914509586611
0.882624577114
0.914914955138
0.879281706839
0.999998211619
0.999992944752
0.999987327543
0.874382826901
0.852311411132
0.870006398246
0.85500739773
1.00000237265
0.999993234828
0.999995783918
0.851763399373
0.855703606323
0.855697272815
0.863700318198
0.999997523024
0.999999984613
1.00000192646
0.858878547916
0.867938885568
0.866314229745
0.87486469273
1
1.00000215562
1.0000035446
0.869845886156
0.875409523325
0.875801716032
0.878409803844
1.00000130887
1.00000380132
1.00000382696
0.875996057647
0.878680809202
0.878410974452
0.876061756902
0.999994804402
1
0.999997024162
0.877457906157
0.862713332413
0.871729899322
0.854918164274
0.999980720164
0.999991327918
0.999984771375
0.857440424053
0.847541700368
0.851798990818
0.848211373483
0.999980472332
0.999983998523
0.999992017721
0.853111225249
0.85065347655
0.855860245358
0.854902232167
0.999998796351
1.00000022771
1.00000040727
0.94168573973
0.923617628027
0.943479383726
0.920409218656
0.999994521013
0.999994566022
0.999989883662
0.913206382259
0.876983750552
0.906079451958
0.865631737941
0.999995648664
0.999993213372
0.999993605247
0.868189124872
0.856878402968
0.859105089061
0.857288591339
1.00000060556
1.00000264543
1.00000339553
0.857665530836
0.865658879474
0.85951523165
0.868102384154
1.00000070392
1.00000463399
1.00000510522
0.868105344899
0.876094244825
0.870738041226
0.876832694239
0.999998751941
1.00000313236
1.00000315008
0.876978846352
0.879161426922
0.877753008675
0.878974251771
0.999996637596
1.0000002834
0.999998876023
0.878867511808
0.873986931288
0.877342163309
0.865148174162
0.999992842201
0.999996140202
0.999993316465
0.868883861659
0.853933587367
0.860899471802
0.8536804483
0.999989751529
0.99999325935
0.999991618761
0.851915987188
0.850461348516
0.853740515831
0.855808572088
0.999997305732
0.999994807303
0.999999982136
0.858252671746
0.855522380726
0.862488437092
0.857621039912
0.942428435622
0.917512712295
0.999989920443
0.999985772785
0.902879023828
0.863179215827
0.863604074051
0.999996872755
0.999988599681
0.999992058906
0.857471716133
0.856929387752
0.857615197717
0.854327018909
0.999998789662
0.999996262988
0.99999887267
0.85917662812
0.867276716512
0.855922349869
0.861859832734
0.999998030642
0.999998926051
1.00000042448
0.86979901784
0.875653965396
0.863940174987
0.869794138932
0.999997009355
0.999997005704
0.999997222805
0.876613085586
0.877417696854
0.870316742969
0.86549413216
0.999993362387
0.999994623409
0.999993020434
0.874896266426
0.862721102099
0.863249657708
0.859587772563
0.999994022273
0.999994331224
0.999994841062
0.859491193458
0.854371616515
0.8583777182
0.8547465128
0.999991489624
0.999995007236
0.999992002324
0.854558784011
0.856569701771
0.854923090888
0.856596199978
0.999996000572
0.999993723978
0.999999209601
0.862630436558
0.857785019369
0.862153388024
0.856730503429
0.999990460026
0.999991206578
0.855249795481
0.860656754086
0.862206786085
0.999988769976
0.999989358317
0.999991156154
0.862474458029
0.868006688477
0.863812412964
0.867453597363
0.999989066801
0.999990824416
0.9999917932
0.867697964236
0.863407961102
0.868322184912
0.864135105128
0.99999041491
0.999992608429
0.999993729453
0.86242663767
0.858656764878
0.861605055597
0.855941265373
0.999990524933
0.999994644607
0.999994185172
0.857665587594
0.854121241775
0.854434608413
0.851164668785
0.99998918905
0.999993147805
0.999992227478
0.854509297667
0.855906988566
0.852177378813
0.854562823425
0.999995839823
0.999996116444
1
0.861152366225
0.857421253716
0.859249640398
0.855203725599
0.999996956372
0.855260179095
0.999992684246
0.853717932655
0.850838756392
0.999988773246
0.851853729573
0.853804931313
0.999998916373
0.858464768521
0.854837618377
0.000477404412281
0.00065104218735
0.000458672572635
0.000699979211916
0.0415529863062
0.041032340826
0.000512604180683
0.000401214392683
0.000500976288582
0.000448129872998
0.0480436272734
0.0440431478431
0.0475030887127
0.000519846627862
0.000735519072514
0.000618464900949
0.00078073657243
0.055953357807
0.0511513083563
0.0549911412957
0.000790005582372
0.000671795582843
0.00069850265001
0.000511169895072
0.0593456840653
0.0572698927653
0.0581287209471
0.000556860964819
0.00031625754808
0.000302261746864
0.000196456086987
0.0557058070176
0.0572440743377
0.0554018079859
4.88334474539e-05
1.73589849258e-05
0.000139940579302
5.5946451095e-05
0.0555244245764
0.0553358610462
0.0552296882921
9.03968484859e-06
1.91395651857e-05
1.17974171654e-05
1.54609103278e-05
0.0588254571969
0.056618994248
0.0587644790062
0.000165900500887
0.000503725273509
7.56203837789e-05
0.000450973163167
0.0627231735352
0.0609895701098
0.063382585262
0.00050229983319
0.000504773336846
0.000523622913231
0.00058586915264
0.0641099334627
0.0623332852332
0.0653833297586
0.000718082449406
0.00170766902148
0.00076935917816
0.000974506292185
0.0346449025148
0.0315011403948
0.0351149545333
0.000328831130845
0.000732615327442
0.000221806761429
0.000664025484017
0.040926183702
0.0387750234008
0.0416730195797
0.000628796427884
0.000688503636035
0.000652037409763
0.00075970460227
0.0472605754509
0.0444934758918
0.0474833166318
0.00101879765171
0.00101792741967
0.000958427931743
0.000892295843965
0.05382090168
0.0506872894305
0.0527309022435
0.000469344658548
0.000256958467455
0.00039793898292
0.000207555878237
0.0567314179758
0.055057061423
0.0551905528237
0.000130183724762
6.21462133223e-05
0.000108807063062
4.59050188465e-05
0.0550681797416
0.0552474454367
0.0546146242781
0.000159803512345
0.000192061548978
8.73593996744e-05
0.000127913622604
0.0551329499161
0.0548442264526
0.0554410120915
0.000101862086755
3.6807439069e-05
0.000235181813832
0.000220433982227
0.0590867182349
0.0570173610035
0.0596043322983
0.000164038061768
0.000485823887465
0.000390452394941
0.000567706649854
0.0634823608989
0.0616821093603
0.0628748645848
0.00058407601086
0.000625140651887
0.000598355930658
0.000606411597855
0.0648456200502
0.0605474101996
0.0635080891828
0.0006670108048
0.000617824000632
0.000506010847579
0.000582702886074
0.036190756201
0.0320435084391
0.0373846552266
0.000179014246742
0.000579820835315
0.000149336495191
0.000494306105069
0.0427155024382
0.0413844312225
0.0440540072506
0.000573266931314
0.000667076735649
0.000618848109988
0.000727192209326
0.0481193399041
0.0465545937872
0.0493206740956
0.000655980398264
0.000608270508549
0.000664921223019
0.000581515775973
0.0524008864056
0.0518117143279
0.0529679061321
0.000387121676336
0.000216061392997
0.000375702589088
0.000239004705145
0.0542413704044
0.0542490479915
0.0542587239749
0.000105137972657
4.0229078285e-05
0.000138814696059
6.1024080088e-05
0.0544405260428
0.0545573937176
0.054863641423
3.22499354356e-05
2.81485328287e-05
4.66680418312e-05
3.83791398255e-05
0.0557781614147
0.0555891188455
0.0566660955792
0.000151029059835
0.000537394403853
0.000256709150999
0.000779011045628
0.0597186166911
0.0581990689962
0.0595070705723
0.000525470607907
0.000619931646109
0.000608917190742
0.000625099718067
0.0616382695684
0.0602030191526
0.0602728269366
0.000585045996108
0.000545571044536
0.000552799692479
0.00044905829038
0.0623421904922
0.0583151741894
0.0611764006911
0.00035367813044
0.000450006430352
0.000303545783981
0.000414008020182
0.0452475105333
0.0458341106614
0.000647708482685
0.00075034746291
0.000723192039913
0.0511211183866
0.0489464549992
0.0524224154458
0.000675003889376
0.000578988970782
0.0006717928754
0.000588260684117
0.0544021531026
0.0551865082017
0.0564146310941
0.000387461368783
0.000257257005452
0.000439386252158
0.000324273331265
0.0555854516713
0.0575257168203
0.0575871883778
0.000163038833709
8.14257523951e-05
0.000239979902313
0.000198591190407
0.0559817445673
0.0576914247918
0.0577073488393
9.34805148991e-05
0.000156799340121
0.000290721139723
0.000347411793597
0.0575431558713
0.0580373741819
0.0580774339421
0.00048360075403
0.000977328355731
0.000807685975764
0.00108499289073
0.0592795609991
0.0588282197603
0.0591647127741
0.000632041732016
0.000589213093558
0.000626650283847
0.000569544125624
0.0592192975405
0.059029654778
0.058804764813
0.000511813246661
0.000417020697231
0.000502697781448
0.00043913541695
0.060439623966
0.0579076357175
0.0600923825047
0.000310267806792
0.000382353161915
0.000408028353482
0.000463421974237
0.0571457743115
0.0570035527591
0.000649484480194
0.000553929699497
0.000761994801653
0.000663910055165
0.0584892192218
0.0584812689484
0.0581854481215
0.0004782996354
0.00046384466802
0.000666297010442
0.000797066403928
0.0579549720577
0.0571117186446
0.0569234023111
0.000674633746246
0.00086232054334
0.0013288651106
0.00140895289166
0.0587193027197
0.0581943222947
0.0591276805028
0.00112441933932
0.000832722221203
0.000960181142588
0.000699193865077
0.0593957121314
0.0596174970657
0.0599545961272
0.000542251731998
0.000512536854639
0.000527252977904
0.000509875717628
0.0589739303685
0.0595546772101
0.0595379376987
0.000473668724463
0.00043262191478
0.000485320868703
0.000462383602605
0.059779954353
0.0589056689568
0.0595776920168
0.000472550557254
0.000675734331478
0.000550414218341
0.00112706100598
0.0594003805366
0.000496776739538
0.0605879493243
0.00052275827782
0.000538415586526
0.000527127766863
0.000539089912068
0.0605919598162
0.000515373059513
0.000529669172332
0.00052875825021
0.000561793793243
0.0595075545077
0.00068319482366
0.00151717475481
0.000779299065518
0.00170253761177
0.999516338342
0.999404254724
0.892059085356
0.884498722729
0.999398782027
0.89242252796
0.999520070335
0.999473651386
0.999259043473
0.884096060357
0.892724085503
0.999351989628
0.999430434409
0.892757237395
0.999093744945
0.999272309233
0.866176870062
0.875575786991
0.999246941076
0.866358537908
0.999094310601
0.998908733589
0.998737019973
0.856923382205
0.849034866701
0.998798838349
0.857621876241
0.99888187915
0.999093033999
0.999142309848
0.875311968794
0.86660409307
0.999235395808
0.999015697544
0.866688212649
0.998913972618
0.998779799877
0.850346685311
0.858786764591
0.998820346354
0.998838178554
0.858600188247
0.998718040524
0.99861998472
0.843839954506
0.846104035598
0.998751775177
0.8449118594
0.998662207957
0.998700024508
0.998589897814
0.844615115671
0.848041292762
0.998627022058
0.845812265852
0.998669783472
0.998730903332
0.998692307158
0.848112729168
0.849513366923
0.998731070998
0.99871870929
0.847136724746
0.998744855273
0.998724458164
0.850298137276
0.850619211882
0.998712961546
0.998741935158
0.848111830235
0.998345031269
0.998371888044
0.856132070944
0.851849806154
0.998434969444
0.857268610089
0.998277223507
0.998343032474
0.998314938228
0.859946822001
0.864203929545
0.998366836721
0.861314543587
0.998280102873
0.998468926159
0.998618169389
0.853883130136
0.861543377191
0.998576360874
0.998529404522
0.859077143988
0.998443261041
0.998527339323
0.865174700255
0.864818017945
0.998449271612
0.998520697286
0.86276670661
0.998636886863
0.99840480332
0.870144868899
0.867176130328
0.998442333139
0.870885741618
0.998624153593
0.99888543534
0.999014692766
0.873069015318
0.875172515837
0.99904398763
0.873916442126
0.998922367537
0.998643878108
0.998555809649
0.86756790049
0.872033470206
0.998492973282
0.99864570566
0.870895145318
0.998882632795
0.999051363479
0.87495712016
0.87402248717
0.999056390791
0.998853598121
0.873642437381
0.999047468272
0.999010227968
0.877672610967
0.876000337248
0.999048641367
0.87739333423
0.998993243482
0.999039556458
0.998985239268
0.879201623568
0.879321858706
0.999028130157
0.879103558914
0.998995833006
0.999128990387
0.999107583264
0.875650640971
0.876996985123
0.999098624081
0.999114774407
0.876871846082
0.99914753566
0.999155368048
0.879122410307
0.878762315924
0.999150983713
0.999145509463
0.878715197919
0.998809061898
0.998911063121
0.876809362722
0.878350073203
0.998975303703
0.876270583076
0.99869716399
0.998559158299
0.998386565288
0.872400526796
0.867475771007
0.998347236773
0.871968033052
0.998456593944
0.998980867903
0.999133271389
0.878688204183
0.875827548983
0.999126344935
0.998994590522
0.876614750781
0.998669053663
0.99829697408
0.866891756606
0.871219138365
0.998326878476
0.99867398253
0.871889460567
0.998387181035
0.998413352025
0.863475528542
0.864298384364
0.998360018037
0.862315805114
0.998455223837
0.99842120354
0.998580056731
0.862188416916
0.858217814723
0.998485727276
0.860127980595
0.998515231942
0.99803737109
0.997936923784
0.862878325634
0.856460261329
0.998048615287
0.997746590968
0.859637068544
0.998054709856
0.997717738354
0.853202796176
0.851716295277
0.998107226425
0.997701153551
0.855635996263
0.99820389025
0.998646732146
0.859472023707
0.861737570652
0.998492005736
0.856984151731
0.998373048919
0.996782178342
0.997017153523
0.827875427839
0.836514833335
0.82740875954
0.997089023276
0.996700499073
0.997527101346
0.997627038371
0.85707841159
0.851047064008
0.998007140507
0.997206442503
0.852847010298
0.995952920329
0.996428212501
0.843629159581
0.82480905424
0.99583472116
0.823650865806
0.996470347586
0.999701165037
0.999754107593
0.93800076514
0.941692022646
0.999747459794
0.937443099721
0.999718819003
0.999696941889
0.999661217452
0.930878460874
0.924469037122
0.999703268977
0.999653743264
0.931629710818
0.999686732772
0.999769600554
0.94147494217
0.937921918738
0.999729532204
0.937859750373
0.9997246224
0.999641733606
0.999622763924
0.925139144795
0.932229917017
0.999587942253
0.999692209014
0.93224181024
0.999417069733
0.999596882432
0.903821804942
0.914947340331
0.999452493781
0.999576410536
0.903931749649
0.999238909637
0.999052070075
0.892735270384
0.882738443817
0.999254742464
0.99902264792
0.893205136151
0.999345327378
0.999524061708
0.915612202824
0.903282836483
0.999501569719
0.999349695336
0.903844921796
0.999160196837
0.998900288823
0.881384253554
0.891016872736
0.998914035377
0.999142450042
0.892425046873
0.998587626822
0.998868512925
0.866802488176
0.873248408996
0.998703862494
0.998799350052
0.864878470455
0.998408787074
0.998474872249
0.859583102104
0.853622403866
0.998518427618
0.998372538599
0.858944382521
0.998450432587
0.998652431837
0.871876889023
0.862349354586
0.998663234728
0.998450940131
0.863682350526
0.998273897308
0.998364260145
0.854701671789
0.857316956745
0.998319431092
0.998295325143
0.858485514001
0.998354981679
0.998394519795
0.852327022835
0.852660856921
0.998415559588
0.998346225009
0.853791744005
0.998411932043
0.998524580063
0.853529343944
0.858807693866
0.998474310261
0.998509281332
0.856076550548
0.998412856295
0.998427774239
0.854935457755
0.857954907215
0.998360080095
0.998474097226
0.856467802916
0.998484607032
0.998640301013
0.861497178972
0.860802937484
0.998593138609
0.998548883299
0.858919094776
0.998501534554
0.998505336943
0.863501218697
0.861626283574
0.998478371388
0.998512224677
0.865616102929
0.998478683254
0.998480756631
0.866281693662
0.87035605379
0.998478306384
0.998486896793
0.868645589888
0.998651699999
0.998678462088
0.863976486953
0.869911678687
0.998628364391
0.998702885369
0.867590178674
0.998676462277
0.998785476834
0.872520197245
0.872870631339
0.998698662378
0.998757376447
0.870652260556
0.998519358809
0.998483766101
0.872234209392
0.871634354362
0.998519479906
0.998491659026
0.873254958145
0.998594887994
0.998836508503
0.874232020082
0.876511575321
0.998658736006
0.998728578725
0.875182323036
0.998670462819
0.998770248856
0.873506111658
0.876637199418
0.998688522736
0.998716925476
0.874757616842
0.998675922614
0.998721139765
0.877511218715
0.877680217961
0.99872151923
0.998706757115
0.876440081853
0.998853129376
0.998910145426
0.877148085886
0.876913629276
0.998921356256
0.998806879892
0.877576285366
0.998855508556
0.998951906597
0.878688436165
0.878594953689
0.998947227186
0.998865249406
0.878531969097
0.998744961601
0.998730251271
0.877468288207
0.878558284775
0.9987502215
0.998726809599
0.877738464741
0.99874997815
0.998754234356
0.877354830554
0.877927907959
0.99876660583
0.998722294442
0.877919733632
0.998709359439
0.998935994917
0.874390894767
0.876893966771