/*--------------------------------*- C++ -*----------------------------------*\
| =========                 |                                                 |
| \\      /  F ield         | OpenFOAM: The Open Source CFD Toolbox           |
|  \\    /   O peration     | Version:  v1906                                 |
|   \\  /    A nd           | Web:      www.OpenFOAM.com                      |
|    \\/     M anipulation  |                                                 |
\*---------------------------------------------------------------------------*/
FoamFile
{
    version     2.0;
    format      ascii;
    class       volVectorField;
    location    "8.45";
    object      U;
}
// * * * * * * * * * * * * * * * * * * * * * * * * * * * * * * * * * * * * * //

dimensions      [0 1 -1 0 0 0 0];


internalField   nonuniform List<vector> 
28582
(
(0.815660702522 0.00347417813377 -0.000244439083367)
(0.816258129293 0.00210799123342 -0.000106995125486)
(0.816346657155 0.00360169675907 0.00113018990492)
(0.816328387436 0.00223888162593 0.00100148220321)
(0.817005521277 0.00366850822997 0.00236036121162)
(0.81609549822 0.0023323871157 0.00162687931354)
(0.820711521117 0.00614852179848 0.0057781958132)
(0.816269061942 0.00440641931526 0.00405687482606)
(-0.0875794087124 -0.0776203913202 0.0162950203988)
(-0.0405309637852 -0.08176439798 -0.00403201665679)
(-0.716958683067 -0.093156689885 0.253383846597)
(0.817176494799 0.00483653104625 0.00635176360123)
(0.768107784235 -0.00161771070414 0.00840857463802)
(0.766422980239 -0.00410445489873 0.00887644959367)
(0.814329931814 0.00321546660081 0.00228814133251)
(0.813779971063 0.00211825201676 0.00306727604461)
(0.765803590215 -0.00495969332818 0.00766627012698)
(0.810451300752 0.00396911066886 0.00353351201966)
(0.810173216327 0.00338707793976 0.00510326141562)
(0.815113300786 0.00678122108285 -0.000772495097705)
(0.816813687215 -0.000238285561069 -0.000179983730972)
(0.815747271575 -0.000844144132454 -0.000468834785242)
(0.816019271208 0.00705350639859 -0.000630207353403)
(0.816547129663 0.000155830790716 0.000612961243696)
(0.815684686763 -0.0008683515761 0.000198507997027)
(0.818321961808 0.00767501074684 -0.00173091209987)
(0.815985426329 0.000344280520873 0.000318334258363)
(0.823255556616 0.00976991677083 -0.00214598730872)
(0.814825131677 0.00265536490067 0.000642740977358)
(-0.0975030229627 -0.069344555502 -0.00941549359428)
(0.331892736166 0.826820015011 0.0457910514731)
(-0.308173084261 -0.278735613925 -0.394993193545)
(0.824505425744 0.00799232649963 0.00260826137952)
(0.823033400209 0.00836880629399 0.00336857422723)
(0.773138129883 0.0021763240446 -0.0102742865666)
(0.767963295206 0.0013467432399 0.00197340374748)
(0.824608818432 0.0092625046052 0.00246915837229)
(0.8157501464 0.00196365131364 -0.00105201364999)
(0.813948584976 0.00166435936044 0.00121984384159)
(0.814554549029 0.00090227724192 -0.000510414236823)
(0.810921929129 0.0034481287033 0.0024435669536)
(0.768080175116 -0.0112795584563 0.000176321266719)
(0.810361804765 0.00267807535399 0.00394680902187)
(0.810876819525 0.000571003222174 0.00135151979444)
(-0.00685030729786 -0.0940085515237 0.0189675808392)
(0.127946989709 -0.0291020266497 -0.000431310063879)
(-0.237936142146 0.0728492132922 -0.085450565607)
(-0.203481284634 0.0816541407853 -0.00254382687786)
(0.0142664284146 -0.0919389646791 0.00623649798371)
(-0.157185597728 0.140617521613 -0.150726336116)
(0.821564023467 0.00751494316672 0.00954883720094)
(0.818453258652 0.00540982830501 0.0136503163891)
(0.767665727835 -0.00216483312299 0.0098151216355)
(0.7683741328 -8.01393743147e-05 0.00942772361416)
(0.821018231916 0.00625623169901 0.0106352522528)
(0.767722135814 -0.00106714864415 0.0115639332733)
(0.818756677882 0.00666934270398 0.0124024063555)
(0.816003813376 0.00526560911691 0.0127128695484)
(0.813498296729 0.00566836623289 0.0112076213421)
(0.766849183956 -0.00301977918041 0.00962463295586)
(0.766037317725 -0.00296114540191 0.0107850822901)
(0.813060836975 0.00480161710625 0.0125400929577)
(0.766543145185 -0.00191681034867 0.0115828419485)
(0.81643595244 0.00649670999401 0.0111081064808)
(0.810788560116 0.00464008335122 0.00808370361478)
(0.81197468598 0.00503831325351 0.00887107019246)
(0.766638596923 -0.00560953453136 0.00519384071554)
(0.765768815287 -0.00314964277646 0.00936101639117)
(0.811736981406 0.00437341834373 0.0101382461463)
(0.766547925023 -0.00353586135162 0.00707493497889)
(0.810874048121 0.00497869517731 0.00680690739953)
(0.810562108475 0.00431733702928 0.00182295685951)
(0.767531025328 -0.0071780597159 0.00137134450561)
(0.76726148826 -0.00451418392429 0.00367343505711)
(0.810316039362 0.00397499179803 0.00675719172893)
(0.766912405981 -0.00667498452254 0.00410084308999)
(0.766900154561 -0.00436332092658 0.00616286338743)
(0.810486554506 0.00422106325798 0.00529843665852)
(0.81004667177 0.00242448729122 0.00630417698797)
(0.767431052988 -0.00311609362802 0.00449590589738)
(0.7675351147 0.000175273797654 0.00641844229149)
(0.810082847998 0.00330833125932 0.00786489853496)
(0.767583144827 0.000322555039923 0.00813559293686)
(0.809954812576 0.00221380756003 0.00860078992338)
(0.767482693551 -0.00300911597426 0.00677497467987)
(-0.258495254367 -0.0838946050218 0.0144336779329)
(-0.0512097176476 0.280376942335 -0.12609523323)
(-0.321738321124 -0.0470336345639 0.00827725319505)
(-0.331950095778 -0.0954083878646 0.0174120026932)
(-0.0700817308067 0.203555985725 -0.00826100328551)
(-0.0804021871794 0.233597043251 -0.0704278166503)
(0.111645504469 -0.0577922920188 -0.00672724390915)
(-0.322793542841 0.0235240095484 0.00763324753875)
(-0.263438767775 -0.0288026653605 0.0667848286962)
(0.0771479770399 -0.079988509029 -0.013246244899)
(-0.297665335776 0.0139139011528 0.0452557698542)
(-0.101965114025 -0.075457995026 -0.010860952763)
(-0.207981526085 -0.0484517829415 0.0745579382413)
(0.826882378337 0.00980381137401 -0.0033367028641)
(0.827821828752 0.00924094318214 -0.0110718962724)
(0.770745788519 0.00213679894207 -0.00581412509895)
(0.772559731677 -0.000685830419738 -0.00934898674433)
(0.827779311601 0.00896138901206 -0.00461397729277)
(0.826862761433 0.0101365739728 -0.0103074155652)
(0.770222557276 -0.000406365801798 -0.00476210402383)
(0.825406174106 0.00861081364654 -0.00115022603749)
(0.825276746436 0.00718934696836 0.00452428432936)
(0.770223830925 0.00146219778036 -0.00168193811996)
(0.767327373247 -0.000716724540226 0.0015117847465)
(0.8264315866 0.0077616811489 -0.00161428084806)
(0.824487266188 0.00823851396352 0.00425493863434)
(0.769723785085 -0.000868279795273 -0.00186178372208)
(0.77026939813 -0.00140989690307 0.00135177024959)
(0.768130305652 -0.0012301752041 0.00465853581)
(0.823679492951 0.0087498774523 0.00736740730768)
(0.825087331009 0.00936403884848 0.000644317100864)
(0.767898581791 -0.00126998654889 0.0031795027192)
(0.824215621295 0.00896281125266 0.00578432347205)
(0.769901917635 -0.00138183657099 -5.50954567123e-05)
(0.811137581102 0.00407879545765 0.000798209723437)
(0.767492342854 -0.00816610995084 0.000607425733624)
(0.76731314344 -0.00553825741144 0.00266457810702)
(0.811479873501 0.00310221510398 0.000332693152442)
(0.76754912803 -0.00910377950455 0.000428713088299)
(0.811937266232 0.0039523408755 -0.000779873617799)
(0.767117974234 -0.00629158308152 0.00162865901351)
(0.81240439918 0.00228063713834 0.000267294453729)
(0.813755147248 0.00354131778475 -0.00195634561708)
(0.767902716111 -0.0103941359752 0.00010586717528)
(0.768123357234 -0.00832249819845 0.000586727013972)
(0.812886979235 0.00389536775816 -0.000846939680048)
(0.813275562544 0.00171197087443 -0.00107967176757)
(0.767586027278 -0.00764556732363 0.00075737952138)
(0.809992772115 0.00134620178394 0.00249057459363)
(0.809857633783 0.00177563397737 0.00519983552357)
(0.767319187375 -0.00386636484413 0.003623013271)
(0.767029222165 -0.000680731218161 0.00562405417021)
(0.766785149059 -0.00130055886673 0.00392942556968)
(0.810603707403 0.0023953418731 0.00140731740096)
(0.767159677492 -0.00445320236742 0.00204543650572)
(0.766922290776 -0.00281081842672 0.00215035311297)
(0.768193742907 -0.00400604522022 0.000680384768562)
(0.811718831763 -0.000231349289539 -0.0014594869357)
(0.811532807657 0.00147736906852 0.000824537554224)
(0.768276201225 -0.0065942303211 -6.7961314386e-05)
(0.812400916197 0.000765975414242 -0.00131843443294)
(0.767357608987 -0.00567953048533 0.000700567644869)
(0.816060665744 -0.000969255538309 -0.000809912257286)
(0.815853199487 0.00143492181877 -0.00164621806051)
(-0.114820558505 -0.0834898121095 -0.0104302938057)
(-0.0974307892897 -0.164306684049 -0.465897750902)
(0.821993315522 0.00712530582777 0.00470345783782)
(0.767425212409 -0.00175466876763 0.00683994014868)
(0.814663025046 0.000119351339972 -0.00120042648973)
(0.815719326852 -0.00107171311182 -0.00169892444058)
(0.76842984464 -0.0115268628568 -0.000251054453806)
(0.76960324476 -0.00515477452178 -0.000655780927498)
(0.77203289766 -0.00574835362842 -0.00141995084942)
(0.815824351704 -0.00151342558865 -0.00111482186922)
(0.81569493191 -0.00224905488573 0.000406514402227)
(0.772517972514 -0.00584865310962 -0.00111387613067)
(0.772244235673 -0.00701228772776 0.000427441156647)
(-0.170039416601 -0.144503048157 0.0166374315482)
(0.018484895059 -0.0948519955452 -0.0102442412971)
(-0.00877216298885 -0.110405958118 -0.00657395112055)
(-0.16123264623 -0.0361460570724 0.0410550275416)
(-0.214024353001 0.00680064286522 0.0373180086979)
(-0.153902598709 -0.025178403846 0.0128982997871)
(-0.0302186418913 -0.0995244625835 0.000198081617859)
(-0.0434279332674 -0.0714674658405 0.00324286536336)
(0.819491487588 0.00744374870377 0.00904850519746)
(0.821789803718 0.00808380698145 0.00804512015896)
(0.767329720851 -0.00154471544704 0.00538858964006)
(0.766794690036 -0.00203525069902 0.00802940803647)
(0.822284214209 0.00828943336468 0.00637667140728)
(0.766859376981 -0.00180361606092 0.00583513784105)
(0.818920052054 0.0072341294813 0.0109548221338)
(0.814183773999 0.000359998721596 -0.00117093102129)
(0.814313601425 0.00301541601755 -0.00191414545857)
(0.7689221944 -0.011651439398 -0.000136115829527)
(0.768778452799 -0.00861884033983 0.000378113412854)
(0.814630689091 0.00263637830023 -0.00191170860902)
(0.813779700046 0.000825994343083 -0.000770069396789)
(0.769306590391 -0.00886790613349 0.000351776812181)
(0.813685560959 -0.000517068160534 -0.00156298739889)
(0.812389337197 -0.000989755081255 -0.00154895492236)
(0.769311123411 -0.00733863061678 -0.000694326808951)
(0.770676677101 -0.00604771098494 -0.00105313801265)
(0.812901984055 -4.59804791426e-05 -0.00108284176486)
(0.770095974419 -0.00779499907515 -0.00064235583362)
(0.813484684537 -0.00143255726063 -0.00248746727328)
(0.813947879081 -0.000626671570064 -0.00118631654115)
(0.814600567414 -0.0013039361434 -0.00143890853357)
(0.770906238634 -0.00754004462036 -0.00115988382439)
(0.771285122123 -0.00609200352133 -0.00168087591126)
(0.814635453438 -0.000651063360573 -0.000697203533082)
(0.770381452509 -0.00775240751044 -0.00121304346214)
(0.813863279874 -0.00152544955888 -0.00207304419407)
(0.814725600583 -0.00116703678263 0.00139744308296)
(0.814735645794 -0.00109887780998 -0.000663885727323)
(0.7716765429 -0.00686017157804 -0.00118092209629)
(0.772412665753 -0.00592180753265 -0.000324075801953)
(0.814895090189 -0.00085818011111 -1.80692463313e-05)
(0.771709938503 -0.00669789300636 -0.000277652521713)
(0.814562139769 -0.00115787604676 0.000873890959661)
(0.814173207635 -0.00150766305624 0.00210140994335)
(0.813368874316 -0.00113320838059 0.00201691779244)
(0.772314668356 -0.00696987509564 -0.000239054013518)
(0.772404684463 -0.00651744448517 0.000620064587791)
(0.813581633206 -0.00179659834777 0.00223125222645)
(0.772065523703 -0.00670654624364 -5.35510047856e-05)
(0.813992555653 -0.00104483630473 0.00181514856309)
(0.793170566954 0.00930889218821 0.00344096130395)
(0.798760626344 0.00964210395077 3.90146124409e-05)
(0.799125474306 0.0149866902306 -0.00199642283428)
(0.801540837339 0.0107205051678 -0.00314136228107)
(0.218746485828 0.103253316611 0.000803805646238)
(0.34646390115 0.168442178515 0.0033934433903)
(0.168544277446 0.129090895066 -0.000820791908553)
(0.28060085686 0.137208731663 0.00336931911613)
(0.230558474874 0.00391221571072 0.00340605261656)
(0.229755296822 -0.00415262027409 -0.280504049001)
(0.346452925736 -0.0899788254164 0.422144689857)
(0.156625912883 -0.0748149718085 -0.248088567142)
(0.487243942246 -0.194958922228 -0.049895990392)
(0.117739466922 -0.0528674703704 -0.196432109396)
(0.367141058104 -0.0841148301116 -0.0989775988133)
(0.792568671222 0.00199517493917 0.00235723756681)
(0.793322947916 0.00430460717654 0.00270275566747)
(0.77467616784 -0.000141663958511 0.0043238189517)
(0.775813614702 0.00352872737654 0.00485539002736)
(0.789523248631 0.00673217175515 0.00520454940276)
(0.776769639345 0.00422377336095 0.00518801563042)
(0.795464760672 0.00581855481905 0.00375657118713)
(0.797551541694 0.00711896750489 0.00325444096092)
(0.776154789247 0.00438828011887 0.0047592470919)
(0.77867577068 0.00583926313103 0.00277357260888)
(0.790595011629 0.0130615486262 0.00547759597174)
(0.796368334827 0.00979338943956 0.00261058147075)
(0.79468796325 0.0131784449131 0.0025211183244)
(0.777472322461 0.00519099465717 0.00531389151108)
(0.780597704893 0.00881990796989 0.00529698676916)
(0.780247291005 0.00702999226122 0.00308822068184)
(0.784022133494 0.0108045105551 0.00119409443857)
(0.796245112868 0.0175233916217 0.00101660728694)
(0.798651581875 0.0221579307616 0.000765705998543)
(0.780822230003 0.0102364492197 0.00448542477271)
(0.780006152354 0.015898566582 0.00195706652106)
(0.784195788774 0.0114694199305 0.000205209292316)
(0.782230691075 0.0119402632159 -0.00272774035655)
(0.798089970486 0.0123119763194 0.000202771528938)
(0.800106962895 0.0107982453759 -0.000659327977486)
(0.781347672397 0.00701436031165 0.00244313044529)
(0.784603155954 0.00963061379015 0.000469009000745)
(0.785664919034 0.00724077494542 0.000346380316051)
(0.801311792761 0.0174669035212 -0.00396317220275)
(0.800804475715 0.0126105971994 -0.00234476055773)
(0.802236596188 0.0136628007294 -0.00489378304828)
(0.784505059771 0.00990137653463 -0.000321153979691)
(0.781957066864 0.00983454513636 -0.00206300250673)
(0.785315560887 0.00713474164398 0.000335684722815)
(0.781112831703 0.00717100288716 -0.000669583018445)
(0.785309752152 0.00560227212961 2.70103258629e-05)
(0.780760065211 0.00625192993932 -0.00130295667911)
(0.151870964776 -0.0362180320776 0.0012747893164)
(0.159724526053 0.0119296948076 0.000640446392461)
(0.244254437566 0.0348647095132 0.00170992739225)
(0.175737516309 -0.0408194216013 -0.272626441401)
(0.264437840483 0.00141323256489 -0.314756653507)
(0.1830759702 -0.0345571161612 -0.255020639376)
(0.283717283925 -0.00631757263028 -0.27786588988)
(0.266915219079 0.0389676830947 -0.292876189181)
(0.0976492600904 0.0660533007518 -0.0806181481056)
(0.28914702566 -0.0164040571838 -0.215083198093)
(0.179148980877 -0.00751403847909 -0.0224306596235)
(0.138631285251 0.0677527819693 0.00022980137376)
(0.105967108025 0.102887462604 0.000358402894794)
(0.311322407181 0.144802514014 0.00297450049088)
(0.18082874518 0.140054914745 -0.000164403437198)
(0.246551815515 0.179785991403 0.00152043578604)
(0.163868712068 -0.0556099608761 -0.212201576895)
(0.22808057723 -0.0348142355312 -0.218674691542)
(0.155931909341 -0.0577313602693 -0.127426161552)
(0.21463539819 -0.0350364110921 -0.0694541540826)
(0.306480087257 0.161817402789 0.00152268820582)
(0.301390780627 0.195209749288 0.00320934032809)
(0.280593433474 0.165198773104 0.00185257977886)
(0.279463295301 -0.0624034564206 -0.121681580393)
(0.246681965801 -0.0313447989057 0.0893896328176)
(0.260268610464 -0.0372056958674 0.00925997414854)
(0.263547191688 -0.0329583991583 0.183371063936)
(0.225847831007 0.13696079192 0.00133196194007)
(0.229499163391 0.0595403974317 0.00275164226277)
(0.136976502901 -0.053061037423 -0.0362594523051)
(0.171601835 -0.04344366183 0.0073373470678)
(0.168629058057 -0.038060603406 0.0121267574136)
(0.281605944203 0.0982922152933 0.000929575508168)
(0.27779420449 0.0529965581651 0.00373450966359)
(0.282357869049 0.0232940813582 0.00208058030998)
(0.243203095914 -0.055269841849 0.0671029664954)
(0.256577361283 -0.0711526708497 0.181289903048)
(0.245268402008 -0.0462451780586 0.0470174612167)
(0.260001854503 -0.056669077853 0.154666490108)
(0.797783100565 0.00263876881321 0.00570141907639)
(0.795605052104 0.00207369645591 0.00600839946404)
(0.773671838396 -0.00026725037343 0.0035455354348)
(0.774847237905 0.00102500218516 0.00524054948241)
(0.79590675352 0.00329188439331 0.00654878903645)
(0.774154149655 0.000867231270936 0.0044288116876)
(0.797540817685 0.00169826586346 0.00477192047301)
(0.798066386436 0.00335911512889 0.00539036168271)
(0.7972254708 0.00525840345053 0.00694111143438)
(0.775166585979 0.00203634876327 0.00486930650334)
(0.774681008092 0.00275462538838 0.00416122310462)
(0.796444105715 0.00455489475826 0.00642817577207)
(0.798702272751 0.0044517980928 0.00484459427444)
(0.774387235444 0.001676291466 0.00414957981225)
(0.792869784185 0.00613971759667 0.00843011293272)
(0.795463835173 0.00616690257412 0.00704913980389)
(0.776114133102 0.00269643286637 0.00528766408047)
(0.777966870491 0.00541019741638 0.00551472570883)
(0.794619922835 0.00475534808734 0.00774412347322)
(0.793886361581 0.00740194990533 0.00851864121121)
(0.777096560954 0.00347515313048 0.00567604123113)
(0.800413485522 0.00550887855683 0.00421879376614)
(0.798046736614 0.00606071268508 0.00636255112813)
(0.775042585901 0.00367336801487 0.00409874137753)
(0.77706831169 0.00534578886857 0.00416732762246)
(0.799591162371 0.00499619407681 0.0047138150726)
(0.799030878306 0.00642117151308 0.0059145873546)
(0.775772236213 0.00438822282763 0.00357259335831)
(0.801255076678 0.00576509187427 0.00374268799291)
(0.800956564633 0.00696419872309 0.00416607289093)
(0.777711809552 0.0057022595574 0.0039649149508)
(0.777318054395 0.00486445956138 0.00229557594278)
(0.799983717262 0.00661578987811 0.00519249997679)
(0.801996821361 0.00601745373943 0.00299728532458)
(0.776529829226 0.00481453536446 0.00322864261945)
(0.796608692687 0.00871918367666 0.00675831967704)
(0.796764845886 0.0070057904661 0.0064427571594)
(0.778912168437 0.00637655503693 0.00542616773258)
(0.778233296204 0.00640652493452 0.00470691344577)
(0.795292444955 0.00836897436523 0.00746495348796)
(0.797882139472 0.00741891203619 0.0057700963952)
(0.779942655781 0.00767870496604 0.00440076264461)
(0.795698102463 0.0100021602615 0.00602061180073)
(0.793124653929 0.0117667523936 0.00799537201639)
(0.779928827516 0.00767639282268 0.00548239127878)
(0.782077037407 0.0106003624584 0.00398795890941)
(0.794159688643 0.00973471399434 0.00713718342535)
(0.794956735457 0.0119317291564 0.00673150744047)
(0.781186800648 0.00899294944959 0.00454222900346)
(0.797821677175 0.00895463163973 0.00532153778543)
(0.80001433004 0.00788925953371 0.00386031423626)
(0.779074745385 0.00680168850792 0.00432249804064)
(0.781933792229 0.00836555049703 0.00276782072307)
(0.799024010863 0.00769786082061 0.00508977984831)
(0.799119245623 0.00914954745372 0.00412800881061)
(0.78070763927 0.00797633294955 0.00371910521268)
(0.797119302971 0.0103834033628 0.0039264967654)
(0.798400558462 0.0120376103371 0.00238252395359)
(0.783028653868 0.0105799574713 0.00220639148705)
(0.783184352803 0.00964040305432 0.0023189836822)
(0.796687080282 0.0121062545018 0.00376962569778)
(0.798601123495 0.0104209478056 0.00273838440445)
(0.782061227742 0.00931010869174 0.00327428074254)
(0.795394195492 0.0160977067848 0.00548660811206)
(0.792589023761 0.0136604483663 0.00659061637346)
(0.780408745913 0.011924293194 0.00413079607381)
(0.782465180118 0.0118374580192 0.0033865797153)
(0.793412945054 0.0161903541192 0.00724331544346)
(0.794328192215 0.0137009221158 0.00513875429162)
(0.782161829312 0.0134081690983 0.00256270430654)
(0.795775628533 0.0179507986604 0.00310104491879)
(0.797056397594 0.0201435793779 0.00471852537417)
(0.780198936361 0.013956977242 0.0030389365252)
(0.781217438918 0.0156967962071 -0.000257101987827)
(0.793862867832 0.0181335693176 0.0052615223893)
(0.781730972303 0.0146309236294 0.00119685029818)
(0.798893288313 0.0200462522272 0.00243213972606)
(0.797573857732 0.0161078626931 0.00124851294597)
(0.798251977982 0.0136702223955 5.37245250311e-05)
(0.783451016132 0.0117136154958 0.00158123944807)
(0.783919081539 0.0121113119013 -0.000827419367794)
(0.796578007466 0.0138509061533 0.00157933269209)
(0.799155523688 0.0155976839331 -0.000339618232584)
(0.783122489767 0.012637652594 0.000507979367142)
(0.798038890285 0.0179366954537 -0.00162272610313)
(0.801449977185 0.0184254673315 -0.003734999915)
(0.781942063525 0.0141072412809 -0.00211640669431)
(0.7834882782 0.0120879788368 -0.00188939566475)
(0.799555751997 0.0172248778629 -0.00286490813391)
(0.782791976812 0.0134161492999 -0.000845023554278)
(0.800313498829 0.0194500229738 -0.00256007321944)
(0.80143709346 0.00894417014601 0.0017665493701)
(0.800972040985 0.00798951264002 0.00274029030839)
(0.783018382864 0.0081333563667 0.00201124383441)
(0.782504881829 0.00679295029806 0.00178414781097)
(0.800321964581 0.00906102878896 0.00266428601337)
(0.801911880259 0.00796625067494 0.00184065197306)
(0.783914859131 0.00791881298019 0.00120058176778)
(0.801082343957 0.0101302573858 0.00040968695866)
(0.799837766002 0.0117271955681 0.000801333542136)
(0.784070965774 0.00887321695534 0.00132774615763)
(0.7851695427 0.00911498082521 -0.000265105441694)
(0.799831173059 0.0104193086289 0.00124385207895)
(0.801254167764 0.0114610756462 -7.94398943131e-05)
(0.78483581122 0.00848143208617 0.000489094813406)
(0.802262071924 0.0100006768989 -6.26796667687e-05)
(0.80320611004 0.0104731238386 -0.000320119004501)
(0.785403657148 0.00798915178616 0.000131444074478)
(0.785751573495 0.00709262928756 0.000394196562624)
(0.802384952745 0.0110977330396 -0.000360540201909)
(0.803215177669 0.00954237102232 -0.000435789185176)
(0.785444713389 0.00777786340631 0.000443573989228)
(0.801969954248 0.0141651485555 -0.00150820628428)
(0.799852328422 0.0135576585762 -0.00109971100456)
(0.783963136787 0.0100948670853 -0.000922299549103)
(0.784951080891 0.00923714909854 -0.000572544715037)
(0.800675466354 0.0150015157972 -0.00139385676702)
(0.801273224393 0.0129549989913 -0.00138220030993)
(0.784357561208 0.00939848380324 -0.000727850906605)
(0.802031795122 0.0154126557307 -0.00292639501579)
(0.802358113464 0.0174498725327 -0.00440828497655)
(0.783294857946 0.00983120966745 -0.00135604269294)
(0.781815329709 0.00915543356344 -0.00135544590835)
(0.801048830876 0.0166832246924 -0.00333113390612)
(0.783373759589 0.00918454909446 -0.000590400304305)
(0.802631890336 0.0157660444768 -0.00416078874092)
(0.802710040779 0.0130386310774 -0.00135258030242)
(0.803101300314 0.0112432910936 -0.00101167172819)
(0.785170460924 0.00789050687121 5.64866711582e-07)
(0.784342073581 0.00715516590809 0.000225021719968)
(0.802376996422 0.0122207366037 -0.00117353788835)
(0.803154892951 0.0118617486902 -0.00135482319716)
(0.784501015949 0.00780915900258 -1.67093895407e-05)
(0.802742484786 0.0137818040875 -0.00246395671579)
(0.802811180774 0.0123277011372 -0.00410272824265)
(0.781433640285 0.00775920476194 -0.000610247062239)
(0.783212399167 0.00701044509127 6.78084924151e-05)
(0.803171106045 0.012298481529 -0.00258830333045)
(0.783315071157 0.00759201946433 -1.22934819413e-05)
(0.802727185079 0.0139179166125 -0.00389582127542)
(0.803509385156 0.00982326090037 -0.00235039530853)
(0.803710333616 0.0103382889455 -0.0013166202105)
(0.784306639838 0.00578485535658 -7.55470046363e-05)
(0.785422475588 0.00468129661438 -0.000360464015603)
(0.803372028014 0.0106823221117 -0.00179842579144)
(0.803987135987 0.009703562883 -0.00177233507073)
(0.784286372036 0.00510957752882 -0.000559789343132)
(0.802781858683 0.0109953465827 -0.00479966560958)
(0.783039318152 0.00585365629765 -0.000507277940896)
(0.803281661657 0.0109707356465 -0.00316335863491)
(0.81769707013 0.00412651687638 -0.00042229553133)
(0.818392115796 0.00232858475231 -0.000344726262812)
(0.8184236694 0.00023246777664 -0.000459126901417)
(0.815563561569 -0.00234625376354 -0.000285505560895)
(0.810307988644 -0.00356846671088 6.25020930007e-05)
(0.828274082312 -0.046850995831 0.000321148317405)
(0.818379838984 0.00431118920905 0.000608731499981)
(0.818311425921 0.00244094275734 0.000834340620131)
(0.818390958061 0.000945191331249 0.000183979193969)
(0.815945395797 -0.00233894573251 0.00110772658569)
(0.810913111553 -0.00396203126505 0.00300280693702)
(0.830371121454 -0.0496900743544 0.00368559327622)
(0.817084563019 0.00569730764616 -0.000263446147795)
(0.813251878772 0.00585013927294 0.000710571603358)
(0.789591442915 0.0101182598441 0.00275548108429)
(0.785570336569 0.0102458467953 0.0018569232637)
(0.782408935614 0.0122133912065 0.0015698939521)
(0.776792171068 0.0122307672107 0.00410830802413)
(0.782787472612 0.0134913427792 -0.00193734257629)
(0.731023502758 -0.028327077916 0.0280447469915)
(0.827164716218 0.00478748932972 0.000203952720576)
(0.824496677265 0.00276487615815 2.15788072825e-05)
(0.820416314015 -0.000566274409914 -0.000682047967167)
(0.817908637448 -0.00194358118338 -0.00193743967041)
(0.816712004116 -0.0019047596091 -0.00300703787169)
(0.817629900431 -0.00163470923493 -0.00200934086178)
(0.8133405233 0.000636424029237 0.0017270173653)
(0.827301783216 -0.0838793875543 0.0129260372928)
(0.821227786324 0.00624531838944 -0.00139942263679)
(0.823530731199 0.00394979767789 -0.000589635200122)
(0.822666178798 0.00233189543215 -0.000744096366826)
(0.820746709829 0.00151849049705 -0.00115337807754)
(0.819082066191 0.000777710267304 -0.00147744292332)
(0.819732876533 -0.000780153540988 -0.000753809559563)
(0.81415874496 -0.002723902927 0.00162749575255)
(0.832568285084 -0.0675173968267 0.00508834790319)
(0.817580988626 0.00729296104204 -0.00104348056958)
(0.820479782468 0.00359929427583 -0.000373230373438)
(0.820094743701 0.00125760119311 -0.000323715785067)
(0.819213881408 -0.000709166055707 -0.000589727511647)
(0.817761876377 -0.00148789368695 -0.00101447791522)
(0.818097869774 -0.0029340649823 -0.000613809611758)
(0.812717138482 -0.00438181858853 0.000486966390372)
(0.831543526484 -0.0685979432821 0.00187745885025)
(0.816923802455 -0.000231358741002 -0.000601317146654)
(0.816866256664 -0.0017443274002 -0.000244424985507)
(0.811256703004 -0.00352125663078 0.000396015411272)
(0.830893096106 -0.0527506708164 0.000881126999593)
(0.64052131878 0.0410306237409 0.0100794669492)
(0.637904601626 0.0397302066869 0.0146786845345)
(0.647122627588 0.0236152026283 0.0202995506105)
(0.644953204392 0.0201879990291 0.0163915917132)
(0.644495897117 0.0207831594933 0.0160442109728)
(0.63522146563 0.0228182469615 0.0188304279851)
(0.684147750781 0.0327779744543 0.0180921301039)
(0.449481443278 -0.0832078328747 0.0553770591656)
(0.774720546195 0.0129717626097 0.00615881255408)
(0.771080660924 0.00897411842309 0.00857690792467)
(0.777276492439 0.00217735837132 0.0131783692155)
(0.773537722556 -0.000185186914998 0.0134133781545)
(0.773602079871 0.000215299047432 0.0139384357551)
(0.776455478522 0.000233125620895 0.0158848222181)
(0.785913137618 0.0134827085823 0.0236704191857)
(0.799641454549 -0.152908618195 0.0357016687575)
(0.823240482354 0.00695679563074 -0.00101474049165)
(0.824096692277 0.00496461715761 0.000500806590411)
(0.82250155542 0.00347279424456 0.00123757600601)
(0.820158938652 0.0038076078037 0.000809664521026)
(0.81992431313 0.00339121354141 0.00125161805466)
(0.82212877063 0.00174957864406 0.00222491509592)
(0.818927051413 -0.000732245009146 0.00640181953394)
(0.855444928333 -0.101313058505 0.0112655968242)
(0.81880447509 0.00725698118066 -0.00106046086351)
(0.82109999862 0.00348621033095 0.000374281514504)
(0.819888810377 0.00191026185623 0.00102042541004)
(0.818705698555 0.000410277681058 0.000747018044383)
(0.817948805561 -0.00102878695098 0.000705844090384)
(0.819625016998 -0.00344946911616 0.00194077090296)
(0.814971484516 -0.00573078231568 0.00508791122367)
(0.839795731403 -0.0826759183252 0.00775476568129)
(0.817073541306 4.08690476029e-06 8.4247346958e-05)
(0.817609440771 -0.0014725534819 0.00105568355259)
(0.812401231769 -0.00362256900763 0.00336872969348)
(0.834472530075 -0.0603469534438 0.00454070943561)
(0.638835002459 -0.0164022479744 0.0147589644123)
(0.634153107828 -0.0168096364105 0.0218436247291)
(0.639057513254 -0.0215090675277 0.0264377671091)
(0.635036294711 -0.0204760864741 0.0225547678428)
(0.634115498955 -0.0194754104037 0.0211026624371)
(0.629406119879 -0.0149216466235 0.0234362844983)
(0.684830770197 0.00641050697632 0.0401054531577)
(0.491238947387 -0.231899819555 0.00560159106488)
(0.738069564389 0.00515395562681 0.0184190750855)
(0.736733492981 5.53363865719e-05 0.0240828999277)
(0.784687142377 -0.00210406477911 0.0121067592869)
(0.782513082091 -0.00288158701458 0.0119550968448)
(0.78305056208 -0.00252303310251 0.0100888285004)
(0.788074597224 -0.00213188615287 0.00888457546843)
(0.802262318144 0.0103261176938 0.00803623555365)
(0.844508153499 -0.167853970453 -0.000352715855215)
(0.826507002658 0.00694451958508 -0.00379551755215)
(0.826333360168 0.00500023936113 0.00116118732417)
(0.823904119634 0.000654955713021 0.00169780218794)
(0.820594855453 -0.00188856828603 0.00038678736434)
(0.820747704917 -0.00301638382882 -0.00172872345193)
(0.824626996059 -0.004442438517 -0.00142310909049)
(0.822416207248 -0.0076417661586 -0.00127496228471)
(0.875899226168 -0.131843252763 -0.00315888653546)
(0.815768962193 0.0113160429505 -0.00666358754688)
(0.821629913665 0.007754023989 -0.00244243530989)
(0.822841771644 0.00355305714904 0.00119334058668)
(0.820149249621 0.000706961340526 0.00109164247598)
(0.819110630444 -0.000752039028084 -0.00046030342033)
(0.81918207461 -0.00252411909929 -0.00107000742716)
(0.822031945807 -0.00448433344978 -0.000281530271283)
(0.818117939146 -0.00699203204809 -0.000111818278435)