/*--------------------------------*- C++ -*----------------------------------*\
| =========                 |                                                 |
| \\      /  F ield         | OpenFOAM: The Open Source CFD Toolbox           |
|  \\    /   O peration     | Version:  v1906                                 |
|   \\  /    A nd           | Web:      www.OpenFOAM.com                      |
|    \\/     M anipulation  |                                                 |
\*---------------------------------------------------------------------------*/
FoamFile
{
    version     2.0;
    format      ascii;
    class       volVectorField;
    location    "12.1";
    object      force.turbine;
}
// * * * * * * * * * * * * * * * * * * * * * * * * * * * * * * * * * * * * * //

dimensions      [1 -2 -2 0 0 0 0];


internalField   nonuniform List<vector> 
28582
(
(0 0 0)
(0 0 0)
(0 0 0)
(0 0 0)
(0 0 0)
(0 0 0)
(0 0 0)
(0 0 0)
(0 0 0)
(0 0 0)
(0 0 0)
(0 0 0)
(0 0 0)
(0 0 0)
(0 0 0)
(0 0 0)
(0 0 0)
(0 0 0)
(0 0 0)
(0 0 0)
(0 0 0)
(0 0 0)
(0 0 0)
(0 0 0)
(0 0 0)
(0 0 0)
(0 0 0)
(0 0 0)
(0 0 0)
(0 0 0)
(0 0 0)
(0 0 0)
(0 0 0)
(0 0 0)
(0 0 0)
(0 0 0)
(0 0 0)
(0 0 0)
(0 0 0)
(0 0 0)
(0 0 0)
(0 0 0)
(0 0 0)
(0 0 0)
(0 0 0)
(0 0 0)
(0 0 0)
(0 0 0)
(0 0 0)
(0 0 0)
(0 0 0)
(0 0 0)
(0 0 0)
(0 0 0)
(0 0 0)
(0 0 0)
(0 0 0)
(0 0 0)
(0 0 0)
(0 0 0)
(0 0 0)
(0 0 0)
(0 0 0)
(0 0 0)
(0 0 0)
(0 0 0)
(0 0 0)
(0 0 0)
(0 0 0)
(0 0 0)
(0 0 0)
(0 0 0)
(0 0 0)
(0 0 0)
(0 0 0)
(0 0 0)
(0 0 0)
(0 0 0)
(0 0 0)
(0 0 0)
(0 0 0)
(0 0 0)
(0 0 0)
(0 0 0)
(0 0 0)
(0 0 0)
(0 0 0)
(0 0 0)
(0 0 0)
(0 0 0)
(0 0 0)
(0 0 0)
(0 0 0)
(0 0 0)
(0 0 0)
(0 0 0)
(0 0 0)
(0 0 0)
(0 0 0)
(0 0 0)
(0 0 0)
(0 0 0)
(0 0 0)
(0 0 0)
(0 0 0)
(0 0 0)
(0 0 0)
(0 0 0)
(0 0 0)
(0 0 0)
(0 0 0)
(0 0 0)
(0 0 0)
(0 0 0)
(0 0 0)
(0 0 0)
(0 0 0)
(0 0 0)
(0 0 0)
(0 0 0)
(0 0 0)
(0 0 0)
(0 0 0)
(0 0 0)
(0 0 0)
(0 0 0)
(0 0 0)
(0 0 0)
(0 0 0)
(0 0 0)
(0 0 0)
(0 0 0)
(0 0 0)
(0 0 0)
(0 0 0)
(0 0 0)
(0 0 0)
(0 0 0)
(0 0 0)
(0 0 0)
(0 0 0)
(0 0 0)
(0 0 0)
(0 0 0)
(0 0 0)
(0 0 0)
(0 0 0)
(0 0 0)
(0 0 0)
(0 0 0)
(0 0 0)
(0 0 0)
(0 0 0)
(0 0 0)
(0 0 0)
(0 0 0)
(0 0 0)
(0 0 0)
(0 0 0)
(0 0 0)
(0 0 0)
(0 0 0)
(0 0 0)
(0 0 0)
(0 0 0)
(0 0 0)
(0 0 0)
(0 0 0)
(0 0 0)
(0 0 0)
(0 0 0)
(0 0 0)
(0 0 0)
(0 0 0)
(0 0 0)
(0 0 0)
(0 0 0)
(0 0 0)
(0 0 0)
(0 0 0)
(0 0 0)
(0 0 0)
(0 0 0)
(0 0 0)
(0 0 0)
(0 0 0)
(0 0 0)
(0 0 0)
(0 0 0)
(0 0 0)
(0 0 0)
(0 0 0)
(0 0 0)
(0 0 0)
(0 0 0)
(0 0 0)
(0 0 0)
(0 0 0)
(0 0 0)
(0 0 0)
(0 0 0)
(0 0 0)
(0 0 0)
(0 0 0)
(0 0 0)
(0 0 0)
(0 0 0)
(0 0 0)
(0 0 0)
(0 0 0)
(0 0 0)
(0 0 0)
(0 0 0)
(0 0 0)
(0 0 0)
(0 0 0)
(0 0 0)
(-0.00360247004942 9.54342640181e-05 0)
(0 0 0)
(0 0 0)
(0 0 0)
(0 0 0)
(-2.37361607534e-05 6.17009495154e-07 0)
(0 0 0)
(-2.37360683555e-06 7.67589531923e-08 0)
(0 0 0)
(0 0 0)
(0 0 0)
(0 0 0)
(0 0 0)
(0 0 0)
(0 0 0)
(0 0 0)
(0 0 0)
(0 0 0)
(0 0 0)
(0 0 0)
(-0.0158455109213 0.000516176294049 0)
(0 0 0)
(0 0 0)
(0 0 0)
(-0.027493511172 0.000766899779251 0)
(0 0 0)
(0 0 0)
(-0.0281638211482 0.000889160222696 0)
(-0.126221501164 0.00398494002266 0)
(-0.0747695596532 0.00208561061677 0)
(-1.49603051533 -0.149938765664 0.0450215567253)
(-0.00552545009307 0.000110018997041 0)
(-0.0745109230901 0.00207839624819 0)
(0 0 0)
(0 0 0)
(0 0 0)
(0 0 0)
(0 0 0)
(-0.0158454927129 0.000516175700903 0)
(0 0 0)
(0 0 0)
(0 0 0)
(-0.0273910977384 0.000764043074658 0)
(0 0 0)
(0 0 0)
(0 0 0)
(0 0 0)
(0 0 0)
(0 0 0)
(0 0 0)
(0 0 0)
(-1.47723811576e-05 3.45508083197e-07 0)
(0 0 0)
(-8.88170083877e-06 2.07732213216e-07 0)
(-0.000124581889625 3.23526993798e-06 0)
(-0.000558015665206 1.44911215586e-05 0)
(-7.42575345419e-05 1.92839561106e-06 0)
(-0.000333858675312 8.66998356677e-06 0)
(0 0 0)
(0 0 0)
(-0.000387527743035 8.30517562514e-06 0)
(0 0 0)
(0 0 0)
(0 0 0)
(0 0 0)
(0 0 0)
(0 0 0)
(-0.0158158724497 0.000418983676848 0)
(-0.000742446487002 1.79169819389e-05 0)
(-0.00348958910029 9.24438962553e-05 0)
(-2.62828263754e-05 6.541295459e-07 0)
(-0.000121353928636 3.1514429453e-06 0)
(-3.37523513583e-06 1.09150138904e-07 0)
(-2.66884665216e-05 6.64225157415e-07 0)
(0 0 0)
(0 0 0)
(0 0 0)
(0 0 0)
(0 0 0)
(-0.000367125312676 7.86792753038e-06 0)
(0 0 0)
(0 0 0)
(0 0 0)
(0 0 0)
(0 0 0)
(0 0 0)
(0 0 0)
(0 0 0)
(0 0 0)
(0 0 0)
(0 0 0)
(0 0 0)
(0 0 0)
(0 0 0)
(0 0 0)
(0 0 0)
(0 0 0)
(0 0 0)
(0 0 0)
(0 0 0)
(-0.00503172733594 9.50952046047e-05 0)
(0 0 0)
(0 0 0)
(0 0 0)
(0 0 0)
(0 0 0)
(-0.00428405830243 8.53012496285e-05 0)
(0 0 0)
(0 0 0)
(0 0 0)
(0 0 0)
(0 0 0)
(0 0 0)
(0 0 0)
(0 0 0)
(0 0 0)
(0 0 0)
(0 0 0)
(0 0 0)
(0 0 0)
(0 0 0)
(0 0 0)
(0 0 0)
(0 0 0)
(0 0 0)
(0 0 0)
(0 0 0)
(0 0 0)
(0 0 0)
(-0.0354925920575 0.00104397314152 0)
(-0.00808785816137 0.000193493339594 0)
(-0.0133533604986 0.00031946484052 0)
(-0.0100559748036 0.000241322486378 0)
(-0.0189973449777 0.00055878471442 0)
(0 0 0)
(0 0 0)
(0 0 0)
(0 0 0)
(0 0 0)
(0 0 0)
(0 0 0)
(0 0 0)
(0 0 0)
(0 0 0)
(-0.00487876423465 9.71426288998e-05 0)
(0 0 0)
(-0.0078316749124 0.00018794391387 0)
(0 0 0)
(0 0 0)
(-0.188462053364 -0.00867609955386 0.00328235393011)
(-0.24860618326 -0.0291651000527 0.00849191701262)
(-0.330337537643 -0.0264582104927 0.00834872232193)
(-0.0400258309547 0.00111647438304 0)
(-1.08435482614 -0.18337610546 0.05041217563)
(-0.0516367206555 0.00151883382857 0)
(-0.0959970543685 0.00267772709507 0)
(-0.557881298511 -0.0547990287194 0.0165989118183)
(-4.80977436982 -0.846767387152 0.23156770301)
(-0.844296201038 -0.0891911084544 0.0264643419835)
(-0.450492330518 -0.00245772741181 0.00348585852563)
(-2.84185768305 -0.513098787276 0.139804331261)
(-0.230780372965 0.00100044217281 0.00125283227065)
(-1.00857126851 -0.0963360148346 0.0294105011535)
(-0.0603341502415 0.00175509578957 0)
(-0.00887402769892 0.000212958213432 0)
(-0.0188972923951 0.000527118172561 0)
(-0.0188752151668 0.000526502353742 0)
(-0.0243926357783 0.000717480891848 0)
(-0.0243913242914 0.000717442315991 0)
(-0.0453095678037 0.00126385812744 0)
(-0.127724248118 0.00371544621415 0)
(-0.0994673522725 0.00289346465434 0)
(-0.181948472022 0.00504831069032 0)
(-0.0399269759982 0.00111371693806 0)
(-0.0516327697774 0.0015187176181 0)
(-0.0958776162686 0.00267439550705 0)
(-0.238619979403 0.00694135774651 0)
(0 0 0)
(0 0 0)
(0 0 0)
(0 0 0)
(0 0 0)
(0 0 0)
(0 0 0)
(0 0 0)
(0 0 0)
(0 0 0)
(0 0 0)
(0 0 0)
(0 0 0)
(0 0 0)
(0 0 0)
(0 0 0)
(0 0 0)
(0 0 0)
(0 0 0)
(0 0 0)
(0 0 0)
(0 0 0)
(0 0 0)
(-0.00486895466884 9.694730751e-05 0)
(0 0 0)
(-0.00783090157005 0.000187925355261 0)
(0 0 0)
(0 0 0)
(0 0 0)
(-0.0354831487258 0.00104369537694 0)
(-0.0133108741426 0.000318448399982 0)
(-0.00805973161259 0.000192820442054 0)
(-0.0189951084526 0.000558718929646 0)
(0 0 0)
(-0.0100529895971 0.00024125084763 0)
(0 0 0)
(0 0 0)
(0 0 0)
(0 0 0)
(0 0 0)
(0 0 0)
(0 0 0)
(0 0 0)
(0 0 0)
(0 0 0)
(0 0 0)
(0 0 0)
(0 0 0)
(0 0 0)
(0 0 0)
(0 0 0)
(0 0 0)
(0 0 0)
(0 0 0)
(0 0 0)
(0 0 0)
(0 0 0)
(0 0 0)
(0 0 0)
(0 0 0)
(0 0 0)
(0 0 0)
(0 0 0)
(0 0 0)
(0 0 0)
(0 0 0)
(0 0 0)
(0 0 0)
(0 0 0)
(0 0 0)
(0 0 0)
(-0.0150634648462 0.000281653283188 0)
(0 0 0)
(0 0 0)
(0 0 0)
(0 0 0)
(0 0 0)
(0 0 0)
(0 0 0)
(-0.00336110309415 6.28451509174e-05 0)
(0 0 0)
(0 0 0)
(0 0 0)
(0 0 0)
(0 0 0)
(0 0 0)
(0 0 0)
(0 0 0)
(0 0 0)
(0 0 0)
(0 0 0)
(0 0 0)
(0 0 0)
(0 0 0)
(0 0 0)
(0 0 0)
(0 0 0)
(0 0 0)
(0 0 0)
(0 0 0)
(0 0 0)
(0 0 0)
(0 0 0)
(0 0 0)
(0 0 0)
(0 0 0)
(0 0 0)
(-0.322107047055 0.00839410129515 0)
(-0.00773258678214 0.000144582171297 0)
(0 0 0)
(0 0 0)
(0 0 0)
(0 0 0)
(0 0 0)
(0 0 0)
(-0.0707348453981 0.00186397542958 0)
(0 0 0)
(0 0 0)
(0 0 0)
(0 0 0)
(0 0 0)
(0 0 0)
(0 0 0)
(0 0 0)
(0 0 0)
(0 0 0)
(0 0 0)
(0 0 0)
(0 0 0)
(0 0 0)
(0 0 0)
(0 0 0)
(0 0 0)
(0 0 0)
(0 0 0)
(0 0 0)
(0 0 0)
(0 0 0)
(0 0 0)
(0 0 0)
(0 0 0)
(0 0 0)
(0 0 0)
(-1.5100536132 0.0519635829018 0)
(-0.0431493891757 0.00147108853302 0)
(0 0 0)
(0 0 0)
(0 0 0)
(0 0 0)
(0 0 0)
(0 0 0)
(-0.331220686513 0.0112707171506 0)
(-0.0065595255489 0.00024653427745 0)
(0 0 0)
(0 0 0)
(0 0 0)
(0 0 0)
(0 0 0)
(0 0 0)
(0 0 0)
(0 0 0)
(0 0 0)
(0 0 0)
(0 0 0)
(0 0 0)
(0 0 0)
(0 0 0)
(0 0 0)
(0 0 0)
(0 0 0)
(0 0 0)
(0 0 0)
(0 0 0)
(0 0 0)
(0 0 0)
(0 0 0)
(0 0 0)
(0 0 0)
(0 0 0)
(0 0 0)
(0 0 0)
(0 0 0)
(0 0 0)
(0 0 0)
(0 0 0)
(0 0 0)
(-2.53527385821 0.0800411512523 0)
(-0.0765365454596 0.00241633588877 0)
(0 0 0)
(0 0 0)
(0 0 0)
(0 0 0)
(0 0 0)
(0 0 0)
(-2.53521382838 0.08003925605 0)
(-0.565673929619 0.0178588961557 0)
(-0.0158452192059 0.000516166791262 0)
(0 0 0)
(0 0 0)
(0 0 0)
(0 0 0)
(0 0 0)
(0 0 0)
(-0.0464336011006 0.00146595559168 0)
(-0.0765556789074 0.00241693995101 0)
(-0.0158453427287 0.000516170815084 0)
(0 0 0)
(0 0 0)
(0 0 0)
(0 0 0)
(0 0 0)
(0 0 0)
(0 0 0)
(0 0 0)
(0 0 0)
(0 0 0)
(0 0 0)
(0 0 0)
(0 0 0)
(0 0 0)
(0 0 0)
(0 0 0)
(0 0 0)
(0 0 0)
(0 0 0)
(0 0 0)
(0 0 0)
(0 0 0)
(0 0 0)
(0 0 0)
(0 0 0)
(0 0 0)
(-0.0670122775186 0.0017721689017 0)
(-0.00215428240342 5.70698306541e-05 0)
(0 0 0)
(0 0 0)
(0 0 0)
(0 0 0)
(0 0 0)
(0 0 0)
(-0.0420505749013 0.00111204579068 0)
(-0.067014312014 0.00177222270482 0)
(-0.0150888732962 0.000399724494063 0)
(-0.000375469786823 8.04675943219e-06 0)
(0 0 0)
(0 0 0)
(0 0 0)
(0 0 0)
(0 0 0)
(0 0 0)
(-0.00119739705067 2.88960102932e-05 0)
(-0.00215587580276 5.71120419401e-05 0)
(-0.000386236254433 8.27749750442e-06 0)
(0 0 0)
(0 0 0)
(0 0 0)
(0 0 0)
(0 0 0)
(0 0 0)
(0 0 0)
(0 0 0)
(0 0 0)
(0 0 0)
(0 0 0)
(0 0 0)
(0 0 0)
(0 0 0)
(0 0 0)
(0 0 0)
(0 0 0)
(0 0 0)
(0 0 0)
(0 0 0)
(0 0 0)
(0 0 0)
(0 0 0)
(0 0 0)
(0 0 0)
(0 0 0)
(-0.000184321147224 4.89463099749e-06 0)
(-0.000184201820013 4.89146227445e-06 0)
(-2.37058784835e-05 6.16222322861e-07 0)
(0 0 0)
(0 0 0)
(0 0 0)
(0 0 0)
(0 0 0)
(0 0 0)
(0 0 0)
(-2.41080361954e-05 6.26676209207e-07 0)
(-2.39693435117e-05 6.23070963032e-07 0)
(-2.37499703194e-06 7.68039100983e-08 0)
(0 0 0)
(0 0 0)
(0 0 0)
(0 0 0)
(0 0 0)
(0 0 0)
(0 0 0)
(0 0 0)
(0 0 0)
(0 0 0)
(0 0 0)
(0 0 0)
(0 0 0)
(0 0 0)
(0 0 0)
(0 0 0)
(0 0 0)
(0 0 0)
(0 0 0)
(0 0 0)
(0 0 0)
(0 0 0)
(0 0 0)
(0 0 0)
(0 0 0)
(0 0 0)
(0 0 0)
(0 0 0)
(0 0 0)
(0 0 0)
(0 0 0)
(0 0 0)
(0 0 0)
(0 0 0)
(0 0 0)
(0 0 0)
(-0.0033610716064 6.28445621666e-05 0)
(-0.0091363996748 0.000170830349538 0)
(-0.00203860633194 3.81174034248e-05 0)
(-0.0867956063873 0.0019597468379 0)
(-0.017792656759 0.000332683100732 0)
(-0.0526443978314 0.0011886510905 0)
(-0.0107928198733 0.00020180172246 0)
(0 0 0)
(0 0 0)
(0 0 0)
(-0.00240792294451 4.50228025165e-05 0)
(0 0 0)
(0 0 0)
(0 0 0)
(0 0 0)
(0 0 0)
(0 0 0)
(-0.0177952093098 0.000332730827754 0)
(-0.00397065603366 7.42424349051e-05 0)
(-0.00397065275785 7.42423736548e-05 0)
(0 0 0)
(0 0 0)
(0 0 0)
(0 0 0)
(0 0 0)
(0 0 0)
(0 0 0)
(0 0 0)
(-0.070717752952 0.0018635250165 0)
(-0.195373333715 0.00509142401126 0)
(-0.042896112686 0.00113038064368 0)
(-0.801689508933 0.0243886121659 0)
(-0.176876839726 0.00537709597677 0)
(-0.48624489128 0.0147923079184 0)
(-0.10727651919 0.00326123047333 0)
(0 0 0)
(-0.00468982257251 8.76892493594e-05 0)
(0 0 0)
(-0.0227989483544 0.000718656063206 0)
(0 0 0)
(-0.0121943409176 0.00037437235448 0)
(0 0 0)
(-0.0149431584966 0.000384297705374 0)
(-0.0149437437224 0.000384312755802 0)
(-0.00284508106621 5.3196686912e-05 0)
(-0.176915687204 0.0053782769489 0)
(-0.0375946855641 0.00118503925291 0)
(-0.037598059061 0.00118514559044 0)
(-0.00739796718041 0.000227121286048 0)
(0 0 0)
(0 0 0)
(0 0 0)
(-0.00336021602019 6.28285646079e-05 0)
(0 0 0)
(0 0 0)
(0 0 0)
(-0.331141247203 0.0112680140043 0)
(-0.900348665955 0.0306369003029 0)
(-0.200843393369 0.00683426238281 0)
(-2.21082763829 0.0764638895588 0)
(-0.487425486804 0.0167320207046 0)
(-1.32544901311 0.0454991397262 0)
(-0.295670847978 0.0101495939052 0)
(0 0 0)
(-0.0261706312002 0.000892233150824 0)
(0 0 0)
(-0.0659622201749 0.00226430759894 0)
(0 0 0)
(-0.0400081011813 0.00137337171617 0)
(0 0 0)
(-0.0738895104157 0.00251429879294 0)
(-0.073905075634 0.00251482844335 0)
(-0.0140011154991 0.000526425729518 0)
(-0.487600160671 0.0167380167939 0)
(-0.108790391339 0.00373448481792 0)
(-0.10879880886 0.00373477376905 0)
(-0.0242762472231 0.000833339007011 0)
(0 0 0)
(0 0 0)
(0 0 0)
(-0.0133142088344 0.000459841117527 0)
(0 0 0)
(0 0 0)
(0 0 0)
(-7.08148211462 0.228318969153 0)
(-4.20563908721 0.133418988772 0)
(-4.06259698399 0.112720110022 0)
(-1.92814274178 0.0534979134896 0)
(-0.565645339583 0.0178579935395 0)
(-1.5376821259 0.0485461746938 0)
(-0.343081174963 0.0108314185184 0)
(-2.46928262627 0.0685122866988 0)
(-0.260756421294 0.00723490235756 0)
(-1.16866857534 0.0324256752296 0)
(-0.123037400718 0.00341377434199 0)
(0 0 0)
(-0.046427448283 0.00146576134102 0)
(0 0 0)
(-0.0941775537929 0.00262697422538 0)
(0 0 0)
(-0.0444865505964 0.00124090101183 0)
(0 0 0)
(0 0 0)
(0 0 0)
(0 0 0)
(0 0 0)
(0 0 0)
(0 0 0)
(0 0 0)
(0 0 0)
(0 0 0)
(0 0 0)
(0 0 0)
(0 0 0)
(0 0 0)
(0 0 0)
(0 0 0)
(0 0 0)
(0 0 0)
(0 0 0)
(0 0 0)
(0 0 0)
(0 0 0)
(0 0 0)
(0 0 0)
(0 0 0)
(0 0 0)
(0 0 0)
(0 0 0)
(0 0 0)
(0 0 0)
(0 0 0)
(0 0 0)
(0 0 0)
(0 0 0)
(0 0 0)
(0 0 0)
(0 0 0)
(0 0 0)
(0 0 0)
(0 0 0)
(0 0 0)
(0 0 0)
(0 0 0)
(-0.343104769584 0.0108321634244 0)
(-0.565681378712 0.0178591313311 0)
(-1.9635605507 -0.13689325736 0.0450042718838)
(-2.50297228186 0.0694470340291 0)
(-0.124694483372 0.00345975146939 0)
(-0.262575514482 0.00728537460107 0)
(-1.53767073317 0.0485458150138 0)
(-0.565677234452 0.0178590004926 0)
(-0.343098793604 0.0108319747566 0)
(-2.49370729386 0.069189969282 0)
(-1.16958361709 0.032451063819 0)
(-0.261630391297 0.00725915137739 0)
(-0.122253154196 0.00339201477424 0)
(-0.126217824689 0.00398482395262 0)
(-0.126218491403 0.00398484500145 0)
(-0.0281631894126 0.000889140278169 0)
(-0.708648344383 0.0196620338322 0)
(-0.0733811059935 0.00204688130357 0)
(-0.0728141799904 0.00203106755669 0)
(-0.00538539813305 0.000107230377849 0)
(0 0 0)
(0 0 0)
(0 0 0)
(-0.0269903079875 0.000752863506884 0)
(0 0 0)
(0 0 0)
(0 0 0)
(0 0 0)
(0 0 0)
(0 0 0)
(0 0 0)
(0 0 0)
(0 0 0)
(0 0 0)
(0 0 0)
(0 0 0)
(0 0 0)
(0 0 0)
(0 0 0)
(0 0 0)
(0 0 0)
(0 0 0)
(0 0 0)
(0 0 0)
(0 0 0)
(0 0 0)
(0 0 0)
(0 0 0)
(0 0 0)
(0 0 0)
(0 0 0)
(0 0 0)
(0 0 0)
(0 0 0)
(0 0 0)
(0 0 0)
(0 0 0)
(0 0 0)
(0 0 0)
(0 0 0)
(0 0 0)
(0 0 0)
(0 0 0)
(0 0 0)
(0 0 0)
(0 0 0)
(0 0 0)
(0 0 0)
(0 0 0)
(-0.0765559447308 0.00241694834332 0)
(0 0 0)
(0 0 0)
(-0.0450951978452 0.00125787852473 0)
(-0.0949362813785 0.00264813805616 0)
(0 0 0)
(0 0 0)
(-0.0464331615481 0.00146594171456 0)
(0 0 0)
(0 0 0)
(-0.0945518113037 0.00263741370692 0)
(-0.0441256043583 0.00123083283288 0)
(0 0 0)
(0 0 0)
(0 0 0)
(0 0 0)
(0 0 0)
(-0.0267151765155 0.000745189031847 0)
(0 0 0)
(0 0 0)
(0 0 0)
(0 0 0)
(0 0 0)
(0 0 0)
(0 0 0)
(0 0 0)
(0 0 0)
(0 0 0)
(0 0 0)
(0 0 0)
(0 0 0)
(0 0 0)
(0 0 0)
(0 0 0)
(0 0 0)
(0 0 0)
(0 0 0)
(0 0 0)
(0 0 0)
(0 0 0)
(0 0 0)
(0 0 0)
(0 0 0)
(0 0 0)
(0 0 0)
(0 0 0)
(0 0 0)
(0 0 0)
(0 0 0)
(0 0 0)
(0 0 0)
(0 0 0)
(0 0 0)
(0 0 0)
(0 0 0)
(0 0 0)
(0 0 0)
(0 0 0)
(0 0 0)
(0 0 0)
(0 0 0)
(0 0 0)
(0 0 0)
(0 0 0)
(0 0 0)
(0 0 0)
(0 0 0)
(0 0 0)
(0 0 0)
(0 0 0)
(0 0 0)
(0 0 0)
(0 0 0)
(0 0 0)
(0 0 0)
(0 0 0)
(0 0 0)
(0 0 0)
(0 0 0)
(0 0 0)
(0 0 0)
(0 0 0)
(0 0 0)
(0 0 0)
(0 0 0)
(0 0 0)
(0 0 0)
(0 0 0)
(0 0 0)
(0 0 0)
(0 0 0)
(0 0 0)
(0 0 0)
(0 0 0)
(0 0 0)
(0 0 0)
(0 0 0)
(0 0 0)
(0 0 0)
(0 0 0)
(0 0 0)
(0 0 0)
(0 0 0)
(0 0 0)
(0 0 0)
(0 0 0)
(0 0 0)
(0 0 0)
(0 0 0)
(0 0 0)
(0 0 0)
(0 0 0)
(0 0 0)
(0 0 0)
(0 0 0)
(0 0 0)
(0 0 0)
(0 0 0)
(0 0 0)
(0 0 0)
(0 0 0)
(0 0 0)
(0 0 0)
(0 0 0)
(0 0 0)
(0 0 0)
(0 0 0)
(0 0 0)
(0 0 0)
(0 0 0)
(0 0 0)
(0 0 0)
(0 0 0)
(0 0 0)
(0 0 0)
(0 0 0)
(0 0 0)
(0 0 0)
(0 0 0)
(0 0 0)
(0 0 0)
(0 0 0)
(0 0 0)
(0 0 0)
(0 0 0)
(0 0 0)
(0 0 0)
(0 0 0)
(0 0 0)
(0 0 0)
(0 0 0)
(0 0 0)
(0 0 0)
(0 0 0)
(0 0 0)
(0 0 0)
(0 0 0)
(0 0 0)
(0 0 0)
(0 0 0)
(0 0 0)
(0 0 0)
(0 0 0)
(0 0 0)
(0 0 0)
(0 0 0)
(0 0 0)
(0 0 0)
(0 0 0)
(0 0 0)
(0 0 0)
(0 0 0)
(0 0 0)
(0 0 0)
(0 0 0)
(0 0 0)
(0 0 0)
(0 0 0)
(0 0 0)
(0 0 0)
(0 0 0)
(0 0 0)
(0 0 0)
(0 0 0)
(0 0 0)
(0 0 0)
(0 0 0)
(0 0 0)
(0 0 0)
(0 0 0)
(0 0 0)
(-0.00156946721303 4.07413569372e-05 0)
(-0.00277134038393 7.19404437625e-05 0)
(-0.000937680468812 2.43506455175e-05 0)
(-0.00152196671094 3.95083047942e-05 0)
(-0.179768091931 0.00475404558439 0)
(-0.108535457206 0.00287026749596 0)
(-0.0027103716386 7.03577732903e-05 0)
(-0.00147336003776 3.82465378678e-05 0)
(-0.00149147025009 3.87166557643e-05 0)
(-0.000884863277071 2.29790346585e-05 0)
(-0.0152592854606 0.000404238940893 0)
(-0.0407323353438 0.00107718437073 0)
(-0.00927827919595 0.000245794061928 0)
(-0.00053514652991 1.38972324616e-05 0)
(-0.000120558285813 3.13078087864e-06 0)
(-0.000329178395054 8.54844126182e-06 0)
(-7.36299309751e-05 1.9120973597e-06 0)
(0 0 0)
(-0.00122464603794 2.9553592518e-05 0)
(0 0 0)
(-1.57456025154e-05 3.68270550689e-07 0)
(0 0 0)
(-9.24748389521e-06 2.1628743538e-07 0)
(0 0 0)
(0 0 0)
(0 0 0)
(0 0 0)
(0 0 0)
(0 0 0)
(0 0 0)
(0 0 0)
(0 0 0)
(0 0 0)
(0 0 0)
(0 0 0)
(0 0 0)
(0 0 0)
(0 0 0)
(0 0 0)
(0 0 0)
(0 0 0)
(0 0 0)
(0 0 0)
(0 0 0)
(0 0 0)
(0 0 0)
(0 0 0)
(0 0 0)
(0 0 0)
(0 0 0)
(0 0 0)
(0 0 0)
(0 0 0)
(0 0 0)
(0 0 0)
(0 0 0)
(0 0 0)
(0 0 0)
(0 0 0)
(0 0 0)
(0 0 0)
(0 0 0)
(0 0 0)
(0 0 0)
(0 0 0)
(0 0 0)
(-0.0674692549709 0.00178425386971 0)
(-0.00930821085103 0.000246586991621 0)
(-0.0152297314927 0.000403456016637 0)
(-0.00037003564807 9.60946419884e-06 0)
(-0.0006396815458 1.66119046775e-05 0)
(-8.65523564938e-05 2.24768012323e-06 0)
(-0.000151751663892 3.94084242666e-06 0)
(-0.0407047886276 0.00107645588581 0)
(-0.0154398110271 0.000409021305308 0)
(-0.00943241725372 0.000249877385841 0)
(-0.000619757130461 1.60944870804e-05 0)
(-0.000358576356438 9.31187759266e-06 0)
(-0.000128459206644 3.33596007221e-06 0)
(-7.92341104458e-05 2.05763242441e-06 0)
(-0.00343970887372 9.11225021433e-05 0)
(-0.00350938338761 9.29682734789e-05 0)
(-0.000744651424219 1.79701922658e-05 0)
(-0.0001224201912 3.17913274217e-06 0)
(-2.62675779554e-05 6.53750041735e-07 0)
(-2.70790292345e-05 6.73945520301e-07 0)
(-3.39687667879e-06 1.09849994566e-07 0)
(0 0 0)
(0 0 0)
(0 0 0)
(0 0 0)
(0 0 0)
(0 0 0)
(0 0 0)
(0 0 0)
(0 0 0)
(0 0 0)
(0 0 0)
(0 0 0)
(0 0 0)
(0 0 0)
(0 0 0)
(0 0 0)
(0 0 0)
(0 0 0)
(0 0 0)
(0 0 0)
(0 0 0)
(0 0 0)
(0 0 0)
(0 0 0)
(0 0 0)
(0 0 0)
(0 0 0)
(0 0 0)
(0 0 0)
(0 0 0)
(0 0 0)
(0 0 0)
(0 0 0)
(0 0 0)
(0 0 0)
(0 0 0)
(0 0 0)
(0 0 0)
(0 0 0)
(0 0 0)
(0 0 0)
(0 0 0)
(0 0 0)
(0 0 0)
(0 0 0)
(0 0 0)
(0 0 0)
(0 0 0)
(0 0 0)
(-0.00210767103247 5.58350329124e-05 0)
(0 0 0)
(0 0 0)
(-1.01562397902e-05 2.37542133861e-07 0)
(-1.78861184493e-05 4.18334622923e-07 0)
(0 0 0)
(0 0 0)
(-0.00124827209486 3.01237449028e-05 0)
(0 0 0)
(0 0 0)
(-1.51586676738e-05 3.54542856424e-07 0)
(-9.77483977631e-06 2.2862165e-07 0)
(0 0 0)
(0 0 0)
(0 0 0)
(0 0 0)
(0 0 0)
(0 0 0)
(0 0 0)
(0 0 0)
(0 0 0)
(0 0 0)
(0 0 0)
(0 0 0)
(0 0 0)
(0 0 0)
(0 0 0)
(0 0 0)
(0 0 0)
(0 0 0)
(0 0 0)
(0 0 0)
(0 0 0)
(0 0 0)
(0 0 0)
(0 0 0)
(0 0 0)
(0 0 0)
(0 0 0)
(0 0 0)
(0 0 0)
(0 0 0)
(0 0 0)
(0 0 0)
(0 0 0)
(0 0 0)
(0 0 0)
(0 0 0)
(0 0 0)
(0 0 0)
(0 0 0)
(0 0 0)
(0 0 0)
(0 0 0)
(0 0 0)
(0 0 0)
(0 0 0)
(0 0 0)
(0 0 0)
(0 0 0)
(0 0 0)
(0 0 0)
(0 0 0)
(0 0 0)
(0 0 0)
(0 0 0)
(0 0 0)
(0 0 0)
(0 0 0)
(0 0 0)
(0 0 0)
(0 0 0)
(0 0 0)
(0 0 0)
(0 0 0)
(0 0 0)
(0 0 0)
(0 0 0)
(0 0 0)
(0 0 0)
(0 0 0)
(0 0 0)
(0 0 0)
(0 0 0)
(0 0 0)
(0 0 0)
(0 0 0)
(0 0 0)
(0 0 0)
(0 0 0)
(0 0 0)
(0 0 0)
(0 0 0)
(0 0 0)
(0 0 0)
(0 0 0)
(0 0 0)
(0 0 0)
(0 0 0)
(0 0 0)
(0 0 0)
(0 0 0)
(0 0 0)
(0 0 0)
(0 0 0)
(0 0 0)
(0 0 0)
(0 0 0)
(0 0 0)
(0 0 0)
(0 0 0)
(0 0 0)
(0 0 0)
(0 0 0)
(0 0 0)
(0 0 0)
(0 0 0)
(0 0 0)
(0 0 0)
(0 0 0)
(0 0 0)
(0 0 0)
(0 0 0)
(0 0 0)
(0 0 0)
(0 0 0)
(0 0 0)
(0 0 0)
(0 0 0)
(0 0 0)
(0 0 0)
(0 0 0)
(0 0 0)
(0 0 0)
(0 0 0)
(0 0 0)
(0 0 0)
(0 0 0)
(0 0 0)
(0 0 0)
(0 0 0)
(0 0 0)
(0 0 0)
(0 0 0)
(0 0 0)
(0 0 0)
(0 0 0)
(0 0 0)
(0 0 0)
(0 0 0)
(0 0 0)
(0 0 0)
(0 0 0)
(0 0 0)
(0 0 0)
(0 0 0)
(0 0 0)
(0 0 0)
(0 0 0)
(0 0 0)
(0 0 0)
(0 0 0)
(0 0 0)
(0 0 0)
(0 0 0)
(0 0 0)
(0 0 0)
(0 0 0)
(0 0 0)
(0 0 0)
(0 0 0)
(0 0 0)
(0 0 0)
(0 0 0)
(0 0 0)
(0 0 0)
(0 0 0)
(0 0 0)
(0 0 0)
(0 0 0)
(0 0 0)
(0 0 0)
(0 0 0)
(0 0 0)
(0 0 0)
(0 0 0)
(0 0 0)
(0 0 0)
(0 0 0)
(0 0 0)
(0 0 0)
(0 0 0)
(0 0 0)
(0 0 0)
(0 0 0)
(0 0 0)
(-6.98854105982 0.203749237706 0)
(-5.42944215339 0.157940254814 0)
(-5.88766502874 0.163358130877 0)
(-3.59716267648 0.0998062505974 0)
(-4.7919444192 0.139395706086 0)
(-5.21965132561 0.144823538741 0)
(-7.92681570813 0.231338641073 0)
(-5.43034233918 0.157966440851 0)
(-2.56516306339 0.0746195458807 0)
(-2.80093875918 0.0777143601357 0)
(-2.80512409056 0.0778304856131 0)
(-3.7323818665 0.108573464162 0)
(-3.73221436222 0.108568591531 0)
(-4.07115896861 0.11295766936 0)
(-1.55596854863 0.0452624896096 0)
(-3.29339660942 0.0958035623183 0)
(-1.32273639474 0.0367004141767 0)
(-2.18281137571 0.0605639051566 0)
(-2.90672406008 0.0845554157784 0)
(-1.16850570866 0.0324211563591 0)
(-1.76307013062 0.0512869900477 0)
(-0.735051283529 0.021382341637 0)
(-0.347281249838 0.0101022697253 0)
(-0.625059683145 0.0173427973614 0)
(-0.230128809207 0.00638511395429 0)
(-0.306441132729 0.00891424739807 0)
(-0.551956657837 0.0153144935233 0)
(-0.832969086681 0.0242307305403 0)
(-1.21178399804 0.0352503016007 0)
(-1.55586950558 0.0452596084877 0)
(-1.6990446659 0.0471413980828 0)
(-0.625022557256 0.017341767273 0)
(-2.26386572406 0.065854929332 0)
(-0.832808455045 0.0242260578316 0)
(-0.909480966359 0.0252343008659 0)
(-0.572433688166 0.0166518622022 0)
(-0.1640082988 0.00477093442978 0)
(-0.179164967144 0.00497108004762 0)
(-0.295134108038 0.00818873968068 0)
(-0.238649330761 0.00694221156554 0)
(-0.393405374983 0.0114440016883 0)
(-0.429640505363 0.0119207308097 0)
(-0.0354936630006 0.00104400464206 0)
(-0.127758982365 0.0037164566192 0)
(-0.0304913855015 0.000850522025502 0)
(-0.0831172613282 0.00231846012558 0)
(-0.112740882254 0.00327958622048 0)
(-0.0269163825498 0.000750801442075 0)
(-0.0402210993229 0.00118305666003 0)
(-0.00887380392698 0.000212952843371 0)
(0 0 0)
(-0.00787328658062 0.000188359944458 0)
(0 0 0)
(0 0 0)
(-0.00537995574437 0.000107122012714 0)
(-0.0100554525405 0.000241309953149 0)
(-0.0276433968946 0.000813098233332 0)
(-0.0603424055977 0.00175533593452 0)
(-0.064771372261 0.00180672271279 0)
(-0.0130777963174 0.000312872262778 0)
(-0.0878040132507 0.0025541828856 0)
(-0.0189983158165 0.000558813270509 0)
(-0.0209874725916 0.000585421338032 0)
(-0.00503181963869 9.50969490451e-05 0)
(0 0 0)
(0 0 0)
(0 0 0)
(0 0 0)
(0 0 0)
(-0.00419821463505 8.35919890201e-05 0)
(0 0 0)
(0 0 0)
(0 0 0)
(0 0 0)
(0 0 0)
(0 0 0)
(0 0 0)
(0 0 0)
(0 0 0)
(0 0 0)
(0 0 0)
(0 0 0)
(0 0 0)
(0 0 0)
(0 0 0)
(0 0 0)
(0 0 0)
(0 0 0)
(0 0 0)
(0 0 0)
(0 0 0)
(0 0 0)
(0 0 0)
(0 0 0)
(0 0 0)
(0 0 0)
(0 0 0)
(0 0 0)
(0 0 0)
(0 0 0)
(0 0 0)
(0 0 0)
(0 0 0)
(0 0 0)
(0 0 0)
(0 0 0)
(0 0 0)
(0 0 0)
(0 0 0)
(0 0 0)
(0 0 0)
(0 0 0)
(0 0 0)
(0 0 0)
(0 0 0)
(0 0 0)
(0 0 0)
(0 0 0)
(0 0 0)
(0 0 0)
(0 0 0)
(0 0 0)
(0 0 0)
(0 0 0)
(0 0 0)
(0 0 0)
(0 0 0)
(0 0 0)
(0 0 0)
(0 0 0)
(0 0 0)
(0 0 0)
(0 0 0)
(0 0 0)
(0 0 0)
(0 0 0)
(0 0 0)
(0 0 0)
(0 0 0)
(0 0 0)
(0 0 0)
(0 0 0)
(0 0 0)
(0 0 0)
(0 0 0)
(0 0 0)
(0 0 0)
(0 0 0)
(0 0 0)
(0 0 0)
(0 0 0)
(0 0 0)
(0 0 0)
(0 0 0)
(0 0 0)
(0 0 0)
(0 0 0)
(0 0 0)
(0 0 0)
(0 0 0)
(0 0 0)
(0 0 0)
(0 0 0)
(0 0 0)
(0 0 0)
(0 0 0)
(0 0 0)
(0 0 0)
(0 0 0)
(0 0 0)
(0 0 0)
(0 0 0)
(0 0 0)
(0 0 0)
(0 0 0)
(0 0 0)
(0 0 0)
(0 0 0)
(0 0 0)
(0 0 0)
(0 0 0)
(0 0 0)
(0 0 0)
(0 0 0)
(0 0 0)
(0 0 0)
(0 0 0)
(0 0 0)
(0 0 0)
(0 0 0)
(0 0 0)
(0 0 0)
(0 0 0)
(0 0 0)
(0 0 0)
(0 0 0)
(0 0 0)
(0 0 0)
(0 0 0)
(0 0 0)
(0 0 0)
(0 0 0)
(0 0 0)
(0 0 0)
(0 0 0)
(0 0 0)
(0 0 0)
(0 0 0)
(0 0 0)
(0 0 0)
(0 0 0)
(0 0 0)
(0 0 0)
(0 0 0)
(0 0 0)
(0 0 0)
(0 0 0)
(0 0 0)
(0 0 0)
(0 0 0)
(0 0 0)
(0 0 0)
(0 0 0)
(0 0 0)
(0 0 0)
(0 0 0)
(0 0 0)
(0 0 0)
(0 0 0)
(0 0 0)
(0 0 0)
(0 0 0)
(0 0 0)
(0 0 0)
(0 0 0)
(0 0 0)
(0 0 0)
(0 0 0)
(-1.49943077405 -0.0274141576103 0.0165999444303)
(-5.42209009211 -0.828956492693 0.231567965826)
(-2.18633954168 -0.0518042120852 0.0264289059651)
(-0.700138664785 0.00448131990605 0.00348296778316)
(-4.60085744196 -0.46193054785 0.13980441226)
(-0.94719058255 0.0208928703881 0.00124934583167)
(-1.33635525911 -0.0868062520542 0.0294117507375)
(-1.61686045355 0.0328748098633 0.00328249689454)
(-3.44317825765 0.0637679029075 0.00849093569295)
(-2.36320713597 0.0300442929897 0.00832555436795)
(-1.33734806241 0.0371058269689 0)
(-3.75287779131 -0.105742908297 0.0504105444902)
(-1.7632233567 0.0512914473319 0)
(-1.18308225828 0.032825594772 0)
(-0.572415968873 0.0166513467552 0)
(-0.163989791031 0.00477039604634 0)
(-0.299673729293 0.00831469522324 0)
(-0.181135166967 0.00502574486957 0)
(-0.238593646553 0.00694059173468 0)
(-0.435360455651 0.0120794355565 0)
(-0.393418807233 0.011444392427 0)
(-0.734976089293 0.0213801542674 0)
(-0.347097695683 0.0100969302099 0)
(-0.631218414026 0.0175136764383 0)
(-0.23218929276 0.00644228377292 0)
(-0.832767478213 0.0242248658323 0)
(-0.306344916572 0.00891144850936 0)
(-0.558077958656 0.0154843340722 0)
(-1.55562364226 0.0452524564241 0)
(-3.29374236283 0.095813620144 0)
(-2.19353186054 0.0608613538658 0)
(-1.33315729794 0.0369895507461 0)
(-2.90633022386 0.0845439592434 0)
(-1.76302141239 0.0512855728543 0)
(-1.17308300463 0.0325481572177 0)
(-1.21139945866 0.0352391155072 0)
(-1.55561539231 0.0452522164366 0)
(-1.70475765723 0.0472999097477 0)
(-0.625019382155 0.0173416791772 0)
(-2.26340042826 0.0658413940673 0)
(-0.832567095023 0.0242190367671 0)
(-0.911262317521 0.0252837259258 0)
(-0.734703776409 0.0213722327968 0)
(-0.347045560826 0.0100954136282 0)
(-0.628974856307 0.0174514270757 0)
(-0.230131323755 0.00638518372248 0)
(-0.832655760206 0.0242216160011 0)
(-0.306223582529 0.0089079189516 0)
(-0.553327978709 0.0153525419539 0)
(-0.57214666231 0.0166435127373 0)
(-0.163904876568 0.00476792591929 0)
(-0.294219404192 0.0081633604667 0)
(-0.178495580666 0.00495250736671 0)
(-0.393230897844 0.0114389262196 0)
(-0.238476608475 0.00693718714479 0)
(-0.429343328956 0.0119124854048 0)
(-0.270301090828 0.00786294833906 0)
(-0.943533170668 0.0274469945882 0)
(-0.37876727332 0.0105092109529 0)
(-0.37872603625 0.0105080667963 0)
(-0.505040502956 0.0146914219684 0)
(-0.504981055486 0.0146896926658 0)
(-0.202469335753 0.0056176790098 0)
(-0.127687152493 0.00371436711756 0)
(-0.0994586064961 0.00289321024328 0)
(-0.178891958295 0.00496350519153 0)
(-0.0391962921919 0.00109333535616 0)
(-0.238571701591 0.00693995336467 0)
(-0.0516206534996 0.00151836123194 0)
(-0.0940385341279 0.00262309643219 0)
(-0.127668627944 0.003713828246 0)
(-0.0994164611279 0.00289198425173 0)
(-0.17815732645 0.00494312222398 0)
(-0.0389250796105 0.00108577019406 0)
(-0.238508786879 0.00693812320142 0)
(-0.0516063940435 0.0015179418067 0)
(-0.0936917792329 0.00261342410439 0)
(-0.0603087193447 0.00175435601517 0)
(-0.00886914874029 0.000212841128569 0)
(-0.0184768034136 0.000515389117471 0)
(-0.0184012101268 0.000513280529936 0)
(-0.0243810281938 0.000717139468306 0)
(-0.024379008359 0.000717080057226 0)
(-0.044288576938 0.001235378765 0)
(0 0 0)
(-0.0354850164113 0.00104375031273 0)
(-0.00794132172081 0.000189987612281 0)
(-0.0130736026772 0.000312771934431 0)
(-0.0100537874945 0.000241269995507 0)
(-0.0189919891613 0.000558627179337 0)
(0 0 0)
(0 0 0)
(0 0 0)
(0 0 0)
(0 0 0)
(0 0 0)
(0 0 0)
(0 0 0)
(0 0 0)
(0 0 0)
(-0.00477229156626 9.50226176806e-05 0)
(0 0 0)
(-0.00782775842738 0.000187849926373 0)
(0 0 0)
(0 0 0)
(0 0 0)
(0 0 0)
(0 0 0)
(0 0 0)
(0 0 0)
(0 0 0)
(0 0 0)
(0 0 0)
(0 0 0)
(0 0 0)
(0 0 0)
(0 0 0)
(0 0 0)
(0 0 0)
(0 0 0)
(0 0 0)
(0 0 0)
(0 0 0)
(0 0 0)
(0 0 0)
(0 0 0)
(0 0 0)
(0 0 0)
(0 0 0)
(0 0 0)
(0 0 0)
(0 0 0)
(0 0 0)
(0 0 0)
(0 0 0)
(0 0 0)
(0 0 0)
(0 0 0)
(0 0 0)
(0 0 0)
(0 0 0)
(0 0 0)
(0 0 0)
(0 0 0)
(0 0 0)
(0 0 0)
(0 0 0)
(0 0 0)
(0 0 0)
(0 0 0)
(0 0 0)
(0 0 0)
(0 0 0)
(0 0 0)
(0 0 0)
(0 0 0)
(0 0 0)
(0 0 0)
(0 0 0)
(0 0 0)
(0 0 0)
(0 0 0)
(0 0 0)
(0 0 0)
(0 0 0)
(0 0 0)
(0 0 0)
(0 0 0)
(0 0 0)
(0 0 0)
(0 0 0)
(0 0 0)
(0 0 0)
(0 0 0)
(0 0 0)
(0 0 0)
(0 0 0)
(0 0 0)
(0 0 0)
(0 0 0)
(0 0 0)
(0 0 0)
(0 0 0)
(0 0 0)
(0 0 0)
(0 0 0)
(0 0 0)
(0 0 0)
(0 0 0)
(0 0 0)
(0 0 0)
(0 0 0)
(0 0 0)
(0 0 0)
(0 0 0)
(0 0 0)
(0 0 0)
(0 0 0)
(0 0 0)
(0 0 0)
(0 0 0)
(0 0 0)
(0 0 0)
(0 0 0)
(0 0 0)
(0 0 0)
(0 0 0)
(0 0 0)
(0 0 0)
(0 0 0)
(0 0 0)
(0 0 0)
(0 0 0)
(0 0 0)
(0 0 0)
(0 0 0)
(0 0 0)
(0 0 0)
(0 0 0)
(0 0 0)
(0 0 0)
(0 0 0)
(0 0 0)
(0 0 0)
(0 0 0)
(0 0 0)
(0 0 0)
(0 0 0)
(0 0 0)
(0 0 0)
(0 0 0)
(0 0 0)
(0 0 0)
(0 0 0)
(0 0 0)
(0 0 0)
(0 0 0)
(0 0 0)
(0 0 0)
(0 0 0)
(0 0 0)
(0 0 0)
(0 0 0)
(0 0 0)
(0 0 0)
(0 0 0)
(0 0 0)
(0 0 0)
(0 0 0)
(0 0 0)
(0 0 0)
(0 0 0)
(0 0 0)
(0 0 0)
(0 0 0)
(0 0 0)
(0 0 0)
(0 0 0)
(0 0 0)
(0 0 0)
(0 0 0)
(0 0 0)
(0 0 0)
(0 0 0)
(0 0 0)
(0 0 0)
(0 0 0)
(0 0 0)
(0 0 0)
(0 0 0)
(0 0 0)
(0 0 0)
(0 0 0)
(0 0 0)
(0 0 0)
(0 0 0)
(0 0 0)
(0 0 0)
(0 0 0)
(0 0 0)
(-0.0276294351044 0.000812687563578 0)
(-0.0603222486982 0.00175474957854 0)
(-0.0655061666266 0.001827218954 0)
(-0.0132646388679 0.000317342270578 0)
(-0.0877618082282 0.00255295515873 0)
(-0.0212399685333 0.000592464421062 0)
(-0.0189913049499 0.000558607054058 0)
(-0.0354737249969 0.00104341818897 0)
(-0.127670798674 0.00371389139164 0)
(-0.0839526301136 0.00234176177422 0)
(-0.0307642914419 0.0008581344219 0)
(-0.112681274703 0.00327785226116 0)
(-0.0401917535111 0.00118219348725 0)
(-0.0272176840507 0.000759205899881 0)
(-0.00502980388796 9.50588531358e-05 0)
(0 0 0)
(0 0 0)
(0 0 0)
(0 0 0)
(-0.00426057664468 8.48336988604e-05 0)
(0 0 0)
(-0.0088699512485 0.000212860387098 0)
(0 0 0)
(-0.00797229916653 0.000190728714474 0)
(0 0 0)
(-0.0100496200055 0.000241169984436 0)
(0 0 0)
(-0.00545814736698 0.000108678911021 0)
(-0.0354581498562 0.00104296006439 0)
(-0.127654295535 0.00371341132208 0)
(-0.0830998591724 0.00231797471252 0)
(-0.0306293488175 0.000854370353055 0)
(-0.112641828377 0.00327670478365 0)
(-0.0401847346564 0.00118198703584 0)
(-0.0269046787855 0.00075047497907 0)
(-0.0276134414906 0.000812217130111 0)
(-0.0602901094397 0.00175381466064 0)
(-0.0644335333722 0.00179729908669 0)
(-0.0129510558439 0.000309840132765 0)
(-0.0877197105718 0.0025517305551 0)
(-0.0189788727217 0.000558241374586 0)