/*--------------------------------*- C++ -*----------------------------------*\
| =========                 |                                                 |
| \\      /  F ield         | OpenFOAM: The Open Source CFD Toolbox           |
|  \\    /   O peration     | Version:  v1906                                 |
|   \\  /    A nd           | Web:      www.OpenFOAM.com                      |
|    \\/     M anipulation  |                                                 |
\*---------------------------------------------------------------------------*/
FoamFile
{
    version     2.0;
    format      ascii;
    class       volScalarField;
    location    "3.25";
    object      p;
}
// * * * * * * * * * * * * * * * * * * * * * * * * * * * * * * * * * * * * * //

dimensions      [1 -1 -2 0 0 0 0];


internalField   nonuniform List<scalar> 
28582
(
17113.5987661
17114.0836433
12216.3760281
12216.9514281
7320.14687387
7321.01207666
3647.75421168
3649.63075412
11.3713608013
11.8262543205
-26.9827478418
3648.82654462
622.688443733
624.046905599
3649.95476889
3650.25446993
624.3017307
1814.83394992
1815.1103123
17111.8617271
17114.0101691
17113.2037675
12214.203311
12216.7398042
12215.6527283
7317.33172398
7320.64161871
3644.15709356
3649.94615095
12.2163830467
-27.068471025
-26.9760267468
3645.02698073
3645.83975606
618.035793261
620.588663536
1810.05587511
3649.60764907
3649.98789433
3649.2712384
1814.83355982
626.428197513
1814.95941633
1813.82127075
11.6369787339
11.2356861361
-23.2295437278
-23.2424802405
11.6906082701
-23.258901592
1811.88287962
1812.88010785
623.231570806
622.723687355
1812.29812208
623.272973258
1812.56434536
1813.40748761
1813.70174192
623.663775093
623.948379992
1813.90754729
623.627269601
1813.16686879
1814.57079021
1814.10517024
624.450876791
624.181223223
1814.29636005
624.370999908
1814.40360414
1814.74809263
624.737732751
624.743590835
1814.73547571
624.536429186
624.547952682
1814.60554895
1815.31508632
624.823075981
624.691444479
1815.07518053
624.277458192
1815.27417181
624.567160162
11.1031142266
-23.2751286149
9.48180733124
10.6961835396
-23.2537356242
-23.2605685142
12.1794178867
-23.215589585
-23.2228207019
13.567294305
-23.193117476
13.1464136554
-23.1994588765
1808.80649808
1808.00820649
618.820487612
618.483492128
1808.54793612
1808.15900871
619.376383057
1809.45312959
1809.6441995
619.605753868
621.064910801
1809.03409496
1809.9629172
620.377765325
620.787690147
621.654537323
1810.72294737
1809.80054636
621.481073748
1810.34726276
620.787701001
1814.82208813
624.992137721
625.012323982
1814.67871824
625.247035802
1814.79915676
625.440295045
1814.41454283
1814.68426528
625.66357441
626.339483207
1814.72348457
1814.15547886
625.807123032
1814.52515705
1815.12414323
625.143170947
625.201516797
625.403158104
1814.58500765
625.448304262
625.44133402
625.672415803
1813.13180921
1814.1112188
626.078737148
1813.610307
625.705779749
7318.71802881
3648.74622937
14.981607432
-26.958741356
3646.9008544
622.560425055
3648.19180018
3646.31217613
627.372397446
626.096391245
629.7397761
3643.33702066
3639.49771173
630.788249049
628.342059752
11.7712814889
15.5714170246
18.3195752849
-23.1545447194
-23.1483122057
-23.0968644812
21.2920613189
23.9174895468
1811.61395382
1811.4540238
622.207611991
623.035339778
1810.91504289
622.8797188
1812.14261771
1813.18998183
1814.5392586
628.457942989
627.182619847
1814.05598112
1813.83237547
628.0535464
1812.51008268
1812.54230014
626.745888795
627.075623536
1813.1184676
627.620041856
1812.00546629
1811.65755189
1810.61319285
629.740408676
628.448407659
1810.37123747
628.768752929
1811.45409225
1805.61638833
1808.94048303
630.246110624
630.647669342
1808.37300902
630.153564823
1806.05352099
1802.32030054
1798.45701772
628.340223849
629.444353901
1798.76273448
629.456394513
1802.34923817
3651.60897933
3646.10727191
3644.48536985
3642.27487083
-1.58752071307
2.71771176638
-2.43444003086
0.666946978543
1.19015118369
-27.0097879892
-27.1345038267
-26.939964399
-27.0440362319
-26.9421671494
-27.0419814871
3652.06755125
3651.34340163
613.116922971
611.572531343
3654.55325994
612.758973226
3649.56370983
3647.44683611
610.616447051
608.093883576
3652.68465925
3648.50408697
3648.52604655
611.74751708
614.955840464
608.869816721
610.789046949
3646.60075794
3642.74212999
614.117995124
610.53626686
609.6109939
609.182768363
3645.85262931
3644.19388832
608.20422365
609.830896327
608.656835368
3642.12860944
3643.23450678
3641.79650292
608.881725635
608.932560839
607.79497069
608.654438715
607.824427379
608.795827694
-0.181243236859
-1.19037040539
-0.596047088131
-23.3745649725
-23.3430888227
-23.351457905
-23.3210205998
-23.3212114725
-23.3094497748
-23.3071803535
-23.2939090459
-2.17869169344
-2.71851059783
0.156675427764
-2.27435947737
-0.83839259162
-23.3235890675
-23.2933023111
-23.3456059715
-23.3015478749
4.33825235946
1.40075181214
3.00637697963
-23.2786745402
-23.2709291481
-23.2744961282
-23.2627028495
-1.33852951272
-1.19287458391
-23.3475341896
-23.3123412072
-23.3218885128
2.31908858815
0.58985872415
2.22709165513
-23.2833752091
-23.2642546971
-23.2938411578
-23.2741986068
1814.29941467
1816.14376046
612.002528232
612.755727547
1816.16312571
611.515681094
1814.43753272
1814.04828893
1815.31610014
612.15971182
610.378102359
1815.8460513
1813.74117949
610.917328311
1818.44362963
1816.63536801
613.674304573
613.656174775
1817.42578018
1817.58240165
615.17964999
1812.1990049
1814.48103828
609.521600222
609.521796324
1813.07964164
1813.45403207
608.568866687
1811.33920897
1811.3946244
608.675544324
607.309830301
1812.41959688
1810.49403506
607.886906104
1814.98130016
1815.6407814
612.673744413
610.668306993
1816.42843231
1814.44515349
611.977762686
1814.74551724
1815.54578457
614.097370001
612.598896557
1816.63844659
1814.08659502
612.473770298
1813.57088664
1812.06444914
609.606619525
609.590179762
1813.22653305
1812.45350226
610.78661834
1813.18534988
1811.00950779
611.365764508
610.767560191
1812.51925975
1812.27473338
611.161111872
1809.55402376
1813.57666911
612.612935626
613.705692664
1811.25112567
1812.85209793
612.580818983
1806.3047747
1803.72184589
612.480121819
609.36566752
1808.43089892
610.328797166
1804.01621037
1808.20457154
1809.04893846
612.365207436
609.665887882
1811.21407228
1807.50939718
611.220354447
1805.43353461
1803.5924093
609.198221395
610.370303537
1805.87743616
609.47603559
1803.84418595
1810.16260702
1810.94027769
608.831325091
607.618415829
1811.29560377
1809.97980462
608.403619295
1809.84716497
1809.92042605
609.88853473
609.195715207
1811.08799376
1809.34296967
608.593348209
1809.063581
1807.66249301
609.056785625
608.977964765
1808.64477982
1808.47580325
608.413369417
1806.25403135
1808.18009662
609.18921269
610.188917376
1806.8613211
1808.38328002
609.084491306
1804.46629121
1803.72513858
609.938967664
608.85797101
1805.57467745
607.827743054
1803.93341626
1805.84804971
1806.38664295
609.787939746
608.876124656
1807.76179172
1805.61103616
608.82445239
1804.24974355
1803.79294214
608.868034296
609.738090732
1804.93713584
607.749548549
1803.8793337
1804.37509179
1805.77329293
608.95998047
609.922702586
1805.11941966
1805.83733826
608.487661017
1803.73240094
609.657621631
1804.6711243
17112.5365811
17113.3837157
17113.6200099
17111.7807189
17110.2922602
17109.4840749
12215.2154659
12216.2243031
12216.3601896
12213.7657649
12211.7278845
12211.0736564
18322.376624
18328.7402265
17107.2717758
17111.161872
17112.2977465
17111.1787718
17109.8066775
17107.9669601
18325.0833612
18331.7317205
17111.4642057
17112.6829046
17112.4547986
17111.3155993
17109.9799168
17108.0058021
17107.2528354
17109.2806268
17111.4459208
17112.3928072
17112.1819097
17111.2142588
17109.9391184
17108.1727898
17109.8427032
17110.9872749
17112.5821987
17113.2209305
17112.6860319
17111.4930921
17110.0362668
17108.622457
17112.9209932
17111.6128264
17110.1476934
17109.0804128
13421.7695163
13428.0443865
12209.3226098
12213.0060336
12214.7603815
12213.5049712
12211.4000414
12209.3814157
13426.7345916
13431.5692084
12215.6658808
12216.0135625
12215.2192629
12213.5979644
12211.6055444
12209.8463617
12209.2864471
12212.031929
12214.0450807
12214.6033198
12214.4868082
12213.3137804
12211.5438817
12209.9407115
12212.2146302
12213.6552362
12215.3912105
12215.9759788
12215.2536975
12213.6897789
12211.6556292
12210.3030008
12215.468327
12213.7202083
12211.6633375
12210.7316913
8522.30809578
8530.13968055
7314.88917455
7317.7667768
7318.5095239
7315.90694444
7311.75236663
7307.47851568
8527.71152867
8533.97485851
7316.5272515
7318.87204489
7318.39650333
7315.77721148
7311.84142245
7307.6543792
7312.15662347
7315.37573387
7317.61786042
7318.36429601
7317.82060994
7315.61511283
7311.71553588
7307.36640442
7314.6331905
7315.3330438
7317.13816781
7319.07259733
7319.64766412
7318.55249254
7315.96696795
7311.6330303
7307.73445451
7318.84119444
7320.18554214
7320.3141872
7318.84994533
7315.86401928
7311.52844
7308.93143367
7315.49081937
7311.45042318
7309.92162328
3628.10590872
3634.83279956
3641.92921642
3645.7199918
3646.92018601
3645.97033856
3639.41119341
3634.56463768
3626.10300215
3631.27387395
3638.42084756
3643.23380447
3646.48860799
3647.28301073
3645.73934655
3639.43314977
3635.05004648
3639.71246633
3636.43619582
3637.46289328
3642.10052075
3645.32636426
3646.74542483
3647.32049486
3645.50510808
3638.59289747
3633.7792864
3640.87782014
3642.07026845
3644.54772115
3646.91671015
3647.44894614
3647.77274198
3645.86994384
3637.95095994
3632.89670718
3646.00678085
3648.37537061
3649.31534452
3649.24541037
3645.54643258
3637.41418693
3634.24643358
3643.80755701
3636.89855288
3635.06024222
11.4068625227
12.8375065077
13.0460730793
12.9101855664
13.224669132
16.2311857199
25.6515972936
33.967563259
4.68287894539
5.66523111403
9.13121961063
11.6606069617
12.0822408288
11.7097466983
12.1146544975
16.1625504382
25.6611744795
33.8421811939
3.34837058112
4.84678972442
7.10349067668
9.8527159642
11.0014178155
11.8210208489
12.8182592138
17.2095793584
26.5279562508
34.4426864013
5.42801360184
6.96600358936
9.85073429518
11.9128225052
13.4481986286
14.2924399518
19.0554203242
27.5932831828
34.7002494951
11.6875107097
11.5968885083
11.7830727019
13.6355034896
20.089256821
27.5984834627
33.1712873169
20.9954390768
26.9911742552
31.9996974506
-27.0447346867
-27.0215067453
-27.0244095745
-27.0197310852
-27.0151454589
-27.0227035278
-26.9736030112
-27.0127451665
-27.1280994987
-27.6689076643
-26.9943223442
-26.9887487383
-27.0049829406
-27.0178003021
-27.0081594173
-27.0114870752
-26.9710416036
-27.0208000994
-27.1462042942
-27.6815905546
-27.0157901007
-26.9722815186
-26.9857018199
-27.0000926643
-26.9931508893
-26.9965903445
-26.9775957924
-27.0223601435
-27.1401232484
-27.6182147052
-26.9763329038
-26.9938852786
-27.0044830604
-26.9919842751
-26.9919635101
-26.9854409689
-27.0194061928
-27.134177168
-27.5952743778
-27.0420606654
-27.0010352604
-26.9869471417
-26.9872214324
-27.0124120475
-27.1353336528
-27.5979938315
-27.0030428671
-27.1204138073
-27.5991694382
18325.6105627
18322.9480221
18326.9148985
15872.1424956
15875.2371233
15873.0871321
15876.0360323
18331.717257
18330.2841044
18332.5663989
15878.5163962
15880.0358519
15879.2386294
15882.0630658
18328.5964198
18327.647135
18329.7914559
15875.7733292
15878.8172755
15878.1583342
15880.6224182
18333.3423628
18332.3483336
18333.9758476
15881.8532959
15883.3468417
15883.0800909
15885.0317076
13424.8704436
13423.3283867
13425.7694012
10971.3044076
10974.9613202
10973.3577381
10976.5299362
13430.5586397
13428.7425634
13432.9433229
10978.7362017
10980.1557731
10979.6603186
10982.8953317
13428.8639025
13428.9901439
13431.4834956
10976.9276415
10979.1861041
10979.949461
10982.1277913
13434.0344777
13434.0540926
13436.9819242
10982.329139
10984.542794
10984.769805
10987.4640433
8526.27967418
8524.52382683
8527.97988405
6074.46416898
6078.50177716
6076.42373223
6079.75148891
8532.18564577
8531.49791272
8535.02907957
6081.97013054
6085.54584307
6083.27650013
6088.07928595
8530.48755866
8531.10133571
8533.44891933
6079.170773
6082.37271268
6082.00938992
6085.38683137
8536.24435819
8536.36069389
8538.68142779
6086.01008253
6088.71863505
6088.71392919
6091.13976146
3624.04563571
3625.84028601
609.532369798
609.267651455
3631.58249867
3629.54565569
3632.75975315
612.08621518
616.583355394
611.59672201
616.363051652
3638.41112633
3636.14216152
3639.53916047
617.78171812
620.75169128
617.635250772
620.577313376
3644.77670244
3642.35190501
3644.86938639
621.476678486
623.076700454
621.290413145
622.322134105
3646.39309929
3645.91552793
3646.55732112
623.272943328
623.331001656
622.523744735
622.794776684
3647.12459382
3647.00506755
3647.07509542
623.567389093
626.781060409
623.041559245
626.219273094
3642.98136523
3645.83724364
3642.86731323
628.802645175
631.811839383
628.198056375
630.395336583
3636.21416386
3639.54805131
3636.54029108
630.767018343
631.089258589
629.83463945
631.832062658
3633.7483729
3635.01909775
3633.97145523
633.270249278
617.878398951
633.924180443
618.059612658
3637.870594
3634.13206486
608.412533519
606.096834545
608.504671777
608.969458279
3627.71100892
3631.93867928
3631.82936244
605.427568966
609.591739149
608.984037394
611.002683658
3635.05843729
3634.14481533
3637.53377098
611.576153663
616.165936318
612.174988071
616.277315347
3640.86150605
3640.43582576
3642.67930659
617.587123221
620.60937518
617.694358728
620.711712789
3645.37124977
3644.53430958
3645.89218028
621.267732592
622.138869715
621.126944978
622.131632008
3646.92600531
3646.69217954
3647.1555452
622.296641022
622.702340308
622.328440972
622.877999224
3647.16147514
3647.41248264
3647.18655595
623.018159081
626.286054871
623.301135327
626.904267949
3642.68209826
3645.58284124
3642.50135823
628.273045193
630.117241691
628.790314926
630.355853363
3636.52747524
3639.14578935
3636.00540372
629.568756877
631.858686103
629.717864196
631.564293049
3634.05958215
3634.44023611
3633.96742102
634.02008837
618.129330703
633.819120094
618.72134945
3637.77623152
3640.54540588
3639.692959
608.536475135
609.636434642
608.536814985
611.145761267
3636.19295344
3639.21764636
3639.37147848
609.919952727
611.59609538
611.524350305
613.366499077
3639.71681143
3640.21945758
3641.63384174
612.676393112
616.525734073
614.152560995
617.648248811
3643.97688911
3643.44243171
3645.05086756
617.865576196
620.800847481
618.721080797
621.638169906
3646.24855084
3646.20202643
3646.7393176
621.312290754
622.494130803
622.357670772
623.158156646
3647.0650433
3646.92475607
3647.07794784
622.574841105
623.025079848
623.187372011
623.592097492
3647.10055904
3647.33257654
3647.19764918
623.48056432
627.211576397
624.123623163
628.514618568
3642.31782004
3645.60642423
3642.32485543
629.118317783
630.583511514
630.757714187
632.37572954
3635.27240355
3638.26281696
3634.64686425
629.84162607
631.322406952
630.931977028
630.072182696
3633.77079913
3633.08384415
3633.32011624
633.592559113
618.789850636
632.460727018
618.515119908
608.907623967
611.82260018
3641.37071336
3642.55925699
612.269092668
614.157449963
616.489017391
3643.13936174
3643.41842149
3644.33090866
614.912764893
618.232869875
617.127297432
619.996647515
3645.91721793
3645.37373768
3646.59629191
619.1084366
621.993860851
621.032959788
622.944283208
3647.38305204
3647.65410704
3648.27363529
622.80797811
623.6698437
623.643873007
624.53503705
3647.53586854
3648.44765644
3648.57553891
623.656425864
624.032760524
624.710487583
625.343036329
3647.62236053
3648.6437074
3648.09977833
624.588630825
629.242001036
626.131903344
631.216471003
3642.3335436
3645.92383435
3642.12616348
631.562813436
632.714136893
633.151327522
631.95954057
3634.27973925
3637.80609415
3634.49274819
630.962179019
629.757901369
629.91875352
630.173307191
3633.41714181
3633.32228764
3634.20080849
632.142414978
618.570702436
632.513129137
619.017610297
3647.28607505
3648.10949594
621.627101535
623.158731186
623.921374234
3649.04746186
3649.12469403
3649.66216539
623.63955583
624.399470335
624.145115349
624.615330322
3649.43314047
3649.83046522
3649.77451518
624.676297272
625.731896406
624.855607931
626.269934801
3648.15985381
3649.25934146
3647.65680068
626.640225116
631.612613228
627.335949947
630.821435187
3641.4571648
3644.70536153
3640.63138052
633.101260454
631.104729805
631.019426228
628.840991195
3634.92877803
3637.23471854
3635.32392329
629.28808449
630.664676702
628.394451459
631.54098402
3635.36526822
3635.10167329
3636.34395775
633.136019223
619.284643301
633.941983665
620.083818972
3646.87125454
630.237292751
3639.86726559
630.372238881
628.589264809
3635.27915804
628.258825106
631.411523377
3636.66719146
633.898350046
620.268614092
-23.2921015146
-23.2756765617
-23.2812970915
-23.2889669421
9.68609244807
8.48031504833
-23.2673304492
-23.2592694698
-23.271268124
-23.2500927475
12.3248568062
10.4167281462
11.6793233745
-23.2594638539
-23.2720500261
-23.2602399265
-23.273743671
13.1781006259
12.3427335887
12.7014047778
-23.2753938931
-23.2788706077
-23.2748506643
-23.2757905883
12.7640613591
12.6198679741
12.3570030618
-23.2734244462
-23.2602092078
-23.2680053175
-23.2562312439
13.1299760865
12.2052413607
12.2902491396
-23.2493385187
-23.2432429619
-23.2439396081
-23.2337377388
13.8732902478
12.5394517164
13.5222169996
-23.2313110648
-23.1911215585
-23.2180319998
-23.1875126315
20.4935048304
16.1219751191
20.3424210539
-23.1405867861
-23.0963832231
-23.144902379
-23.1008632969
30.8914189079
25.5164224206
30.7982002609
-23.0611623542
-23.1043151596
-23.0594012241
-23.0954707582
35.3287821929
33.7787468879
35.4933933684
-23.1822679923
-23.0906699402
-23.1720600227
-23.080436234
5.01926175865
3.78804095835
4.44770206849
-23.2719954058
-23.2720317375
-23.2583023885
-23.2593528782
7.29826635278
5.2510678015
6.41539406684
-23.2583055247
-23.2554663487
-23.2619926855
-23.2590234403
10.5809132679
7.90771414673
9.45515163821
-23.2617037373
-23.2662619158
-23.2598722237
-23.2650681687
12.1503242629
10.7071587299
11.3948600555
-23.269070298
-23.273570551
-23.2689924708
-23.2745147348
11.7783804414
11.3374728217
11.3219956005
-23.2680810986
-23.2523318696
-23.2604305004
-23.2471188335
11.7991711452
11.4219086136
11.6314299037
-23.2412265473
-23.2281087312
-23.2394728761
-23.2277449448
13.3052154101
12.1017423276
13.4838757007
-23.2132135735
-23.1841911456
-23.2121621633
-23.177992411
20.4768757066
16.4994647382
20.8440583682
-23.1397978302
-23.0961195919
-23.1312417838
-23.0854193961
30.855748098
25.9748482515
31.0668061761
-23.0438605985
-23.0722740695
-23.0336830203
-23.0644975407
35.7335411881
34.0083130832
35.9361984091
-23.1629250416
-23.077645426
-23.1738350005
-23.0963415242
4.1000240378
3.32978233842
4.11500088982
-23.2612783386
-23.2631719284
-23.2640134781
-23.2623185362
5.78070526718
4.69838625107
5.46551255792
-23.2588562663
-23.2583755647
-23.2626803163
-23.2594604149
8.57021459876
6.63420523817
8.2034262081
-23.2615789016
-23.2645301009
-23.2632856922
-23.2651818579
10.6720575099
9.47619918355
10.3969688087
-23.266561142
-23.2690409643
-23.2667579025
-23.2676067958
11.4390109684
11.3567780694
12.2426277353
-23.253363246
-23.2453247731
-23.2572347123
-23.2425384936
12.2783922508
12.8437076414
13.2794968982
-23.2391798709
-23.2254882754
-23.2260104199
-23.2111965508
14.2069719497
13.7368271465
15.1044850846
-23.2056690086
-23.1669164704
-23.1936359863
-23.1530998617
21.5224268576
18.1268539958
22.3814848421
-23.1148520369
-23.0735114059
-23.1034820033
-23.0613440222
31.4949279439
27.1148310343
31.8458016796
-23.0244906389
-23.0601626189
-23.0174806618
-23.0560108484
36.1228417018
34.8128694418
36.2063130109
-23.1680958418
-23.1174752744
-23.1661745918
-23.1339341542
6.01049554873
7.22892306979
-23.2612017127
-23.2555794075
-23.2522735046
8.56560293696
7.95697136254
9.4667280016
-23.2520104454
-23.2576001556
-23.2489815183
-23.2555543332
10.909859076
10.7763549447
11.4317418576
-23.2565617186
-23.255889623
-23.2570777069
-23.2590430824
12.8415689374
11.8995619561
12.4743844054
-23.2486573512
-23.2362338107
-23.2512683422
-23.2409436115
13.8243002681
12.9530599926
13.294277064
-23.2263009668
-23.2156103327
-23.2325999661
-23.2136687276
15.8152786124
14.0255373553
16.0629326799
-23.1974277513
-23.1556125319
-23.1852867817
-23.1443905034
23.2193263125
19.685930833
23.7057487691
-23.0994370341
-23.0536331145
-23.0836026615
-23.0269861987
31.9719295883
27.7406442852
31.6716532041
-23.0022783339
-23.043952211
-22.9865191771
-23.0323804984
35.8854157127
34.0506396594
34.9938639007
-23.1524878159
-23.1303238963
-23.1460463309
-23.1316014135
11.7399666628
11.6228288087
-23.2699190435
-23.2678886545
-23.271216313
-23.2787204097
11.5631859496
11.4202316779
11.4542093379
-23.2583917111
-23.2491141026
-23.2690157033
-23.2522613088
12.3380186498
11.7356621845
12.4833385209
-23.237251256
-23.2163773739
-23.2354003689
-23.2127424844
16.3446449373
14.0917816287
16.9765047514
-23.1788704058
-23.1324137075
-23.1717327283
-23.1181864615
23.8840994503
20.4307593081
23.9662124162
-23.0580385582
-23.0042876833
-23.0395654476
-22.9895113973
30.9617323187
27.3093759359
30.2134062453
-22.9764921099
-23.018805429
-22.9694708666
-23.0082077535
33.9393809203
32.2054943872
33.0152473229
-23.1590153421
-23.1482552451
-23.1508474846
-23.1452217592
17.8636758866
-23.0999062146
24.016639652
-23.028744926
-22.9858260344
-23.039269416
-22.9957631243
29.6884440093
-22.9771751066
-23.0275504029
-22.9882970453
-23.0378737357
32.6281505337
-23.1671541515
-23.1532562331
-23.1647439399
-23.149020226
1787.54876412
1788.90082114
606.63690946
609.394372156
1789.488838
607.855174304
1786.57153343
1788.37447142
1791.67228262
609.180346261
606.831763092
1790.22750968
1789.66453683
607.494674095
1793.92920328
1791.4394902
613.656063275
611.457307218
1791.70325007
613.604488468
1793.58211991
1795.91231425
1797.39799101
615.172459255
616.297167626
1797.4939846
615.195053318
1795.54760472
1794.51529063
1793.83798703
611.345472527
613.25891844
1792.35508846
1795.65583574
613.49651518
1796.44616963
1798.91479369
616.369191899
614.845371645
1798.04390469
1797.30008245
615.214499387
1800.9596495
1799.27013847
618.829821134
617.404937557
1799.24058638
618.569226973
1800.92605928
1802.69002207
1804.3528831
619.860664069
620.662072923
1804.34138489
619.723668285
1802.63340919
1801.49660743
1800.658924
617.452386245
618.702740193
1799.75464778
1802.28487964
618.598047282
1803.21559989
1805.34206516
620.622402197
619.687008811
1804.84395654
1803.85473645
619.707890295
1807.43664082
1805.85971343
622.168100874
621.377540691
1805.82934302
622.122733834
1807.43952761
1808.68459261
1809.61981134
622.615641305
623.091943653
1809.56019015
622.759397714
1808.67963302
1807.53306737
1806.54017423
621.295616546
621.757322507
1806.168602
1807.70176291
621.962241244
1808.63938143
1809.37396003
622.728731679
622.034455057
1809.44008366
1808.62963141
622.467882695
1810.05807698
1809.93417004
623.239881157
623.301049971
1809.93041816
623.298990056
1809.96179697
1810.17004342
1810.06753892
623.168486579
623.160466493
1810.25802049
623.266631513
1809.94659898
1810.16574811
1809.83274371
622.848070041
622.559338123
1809.88640778
1810.18095496
622.889964192
1810.34807689
1810.77984564
622.877850938
622.671021598
1810.52509574
1810.45990884
622.928494918
1811.22267564
1810.46839344
624.137580995
623.194023263
1810.57794221
623.914507376
1811.12937361
1812.06767386
1812.85469034
625.220277658
626.453817934
1812.88416549
624.927255565
1811.98889906
1811.37468199
1811.14824406
622.952382072
623.599311837
1810.80784694
1811.60010408
623.696139842
1812.12159973
1812.76194236
626.226164185
624.637968283
1812.80220749
1812.19079096
624.806278395
1812.12387207
1813.17092841
630.724851249
628.543729066
1813.11996626
630.254386337
1812.37088716
1809.5137578
1806.07767243
632.113843943
631.329999903
1805.90985538
631.292992821
1809.89881614
1811.76295735
1812.70670138
628.269630967
629.630795981
1812.90510108
1811.44287794
629.842182414
1809.11764803
1805.25511166
630.8249462
630.528084348
1805.65454332
1808.73824682
630.722375237
1798.03249096
1801.84604834
630.266486158
630.678641514
1802.03512703
630.282541363
1797.57952375
1795.32549191
1793.17582822
630.201053543
631.37470014
1793.67362121
630.351628857
1794.72755988
1798.31147413
1801.6842491
630.371100191
630.247302877
1802.01290522
1798.30936709
630.260139952
1795.8092161
1794.5602595
631.651350204
630.849835569
1794.18045908
1796.00473702
630.602061795
1790.56493055
1791.95771558
635.980682286
633.510304433
1792.48297285
636.291588236
1790.10834783
1786.8022178
1788.7915192
639.250692302
618.0854611
639.60700571
1788.52229553
1785.99377841
1790.9601538
1793.24145774
633.759599369
636.669646233
1792.96348708
1791.18927452
636.53728341
1787.3896454
1788.1221794
618.221002871
639.978233829
1787.65464205
639.727409877
1788.12280478
1797.89571953
1799.45059878
606.935165652
609.429992141
1796.22399889
607.919281331
1801.12286494
1795.27543899
1790.68909852
606.455854507
606.755282352
1793.17353969
1793.83613732
606.846510046
1799.49653656
1801.86741385
609.299159296
608.670830068
1801.0118258
608.479729194
1801.86190595
1797.53730701
1798.54603904
607.736762217
608.64806007
1796.47249821
1799.64843683
607.796615741
1792.71278848
1789.81412199
606.138849992
606.39573276
1790.3471551
1792.72942499
607.44887878
1793.58822685
1793.16095308
607.396766989
609.843530383
1791.41504617
1794.89882294
608.769677077
1795.25684535
1797.87928027
607.580977322
609.25799896
1795.44993044
1797.56930892
608.579651679
1795.76986049
1798.47144249
610.35655048
609.784787664
1796.63678903
1797.68655863
609.568472149
1797.99166554
1794.98075686
613.125364573
611.434320847
1796.61695063
1796.38435825
613.216461168
1799.49491793
1799.8328005
614.633369594
616.142262129
1798.20666621
1800.93879531
614.754326855
1799.26166979
1799.50835828
611.564919884
613.381892029
1797.80897067
1800.68506889
613.217492207
1800.69073942
1803.32393101
616.180399994
614.817986138
1802.06372779
1801.98453458
614.760197712
1804.00303944
1801.52704295
618.728122878
617.480206335
1803.07781663
1802.50032465
618.77796852
1805.32108418
1805.81847787
619.720081761
620.581903492
1804.50031069
1806.4608894
619.858407196
1804.95690343
1804.67594929
617.561986728
618.883127398
1803.52813074
1805.9201148
618.839649488
1806.25388268
1807.92277665
620.665187646
619.923889476
1807.26754481
1807.05098813
619.947726228
1808.38864794
1806.94778113
621.706274824
621.057344841
1808.02038359
1807.43744246
621.530329005
1809.1801651
1809.54717359
621.907274708
622.030866053
1808.88969934
1809.80348442
621.779415483
1808.86804049
1808.57529551
621.054787109
621.567463376
1808.08393246
1809.2828807
621.456254745
1809.53431952
1810.31656202
621.932353927
621.893823252
1810.06803465
1809.88252302
621.711369815
1810.45562051
1809.99208222
622.375680118
622.197584668
1810.32677054
1810.17329918
622.310825197
1810.8141556
1811.02732146
622.532431889
622.734382797
1810.67493463
1811.19947664
622.487627888
1810.67800391
1810.56813329
622.152205265
622.499055287
1810.40149557
1810.85556754
622.311902356
1811.02550706
1811.39934427
622.756142647
622.658681752
1811.39467428
1811.11065256
622.495437726
1812.04464337
1811.42355145
623.587353045
623.012971673
1811.8407618
1811.59936781
623.650867593
1812.56361049
1812.859614
624.614581812
626.414251195
1812.36657955
1812.97729214
624.776713598
1812.24980056
1811.80255879
623.136230859
624.099073253
1811.79902043
1812.28472391
623.877874026
1812.72987074
1813.10543037
626.627133892
625.280954495
1813.07111123
1812.75202548
625.028006106
1811.10992432
1812.65347902
629.558108559
628.366689329
1811.25577927
1812.65305594
629.652744162
1808.19962714
1804.94147514
630.288536852
630.065411932
1808.44862722
1804.64955268
630.141597421
1811.04544593
1812.71727844
628.496055144
630.054160212
1812.65019256
1811.08050888
629.766847619
1808.10972195
1804.40112603
630.152246035
630.602586231
1804.47939163
1808.10375275
630.246157457
1798.09522311
1801.40678259
630.062620171
629.846271616
1798.21254831
1801.26562502
630.007804569
1795.92344294
1794.67668293
630.760464964
631.84419598
1796.06774368
1794.53538967
630.619491203
1797.7716812
1800.65730197
629.867437089
629.99075027
1801.02740121
1797.22373575
629.965533515
1795.55796579
1793.66612109
631.700994689
630.512605458
1794.19723672
1794.96612329
630.506777095
1791.29885381
1793.41113193
636.905625004
634.025977896
1791.30238171
1793.3787422
637.038906481
1787.90938644
1788.21013522
640.400459112
618.337436793
1787.83734362
640.704773868
1788.12084399
1791.07642551
1792.60120842
633.89223172
636.693797399
1793.08329444
1790.71754407
636.913258183
1787.75511381
1788.12149451
618.642736205
640.415136257
1787.36511549
640.567683658
1788.08577075
1802.615575
1802.42075058
608.908243719
609.474662916
1802.02965861
609.420850741
1803.3248485
1802.13452264
1800.31987673
609.008926179
609.961392673
1801.1302735
1801.73676591
609.566549795
1803.17309484
1803.32081792
609.54280132
609.89896191
1803.58380442
609.613504487
1803.62854684
1802.90034119
1803.54839211
610.453207009
610.693998498
1802.78895373
1803.62098189
609.990267086
1801.27961913
1799.86684992
609.963805361
610.17581628
1799.57937661
1801.37524069
610.774099148
1801.4995085
1800.26990651
610.500610685
612.105117161
1799.66636184
1801.90636921
611.486629612
1802.69214385
1803.60192171
610.838669209
612.047929695
1802.64711481
1803.76915914
611.442571737
1802.93897003
1804.44154572
612.702056672
612.651454753
1803.3138588
1804.05086896
612.043392013
1803.49097096
1801.10479858
613.8343504
613.030069838
1802.14080093
1802.5290783
614.272414174
1804.58290619
1804.54316163
615.139788553
616.828886595
1803.32526739
1805.68502581
615.541488746
1804.74992328
1805.00804614
613.545460865
615.203596882
1803.88730702
1805.83029022
614.745664374
1805.68556281
1807.37760156
617.256180586
616.559113799
1806.60649034
1806.66317334
616.029302861
1807.64000944
1805.74405906
619.019456775
618.1188961
1806.85317065
1806.72776307
619.213217056
1808.48825321
1808.56655687
620.037844683
621.009492795
1807.85918255
1809.11905288
620.15161896
1808.32565709