/*--------------------------------*- C++ -*----------------------------------*\
| =========                 |                                                 |
| \\      /  F ield         | OpenFOAM: The Open Source CFD Toolbox           |
|  \\    /   O peration     | Version:  v1906                                 |
|   \\  /    A nd           | Web:      www.OpenFOAM.com                      |
|    \\/     M anipulation  |                                                 |
\*---------------------------------------------------------------------------*/
FoamFile
{
    version     2.0;
    format      ascii;
    class       surfaceScalarField;
    location    "5.05";
    object      alphaPhi0.water;
}
// * * * * * * * * * * * * * * * * * * * * * * * * * * * * * * * * * * * * * //

dimensions      [0 3 -1 0 0 0 0];
oriented        oriented;


internalField   nonuniform List<scalar> 
92311
(
0.202377029392
-0.000132435186306
2.14972402944e-05
-0.202217965539
-4.79371057403e-05
-0.00021443243332
0.202402888166
0.000737391177209
-0.000548639695921
0.202316612265
-0.000226539764973
2.10439413452e-05
-0.202180774335
-6.2611783584e-05
-0.000449378110692
0.202388543855
0.000745475741269
-0.000582320357035
0.202087611286
-6.95634732596e-05
-7.7071691362e-05
5.87662580543e-05
-0.202068112351
-9.47406088876e-05
-2.6955364183e-05
-3.64737844906e-05
-0.000181749431509
-0.000271225014946
-0.00023679247913
0.202304476811
0.000800820871039
-0.000632670969367
-0.00014463723924
0.0505372494499
-1.95354290437e-05
-8.85731366127e-06
-1.89985314223e-05
-9.12512028775e-06
-2.78798137909e-05
-0.050566178063
4.37556132541e-05
-0.0504971847229
0.0504511180753
-4.79851761197e-05
-3.54845879544e-05
-3.58781872614e-05
-4.59379959526e-05
0.000146017736277
-0.000116419625032
1.89178032329e-07
0.000647242861142
9.03664248018e-08
-2.41680287005e-06
-5.30651797881e-06
3.02490333131e-06
-0.000685943463395
1.82372607435e-06
-2.38152162555e-05
0.000242781187132
0.000143382971751
5.27821486974e-06
-0.000434635544151
8.21398097963e-06
9.4277249882e-06
5.45867917704e-06
6.69834813518e-06
-0.000144109469167
-4.95919104393e-08
-5.77968613518e-07
-6.68699633444e-07
-4.86803467164e-07
1.22450421494e-08
8.08332530182e-08
2.83735250555e-08
-2.41720348271e-07
-1.50985515561e-05
-1.40181413266e-05
-1.37534081665e-05
-1.61092574807e-05
6.42545514193e-05
-4.22815767899e-05
1.65989538098e-05
0.0116403499699
2.19145878774e-05
-1.88081134367e-05
-0.0116636042614
0.0115800447982
-1.09632417715e-06
1.15633938366e-05
-0.0116047107811
1.07830070389e-05
3.75161464639e-06
-0.000194314431333
-9.85768584363e-05
0.0505036787427
-9.38938947357e-05
-7.36990823138e-05
-7.10179089598e-05
0.0002076848101
-0.000100331908513
0.0504300337847
-9.43720753257e-05
-7.48432159593e-05
-6.69636333411e-05
-0.0503672718412
-0.00015733582499
-2.44324145024e-06
2.57692997275e-05
0.0115447238058
3.6336505771e-06
1.24124868297e-05
-6.49190770359e-05
0.0125887477251
6.43941150052e-05
-0.000109465818996
-0.0125769171449
0.0125805280779
-5.20119143777e-05
-0.000127609778737
-0.0125657156689
-0.000120825277982
0.202730466096
-0.000809196651005
0.000661889345096
-0.202462267508
0.202401834946
-0.000273357977787
0.00121725359269
-0.000942706301736
-0.000200962722599
0.202303745892
0.00144329122428
-0.00114418432009
-0.000180536875672
0.202737485094
-0.000827103932486
0.000680471009741
-0.202531255725
0.202496250524
-0.000673954635467
0.00123627728775
-0.000943330773969
-0.000478015934938
0.202427580203
0.00149410432344
-0.00114827676009
-0.000105585346986
-6.1885719226e-05
-4.01522707943e-05
-0.000695255179724
0.202628919969
0.000664336699341
-0.202492104333
-7.88985402735e-05
-0.000331661307024
-0.000397638760656
-0.000307835012434
-0.000376007550004
0.202730575224
0.00141496764187
-0.00110188377772
0.0507090381639
-4.82865327718e-05
-4.62985312126e-05
-4.64925240444e-05
-4.8292483544e-05
-0.000197226635369
-0.0506408144876
0.000212852065337
0.0506415132763
-0.00025492913531
-0.000108633294548
-0.000105448269305
-0.000132655977522
-0.000127801287283
0.000260028985389
0.000225439794493
5.54743818663e-06
2.07980413603e-05
1.03185773039e-05
1.16330537678e-05
1.32750048492e-05
1.46862787353e-05
-0.000220325126171
-1.70286473936e-07
-1.27305074449e-07
-1.22139735413e-07
2.35759954431e-09
1.05333710661e-08
-1.35081949936e-08
7.93727920146e-09
-1.05921783391e-07
-1.28602843232e-07
-1.30659563158e-07
4.83607370634e-09
8.72632610813e-09
9.67343821566e-08
-8.27434477275e-08
1.98448529552e-07
0.000120707418286
-3.39435092395e-05
-2.32580341059e-05
-2.99857885127e-05
-2.58673810566e-05
0.0507486338549
-0.000109045638406
-2.70657529475e-05
-1.73511118003e-05
-2.62200491939e-05
-1.82853944826e-05
0.0506504662722
0.000131767425391
-0.050612699783
-2.31517860163e-06
6.4086299123e-05
0.0116760229512
2.79221635988e-05
-4.04673202358e-05
-0.0116914918747
-1.85113335111e-06
3.42744360085e-05
-0.0116420455908
-6.72619274126e-06
7.04008109957e-06
0.0116332492804
-3.89718924626e-05
0.012662072723
-3.89688123108e-05
4.44447143552e-05
-0.0126551963903
-0.000313993197535
-0.000131544400669
-0.000139572882907
-0.00012809639805
-0.00014285073685
0.050782321178
0.000317616265904
0.0505826904927
-0.000110599443029
-0.000139123784001
-0.000107535372562
-0.000135410193384
-0.000222605457708
-0.00013536130787
-0.000150623403553
-0.000131699504069
-0.000141949030044
0.0507410961276
-0.000288632526674
-7.69447311569e-05
7.36020076776e-05
-0.000124255760137
0.0126083104054
-1.47183473398e-05
0.00015965561886
-0.011190278612
-1.95311833546e-05
0.0111107620032
1.77678944214e-05
-6.86603220701e-05
-0.000139898830162
0.0126022544573
-0.0126211114781
-0.000179754609169
0.0126569163728
8.49711816667e-05
-7.53932796944e-05
0.000565752110811
4.87787098272e-07
3.9773160392e-07
-2.59885693486e-06
-1.12495933004e-05
1.60531545771e-06
2.71182218771e-06
5.53282610646e-06
1.04009498009e-05
9.01415033782e-06
4.77894459132e-06
7.03934664695e-06
0.000264305269871
0.000164737452188
-0.000483136667483
-9.41605614123e-07
-1.79211018831e-07
-4.17892360596e-07
1.21127797265e-06
-7.43403535247e-07
-5.56758477509e-07
1.0724301486e-07
4.26472903601e-06
3.43729636883e-06
2.117266015e-06
3.7411212479e-06
-7.06039555949e-05
5.67265979042e-05
3.08516799745e-07
-1.36423222188e-06
4.85945017542e-07
1.56096126233e-05
0.0126402042642
-1.12024114686e-05
-0.012647087693
-0.0126293120644
-4.18384342302e-06
-1.52393330502e-06
0.0126219671264
4.34859097586e-06
2.11612539441e-05
6.0796486e-06
0.0116245646448
-1.53531096131e-05
1.63712019632e-05
0.0116404065906
-0.0116646396222
2.09219536826e-05
-0.0126328166508
1.69778484378e-05
0.0116236440622
2.13620568978e-05
0.0126330252777
2.92421311092e-06
0.0126078006174
-3.44003299343e-06
9.07158359796e-06
-6.58123178756e-06
-2.31659124362e-05
-0.0126192450969
0.0126109177289
2.91062685941e-05
1.66666662224e-05
8.05540910071e-06
-5.68650677042e-06
7.62633167592e-06
-0.0116045103365
0.0115826978393
2.188772069e-05
0.0125992754584
-2.08510264552e-05
2.26881674902e-05
1.49136924476e-05
-0.0125832563513
-4.92576849458e-05
4.55500934121e-05
0.0125815615063
-4.25394421491e-05
-3.34701420993e-05
0.0125965097246
3.8150262478e-05
-3.94220967954e-06
4.32727886425e-05
0.0114961463466
1.97762905717e-05
2.46985633279e-05
0.0115487804882
1.70766332749e-05
-2.87284703753e-05
0.0114990877724
1.15383376852e-05
0.0125931827589
4.61671519883e-05
-9.89044565573e-05
-0.0125877611435
0.0125971454215
6.02599915792e-05
-1.60486264245e-05
-0.0114460695251
0.0113801323251
2.31712922601e-05
-0.0114498422839
-4.87567359186e-06
0.0113840133019
-7.09048200667e-05
5.63315530207e-05
-5.42509918209e-05
-1.43892050012e-05
6.33726357471e-05
2.34327816066e-05
-9.73091709911e-07
5.41063803664e-05
-0.000118200248933
-0.0125495856842
0.0125655056319
-4.35320605695e-05
-2.52528891918e-06
-0.0114582146386
0.0113892219986
-0.0114703315075
0.0114006147565
-5.00223861437e-07
-3.79341709595e-05
-8.73438743858e-05
-0.0125691965273
6.8195380778e-05
-1.46995910537e-06
-0.0115184148025
-4.59540429128e-07
-0.0125549791394
-3.09878295566e-05
-0.0115093802413
2.42048305949e-06
-7.01086479467e-05
2.33384205647e-06
1.17381161522e-06
1.94773252774e-06
2.44886611443e-06
0.000683221893668
-0.000733867874053
1.4413347637e-05
-2.75627860868e-07
6.74522442728e-07
1.13836794457e-07
-4.85880409403e-07
0.000686074217515
1.66211365975e-06
2.13851310559e-06
2.54875241821e-06
2.8485050242e-06
-0.000140681873532
9.65655053226e-05
-0.000735055455222
1.99240014003e-06
2.39884128946e-06
2.34221775077e-06
2.39346061494e-06
0.000618194766198
-0.0001029571736
3.70756598032e-07
-4.36902880322e-07
-4.47463579604e-07
2.58063028794e-07
-2.46328738217e-07
2.49758979773e-07
5.73809022495e-06
3.13329738507e-05
1.29809929622e-05
1.36441660902e-05
1.79820686589e-05
1.59551648178e-05
0.000234363505563
-1.58327353592e-06
-5.75608177204e-07
3.27568385633e-06
-1.16673922836e-06
1.63425899507e-07
4.74728112359e-06
-0.000255612168754
1.79671655433e-05
2.06909141781e-05
1.73141782524e-05
1.58355185774e-05
-0.000174208845354
0.000271479422316
-2.22483898499e-06
-7.92430569955e-07
4.55414424092e-06
4.46636379205e-06
1.36674390268e-05
1.58615229873e-05
1.42253489803e-05
-0.000169469989768
-0.00024639456121
-1.39822589256e-06
-1.34505684309e-07
-3.2792363624e-05
-0.0126656414545
-6.62748612684e-05
0.0126755537664
4.15516806317e-05
0.0126726483186
4.1599802804e-05
-3.4347651134e-05
-0.0126615141819
6.4113531326e-05
1.36914839045e-05
0.0116556063492
-2.30488984306e-05
6.90848408521e-05
0.011687530684
-0.0117083194782
1.35287324496e-05
0.0126827420556
-2.42512260466e-05
-0.0126539496229
5.1254403551e-05
0.0116616896187
8.19153824303e-06
-2.43470429873e-05
0.0126858022042
-4.99506635997e-05
3.09603835041e-05
-0.0126941485344
1.57599471498e-05
-9.62094806897e-06
0.0126998415696
4.79972086335e-05
3.71410548824e-06
-6.62606072663e-06
3.27390606961e-05
-0.0116390319795
-2.52227886089e-07
0.0116224315359
-1.66754323039e-05
2.03260914112e-05
0.0126886418911
5.19428386924e-06
0.0116537568729
-1.44102388169e-05
2.54952957949e-05
-0.011679388952
1.96031744104e-05
-1.44863948422e-05
0.0116383669969
2.49450803541e-05
-2.47668968775e-05
0.0126631109168
2.63221298422e-05
0.0126754180402
-4.22309525282e-05
-0.0126667487757
2.26827343462e-05
-0.0116437183989
0.0116214550685
0.012675990454
-0.0116727601033
-0.000114565527185
0.0126143227359
6.60321113029e-05
-2.26304630599e-05
0.0113209730622
2.4155113603e-05
0.0113257599154
-1.76838370092e-05
7.76905072659e-05
-0.000154578791752
0.0126355637791
-8.22488183072e-05
0.000146137244241
-2.15853816238e-05
0.0112534628243
1.98713787783e-05
0.012640388156
7.07192240749e-05
0.0112492130663
-1.78030058758e-05
8.14422409835e-05
0.0126632627183
-0.000151841116281
-8.80562330382e-05
-0.0126683581186
-8.56068437552e-05
0.0126953508698
7.97817949014e-05
0.000147637536416
-2.10738658242e-05
2.0899831849e-05
0.00016242824943
-0.0111775726008
-1.85104776601e-05
0.0110962304787
7.41107213916e-05
-9.28495391137e-05
0.0126908751118
-2.08830195872e-05
-0.0125892564284
-0.000180015661434
7.6587108829e-05
-6.65878144205e-05
-0.000140983578163
-5.81358498169e-05
-1.85737390977e-05
0.0113262548769
0.0113354732056
-1.55368801522e-05
1.88022491155e-05
0.0112499302006
-1.49379420284e-05
-0.000168473053421
0.0126306766112
0.0112437178038
0.0111660457199
2.09962928789e-05
-1.63209165128e-05
0.000191086027085
1.81779508581e-05
0.0110674788212
-1.16582784162e-05
8.83090388809e-05
0.0126890198012
-7.89164117668e-05
0.012661266112
-0.00016417811308
0.000174032770934
-0.0111668432125
0.0110807109799
0.0126898700422
-0.000333165630917
-0.000298851050346
-0.000171710753256
0.00158125755325
0.202946787378
-0.00024396965643
-0.00122773432675
-0.000342757897904
-0.000110065495301
-0.000116233303442
-0.000107735859719
-0.000119327254603
0.000343286310856
0.0509020879083
1.40897281208e-05
0.000252519001042
1.96070143987e-06
1.36154459118e-05
1.51706443918e-05
1.43930481432e-05
-0.000243891219894
-0.00026636766504
1.12545780036e-07
1.9793130508e-08
2.79532709639e-08
4.83567476412e-08
3.12945103697e-08
1.8200553051e-07
7.34477922893e-08
2.98208800832e-06
-9.95753236248e-06
-1.34307667918e-05
6.76887039943e-06
4.46892686153e-05
-2.02482714511e-05
0.0506117963681
-3.00860817207e-07
5.4973168436e-06
-5.77067485658e-06
0.0116209438953
0.0508633533873
-0.000102844346674
-0.000123221143055
-0.000116008198434
-0.000111426865314
-0.000310318783623
0.0508552502047
-6.59092174089e-05
-3.52557140854e-05
-3.27055226381e-05
-7.26387161092e-05
0.000378679570589
-0.000335930203084
0.000141506422396
0.0110322552819
-1.31716573765e-05
1.63465097042e-05
-1.88746839621e-05
0.000169536342314
7.23404909275e-06
0.010980937478
-1.48431118767e-06
0.010851850504
-2.117106688e-06
1.83667498162e-05
-2.70830976007e-05
-0.0108708563024
3.10527205835e-05
0.050800889523
2.87980878372e-05
-2.49678416001e-06
-5.0667549551e-06
2.95888921877e-05
-3.10576123308e-05
0.000378561689202
-0.000344239892991
4.36530658062e-05
5.26111513513e-05
5.2970641348e-05
4.11400233304e-05
-8.44827552026e-05
0.00040454743918
0.0506607648153
-0.000370393974525
2.46507643648e-05
-5.36759049899e-07
-3.42228227649e-05
0.010822712244
3.88015945518e-05
6.3994467024e-05
-7.24003205635e-05
-4.94464595463e-05
-0.0107995927113
0.0107896058145
6.0219531342e-05
1.09046009424e-06
-4.30659537737e-06
2.5578324109e-07
-4.35345850394e-05
0.000624587027167
2.66724529261e-06
-0.000296835869443
2.01680969402e-06
1.6473244407e-05
1.72172422205e-05
1.4849552826e-05
0.000285230927851
-3.58783021048e-07
-0.000362668982125
3.66907999994e-06
9.29311305574e-06
8.68929578334e-06
-0.000272793779423
0.000336167388444
1.36275690658e-06
1.5646153388e-06
-9.88921014942e-07
-6.61712532523e-07
4.83297837502e-06
-8.61635484631e-07
-1.44982476736e-07
4.22037855534e-06
-0.00037557997029
-1.46854594349e-05
-5.01600180695e-05
-4.29436466789e-05
-0.000327790056671
-1.75865528823e-06
0.000424007650656
-5.89135252984e-05
-5.65350893636e-05
-6.10255232486e-05
-0.000372577278136
-2.98842733468e-06
-0.000259268290488
0.000468623059874
-0.0126694982689
1.12037222455e-05
-3.55964217283e-06
5.02986981517e-06
0.0126599898853
-9.81158390239e-06
0.0126575639459
9.24897269035e-06
0.0116089326487
1.01367398352e-05
5.04532712994e-07
-1.75119507382e-05
0.0116124029754
-7.04193329991e-06
1.78993904171e-05
0.0116069653257
0.0126464816668
8.6223044799e-05
-0.0127242299125
-0.000121169698658
-9.15452834311e-05
0.0127412852235
0.0127263774195
-8.76609256839e-05
8.27252907209e-05
0.000121317480607
-1.03919174415e-05
1.57565810049e-05
0.0109686565407
0.000146865375567
0.0110202998452
-1.03097718839e-05
8.37703182519e-05
0.0127430005038
-9.27375851633e-05
-4.09893791048e-06
0.010954284459
-0.0127244565112
-0.000125164547471
-8.46824053974e-05
0.0127403984476
8.66846288783e-05
0.0127265582302
-7.70640850502e-05
0.000155860695056
0.0109994460241
-8.29427144195e-07
0.000134784870083
0.0109169984868
7.91537823681e-06
0.0109332157743
0.0127423159329
-7.64223501203e-05
0.0127452417795
-7.969417966e-05
-7.99965363001e-05
8.94088689817e-05
8.11038381081e-05
-0.0127469670401
0.0127228281142
-7.39654034347e-05
2.23912792227e-05
-0.010885627484
0.0108724561235
-1.78926277192e-05
-1.50086331027e-05
8.35399539544e-05
2.09613148878e-05
0.0127250584168
9.12039649966e-05
-8.84660624537e-06
-7.31434039295e-05
-0.0127153622428
4.70522458017e-05
-8.79381597244e-05
0.0126887143272
9.60181119435e-05
8.31945267058e-05
0.0127106167138
-7.44619972678e-05
7.3329902236e-06
0.0108432396245
-2.52461895275e-05
-4.25005494268e-05
-4.81790968993e-05
0.0108124322267
4.73219509987e-05
9.48286069266e-05
0.0108175859824
-3.15001675829e-05
0.0126843201135
-8.04147509148e-05
0.0126607166121
6.39348268555e-05
-9.18287068088e-05
9.93747352354e-05
9.7176955943e-05
-0.0126575236791
0.0126319469421
-9.12227735056e-05
-7.08408943896e-05
-0.0107909825044
-3.45369000657e-05
0.010776053223
-4.37772610325e-05
-6.12686053278e-05
5.30667220817e-05
0.000105152996028
0.0126347002006
-3.22023846338e-05
-8.51521205191e-05
-0.000487794000557
-0.0491777224408
0.049128802654
0.000577280351061
-3.66785055931e-05
1.59291510216e-06
-1.70013262544e-05
-2.2176943185e-05
3.39236131689e-05
-0.000642497711469
0.0497553619983
-0.000100889109954
-8.21489610034e-05
-9.31003192674e-05
-9.08716347273e-05
0.000230725629754
-0.0496122352864
0.00063566130722
-0.00107524125989
-0.0499149392511
0.0501347227591
0.000892324163209
-1.47239027998e-05
-4.17376167413e-05
-2.05074118994e-05
-4.72666706448e-05
8.74032603217e-05
-0.000729034811269
-2.81234195636e-05
-4.19665742201e-05
-2.42270113673e-05
-3.81005127339e-05
0.000122939679109
0.0502215650251
0.000612800387987
-0.0500958744765
1.72708728212e-06
-0.000135733454792
-0.000884624016909
0.000849740382728
0.000199758900142
4.44791640529e-07
4.1960023951e-06
4.42412951573e-06
7.43550009433e-06
2.41325537769e-06
-0.000825168668109
0.000810194077217
0.000102785514889
-3.6095515636e-07
3.23398241913e-06
6.76225794522e-06
4.03473970557e-06
-6.94928090975e-05
9.67567841888e-06
-0.000189593837483
0.000658820925252
1.6969588899e-06
1.12375123921e-05
1.25682459757e-05
1.39276122718e-05
-0.000646007074388
0.000133423339389
-2.60520424703e-06
-0.000116871452604
-0.000689475690939
0.000719447266946
0.000132532448743
-1.25516774271e-06
2.86383690674e-07
2.12359261676e-06
-7.25385153206e-06
1.75733748487e-06
-0.000140260903231
5.45882927448e-07
2.97465023523e-06
2.874184829e-06
0.000723279560429
9.88513104693e-05
-1.58129574323e-07
-0.000682658884202
3.66425827165e-07
-3.43448936351e-08
1.22755780412e-07
5.85816540185e-08
1.20997139324e-07
1.25263511188e-08
2.65830827365e-09
2.56566960362e-28
-4.49411229543e-07
-5.50335914908e-07
-1.00845460843e-06
-7.26160832698e-07
-9.84641570292e-07
-2.09671675695e-09
-1.24993648554e-07
3.1078209524e-07
-2.08922580459e-08
3.94836660017e-07
2.45981331325e-08
1.66929259262e-08
2.07090360622e-08
-6.527645639e-27
-2.15346020224e-07
-3.96235006439e-07
-4.55121573738e-07
-3.86950634472e-07
-3.49699523434e-07
1.97558831428e-07
5.79977668035e-07
4.68612400226e-08
3.04371895767e-08
4.09061686428e-08
-9.65887856196e-08
4.57442918101e-09
2.49298824663e-08
-3.56576655869e-07
-2.54231851218e-07
-3.3293588212e-07
-2.85948343077e-07
9.67450771723e-07
-3.49570405395e-07
0.000182035290267
4.40964718963e-05
4.11240856504e-05
4.57392061254e-05
3.72665883309e-05
0.0488299847307
6.50661305914e-06
-8.14353246383e-05
-0.0491053713339
0.0489146782108
0.000277055189363
4.65890505683e-05
3.94715653149e-05
4.45252831771e-05
4.05816573597e-05
-1.46090197967e-05
-0.0491662189406
2.50995855949e-05
-5.73355119118e-05
-0.0117502602981
-1.12938819087e-06
0.0117470358411
3.37721980728e-05
0.0117345928011
8.6040155017e-05
3.07876653848e-05
-4.79543142818e-05
-6.4116203545e-05
-0.0117453286357
4.70832644235e-05
4.56612552454e-05
5.27380495274e-05
3.18101447769e-05
-0.00030760009104
0.0122223797382
0.0121877871205
0.0120873821987
0.0121565947009
-9.685982732e-05
8.83051710052e-05
4.58779012936e-06
-3.47887144261e-05
-6.59118129779e-05
0.0117371523323
0.000340197267314
8.21211651891e-06
1.77377278437e-05
2.1995265398e-05
-7.70865492227e-06
1.61269811278e-05
-0.0492972652641
0.0493831877425
-2.01105437584e-05
-5.83300820813e-05
-3.96281695087e-05
-3.69361845118e-05
7.43981144563e-05
-0.0494147990786
0.000452441037254
0.011733343452
1.83426687097e-05
-2.13698862067e-05
-0.0117466994387
9.53443021449e-05
0.0116750450716
-6.03372450439e-06
9.26236401007e-05
-9.28417844554e-05
-0.0117262983069
8.33212594401e-05
0.00089041207489
-3.82944473645e-05
-1.44418174707e-05
-2.46145165896e-05
-2.45267472342e-05
0.0491557004432
-0.000197079459337
-0.000161185556983
-0.000200081326161
-0.000166701666353
-3.4208415114e-05
-1.92390611121e-05
-2.20780853292e-05
-1.45474523434e-05
0.0494349840939
-6.18906522272e-05
-6.41463454566e-05
-4.77570470471e-05
-7.58443594602e-05
0.000132781816193
0.0496553114385
0.000846397690309
-5.81026432245e-05
-5.15758727652e-05
-4.2706015778e-05
-7.15210856843e-05
4.80818868288e-05
-7.75473443772e-06
0.0117283750411
0.000103498550084
0.0116359714173
-6.24586927921e-06
4.64168090366e-05
-0.0116581121088
0.000142771610439
-0.000132043961459
9.52578586416e-05
-8.78427605638e-06
0.00010509341246
-0.000103681361965
0.0116228481828
0.0115157881701
0.000138517548494
-7.78025284535e-06
6.53037278003e-05
-0.000143351335909
-0.0115241038232
0.049890348995
-1.81892432626e-05
-3.76680215625e-05
-3.33680959453e-05
-1.43715806236e-05
-0.00115078699533
-5.53227465656e-05
0.00126852481229
8.2629873878e-06
6.02467048436e-06
4.2956729271e-06
8.45301172621e-06
0.050424861446
-0.00022830738753
-0.00160119144024
3.16714042455e-05
0.0116038589337
0.000146320847273
-0.000145326240992
-5.60495054066e-06
3.00794785484e-05
-0.0116235679254
0.000195426453377
0.011650076007
-0.000200278638205
0.000151592583587
-1.93504232471e-06
3.54828464649e-05
-0.000162962893475
0.0114937199296
0.000167176067234
-1.47629283668e-06
1.09630206348e-05
-0.000180549936657
-0.0115315540091
0.0115579580711
0.000773015327937
-7.79307277881e-05
-5.33629962175e-05
-7.59508059528e-05
-5.36443127837e-05
0.000174726067438
0.0500508683227
-7.41150708197e-05
-5.08732660337e-05
-5.12862457619e-05
-7.03700829709e-05
0.000189357615277
-0.0499072552231
0.000686687399795
0.000115949863081
0.0115871837689
8.86175085618e-05
-0.0116416274133
0.011488707219
-5.96938916568e-06
4.89044356206e-05
-0.0114915207543
0.000131854863884
0.0114786096308
-4.05734978552e-06
3.51338580299e-05
-0.00011464993464
-0.0114777446349
0.000106143351387
0.000984485240175
7.5338204741e-06
2.78467943108e-06
-2.26176088997e-06
1.09829782876e-05
0.050393909782
5.81202976866e-06
0.050217948449
-4.43902588881e-06
-3.44942384863e-05
-3.93279458229e-05
-5.21862774428e-06
7.9628252443e-05
1.52422989053e-05
1.05297719417e-05
5.55861705602e-06
1.89625788402e-05
0.0503710667568
0.000752997518457
2.81306543283e-05
2.17437786739e-05
0.011471393406
0.000135133293874
-1.88751938606e-07
-8.49442784184e-06
-0.0115181705417
0.00015896404963
0.0115444217722
0.000104144305755
1.39594032995e-05
1.20406828925e-05
-0.00012369632635
0.0114671976518
0.000124667912468
1.01831038717e-05
-2.43270028637e-05
-0.000131185374241
-0.0114928097105
0.011520044461
2.32912074867e-05
0.0115095188234
0.000101513336452
-0.0115192561394
1.09325642234e-06
-0.0115147435686
0.0115387189506
-7.94520658071e-07
0.000116844689704
6.7166278055e-06
-2.68394657919e-05
-3.37530895359e-05
-3.68489614352e-05
0.000949171492988
0.000116733565049
-0.000901313663587
-5.7972791711e-08
0.000961977867654
0.00014273614332
-3.09626762558e-05
-3.32437504218e-05
-3.35458069111e-05
-0.000903961506163
-1.20864915817e-07
-2.1331463085e-07
-1.44139747186e-05
2.03062644207e-06
3.57215004139e-07
-2.34724905376e-05
0.000934988900957
2.74689361465e-07
-6.18322533262e-09
1.20028484176e-07
-4.26323438473e-09
-3.9513712793e-08
-2.62665642529e-08
1.84709086662e-06
4.3936197441e-08
-4.22450223926e-08
1.06867926254e-06
-1.28271147995e-07
-1.11648282161e-07
3.9454335434e-06
-2.25075619906e-07
-6.42455049733e-08
4.8107401274e-06
-8.47822029332e-08
2.99057526107e-08
-1.94810408857e-07
-6.64435633386e-08
3.21830012356e-06
1.6083351826e-07
-4.44590816487e-07
6.01752977766e-06
-3.4542440508e-07
3.99521490903e-07
-3.29022445215e-07
3.46135182216e-06
8.41206406255e-08
0.000232898089031
-2.60126067635e-05
6.48223058175e-07
-1.23622334732e-05
-2.00086776591e-07
-0.000858439445596
0.000741992494225
3.34443495235e-06
2.89707239096e-06
1.48984040588e-06
-0.00073955945271
1.29951017432e-06
0.000224659416655
0.000144665448975
5.0068543167e-07
7.06848738546e-06
7.07805540447e-06
7.34379756603e-06
-0.000101907444249
0.000731195066964
1.58197991038e-06
6.43186557968e-06
1.11481731121e-05
8.53529737648e-06
3.49664268278e-07
0.000740157534644
0.00014514381962
6.69606062491e-06
1.06821754103e-05
7.33502957668e-06
2.73163209636e-06
-1.14182918921e-07
-4.39857691078e-07
1.38830824881e-07
5.33743488185e-06
3.81934874454e-06
9.50662980541e-08
-1.62414699117e-06
5.84358161153e-06
4.39438545525e-07
4.61937411467e-05
-2.24852714831e-07
4.71761950313e-06
4.17253710911e-06
2.07862325145e-06
0.000806228627982
-4.2240634758e-05
0.000747739084078
-6.2941149059e-07
5.90491924879e-06
1.96398185661e-06
3.45424943666e-06
-1.07159563722e-06
5.74213041069e-05
2.08821536992e-06
2.45273507643e-06
7.63456075476e-07
0.000755347293344
5.94393043911e-06
3.30261742301e-07
5.45817627692e-07
3.62759689704e-06
6.35567547096e-06
7.52529387045e-07
1.29526781116e-06
4.30334491232e-06
0.000122962741747
7.18310010384e-08
9.53173187498e-06
4.8019925274e-06
7.10031422234e-06
1.78597429867e-07
0.000677925952043
3.69938888204e-06
7.05488590285e-06
6.33311684684e-06
-0.000639376364284
8.58775912081e-05
4.1253643136e-06
-2.27401073702e-06
3.17074921632e-08
2.28175680298e-07
6.08459916367e-06
6.08464122945e-06
-4.11883091217e-06
-2.9457200832e-07
9.57218012642e-05
-2.59984484883e-06
4.47182324857e-07
-1.9007285543e-05
-3.49876258844e-05
0.000752520334856
0.000722943744874
-1.22117935716e-06
1.04047155807e-06
-1.84128699299e-05
-1.73928465343e-05
-2.70365631163e-06
-3.73368768506e-05
-1.34467630807e-05
-4.63209770257e-05
0.000776684389273
0.000132128318549
6.85220244527e-06
5.59071441667e-07
1.08609955868e-06
5.64052934391e-06
7.22775172881e-06
-2.43319610189e-07
7.51055598368e-06
-3.47243907982e-07
0.012265077857
7.15137326416e-05
-3.43739431288e-05
3.65045508662e-05
-0.012294639804
4.11643748782e-05
-0.0122623160457
0.0122324030611
-2.74462434945e-05
-1.31609888876e-06
-5.99968616033e-05
3.42149402537e-05
-0.0117530829172
-6.50699805377e-05
-0.0117484560445
3.13070186683e-05
0.0117429348683
4.9515561872e-05
0.0122373804028
3.09124504805e-05
-0.0117512818422
-2.78079440149e-05
-0.0122915788577
0.0122722074705
4.05443415114e-05
7.06801158715e-05
-0.0123004149758
-5.66562592294e-05
-0.0122860896563
0.0122697165193
6.44652648218e-05
-5.95107341686e-05
-0.0117466241236
0.0117376444089
-5.92526185713e-05
-6.4365282551e-05
8.70041044097e-05
-0.0117487027403
0.0122499676427
4.56385392864e-05
-0.0123099238973
-0.0117489234686
-0.0122380758194
9.66546877566e-05
3.15552400193e-05
-7.48178346612e-05
0.012231654759
-6.99841130621e-05
0.0122620970059
8.8302941813e-05
-4.96974893978e-05
0.0117351146054
-3.2277542339e-05
-1.30974246855e-05
-6.84084133143e-05
9.69318020767e-05
0.0117272405738
-5.51801879178e-05
0.000116409769835
0.0122609371859
-3.52218354502e-05
0.0117343156954
-4.73908191508e-05
0.0123269968269
1.11088300704e-05
5.52862457956e-05
-0.0123379415404
-0.0123053751049
6.77559062816e-05
0.012298327035
-3.62321886808e-05
9.54705315868e-05
-0.0117521491257
7.31965820301e-06
-0.0117414812325
9.91255835941e-05
0.011730506523
-0.0123214595769
7.2461822821e-05
0.0123219015942
9.41742834459e-05
-0.0117494081287
0.0123452555351
6.43011994234e-05
-2.03381719094e-05
-0.0123540428606
-8.4679896966e-05
-0.0123687999492
0.0123813055804
0.000106551863011
5.70832528007e-05
-0.011738500352
0.0117060565674
5.7514379728e-05
-9.07194203422e-05
-0.0117557596331
7.6321606907e-05
0.0123505098642
-0.0123704758809
8.65813394274e-05
-0.0117514359248
-0.000122886007317
-0.012324186331
-6.99973743217e-05
0.0123420132734
0.000138022111802
0.0122906558616
8.97161759104e-05
3.087731565e-05
0.000112998919753
0.0116985518654
3.64295167299e-05
0.0117070046385
0.000108013116783
0.0122979479158
0.00010163377424
0.0116616863985
0.000120851533065
-0.000166353551713
0.0123681288519
-7.887831679e-05
0.000180719891298
-0.0123184629415
0.000206517470124
0.0123346768604
-0.000190742286376
6.197102563e-05
0.000128696298355
-0.000112059982534
5.71847463075e-05
-0.0116061006726
0.000146861463747
0.0115772167381
-0.000149597227738
0.000224480455102
0.0123832718933
0.000132358565898
-0.0123639196892
0.000151607301068
-0.000101070452828
0.0123894466216
-0.000115428134276
0.0124028479795
0.000135021565974
7.4870165068e-05
0.0116703429783
0.000118235123133
-0.000114486749156
0.0115645557034
0.000109667879285
0.0124298210565
0.000167128892681
0.0116211465834
0.0124148543891
0.000190117320703
-9.29337908441e-05
-0.000231327066715
-0.0124589614373
0.0124698325781
0.000234413848139
6.35841164566e-05
-0.0115633153419
0.011538357211
0.000112623120483
-0.000126725750456
0.000124811300084
0.0124292555968
0.000202264788195
-0.000298134827511
-0.0123998200837
-2.63949713288e-05
0.0124205005065
0.00030963843984
-5.57866460367e-06
0.01234838883
0.000250246943831
6.75933802544e-06
-0.00023878214816
1.81318510433e-05
0.000169652792818
0.0116027058156
-0.000166944631017
5.56774169928e-05
0.0115793491446
0.000157998382383
0.0123715176648
-1.51180547853e-05
-0.000287809851697
0.000267606105041
2.23638354462e-05
0.0115928040297
0.000172574008264
-0.000341835657268
-1.23168582924e-05
0.0124758401615
0.000349056455936
-5.0422166061e-05
-0.0124430718912
0.000373978911548
0.0125324368842
-0.000366372596394
-6.69118548308e-05
2.33387254037e-05
0.000189805630193
-0.000183051931589
-0.0115925787903
1.60379654429e-05
0.000194403490895
0.0115860113091
-0.000328812512634
-6.11303286861e-05
0.000185297354637
0.000380820705475
0.0125428007899
-5.81179136312e-05
-0.0124447359898
0.000300560441577
-3.03004904397e-05
0.0124662279336
-0.000272745255286
0.012476247348
0.00026457739016
5.35226564387e-05
0.0115493424174
1.75086253253e-05
-0.000168731641378
0.0115020356227
0.000161227889624
0.0124933549794
0.000286879296544
0.0115629877652
0.000328195806366
-9.09268273771e-06
0.0125044129933
-0.0125251683735
-0.000348362514842
0.000324922803278
0.0125657474412
-0.0115661841091
1.24681906373e-05
0.0115629891231
9.26415999402e-06
-0.000171109499069
0.000165474007682
0.000309946579944
0.0125574770226
-0.000171322495086
-0.0124666022969
-0.000130980567219
0.0124948960262
0.000173307619026
0.0124378703633
0.00014112914085
-0.012409856088
0.000124030126456
0.000103190549727
0.0115272191982
0.000134091539613
0.0115579824088
-0.011616703859
9.13719172069e-05
0.0124647072087
-0.0124340260819
0.000151932044722
0.011500167969
0.000104917411123
-0.000202187413337
0.0125141175109
-8.4706403194e-05
0.000189889413555
-0.0124923931977
0.000223109992479
0.0124993729576
0.000103692820656
0.000123017263386