/*--------------------------------*- C++ -*----------------------------------*\
| =========                 |                                                 |
| \\      /  F ield         | OpenFOAM: The Open Source CFD Toolbox           |
|  \\    /   O peration     | Version:  v1906                                 |
|   \\  /    A nd           | Web:      www.OpenFOAM.com                      |
|    \\/     M anipulation  |                                                 |
\*---------------------------------------------------------------------------*/
FoamFile
{
    version     2.0;
    format      ascii;
    class       volVectorField;
    location    "5.05";
    object      U;
}
// * * * * * * * * * * * * * * * * * * * * * * * * * * * * * * * * * * * * * //

dimensions      [0 1 -1 0 0 0 0];


internalField   nonuniform List<vector> 
28582
(
(0.809869128154 -0.000120972163869 -0.000302385318506)
(0.810497383423 -0.00234587528016 -0.000493332107695)
(0.809709432995 -0.000221866878876 -0.00085634951451)
(0.810329859285 -0.00249034926752 -0.0013196138443)
(0.808970665696 -0.00021325832236 -0.00115038840765)
(0.809842619904 -0.00270301588021 -0.0028626738101)
(0.808845929887 0.000512770386478 -0.000927188680335)
(0.808187629629 -0.00212777683264 -0.00311031474994)
(0.428198649631 -0.0199268521148 0.00142444271259)
(0.165859921862 0.0716528213766 -0.00940077934185)
(-0.0787187014097 -0.0298841500105 0.0657478117206)
(0.808403726822 -0.000892182678563 -0.0012729828583)
(0.79459622654 0.00160459780861 -0.000975410536971)
(0.792091538173 0.000331617895267 -0.000336305411918)
(0.808294603923 -0.00322691546231 -0.0057051669529)
(0.807088461442 -0.00282507142313 -0.00512759588451)
(0.791437716003 -0.000104373768254 -0.000698484618474)
(0.805723139628 -0.00437548548919 -0.00779058902598)
(0.805059063092 -0.0037414284901 -0.00842658583047)
(0.810384391511 0.00314269913373 -0.00037840140041)
(0.810033965141 -0.00405799840315 -0.000542154847361)
(0.809319536414 -0.00492159069133 -0.000375475190054)
(0.810926641543 0.00317276954515 -0.000659596299548)
(0.810163800305 -0.00398799224942 -0.00166834910743)
(0.809718099833 -0.00484428151135 -0.00101204157023)
(0.810823436994 0.00287880515848 -0.000858760336133)
(0.810505996225 -0.00474365571371 -0.00418340373526)
(0.810928264461 0.00333820018943 -0.0017825336729)
(0.809333577619 -0.00404483741378 -0.00652614769498)
(0.0519137092751 0.107175991678 -0.0123790245198)
(0.00951578963924 0.016855502273 0.0886845359374)
(0.0442022835073 0.0494302858011 -0.244766739581)
(0.811623500326 0.00198145981862 -0.000652993675009)
(0.80993982705 0.00202972204692 -0.000186253366473)
(0.799641548847 0.00245101537504 -0.00362626960257)
(0.796945001217 -0.000349002643231 -0.00186844439907)
(0.810201628522 0.00259176949672 -0.00275438181403)
(0.811884854721 -0.00483773589533 -0.00766322202239)
(0.808188562309 -0.00379238333329 -0.00614989447291)
(0.81121234881 -0.0048387203632 -0.00707154450511)
(0.806869288873 -0.00510603442477 -0.00847341808509)
(0.786561424769 -0.00099479880294 -0.00763181768517)
(0.806407136473 -0.00464342115742 -0.00896590397722)
(0.809149936566 -0.00498349747644 -0.01138864942)
(0.360383897823 -0.00378544057763 -0.000883904701707)
(0.187536863813 0.0747462464484 -0.00821207847836)
(0.00770755824642 0.0926020052587 0.194331949991)
(-0.00401625523313 0.0144937474466 0.187628605611)
(0.273551885399 0.0317478312042 -0.00443885660416)
(0.0924541609138 0.0093143833918 0.178515944545)
(0.809352113792 0.000934242338943 -0.00158608019416)
(0.807967928716 0.000101970162353 -0.000689762114294)
(0.793734744225 0.0015559929091 -0.000418996670063)
(0.79406363729 0.00126783716212 -0.00066779824379)
(0.8084770282 0.000879761526959 -0.00158502392258)
(0.793308567133 0.00127373298175 -3.89034735593e-05)
(0.808701930497 -1.79282370146e-05 -0.000601164181741)
(0.807664316275 -0.000633027978212 -0.00105728292147)
(0.80727140135 -0.00155855337307 -0.00105427186105)
(0.793120684858 0.00106584626709 -1.38122452437e-05)
(0.791671339059 0.00115404178214 0.000134231062091)
(0.806586840778 -0.00155729409395 -0.00110116738628)
(0.792386616696 0.00116598088474 0.000449769946186)
(0.808355875161 -0.000674901197848 -0.00107550869011)
(0.805451127972 -0.00295563373241 -0.00381081846343)
(0.807029736245 -0.00208162634441 -0.00220784220666)
(0.790626917993 -0.000900764181433 -0.0015432795045)
(0.790691744012 0.000745386832402 -0.000265490640358)
(0.806261352304 -0.0021817640264 -0.00240671685865)
(0.78998247028 0.000594769088477 -0.00156643583282)
(0.80621469666 -0.00272061446028 -0.00332432188465)
(0.806445181725 -0.00366185613467 -0.0070636760357)
(0.789229101608 -0.00157946700784 -0.00401179971039)
(0.788755573924 -0.000505437058038 -0.00434977619277)
(0.805601012823 -0.00373500662136 -0.00515007112645)
(0.789683883863 -0.00136360138384 -0.00239394823583)
(0.789086874458 -0.00038152755254 -0.00249839943558)
(0.806314073269 -0.00327973291293 -0.00456891538609)
(0.804074499636 -0.00291906305194 -0.00809003427078)
(0.788037109066 -8.64392420781e-05 -0.00580900292529)
(0.787501789356 -0.000260902844481 -0.00474360692766)
(0.804846618245 -0.00297420762261 -0.00562283445314)
(0.787863260961 -0.000134972282522 -0.00245741143006)
(0.803952707814 -0.00208054965398 -0.00471053854062)
(0.788410200481 0.000296194752479 -0.00384113453209)
(0.473038604229 0.0317708222601 -0.00197343574146)
(0.141296169692 0.0605044895285 0.156351498566)
(0.47065605849 0.0907088229688 -5.9703994234e-05)
(0.423285852582 0.0609583986703 -0.0014470293614)
(0.110404239667 0.0964884549451 0.106511518784)
(0.0829519317298 0.0784460360265 0.122897660195)
(0.0584726885722 0.100817186808 -0.0149001819067)
(-0.0266875971362 0.154053848233 0.168030575849)
(-0.0512203963738 0.00819871430051 0.164106921102)
(-0.0420250840262 0.107286417339 -0.0145656524244)
(-0.0337808499587 0.16807356988 0.120283297133)
(-0.0453055820338 0.113079192576 -0.0124561493425)
(-0.0641995914846 0.0171225185836 0.115382647925)
(0.810957041153 0.00227343161515 -0.00432164408383)
(0.810660574313 0.00243012859901 -0.0038517087032)
(0.798576965838 0.00151032929744 -0.00352288491112)
(0.798814719667 0.00135741582363 -0.0035666193971)
(0.811422763057 0.0019411659386 -0.00403384205945)
(0.810230476615 0.00287831928589 -0.00433076942215)
(0.797846036979 0.000585460350927 -0.00344334576223)
(0.811785746512 0.00170487652061 -0.00344673618535)
(0.81267508628 0.000959078946606 -0.00224874656615)
(0.797369297191 0.000514807705517 -0.00264359225019)
(0.796321505212 -0.000316484107739 -0.00167539219558)
(0.812302086521 0.00146341987937 -0.00303871484779)
(0.811995117817 0.00107787893549 -0.00244320838063)
(0.796760560935 0.00020825312094 -0.00253199311587)
(0.796711062646 0.00139212653367 -0.00208543031348)
(0.795614170037 0.00135249541902 -0.00129205196357)
(0.810283271972 0.00154056781074 -0.00170421849756)
(0.811092448834 0.00220221256407 -0.0028027217629)
(0.796018418806 0.000344964207953 -0.00137786586905)
(0.811188902094 0.00144159664565 -0.00178413368595)
(0.796841770322 0.000476799764197 -0.00244646965119)
(0.807352720267 -0.00411555815652 -0.00781888132771)
(0.788501016474 -0.00171164051659 -0.00497333171187)
(0.788162905069 -0.00128425927523 -0.00527960961681)
(0.808403005384 -0.00537915296901 -0.0107830993865)
(0.78791972339 -0.00136404036431 -0.00643596804914)
(0.808683154944 -0.00439397536423 -0.0101582171244)
(0.787605798001 -0.00154169793092 -0.00681150948368)
(0.809824678097 -0.00562062106821 -0.0102205052578)
(0.812561274401 -0.00489426640991 -0.0109418097406)
(0.787660221862 -0.00125169060692 -0.00695115332419)
(0.786384927002 -0.0018486015839 -0.00771254180571)
(0.810176639207 -0.00459992939081 -0.00985313805637)
(0.812339615883 -0.0059135094401 -0.0112231393034)
(0.787384140637 -0.00173795752173 -0.0071820687261)
(0.807313664044 -0.00444065210826 -0.0120378972424)
(0.805505492675 -0.00390845832479 -0.0089704122886)
(0.787511350172 -0.00109138398681 -0.00661680590469)
(0.786781516432 -0.00138054273927 -0.00629448813868)
(0.786818346803 -0.0015852064556 -0.00810346799457)
(0.808122461864 -0.00506582244659 -0.0113344740712)
(0.787134891888 -0.00104191285687 -0.00787558489225)
(0.787113811267 -0.00173066233307 -0.00883009531029)
(0.786485148524 -0.00153874560445 -0.00959652087359)
(0.812279880006 -0.00520814411734 -0.0125304227832)
(0.809612128986 -0.00546078993722 -0.0106188311384)
(0.786375031589 -0.0010119864903 -0.00878722989049)
(0.812372012669 -0.0057228818001 -0.0115131844395)
(0.787098030103 -0.00119914592331 -0.00823049655748)
(0.811105762932 -0.00532013730794 -0.00289960854607)
(0.813153352807 -0.00526356381897 -0.005945136264)
(-0.105601478876 0.103993866316 -0.00968729726689)
(0.0876473334833 0.0226052832771 -0.478222771484)
(0.810256002674 0.000423716087313 -0.000201886311859)
(0.794829160406 0.000904112915664 -0.000260460952561)
(0.812346438752 -0.00532331827005 -0.00487555346532)
(0.813822080571 -0.00587230441792 -0.00156384658452)
(0.785686695246 -0.000713509417186 -0.0071940721343)
(0.786186170287 -0.000834787433073 -0.00930038933203)
(0.78455056171 0.00181870560536 -0.00219678786966)
(0.813080985219 -0.00605416606941 0.00113792465579)
(0.811577635498 -0.00642645295619 0.00232112054872)
(0.783325202228 0.00239325299209 -0.000351927546009)
(0.778571525102 0.00374784298442 0.00325692441938)
(0.410594369207 0.0137785147446 -0.000410824650627)
(-0.110410298963 0.103660909731 -0.0111750630895)
(-0.143159628533 0.118513641679 0.00180298295108)
(-0.0547615311196 -0.0493145291492 0.0522111267786)
(-0.0324948818896 0.167421947485 0.0554793012276)
(-0.0305513134944 0.139491021026 -0.0164071778109)
(-0.163087494912 0.144308241906 0.00915228196455)
(-0.104192915846 0.157351546068 0.0111545296052)
(0.810509169613 -0.000204906422179 0.000525997019389)
(0.81041347476 0.000619021227595 -0.000887645853651)
(0.795362851813 -0.000287287126045 -0.000594150155171)
(0.794111098125 0.000588930392588 0.000958601854914)
(0.811265076634 0.000522184582521 -0.00111017406272)
(0.794753247238 -0.000705547382363 0.000407874918295)
(0.80967705672 -0.000368262288156 0.000713549348084)
(0.815665895082 -0.00594154827771 -0.00857846228657)
(0.813733039649 -0.00508966543702 -0.00949318084985)
(0.785002603445 -0.000640019405375 -0.00629530986189)
(0.785742653915 -0.00135591430695 -0.00757760105254)
(0.815725917902 -0.00507653689866 -0.00844933429208)
(0.813486173187 -0.00599670441883 -0.00979708360227)
(0.785157620803 -0.000999579753112 -0.00648649348133)
(0.815707184959 -0.00556028082937 -0.00838381771891)
(0.813381673201 -0.00508916006097 -0.0108413207494)
(0.785922648024 -0.000303797418305 -0.00852626204665)
(0.785787981252 -0.000182722312301 -0.00802445701307)
(0.813375594251 -0.00564281958077 -0.00999013940063)
(0.785323541317 0.000222884166045 -0.00732133653594)
(0.815806579965 -0.00502195463451 -0.00916460535113)
(0.815961884887 -0.00536558825912 -0.00605945241242)
(0.815680833274 -0.00485202673145 -0.00122842453086)
(0.784034450042 0.00174642234508 -0.00254235353405)
(0.78544866945 0.000867272669804 -0.00638007548584)
(0.815672338469 -0.00549293414517 -0.00140697170162)
(0.784843592999 0.00110617999525 -0.00593465715806)
(0.816086300516 -0.00477260310443 -0.00659878708265)
(0.813645862185 -0.00588224662795 0.00297045400031)
(0.814512714787 -0.00488705644464 0.00011573175199)
(0.78313111539 0.00217631899248 -0.00121812883848)
(0.781597332629 0.00302515664282 0.00155156711771)
(0.814639802165 -0.00567606967481 -0.000201624294793)
(0.781364531053 0.00264227448418 0.00143136791691)
(0.8132644658 -0.00522478270292 0.00321957492966)
(0.811809762519 -0.00614371315186 0.00397544366804)
(0.810052736122 -0.00590030857567 0.0047744567344)
(0.777931790127 0.00297848877956 0.00303921890449)
(0.779842473819 0.00330356783417 0.00262003728041)
(0.810255272687 -0.0064824190162 0.00486994487862)
(0.77959516225 0.00268131452902 0.00271568903884)
(0.811575848502 -0.00553261698424 0.00374867083885)
(0.78900312997 0.00829176830396 -0.0010929879296)
(0.795837641339 0.0104562275353 -0.00405562762562)
(0.80010441152 0.016276736033 -0.000583388372897)
(0.801999066768 0.0107628324955 -0.00146295864154)
(0.543589744849 0.115624518006 -0.00954455918775)
(0.44975355255 0.0526959296807 -0.00564803974285)
(0.37604783093 0.0997899617064 -0.0191747008279)
(0.369006495255 0.0701589539757 0.00260426590557)
(0.384310927423 0.0734163014945 -0.00121231288006)
(0.32168035892 -0.0581841242287 -0.216014100428)
(0.259968659478 -0.0577212649474 0.534422954927)
(0.275547429207 -0.0632636230269 -0.34475322391)
(0.265295524765 -0.073893248979 0.290245597041)
(0.317500569 0.010008435912 -0.310065161224)
(0.386977976545 -0.00991163330526 0.292066269902)
(0.785260026747 0.00225257307558 0.000420601378746)
(0.786887738864 0.00342701134383 0.000764722329214)
(0.781744322405 -0.00133284210073 0.00425396174551)
(0.781945798897 0.00522624761095 0.0040194413411)
(0.784370742694 0.006494819879 0.00144319596019)
(0.781999435084 0.00539955548436 0.0032149764917)
(0.788767050834 0.00481236677244 -0.000130709589033)
(0.792106828744 0.00627909948668 -0.00174601664068)
(0.782069856033 0.00624129096408 0.00255362334273)
(0.782692620606 0.00590256624247 -0.00370518982098)
(0.787698870849 0.0133646852862 0.00144511643755)
(0.792334493375 0.00968995789443 -0.00232707869901)
(0.79398279823 0.0138949087656 -0.000610847853949)
(0.782221832958 0.0064031165049 0.00142636051166)
(0.786865878165 0.00947829595651 -0.00284713062985)
(0.783902856783 0.0067755208552 -0.00465161622143)
(0.788909850564 0.00977829847266 -0.00488061794081)
(0.796815884689 0.0189114800839 0.00158717328032)
(0.800510180717 0.0231601242752 0.00293711875162)
(0.788107591726 0.0100453932307 -0.00216227332119)
(0.79294057146 0.0137255757154 -0.00294556884098)
(0.790188800474 0.0109094951616 -0.00265767208588)
(0.793576479936 0.0121557579165 -0.00114497765056)
(0.797850291663 0.0134514738158 -0.0018406060195)
(0.7998901987 0.0119219870329 -0.00208897057269)
(0.784770568793 0.00628141015803 -0.00512509783573)
(0.789765124707 0.00933986322571 -0.00374784669187)
(0.791046976986 0.00757993341176 -0.00271812887721)
(0.802782590606 0.0181895221079 0.000165546444744)
(0.801598697271 0.01307417484 -0.0004328880085)
(0.803651996503 0.0138900422008 0.000207067188515)
(0.791043318117 0.00978130708772 -0.00158667609464)
(0.793600319093 0.0112144184076 0.00034191090666)
(0.79202990886 0.00791384302009 -0.000679982323993)
(0.793938954909 0.00889814833843 0.00110685895822)
(0.792220385154 0.00709027056799 -0.00164839729334)
(0.794548827325 0.00833556542068 -2.74440131533e-05)
(0.59216557139 -0.0376764620797 -0.00333726094933)
(0.604448628257 0.0465451367211 -0.00327069939252)
(0.600997593651 0.0457243812481 -0.00670438520239)
(0.236388059235 7.51452140037e-05 -0.144653538194)
(0.348788781879 0.0076265959489 0.00358951566455)
(0.279985815143 -0.0173774035985 -0.0795479216215)
(0.37927293869 -0.0227220654011 0.0193066736212)
(0.337641908294 0.0105283681876 0.00157708484466)
(0.197739424496 0.013499159902 0.000371888743454)
(0.360098559198 -0.0207618460031 -0.0182955830456)
(0.211009474901 -0.0193963481094 -0.00372556024544)
(0.565021274059 0.125647897857 -0.00246459068297)
(0.473613796463 0.163233744269 -0.00602307057964)
(0.509633185952 0.0825194693666 -0.0123871246987)
(0.447491412324 0.131711799439 -0.0138619595192)
(0.418107743096 0.0871225662704 -0.0118712748429)
(0.285019057756 -0.0409699661153 0.0184288310597)
(0.385234821349 -0.0216370439438 0.0296163316875)
(0.273484268988 0.00917141265445 0.0804129928638)
(0.372591998685 0.0354946655312 0.0311996619268)
(0.434829308843 0.02566752793 -0.00515990290516)
(0.396038797093 0.0636426303141 -0.00191881655041)
(0.39719263713 0.0271328510508 -0.00101366686464)
(0.375838827472 -0.0139834770933 -0.0145000876862)
(0.245949912896 -0.00979685533689 -0.0108395253025)
(0.37297527139 0.0453525244466 -0.0239179237059)
(0.261954300521 0.0598214653404 -0.0438498711928)
(0.368626538193 0.0775909852152 -0.00971612276069)
(0.359857862871 0.0582713809729 -0.00728009013419)
(0.252689724507 0.00335359122363 0.099222193648)
(0.357218372146 0.0265063988424 0.0153760028811)
(0.369704486505 0.00472246177368 0.0190988551096)
(0.38508816765 0.0423205982986 0.000612018763678)
(0.366872203943 0.0749947333762 0.00387660150186)
(0.392970144761 0.0666777309449 0.00211699486627)
(0.377609516139 0.0346818365604 -0.0429297169362)
(0.289850762495 0.0583561676257 -0.0791890474841)
(0.415465106398 0.0191250390078 -0.0475117647621)
(0.358443240673 0.0314061509122 -0.0822326133072)
(0.786561862201 0.00226698158741 0.00421724452306)
(0.784721557048 0.00228584028278 0.0036788482834)
(0.78203653208 -0.00131467435384 0.00433781555098)
(0.781827555766 0.00117405232686 0.00477445300444)
(0.784820537859 0.00290789721853 0.0042095456942)
(0.782058318333 0.00113831889459 0.00493765491992)
(0.786222666132 0.00200297526395 0.00352007692438)
(0.7869580725 0.00240089369701 0.00433556181105)
(0.786867246431 0.00375595682912 0.00301631830413)
(0.781830746886 0.00313857135366 0.00458636018709)
(0.782051627112 0.00523719142399 0.00430896519909)
(0.785682338408 0.00344748973334 0.00382868462481)
(0.787640074572 0.0026714895787 0.00363668269762)
(0.782002525834 0.00318622095181 0.00481304414964)
(0.783846321497 0.0055042566211 0.00256473466813)
(0.785745803408 0.00500759887593 0.00251301633531)
(0.781861454285 0.0031456928188 0.00405528818605)
(0.782502073846 0.00557571475068 0.00138360588528)
(0.784726205385 0.00402429154643 0.0035975479075)
(0.785419942905 0.00679455936049 0.001226650276)
(0.781943835862 0.00335964133273 0.00283760003896)
(0.789848635718 0.00313274814857 0.000276682658333)
(0.788212669816 0.0040694805518 0.000941877330668)
(0.782140712577 0.00628792293136 0.00307156972206)
(0.78198955859 0.00642710678456 0.000533706547718)
(0.788682617066 0.00287573071579 0.0020918831443)
(0.789476048964 0.00439085551092 -0.00133734974382)
(0.781903168621 0.00634199762258 0.00149874310094)
(0.790999624797 0.00376200182508 -0.00181492594689)
(0.792793567512 0.00615488504677 -0.00613666442804)
(0.782512077947 0.00645860604053 -0.00170154027981)
(0.782229910262 0.00540152625212 -0.0022867087133)
(0.791048311949 0.0049461356819 -0.00408952985414)
(0.792391340452 0.00483482533326 -0.00382757025861)
(0.78200867553 0.00628537264471 -0.000394095282268)
(0.789831865172 0.00817628678997 -0.00397678002164)
(0.787434493632 0.00567185117346 0.000103563984246)
(0.783248665721 0.00698643340679 -0.00063413274371)
(0.782567143816 0.00704120821333 -0.000757699897743)
(0.78740687006 0.00769329644005 -0.0018849727414)
(0.789268353796 0.00600051548012 -0.00261004601216)
(0.784297256183 0.00803332989471 -0.0030955153574)
(0.790958027802 0.0109929249244 -0.0051141746977)
(0.788976742528 0.0128026916023 -0.00243832521367)
(0.785093061036 0.00812906129948 -0.00239559189987)
(0.787233474003 0.0101827651515 -0.00363427518493)
(0.788174617385 0.0102921551025 -0.00382803830644)
(0.791883552916 0.0138562076508 -0.00324722872136)
(0.786046974305 0.0091148610798 -0.00359677361166)
(0.792472768906 0.00933283532579 -0.00603715990456)
(0.793573854644 0.00811522349887 -0.00644670212581)
(0.783408860645 0.00721226044777 -0.00280189231653)
(0.78556609812 0.00769566547972 -0.00581285584143)
(0.791363503716 0.00693495454289 -0.00472174825887)
(0.794918964969 0.0103332368046 -0.00723358183643)
(0.78524894372 0.00817306515157 -0.0047016230484)
(0.79373992435 0.0118389782049 -0.00604351030939)
(0.797408720016 0.0151046841217 -0.00469570431716)
(0.787970456881 0.00997057070785 -0.00410153111571)
(0.787577364145 0.00872990265817 -0.00596666228906)
(0.794810832569 0.0146183909832 -0.00399344845797)
(0.796320681873 0.0128403556272 -0.00731238831273)
(0.787060219863 0.00896322798009 -0.0046777072178)
(0.794879014898 0.0195884363595 -0.0011848487236)
(0.790443212435 0.0158778743012 -0.00234546201257)
(0.788475315086 0.0114865496477 -0.00197779082797)
(0.788634503817 0.0106029040953 -0.00356576218038)
(0.791912378071 0.0190010613704 -0.000295829314383)
(0.793361931868 0.0166283437669 -0.00366000761983)
(0.789715722432 0.0118963283374 -0.00280495791793)
(0.796858067525 0.0221920002976 -0.000189262743106)
(0.797859331255 0.024104342636 -0.000207026642521)
(0.790051332599 0.0126440943776 -0.00220063331879)
(0.793184665529 0.0137409230994 -0.00180578316817)
(0.794299107425 0.0218338815129 -0.000125094400803)
(0.791067614422 0.0131138086437 -0.00169550289015)
(0.799823269149 0.0243312952356 8.20296287884e-05)
(0.797492106534 0.0195124869398 -0.00206119613342)
(0.798279165526 0.0173628990813 -0.00322839287901)
(0.789504599811 0.0110702507638 -0.00381832443615)
(0.790603515784 0.0116294814019 -0.0018560581592)
(0.796118398668 0.0173507443733 -0.00374382985668)
(0.799147311815 0.0189747401532 -0.00114611611551)
(0.790721205463 0.011812564174 -0.00281009547186)
(0.799096944532 0.0216399629875 -0.000431919241458)
(0.80285433279 0.021707198671 -0.000597674074066)
(0.793456064968 0.0127630295953 -0.00116457106104)
(0.791714084986 0.0117515762333 -0.00105268611124)
(0.800594691696 0.0205872744575 -0.000484173193761)
(0.791802796762 0.0123135462202 -0.00118296181302)
(0.801672269557 0.0232477703958 -0.000453359236796)
(0.798938588767 0.0111433818595 -0.00854693101186)
(0.795481579813 0.00896977453957 -0.00734467361552)
(0.786662978517 0.00731494944242 -0.0059477952099)
(0.785700656078 0.00618953843174 -0.00637602079538)
(0.797141032081 0.0110562171376 -0.00798694105726)
(0.797169501938 0.00947549923331 -0.00828138512218)
(0.787655763468 0.00728994356469 -0.00672952702033)
(0.800080663805 0.0126651992507 -0.00674876999687)
(0.799440627514 0.014890154919 -0.0040223000877)
(0.788720248103 0.00852731853878 -0.00578407927338)
(0.789868904738 0.00896140701322 -0.00287319228368)
(0.798335206438 0.0131659881046 -0.00709598501827)
(0.800671241275 0.013758872593 -0.00315691898654)
(0.789589428549 0.00829651451827 -0.00545504494976)
(0.801079742021 0.0117829472891 -0.00614210770864)
(0.802017691133 0.0112750737768 -0.00308972238195)
(0.790535322478 0.00819049131494 -0.00236121571112)
(0.790405447514 0.00740491759538 -0.00499685044459)
(0.801499061343 0.0125037202353 -0.00261082909518)
(0.801485279822 0.0110062524531 -0.005962299713)
(0.790299416481 0.00764514990218 -0.0050617742867)
(0.801639859436 0.0157001149812 -4.0304039316e-05)
(0.799892106509 0.016383550015 -0.00222475479967)
(0.791132425951 0.010538010186 -0.000657392929321)
(0.791088397719 0.00931622712467 -0.00209248077353)
(0.800513040612 0.0175958580037 -0.00033800862498)
(0.800977893317 0.0148812635887 -0.00241847817395)
(0.791740444767 0.00994506207213 -1.66635216827e-05)
(0.802761987115 0.0167168170148 0.00130737852568)
(0.803649882686 0.0198131572227 0.000409622804752)
(0.792005629406 0.0109659318509 0.000269723932478)
(0.793278911294 0.0107286888758 0.00172300222615)
(0.801875337792 0.0189916275953 0.000432091795366)
(0.792309345916 0.0104110900597 0.00180617391189)
(0.804144815802 0.0173043340417 0.00155226669134)
(0.802409081612 0.0137584264273 0.000604057775907)
(0.802254183927 0.0117103083085 -0.00149666109613)
(0.791487576695 0.00877619559469 -0.00162347419323)
(0.792131823884 0.00817069609461 0.000514123465039)
(0.801778625219 0.0132432136432 -0.00171448822683)
(0.802673489227 0.0119939002643 0.00076137586868)
(0.792066753318 0.00898081354093 0.000373782917174)
(0.80336307011 0.0142381084178 0.00222874138759)
(0.804584145223 0.0122640134128 0.00145937262296)
(0.793527547066 0.00943575727316 0.00247379359444)
(0.792638014709 0.00847042054794 0.00109833366283)
(0.803454257856 0.0122480394229 0.00110920858358)
(0.792640431146 0.00921952389505 0.00234914492025)
(0.804415469095 0.0145036050314 0.00252194676514)
(0.802965558357 0.00913135307936 -0.00171284865182)
(0.80264096126 0.0102095094361 -0.00236802309395)
(0.792784111699 0.00718724422109 -0.000324102618588)
(0.792294465769 0.007119102278 -0.00216602572759)
(0.802925078449 0.0103415669424 -0.00047128472199)
(0.802476509325 0.00914257435748 -0.00278608257057)
(0.793013052369 0.00719648809228 -0.00166446216501)
(0.804511596383 0.0105147506994 5.33630582041e-05)
(0.793457999844 0.00780850728101 0.000251532238138)
(0.803668360055 0.0106098086128 0.000139507079387)
(0.812357819545 -4.70453845057e-06 -0.000202620507335)
(0.812538263691 -0.00346471644136 -0.000344189407644)
(0.811197267597 -0.00548432204727 -0.000713534361745)
(0.80858423785 -0.00539865391907 -0.000135654986666)
(0.806085866122 -0.00528118811199 1.65758688588e-05)
(0.808431663883 -0.0237813436811 5.64848662602e-05)
(0.812441783241 0.000167261921134 -0.000764520976778)
(0.812097608533 -0.00331586783009 -0.00100694942272)
(0.811121227781 -0.00556876959628 -0.00142278451705)
(0.809131620313 -0.00544474372308 0.000262640542267)
(0.806241137489 -0.00555605748868 0.00164049765354)
(0.808790698799 -0.0242915957773 0.00214141691805)
(0.816288786052 0.00549414309672 -0.00114703606423)
(0.814683596956 0.00504470554684 0.000375389206969)
(0.794467451556 0.00446614486807 0.00654648721861)
(0.790966030471 0.00273511155673 0.00891106548736)
(0.788027308088 -0.00284253732616 0.0130448739251)
(0.787751742268 -0.00521047033843 0.0131904547103)
(0.79181833053 -0.0044168296672 0.0104079049206)
(0.777474355207 -0.0131816023827 0.00809255921577)
(0.826312337677 0.00392260432206 0.000111447641345)
(0.822923709187 0.000867956239764 0.000331213883178)
(0.82023315448 -0.00759355339949 -0.000203881859221)
(0.815644489467 -0.0165663032895 0.000927854474143)
(0.811771862581 -0.0179127215803 0.00291885792374)
(0.805721329301 -0.0166139356617 0.00366695911778)
(0.803419572625 -0.00961271160748 0.00254654000098)
(0.794883136836 -0.0292750558436 0.00254213458096)
(0.818678415491 0.00334089140333 -0.000887009614323)
(0.820087921868 0.000226940673851 -0.00073019213237)
(0.819150535876 -0.00557375719439 -0.000784272926203)
(0.815497523609 -0.00900313899134 -0.000302739817176)
(0.812099605678 -0.0096934218369 0.000782597143813)
(0.807902332957 -0.00974369412391 0.00146402360667)
(0.804627548953 -0.00696391799958 0.00152867755934)
(0.800578546712 -0.027719279796 0.00152376668708)
(0.813795506856 0.00343825513193 -0.00033829023672)
(0.816321731938 -0.000372497679101 -0.000625505944287)
(0.815994293467 -0.00423477383265 -0.000555355543967)
(0.812907622681 -0.00726206196926 -0.000522512653856)
(0.810772343321 -0.00882791337602 -5.40316032224e-05)
(0.808563474709 -0.00965023278173 0.00038502729686)
(0.805472819565 -0.00781355074739 0.000629314805996)
(0.80470676696 -0.0305482603195 0.00066275460558)
(0.810092182464 -0.00634877535938 -0.000537891971194)
(0.808964971456 -0.00686649878755 -0.000299527072551)
(0.806057582641 -0.00617008719493 3.55870313982e-05)
(0.807401772406 -0.0266012036931 0.000112031684991)
(0.639149457189 0.0409683723393 0.00884800069806)
(0.63955422368 0.0396738889418 0.0139891754069)
(0.653685465858 0.0212937125767 0.0259498663721)
(0.663869557208 0.010895058009 0.0285644280495)
(0.699319208695 -0.0014421584014 0.0253496976004)
(0.725017689399 -0.00850970450141 0.0196276056224)
(0.768896815617 -0.00588145378019 0.0121074474955)
(0.750468646161 -0.0187382419066 0.0104027330789)
(0.773736686262 0.0119217093443 0.0061376684967)
(0.7727198389 0.0044846415449 0.00823626508296)
(0.781309877918 -0.00544332312093 0.0126188291782)
(0.785323461234 -0.0181769710551 0.0137609633172)
(0.793033592989 -0.0238551224984 0.0119599208635)
(0.794215705893 -0.0235221288972 0.0103956496247)
(0.797708035229 -0.0160712516299 0.00836936698599)
(0.789676734957 -0.0397002109894 0.00753884565936)
(0.819690520971 0.00433083687892 0.000367777182526)
(0.819371288275 0.00199242968649 -0.000383698425218)
(0.818798095387 -0.00404490466029 -0.000763301424143)
(0.816489589906 -0.00873628916112 -0.000971505783785)
(0.813882966362 -0.0112859994641 0.000462934322012)
(0.809306988176 -0.01198120522 0.00188262300628)
(0.805284126578 -0.00847662565138 0.00380865783122)
(0.801123052842 -0.0316346295065 0.00418764679746)
(0.814086684287 0.00326995195482 -0.000236330756035)
(0.816084810404 -0.00133016019478 -0.00083693286922)
(0.815758831434 -0.00439268355878 -0.00115450229858)
(0.813445642812 -0.00661553498444 -0.00119655626094)
(0.811460437571 -0.00821288668074 -8.0842263175e-05)
(0.809488962819 -0.00890384892705 0.00107851215252)
(0.805781308259 -0.00775997838779 0.00297357547799)
(0.805213107727 -0.0317685132038 0.00333780358655)
(0.810380904199 -0.00670389498757 -0.000705048281636)
(0.80953721641 -0.00725980905604 0.000572526016568)
(0.806412004895 -0.00673258690917 0.00213807055322)
(0.808304285441 -0.0281956246701 0.00261009553341)
(0.634887921465 -0.0156565931754 0.0159235167807)
(0.629290882714 -0.0171081019601 0.0198601941717)
(0.64271585219 -0.0268965557404 0.027296223701)
(0.65353242092 -0.0325487045276 0.018462605933)
(0.692087928975 -0.0316734776107 0.00631968561401)
(0.722295995264 -0.0258606787332 0.00104482045089)
(0.768408459515 -0.012236529607 0.00219981018444)
(0.754368450578 -0.0249277529901 -0.00162641515532)
(0.735294543253 0.00380182698759 0.0202039995341)
(0.734625225711 -0.00375972932009 0.0208262474388)
(0.786614483942 -0.0076965416188 0.0066217825087)
(0.788998900125 -0.0185878444252 0.00181882332054)
(0.794539009904 -0.02295307552 0.00118461359581)
(0.794762630464 -0.0229565379047 0.00253483526565)
(0.79764660476 -0.0163937673583 0.002963603464)
(0.793271815802 -0.0421041671922 0.00026335897573)
(0.819297684469 0.00337281686925 -0.000132247630203)
(0.81865650319 0.00126982264878 -0.00117408151636)
(0.819061427417 -0.00561139342674 -0.00185462673636)
(0.81791662342 -0.0127774872055 -0.00521102236126)
(0.815197267819 -0.0141655054013 -0.00467929921021)
(0.811800573947 -0.0138385832309 -0.00226676696808)
(0.806311229952 -0.00969332868592 0.00116592382452)
(0.806849554329 -0.0355776975036 -0.000254954647002)
(0.810306449839 0.00763754544704 -0.00066698136674)
(0.81394943779 0.00278968249415 -0.000359273158501)
(0.815394548566 -0.00117748487997 -0.000496943191422)
(0.815485640406 -0.00449102816696 -0.00252108526149)