/*--------------------------------*- C++ -*----------------------------------*\
| =========                 |                                                 |
| \\      /  F ield         | OpenFOAM: The Open Source CFD Toolbox           |
|  \\    /   O peration     | Version:  v1906                                 |
|   \\  /    A nd           | Web:      www.OpenFOAM.com                      |
|    \\/     M anipulation  |                                                 |
\*---------------------------------------------------------------------------*/
FoamFile
{
    version     2.0;
    format      ascii;
    class       volVectorField;
    location    "6.35";
    object      force.turbine;
}
// * * * * * * * * * * * * * * * * * * * * * * * * * * * * * * * * * * * * * //

dimensions      [1 -2 -2 0 0 0 0];


internalField   nonuniform List<vector> 
28582
(
(0 0 0)
(0 0 0)
(0 0 0)
(0 0 0)
(0 0 0)
(0 0 0)
(0 0 0)
(0 0 0)
(0 0 0)
(0 0 0)
(0 0 0)
(0 0 0)
(0 0 0)
(0 0 0)
(0 0 0)
(0 0 0)
(0 0 0)
(0 0 0)
(0 0 0)
(0 0 0)
(0 0 0)
(0 0 0)
(0 0 0)
(0 0 0)
(0 0 0)
(0 0 0)
(0 0 0)
(0 0 0)
(0 0 0)
(0 0 0)
(0 0 0)
(0 0 0)
(0 0 0)
(0 0 0)
(0 0 0)
(0 0 0)
(0 0 0)
(0 0 0)
(0 0 0)
(0 0 0)
(0 0 0)
(0 0 0)
(0 0 0)
(0 0 0)
(0 0 0)
(0 0 0)
(0 0 0)
(0 0 0)
(0 0 0)
(0 0 0)
(0 0 0)
(0 0 0)
(0 0 0)
(0 0 0)
(0 0 0)
(0 0 0)
(0 0 0)
(0 0 0)
(0 0 0)
(0 0 0)
(0 0 0)
(0 0 0)
(0 0 0)
(0 0 0)
(0 0 0)
(0 0 0)
(0 0 0)
(0 0 0)
(0 0 0)
(0 0 0)
(0 0 0)
(0 0 0)
(0 0 0)
(0 0 0)
(0 0 0)
(0 0 0)
(0 0 0)
(0 0 0)
(0 0 0)
(0 0 0)
(0 0 0)
(0 0 0)
(0 0 0)
(0 0 0)
(0 0 0)
(0 0 0)
(0 0 0)
(0 0 0)
(0 0 0)
(0 0 0)
(0 0 0)
(0 0 0)
(0 0 0)
(0 0 0)
(0 0 0)
(0 0 0)
(0 0 0)
(0 0 0)
(0 0 0)
(0 0 0)
(0 0 0)
(0 0 0)
(0 0 0)
(0 0 0)
(0 0 0)
(0 0 0)
(0 0 0)
(0 0 0)
(0 0 0)
(0 0 0)
(0 0 0)
(0 0 0)
(0 0 0)
(0 0 0)
(0 0 0)
(0 0 0)
(0 0 0)
(0 0 0)
(0 0 0)
(0 0 0)
(0 0 0)
(0 0 0)
(0 0 0)
(0 0 0)
(0 0 0)
(0 0 0)
(0 0 0)
(0 0 0)
(0 0 0)
(0 0 0)
(0 0 0)
(0 0 0)
(0 0 0)
(0 0 0)
(0 0 0)
(0 0 0)
(0 0 0)
(0 0 0)
(0 0 0)
(0 0 0)
(0 0 0)
(0 0 0)
(0 0 0)
(0 0 0)
(0 0 0)
(0 0 0)
(0 0 0)
(0 0 0)
(0 0 0)
(0 0 0)
(0 0 0)
(0 0 0)
(0 0 0)
(0 0 0)
(0 0 0)
(0 0 0)
(0 0 0)
(0 0 0)
(0 0 0)
(0 0 0)
(0 0 0)
(0 0 0)
(0 0 0)
(0 0 0)
(0 0 0)
(0 0 0)
(0 0 0)
(0 0 0)
(0 0 0)
(0 0 0)
(0 0 0)
(0 0 0)
(0 0 0)
(0 0 0)
(0 0 0)
(0 0 0)
(0 0 0)
(0 0 0)
(0 0 0)
(0 0 0)
(0 0 0)
(0 0 0)
(0 0 0)
(0 0 0)
(0 0 0)
(0 0 0)
(0 0 0)
(0 0 0)
(0 0 0)
(0 0 0)
(0 0 0)
(0 0 0)
(0 0 0)
(0 0 0)
(0 0 0)
(0 0 0)
(0 0 0)
(0 0 0)
(0 0 0)
(0 0 0)
(0 0 0)
(0 0 0)
(0 0 0)
(0 0 0)
(0 0 0)
(0 0 0)
(0 0 0)
(0 0 0)
(0 0 0)
(0 0 0)
(0 0 0)
(0 0 0)
(0 0 0)
(0 0 0)
(0 0 0)
(0 0 0)
(0 0 0)
(-0.00199604742288 3.53051787167e-05 0)
(0 0 0)
(0 0 0)
(0 0 0)
(0 0 0)
(-2.57734433084e-05 2.7007606111e-07 0)
(0 0 0)
(-2.60165250469e-06 2.70518277704e-08 0)
(0 0 0)
(0 0 0)
(0 0 0)
(0 0 0)
(0 0 0)
(0 0 0)
(0 0 0)
(0 0 0)
(0 0 0)
(0 0 0)
(0 0 0)
(0 0 0)
(-0.0367006135695 -0.00271928864671 0.00267004912043)
(0 0 0)
(0 0 0)
(0 0 0)
(-0.0296810511111 0.000625297361147 0)
(0 0 0)
(0 0 0)
(-0.143194329657 -0.01815117066 0.0159092334462)
(-1.28970143062 -0.199437895808 0.170450072511)
(-0.104989457207 -0.00202136164196 0.00312496441922)
(-2.13645025652 -0.219477841434 0.198010847809)
(-0.00600461927786 6.34067913505e-05 0)
(-0.0802142901782 0.00168989244305 0)
(0 0 0)
(0 0 0)
(0 0 0)
(0 0 0)
(0 0 0)
(-0.0160419917766 0.000460808216834 0)
(0 0 0)
(0 0 0)
(0 0 0)
(-0.0294495102225 0.000620419437311 0)
(0 0 0)
(0 0 0)
(0 0 0)
(0 0 0)
(0 0 0)
(0 0 0)
(0 0 0)
(0 0 0)
(-1.6209417448e-05 1.7041073268e-07 0)
(0 0 0)
(-9.96622384219e-06 1.04775604209e-07 0)
(-0.000139564805215 2.03457867557e-06 0)
(-0.000750827231039 1.09455752183e-05 0)
(-8.69648820586e-05 1.26777588581e-06 0)
(-0.000461476175182 6.72740942002e-06 0)
(0 0 0)
(0 0 0)
(-0.000213006185323 2.24490821186e-06 0)
(0 0 0)
(0 0 0)
(0 0 0)
(0 0 0)
(0 0 0)
(0 0 0)
(-0.00891847395829 0.000157745909926 0)
(-0.000435454238305 6.50319739559e-06 0)
(-0.00204835965101 3.62304536085e-05 0)
(-3.01591251392e-05 4.00061733075e-07 0)
(-0.000153733705917 2.241133209e-06 0)
(-3.79385853422e-06 3.94483150489e-08 0)
(-2.99174133974e-05 3.96855419302e-07 0)
(0 0 0)
(0 0 0)
(0 0 0)
(0 0 0)
(0 0 0)
(-0.000227010716486 2.39250433431e-06 0)
(0 0 0)
(0 0 0)
(0 0 0)
(0 0 0)
(0 0 0)
(0 0 0)
(0 0 0)
(0 0 0)
(0 0 0)
(0 0 0)
(0 0 0)
(0 0 0)
(0 0 0)
(0 0 0)
(0 0 0)
(0 0 0)
(0 0 0)
(0 0 0)
(0 0 0)
(0 0 0)
(-0.00521537660396 5.51444600462e-05 0)
(0 0 0)
(0 0 0)
(0 0 0)
(0 0 0)
(0 0 0)
(-0.00470957895018 4.97315942984e-05 0)
(0 0 0)
(0 0 0)
(0 0 0)
(0 0 0)
(0 0 0)
(0 0 0)
(0 0 0)
(0 0 0)
(0 0 0)
(0 0 0)
(0 0 0)
(0 0 0)
(0 0 0)
(0 0 0)
(0 0 0)
(0 0 0)
(0 0 0)
(0 0 0)
(0 0 0)
(0 0 0)
(0 0 0)
(0 0 0)
(-0.0412402425246 0.000189140713455 0.000566536800461)
(-0.00876042080391 0.00014513704449 0)
(-0.0144149319615 0.000238817365998 0)
(-0.0102979177208 0.000183566586847 0)
(-0.0193871207475 0.000462402053905 0)
(0 0 0)
(0 0 0)
(0 0 0)
(0 0 0)
(0 0 0)
(0 0 0)
(0 0 0)
(0 0 0)
(0 0 0)
(0 0 0)
(-0.00531107967857 5.60832428239e-05 0)
(0 0 0)
(-0.0080195734626 0.000142953727968 0)
(0 0 0)
(0 0 0)
(-0.778634353799 -0.108554655841 0.0937351777653)
(-0.548586826992 -0.075391134627 0.0653174463432)
(-0.477857349224 -0.0436814760895 0.0401522164205)
(-0.0430975487138 0.000907945725429 0)
(-2.36710860753 -0.369660329165 0.31521270282)
(-0.163976087482 -0.0170989173033 0.0154118276645)
(-0.165011726181 -0.00764343323209 0.00824779410953)
(-2.10388744557 -0.311622158504 0.267127897284)
(-10.5563161322 -1.67741644429 1.42752836497)
(-1.23101254195 -0.132038959909 0.11821681086)
(-0.830745873329 -0.0613063647108 0.058814580363)
(-6.32595679834 -1.01682351155 0.863986975072)
(-0.458584059337 -0.0346889884919 0.0330542162339)
(-3.54608511583 -0.516051859854 0.443533151544)
(-0.164588992379 -0.0154623773011 0.0142063698968)
(-0.00908719851278 0.000161984787625 0)
(-0.0203001822361 0.000427668492449 0)
(-0.0202639997041 0.000426906226932 0)
(-0.0248923605698 0.000593707482609 0)
(-0.0248924926556 0.000593710632986 0)
(-0.0487375395403 0.00102676467721 0)
(-0.467510374335 -0.053939252202 0.0478793450971)
(-0.131990581849 -0.00226454468656 0.00391946596374)
(-0.25432299367 -0.00517100752755 0.00780073447933)
(-0.0429197714685 0.000904200452327 0)
(-0.0578991817412 0.000558018932818 0.000586827101953)
(-0.126312213512 -0.0013533063901 0.00296226715028)
(-0.799431402678 -0.0882574406928 0.0789434176243)
(0 0 0)
(0 0 0)
(0 0 0)
(0 0 0)
(0 0 0)
(0 0 0)
(0 0 0)
(0 0 0)
(0 0 0)
(0 0 0)
(0 0 0)
(0 0 0)
(0 0 0)
(0 0 0)
(0 0 0)
(0 0 0)
(0 0 0)
(0 0 0)
(0 0 0)
(0 0 0)
(0 0 0)
(0 0 0)
(0 0 0)
(-0.00529178473384 5.58794945963e-05 0)
(0 0 0)
(-0.00801946258362 0.000142951751483 0)
(0 0 0)
(0 0 0)
(0 0 0)
(-0.0362206487848 0.000863898389555 0)
(-0.0143285985072 0.000237387048587 0)
(-0.00868909501206 0.000143955364425 0)
(-0.0193866023809 0.000462389690348 0)
(0 0 0)
(-0.0102976395222 0.000183561627789 0)
(0 0 0)
(0 0 0)
(0 0 0)
(0 0 0)
(0 0 0)
(0 0 0)
(0 0 0)
(0 0 0)
(0 0 0)
(0 0 0)
(0 0 0)
(0 0 0)
(0 0 0)
(0 0 0)
(0 0 0)
(0 0 0)
(0 0 0)
(0 0 0)
(0 0 0)
(0 0 0)
(0 0 0)
(0 0 0)
(0 0 0)
(0 0 0)
(0 0 0)
(0 0 0)
(0 0 0)
(0 0 0)
(0 0 0)
(0 0 0)
(0 0 0)
(0 0 0)
(0 0 0)
(0 0 0)
(0 0 0)
(0 0 0)
(-0.0150126333276 0.000276284373777 0)
(0 0 0)
(0 0 0)
(0 0 0)
(0 0 0)
(0 0 0)
(0 0 0)
(0 0 0)
(-0.00334976862446 6.16473277214e-05 0)
(0 0 0)
(0 0 0)
(0 0 0)
(0 0 0)
(0 0 0)
(0 0 0)
(0 0 0)
(0 0 0)
(0 0 0)
(0 0 0)
(0 0 0)
(0 0 0)
(0 0 0)
(0 0 0)
(0 0 0)
(0 0 0)
(0 0 0)
(0 0 0)
(0 0 0)
(0 0 0)
(0 0 0)
(0 0 0)
(0 0 0)
(0 0 0)
(0 0 0)
(0 0 0)
(0 0 0)
(-0.320856217008 0.00829528124162 0)
(-0.00770815127346 0.000141856641743 0)
(0 0 0)
(0 0 0)
(0 0 0)
(0 0 0)
(0 0 0)
(0 0 0)
(-0.0704569945083 0.00183874371687 0)
(0 0 0)
(0 0 0)
(0 0 0)
(0 0 0)
(0 0 0)
(0 0 0)
(0 0 0)
(0 0 0)
(0 0 0)
(0 0 0)
(0 0 0)
(0 0 0)
(0 0 0)
(0 0 0)
(0 0 0)
(0 0 0)
(0 0 0)
(0 0 0)
(0 0 0)
(0 0 0)
(0 0 0)
(0 0 0)
(0 0 0)
(0 0 0)
(0 0 0)
(0 0 0)
(0 0 0)
(-1.50737387981 0.0508442233539 0)
(-0.0429497479745 0.00147405905099 0)
(0 0 0)
(0 0 0)
(0 0 0)
(0 0 0)
(0 0 0)
(0 0 0)
(-0.330642847683 0.0110295372648 0)
(-0.00653549556048 0.000243806179698 0)
(0 0 0)
(0 0 0)
(0 0 0)
(0 0 0)
(0 0 0)
(0 0 0)
(0 0 0)
(0 0 0)
(0 0 0)
(0 0 0)
(0 0 0)
(0 0 0)
(0 0 0)
(0 0 0)
(0 0 0)
(0 0 0)
(0 0 0)
(0 0 0)
(0 0 0)
(0 0 0)
(0 0 0)
(0 0 0)
(0 0 0)
(0 0 0)
(0 0 0)
(0 0 0)
(0 0 0)
(0 0 0)
(0 0 0)
(0 0 0)
(0 0 0)
(0 0 0)
(0 0 0)
(-2.56371021933 0.0717551673472 0)
(-0.0774219357498 0.00216694691708 0)
(0 0 0)
(0 0 0)
(0 0 0)
(0 0 0)
(0 0 0)
(0 0 0)
(-2.58441551798 0.0685763454326 0.00267007148211)
(-0.572053243749 0.0160110826595 0)
(-0.016042178121 0.000460813569599 0)
(0 0 0)
(0 0 0)
(0 0 0)
(0 0 0)
(0 0 0)
(0 0 0)
(-0.0469564770612 0.0013142553492 0)
(-0.0774181881399 0.00216684202598 0)
(-0.0160420266696 0.000460809219139 0)
(0 0 0)
(0 0 0)
(0 0 0)
(0 0 0)
(0 0 0)
(0 0 0)
(0 0 0)
(0 0 0)
(0 0 0)
(0 0 0)
(0 0 0)
(0 0 0)
(0 0 0)
(0 0 0)
(0 0 0)
(0 0 0)
(0 0 0)
(0 0 0)
(0 0 0)
(0 0 0)
(0 0 0)
(0 0 0)
(0 0 0)
(0 0 0)
(0 0 0)
(0 0 0)
(-0.0450674039814 0.000797315077881 0)
(-0.00151235094176 2.67497754157e-05 0)
(0 0 0)
(0 0 0)
(0 0 0)
(0 0 0)
(0 0 0)
(0 0 0)
(-0.0245123480295 0.000433662979261 0)
(-0.0410779365649 0.000726734963588 0)
(-0.00972086804423 0.000171938291469 0)
(-0.000263884688812 2.78112536497e-06 0)
(0 0 0)
(0 0 0)
(0 0 0)
(0 0 0)
(0 0 0)
(0 0 0)
(-0.000721758881055 1.07789523275e-05 0)
(-0.00124079563866 2.19466287582e-05 0)
(-0.000228234028868 2.40539703039e-06 0)
(0 0 0)
(0 0 0)
(0 0 0)
(0 0 0)
(0 0 0)
(0 0 0)
(0 0 0)
(0 0 0)
(0 0 0)
(0 0 0)
(0 0 0)
(0 0 0)
(0 0 0)
(0 0 0)
(0 0 0)
(0 0 0)
(0 0 0)
(0 0 0)
(0 0 0)
(0 0 0)
(0 0 0)
(0 0 0)
(0 0 0)
(0 0 0)
(0 0 0)
(0 0 0)
(-0.000198011267366 2.32159354395e-06 0)
(-0.000194775822926 2.28365940503e-06 0)
(-2.51892021807e-05 2.63953885636e-07 0)
(0 0 0)
(0 0 0)
(0 0 0)
(0 0 0)
(0 0 0)
(0 0 0)
(0 0 0)
(-2.54844842633e-05 2.67048102455e-07 0)
(-2.5226206322e-05 2.64341646503e-07 0)
(-2.57223614765e-06 2.67459582422e-08 0)
(0 0 0)
(0 0 0)
(0 0 0)
(0 0 0)
(0 0 0)
(0 0 0)
(0 0 0)
(0 0 0)
(0 0 0)
(0 0 0)
(0 0 0)
(0 0 0)
(0 0 0)
(0 0 0)
(0 0 0)
(0 0 0)
(0 0 0)
(0 0 0)
(0 0 0)
(0 0 0)
(0 0 0)
(0 0 0)
(0 0 0)
(0 0 0)
(0 0 0)
(0 0 0)
(0 0 0)
(0 0 0)
(0 0 0)
(0 0 0)
(0 0 0)
(0 0 0)
(0 0 0)
(0 0 0)
(0 0 0)
(0 0 0)
(-0.00334977873402 6.16475137722e-05 0)
(-0.00910561222862 0.000167574756377 0)
(-0.00203173552583 3.73909603456e-05 0)
(-0.0864918687517 0.00192752925823 0)
(-0.0177357445519 0.000326399038067 0)
(-0.0524600330872 0.00116910699378 0)
(-0.0107571258499 0.000197968318697 0)
(0 0 0)
(0 0 0)
(0 0 0)
(-0.00240030634509 4.41739381063e-05 0)
(0 0 0)
(0 0 0)
(0 0 0)
(0 0 0)
(0 0 0)
(0 0 0)
(-0.017735356781 0.000326391901741 0)
(-0.00395729291734 7.28278758071e-05 0)
(-0.00395728024395 7.28276425729e-05 0)
(0 0 0)
(0 0 0)
(0 0 0)
(0 0 0)
(0 0 0)
(0 0 0)
(0 0 0)
(0 0 0)
(-0.0704588537384 0.00183879223792 0)
(-0.194607250822 0.00503129374359 0)
(-0.0427347951086 0.00111526664664 0)
(-0.798928331375 0.0240488111098 0)
(-0.176143276363 0.0053440649465 0)
(-0.484575201234 0.0145863615363 0)
(-0.106835997235 0.0032413301242 0)
(0 0 0)
(-0.00467515913802 8.60390969771e-05 0)
(0 0 0)
(-0.0227031800318 0.000711072869651 0)
(0 0 0)
(-0.0121517586539 0.000369570848382 0)
(0 0 0)
(-0.0148903004961 0.000378597085967 0)
(-0.0148901880599 0.000378594227192 0)
(-0.00283552372743 5.2183443122e-05 0)
(-0.176138726278 0.00534392690009 0)
(-0.0374297071606 0.00117231371304 0)
(-0.0374292259156 0.00117229864025 0)
(-0.00737007691681 0.000224145792914 0)
(0 0 0)
(0 0 0)
(0 0 0)
(-0.00334985310395 6.16488824362e-05 0)
(0 0 0)
(0 0 0)
(0 0 0)
(-0.330653613593 0.0110298963925 0)
(-0.898782043978 0.0299814440761 0)
(-0.200551248385 0.00668996012785 0)
(-2.21732912082 0.072910885094 0)
(-0.489077625051 0.0159540068802 0)
(-1.32938687796 0.043365401137 0)
(-0.296639551643 0.00967656094953 0)
(0 0 0)
(-0.0260500577098 0.000894052355527 0)
(0 0 0)
(-0.0661920412602 0.00215922427768 0)
(0 0 0)
(-0.0401474388764 0.0013096336517 0)
(0 0 0)
(-0.0737774625904 0.00246105814368 0)
(-0.0737769394726 0.00246104069359 0)
(-0.0139269451318 0.000522157755171 0)
(-0.489073159139 0.0159538611995 0)
(-0.109128626422 0.00355984156214 0)
(-0.109127354753 0.00355980007951 0)
(-0.0243496427552 0.000794300021406 0)
(0 0 0)
(0 0 0)
(0 0 0)
(-0.0132448079978 0.000465928806809 0)
(0 0 0)
(0 0 0)
(0 0 0)
(-7.15754223242 0.205492726635 0)
(-4.25241896727 0.119718668515 0)
(-4.34952409744 0.0914510075031 0)
(-2.06226056378 0.0433601014885 0)
(-0.572056019733 0.0160111603559 0)
(-1.55499498414 0.043522440434 0)
(-0.346971655476 0.00971131956164 0)
(-2.63613142346 0.0554260349375 0)
(-0.277914565386 0.00584329835517 0)
(-1.25010171006 0.0262840389673 0)
(-0.131528174707 0.0027654483163 0)
(0 0 0)
(-0.0469582753949 0.0013143056824 0)
(0 0 0)
(-0.100626451728 0.00211992002882 0)
(0 0 0)
(-0.0476309511874 0.00100345193217 0)
(0 0 0)
(0 0 0)
(0 0 0)
(0 0 0)
(0 0 0)
(0 0 0)
(0 0 0)
(0 0 0)
(0 0 0)
(0 0 0)
(0 0 0)
(0 0 0)
(0 0 0)
(0 0 0)
(0 0 0)
(0 0 0)
(0 0 0)
(0 0 0)
(0 0 0)
(0 0 0)
(0 0 0)
(0 0 0)
(0 0 0)
(0 0 0)
(0 0 0)
(0 0 0)
(0 0 0)
(0 0 0)
(0 0 0)
(0 0 0)
(0 0 0)
(0 0 0)
(0 0 0)
(0 0 0)
(0 0 0)
(0 0 0)
(0 0 0)
(0 0 0)
(0 0 0)
(0 0 0)
(0 0 0)
(0 0 0)
(0 0 0)
(-1.50902711097 -0.193299646662 0.170450371393)
(-0.686764266617 -0.00293744613929 0.0159093372772)
(-2.63674952839 -0.20851678814 0.197679827887)
(-2.70220975354 0.0526413552163 0.00308200914625)
(-0.134324196904 0.00282423613796 0)
(-0.283161144102 0.00595361040283 0)
(-1.55500037999 0.0435225914572 0)
(-0.572050946694 0.0160110183677 0)
(-0.346966847931 0.00971118500425 0)
(-2.66792774249 0.0560945690908 0)
(-1.25371984964 0.0263601122346 0)
(-0.282424108261 0.00593811384073 0)
(-0.132707632494 0.00279024703004 0)
(-0.127642376279 0.00357255668033 0)
(-0.127642125562 0.00357254966305 0)
(-0.0284808390071 0.000797144448594 0)
(-0.759525457669 0.0159694179805 0)
(-0.0786068605739 0.00165602836304 0)
(-0.0791523033247 0.00166751932781 0)
(-0.00592967577632 6.26154127893e-05 0)
(0 0 0)
(0 0 0)
(0 0 0)
(-0.0289240779115 0.000609350036962 0)
(0 0 0)
(0 0 0)
(0 0 0)
(0 0 0)
(0 0 0)
(0 0 0)
(0 0 0)
(0 0 0)
(0 0 0)
(0 0 0)
(0 0 0)
(0 0 0)
(0 0 0)
(0 0 0)
(0 0 0)
(0 0 0)
(0 0 0)
(0 0 0)
(0 0 0)
(0 0 0)
(0 0 0)
(0 0 0)
(0 0 0)
(0 0 0)
(0 0 0)
(0 0 0)
(0 0 0)
(0 0 0)
(0 0 0)
(0 0 0)
(0 0 0)
(0 0 0)
(0 0 0)
(0 0 0)
(0 0 0)
(0 0 0)
(0 0 0)
(0 0 0)
(0 0 0)
(0 0 0)
(0 0 0)
(0 0 0)
(0 0 0)
(0 0 0)
(0 0 0)
(-0.0774182087398 0.00216684260255 0)
(0 0 0)
(0 0 0)
(-0.0485561917636 0.00102294418292 0)
(-0.102565717441 0.00216077497457 0)
(0 0 0)
(0 0 0)
(-0.0469565307999 0.00131425685328 0)
(0 0 0)
(0 0 0)
(-0.10239493926 0.00215717715232 0)
(-0.0481029351636 0.00101339532446 0)
(0 0 0)
(0 0 0)
(0 0 0)
(0 0 0)
(0 0 0)
(-0.0291620945215 0.000614364386272 0)
(0 0 0)
(0 0 0)
(0 0 0)
(0 0 0)
(0 0 0)
(0 0 0)
(0 0 0)
(0 0 0)
(0 0 0)
(0 0 0)
(0 0 0)
(0 0 0)
(0 0 0)
(0 0 0)
(0 0 0)
(0 0 0)
(0 0 0)
(0 0 0)
(0 0 0)
(0 0 0)
(0 0 0)
(0 0 0)
(0 0 0)
(0 0 0)
(0 0 0)
(0 0 0)
(0 0 0)
(0 0 0)
(0 0 0)
(0 0 0)
(0 0 0)
(0 0 0)
(0 0 0)
(0 0 0)
(0 0 0)
(0 0 0)
(0 0 0)
(0 0 0)
(0 0 0)
(0 0 0)
(0 0 0)
(0 0 0)
(0 0 0)
(0 0 0)
(0 0 0)
(0 0 0)
(0 0 0)
(0 0 0)
(0 0 0)
(0 0 0)
(0 0 0)
(0 0 0)
(0 0 0)
(0 0 0)
(0 0 0)
(0 0 0)
(0 0 0)
(0 0 0)
(0 0 0)
(0 0 0)
(0 0 0)
(0 0 0)
(0 0 0)
(0 0 0)
(0 0 0)
(0 0 0)
(0 0 0)
(0 0 0)
(0 0 0)
(0 0 0)
(0 0 0)
(0 0 0)
(0 0 0)
(0 0 0)
(0 0 0)
(0 0 0)
(0 0 0)
(0 0 0)
(0 0 0)
(0 0 0)
(0 0 0)
(0 0 0)
(0 0 0)
(0 0 0)
(0 0 0)
(0 0 0)
(0 0 0)
(0 0 0)
(0 0 0)
(0 0 0)
(0 0 0)
(0 0 0)
(0 0 0)
(0 0 0)
(0 0 0)
(0 0 0)
(0 0 0)
(0 0 0)
(0 0 0)
(0 0 0)
(0 0 0)
(0 0 0)
(0 0 0)
(0 0 0)
(0 0 0)
(0 0 0)
(0 0 0)
(0 0 0)
(0 0 0)
(0 0 0)
(0 0 0)
(0 0 0)
(0 0 0)
(0 0 0)
(0 0 0)
(0 0 0)
(0 0 0)
(0 0 0)
(0 0 0)
(0 0 0)
(0 0 0)
(0 0 0)
(0 0 0)
(0 0 0)
(0 0 0)
(0 0 0)
(0 0 0)
(0 0 0)
(0 0 0)
(0 0 0)
(0 0 0)
(0 0 0)
(0 0 0)
(0 0 0)
(0 0 0)
(0 0 0)
(0 0 0)
(0 0 0)
(0 0 0)
(0 0 0)
(0 0 0)
(0 0 0)
(0 0 0)
(0 0 0)
(0 0 0)
(0 0 0)
(0 0 0)
(0 0 0)
(0 0 0)
(0 0 0)
(0 0 0)
(0 0 0)
(0 0 0)
(0 0 0)
(0 0 0)
(0 0 0)
(0 0 0)
(0 0 0)
(0 0 0)
(0 0 0)
(0 0 0)
(0 0 0)
(0 0 0)
(0 0 0)
(0 0 0)
(0 0 0)
(0 0 0)
(0 0 0)
(0 0 0)
(0 0 0)
(0 0 0)
(0 0 0)
(0 0 0)
(-0.00212956133741 3.10558154495e-05 0)
(-0.00336346718974 4.90501092785e-05 0)
(-0.00130430297345 1.90141562707e-05 0)
(-0.00200578665597 2.92507847154e-05 0)
(-0.114455655296 0.00202490517878 0)
(-0.0684349252447 0.00121072422485 0)
(-0.00291895492897 4.25676987965e-05 0)
(-0.00154738224108 2.2565782194e-05 0)
(-0.00172634367662 2.51756123112e-05 0)
(-0.0009482118684 1.3823052627e-05 0)
(-0.0105627189604 0.000186828567475 0)
(-0.0270293413126 0.000478192650781 0)
(-0.00639094630383 0.000113040150669 0)
(-0.000570109200602 8.31106395702e-06 0)
(-0.000137480338429 2.00419127477e-06 0)
(-0.000344704554906 5.02511027548e-06 0)
(-8.04749735984e-05 1.17316586333e-06 0)
(0 0 0)
(-0.000866304324691 1.29376350774e-05 0)
(0 0 0)
(-1.8774459181e-05 1.97377194767e-07 0)
(0 0 0)
(-1.12336497834e-05 1.18100141254e-07 0)
(0 0 0)
(0 0 0)
(0 0 0)
(0 0 0)
(0 0 0)
(0 0 0)
(0 0 0)
(0 0 0)
(0 0 0)
(0 0 0)
(0 0 0)
(0 0 0)
(0 0 0)
(0 0 0)
(0 0 0)
(0 0 0)
(0 0 0)
(0 0 0)
(0 0 0)
(0 0 0)
(0 0 0)
(0 0 0)
(0 0 0)
(0 0 0)
(0 0 0)
(0 0 0)
(0 0 0)
(0 0 0)
(0 0 0)
(0 0 0)
(0 0 0)
(0 0 0)
(0 0 0)
(0 0 0)
(0 0 0)
(0 0 0)
(0 0 0)
(0 0 0)
(0 0 0)
(0 0 0)
(0 0 0)
(0 0 0)
(0 0 0)
(-0.04032592131 0.000713430600599 0)
(-0.0054902971715 9.71098785657e-05 0)
(-0.00907406959163 0.0001604980147 0)
(-0.000450309824088 6.56462611815e-06 0)
(-0.000697409385099 1.01668487329e-05 0)
(-9.22158415706e-05 1.34432448439e-06 0)
(-0.00015520130355 2.26252787827e-06 0)
(-0.0249930708852 0.000442167742067 0)
(-0.00917255660941 0.000162240008264 0)
(-0.00563052087927 9.95900917141e-05 0)
(-0.000635018154023 9.25730804972e-06 0)
(-0.000361003359824 5.26271459753e-06 0)
(-0.000148228613147 2.16087985043e-06 0)
(-8.410363094e-05 1.22606450663e-06 0)
(-0.00231055513509 4.08680480453e-05 0)
(-0.00213538162294 3.77696586573e-05 0)
(-0.000471929536669 7.04792987137e-06 0)
(-0.000126698272037 1.84701008339e-06 0)
(-2.74187970213e-05 3.63711195353e-07 0)
(-2.83514711996e-05 3.76083147339e-07 0)
(-3.59439871462e-06 3.73743437261e-08 0)
(0 0 0)
(0 0 0)
(0 0 0)
(0 0 0)
(0 0 0)
(0 0 0)
(0 0 0)
(0 0 0)
(0 0 0)
(0 0 0)
(0 0 0)
(0 0 0)
(0 0 0)
(0 0 0)
(0 0 0)
(0 0 0)
(0 0 0)
(0 0 0)
(0 0 0)
(0 0 0)
(0 0 0)
(0 0 0)
(0 0 0)
(0 0 0)
(0 0 0)
(0 0 0)
(0 0 0)
(0 0 0)
(0 0 0)
(0 0 0)
(0 0 0)
(0 0 0)
(0 0 0)
(0 0 0)
(0 0 0)
(0 0 0)
(0 0 0)
(0 0 0)
(0 0 0)
(0 0 0)
(0 0 0)
(0 0 0)
(0 0 0)
(0 0 0)
(0 0 0)
(0 0 0)
(0 0 0)
(0 0 0)
(0 0 0)
(-0.0012449045277 2.20193049181e-05 0)
(0 0 0)
(0 0 0)
(-1.01255546435e-05 1.06450660002e-07 0)
(-1.84716007799e-05 1.94193223338e-07 0)
(0 0 0)
(0 0 0)
(-0.00072318789219 1.08002935861e-05 0)
(0 0 0)
(0 0 0)
(-1.79149694035e-05 1.88341318975e-07 0)
(-1.01756414342e-05 1.06977225915e-07 0)
(0 0 0)
(0 0 0)
(0 0 0)
(0 0 0)
(0 0 0)
(0 0 0)
(0 0 0)
(0 0 0)
(0 0 0)
(0 0 0)
(0 0 0)
(0 0 0)
(0 0 0)
(0 0 0)
(0 0 0)
(0 0 0)
(0 0 0)
(0 0 0)
(0 0 0)
(0 0 0)
(0 0 0)
(0 0 0)
(0 0 0)
(0 0 0)
(0 0 0)
(0 0 0)
(0 0 0)
(0 0 0)
(0 0 0)
(0 0 0)
(0 0 0)
(0 0 0)
(0 0 0)
(0 0 0)
(0 0 0)
(0 0 0)
(0 0 0)
(0 0 0)
(0 0 0)
(0 0 0)
(0 0 0)
(0 0 0)
(0 0 0)
(0 0 0)
(0 0 0)
(0 0 0)
(0 0 0)
(0 0 0)
(0 0 0)
(0 0 0)
(0 0 0)
(0 0 0)
(0 0 0)
(0 0 0)
(0 0 0)
(0 0 0)
(0 0 0)
(0 0 0)
(0 0 0)
(0 0 0)
(0 0 0)
(0 0 0)
(0 0 0)
(0 0 0)
(0 0 0)
(0 0 0)
(0 0 0)
(0 0 0)
(0 0 0)
(0 0 0)
(0 0 0)
(0 0 0)
(0 0 0)
(0 0 0)
(0 0 0)
(0 0 0)
(0 0 0)
(0 0 0)
(0 0 0)
(0 0 0)
(0 0 0)
(0 0 0)
(0 0 0)
(0 0 0)
(0 0 0)
(0 0 0)
(0 0 0)
(0 0 0)
(0 0 0)
(0 0 0)
(0 0 0)
(0 0 0)
(0 0 0)
(0 0 0)
(0 0 0)
(0 0 0)
(0 0 0)
(0 0 0)
(0 0 0)
(0 0 0)
(0 0 0)
(0 0 0)
(0 0 0)
(0 0 0)
(0 0 0)
(0 0 0)
(0 0 0)
(0 0 0)
(0 0 0)
(0 0 0)
(0 0 0)
(0 0 0)
(0 0 0)
(0 0 0)
(0 0 0)
(0 0 0)
(0 0 0)
(0 0 0)
(0 0 0)
(0 0 0)
(0 0 0)
(0 0 0)
(0 0 0)
(0 0 0)
(0 0 0)
(0 0 0)
(0 0 0)
(0 0 0)
(0 0 0)
(0 0 0)
(0 0 0)
(0 0 0)
(0 0 0)
(0 0 0)
(0 0 0)
(0 0 0)
(0 0 0)
(0 0 0)
(0 0 0)
(0 0 0)
(0 0 0)
(0 0 0)
(0 0 0)
(0 0 0)
(0 0 0)
(0 0 0)
(0 0 0)
(0 0 0)
(0 0 0)
(0 0 0)
(0 0 0)
(0 0 0)
(0 0 0)
(0 0 0)
(0 0 0)
(0 0 0)
(0 0 0)
(0 0 0)
(0 0 0)
(0 0 0)
(0 0 0)
(0 0 0)
(0 0 0)
(0 0 0)
(0 0 0)
(0 0 0)
(0 0 0)
(0 0 0)
(0 0 0)
(0 0 0)
(0 0 0)
(0 0 0)
(0 0 0)
(0 0 0)
(0 0 0)
(0 0 0)
(0 0 0)
(0 0 0)
(0 0 0)
(0 0 0)
(0 0 0)
(0 0 0)
(0 0 0)
(0 0 0)
(-7.13028337272 0.169436843145 0)
(-5.54030066723 0.131248570524 0)
(-6.33455841946 0.133187387073 0)
(-3.84220365741 0.0807843312579 0)
(-4.88924924149 0.115825297656 0)
(-5.59504277547 0.117638685837 0)
(-8.08830739267 0.19247082359 0)
(-5.5401504609 0.131245012168 0)
(-2.61704506687 0.0619972533363 0)
(-2.99694861787 0.0630124042077 0)
(-3.0003754256 0.0630844546235 0)
(-3.80771262014 0.0902039200358 0)
(-3.80762348633 0.0902018084744 0)
(-4.36049265368 0.0916816271058 0)
(-1.58727322535 0.0376021725845 0)
(-3.36031362715 0.0796051309429 0)
(-1.41121503947 0.0296715305565 0)
(-2.32724188828 0.0489314717241 0)
(-2.96547462203 0.0702514770308 0)
(-1.2453997583 0.0261851779847 0)
(-1.79858127911 0.0426080164299 0)
(-0.749740365979 0.0177611933376 0)
(-0.354136551569 0.00838942125268 0)
(-0.666605393003 0.0140157252682 0)
(-0.24529740913 0.00515750567195 0)
(-0.312525580688 0.00740366600684 0)
(-0.588259287485 0.0123684576309 0)
(-0.849552734699 0.0201257275935 0)
(-1.23614084853 0.0292839196067 0)
(-1.58733478266 0.0376036308644 0)
(-1.81501435881 0.0381616213699 0)
(-0.668283074827 0.0140509994016 0)
(-2.30949505745 0.0547114575778 0)
(-0.84961639127 0.0201272356044 0)
(-0.97080924819 0.0204117696216 0)
(-0.583879616873 0.0138319866873 0)
(-0.167281240917 0.00396285780586 0)
(-0.191193534832 0.00401994356089 0)
(-0.315503421214 0.006633623609 0)
(-0.243389405618 0.0057658443985 0)
(-0.40130309865 0.00950678694324 0)
(-0.458550748372 0.00964126809979 0)
(-0.0362209973484 0.000863906703142 0)
(-0.13027848137 0.0030862701281 0)
(-0.0326546666755 0.000687943187216 0)
(-0.088844966005 0.00187171682654 0)
(-0.114971952018 0.00272366163121 0)
(-0.0288204823306 0.000607167565623 0)
(-0.0410439046254 0.000978937824046 0)
(-0.00908766274537 0.000161993062851 0)
(0 0 0)
(-0.00849134866275 0.000140679229483 0)
(0 0 0)
(0 0 0)
(-0.00585791207906 6.18576119082e-05 0)
(-0.0102978509119 0.000183565395937 0)
(-0.0282087301257 0.000672806184997 0)
(-0.0615382980308 0.0014578294815 0)
(-0.0692529992308 0.00145896846808 0)
(-0.0140562942865 0.000232875686555 0)
(-0.0895385750674 0.00212115022095 0)
(-0.0193873971159 0.000462408645564 0)
(-0.0224596533575 0.000473162554928 0)
(-0.00521526363298 5.51432655546e-05 0)
(0 0 0)
(0 0 0)
(0 0 0)
(0 0 0)
(0 0 0)
(-0.00456070849358 4.81595715701e-05 0)
(0 0 0)
(0 0 0)
(0 0 0)
(0 0 0)
(0 0 0)
(0 0 0)
(0 0 0)
(0 0 0)
(0 0 0)
(0 0 0)
(0 0 0)
(0 0 0)
(0 0 0)
(0 0 0)
(0 0 0)
(0 0 0)
(0 0 0)
(0 0 0)
(0 0 0)
(0 0 0)
(0 0 0)
(0 0 0)
(0 0 0)
(0 0 0)
(0 0 0)
(0 0 0)
(0 0 0)
(0 0 0)
(0 0 0)
(0 0 0)
(0 0 0)
(0 0 0)
(0 0 0)
(0 0 0)
(0 0 0)
(0 0 0)
(0 0 0)
(0 0 0)
(0 0 0)
(0 0 0)
(0 0 0)
(0 0 0)
(0 0 0)
(0 0 0)
(0 0 0)
(0 0 0)
(0 0 0)
(0 0 0)
(0 0 0)
(0 0 0)
(0 0 0)
(0 0 0)
(0 0 0)
(0 0 0)
(0 0 0)
(0 0 0)
(0 0 0)
(0 0 0)
(0 0 0)
(0 0 0)
(0 0 0)
(0 0 0)
(0 0 0)
(0 0 0)
(0 0 0)
(0 0 0)
(0 0 0)
(0 0 0)
(0 0 0)
(0 0 0)
(0 0 0)
(0 0 0)
(0 0 0)
(0 0 0)
(0 0 0)
(0 0 0)
(0 0 0)
(0 0 0)
(0 0 0)
(0 0 0)
(0 0 0)
(0 0 0)
(0 0 0)
(0 0 0)
(0 0 0)
(0 0 0)
(0 0 0)
(0 0 0)
(0 0 0)
(0 0 0)
(0 0 0)
(0 0 0)
(0 0 0)
(0 0 0)
(0 0 0)
(0 0 0)
(0 0 0)
(0 0 0)
(0 0 0)
(0 0 0)
(0 0 0)
(0 0 0)
(0 0 0)
(0 0 0)
(0 0 0)
(0 0 0)
(0 0 0)
(0 0 0)
(0 0 0)
(0 0 0)
(0 0 0)
(0 0 0)
(0 0 0)
(0 0 0)
(0 0 0)
(0 0 0)
(0 0 0)
(0 0 0)
(0 0 0)
(0 0 0)
(0 0 0)
(0 0 0)
(0 0 0)
(0 0 0)
(0 0 0)
(0 0 0)
(0 0 0)
(0 0 0)
(0 0 0)
(0 0 0)
(0 0 0)
(0 0 0)
(0 0 0)
(0 0 0)
(0 0 0)
(0 0 0)
(0 0 0)
(0 0 0)
(0 0 0)
(0 0 0)
(0 0 0)
(0 0 0)
(0 0 0)
(0 0 0)
(0 0 0)
(0 0 0)
(0 0 0)
(0 0 0)
(0 0 0)
(0 0 0)
(0 0 0)
(0 0 0)
(0 0 0)
(0 0 0)
(0 0 0)
(0 0 0)
(0 0 0)
(0 0 0)
(0 0 0)
(0 0 0)
(0 0 0)
(0 0 0)
(0 0 0)
(0 0 0)
(0 0 0)
(0 0 0)
(0 0 0)
(0 0 0)
(-3.0642540329 -0.288878481849 0.267133224178)
(-11.1809007881 -1.66262914262 1.42753501489)
(-2.66840891873 -0.101036578407 0.117632638803)
(-1.09896340517 -0.0555561119218 0.0587318240098)
(-8.12031128436 -0.974354331579 0.864015637741)
(-1.22904558286 -0.018330713919 0.0329357216136)
(-3.88040343917 -0.508136249178 0.443536345319)
(-2.23558259793 -0.0740440467827 0.0937382716274)
(-3.80736662817 0.00180234962736 0.065322125257)
(-2.6539336007 0.00259779864608 0.039759024995)
(-1.43496513491 0.0301708886718 0)
(-5.08927743086 -0.305202189101 0.315234524589)
(-1.909783901 0.0242495119529 0.0154124879924)
(-1.33346024747 0.0169914993148 0.00819437056847)
(-0.921153460577 -0.0431962799607 0.0478820980047)
(-0.19781357064 -0.00070525848482 0.00391949992335)
(-0.381267733435 -0.00249725086643 0.0077972655149)
(-0.195336980286 0.00410706165768 0)
(-0.248598515104 0.00506710990697 0.000586856631576)
(-0.492153113907 0.00634205401315 0.00295660572267)
(-0.957355447552 -0.0845187764023 0.0789452760246)
(-0.852795505202 0.000839249953415 0.0142077213814)
(-0.354119114865 0.0083890081808 0)
(-0.677904060022 0.0142532856217 0)
(-0.250517701189 0.00526726502896 0)
(-0.849530677757 0.0201252050691 0)
(-0.312520724429 0.00740355096307 0)
(-0.600706967198 0.0126301765742 0)
(-1.58713834376 0.0375989772677 0)
(-3.36514364476 0.0789258320332 0.000566572633839)
(-2.34613555877 0.0493287209776 0)
(-1.42884307482 0.0300421691728 0)
(-2.9652461912 0.070246065552 0)
(-1.79842543881 0.0426043246055 0)
(-1.25800126793 0.0264501312822 0)
(-1.23608569029 0.0292826129195 0)
(-1.58729127361 0.0376026001441 0)
(-1.82423898777 0.0383555739939 0)
(-0.672535110302 0.01414040066 0)
(-2.30937472628 0.0547086069575 0)
(-0.849571934906 0.0201261824424 0)
(-0.978935799687 0.0205826345956 0)
(-0.749679767566 0.0177597577738 0)
(-0.354117092197 0.00838896026422 0)
(-0.675456868229 0.0142018321409 0)
(-0.248509114471 0.00522503344801 0)
(-0.84949665287 0.0201243990266 0)
(-0.312508987647 0.00740327292116 0)
(-0.594972738149 0.0125096114245 0)
(-0.583864371329 0.0138316255236 0)
(-0.167275902854 0.00396273134825 0)
(-0.317942449609 0.00668490545019 0)
(-0.193254174219 0.00406326957631 0)
(-0.401289676268 0.0095064689698 0)
(-0.243382967001 0.00576569186902 0)
(-0.463018176653 0.00973519810411 0)
(-0.275799966012 0.00653364383343 0)
(-0.962744001748 0.0228072051681 0)
(-0.405704668827 0.00853015177794 0)
(-0.407448735894 0.00856682169558 0)
(-0.515295197599 0.0122072360591 0)
(-0.515290706185 0.0122071296584 0)
(-0.217628550675 0.00457575352495 0)
(-0.130271600059 0.00308610711126 0)
(-0.101454152899 0.00240342778155 0)
(-0.191549731988 0.00402743279146 0)
(-0.0421396380998 0.000887765207667 0)
(-0.243382698472 0.00576568550762 0)
(-0.0526966703738 0.00125686784191 0)
(-0.101089968353 0.00212968503752 0)
(-0.130273751419 0.00308615807654 0)
(-0.101458352565 0.00240352727077 0)
(-0.192733162678 0.00405231503752 0)
(-0.0423562658724 0.000892328953541 0)
(-0.243391837195 0.00576590200205 0)
(-0.0526997221966 0.00125694063091 0)
(-0.10141113857 0.00213645120253 0)
(-0.0615343820317 0.0014577367123 0)
(-0.00908774456967 0.000161994521418 0)
(-0.0199493143619 0.000420276680244 0)
(-0.0200040428967 0.000421429658563 0)
(-0.0248922186607 0.000593704097935 0)
(-0.0248934849356 0.000593734299848 0)
(-0.0478584650886 0.00100824501856 0)
(0 0 0)
(-0.0362185580553 0.000863848523583 0)
(-0.00854381958894 0.000141548534203 0)
(-0.0141025015245 0.000233641218499 0)
(-0.0102974839544 0.000183558854699 0)
(-0.0193862679778 0.000462381714501 0)
(0 0 0)
(0 0 0)
(0 0 0)
(0 0 0)
(0 0 0)
(0 0 0)
(0 0 0)
(0 0 0)
(0 0 0)
(0 0 0)
(-0.00522164236747 5.51388144327e-05 0)
(0 0 0)
(-0.00801957755421 0.000142953800903 0)
(0 0 0)
(0 0 0)
(0 0 0)
(0 0 0)
(0 0 0)
(0 0 0)
(0 0 0)
(0 0 0)
(0 0 0)
(0 0 0)
(0 0 0)
(0 0 0)
(0 0 0)
(0 0 0)
(0 0 0)
(0 0 0)
(0 0 0)
(0 0 0)
(0 0 0)
(0 0 0)
(0 0 0)
(0 0 0)
(0 0 0)
(0 0 0)
(0 0 0)
(0 0 0)
(0 0 0)
(0 0 0)
(0 0 0)
(0 0 0)
(0 0 0)
(0 0 0)
(0 0 0)
(0 0 0)
(0 0 0)
(0 0 0)
(0 0 0)
(0 0 0)
(0 0 0)
(0 0 0)
(0 0 0)
(0 0 0)
(0 0 0)
(0 0 0)
(0 0 0)
(0 0 0)
(0 0 0)
(0 0 0)
(0 0 0)
(0 0 0)
(0 0 0)
(0 0 0)
(0 0 0)
(0 0 0)
(0 0 0)
(0 0 0)
(0 0 0)
(0 0 0)
(0 0 0)
(0 0 0)
(0 0 0)
(0 0 0)
(0 0 0)
(0 0 0)
(0 0 0)
(0 0 0)
(0 0 0)
(0 0 0)
(0 0 0)
(0 0 0)
(0 0 0)
(0 0 0)
(0 0 0)
(0 0 0)
(0 0 0)
(0 0 0)
(0 0 0)
(0 0 0)
(0 0 0)
(0 0 0)
(0 0 0)
(0 0 0)
(0 0 0)
(0 0 0)
(0 0 0)
(0 0 0)
(0 0 0)
(0 0 0)
(0 0 0)
(0 0 0)
(0 0 0)
(0 0 0)
(0 0 0)
(0 0 0)
(0 0 0)
(0 0 0)
(0 0 0)
(0 0 0)
(0 0 0)
(0 0 0)
(0 0 0)
(0 0 0)
(0 0 0)
(0 0 0)
(0 0 0)
(0 0 0)
(0 0 0)
(0 0 0)
(0 0 0)
(0 0 0)
(0 0 0)
(0 0 0)
(0 0 0)
(0 0 0)
(0 0 0)
(0 0 0)
(0 0 0)
(0 0 0)
(0 0 0)
(0 0 0)
(0 0 0)
(0 0 0)
(0 0 0)
(0 0 0)
(0 0 0)
(0 0 0)
(0 0 0)
(0 0 0)
(0 0 0)
(0 0 0)
(0 0 0)
(0 0 0)
(0 0 0)
(0 0 0)
(0 0 0)
(0 0 0)
(0 0 0)
(0 0 0)
(0 0 0)
(0 0 0)
(0 0 0)
(0 0 0)
(0 0 0)
(0 0 0)
(0 0 0)
(0 0 0)
(0 0 0)
(0 0 0)
(0 0 0)
(0 0 0)
(0 0 0)
(0 0 0)
(0 0 0)
(0 0 0)
(0 0 0)
(0 0 0)
(0 0 0)
(0 0 0)
(0 0 0)
(0 0 0)
(0 0 0)
(0 0 0)
(0 0 0)
(0 0 0)
(0 0 0)
(0 0 0)
(0 0 0)
(0 0 0)
(0 0 0)
(0 0 0)
(0 0 0)
(0 0 0)
(0 0 0)
(0 0 0)
(0 0 0)
(0 0 0)
(0 0 0)
(-0.0282086892835 0.00067280521087 0)
(-0.0615401698852 0.00145787382534 0)
(-0.0706316733648 0.00148801330529 0)
(-0.0143269476919 0.000237359698935 0)
(-0.0895404286744 0.00212119413251 0)
(-0.0229175407283 0.000482808970872 0)
(-0.0193874118986 0.000462408998146 0)
(-0.0362204648364 0.000863894002204 0)
(-0.13027502705 0.00308618829597 0)
(-0.0906121471437 0.00190894642796 0)
(-0.0333114935012 0.000701780705277 0)
(-0.114970939871 0.00272363765367 0)
(-0.0410426103128 0.000978906953407 0)
(-0.0294175394845 0.000619745902603 0)
(-0.00521534592233 5.5144135636e-05 0)
(0 0 0)
(0 0 0)
(0 0 0)
(0 0 0)
(-0.00467019284569 4.93156900764e-05 0)
(0 0 0)
(-0.00908793209738 0.000161997864213 0)
(0 0 0)
(-0.00868224148456 0.000143841819568 0)
(0 0 0)
(-0.0102977926052 0.000183564356585 0)
(0 0 0)
(-0.00599573889831 6.33130174829e-05 0)
(-0.0362184159201 0.000863845133518 0)
(-0.130270587664 0.00308608312784 0)