/*--------------------------------*- C++ -*----------------------------------*\
| =========                 |                                                 |
| \\      /  F ield         | OpenFOAM: The Open Source CFD Toolbox           |
|  \\    /   O peration     | Version:  v1906                                 |
|   \\  /    A nd           | Web:      www.OpenFOAM.com                      |
|    \\/     M anipulation  |                                                 |
\*---------------------------------------------------------------------------*/
FoamFile
{
    version     2.0;
    format      ascii;
    class       volScalarField;
    location    "6.35";
    object      p_rgh;
}
// * * * * * * * * * * * * * * * * * * * * * * * * * * * * * * * * * * * * * //

dimensions      [1 -1 -2 0 0 0 0];


internalField   nonuniform List<scalar> 
28582
(
19552.9016754
19550.2031951
19552.9477318
19549.777979
19552.6793425
19547.8122782
19555.5290504
19546.3753324
822.198432551
938.586776994
0.601981529818
19550.7048966
18042.6977437
17705.3634891
19543.6937009
19542.9265837
17602.2879194
19521.2134596
19519.2191142
19555.2344734
19548.7072187
19548.3768277
19555.6534208
19548.2619191
19548.2892488
19556.7891423
19546.0413554
19560.2875042
19543.3465875
959.005912305
0.154715952555
-0.166131391002
19557.9240293
19558.2998338
18300.0857354
18108.5238388
19556.3929228
19544.4403042
19542.478746
19543.9348977
19521.9977134
17454.0873002
19519.6246365
19524.2209294
879.464094552
934.45443164
15.6815617759
16.1214307808
917.343800234
16.3689681914
19553.0640898
19549.6513572
17937.9459051
18054.3277442
19554.0558364
17950.5266081
19548.874278
19544.3181828
19538.2715121
17819.267914
17710.1846584
19538.0294726
17829.8709054
19543.8287073
19526.2338355
19532.6564727
17506.4880532
17601.0773489
19531.8909387
17497.7384162
19527.2541987
19522.3813833
17396.2125958
17392.6595297
19522.3844332
17441.9033984
17435.2238742
19523.1012726
19517.9092251
17368.45879
17298.3092161
19520.2193607
17348.6925799
19519.0797136
17406.9827667
756.230558826
8.72580350775
701.174029587
754.235190484
5.69885681664
8.05657092869
962.500062485
9.01689540763
10.0129008763
999.906310797
6.88988908468
984.013448564
7.96238152426
19557.4393672
19559.5843146
18250.0472443
18290.3461148
19558.1153379
19558.9243178
18237.4915247
19555.404552
19553.3441369
18184.9109382
18091.1249217
19555.9996949
19552.8880218
18168.4647115
18181.4662239
18116.2959908
19554.3231369
19555.665523
18095.4996481
19553.3618781
18169.8759274
19523.1482913
17390.02846
17378.4612899
19524.5804821
17412.3883952
19525.886287
17395.7873175
19527.7214238
19532.2631294
17431.2314978
17436.1750288
19529.1135132
19530.9792893
17411.5316749
19521.4498284
19518.7885753
17366.5908325
17311.9303301
17334.580239
19522.2116512
17386.6479781
17354.2424205
17378.7738014
19527.4252359
19525.3965204
17423.4416046
19528.6878242
17404.5621795
19547.2727817
19546.4430988
1016.49502811
-0.35361756614
19554.7930017
18029.1132781
19546.2454652
19548.6444442
17471.6414013
17409.5891872
17477.2436731
19550.2429065
19550.9450373
17500.497728
17520.9148509
818.047106435
1033.98570439
1076.68650415
5.9447936554
4.93100588069
2.89981078592
1083.31123537
1089.13660152
19546.3447831
19551.439127
18010.1876355
17923.6143982
19550.3758075
17911.5687036
19547.332285
19536.3067928
19535.2027076
17483.9295109
17454.204839
19537.4025174
19534.0706958
17465.1393644
19534.1646952
19530.6181089
17439.9622972
17439.8859195
19531.58543
17454.4358985
19534.2296966
19536.2613286
19538.1408572
17486.3939825
17458.9958823
19537.9067394
17466.9406425
19536.6379394
19539.608063
19539.1915552
17510.8222613
17527.6107925
19538.946167
17534.2513373
19540.1118192
19539.4952165
19539.0484991
17510.6719124
17531.2990914
19538.2243965
17525.8513419
19540.2068901
19571.9408324
19566.1798374
19566.2014651
19564.0489421
619.299413039
633.340915789
644.440771348
674.558422349
654.619457685
-0.025347420756
0.452072964085
-0.100111799007
0.153793289603
-0.136274421975
-0.0106470830895
19574.6064467
19573.1068782
18633.8457022
18516.0747452
19575.5731529
18505.4344034
19570.3963524
19567.7738897
18502.6220511
18423.9954028
19573.8985791
19568.503713
19569.1939584
18504.3503542
18529.70997
18403.6880036
18384.3527682
19569.2556764
19567.4648352
18538.9977279
18538.5897276
18396.3782594
18425.5357136
19566.4071091
19564.9796174
18389.7449693
18360.5968198
18347.3078439
19565.5144563
19564.9263555
19564.6739035
18366.3267175
18389.4768887
18347.6742387
18361.2736223
18352.1204145
18362.8404975
560.186379039
579.47609454
605.474330985
2.45950496072
2.52603000184
2.91994559194
2.87876127686
3.09973788702
8.44300067352
3.8225999464
8.86530634498
591.07030784
604.40928937
627.41144351
637.137939984
652.280882384
2.78922087324
2.3375993988
2.16836231572
1.63433372412
631.565368049
654.833180085
650.469702872
2.9124156942
5.8161188294
1.87465387874
2.74407133333
667.105943481
659.308247481
1.83731083812
1.2132893015
1.12990418028
669.894916151
670.318127852
668.655411924
1.32080579562
1.62762725146
1.22992871769
1.43271143926
19570.3314917
19571.7725619
18649.5766415
18603.6107174
19570.3370133
18636.5525591
19570.8214559
19568.6623207
19567.8705979
18555.4131232
18543.5138524
19568.881976
19567.1255124
18595.9985341
19571.6691544
19568.9268278
18527.4010613
18511.1617771
19569.5173943
19570.6942808
18520.9275016
19563.7272023
19566.3391123
18503.7396693
18458.0141703
19565.6098877
19564.9145436
18476.9373716
19562.8903129
19562.776044
18452.2949117
18438.5843897
19563.5306298
19562.1828007
18469.4677052
19566.7560068
19567.6110233
18509.6645998
18455.6346496
19568.894201
19565.8002471
18463.2710942
19568.0255226
19571.887356
18520.5526479
18485.5360658
19570.4110804
19569.3890149
18476.2570485
19565.3993677
19563.5819243
18437.8904391
18378.7613044
19564.4251983
19563.9051951
18430.1240867
19566.1195734
19564.5648114
18436.5233571
18378.0370762
19566.6046658
19564.128877
18433.0865737
19571.1147888
19573.1688211
18560.0847493
18493.2132976
19573.8142185
19570.4655432
18508.8709599
19570.9805018
19571.4897645
18547.8889083
18512.3179111
19573.3700333
18510.5904756
19569.7978561
19567.4845259
19565.0406703
18442.1691203
18410.5467214
19567.0326202
19565.5428396
18457.1044998
19568.0091628
19566.0946663
18467.7246076
18419.2444804
19566.0950052
18466.7675741
19567.6892736
19562.5798021
19563.2085604
18359.458662
18382.3142118
19563.1939099
19562.604335
18364.9485952
19562.7917097
19563.3395609
18356.5230383
18345.6785771
19563.1849015
19562.9200128
18348.0878974
19562.0417455
19562.3094812
18343.7266663
18358.0700216
19562.2640011
19562.5242647
18349.7495043
19563.2451457
19563.6713789
18372.2647122
18348.4082556
19564.0017316
19563.0612606
18356.6864029
19563.4016497
19564.7799977
18378.7231
18375.0929307
19564.4308868
18364.3400881
19563.5071988
19562.9028461
19562.3759965
18345.775354
18349.2847502
19562.5685355
19562.5921565
18351.0846742
19563.2519514
19562.7782852
18364.0520987
18352.3975858
19562.695288
18356.1354568
19563.3887038
19561.8920041
19562.2070887
18354.4261106
18359.7094895
19562.3483502
19561.708093
18359.9813797
19562.4250784
18357.3395555
19562.4173012
19551.9846329
19549.4607126
19548.3777815
19548.3239249
19548.2366153
19551.2004921
19551.9969993
19549.1181916
19548.0317372
19548.6760932
19548.5825792
19551.1782453
19545.6405586
19547.8579307
19541.737913
19544.6701184
19546.8621431
19548.7776494
19552.5503807
19546.4571991
19547.043989
19548.6991424
19547.3017494
19546.8219455
19547.4312316
19547.7535934
19547.7944911
19548.7310627
19551.6292494
19549.0449382
19547.842678
19547.3448194
19547.1937159
19546.8878509
19546.7593938
19548.9655554
19554.0058764
19550.7439543
19548.7796329
19548.2221912
19548.1216461
19547.7419017
19547.4442964
19549.9973744
19548.1700347
19547.8529227
19547.4816972
19550.3630378
19544.1874719
19546.3300037
19545.1792485
19543.3788821
19542.4831738
19546.9703941
19554.8979614
19528.1081281
19547.8684066
19548.5790996
19549.4190697
19547.8266331
19545.9272483
19545.8107428
19545.905544
19540.0920645
19551.728779
19549.8995639
19548.2661679
19546.8567624
19546.30679
19545.9390434
19545.2221185
19545.3669014
19554.4095528
19551.1635822
19548.7794553
19547.9793225
19547.9025908
19547.5585777
19546.9569717
19548.7523885
19548.0517228
19548.0114821
19547.5860947
19550.0211439
19543.3646121
19546.4349227
19546.4283613
19540.6342603
19539.8610106
19545.8776013
19553.7811245
19521.7463513
19547.7935038
19550.2147418
19545.3242228
19542.1648531
19543.3916042
19545.4287
19544.1188871
19534.1745241
19553.4908637
19551.1984024
19547.353833
19544.2209049
19545.0882458
19545.6514133
19543.582083
19542.2683889
19559.6327554
19555.912759
19551.5390063
19547.1065225
19545.1543295
19546.3720448
19546.6437022
19545.4493871
19546.1378209
19551.8306342
19547.36227
19545.9546839
19547.1267936
19547.442502
19546.4757947
19548.3113581
19548.0934011
19547.6202449
19549.9930797
19547.5145493
19552.0573844
19549.631619
19539.5825539
19538.8387669
19546.302584
19551.97697
19555.6934694
19550.271702
19550.8023
19553.5691357
19548.6598969
19539.3913567
19539.6645765
19546.1585096
19548.2934299
19543.1163592
19563.9804289
19558.7671866
19556.0325962
19556.1224144
19550.1820841
19540.9604818
19541.7776205
19546.6153835
19547.3222034
19544.256873
19561.6395172
19559.5554069
19556.0045457
19547.6081831
19541.8801539
19544.2219391
19548.4181477
19548.7187764
19545.8162266
19554.5415912
19546.1980398
19543.0673267
19546.0277455
19549.4032236
19549.3807676
19546.8584484
19549.9097507
19550.1198368
19548.3456468
710.14986974
796.854628193
1004.22670966
1102.05507304
1123.97709277
1127.26776661
1129.60642569
1167.21893518
635.188681362
645.727568916
689.8754983
782.581558606
948.735049102
1047.18196264
1132.36897231
1172.08734733
1150.97901701
1173.20949607
658.599843916
649.840641765
673.82592907
737.513123418
903.72378194
1013.55694108
1081.46495561
1137.03802008
1133.11537411
1146.73032509
651.625832296
673.487046599
779.090405565
918.255186484
988.942065868
1024.4204892
1068.16338299
1081.14754346
1109.69085987
815.374479083
925.292274977
969.594914908
998.197975258
1049.70220757
1065.05529858
1077.93573225
1068.6226434
1073.09377913
1066.97122203
0.338873769311
-0.0690921135592
-0.200486373662
0.0536062586959
0.605237069549
1.11990770906
-0.0641535833298
-0.171303299059
-0.325681931079
1.27500819638
0.205276799167
-0.00543290387751
-0.176183086921
0.00620371739941
0.372500933354
1.05292898387
1.2254942717
-0.197920432513
-0.385275635519
1.60393709763
0.291568441736
-0.0252881224174
-0.11606783022
0.0152334964227
-0.0768291657943
-0.298734651387
0.430344170839
-0.13186861893
-0.362136032969
0.892087206875
-0.0630811436606
-0.0739479098329
0.0561229146904
-0.139592273014
-0.231130703822
0.383704861733
-0.102601628063
-0.333960780486
0.652023281858
0.31033265303
0.514014681179
0.817598096241
0.5549559512
-0.14768608006
-0.306991940996
0.923966813371
-0.0907891977012
-0.25047001578
1.24366928859
19547.0933892
19545.5549038
19547.1761449
19545.1845185
19547.0207151
19545.6437142
19547.0892123
19547.7846812
19548.3053933
19548.4025244
19548.0593796
19543.3816575
19547.723624
19545.5907919
19547.7473284
19549.3818467
19548.7477442
19547.2107204
19548.1809999
19549.2594942
19549.0941486
19548.5800425
19548.9574562
19549.0084686
19548.6942313
19547.6533537
19549.345682
19549.4790758
19545.6165993
19545.4293796
19546.430336
19543.2298061
19545.0368711
19544.857348
19546.3072801
19545.8361929
19546.584043
19546.8663512
19545.8415615
19545.2817433
19546.8266726
19545.9119623
19548.5136675
19549.4831497
19549.4598984
19547.714034
19548.7468354
19549.7146707
19549.4128721
19547.639575
19549.4227848
19551.8643184
19549.2190478
19544.6275484
19549.1030451
19550.9072906
19545.4310101
19545.2014264
19546.8892622
19544.5020164
19547.0641448
19546.129041
19548.0913675
19546.1817574
19547.8089258
19547.5599925
19548.4742692
19548.6457767
19549.3539501
19550.7751505
19549.1757333
19550.0886073
19550.0814807
19548.8144657
19550.401262
19551.0200349
19551.5269655
19545.9890307
19549.9706171
19550.6276599
19551.3373068
19549.9601517
19551.7672612
19552.2271314
19545.6084208
19547.4821547
18016.5359321
18082.1375792
19550.0243841
19549.2919241
19551.2143683
18005.4264799
18016.7673996
18074.2474975
18050.6869552
19552.1848938
19552.5640819
19551.9103694
18017.2687585
17926.1965429
18054.0405441
17875.5870565
19544.508651
19548.4679098
19543.4032229
17804.2409559
17098.1210356
17724.5497132
17182.9393791
19537.7961386
19539.0695647
19537.2623211
16897.7863745
16879.9986859
17032.9194736
16926.039504
19542.1595235
19539.1660243
19542.5716532
16983.8571914
17313.9467258
16983.584442
17247.1977666
19549.2742474
19546.1062287
19548.4515077
17396.6612166
17460.7961881
17317.2439501
17404.6620065
19553.8910656
19550.0682772
19549.4498015
17477.6704305
17334.6225202
17403.0080035
17206.2574741
19534.4359792
19545.7727308
19537.0925697
17324.5764244
16906.3144475
17184.2783044
16830.933362
19563.5872581
19559.1626577
18508.0462673
18285.6068695
18420.9490184
18342.7891083
19549.795765
19555.4663928
19553.5232409
18215.5085465
18123.2928034
18295.46377
18201.5183099
19552.3466176
19553.2507798
19554.2780106
18104.661976
18068.224103
18184.5046805
18173.4530818
19552.4193022
19555.1189676
19554.1004823
18074.7232447
17922.0916647
18174.0646388
18089.344413
19543.321328
19550.7891283
19545.5085483
17769.194948
17238.472398
17931.6488631
17301.7067349
19537.893635
19541.2667873
19539.5857457
17090.2287769
16973.8587982
17179.1615853
17136.9424992
19543.091221
19541.0487706
19544.1084424
17013.882884
17228.1684649
17163.7508624
17284.6769361
19548.1275096
19546.487256
19547.8571446
17293.2585643
17388.1491877
17322.5015001
17391.8078288
19546.4344429
19547.3855296
19545.7617958
17382.3653608
17178.6988209
17376.790555
17162.5420598
19540.8837195
19543.1839514
19544.205871
17162.6162186
16849.9630543
17151.0674567
16878.4787836
19561.5014819
19563.9016792
19562.4722716
18389.7361726
18348.1859607
18365.1753068
18352.7494956
19556.8812653
19560.6630648
19559.1480478
18317.7285619
18219.5379173
18345.5017665
18309.0154002
19556.2817894
19558.1920022
19557.7200621
18211.5364624
18216.534296
18305.6107771
18297.0796942
19554.212667
19556.4886784
19553.4242061
18208.9249739
18108.1491427
18266.5448014
17951.3742264
19544.7114893
19548.8854147
19544.148592
17943.5294566
17292.460872
17767.4804187
17230.241704
19539.7157969
19541.3067914
19540.736838
17179.958117
17157.5917419
17176.8622281
17248.2936356
19544.640662
19543.1739302
19545.8191211
17189.9300343
17308.9668324
17305.958996
17426.8979505
19547.8388079
19547.6584097
19548.6286166
17347.3607122
17407.1608927
17458.7525275
17503.1882779
19546.0467157
19548.13005
19546.9490775
17399.1463787
17192.3447807
17490.9122324
17297.2035991
19546.0591282
19545.085851
19547.2154705
17175.5810137
16868.3503404
17263.0572765
16898.9075446
18363.4039169
18354.4298087
19560.5535815
19561.4091708
18348.8797169
18327.9515256
18351.3347
19558.3396624
19560.2158666
19558.2197415
18321.0636842
18279.3988321
18322.2195966
18127.024359
19552.0877249
19555.139635
19550.8831678
18218.5058842
17877.5250977
18046.6403054
17754.6147846
19543.640261
19546.6645223
19543.5570251
17719.3798115
17252.5398289
17621.5510062
17290.8136699
19542.0092415
19542.5866901
19543.2287404
17222.5550417
17293.5157383
17300.1027428
17400.477725
19546.6420401
19545.4325151
19547.5425955
17346.3298013
17458.2530106
17445.1690501
17525.9206482
19549.3133723
19549.0272085
19549.8561777
17491.707999
17525.5879128
17546.9117958
17560.8168345
19547.5138359
19549.2257163
19547.9514624
17518.6445005
17333.6930722
17535.2880403
17346.3081054
19548.0957599
19546.2974077
19548.9782716
17290.5067531
16911.6838177
17325.2135486
17000.4303724
19550.1877737
19550.2676728
18023.9941397
17728.6712157
17693.1356682
19543.7182247
19546.3200609
19543.9225958
17607.1319226
17309.8177321
17592.2916334
17377.0574297
19544.0351034
19543.4283181
19544.5775537
17325.9437021
17423.0754997
17390.9969261
17470.4762433
19547.9236381
19546.5785229
19548.475692
17462.2403834
17526.0836837
17489.514804
17514.5654126
19549.9968723
19549.7740774
19550.2801402
17542.5166614
17554.4218661
17529.4893117
17532.9001082
19548.1147904
19549.7651973
19548.6154369
17528.2865214
17363.405426
17512.2322802
17397.8160385
19550.004526
19547.6378098
19551.0575273
17365.1507432
17052.4749011
17419.0525307
17198.6963994
19548.4795289
17504.3490092
19550.5303689
17522.9487417
17530.026618
19549.0528127
17504.9656669
17392.4937144
19551.7664561
17419.7890449
17230.7063301
9.80667173558
8.4176164023
10.1729712675
7.89041298097
662.28350481
652.648573238
4.25857547299
0.820204124241
3.58170953223
1.10631155082
751.607445843
702.000887683
749.658893868
0.871810923467
2.80264059906
0.807352426009
1.90500740089
887.400569829
795.143128102
886.682789858
6.68099877144
10.1938832884
6.29521554916
11.199484668
1080.86997919
981.71491455
1048.97262206
16.3611547882
23.3341619562
16.9073749345
22.4388439989
1083.50721252
1083.94740008
1092.89409364
26.3654736665
23.4352232882
27.2371494839
27.3190709207
1141.33599351
1140.90509056
1169.01025863
9.83891717692
3.92633739284
13.3431698019
4.82611141002
1133.59953954
1156.01390616
1154.45449173
1.28183727574
0.976683996775
1.34220850235
1.11107572878
1152.58018263
1144.60516338
1161.16374524
1.15730055052
1.49706782126
1.38364358144
1.7743670575
1159.57643008
1173.61907327
1177.23356483
4.27496965286
34.7367531871
5.17127792009
39.0759807291
633.788497716
641.400678426
642.959496537
8.09228634077
6.20863195786
5.51996120567
6.12887542954
647.896519048
650.07985416
658.136256254
3.60172891783
1.94173725719
4.84787471286
3.03192268474
736.274260422
678.979814048
711.536381823
0.783117382821
0.647417793339
1.44294700093
0.662876532173
861.699619121
754.863357299
832.169295533
2.44576592304
9.46196369973
1.15240395923
6.16325608215
1015.57347736
916.641950657
990.944597462
15.8377508184
20.2514598135
14.3219214889
18.9049096284
1073.91982228
1023.48780326
1049.9976241
26.0797605444
28.1424896145
21.3960552145
21.987227136
1176.32540696
1100.91221525
1160.18376727
23.7964553787
6.52586425099
23.7517683324
6.89500940416
1164.61881133
1163.81624773
1160.40472957
1.42369489428
1.20515106536
1.38191833508
1.19764017071
1165.80040073
1148.96623768
1160.48388096
1.56700772287
2.02620637262
1.631313412
2.06090128794
1177.48214293
1163.32319236
1169.85576663
6.32443023595
43.7204637986
6.48210849547
44.8379408166
652.04314159
659.757900376
653.770555215
3.32689048304
6.18572981993
2.22126116593
4.4129034904
660.016702696
651.770230767
655.691659953
5.35037642864
3.51166901265
4.25609112535
3.13075518231
690.653814795
667.14988778
691.734918783
1.79098973168
0.823040597335
1.72938530929
1.11067829383
819.561561877
747.468903401
830.71413016
1.13516415103
5.69792937031
2.38567919429
7.87716642505
980.825622706
909.89930989
979.716861018
11.6640147807
15.0483866897
11.0266127814
14.428369635
1039.43896535
998.573220703
1023.46877382
12.4006668742
10.4214353495
11.6314561793
8.99973903458
1139.72362203
1051.75236831
1104.99493458
14.5484231256
5.23393660468
11.9726083133
4.55907436438
1138.88953875
1100.04838367
1103.47770368
1.08278072078
0.890396794948
0.854199178228
0.66533754907
1142.94392498
1106.63294964
1119.84856171
1.34252529017
1.71823412984
1.00644561964
1.3198222223
1179.54276091
1127.48158101
1164.8104306
4.98207497226
32.8563106767
4.10362869441
29.1767979294
657.874485454
658.619344186
3.5831161735
2.07475898927
2.58178531096
714.282711253
691.192200156
742.986216778
1.63983898002
2.56291183226
3.69152824847
5.80706553191
849.403852587
803.166906191
863.696967925
6.21559341402
9.29879171013
8.16810515831
10.0598988198
975.12258206
925.064054871
971.35383074
11.0169160077
13.665712798
11.4652841699
13.323091851
1005.39077768
981.95239264
992.349028219
11.3865414093
8.5227903872
11.0731931499
8.89645511883
1067.92082575
1005.33390052
1046.77425693
12.3114905947
4.96185156323
13.8811855936
5.85824904238
1071.38911754
1051.62525563
1054.76843958
0.849347267635
0.644979752113
1.15803449659
0.93950461908
1099.27010448
1070.94390933
1087.6296948
0.922965694662
1.20206062062
1.85557720573
2.15843678909
1157.06144861
1093.67051785
1136.02461324
3.72533998242
25.0784632241
4.39784548171
22.3969940892
872.757044447
877.628741682
10.2538873565
12.3195622757
10.7741328395
13.1036406685
961.525198364
922.279352684
948.856388293
14.7042708821
17.1959922093
16.2922569413
18.3422384298
978.375597528
954.04080061
969.055298097
17.4037925203
16.3036247054
19.9636811314
20.1394059569
1042.02037405
999.446013247
1047.1541868
17.5082624481
7.59459035174
16.0828933738
8.11080947242
1056.73723429
1058.55198888
1064.76453832
2.08191552178
2.33147901149
3.38502287541
3.464104903
1077.73389354
1063.08401316
1072.4112016
2.79286655572
2.86304311546
3.64038418202
3.79589814533
1103.63911719
1065.72361137
1073.4558291
4.88233386448
25.7042600981
6.40164431305
29.392082769
1060.77187932
3.60945321794
1077.4871308
2.69325015517
3.88597205023
2.20457559494
3.49664797995
1078.60239226
4.16796017499
4.50131446127
4.36837220673
5.31604937356
1053.85141388
7.47199220989
34.6854186017
9.53407117274
36.7859424561
19546.4078463
19546.9865108
18031.6620403
18033.4917574
19547.0150237
18046.6128867
19546.3922405
19546.711479
19549.0631718
18060.5689078
18079.6293979
19547.5940609
19547.5365346
18058.8625698
19549.5957282
19547.9999276
18010.2280701
18011.8950475
19548.2353031
18010.5038367
19549.0170857
19550.6151755
19551.3646346
18012.4244554
18019.7411322
19551.6467723
18012.1246321
19550.0353886
19549.9530377
19550.5932669
18036.7005767
18054.3462726
19548.9186526
19551.609066
18026.6787229
19550.7865139
19552.9314241
18034.2009516
18047.3375553
19551.8621579
19552.0619261
18028.0793974
19554.1927267
19552.8855849
18012.8412274
18025.8494599
19553.1571496
18014.7666319
19554.465516
19553.8976521
19552.4791583
17979.3684223
17888.9677853
19551.0877018
17970.4558426
19554.7845343
19554.2892507
19553.8642111
18041.3575516
18046.238989
19553.2719323
19554.6920912
18026.0268242
19554.094956
19550.342582
17868.6981987
17980.2361629
19551.3517353
19553.9839205
17964.9376919
19532.3346356
19546.0115357
17612.7248938
17740.7027544
19543.5078195
17540.0467202
19534.8182216
19520.1377068
19508.1443112
17364.1383648
17084.3830132
19506.8345537
17310.7289184
19521.6361412
19534.2261412
19544.1232566
17727.6501831
17549.4018124
19544.8789121
19534.3188193
17542.6985943
19521.1383131
19510.234989
17139.5915253
17371.7669951
19507.9262649
19523.0399183
17343.9015953
19493.7428346
19496.7337107
16748.1422571
16897.1350308
19496.1999243
16738.8139542
19494.4601398
19496.311948
19504.3946007
16795.4885391
16863.449158
19502.4818706
16787.4346848
19497.3454351
19495.1193453
19499.5137208
16961.6057463
16885.9467257
19498.0763395
19494.9244377
16816.0932312
19496.7881556
19499.3007245
16895.917956
16896.6293969
19501.0823419
19495.7124906
16845.7689101
19518.2374229
19512.4620441
17088.1506708
16966.6256947
19510.8316014
17070.6412892
19520.0384678
19524.1491306
19530.2279647
17191.4434466
17283.292064
19529.1804656
17166.9738143
19525.0526
19513.957499
19505.4897801
16973.2332042
17062.0413915
19507.3421579
19512.8407595
17061.9691584
19519.942122
19524.6914962
17257.9928646
17145.7016701
19525.8431042
19519.0625146
17149.3861115
19536.3893758
19535.2840806
17428.9741734
17368.8264717
19533.8614715
17403.6981062
19538.1443724
19537.5112344
19538.6536127
17441.0889368
17439.9018205
19537.533048
17417.7489663
19538.999496
19535.2823741
19529.6960485
17339.6899495
17351.1516357
19531.4146015
19533.2805743
17374.9488584
19536.4577894
19534.7577815
17417.7745772
17371.5111393
19536.8210265
19534.3120576
17391.8473633
19535.3650239
19538.2316561
17475.4781472
17455.8800323
19536.9961494
17452.2298466
19537.4702362
19532.5414739
19530.4960204
17421.152433
17305.5405158
19526.7892209
17394.2780471
19535.2839436
19535.1270538
19534.6824564
17429.0879663
17384.9311825
19536.4773967
19533.2734917
17418.6853133
19531.8090095
19524.0653133
17255.864893
17310.6560519
19526.0881851
19530.0074432
17350.9185823
19506.8054669
19523.8045849
17227.2950721
17294.1808516
19518.7042123
17194.6677417
19513.9162144
19486.0269698
19499.3164988
16775.9536727
16882.6632995
16744.446296
19493.9430446
19495.6512761
19506.0381801
19515.6827036
17235.8408892
17082.3147068
19518.0526826
19503.504456
17128.5589747
19485.3055156
19498.361629
16864.0233911
16633.3354025
19481.1615015
16675.4064998
19497.7763335
19563.5645084
19567.7089849
18456.506514
18486.5518834
19563.4846205
18444.2120143
19566.9732006
19559.7957834
19555.1240772
18379.0153133
18303.3899026
19559.3548458
19555.9644845
18388.9076378
19563.6353551
19564.9885837
18459.2457094
18410.7404997
19563.3600726
18430.7955397
19566.157888
19560.6116676
19557.89834
18306.0814409
18388.5577665
19557.1865981
19560.8131654
18380.6172386
19550.8166443
19551.6454617
18151.991439
18226.1856011
19549.1474419
19552.3533214
18184.1401555
19550.2531906
19550.2091906
18123.1199878
18162.5826094
19548.6084174
19550.947955
18169.2415672
19552.1878819
19555.6020558
18240.6678865
18242.7252302
19553.9055277
19554.0090515
18207.0086468
19551.6843426
19552.7073807
18178.0591293
18216.3781771
19551.7437671
19553.0033891
18193.5686371
19551.619938
19551.3579862
18070.3379252
18144.1589001
19551.6662331
19551.7066328
18108.3539576
19551.8972373
19552.3410071
18064.1743914
18094.6685114
19551.2609388
19552.838209
18092.7076426
19552.0319954
19552.8045402
18169.094287
18180.963695
19551.9212673
19553.3343227
18146.7358113
19552.3128754
19555.4284492
18132.9961448
18179.2049177
19553.6142702
19554.2433536
18131.8659762
19555.2274637
19553.7202484
18083.5051951
18100.3345025
19554.6635961
19554.3798086
18109.4963807
19554.5339963
19550.3357655
18029.2163996
17979.0622666
19554.0190576
19551.2295488
18067.721592
19556.0155811
19556.6676177
18138.190111
18178.4407981
19555.0753346
19557.7293131
18148.4619074
19555.5612242
19554.1510966
18048.0697375
18152.0069967
19552.5124199
19557.1522811
18120.0364593
19537.0357491
19544.4631994
17592.186093
17824.9231659
19535.8477763
19545.1151092
17643.5802469
19527.7363006
19514.2816007
17414.4740758
17279.6140472
19526.0490549
19516.5889777
17457.1027573
19538.929686
19548.5933694
17887.4549693
17724.754966
19546.8566448
19540.4148891
17693.0401244
19529.9566789
19521.710774
17294.1780576
17499.9209809
19520.1374356
19531.1356393
17483.3977206
19500.6306781
19502.9509059
16963.534583
17139.2884708
19496.3505744
19506.2843893
17015.6024452
19495.652283
19495.8845233
16953.1097281
17046.6487022
19492.8672156
19497.8537006
17036.6656662
19507.9698296
19514.2763671
17165.8277354
17072.428104
19511.7699851
19511.5761818
17052.1395618
19504.5480813
19510.4174675
17097.3222191
17101.9427541
19505.8018016
19510.1671648
17074.8288243
19505.9634964
19500.2237535
17071.4090161
17065.322808
19506.6426425
19500.8879633
17104.2406609
19512.1031789
19520.275599
17139.7658329
17234.3897828
19513.5887082
19518.100359
17158.2766652
19512.1368966
19512.4411791
17118.9341923
17198.0728518
19508.4111684
19515.5310331
17152.415307
19516.2587545
19521.6211021
17252.2725204
17236.2997626
19520.3290502
19518.6600641
17192.6789552
19526.6592342
19525.6012084
17327.6940859
17292.5285511
19529.0690951
19522.9244316
17325.5981235
19529.2094439
19532.7120263
17352.7962738
17379.0604958
19531.2810672
19530.7264842
17347.6337885
19526.2600706
19524.0444882
17300.7637524
17347.081473
19523.5482125
19526.3678777
17327.1279046
19528.5676426
19530.0211879
17377.313915
17365.3008367
19530.4258201
19528.4457743
17347.1954667
19529.6096827
19533.0287111
17360.6582017
17368.4442086
19531.1443661
19531.3138835
17338.7415834
19526.5007185
19521.502425
17283.7182539
17150.8808702
19527.4173097
19521.4260581
17257.4880119
19529.500636
19531.6050936
17362.837013
17341.8482148
19531.3210678
19530.0966728
17329.4842119
19526.1166585
19521.5837708
17151.3872557
17263.9484507
19520.7497841
19526.8708738
17250.8968767
19503.9192319
19513.8656446
17068.3439122
17137.1164759
19502.3116452
19514.785857
17049.3151677
19483.5564669
19499.347494
16644.6338988
16844.9517045
19480.7119882
16634.9161936
19502.4339701
19503.6175503
19514.9426335
17141.3797293
17065.1626743
19514.1167736
19504.5302877
17056.424804
19483.7900853
19504.8322256
16862.4009241
16660.9646818
19485.7066527
16652.2522363
19503.1664447
19562.8340393
19564.3478438
18384.7953362
18375.8898348
19563.2713268
18374.6478714
19563.5068947
19561.7731118
19559.4712143
18368.3078016
18355.7238033
19561.7055271
19560.343466
18368.6476533
19562.7433895
19562.7032929
18370.0720627
18364.1633224
19562.4688028
18371.6162468
19563.282561
19561.9464312
19561.207168
18359.0780316
18359.3680998
19560.7660054
19561.9529058
18368.5597777
19557.0091396
19557.0792968
18276.500667
18337.8428334
19555.5035137
19558.6660933
18317.4900341
19555.9739161
19553.6768611
18247.9259679
18260.0802382
19554.2816249
19555.1403416
18292.8548439
19558.1866844
19560.1272558
18343.1669459
18335.772616
19559.2854028
19559.1530096
18330.0484339
19557.197876
19558.1013464
18300.4454437
18321.6112898
19556.6545592
19558.5638414
18320.9153701
19555.6024548
19553.7150657
18212.385801
18253.7940217
19554.3291145
19554.8886551
18249.1811161
19556.5578653
19557.2603759
18217.5738318
18255.2425389
19555.7545876
19558.1607589
18251.9652499
19556.8232915
19557.8798185
18292.7321032
18306.2433595
19556.5332518
19558.1463393
18281.4545531
19557.8656858
19559.9619159
18273.7016494
18305.280433
19559.1788732
19558.9304034
18275.699827
19559.2570926
19558.3035054
18207.7650157
18248.8047019
19558.9149325
19559.3511708
18238.1516189
19557.4243766
19554.325353
18175.0830282
18097.2240421
19557.7489352
19553.1867516
18188.0837405
19559.2256958
19559.6689084
18262.1794032
18213.4213879
19559.9025392
19558.1227157
18239.526555
19556.7351545
19548.499295
18029.8605461
18100.1112886
19551.5871214
19554.3980352
18156.6863966
19537.6134261
19548.4112068