/*--------------------------------*- C++ -*----------------------------------*\
| =========                 |                                                 |
| \\      /  F ield         | OpenFOAM: The Open Source CFD Toolbox           |
|  \\    /   O peration     | Version:  v1906                                 |
|   \\  /    A nd           | Web:      www.OpenFOAM.com                      |
|    \\/     M anipulation  |                                                 |
\*---------------------------------------------------------------------------*/
FoamFile
{
    version     2.0;
    format      ascii;
    class       volScalarField;
    location    "10.7";
    object      p_rgh;
}
// * * * * * * * * * * * * * * * * * * * * * * * * * * * * * * * * * * * * * //

dimensions      [1 -1 -2 0 0 0 0];


internalField   nonuniform List<scalar> 
28582
(
19548.531839
19547.0649579
19548.8227962
19547.0178061
19549.4537443
19546.7001629
19551.788551
19547.039639
1193.68710889
1268.48666808
-0.123541069147
19549.2109207
17389.1843237
17165.2901467
19545.7101994
19544.8614136
17094.7092054
19516.7721986
19513.527219
19548.3871805
19546.0222145
19545.7790992
19548.7819812
19545.9540384
19545.6617051
19550.2608798
19545.276713
19552.3304843
19545.247802
1296.38948406
-0.131342100077
-0.0695859509764
19551.4854719
19552.8255471
17448.6836675
17425.1558071
19533.1911348
19545.1753125
19544.4223796
19544.8372189
19517.1966741
16957.6181276
19514.4823935
19514.7501028
1229.20355145
1300.11667542
12.1506227008
10.8859802657
1251.83422531
12.1407302711
19529.0171359
19526.8930032
17343.5708611
17386.7843702
19529.5025071
17329.0806849
19526.9765547
19524.212452
19521.1909447
17257.6530825
17140.6639786
19521.033692
17238.6764029
19524.2486451
19517.0074577
19518.7213421
17045.1410935
17062.5554441
19518.3394168
16996.2604564
19517.7607143
19518.0392993
17032.5982818
16960.3794256
19516.6376523
17033.2032495
16974.7083928
19517.6249094
19509.5293932
16902.8855172
16833.8359983
19512.9776958
16854.6709683
19508.8151879
16913.2586356
1141.05568261
1.79488061902
1120.39496084
1131.48223151
1.03880448019
1.05396785396
1314.97280076
11.1871938102
9.30935999514
1344.38946423
10.5394540343
1327.21805957
8.96239823438
19535.3466389
19536.1416364
17441.0480157
17458.0088694
19533.8197903
19537.6131367
17453.5781522
19533.1750223
19529.9009955
17433.2112515
17442.0704108
19531.838671
19531.1249348
17447.7336793
17449.8770169
17445.0823618
19530.413762
19532.9606788
17444.371375
19530.6075279
17447.5569102
19518.5128427
17028.5430113
16951.0395728
19517.8920794
17022.4591655
19518.84661
16946.0165159
19518.8000646
19519.8904215
16997.5271745
16922.420345
19519.2120302
19520.0196903
16931.5423007
19512.9763732
19510.8911808
16911.4072925
16849.3039618
16869.4988105
19516.1124316
16925.3745899
16883.4109641
16899.611321
19516.0467632
19517.6723374
16934.2681512
19518.7643493
16933.3083069
19544.592633
19544.9446733
1356.31182238
-0.0855774770296
19551.212679
17411.6412379
19545.135386
19544.8473271
16914.7105206
16890.6853814
16808.8273909
19544.2564917
19543.4027183
16767.7639481
16663.3321674
1173.07234692
1374.77993897
1400.3219974
8.61187860873
9.62920483961
9.40040881803
1420.20807969
1436.27431665
19525.7651319
19528.3209333
17415.0103806
17361.4343242
19528.5088778
17376.560159
19525.7116743
19522.5701568
19520.9210133
16876.2906492
16902.471477
19521.9685564
19521.2239917
16877.0997437
19518.9078037
19516.3169599
16913.656418
16872.7583583
19518.9585595
16878.0417538
19516.0093175
19518.8142072
19514.4960848
16799.2342902
16844.4838192
19518.2093766
16838.0986606
19515.5244133
19516.6515751
19513.198406
16766.667979
16725.2174256
19517.4879116
16740.8479437
19511.8719281
19515.8104011
19509.8417146
16701.0922523
16690.2779598
19514.8449227
16719.4256302
19510.7755862
19554.5626143
19547.0197089
19540.4156169
19541.3328365
894.416934302
979.018103872
892.928134705
980.435398745
999.100064831
0.072405610257
0.599547484392
0.175714488237
-0.151810090838
0.0536518346968
-0.0923730760807
19569.2559345
19566.9490549
18284.7224628
18121.9549486
19559.7483227
17926.3405064
19562.1353251
19556.84804
18023.552544
17752.4106556
19547.4917601
19549.8468587
19543.6990995
17832.8329119
17162.9600538
17608.0395982
17178.5504305
19540.4417807
19539.5444132
17033.9692627
16902.1387388
17132.4900556
17049.2519881
19542.6455775
19542.1003755
17602.9400488
17227.0716591
17267.8096465
19540.5364785
19541.0281974
19541.9939573
17181.6087243
17093.6368857
17249.8500704
17224.0975526
17259.57401
17253.4626591
824.697150847
846.190159629
881.998399908
7.05048598561
10.585004319
8.20383994692
11.697105703
20.5978480048
28.4015182535
17.9474365302
23.9939972899
855.408376768
857.52959411
939.608521884
897.090698055
934.883919091
9.5260844285
12.0435037356
10.2962982376
11.8657159454
1069.8012797
973.181311182
1077.61908522
12.243115135
16.0213733929
11.1171131012
12.6335069293
933.813342186
936.836400485
9.71324475588
10.5027318817
10.5322452181
1073.69041549
990.393344585
1066.72399551
9.50549514459
9.36059653793
9.28512944634
8.45169866821
19573.8041697
19567.7613196
18437.2024486
18274.2576941
19566.4653504
18437.0618706
19574.4868423
19571.9226167
19559.7476452
18210.5645789
18300.9781831
19564.2672655
19568.1232094
18381.3770255
19542.978698
19549.6162757
18016.343596
17688.6032619
19554.351861
19537.6966106
17784.9308379
19556.5913097
19553.5486375
18189.8884352
17899.45204
19561.5934954
19548.2758942
18064.8974819
19550.918208
19539.6837063
17828.9209174
17886.5166239
19543.7082959
19546.550813
17979.2194595
19528.4856821
19544.3259369
17612.4089193
17711.324421
19532.442667
19539.250718
17513.2755621
19517.3849818
19506.7165982
17387.8105239
17113.5568565
19519.5643591
19505.6697047
17321.6017482
19524.8571496
19532.1614174
17658.9909166
17449.1205375
19534.8145738
19522.7359497
17480.206412
19514.5424956
19506.1418391
17155.0551405
17318.9400414
19505.1358902
19513.4871972
17317.3172903
19498.3628996
19499.4111863
16892.2430762
17021.962088
19498.5369275
19498.3000992
16935.0219221
19497.2910635
19500.7999089
16889.2674033
16934.4056882
19497.9798055
16910.7428518
19500.8490018
19500.7953058
19501.7310994
17074.6924302
17069.2911024
19500.643884
19502.4004034
17008.0716227
19500.0264762
19505.0327808
16987.1944292
17034.3112226
19502.0930627
16977.3036576
19502.8649125
19520.803382
19529.5981721
17468.2573734
17575.514746
19521.5923708
19528.2060786
17453.9120075
19514.174566
19508.0502351
17345.5940862
17253.5638007
19514.0411765
19508.6478509
17356.5338538
19515.292547
19512.6245695
17266.1633634
17335.6167869
19511.4557819
19515.6665955
17349.1378636
19505.741393
19504.9213428
17126.2555366
17217.948086
19504.8792315
19506.0366
17176.1725595
19506.8207138
19508.107892
17085.9587154
17147.6380195
19504.9727686
17135.9460379
19510.1938701
19508.4707357
19509.6441468
17239.5475777
17232.8314592
19509.021148
19510.3334798
17212.2853417
19509.7963951
19516.0456827
17188.5488951
17210.9087158
19512.3718291
17180.3523759
19513.210864
19513.7750449
19512.244785
17248.2726243
17261.5462533
19512.9214131
19513.1354225
17261.687484
19518.9762402
17239.9992548
19515.1919244
19546.9411223
19545.6170207
19544.9380351
19546.1023256
19546.7938427
19556.605303
19547.2689787
19545.8225734
19545.1438947
19545.589698
19545.7811298
19555.810254
19534.8726221
19539.8642618
19537.4518631
19542.3567104
19546.5623025
19549.784851
19555.1923586
19535.9309798
19537.0951756
19540.4349134
19542.5136694
19543.6404779
19544.2907584
19544.0797792
19543.0276721
19554.2216642
19542.9362811
19542.224585
19542.5159103
19543.2439056
19543.9701354
19544.3347533
19544.6195584
19556.9416071
19546.2199837
19544.8584216
19544.2248503
19544.3915989
19544.832523
19544.8889932
19544.9939726
19557.4230369
19545.0345777
19545.3739152
19545.9772692
19557.1521847
19532.7243015
19537.8553558
19540.2633322
19543.3195531
19547.1590065
19552.4356401
19595.067085
19467.5083694
19536.7562698
19540.2865466
19545.0264863
19545.3350993
19544.5410524
19542.6897564
19537.9869662
19533.7281884
19542.2056769
19542.7815176
19543.6841793
19543.8294896
19543.4482342
19542.6883071
19541.572972
19551.9409433
19546.3665439
19545.2381018
19544.7592093
19544.8305721
19544.7522433
19543.8657418
19542.4905551
19554.2959937
19544.9258355
19544.6644523
19544.4465135
19555.8325958
19530.1947504
19537.4203875
19541.9411303
19543.3970768
19544.6084987
19544.418957
19550.2931542
19471.1140095
19534.2933692
19540.7551164
19540.755314
19541.6278689
19540.9864924
19537.0504612
19524.9535878
19512.2745437
19543.0508055
19543.0132116
19543.1088524
19542.5233273
19541.6552515
19539.0933268
19532.5924695
19546.5680911
19548.794988
19547.3502127
19545.7274449
19544.6942992
19544.1010046
19543.2568297
19541.0368469
19536.7378811
19549.7596229
19548.0345087
19545.9715681
19544.8639769
19543.9220315
19542.6217925
19540.1815974
19552.7196932
19543.5652015
19541.6239732
19553.0101246
19532.5211836
19540.360949
19545.1547487
19547.4077233
19546.2747507
19546.2344346
19545.7729205
19516.1720043
19534.52979
19537.4356954
19541.1149881
19543.5749654
19543.4493889
19541.9093554
19540.8946642
19536.8958417
19523.1120636
19542.2015318
19543.9164824
19543.1393347
19543.2850453
19543.9840273
19542.7675554
19541.2783358
19540.3113651
19537.8905667
19538.1239671
19549.2806428
19548.392989
19546.4851284
19545.3395198
19544.4919482
19543.8397271
19542.2832354
19540.0877685
19542.8694398
19550.184754
19546.9235298
19545.8036833
19544.9539002
19543.3388213
19542.2798305
19544.2448652
19543.9722584
19543.0894884
19544.5144096
1216.85933204
1194.68665593
1212.20495394
1259.79176126
1350.5227031
1411.48738066
1443.58306808
1467.64887107
1161.28982595
1232.92716405
1233.91268119
1242.37229345
1263.32693368
1310.02369714
1367.50353588
1426.97851744
1477.05482953
1503.49394524
1149.63179158
1215.93693215
1203.72312782
1223.30148496
1260.23946274
1292.42507583
1330.96097111
1432.42786894
1493.39571333
1541.13061563
1167.74675094
1164.86433773
1184.32038733
1217.77866038
1240.84612398
1292.48837132
1390.89291848
1460.06566252
1511.78345433
1156.40950772
1192.8921709
1221.02383738
1312.68298806
1376.19109534
1419.87304852
1455.73501502
1401.69836392
1424.89048965
1421.64344616
0.163107532531
-0.0888819439636
-0.0885664207315
-0.110495473107
-0.0425158755021
0.430935597248
-0.0887585216102
-0.0946714043989
-0.259312227347
1.46811918417
1.10147681749
0.703724075366
-0.064707633933
-0.230800562072
-0.113441510361
1.21461937664
0.171903047876
-0.126977708361
-0.244732630408
0.817379590544
0.71651534084
0.00456222286769
-0.11386117346
-0.103373561061
-0.134899375209
-0.103525932607
1.64824572556
-0.136741778067
-0.304354677044
0.933370126764
0.0293910161526
-0.138363775346
-0.11315264437
-0.152279079371
-0.0916462294649
0.393061551269
-0.123164581406
-0.286008061902
1.04258480597
-0.111277034024
0.0102653913892
0.833653397715
-0.119928939838
-0.133845532765
-0.276282879474
1.13243992187
-0.111844142954
-0.275591513731
1.4639862888
19537.7051718
19535.3668135
19537.9955221
19534.1362831
19537.2709598
19534.8973209
19537.4589109
19541.1415827
19540.2598421
19541.8153663
19539.50637
19536.7714957
19539.2875754
19538.9998473
19538.6827663
19539.5838371
19539.9361
19536.8579508
19538.7883465
19539.1565022
19540.0683058
19541.740867
19540.8910321
19542.1208901
19540.5295476
19541.0916379
19541.5137222
19542.8638037
19535.8953149
19534.0140211
19536.6903968
19530.9833028
19534.9342041
19532.6701668
19536.2132362
19538.8600363
19538.1663644
19540.0355732
19537.1878571
19538.3393294
19538.0576459
19538.5925299
19538.7216081
19538.7792843
19539.9827452
19535.6741581
19538.4553263
19537.9295721
19539.3425873
19541.083647
19541.4441441
19545.4588556
19540.179976
19537.4631
19540.4972486
19544.1011432
19534.8690613
19532.25242
19536.2067401
19528.6245458
19535.3126878
19531.1426861
19536.5581278
19538.8290246
19538.6106398
19539.9129852
19538.7646201
19540.7827309
19539.4895322
19542.5152648
19538.0997347
19537.9468179
19539.4762388
19535.2707378
19538.4154135
19538.8100326
19540.2080442
19537.9598945
19540.6865402
19543.46627
19540.8100566
19541.2707602
19541.4797906
19544.0165793
19529.7012086
19533.0600321
17017.064577
17004.5600717
19536.6229453
19535.3376482
19538.0034318
17021.8074431
17096.0068359
17005.0036159
17055.6512136
19542.8361229
19540.790278
19542.7945385
17127.2232687
17176.1931269
17075.8181549
17112.2877178
19546.8311443
19544.3214629
19545.111371
17192.6565804
17254.3429393
17119.1030023
17106.6083678
19547.0239885
19545.171799
19544.4431111
17234.8721706
17069.4455949
17063.308429
16840.7308903
19545.6311053
19543.5727919
19543.1882041
16977.7565432
16752.0429244
16771.1805346
16690.073099
19546.9867577
19543.472204
19543.8286205
16761.6384179
16821.8321297
16701.9757131
16727.5921361
19535.4099835
19542.7435991
19534.1291422
16816.2170458
16629.3870706
16721.7922029
16443.7709114
19496.5918818
19517.506106
19520.2430815
16675.4910645
16001.2593726
16515.7032062
16459.5763587
19539.768814
19539.5947672
16915.6354997
17048.7673116
17064.1431495
17166.2548409
19535.9642177
19539.9386133
19539.7202609
17041.5295338
17012.1822708
17169.7701753
17136.8123161
19539.3445351
19539.9245456
19540.7855235
17008.1374161
17041.656145
17118.3404993
17064.7583603
19542.6494905
19542.0600831
19543.4595318
17056.0602429
17097.3493
17062.959633
17076.5266173
19543.6939271
19544.3251557
19544.1668691
17102.4845423
17051.7979632
17072.4010394
16956.0163527
19542.7294988
19543.1513534
19542.0156166
17003.7840586
16809.0971572
16909.2445728
16813.4093435
19541.3319193
19541.2262362
19540.5559242
16763.2237375
16726.8977804
16783.2906866
16736.2448428
19539.8602262
19540.0129605
19538.9316677
16725.2097379
16682.0011748
16720.0640987
16640.191295
19531.4681281
19536.8806262
19533.9681258
16667.3128435
16408.4741358
16617.5930073
16405.9857574
19540.7438622
19530.8984478
19550.6070263
16485.774817
16488.6891548
16482.2762947
16488.4009339
19543.4583537
19544.3262801
19546.2197689
17105.5784427
17193.1105474
17249.5329045
17316.6862976
19543.64663
19546.9444871
19547.0024598
17208.3182107
17182.1968436
17340.3887648
17325.5711044
19542.8535819
19546.1129228
19545.0553247
17162.9459218
17100.1428358
17287.2925336
17148.4823831
19543.8210905
19544.6455099
19544.5757537
17096.0723477
17095.7294461
17139.8552166
17139.810918
19543.6111615
19544.4871191
19544.0559773
17078.510075
16973.1595188
17120.3803592
17043.4412843
19541.989115
19543.4904142
19543.0340232
16934.59168
16821.9661313
17021.2248941
16971.2679357
19540.7886596
19542.7338866
19542.1623569
16796.3857641
16762.7109985
16955.4592973
16900.4516725
19539.3066673
19541.2979878
19540.2656933
16734.0808655
16601.4266028
16842.5494395
16631.5399407
19537.262907
19539.0142552
19539.1823102
16579.2493982
16463.1303499
16602.1451472
16547.7306579
19554.3197859
19540.9213628
19555.7192118
16528.080759
16506.2867413
16606.1584318
16509.810661
17278.7540468
17337.3367342
19549.3250613
19551.2386007
17363.0946374
17349.9250027
17433.7279536
19547.1867953
19550.6225025
19549.6314736
17312.9334282
17208.6141346
17418.9901013
17385.2292581
19545.8681009
19548.7006283
19547.4782444
17193.1484606
17162.7007658
17370.9483226
17262.7735967
19544.8826316
19546.3605911
19545.6887398
17140.5401135
17066.5161749
17209.9004375
17125.1790914
19544.2067209
19545.3902582
19545.2743537
17047.1797601
16999.9524476
17126.1863564
17104.8058791
19543.3098753
19545.0483529
19544.1477511
16985.0483432
16914.89892
17093.4205002
16888.8916336
19541.1141557
19542.9400395
19541.9179936
16851.1162025
16657.200401
16832.3712606
16733.4895661
19540.7253513
19541.3390176
19541.8830919
16629.1222361
16577.0540743
16723.8094951
16634.5488472
19556.2784244
19543.8421413
19556.2111224
16635.2037403
16505.7555777
16693.9798012
16518.4710936
19548.4587976
19549.0670602
17402.411906
17253.2937138
17188.94365
19546.1280013
19547.3247133
19546.3184628
17204.771616
17170.4525546
17135.9561855
17118.266922
19545.6011657
19546.001272
19545.740789
17167.8960345
17087.1710549
17136.3050981
17003.3753103
19544.1109224
19545.1237644
19544.4186791
17028.4053769
16901.1349419
16932.703098
16863.0333268
19542.6921011
19543.7800209
19543.2813509
16872.853688
16751.5780715
16850.4977096
16788.7265744
19542.5491919
19542.9072416
19543.0621262
16739.2682145
16633.8398651
16790.4850819
16667.8305764
19555.9809399
19544.2840439
19555.4339682
16701.1716157
16515.2819192
16739.9086467
16548.3890223
19544.5220127
16838.8590783
19543.4565244
16822.6898184
16775.9510678
19543.2795381
16778.2870949
16657.5733356
19555.1562409
16731.7940847
16569.0630188
13.9634741257
4.22880416635
16.0940780643
5.00765538392
1200.25579417
1231.76583526
1.06327910661
0.957031091262
1.30055978396
1.22520833405
1207.90733924
1236.10855504
1225.67117236
1.39081282948
1.53348365077
1.92833088439
1.8133041329
1197.39136352
1217.94999717
1220.72458811
1.47254642346
1.01559063505
1.61989058727
1.00965740264
1227.31684296
1236.59652139
1259.74533531
1.16369872085
3.51790326432
1.32955325189
6.54719898617
1301.86972489
1291.73144264
1329.76810805
10.7273262728
18.7040204261
15.342168647
21.582307232
1389.46943661
1371.37627132
1399.49844113
19.7029905478
19.6933203473
19.8298458054
18.0129522284
1424.90876735
1420.07847228
1434.39017337
14.6207434085
9.26609104787
12.2024761953
7.99616184784
1479.43638419
1452.83138876
1505.66946844
8.16250496524
9.19206928397
7.93407682403
10.2470630011
1514.86639687
1470.81060935
1564.15997686
17.5140260584
50.6167308864
17.2359608264
25.9343571791
1215.26209276
1159.49723869
1219.94795154
24.9252737601
14.3207171646
24.0497708034
14.0043435277
1229.19245578
1231.99790528
1221.66204966
9.43250321119
8.26938685072
4.6201978008
3.31896881259
1233.99857259
1223.14193949
1229.38822081
5.25440189711
2.90898069807
2.69285242104
1.92475705244
1247.77739139
1244.34185457
1258.72658441
0.943607853088
0.815015248408
1.34966571322
1.34978505435
1285.16993174
1271.59620203
1293.38009529
1.52051166458
6.83297416912
3.6111187689
7.79171034772
1333.10479417
1305.61172896
1319.7932908
19.4070022274
29.0015642459
18.0138563124
27.8976222133
1396.19969566
1360.09522553
1398.18796053
24.5127126161
19.1457222861
25.235577472
17.3929186421
1455.90657852
1435.91092279
1470.70845822
8.97374898743
6.83466734233
8.10438911624
7.05912515869
1525.63809807
1492.75942362
1533.61190242
7.41361574634
10.8617122727
8.43952371228
11.7637219305
1593.65693033
1528.85830648
1601.89773297
16.1249199431
20.1495774517
16.419907715
21.4899903278
1210.89300533
1132.41237301
1192.34329689
17.5543591429
6.2509745873
15.2095255358
6.37533971099
1208.35682976
1189.28752796
1186.02044028
0.681016200344
0.618693264094
0.597212620532
0.520004806933
1208.48081664
1184.42524997
1195.39349838
0.973688038337
1.13380521979
0.927957763768
1.59373962472
1242.56603884
1209.03906401
1225.59191189
1.80791230127
2.23216473267
2.42035928076
2.801575811
1277.57381917
1238.76086139
1249.05036359
4.20240174818
6.70069075708
3.53196571913
4.77114115333
1312.40409604
1258.95100078
1278.37669555
8.53656412079
12.0878868537
6.7727273575
9.94531615812
1382.35380983
1298.19727461
1361.06452062
33.639767255
25.2811490428
27.9323330001
23.4428023922
1468.45556973
1417.92258833
1453.51164372
9.42090523313
8.33700498214
9.12292138338
7.92402558644
1527.9290274
1480.91143226
1511.04445274
9.36229354693
11.3767675214
8.66996613561
9.70395368554
1598.89832688
1533.033773
1580.00745136
16.6208850669
24.1128590481
15.438056223
27.0890350375
1163.01772257
1141.47579672
0.678801872676
0.627020158272
0.700793212916
1170.82532736
1137.72425317
1140.90911467
1.38525555303
1.87845482008
1.31891380498
1.39207353427
1202.96132187
1158.41384186
1184.98232903
2.43212677283
2.56223594733
1.99662550732
2.69277434327
1228.81693598
1201.43759326
1217.04025231
3.18353863903
4.45611828423
4.79907970961
7.41601841956
1257.73676789
1234.34406796
1249.43138233
6.4820221927
10.2767847747
8.07440375235
9.2160947507
1339.29027671
1278.90582122
1335.40406632
17.6710514244
18.2268546368
14.3529344308
13.2192247845
1429.26143179
1378.22594811
1412.9537249
8.42124965817
7.39186588481
7.36897339703
6.48716084568
1493.12161276
1434.75186837
1474.64478194
7.60862427263
8.44891539902
6.39865615202
7.46917638848
1557.59923958
1483.90606206
1532.79498126
14.0004444481
29.2997823305
12.5959610296
32.5833945652
1184.49877224
1203.7172818
2.44801513448
4.51417265262
3.85885905009
7.38922569748
1199.41737249
1211.40106089
1219.25798108
9.84078258125
14.7861051511
13.6534752669
19.8399630614
1266.1079554
1233.56256544
1286.2233862
20.6661179679
13.7781391349
24.7925384732
12.0897593818
1349.53370184
1335.7774403
1366.08944117
6.56193739337
6.35447809432
6.81754511063
6.81490748443
1402.27236978
1387.73219694
1405.44058771
6.8081771944
6.91339842488
7.16618737798
7.26577201575
1464.65774042
1418.14333583
1451.68576608
6.41983889633
7.45379576313
6.47792143494
6.80711754601
1508.2112545
1435.03921855
1487.64479635
11.740236489
33.5583308421
10.6525684672
34.6004647179
1381.34942635
8.62022421967
1416.5459542
8.39728662381
8.45372102044
9.55431740098
9.88977153376
1451.24397317
7.45889294315
7.58617330745
8.98733695892
9.1476736586
1470.60499728
11.2013593281
38.7868823979
12.468320294
39.3790878205
19519.5441853
19520.2034645
17025.7736791
16997.5429232
19519.5299455
16997.1901927
19519.8784901
19519.4967647
19519.1716985
16987.9037007
17009.8668675
19519.2139708
19519.2609789
16987.1730927
19517.410848
19519.5576701
17036.0343529
17003.2504271
19518.5120576
17016.8288713
19518.3386476
19517.9200329
19519.6363841
17064.1665821
17086.1871233
19518.7828546
17046.7363621
19518.5022662
19517.2854751
19519.0233311
16995.7594371
17009.1699493
19518.2515984
19518.2743406
17014.3403256
19517.5236049
19519.4325759
17076.6618344
17030.2901931
19518.5526262
19518.467077
17043.2982384
19521.9956861
19521.0739959
17151.9339768
17115.8399074
19520.1823697
17133.9171326
19522.4266775
19523.109361
19524.1820452
17169.7283647
17161.5622794
19524.0623484
17153.1543825
19523.471764
19521.5042392
19520.5549999
17105.2646846
17090.8149843
19519.9501788
19521.5353725
17120.4761517
19522.4199723
19522.7549921
17141.7123372
17110.4089388
19523.0763835
19522.2850964
17134.3079805
19525.2546906
19524.6166322
17218.9611044
17175.0621717
19524.6972717
17189.1303012
19525.498239
19526.0797527
19527.4770207
17242.2909258
17213.2330228
19526.0506494
17204.0828958
19526.7254505
19523.4182361
19522.6544831
17154.4770055
17129.6276855
19523.2884414
19522.356761
17164.8446824
19523.6242386
19518.7431232
17157.9920186
17125.484342
19522.3415247
19521.3248139
17170.464046
19523.0809275
19527.0531712
17206.9080048
17192.6068874
19524.9609746
17155.8405793
19525.5095049
19521.3888782
19522.6931469
17143.7824875
16998.0751389
19519.1981862
17085.0641041
19524.4364154
19517.6523561
19515.3315015
17120.9009598
17002.6905505
19520.0708164
19511.7107489
17074.8075186
19516.2631508
19509.4996453
16919.0045078
16920.872504
19515.1726376
19510.203843
17000.0377921
19515.2384566
19520.5833805
16877.6699055
16903.4609219
19517.0972652
16814.911216
19517.7004185
19513.3646205
19514.2949415
16806.4494548
16716.7768334
19513.0832197
16753.5478165
19514.7981928
19512.6003691
19509.1947382
16834.8451542
16709.6120028
19513.776878
19509.3397667
16759.1640906
19511.3020877
19510.2906713
16708.2793545
16692.3323959
19511.9445139
19509.3931185
16729.9750971
19514.511411
19514.8294687
16779.6315286
16731.8591376
19513.6749994
16754.35041
19515.7968485
19513.8502998
19512.5262784
16818.1585481
16798.7421568
19511.0481907
16786.7225386
19515.5266184
19513.2035387
19510.8938598
16723.9222176
16717.9485653
19512.725275
19511.1595064
16744.4569391
19512.0327104
19506.9018062
16773.7705459
16725.2711451
19508.8980367
19509.7926251
16770.1454997
19502.1985681
19507.3118422
16805.658733
16792.2150061
19506.3380876
16773.7084546
19504.9116681
19496.1874202
19496.7193322
16730.7065858
16550.524367
19491.4979257
16676.9820665
19501.1088913
19500.1594302
19502.4713703
16763.2735249
16711.8389223
19504.4814014
19497.6531978
16741.0388365
19492.9549261
19484.8338512
16476.8557199
16600.5696233
19488.313803
19489.4921943
16624.0059478
19464.4325575
19485.8249207
16572.678414
16596.1852987
19481.8986779
16520.8831029
19464.5576291
19416.1415453
19408.5660513
16037.552251
16374.2653709
16060.6367493
19438.7428965
19397.8101599
19465.6052919
19478.5711014
16553.1134807
16483.4083032
19480.6338264
19466.5440282
16500.1246463
19425.4955066
19469.477052
16420.9613759
15992.0926578
19434.1056436
15950.8112999
19456.325199
19510.9557419
19505.4224934
16951.0154192
16952.803227
19509.8040362
16991.4358841
19505.5723352
19514.1221486
19515.173551
17005.7203562
17100.8942812
19512.4959649
19516.9772402
17045.5332141
19511.3004529
19509.251175
16999.3726592
17084.779912
19514.323954
17026.2554733
19506.8377844
19515.1362462
19521.8504456
17119.4461509
17112.0670029
19518.2911849
19518.3803698
17067.0598326
19519.4688669
19516.8776685
17034.163286
17097.0902146
19517.6993658
19519.1187743
17088.5239835
19519.0287009
19517.145032
17024.1452331
17056.612038
19517.5997236
19518.3450154
17075.1530288
19520.583094
19523.7005042
17122.2032301
17164.0370527
19520.387498
19523.5368869
17116.061148
19519.9760539
19521.743103
17088.2794526
17153.2373808
19519.1460847
19522.7956541
17105.9464883
19516.8865916
19516.5849919
17009.5856689
17039.9602823
19515.6675363
19517.6445992
17025.9636075
19516.3320509
19515.854657
17021.4726863
17032.8261875
19515.5068719
19515.9687578
17028.8681911
19516.4440963
19520.3739665
17068.2686514
17095.4198385
19518.0464363
19518.4495952
17047.6995728
19515.0114503
19514.9690026
17045.0441734
17079.6483624
19513.9044769
19516.5702402
17045.9048682
19514.487499
19515.9878275
17069.2037221
17037.7617391
19515.6052633
19515.4838115
17040.8817081
19513.1100741
19514.5528234
17089.3173957
17064.8759114
19515.0935809
19511.8629277
17052.4848197
19511.1968529
19513.7081093
17044.9300742
17061.9467112
19512.7701017
19512.2439269
17044.2366473
19509.9058514
19510.5090149
17068.8129986
17065.9334834
19509.2409549
19511.0147668
17052.2972227
19509.4778335
19513.9366561
17103.3872055
17077.4810272
19512.6153449
19511.1586046
17082.7678525
19506.4373667
19506.9259237
17084.816592
17013.6180636
19510.4361362
19501.5283037
17060.2411863
19507.5370152
19509.7072862
17076.3714431
17052.7923838
19508.9512186
19507.7441724
17066.7000776
19505.0063954
19501.221566
16975.6868044
17010.2870498
19501.2906173
19504.8146005
17027.9845929
19494.9951648
19503.5991733
16944.2133175
16952.4308221
19500.9865748
19496.9899986
16889.4174885
19494.3115947
19500.3689353
16876.3437051
16775.4417034
19499.9414879
19495.3381291
16830.7903371
19498.6075105
19499.9367212
16927.0011139
16866.9235818
19499.3943278
19499.7557839
16876.1689227
19499.0313427
19502.2546892
16805.2910872
16840.0202939
19500.9072781
19500.6866709
16841.5044853
19499.2256129
19501.2329193
16716.6883729
16737.5412457
19502.5696918
19497.0740281
16724.4139517
19499.9192493
19502.7180984
16721.3204506
16714.1025767
19502.8881478
19499.9839577
16720.05104
19503.7466806
19503.4785196
16776.9774638
16762.9948872
19502.7548085
19504.403152
16757.002554
19504.0924331
19504.2128531
16717.5779955
16749.1926276
19504.1100208
19504.618242
16739.0315934
19496.7221168
19501.6547738
16710.0170729
16705.9532943
19500.6243364
19498.9672539
16693.1313004
19493.8457121
19495.273985
16690.4509669
16662.2914219
19498.6084412
19490.1350234
16675.2338013
19500.4874997
19502.7688983
16699.3935013
16700.3241859
19502.8986188
19500.4885999
16683.4232672
19497.174753
19493.1930597
16631.2769191
16671.0719067
19493.4208424
19497.2154769
16658.862279
19482.4118276
19490.927978
16656.8215394
16650.1615889
19486.3483668
19486.0260526
16642.1067953
19475.7894129
19472.6845072
16554.8610002
16393.153699
19478.5242319
19470.4996281
16540.4340324
19485.3027006
19489.8202254
16607.0472538
16581.650356
19489.2388427
19486.5542994
16588.6338874
19478.7006076
19477.2654079
16407.222006
16502.8321277
19474.3192411
19480.8838743
16510.3205845
19456.5219278
19467.0824522
16474.6727036
16471.1985695
19457.1176927
19465.5751952
16466.7370003
19433.8921553
19471.8890254
16011.6689075
16482.789995
19432.2571157
16032.7889775
19475.0229402
19464.0313351
19474.1608369
16482.9850398
16478.0652377
19470.9964386
19466.7714375
16479.5413469
19446.5705234
19486.3579231
16493.4577482
16067.5473623
19448.0063089
16068.0895228
19485.1278173
19519.5092756
19512.3030251
17123.9728145
17162.2894978
19517.2029976
17182.62148
19514.5939855
19524.0100808
19525.1520731
17148.3668843
17235.3264713
19521.4938146
19527.3632172
17200.6837237
19522.8184219
19520.7326377
17203.1704746
17279.2998953
19526.0458152
17222.4806476
19517.7461972
19527.4961274
19532.5390572
17270.5491607
17294.3951095
19530.6094273
19530.0767638
17240.1030668
19528.3297698
19526.3580667
17205.1436666
17253.3117
19525.9177341
19528.6426604
17259.4625854
19527.4300118
19523.5390665
17197.1484794
17240.1803202
19524.9522637
19525.8500471
17253.6721298
19530.7292062
19533.1456219
17291.7925067
17351.6897882
19531.1675657
19532.840116
17297.8088168
19529.6359083
19529.4805016
17279.5022602
17346.8481781
19527.7031931
19531.7519925
17292.7823787
19521.676124
19521.9672542
17133.5020592
17214.4664699
19519.8420747
19523.9592855
17186.4915107
19519.6765794
19515.9974283
17114.3226371
17124.2905975
19517.492891
19517.9610895
17160.1214554
19522.8568543
19527.105531
17251.2448656
17239.2046352
19525.5739418
19524.3634501
17217.1297141
19520.5161343
19520.1901057
17126.7019643
17192.1383351
19518.8443958
19522.0245667
17174.0612868
19517.5847313
19515.7474909
17089.2285579
17112.0257208
19515.7503566
19517.5549413
17103.8854783
19517.5441054
19515.2407964
17090.4757183
17102.065945
19515.6935137
19516.7563316
17106.6905995
19519.4294026
19520.2180382
17112.6723535
17133.5768912
19518.8704255
19520.8929699
17113.1019117
19520.1824739
19521.2183354
17123.4443751
17137.0938227
19520.2348894
19521.3703606
17117.4705318
19513.6046021