/*--------------------------------*- C++ -*----------------------------------*\
| =========                 |                                                 |
| \\      /  F ield         | OpenFOAM: The Open Source CFD Toolbox           |
|  \\    /   O peration     | Version:  v1906                                 |
|   \\  /    A nd           | Web:      www.OpenFOAM.com                      |
|    \\/     M anipulation  |                                                 |
\*---------------------------------------------------------------------------*/
FoamFile
{
    version     2.0;
    format      ascii;
    class       surfaceScalarField;
    location    "10.7";
    object      phi;
}
// * * * * * * * * * * * * * * * * * * * * * * * * * * * * * * * * * * * * * //

dimensions      [0 3 -1 0 0 0 0];
oriented        oriented;


internalField   nonuniform List<scalar> 
92311
(
0.203913241888
-0.000180233018699
-0.00103566579406
-0.203610800958
0.000913458246032
-0.000202519329852
0.204115626447
-0.000722625242993
0.000722799022119
0.203955296731
-0.000403834158778
-0.00108011010013
-0.203630066897
0.000978536264894
-0.000424236872886
0.20418312583
-0.000686485745952
0.000680526411551
0.204011871838
-0.000206399499552
-0.000297492190094
-0.000965952193194
-0.203412104887
0.000974556613026
-0.000206569035486
-0.000301740153235
-0.000272108979457
-0.000205839923133
-0.000220694280788
0.204433048724
-0.000531028498154
0.000674186433361
-0.000289856605539
0.0511337793353
-8.14773988634e-05
-0.000104524737639
-8.2708415343e-05
-0.000101372338837
-0.000265221331615
-0.0509863587009
0.00028152685087
-0.051257375373
0.0513192152361
-8.86726626944e-05
-9.90929973018e-05
-0.000102418678257
-8.25494372301e-05
-0.00015276135561
0.000191570134989
6.28571583501e-05
-0.0031231718774
8.02282885363e-05
7.57937989111e-05
9.99197574935e-05
-0.00154392386448
0.000231131105372
0.00244884142579
0.00166822855709
-0.0174586573808
0.00318365414902
0.000807775780957
0.0136928505754
2.42765038026e-05
4.18751928486e-05
3.05494697024e-05
5.59854811768e-05
-0.000378286873616
-0.0370302799818
0.00435382531486
0.00471432516381
0.00562869336816
-0.0372483849961
0.0655350872493
0.0779579086038
0.00333004657568
-0.000107051911526
-0.000111715403565
-0.00011740700634
-0.000107471926105
-0.000181803576299
0.000204422653849
9.94082931544e-05
0.0117610869949
-0.000126131896834
0.000103399702046
-0.0117748972489
0.0117621424958
-0.000124631671966
0.000131372599344
-0.0117512867548
-0.000109401524611
9.17915330333e-05
0.000175336296698
-5.32493312861e-05
0.0513159428323
-4.67081139301e-05
-7.02514572263e-05
-6.43212739297e-05
-0.000143271992784
-4.58096084406e-05
0.0512848020888
-4.89500753841e-05
-7.1200391547e-05
-7.43907606342e-05
-0.051280303829
0.000190516811639
-9.58014282935e-05
0.000111347015885
0.0117594892263
-0.000100126831841
8.72287713195e-05
3.60583405332e-05
0.0128314954365
-3.62516492491e-05
-4.00117404074e-05
-0.0128445435371
0.0128310546593
3.74165472881e-05
-3.15958353978e-05
-0.0128466189122
-0.000146933547452
0.204062405973
-0.00179013314372
0.00157636316492
-0.203701702167
0.204200158339
-8.94169198145e-05
-0.000263331869243
0.000268600881597
-7.72232872843e-05
0.204334940665
-0.000127482312621
7.03230257543e-05
-0.00026428399305
0.204054345989
-0.00174414881684
0.00154548581742
-0.203738307948
0.204354943526
-0.000208061817509
-0.000387041673774
0.000334207031099
-0.000113617830988
0.204495366478
-0.000166500389446
6.28518531114e-05
-0.000170321406307
-0.000170986366181
-0.000161390680118
-0.00157399185368
0.203913079862
0.00145659824809
-0.203395190406
-0.000162059836198
-0.000127337739285
-0.000105000206908
-0.000118262289726
-9.33928618334e-05
0.204594540609
-0.000202524646104
0.000276901264991
0.0510499872648
-6.18349621895e-05
-5.22838660082e-05
-6.3603934471e-05
-5.31079697052e-05
-0.000404265003477
-0.0509792301261
0.000394039750655
0.0513122008321
0.000148911302402
-4.60237909688e-05
-3.83359199063e-05
-3.63109250241e-05
-3.61760736816e-05
-0.000115686818276
0.00228304777116
0.000699305954886
-0.0190051444507
2.8084058815e-05
3.02779949534e-05
3.01944344889e-05
2.79298294864e-05
-0.00155233949214
0.00139699956455
0.00273224237405
0.00338691922171
-0.0339598694002
0.017272233919
0.0674539174133
0.0164905806283
0.00148436083539
0.0040402579393
0.00233206718713
0.00475787955118
0.0028428559937
-0.0115613212227
0.0318397204391
-0.00692697059146
0.000309931971103
-6.7290625209e-05
-7.34318100014e-05
-6.68131112767e-05
-7.41511544923e-05
0.0511643786245
-0.000313633448958
-6.29057644643e-05
-7.28950617647e-05
-6.24746955229e-05
-7.13775226173e-05
0.0510711808885
0.000303835103815
-0.050956880939
1.62291396563e-06
6.30382908752e-05
0.0118847796658
2.54304653297e-05
-7.3472093766e-05
-0.0119013353585
5.824282586e-06
9.46441118331e-05
-0.0118222561955
1.43889416469e-05
-6.6416637999e-05
0.0117739260052
-7.79816240812e-05
0.0127317605445
-7.44981752081e-05
7.9038728451e-05
-0.0127212247405
9.17026629081e-05
-3.40025786296e-05
-3.56115400638e-05
-3.50926925854e-05
-2.68912324066e-05
0.0513178182715
-7.07079828851e-05
0.0512651973692
-3.24547744173e-05
-1.82611435711e-05
-3.83020108458e-05
-1.89070241276e-05
0.00015819133523
-2.09419617294e-05
-1.77438779146e-05
-2.10800028284e-05
-2.43356441341e-05
0.0512291397712
0.000118508230791
4.0090669799e-05
-4.51369395166e-05
-2.78899115947e-05
0.0128183823469
-6.38300186985e-05
3.69910292864e-05
-0.0117004270853
3.6745076901e-05
0.0117045331514
-1.40227583411e-05
4.31635771537e-05
-2.05242132957e-05
0.0128160315819
-0.0128012523435
-1.31113198235e-06
0.0127856368179
-4.21022894621e-05
3.81324356687e-05
-0.00801699224287
0.000127747724406
0.000139695263912
0.000134884878423
-0.000489063926663
0.0028643094293
0.00199189547809
0.00108387883843
2.58458242069e-05
3.11291112208e-05
6.31262515819e-05
4.70263025948e-05
-0.0123148805127
0.0051899945982
0.00905756784067
-0.00292105529712
-0.0150487464135
0.019099251744
0.00430706168343
0.0159326725459
-0.0118509778464
-0.00148300903441
0.00148097985555
6.35306271191e-05
0.000114702454759
9.39886934593e-05
0.000354774961117
0.00347262516646
0.000190894789092
0.0178276478195
0.00502704024352
6.06629171906e-05
0.0127633673584
-6.37094769932e-05
-0.0127424183636
-0.0127549919421
-0.000138409155552
-5.17495375088e-05
0.0127840976053
5.65251353736e-05
-0.000125277792429
0.000129988944462
0.0117361849141
0.000100330054951
0.000109139977801
0.0117695860112
-0.0117807341433
-0.000148392590249
-0.0127330097596
6.51623666333e-05
0.0117486148869
-0.000142776585539
0.0127951603123
-5.49123315241e-05
0.0128131201448
-0.000141471319389
-4.61687397176e-05
5.1607315856e-05
4.07878741754e-05
-0.0128239359999
0.0128467607671
-4.38015731902e-05
-0.000117945962202
0.000134767941087
9.59423320262e-05
0.000144784783155
-0.0117604016551
0.0117715827965
-0.000125631333868
0.0128365557091
4.49055165488e-05
-0.000136138213852
-4.74464831706e-05
-0.0128559392089
-9.07532215153e-05
-2.96199475629e-05
0.012852828249
3.48249157484e-05
3.07749624715e-05
0.0128623415926
-3.39917094733e-05
-9.42014753845e-05
7.05282826277e-05
0.0117620268788
8.46538309167e-05
0.000126508438175
0.0117710062079
-0.000111337397751
3.56687966002e-05
0.011777179075
-9.72151349187e-05
0.0128538178593
-3.2946265939e-05
-3.36446370749e-05
-0.0128388555315
0.0128257803353
-3.62570145447e-05
-5.40388854797e-05
-0.0117500005433
0.0117364774746
5.81298941054e-05
-0.0117632835143
-4.32799178237e-05
0.0117543858293
-6.5007864678e-05
-3.29511678668e-05
3.60236351587e-05
-7.47858917092e-05
4.80009846358e-05
6.9392397057e-05
-6.99765355584e-05
-3.42363791442e-05
-2.97466877151e-05
-0.0128465642795
0.0128300524779
3.47384439153e-05
-4.73430312836e-05
-0.0118019026738
0.0118002656617
-0.0118250937196
0.0118299654528
-5.07984476669e-05
3.77962858695e-05
-6.67571148231e-05
-0.0128528191
7.14505373857e-05
7.83671711229e-05
-0.0118308447345
-8.09857433704e-05
-0.0128477052486
3.60582167438e-05
-0.011813186645
0.00191364666501
-0.0023938027494
4.96501644509e-06
1.30417638263e-05
6.73693926015e-06
1.21601100966e-07
0.000150204822488
-0.00123730731117
0.00154222748051
-0.0114458708554
-0.00922693581537
0.0185119146342
0.00546769326599
-0.000604031373717
0.00143181693104
1.32928894025e-06
-8.66189717036e-07
8.13337539651e-07
-0.00404283446723
0.00249811356152
0.000717079589014
0.00068735665256
-7.34941638481e-06
-5.7070203773e-06
-9.73146875555e-06
-0.00182226244283
-0.00183495055889
-0.00741364091721
-0.00687396329826
0.0079437951023
0.010505246756
-0.00497013006904
-0.0098242312503
0.000736492598353
-0.0133843533579
3.79352510307e-06
-4.60880785397e-07
-1.53907387161e-05
-3.20463498388e-06
0.00263115183297
0.00404263888664
-0.0107539524828
-0.00356307656317
-0.00937606969238
0.00459780713053
0.000576176839087
0.00154205941507
-5.70968787797e-06
2.19129103218e-06
2.20138628413e-05
1.51939793625e-05
-0.0131620735778
-0.00237486302678
0.00541272786767
-0.00735107459172
-0.00348638360153
0.000583275756426
5.37544589287e-05
3.69984624903e-05
4.08728075076e-05
-0.0179801195177
-0.000261613071598
-0.00730857157944
0.00676965217533
-8.67544242533e-05
-0.0127358422155
-7.58608414205e-05
0.0127472005662
8.94217663404e-05
0.0127498804408
9.94022432203e-05
-0.000100515848815
-0.0127380047736
7.82430480631e-05
2.20351256639e-05
0.0118618925454
-7.60090828486e-05
6.15734683731e-05
0.0118853877566
-0.0119031146881
-1.92386597357e-05
0.0127613812788
-8.36943052947e-05
-0.0127272600324
9.92655947004e-05
0.0118602953942
-2.78627750924e-05
-6.77245573094e-05
0.0127586188022
-8.43286673727e-05
7.33048045057e-05
-0.0127742384739
5.50497498557e-05
-4.62083860896e-05
0.0127865542793
8.50770509729e-05
2.00990483537e-05
-7.28975812772e-05
9.73329394467e-05
-0.0118181559133
-3.89531489893e-05
0.0117684854882
-6.24257839666e-05
6.48749450273e-05
0.0127718064304
-3.1853656311e-05
0.0118121822233
6.50525661474e-05
-0.0001003406109
-0.0118498817486
9.74180973283e-05
7.10948053408e-05
0.0117622501479
-0.000105494301211
-6.72557671094e-05
0.0127500498356
7.33818983332e-05
0.0127440231795
-7.49894912323e-05
-0.0127327968115
9.21890825814e-05
-0.0118149774116
0.0117616269947
0.0127623726452
-0.0118566472311
-3.04885740599e-05
0.0128165435276
-4.37563573352e-05
-3.06477853013e-05
0.0117235419188
4.11731768838e-05
0.0117403941444
-1.42741305329e-05
-4.88246647809e-05
-2.27393199386e-05
0.0128123512182
4.12732588837e-05
3.60460166046e-05
-7.22658058221e-06
0.0117011097123
2.3770269657e-05
0.0128156001064
-4.80148579735e-05
0.0117197798156
1.85792237631e-05
-4.47419311078e-05
0.0128069029949
-1.97400325288e-05
3.59191048609e-05
-0.0128187999463
3.60640365948e-05
0.0128229766836
-3.88310774902e-05
3.82749049723e-05
9.99539103244e-06
6.17208119914e-06
1.91803205802e-05
-0.0117134674403
5.86854574188e-05
0.0117093323306
-4.46960892029e-05
2.61636028841e-05
0.0128091362157
3.74557318706e-05
-0.0128136712054
-2.20906376575e-06
-4.45145145558e-05
4.08683313249e-05
-1.97091916538e-05
4.08519039479e-05
-1.46050429632e-05
0.0117839102505
0.0118098301886
-1.46355695894e-05
-2.04067611417e-05
0.011792271503
2.04113324827e-05
-1.02084581124e-05
0.0128040017753
0.0117686353335
0.0117809835665
-4.2020030861e-05
4.62826189052e-05
1.21568466862e-05
-6.50952136723e-05
0.0117659430855
7.0165250695e-05
-3.33211874039e-05
0.0127791350668
3.42446238002e-05
0.0127945064625
-1.78215329901e-05
2.90348751223e-05
-0.0117614541141
0.0117480244295
0.0127920318908
-0.000116052439754
-0.000115406165502
-0.000129003204124
4.64559485386e-05
0.204893289413
-0.00012865836247
3.03536237355e-05
4.55322214667e-05
-3.21661767123e-05
-3.66460110226e-05
-3.67256084484e-05
-3.02866793041e-05
-2.38484038593e-05
0.051315927003
6.19065943596e-05
-0.00453137019365
0.000678093192773
5.5903027185e-05
4.89352364652e-05
5.11773001614e-05
0.00151573269141
-0.0158605078794
0.00460501231122
0.0055156097281
0.00584980711169
0.0332177157112
0.0150178299659
0.00494621968003
0.00637049705388
-9.14261228429e-05
-7.74979585471e-05
-7.49442667857e-05
-9.47931248478e-05
0.000192473175604
-0.000243021259419
0.0511951850038
-5.96942748479e-05
0.000104728191749
7.17485611192e-05
0.0117487836394
0.0512262021329
-4.27170936404e-05
-3.13232360224e-05
-3.51524089743e-05
-3.93009306816e-05
8.16596549674e-05
0.0512413200032
-4.50708787754e-05
-5.19578515854e-05
-4.93471464876e-05
-4.38650459086e-05
3.71362779981e-05
9.06918808375e-06
3.09349304028e-05
0.0117088808791
4.49256472197e-05
-1.83130083245e-05
-2.59297771371e-05
2.9111157258e-05
-8.14875129869e-05
0.0117619564415
8.22937476843e-05
0.0117447472401
-5.31537594232e-05
5.84378606559e-05
-6.78980667591e-05
-0.0117484533383
6.67587405875e-05
0.051262515466
-3.81817074855e-05
-4.68777868667e-05
-4.30088318822e-05
-4.50549306913e-05
0.000117364486666
9.9176266133e-05
-6.46174833603e-05
-2.46210770742e-05
-2.69320115214e-05
-1.93523130434e-05
-3.23783601053e-05
7.69596940954e-05
0.00015578919009
0.0512498015349
-0.000116777597846
-5.42580047764e-05
5.42891067033e-05
-5.06928343202e-05
0.0117423240385
5.33549892232e-05
-3.11380682362e-05
1.93764561735e-05
4.45127247848e-07
-0.0117558212997
0.0117661540782
9.69923455587e-07
5.04363951684e-05
8.24237541482e-05
6.6799463473e-05
-0.000804398693257
-0.00291577289072
0.00206663561785
-0.0123493484995
0.000437876909458
5.21705103765e-05
3.45822600138e-05
5.74164043924e-05
-0.00595223239957
0.000430251866319
-0.0111610774594
5.33756403113e-05
4.72446423449e-05
5.66754139608e-05
0.0055987643553
-0.0074280325335
-0.00344365917918
0.00608533670431
-0.00466629037362
-0.00376188301171
-0.00109176646471
0.00308511838361
-0.000706413705548
0.000135082497408
-0.0102000705477
4.69551019663e-05
5.24505160801e-05
4.07577660454e-05
0.00499386520966
0.000189754302289
-0.00633922676548
2.86786089022e-05
4.23038352957e-05
3.65203995342e-05
0.00145250305742
0.000154155230752
-0.00893396079295
-0.00301134444428
-0.0127802642797
-0.000122981879752
4.75831920744e-05
-4.39378331698e-05
0.0128081704392
-5.54927119587e-05
0.0127690546994
9.57660380466e-05
0.0117449359569
4.30649511064e-05
7.45860222629e-05
0.000131962034942
0.0117249267054
-5.24920140197e-05
4.58796597571e-05
0.0117174208821
0.0127989013126
-9.72409961397e-06
-0.0128081633749
-2.05304572173e-05
2.19871606177e-06
0.0128040605188
0.01282368596
2.35228487361e-05
-2.9900301246e-05
1.90404500325e-05
4.49338247179e-05
-1.84702528786e-05
0.0117192496094
1.94962935527e-05
0.0117148941435
6.88070913055e-05
-1.83240554284e-05
0.0128146552824
1.37865474341e-05
7.19002915419e-05
0.0117185723834
-0.0127895235485
-5.03371539673e-05
1.05961853232e-05
0.0127887770103
-2.29899902967e-05
0.0127725199292
2.7482376325e-05
4.18343143523e-05
0.0117456991351
-8.45387008348e-05
4.52404865068e-05
0.0117507738668
8.51777880246e-05
0.0117401617405
0.0127730903465
1.61186035699e-05
0.0127878143349
-4.96740158505e-05
-3.02490325975e-06
8.61083014554e-06
1.64410239041e-05
-0.0127726304812
0.0127731653714
-1.03369201581e-05
4.88230845855e-05
-0.0117396110867
0.0117409911264
-6.47264148264e-05
-7.81008714594e-05
5.10503532532e-05
7.70665941243e-05
0.012786284247
1.74147949286e-05
-7.05197694038e-05
4.77359522393e-06
-0.0127839758413
-3.25864446788e-05
-2.70391344748e-05
0.0127809121981
2.45135500427e-05
2.3394226317e-05
0.0127744560819
-1.71930217032e-05
4.03403076871e-05
0.011747430199
-5.0474030906e-05
-3.45859346051e-05
4.60665455118e-05
0.0117475687644
3.58831415526e-05
2.30249892452e-05
0.0117565041259
-3.54053520404e-05
0.0127762832235
-2.78299878775e-05
0.0127814001319
-2.24915026239e-05
-2.84964276929e-05
2.58537983576e-05
2.77824498068e-05
-0.0127787528773
0.012776457396
-3.30553002459e-05
1.36641262081e-05
-0.0117671220859
3.72489219706e-06
0.0117789013049
-1.81342649298e-05
3.35510653271e-05
1.86169014305e-05
2.4678991448e-05
0.0127788025334
-1.47196061445e-05
-2.97994359017e-05
-0.000683844632622
-0.0498238367162
0.0500313520617
0.000940614599176
-0.000275229711278
-0.000267057324075
-0.000282637502901
-0.000269136576106
0.000629867399961
-0.0009969375797
0.0506032043735
-0.000167202714406
-0.000186148724647
-0.000186045426328
-0.000171773210472
0.000458157725894
-0.0503131111062
0.000959501600813
-0.00129763914947
-0.0508130360257
0.0510881673619
0.001145547137
3.82528824455e-06
-6.67142392239e-05
-1.31216374564e-05
-5.22253534878e-05
5.19117455903e-06
-0.000979659485947
3.69713386393e-05
-1.12347815955e-05
2.97912438904e-05
5.23080937232e-06
-1.35863524546e-05
0.0510115689832
0.000832014879762
-0.0509111238188
0.000371642667888
0.00283858434761
0.0181458550055
-0.0226688681293
-0.00240968471564
0.00266360871571
0.00037941169146
0.000340608854037
0.000325203060314
0.000100313604741
0.0290886680375
-0.0317038588006
0.00525128987698
-0.00182529644989
-4.83611471469e-06
4.89417168503e-05
-3.734435853e-05
-0.000918229559061
0.000183127976123
-0.000150252771488
-0.0321886548232
1.72634527811e-05
0.000158250512247
0.000149881540947
0.000130062095061
0.0313816099392
0.000318317835127
-2.44991123665e-05
-0.00686611340722
0.0305773001
-0.026068417899
0.00499362569469
-0.00240704912482
-7.93158515563e-05
-3.74668727137e-05
-8.87597324907e-05
-5.7367414765e-05
-0.00277207282714
-0.000103096196066
-7.04720337601e-05
-0.000104957522571
-0.0217146081694
0.000436193248322
-0.00340547845535
0.0277919443819
0.115234974425
-0.016568121068
-0.00248501877983
-0.00381628022694
-0.00346121720016
-0.00409953339139
0.0124602717081
-0.0581694972178
-0.0456939127116
-0.00279469798436
0.00470736239714
-0.00271960324816
0.00680802278669
0.0301859541449
0.047192252662
0.0926656002357
-0.0224018021057
-0.00217936343298
0.000384257182361
0.000348369256184
0.0025190753496
-0.043767176844
-0.0316219948443
0.00849033674833
0.0150362394531
0.0105485325025
0.015748179296
0.138281713855
0.0807299633992
0.00594423017932
0.00644059094776
0.00742219915597
-0.0386023023514
-0.011766882606
0.00674489175989
0.00922068495199
0.0133576150178
0.00940536640975
0.012603261393
0.111629037801
-0.00908683614522
0.000126765146655
-0.000231224233995
-0.000256660427813
-0.000271566973958
-0.000224576602482
0.0495291236162
0.000692144677447
0.000118867067295
-0.04948265444
0.049542534461
0.000455632475594
-0.00024322759879
-0.000293670993333
-0.000287193404269
-0.000256792298641
0.000723547557326
-0.0495139253639
-0.000300817102842
0.000313038473833
-0.0121052270043
8.55931254671e-06
0.0120871533968
-2.05665425557e-06
0.012095946767
8.11835641267e-05
-0.000397577445928
0.000388135664801
-5.00151206883e-05
-0.0121166330456
-0.000281892412874
-0.000275237342969
-0.000263299684595
-0.000283294338256
-0.000301360763517
0.0124528356685
0.0123603276625
0.0124338716467
0.0124140770257
0.000602463822287
0.000104216868405
-0.000400350233541
0.000383125202862
-6.94990192838e-05
0.0120797589355
0.00073980289024
-0.000258617311171
-0.00029699887878
-0.000253463120133
-0.000299104049016
0.000696098007733
-0.0496956080493
0.0500961236064
-0.000232294756572
-0.000256951770459
-0.000267794709775
-0.000228665151197
0.00065497953563
-0.0498824764792
0.000856891969833
0.012110328742
-0.000366593572981
0.000388246218641
-0.0121343881268
8.31042907199e-05
0.0121647290774
-0.000239624684095
0.000300972861468
-7.23981831353e-05
-0.012196528424
4.27364380334e-05
0.00126591775234
-0.000199625338639
-0.000190244804549
-0.000209281558889
-0.000169691725778
0.0501975122055
-0.000257267837342
-0.000202536126295
-0.000281020398986
-0.000199775525403
5.98486407503e-05
8.51744896965e-05
6.23463029133e-05
6.93136089872e-05
0.050346574563
-0.000242590017141
-0.000227051702615
-0.000237535631887
-0.000224629438372
0.000624638887323
0.0506641866468
0.00119121684803
-0.000171880670197
-0.000125843668
-0.000146602358512
-0.000156197543016
0.000357474730373
0.000367948750968
0.0120990201026
0.000120849299252
0.0120766103818
-0.000264433088667
0.000251888940083
-0.0120783898546
0.000182827409032
-0.000168443827273
7.84171983805e-05
-0.000222824673839
0.000271521665318
-0.00011185650854
0.0121496190818
0.0120951995133
0.000121573438894
-8.42115202007e-05
0.000128094593063
-0.000156619901339
-0.0121040813728
0.0509492386725
-1.91030141174e-05
-7.17737635027e-05
-8.75351670596e-05
-1.78254791241e-06
-0.00141204638139
9.10114220981e-06
0.0013497790526
5.07016997326e-05
0.000113968360366
5.79546633605e-05
0.000117538388018
0.0513628333041
-0.000355046981694
-0.00174891911906
0.000140989923878
0.0120275614785
0.00018630833759
-0.000177771424331
0.000271544269494
-0.00019043336295
-0.0118951371446
0.000176510792148
0.0118121444177
-0.00017461413994
0.000117849273604
2.29194007734e-05
7.68697800077e-05
-0.0001521956136
0.0120298972177
0.000123560795757
0.000245358232815
-0.000147666743295
-0.000144880378455
-0.0118935904696
0.0118170660784
0.00104130515526
-0.00012557021093
-0.000112906879179
-0.000138619344152
-9.58828028857e-05
0.000412815049573
0.0508733478417
-9.96579319929e-05
-5.94638828678e-05
-7.33689527298e-05
-9.15022524546e-05
0.000334541487736
-0.0507257760791
0.000883219524018
0.000236080871714
0.0121681099557
4.51932391919e-05
-0.0121878072079
0.0121026677838
-6.65776153888e-05
0.000113453692105
-0.0121162541432
8.8167868942e-05
0.0121249871973
-7.22320015717e-06
3.94275738276e-05
-4.68824215852e-05
-0.0121502892794
4.00176061403e-05
0.00112035982425
4.25093046102e-05
8.26267558428e-05
3.41814454066e-05
8.65283562121e-05
0.0512388601712
-0.000167317271079
0.0510738657501
1.09985541241e-05
-2.76586513941e-05
-3.97909369051e-05
2.01925155532e-05
1.2382813536e-06
4.16207748781e-05
8.4533907544e-05
5.16721572224e-05
7.60604206272e-05
0.0511497909055
0.000958956529756
-0.000168404629722
6.87754443993e-05
0.0120373727828
8.96730761477e-05
0.000208839186671
-0.000122705395046
-0.0118983463009
0.000106360735554
0.0118293432429
4.95931307594e-05
5.3263874438e-05
1.83077768552e-05
-5.5448609526e-05
0.0120591712828
7.58606528566e-05
0.000186537824562
-0.00011873318417
-8.48570274525e-05
-0.0119349980607
0.0118761001909
5.22244888902e-06
0.0120731084745
5.15546317031e-05
-0.0121378013437
-0.00011039137103
-0.0119515897941
0.0118912260254
0.000167671528705
7.88998958497e-05
0.000141538688396
0.000243707201981
0.000344516152158
0.000271833991711
-0.0147770129374
-0.00412737419793
0.0142334323422
0.00336978885975
-0.0158399010682
-0.00338899839636
0.000367456089465
0.000339557907424
0.000300169402485
0.014370955516
0.0035989348551
0.00217907874874
0.000386059924818
0.000415906187826
0.000411601185838
0.00115064475762
-0.0179445598014
-0.00480541340444
-0.00563698862312
-0.00155936087416
0.00259654314757
0.00692501525681
-0.00404272954076
-0.00439169274208
-0.00193885699688
0.00175238256787
-0.00631425729472
-0.00866382522774
0.00802314786432
-0.00658144172884
-0.0056524353262
-0.00223776641588
-0.0098441672314
-0.00408775626513
0.000757590777914
0.00598255341592
-0.00417029048233
-0.0126937325205
0.00479987234987
0.00694867272265
-0.00901370636402
-0.0050811415305
0.000706225315035
-0.0045865517474
-0.00792612756032
0.00616488058856
-0.00591430566776
0.000320289898209
0.000345767477157
0.000325822981945
0.00415768068155
0.0151594512252
-0.0230762297722
0.000291993268298
0.000233937356523
0.000272191933023
0.018799901329
0.0035666268075
-0.00624093022878
0.00311270689996
0.000930255829296
0.000333940534048
0.000195064606465
0.000256930652781
0.00131543599447
-0.0278834705063
0.00127444140404
0.000284162056957
0.000201107114277
0.000264757771191
0.000147347299075
-0.031342982973
0.00587565622361
0.00013314369039
0.000132197461217
0.000200226891422
-0.00879425936741
-0.00914854461399
0.00976223448742
-0.00522989184816
-0.00786544105151
-0.00972662576842
-0.00953958986552
0.0117498581952
-0.00685783707641
-0.00542978799588
0.00249729208138
-0.00858302624822
-0.00014150754588
-0.00030323065788
-0.000175580031047
-0.0252030202788
0.000485886954896
-0.0298575210191
-0.00294669317895
1.02598372735e-05
-8.30905271303e-05
-5.96159112489e-05
-0.00949170864986
0.00435976499219
-0.000261539121323
-0.000159391777961
-0.000147851904175
-0.0214188525651
-0.00391626139867
-0.00230753349185
-0.000267194552763
-0.00184752367611
-0.000864685770203
-0.000709283344435
0.00304072466052
0.00208114481604
0.0042090352421
-0.000250595674676
0.000111174708105
4.16569384563e-05
8.50533307544e-05
-0.000724661110275
-0.0275452029052
2.33913850795e-05
5.3679173894e-05
6.68908957387e-05
0.0310837418154
0.00124250597359
-0.00927593201902
0.013008816627
-0.00732673458313
-0.00464821479684
-0.00386041903007
-0.000964997837057
0.00741861362513
-0.0044059150124
0.00385218462533
-0.00858891949826
-0.000135530938961
-0.000207558164998
-0.000144446048063
-0.0162760607762
-0.0225639045553
-0.00249385074077
-4.14853654521e-05
-9.48072932249e-05
-7.74580233418e-05
-0.00705682728086
-0.000171513871749
-0.000150333516442
-0.000128193450018
-0.0136080697016
0.00258948047214
0.0036249314195
-0.00139238574125
0.000506036797764
0.0109317962615
0.00657288573669
-0.00202658803675
0.0148957170986
-0.00227521366634
0.0123975794678
-0.000278529716944
2.73221001582e-05
9.59290008841e-06
-0.0123871484932
-2.04967948352e-05
-0.012393749698
0.0124144744331
5.64118389833e-05
2.96380536441e-06
0.000254830746745
1.25828903218e-06
-0.0121204175708
0.000345424322053
-0.0121042713522
2.86204870191e-05
0.0120844303943
2.9431846924e-05
0.0124219415685
1.39786661171e-05
-0.0121216740549
5.05852928865e-05
-0.0123865011883
0.0124134403802
4.99314438892e-05
-0.000301229011831
-0.0123955840378
-8.20303260285e-05
-0.0124370853758
0.0124735989533
0.000140659352993
0.000368376194383
-0.0121090027487
0.0120871203117
0.000330210533427
-3.00391299064e-05
5.61640048633e-05
-0.0121332255574
0.0124423459906
0.000100808129532
-0.0124139622758
-0.0121256465363
-0.0124802188855
0.00015305283708
-0.000386995997192
-7.9466758701e-05
0.0125118347212
-0.0001073621382
0.0125197661404
0.000170367919857
0.000361479739613
0.0120813432745
-3.75645743351e-05
0.000387237494456
-9.11145704974e-05
0.000126493081034
0.0120740211138
-4.59174330459e-05
0.000222580282649
0.0125549156176
-5.44371062139e-05
0.012069675042
-0.000150049353038
0.0125141931001
-0.000336362525075
0.000185666974746
-0.0124720151967
-0.0124751117975
0.000191474280359
0.0125159401323
0.000335350575676
5.95685166928e-05
-0.0121524288552
0.000373221282642
-0.0121499103846
8.44617568886e-05
0.0121209018796
-0.0124413918813
0.000225495386504
0.0125550657233
6.85301047134e-05
-0.0121691456737
0.0125456614682
0.000213231941503
-0.00030519886204
-0.0124998464049
-0.000251096181666
-0.0125743912302
0.0126178578811
0.000251641937382
0.000336106899489
-0.0121774087788
0.0121459561783
0.000277259935138
-5.51222286748e-05
-0.0122147478928
3.01636425128e-05
0.0125886204281
-0.0125296776136
0.000217321719532
-0.0121965533434
-0.00026932230167
-0.0126070425467
-0.000341811077442
0.0126549311068
0.00028805909741
0.0125704907802
0.000217215304636
0.000377859953613
0.00014312378901
0.0120853180907
0.000348859116651
0.0121077149203
0.000126657368238
0.0126193762724
0.000245350966306
0.0120937040354
0.000141862463752
-0.00028958585011
0.0127213903999
-0.000280028415813
0.00030350065618
-0.0126876215163
0.000331087712009
0.0127255755713
-0.000307003392749
0.00031908069827
0.000169608177743
-0.000146799005984
0.000197391486328
-0.0120758331894
0.000183700758126
0.0120725834094
-0.000247458603615
0.000330800645874
0.0127497320554
0.000165632960307
-0.0126392401993
0.000300428371382
-0.000298275294187
0.0126822332317
-0.000268094866605
0.0126658333938
0.000264587249122
0.000310345670547
0.0121358328189
0.000252931835002
-0.000126206967259
0.0121289798894
9.52006288161e-05
0.0127046053241
0.000290166024201
0.0121180386279
0.0127439870262
0.000310665511893
-0.000240824025894
-0.000328626676419
-0.0127561603574
0.0127748928291
0.000311986238744
0.000168227026954
-0.0120983635419
0.0120906528758
0.000195143379315
-0.000145112030433
0.000106938405118
0.0127676612702
0.000298153746786
-0.000359704007208
-0.0127781153698
1.48913872889e-06
0.0127914987942
0.000361853566221
-1.74023393232e-05
0.0127566772574
0.000348297086458
9.46171630731e-05
-0.000333233032344
1.8799470234e-05
0.000184086460385
0.0119965145099
-0.000176224769667
0.000109191327508
0.012017982728
0.00018081942092
0.0127699019695
1.00105517285e-06
-0.000355432624819
0.000345509283953
8.32635817559e-05
0.011985586729
0.000179195898864
-0.000376596671274
6.68418304666e-05
0.0128475141865
0.000362243922258
-0.000108806260662
-0.0128337358209
0.000387257967039
0.0128362107927
-0.000397624075953
-0.000182740475784
-3.57851991962e-05
0.000170197601846
-0.000175539112477
-0.0118904509882
-0.000212080822096
0.000164651953718
0.0118101972665
-0.000379742141023
-9.69586082623e-05
0.000156554964042
0.000373556639594
0.0128385128794
-0.00018985611296
-0.012790312351
0.000341170152944
-1.33442203379e-05
0.0128046320184
-0.000332129636241
0.0127979462306
0.000313976938182
9.75336276981e-05
0.0120313552064
-3.68526756978e-06
-0.000149652603919
0.0119794387837
0.000120889708939
0.0128110194839
0.000322237498406
0.0119870289761
0.000333226499644
3.42657554765e-05
0.0128497034856
-0.0128439421668
-0.00033852259706
0.000316079372707
0.0128325712394
-0.011897289129
-0.000161001076178
0.011816339195
-4.85509714884e-05
-0.000132266986944
0.000106783811816
0.000309531768325
0.0128408850328
-0.00028656895797
-0.012705356524
-0.000182978737386
0.0127365677931
0.000271122527417
0.0126878366544
0.000263777968617
-0.012637312891
0.000217812092896
6.07249403968e-05
0.0121431538138
0.000202338661287
0.0121778740605
-0.0122020520688
1.66970268344e-05
0.0127230617357
-0.0126569564999
0.00024552510815
0.0121543432117
3.13498125599e-05
-0.000289115318819
0.0127683301923
-0.000141926450724
0.000273546213057
-0.0127641045984
0.000297177575185
0.0127793479986
0.000170744396267
7.40944999688e-05
8.77392205723e-05
-0.0121240881508
6.12079037804e-05
0.0121048430255
0.000278430843809
0.0127788969102
4.72582677943e-05
0.0127740681972
0.000256846003184
-0.000107832084258
-0.0127492658672
-0.000259583544241
-0.0127764712483
0.0127793322486
0.000236555052212
6.03302450861e-05
-0.0121405190187
0.0121178909223
8.67947549828e-05
-3.52151149394e-05