/*--------------------------------*- C++ -*----------------------------------*\
| =========                 |                                                 |
| \\      /  F ield         | OpenFOAM: The Open Source CFD Toolbox           |
|  \\    /   O peration     | Version:  v1906                                 |
|   \\  /    A nd           | Web:      www.OpenFOAM.com                      |
|    \\/     M anipulation  |                                                 |
\*---------------------------------------------------------------------------*/
FoamFile
{
    version     2.0;
    format      ascii;
    class       volScalarField;
    location    "4.8";
    object      alpha.water;
}
// * * * * * * * * * * * * * * * * * * * * * * * * * * * * * * * * * * * * * //

dimensions      [0 0 0 0 0 0 0];


internalField   nonuniform List<scalar> 
28582
(
0.99999917728
0.999999361541
0.999999157773
0.999999154659
1.00000047061
1.00000041303
1.00000618864
1.00000581934
0.0241801042819
0.0294480156396
4.16942835622e-06
1.00000645143
0.937797779281
0.93577255682
1.00000495186
1.00000823882
0.9347611067
0.99989259823
0.999880960915
0.999999070325
0.999998632339
0.99999808947
0.999999150472
0.999998567695
0.999998030452
1.00000102707
1.0000009018
1.00000791511
1.00000309527
0.0318697976751
1.60468739761e-06
5.39753226911e-06
1.00000742142
1.00000958088
0.939002338709
0.936934610159
0.999961420417
1.00000156876
1.0000071276
1.0000047599
0.999861686769
0.914487296472
0.99986220713
0.999756830844
0.0254649563249
0.0293853379964
0.000153010305592
0.000190532363585
0.0272089437161
0.000162413277807
0.999938555311
0.999950460841
0.937318353748
0.9379781677
0.999956806397
0.93748558395
0.999948728451
0.999941155961
0.999940177473
0.936641116997
0.936557122268
0.999928742842
0.937006655176
0.999948243547
0.999922744173
0.999931891353
0.933439431725
0.936059151553
0.999926402598
0.935127187222
0.999920770066
0.999878670299
0.930115900837
0.93177920307
0.999907317673
0.93188112054
0.933770120731
0.999901873177
0.999896616104
0.93298198159
0.934013910606
0.999907252836
0.934992625563
0.999909046707
0.934737064495
0.0230991220785
4.30831484574e-05
0.0232986684391
0.0235557307087
4.07338901604e-05
3.77747607911e-05
0.032075629191
0.000232454873359
0.000236422524098
0.0349654514782
0.000337130659977
0.0345075181473
0.000326277838807
0.999947388084
0.999922348809
0.93867894379
0.941434946863
0.999948602495
0.999909300652
0.940645974924
0.999953672076
0.999970853938
0.938046408338
0.938216298577
0.999967632552
0.999946592099
0.939522948877
0.940797416083
0.93854209262
0.999958102223
0.999966093531
0.938923697845
0.999965021588
0.940556662382
0.999857256898
0.927693110116
0.928857511292
0.999812045268
0.924345279444
0.999821684021
0.925069263577
0.999735776666
0.999678151896
0.91959420021
0.914634353183
0.999767752877
0.999643532455
0.920177368547
0.999827470802
0.999870734863
0.929817735409
0.931233572106
0.926836717884
0.999816814938
0.925729859602
0.921087799645
0.914605303326
0.999638372019
0.999757286592
0.914467517824
0.999654171902
0.920479116142
1.00000120091
1
0.0373787100548
2.32091011483e-06
1.00000851865
0.936755627222
1.00000348988
1.00000074863
0.908844185501
0.907306537523
0.888314971167
1.00000087133
1.0000063856
0.886334180162
0.887169996905
0.0241131691185
0.038008457971
0.0401793219212
0.000369750146663
0.000386558789683
0.00042680824634
0.0410209685007
0.0425789440822
0.999951592595
0.999970258628
0.937040470916
0.935685375851
0.999965215703
0.934745996658
0.999957467991
0.999437957445
0.999577345596
0.902961561074
0.908280621009
0.999477430861
0.999548139138
0.902152619677
0.999418754968
0.999518332409
0.90760996524
0.899852793421
0.999533288583
0.90108143234
0.999394851292
0.999321004229
0.999203969816
0.889606309114
0.893370083552
0.999247658718
0.895061480593
0.999287573393
0.999170573826
0.999153978662
0.887045543662
0.885322943139
0.999167652463
0.885310112048
0.999190378507
0.999182141503
0.999260484068
0.886920103701
0.885860963552
0.99919697385
0.88571644002
0.999227517577
1.0000108302
1.00000665382
1.00000521351
1.00000212793
0.026206370846
0.0286856247088
0.0277687515255
0.030414806808
0.0287778580808
3.66706115984e-06
3.06505959906e-05
3.67234562583e-06
2.45633296394e-05
4.93364633273e-06
2.54007037149e-05
1.00000872886
1.00000892852
0.961267841991
0.960297301089
1.0000087194
0.960366278922
1.000007747
1.00000830029
0.960222571554
0.959615053747
1.00001254674
1.00000803719
1.00001120119
0.960043709889
0.949909039864
0.955856353448
0.939102223803
1.00001360283
1.00001618141
0.946914480316
0.942134265688
0.936597648118
0.932670502267
1.00000490274
1.00000307355
0.953644910409
0.935011897407
0.931975171627
1.00000489897
1.00000142101
1.00000349882
0.932736706169
0.930201589405
0.929262060982
0.928096683139
0.93208453767
0.930577901173
0.0251399649178
0.0252792075699
0.0259961326719
1.41452489443e-05
7.75025621721e-05
5.16920509611e-05
0.000149752682891
0.000269613745961
0.000362311522229
0.000332837535448
0.00034757812222
0.0251422949197
0.0249708739536
0.0279376801677
0.0269186803724
0.028997615432
0.000118400469439
0.000196879711887
0.000164096747686
0.000222504564536
0.0283388617119
0.029658128043
0.0293275271288
0.000315217343919
0.000316321929834
0.000329376227773
0.000344643570024
0.0298197650975
0.0296002105768
0.00018284535675
0.000236909963257
0.0002239326399
0.0301935503644
0.0302394724472
0.0300893055293
0.000333491005998
0.000373739942386
0.000292414524474
0.000354207425943
0.999988806121
1.00001057326
0.961171639352
0.960852347364
0.999994493653
0.960744002397
1.00000747583
0.999974637533
0.999989727409
0.960598310803
0.960341466258
0.999976666735
0.999993025167
0.960569042419
0.999960137803
0.999986935854
0.960637421753
0.96003405636
0.999972847479
0.999986345689
0.960882398551
0.999993478845
0.99998257984
0.960375132023
0.960418210767
0.999991403072
0.999972545506
0.96053851499
0.999986459693
0.999991218711
0.960177019896
0.96117638843
0.999977811365
1
0.960895082013
0.999944489854
0.999976105594
0.958482071727
0.959161280003
0.999969222979
0.999960711981
0.956007008743
0.999934236574
0.999954557415
0.9542988927
0.947526498572
0.999957805033
0.999923747495
0.951591258154
0.999947760387
0.999965927533
0.957207137246
0.950718881304
0.999965292495
0.999939300636
0.953179772544
0.99992524941
0.999888158992
0.944127623416
0.944435199702
0.999902524525
0.999909684783
0.948237831967
0.999899619993
0.999953162774
0.945035940158
0.943548212393
0.99994277257
0.999897481835
0.940399841674
0.999907949972
0.999949917536
0.9435238769
0.940158384725
0.999932839106
0.940147689017
0.99992413017
0.999875507319
0.99987943168
0.9402953342
0.935299336316
0.999875208845
0.99986781603
0.937201294675
0.999866035262
0.99987504791
0.937322331909
0.933857204948
0.999875553749
0.937118708741
0.999880337423
0.999911829872
0.999970987891
0.947632266659
0.952288879893
0.999927359624
0.99993008855
0.945544692912
0.999873519359
0.999846466469
0.940719204059
0.933130288795
0.999871985187
0.999827915078
0.938385867176
0.999844295937
0.999822599999
0.9318348752
0.937281216429
0.999788540626
0.99985141871
0.937040665098
0.999786074595
0.999824586407
0.931628634128
0.929671755434
0.999809391065
0.999802940954
0.927298533627
0.999785876232
0.99983147436
0.930450053285
0.929483207082
0.999812477549
0.927902290504
0.999811795678
0.999771616488
0.999797657159
0.92864575696
0.928637404805
0.999757195194
0.999783600547
0.926043871227
0.999784706057
0.999798328318
0.928555744732
0.928575092915
0.999785457925
0.926586337084
0.999790381528
0.999845778895
0.999853633172
0.931593422228
0.937487387873
0.999810049968
0.999848818054
0.934894958149
0.999829075559
0.931483273077
0.999811190285
0.999998576975
0.99999823883
0.999998931706
0.999997235684
0.999993336843
0.999992812547
0.999998596917
0.999998855662
0.999999485312
0.999997750632
0.999997216567
0.999995951012
1.0000203543
1.00000715487
0.999938580322
0.999912823562
0.999941082742
0.999977837292
0.999992232448
0.99999566548
0.999997209949
0.999983193684
0.999986303176
0.999992113881
0.999989084439
0.999982167121
0.999984966045
0.999994937298
0.999995745093
0.999996076921
0.999996136847
0.999996521591
0.999997537493
0.999998011924
0.99999772809
0.999997770844
0.999995630289
0.999995609339
0.999997389818
0.999998826128
0.999999465438
0.999999462563
0.999999173461
0.999998539443
0.99999913915
0.999998780716
0.999997801386
0.999997917822
1.00008093848
1.00001656746
0.999639148152
0.999763701871
0.999954431192
0.999996058309
0.999999205459
0.999995124355
1.00003672509
1.00000609181
0.999889503045
0.999885855373
0.999957960455
0.999995511333
0.999997922994
0.999998248181
1.00000270076
0.999995777101
0.999984516203
0.999985950035
0.999992844952
0.999997670189
0.999998640786
0.999998929972
0.99999847961
0.999998593287
0.99999928451
0.999999899504
0.999999748312
0.999999271857
0.999998633965
0.999998870113
0.999999810153
0.999999910237
0.99999986025
1.00000045434
1.00011202693
1.00001291042
0.999686989579
0.999871359448
0.999991462347
1.00000212828
1.00000304198
1.00000069369
1.00008399351
1.00002640279
0.999949502319
0.999954242943
0.999986997714
0.999999548782
1.00000175443
1.00000117029
1.0000061401
1.00000171129
0.999997592072
0.999996057168
0.999997484375
0.999999775215
1.00000043287
1.00000104062
1.00000070167
1.00000013057
1.00000021338
1.00000046172
1.00000052162
1.00000046531
1.00000060784
1.00000073449
1.00000101807
1.00000074828
1.00000082025
1.00000083478
1.00000116897
1.00000156651
1.00000186111
1.00000220774
1.00000237697
1.00000281509
1.0000026817
1.0001184524
1.00003565072
0.999855525599
0.999940528391
0.999995467145
0.999996452281
1.00000472062
1.00000632057
1.00001497386
1.00000996083
1.00000701068
1.00000801585
1.0000061129
1
0.999995054943
1.00000077153
1.00000540472
1.00000506898
1.00000205001
0.999999463736
0.999998350216
1.00000020491
1.000004276
1.00000104659
0.999996000685
0.999994821597
0.999996895908
1.00000311956
1.00000497282
1.00000484583
1.0000031512
1.00000349343
0.999999988559
0.999995341394
0.999996570603
0.999997225567
1.00000698269
1.00000420508
1.00000481015
1
0.99999822961
0.999998460778
0.999996845364
0.999996782903
0.999997941069
0.999997838749
0.0224314561833
0.0233863341506
0.0242316897755
0.0277577326262
0.0368242523458
0.0418486481767
0.0477552481726
0.0502400633441
0.0276032999924
0.0263929159451
0.0249100270579
0.023312386878
0.0236620840486
0.0281359007781
0.0373437040667
0.0417557530624
0.0486344318242
0.0506011943385
0.0295848317269
0.0282770310219
0.0271131249717
0.0263927492589
0.0269408505127
0.0300566832797
0.037645544798
0.0418066138292
0.0481306672318
0.0500445842001
0.0271178875806
0.0255079725858
0.0253881585012
0.0281052097192
0.0321926280104
0.0381779063229
0.0417213154926
0.0465351246601
0.0486334827485
0.0243675518344
0.0282643388898
0.0323706930286
0.0373200273996
0.0409713174232
0.0446682509793
0.0473170206517
0.0409780098141
0.0441543379428
0.0455851950719
9.45925792316e-06
2.64269826252e-07
2.65647625048e-09
3.3098185451e-26
6.68248723997e-09
4.64562511055e-06
3.25834829706e-05
1.05506256532e-05
5.64040160003e-26
7.03371580671e-05
7.67123960853e-06
2.25827297055e-06
5.04001930581e-07
1.95259660231e-07
5.12849240258e-07
8.68228221144e-06
3.7445581002e-05
8.27714273358e-06
1.41715372653e-24
8.03516756289e-05
1.97630532206e-05
5.91765594653e-06
1.63095481929e-06
8.19374042399e-07
7.06884929046e-07
5.61769405716e-06
3.2632266239e-05
6.02365737141e-06
-1.32348898008e-24
5.24757106028e-05
4.01148915582e-06
9.24714538553e-07
4.42391902546e-07
1.0907898795e-06
6.0769392173e-06
3.52859020514e-05
5.32717181039e-06
2.64697796017e-24
4.73638099089e-05
1.67457759868e-06
5.55708664775e-06
1.64384866722e-05
3.81430149012e-05
1.49490961546e-06
-5.37667398159e-25
7.60154402765e-05
-3.30722022904e-25
-1.12855684047e-26
8.79067508795e-05
1.00001392626
0.999998850594
0.999995953076
1.00007018202
1.00004317218
1.00003730806
1.00002085426
1.00000155695
0.999990948569
0.999989162171
1.00001595629
0.999986946545
1.00000534366
0.999975036071
0.999991437361
0.99999628919
0.999991976639
0.999998040341
0.999996050696
0.999995163613
0.999992422703
0.999982356796
0.999983159013
0.999986884842
0.999987226285
0.999964101422
0.999987779884
0.99998498463
1.00004385577
1.00008410694
1.0000488926
1.00010043194
1.00005990947
1.00009191706
1.00004356517
0.999998815824
1.00001625983
0.999985169656
1.0000186468
0.999949193771
0.999995127197
0.99982501514
1.00001972038
0.999994468242
0.999988586309
1.00006715107
1.00004252724
1.00002032503
1.00001301421
0.999985720408
0.999991003942
0.999990915675
1.0000161565
0.999958800485
1.0000056503
1.00000150437
1.00006057031
1.00008693244
1.0000469921
1.00010992758
1.00005659737
1.00012107316
1.00007238856
0.999895106017
1.00000978797
0.999894282709
1.00000747959
0.999834472667
1.00002430158
0.999984464715
1.00005499393
1.00003186489
1.00002240568
1.00006171409
1.0000434239
1.00000967213
1.00000791353
0.999967162775
1.00001194712
1.0000048843
1.00002186719
1.00000319275
1.00000658729
1.00000506872
1.0001394838
1.0000810625
0.925145827374
0.923458123989
1.00007990599
1.00007207634
1.00005270389
0.929128006045
0.930697625239
0.926718811964
0.932064728058
0.999992001001
1.00003004896
1.00000816644
0.930900209432
0.933194429273
0.932922659479
0.935051723516
0.999852408356
0.999982346018
0.999963179729
0.934081959052
0.935172677904
0.935562198663
0.9362438819
0.999992354085
0.999973141959
0.99999558813
0.935278581275
0.929536197742
0.936300619853
0.926966619945
0.999988529206
0.999994428817
0.999989525712
0.91918019257
0.879729475823
0.915927817644
0.879011286059
1.00000465531
0.999985328251
0.999996833161
0.873857393567
0.874346464205
0.873885691657
0.87244726446
1.0000069774
1.00001507235
1.00001758356
0.875576128286
0.88209449495
0.873353672442
0.880123078272
1.00000755713
1.0000160533
1.000011999
0.885488353843
0.879883603707
0.883840037767
0.878426104364
1.00001654675
1.00001664651
0.940075894171
0.925709396409
0.931475628011
0.925205132399
1.0000116508
1.00001440186
1.00001322838
0.92169501062
0.922442808526
0.921117707448
0.919341731074
1.00000742286
1.0000096323
1.00000499976
0.924719340728
0.930271242365
0.919550573113
0.923931846331
1.00000783801
1.00000313704
1.00000250162
0.932210901927
0.935858306267
0.925831990863
0.931358670115
1.00000885077
1.00000388099
1.0000041133
0.936153404261
0.936788170874
0.932678903091
0.935034412847
1.0000043318
1.00000568852
1.00000500174
0.936840843826
0.9251378252
0.934797748391
0.922328389072
0.999994490271
0.999999231607
0.999993018591
0.91457029681
0.879397723612
0.912085877026
0.879522086887
0.999998189648
0.99999339549
0.99999328374
0.874251172646
0.872459562361
0.874589075383
0.87258288564
1.00000574548
0.999998257782
0.999999490271
0.87313485316
0.879713819763
0.873328142649
0.879761630743
1.00000490045
0.999999823198
1.00000106915
0.883419955464
0.879023705289
0.883609684024
0.879207603885
1.00000317971
1.00000452982
1.00000403253
0.929714396025
0.924611949668
0.927720862273
0.926469587315
1.00000023727
1.00000164287
1.00000076103
0.920607013439
0.919159886257
0.92329664571
0.924412586966
0.999997856135
1.00000075385
1.000000572
0.919201636645
0.923116783228
0.924841860363
0.927336032429
0.999999475766
1.00000124779
1.00000061408
0.924696049008
0.929639560602
0.927800345983
0.927906172122
1.0000048437
1.00000228031
1.00000348166
0.931048017884
0.933467796775
0.928246204158
0.930402475209
1.0000040877
1.00000564769
1.00000822146
0.933884908456
0.921871932712
0.931294402661
0.917084290453
0.999997266406
1
0.99999699278
0.91165562431
0.87947656289
0.906809723583
0.878616854223
0.999997378323
0.999997450144
0.999996159061
0.874651147815
0.873116622892
0.87522779948
0.874851768088
0.999995612967
1.00000019112
1.00000029457
0.873826738852
0.879804743854
0.876554961705
0.881353476159
0.999999130475
1.00000039684
1.00000167053
0.883829976808
0.878795678711
0.885446127108
0.879847270692
0.92951896437
0.928551301762
1.000003328
1.00000620482
0.925677082942
0.926780043789
0.936302904373
1.0000059205
1.00000671249
1.00000767587
0.927307628862
0.929466323003
0.936475911601
0.935247657386
1.00000485275
1.00000672346
1.00000560238
0.929649806354
0.928743867674
0.934184782275
0.930121660369
1.00000422097
1.00000416693
1.00000407046
0.928782164705
0.930074621761
0.929232454985
0.928786932885
1.00000095867
1.00000461352
1.00000424061
0.929585036523
0.914768187043
0.926989836875
0.91208347134
0.999995558134
1
0.999997115616
0.905172128895
0.879631129745
0.905022519488
0.885412261754
0.999998889339
1.00000005513
0.999999058937
0.876738999938
0.876214017334
0.884121605789
0.882524319528
0.999996792063
1.00000128484
1.00000021925
0.877775674339
0.881712973717
0.883334225849
0.88487841446
0.999999074672
0.999999719327
1.00000063072
0.886270479078
0.87887921339
0.887961205725
0.877245808167
1.00000513387
1.00000665775
0.935077389359
0.929377526785
0.933643245512
1.00000544134
1.00000484977
1.00000493321
0.92807111272
0.928137281883
0.932715880971
0.929135638079
1.00000314825
1.00000484062
1.00000375893
0.926875025575
0.912532471628
0.927138922159
0.914371741511
1
1.00000190093
0.999999985497
0.906152611408
0.888287000713
0.908944261077
0.893088557442
0.999999918836
1.00000128604
0.999999856498
0.886567300716
0.884404341842
0.890561804163
0.887392790438
0.999997040063
1.00000134277
1.00000033545
0.884730492389
0.884942306286
0.887242481422
0.885984459155
0.999997055597
0.999997936843
0.999998368134
0.887326384011
0.878044463972
0.887536771695
0.876687461676
0.999998855565
0.892454518092
0.999998089035
0.889950311282
0.886865257468
0.999997412307
0.886933615212
0.886448618551
0.999998657768
0.888086284725
0.878810684706
0.000270341646058
0.000122899882869
0.000236563921253
9.7083076088e-05
0.0237590737878
0.0245192960479
2.46010064232e-05
3.96170689111e-06
2.08783964761e-05
1.01702335221e-05
0.0227563535401
0.0233121368829
0.0225549537459
7.6305110322e-08
1.1453083176e-07
2.5581015851e-06
3.86315655285e-07
0.0237346132642
0.0227757381737
0.02309424439
1.36143882863e-07
1.30000521834e-07
8.21621763377e-07
8.35682317681e-07
0.0253891172623
0.0237704303956
0.0251962401969
4.50356267911e-07
2.93320413761e-06
9.86768191493e-07
1.51675839264e-06
0.0317724234029
0.0277625422736
0.0322647463225
2.74109180921e-05
0.000242550826686
4.39705038358e-05
0.000289622058947
0.0402754920323
0.0371753924724
0.0403890376366
0.000497105718754
0.00063767028629
0.000538254066886
0.000653022993836
0.0441775415318
0.0418350118356
0.044550602009
0.000548520226978
0.00047051445714
0.000542681879302
0.000481178379901
0.0493979674825
0.0482704763354
0.0499325931932
0.00031329660948
0.000199489572098
0.000335429731728
0.000229425068591
0.0492106147338
0.0506043904994
0.0490603061424
0.000339471205658
0.00136079435529
0.000420207108582
0.00144077356381
0.0270052295429
0.0286998207143
0.0281297129939
0.00022203400135
0.000118854970281
0.000265426227988
0.000173838406853
0.0255745556308
0.0275168136149
0.0268209497873
7.28329331314e-05
2.81574832555e-05
0.000129569577666
8.6489683433e-05
0.0242033680583
0.0264461972021
0.0259984924388
1.67167177582e-05
1.89686718781e-05
5.16807369412e-05
3.84656957307e-05
0.0230524402953
0.025305461023
0.0248761822366
1.30042397855e-05
4.61201908172e-06
3.89851109467e-05
3.90935358003e-05
0.025258885593
0.0251661457035
0.0264070506802
6.70224070574e-06
2.49322419237e-05
5.23861345944e-05
8.67461203149e-05
0.0329198238157
0.0291107667256
0.0335070920191
0.000128772805854
0.000329117451722
0.000169859881595
0.000332378884659
0.0402403148998
0.037424748823
0.0401246620373
0.000560438240045
0.000662471517375
0.000544317814186
0.000649603510521
0.0447673161336
0.0417404631389
0.0448318813698
0.000523171605731
0.000469271408887
0.000511647144428
0.000464771691134
0.0501630614206
0.0485596506934
0.0500143743488
0.000350860870025
0.000258370741042
0.000349678305989
0.000257000921651
0.0488193763079
0.0503129986062
0.0483864207949
0.000496279302713
0.00155258738196
0.000498815704575
0.00158396749547
0.0288925156655
0.0294872059638
0.028731706726
0.000336863924988
0.000263948521756
0.000344920912856
0.000312305846159
0.0275184702439
0.0280494727128
0.0272125546855
0.000187055183769
0.000127317479571
0.000238185938337
0.000157793620526
0.0268245712102
0.0263365136863
0.0260534541318
8.18453213205e-05
5.05421317598e-05
0.000101757668586
6.45336493246e-05
0.0265021729552
0.0262222179725
0.0269985155437
4.11953346573e-05
4.44674343838e-05
3.97311047271e-05
5.13546331149e-05
0.0279873699519
0.0280417857074
0.0291795962367
6.17038300559e-05
0.000107758764346
8.77659719604e-05
0.000151991388037
0.0339929846912
0.0311870617119
0.0346630765341
0.000176791595352
0.0003200744362
0.0002380384824
0.00034684480801
0.0402536713343
0.0379338271186
0.0404888479049
0.00052239432908
0.000627798562753
0.000525121180276
0.000626845345173
0.0448383805285
0.0418091898677
0.0448378180994
0.000485904030683
0.000429616541465
0.000471306801269
0.000404656867975
0.0496298803549
0.0472659697497
0.0491546059931
0.00030439987983
0.000197856991432
0.000265474107707
0.000163363193738
0.0487534594738
0.049321871962
0.0485206514569
0.00035277739371
0.00121982531053
0.000278786682025
0.00112046635103
0.0263279515086
0.0250487252707
0.00023059297145
0.00014573301526
0.000103611504402
0.0250174277548
0.0244660798153
0.0243320622596
9.19552171862e-05
5.38775267347e-05
6.97438998997e-05
4.09401654611e-05
0.0265813656641
0.0246258323361
0.0260083411544
4.49619831831e-05
6.33370658494e-05
4.7746981625e-05
6.66817108424e-05
0.0296867601249
0.0280206859603
0.0299465782245
9.77614633199e-05
0.000168436234515
0.000112931257138
0.000180170034667
0.0352040676697
0.0324294661684
0.0350219984067
0.0002622647472
0.000341815399881
0.000254609791954
0.000330660641155
0.0404378887323
0.0379052177232
0.0400677868837
0.000533630374857
0.000630714122961
0.000544738583535
0.000625108859659
0.0444946582291
0.041489436932
0.0436544836505
0.000432062873179
0.000356688549495
0.000402620664839
0.000328781832716
0.0486406797235
0.0455552582443
0.0476374171521
0.000231250162262
0.000135433271736
0.000217590072008
0.000136953499224
0.0481878737245
0.0479915072816
0.0472919784673
0.000228095660344
0.00102555588534
0.000243900868728
0.00112356907173
0.0258311588304
0.0256300392578
5.24850285623e-05
7.80077449146e-05
6.42706368463e-05
0.000102893049716
0.0303137496116
0.0276045926497
0.0298509202883
0.00010729896756
0.000177453440027
0.000141248246356
0.00018483614071
0.0346478349601
0.0320522792626
0.0343867887177
0.000267123730554
0.00039141062035
0.000271260019907
0.000406786025692
0.0395949854318
0.0370319979519
0.0393353618849
0.000588509407532
0.000622250567279
0.000561222638249
0.000593916320842
0.0426750077382
0.0408044794442
0.0422873414791
0.000358418208534
0.000282328228634
0.00035401895766
0.000294990617133
0.0466861980456
0.0441247728008
0.0460515265451
0.000209552512026
0.000178989777869
0.000242136910334
0.000252448008844
0.0462513830782
0.0465028571989
0.0455156998829
0.000358380662251
0.00145353959911
0.000535486892085
0.00162388009421
0.0397507833959
0.000407245052056
0.0426257617567
0.000349983104339
0.000299110087836
0.000358130807053
0.000291715799401
0.0454746801475
0.000256429788337
0.000278513192713
0.000246893808088
0.000255594269595
0.0444144853434
0.000599266697866
0.00182262008001
0.00048745060744
0.00165649740695
0.999933751563
0.999980275121
0.920992562774
0.925831060522
0.999970593464
0.922226357878
0.999908443976
0.999920043811
0.999923565592
0.9250157927
0.921474773729
0.999955208922
0.99989454124
0.921406129716
1.00000308889
1.00001690827
0.930305353957
0.928756544314
1.00000503587
0.930816682003
1.00004834568
1.00002239571
1.00002617932
0.930544307165
0.931624477475
1.00002081567
0.931452394
1.00004781783
1
0.999916760994
0.928208811945
0.92929007532
0.999990322357
0.999907299722
0.930746488183
0.999999805496
0.999887320519
0.93276136666
0.930897882825
1.00001213515
0.999894273044
0.932236308441
0.999996941068
1.00000589385
0.931402779054
0.931775030865
1.0000085279
0.932131303662
0.999981923031
0.999987663448
0.999947550881
0.932204474997
0.933602061016
0.999976282219
0.932762208939
0.999957200489
1.00000905506
0.999911431677
0.93302367007
0.933737737796
1.00001721768
0.999976242283
0.93339445435
1.0000038973
1.00001834946
0.934559460165
0.934434532626
1.00000105919
1.00000501825
0.933927252842
0.999967414238
0.999935052313
0.93466905051
0.934303103694
0.999977222146
0.934772624611
0.999926287827
0.999953036136
0.999926165989
0.935075669357
0.93539402497
0.999955621573
0.935135022481
0.999924328778
0.999998815003
1.00001623097
0.935039614985
0.935919133077
1.00000272465
1.00001070317
0.935329826149
0.999994612985
0.999988109174
0.935720186608
0.936185590616
0.999984468287
1.0000028369
0.935555006135
0.999967218816
0.999940183661
0.93555448641
0.935643716499
0.999975843161
0.935779048675
0.999968038154
0.99994588557
0.999908143314
0.933993144797
0.92987906997
0.999890367521
0.93426612759
0.999967037395
0.999988388582
0.999971523205
0.935827454734
0.936352890701
0.999996720658
0.999972197829
0.935907196141
0.999968411137
0.999843200256
0.928369274204
0.933312458698
0.999895603968
0.999936042834
0.933653985759
0.999490408861
0.999777725779
0.905794985809
0.919345485553
0.999736414136
0.905559274357
0.999512714655
0.999170462401
0.998945199802
0.89175495135
0.879148842466
0.998830081938
0.891189655383
0.999200851006
0.999489711474
0.999706070817
0.917787751836
0.903060198249
0.999729274469
0.999478648406
0.904501212477
0.999196953586
0.99898657015
0.878963781282
0.889954198763
0.998925772039
0.999216700143
0.890773143896
0.998552074331
0.998782371518
0.870056403939
0.873475431443
0.998602905817
0.869612991785
0.998797523821
0.998563652434
0.998898627064
0.87195062938
0.87312524726
0.998635411296
0.871181812126
0.998837387449
0.998755168971
0.998832188985
0.873467905724
0.869549362874
0.998779706557
0.998756686652
0.869595771174
0.998732466261
0.998824341601
0.872697625618
0.870772390962
0.998798404618
0.998773880724
0.870887125973
0.998788199293
0.998952146226
0.877013140588
0.874463839101
0.998724357422
0.876576100133
0.998968444406
0.998845395695
0.998984919765
0.879307844903
0.88111290914
0.998902454767
0.879025412422
0.998973849776
0.998930352157
0.998913931479
0.873920739177
0.8748299078
0.998881902673
0.99894446925
0.875920860874
0.998962602262
0.999011545797
0.880413798003
0.877188005592
0.998992438721
0.998971790857
0.878260573233
0.998974157257
0.999029454593
0.886220058468
0.884165173666
0.999005076477
0.885923672887
0.999001680893
0.99877426784
0.999001047851
0.870620367917
0.879088107693
0.870665559206
0.998970449902
0.998799527789
0.999017100516
0.999083701131
0.883741525655
0.884588062274
0.999058025378
0.999020395475
0.885168107696
0.998817832035
0.998978315126
0.879790220117
0.869844706977
0.998773661572
0.870366677714
0.999018373322
0.999891523557
0.999944647142
0.937427001116
0.938860940989
0.999912123219
0.934888535112
0.999917071668
0.999858239907
0.999867654257
0.93241980235
0.926642717298
0.999884649326
0.999849803171
0.929909759571
0.999833079789
0.999873543546
0.936344268889
0.931073889668
0.999854976927
0.932689147261
0.999869638711
0.99980634743
0.999821916954
0.925879537144
0.929230331746
0.999792591359
0.999832569818
0.928328988594
0.999793027595
0.999847531053
0.920687137442
0.923861717028
0.999832712905
0.999815914698
0.920456078171
0.999798790216
0.999846018078
0.921171048839
0.921653018986
0.99983671249
0.999795600581
0.9206410671
0.9997312915
0.999801300128
0.923850481644
0.920377561396
0.999765531139
0.999769369388
0.920295664488
0.99971705752
0.999733381144
0.920421488711
0.920257407444
0.999725633294
0.999760456555
0.919909780193
0.999731235279
0.999842532171
0.926668788695
0.92273996166
0.999788389586
0.999773057804
0.923827651562
0.999704011417
0.999710924414
0.928530591236
0.928237776373
0.999715474642
0.999665432605
0.925708438871
0.999684566096
0.999717693252
0.920922707451
0.92060074353
0.999703444162
0.99970441599
0.921703765295
0.999663735401
0.999696066675
0.925881427196
0.922208594319
0.999666105601
0.999698163982
0.923411545433
0.99972650016
0.99972733578
0.934259431366
0.930720070295
0.999784609306
0.999675827293
0.932830768245
0.999800045453
0.999956879918
0.93532170683
0.93496621525
0.999867374546
0.999866807371
0.933830879443
0.999690521995
0.999690402811
0.928368332425
0.927671722605
0.999682398226
0.999681038003
0.930170585908
0.999724586674
0.999694588453
0.932947577079
0.929518345684
0.999769902678
0.999676743951
0.931565353854
0.99994882351
0.999993814019
0.936449025868
0.936022206209
1.00000433943
0.999915873646
0.936715915147
0.999956701325
1
0.936643505589
0.937119330298
1
0.999960428466
0.936886815729
0.999856749816
0.99973557906
0.934156980375
0.933604453473
0.999810067367
0.999780306956
0.935145963186
0.999878028215
0.999823107437
0.936553259101
0.934203769466
0.9998901612
0.999802823068
0.935872707026
0.999929515858
0.999993364426
0.936182887546
0.936777456283
0.999974835491
0.999955509979
0.935330654311
0.999885823703
0.999819859278
0.932113700136
0.923416992798
0.999917712384
0.999798875136
0.930653225008
0.99990089774
0.999842119413
0.936078170003
0.933874553933
0.999904893313
0.999864115956
0.934553282765
0.999874311526
0.999769629981
0.92252923496
0.929452995091
0.999797099323
0.999838408576
0.929785766378
0.99947444172
0.999674340501
0.902434960393
0.912970103457
0.999453735352
0.999643278447
0.901568897208
0.99927352865
0.998983234672
0.890127027757
0.879492845147
0.999208234292
0.999059159206
0.889943270968
0.99946270225
0.999662548903
0.912413277748
0.90079084311
0.999654090489
0.99949026325
0.901252549969
0.999245352543
0.999111182147
0.879734383269
0.889477112737
0.99903484554
0.999294531749
0.889907960292
0.998882179942
0.998831318494
0.870174292709
0.874401042544
0.998787711626
0.998920397348
0.870212467858
0.998849761212
0.99881340516
0.871198007918
0.872178695265
0.998777641859
0.998890456459
0.870913365042
0.998864899664
0.998965249389
0.874650504798
0.870477283217
0.998906459117