/*--------------------------------*- C++ -*----------------------------------*\
| =========                 |                                                 |
| \\      /  F ield         | OpenFOAM: The Open Source CFD Toolbox           |
|  \\    /   O peration     | Version:  v1906                                 |
|   \\  /    A nd           | Web:      www.OpenFOAM.com                      |
|    \\/     M anipulation  |                                                 |
\*---------------------------------------------------------------------------*/
FoamFile
{
    version     2.0;
    format      ascii;
    class       volVectorField;
    location    "4.8";
    object      force.turbine;
}
// * * * * * * * * * * * * * * * * * * * * * * * * * * * * * * * * * * * * * //

dimensions      [1 -2 -2 0 0 0 0];


internalField   nonuniform List<vector> 
28582
(
(0 0 0)
(0 0 0)
(0 0 0)
(0 0 0)
(0 0 0)
(0 0 0)
(0 0 0)
(0 0 0)
(0 0 0)
(0 0 0)
(0 0 0)
(0 0 0)
(0 0 0)
(0 0 0)
(0 0 0)
(0 0 0)
(0 0 0)
(0 0 0)
(0 0 0)
(0 0 0)
(0 0 0)
(0 0 0)
(0 0 0)
(0 0 0)
(0 0 0)
(0 0 0)
(0 0 0)
(0 0 0)
(0 0 0)
(0 0 0)
(0 0 0)
(0 0 0)
(0 0 0)
(0 0 0)
(0 0 0)
(0 0 0)
(0 0 0)
(0 0 0)
(0 0 0)
(0 0 0)
(0 0 0)
(0 0 0)
(0 0 0)
(0 0 0)
(0 0 0)
(0 0 0)
(0 0 0)
(0 0 0)
(0 0 0)
(0 0 0)
(0 0 0)
(0 0 0)
(0 0 0)
(0 0 0)
(0 0 0)
(0 0 0)
(0 0 0)
(0 0 0)
(0 0 0)
(0 0 0)
(0 0 0)
(0 0 0)
(0 0 0)
(0 0 0)
(0 0 0)
(0 0 0)
(0 0 0)
(0 0 0)
(0 0 0)
(0 0 0)
(0 0 0)
(0 0 0)
(0 0 0)
(0 0 0)
(0 0 0)
(0 0 0)
(0 0 0)
(0 0 0)
(0 0 0)
(0 0 0)
(0 0 0)
(0 0 0)
(0 0 0)
(0 0 0)
(0 0 0)
(0 0 0)
(0 0 0)
(0 0 0)
(0 0 0)
(0 0 0)
(0 0 0)
(0 0 0)
(0 0 0)
(0 0 0)
(0 0 0)
(0 0 0)
(0 0 0)
(0 0 0)
(0 0 0)
(0 0 0)
(0 0 0)
(0 0 0)
(0 0 0)
(0 0 0)
(0 0 0)
(0 0 0)
(0 0 0)
(0 0 0)
(0 0 0)
(0 0 0)
(0 0 0)
(0 0 0)
(0 0 0)
(0 0 0)
(0 0 0)
(0 0 0)
(0 0 0)
(0 0 0)
(0 0 0)
(0 0 0)
(0 0 0)
(0 0 0)
(0 0 0)
(0 0 0)
(0 0 0)
(0 0 0)
(0 0 0)
(0 0 0)
(0 0 0)
(0 0 0)
(0 0 0)
(0 0 0)
(0 0 0)
(0 0 0)
(0 0 0)
(0 0 0)
(0 0 0)
(0 0 0)
(0 0 0)
(0 0 0)
(0 0 0)
(0 0 0)
(0 0 0)
(0 0 0)
(0 0 0)
(0 0 0)
(0 0 0)
(0 0 0)
(0 0 0)
(0 0 0)
(0 0 0)
(0 0 0)
(0 0 0)
(0 0 0)
(0 0 0)
(0 0 0)
(0 0 0)
(0 0 0)
(0 0 0)
(0 0 0)
(0 0 0)
(0 0 0)
(0 0 0)
(0 0 0)
(0 0 0)
(0 0 0)
(0 0 0)
(0 0 0)
(0 0 0)
(0 0 0)
(0 0 0)
(0 0 0)
(0 0 0)
(0 0 0)
(0 0 0)
(0 0 0)
(0 0 0)
(0 0 0)
(0 0 0)
(0 0 0)
(0 0 0)
(0 0 0)
(0 0 0)
(0 0 0)
(0 0 0)
(0 0 0)
(0 0 0)
(0 0 0)
(0 0 0)
(0 0 0)
(0 0 0)
(0 0 0)
(0 0 0)
(0 0 0)
(0 0 0)
(0 0 0)
(0 0 0)
(0 0 0)
(0 0 0)
(0 0 0)
(0 0 0)
(0 0 0)
(0 0 0)
(0 0 0)
(0 0 0)
(0 0 0)
(0 0 0)
(0 0 0)
(0 0 0)
(0 0 0)
(0 0 0)
(0 0 0)
(0 0 0)
(0 0 0)
(0 0 0)
(0 0 0)
(0 0 0)
(-0.00202551286404 2.47923531313e-05 0)
(0 0 0)
(0 0 0)
(0 0 0)
(0 0 0)
(-2.64980261035e-05 2.40861272265e-08 0)
(0 0 0)
(-2.70517763946e-06 -7.39040491948e-09 0)
(0 0 0)
(0 0 0)
(0 0 0)
(0 0 0)
(0 0 0)
(0 0 0)
(0 0 0)
(0 0 0)
(0 0 0)
(0 0 0)
(0 0 0)
(0 0 0)
(-0.0375843350818 -0.00278038662184 0.00284913741877)
(0 0 0)
(0 0 0)
(0 0 0)
(-0.0303485356925 0.000512310842848 0)
(0 0 0)
(0 0 0)
(-0.158527197365 -0.0201717358928 0.0185653770551)
(-1.43626783138 -0.219373897976 0.197660615375)
(-0.104407533905 -0.00193426056119 0.00294857467649)
(-2.01594100738 -0.194045297553 0.184044158057)
(-0.00611710150213 2.8009729967e-05 0)
(-0.0810003519577 0.00136735949974 0)
(0 0 0)
(0 0 0)
(0 0 0)
(0 0 0)
(0 0 0)
(-0.0162381597824 0.000430043599753 0)
(0 0 0)
(0 0 0)
(0 0 0)
(-0.0297195683502 0.000501693302927 0)
(0 0 0)
(0 0 0)
(0 0 0)
(0 0 0)
(0 0 0)
(0 0 0)
(0 0 0)
(0 0 0)
(-1.61075279611e-05 3.96049334698e-08 0)
(0 0 0)
(-1.0423323361e-05 2.56287016385e-08 0)
(-0.000159411098915 1.19891008124e-06 0)
(-0.00076649354056 5.76469793655e-06 0)
(-0.000101493320657 7.63318025797e-07 0)
(-0.000459882893449 3.45871925415e-06 0)
(0 0 0)
(0 0 0)
(-0.000213111770379 7.76764892315e-07 0)
(0 0 0)
(0 0 0)
(0 0 0)
(0 0 0)
(0 0 0)
(0 0 0)
(-0.0089716891364 0.000109813810222 0)
(-0.000442020949649 4.06382034047e-06 0)
(-0.00206930762805 2.53284026789e-05 0)
(-3.59447281154e-05 2.17104803803e-07 0)
(-0.000165264489017 1.24293266467e-06 0)
(-4.79496741519e-06 -1.30996021322e-08 0)
(-3.67474565162e-05 2.21953253106e-07 0)
(0 0 0)
(0 0 0)
(0 0 0)
(0 0 0)
(0 0 0)
(-0.000229723745601 8.37313397548e-07 0)
(0 0 0)
(0 0 0)
(0 0 0)
(0 0 0)
(0 0 0)
(0 0 0)
(0 0 0)
(0 0 0)
(0 0 0)
(0 0 0)
(0 0 0)
(0 0 0)
(0 0 0)
(0 0 0)
(0 0 0)
(0 0 0)
(0 0 0)
(0 0 0)
(0 0 0)
(0 0 0)
(-0.00530686192834 2.76354870519e-05 0)
(0 0 0)
(0 0 0)
(0 0 0)
(0 0 0)
(0 0 0)
(-0.00488739574399 2.23790033536e-05 0)
(0 0 0)
(0 0 0)
(0 0 0)
(0 0 0)
(0 0 0)
(0 0 0)
(0 0 0)
(0 0 0)
(0 0 0)
(0 0 0)
(0 0 0)
(0 0 0)
(0 0 0)
(0 0 0)
(0 0 0)
(0 0 0)
(0 0 0)
(0 0 0)
(0 0 0)
(0 0 0)
(0 0 0)
(0 0 0)
(-0.0414853257976 0.00012821944977 0.000553922723181)
(-0.00901110178152 0.000107943370335 0)
(-0.0147514712683 0.000176706862791 0)
(-0.0104546773249 0.00014625572934 0)
(-0.0196597345298 0.00040271001958 0)
(0 0 0)
(0 0 0)
(0 0 0)
(0 0 0)
(0 0 0)
(0 0 0)
(0 0 0)
(0 0 0)
(0 0 0)
(0 0 0)
(-0.00544167768918 2.49170170853e-05 0)
(0 0 0)
(-0.00814166121917 0.000113897785904 0)
(0 0 0)
(0 0 0)
(-0.777033845991 -0.105754160988 0.0962486582492)
(-0.528491474534 -0.0702375308169 0.064199137496)
(-0.437744965396 -0.0356148864426 0.0346087600442)
(-0.0438614852629 0.000740421703086 0)
(-2.2696006039 -0.34430061705 0.310029946404)
(-0.164137074228 -0.016741436448 0.0158288476951)
(-0.163566499529 -0.00738445976454 0.00812446408729)
(-2.09812036314 -0.303350896154 0.274284460843)
(-10.1147297031 -1.5623409912 1.40422220873)
(-1.15156530683 -0.115252787105 0.108627333562)
(-0.817293936567 -0.0582074507328 0.0579791632147)
(-6.05744888077 -0.946941225117 0.849850421219)
(-0.450718226218 -0.0328945938378 0.0325767267001)
(-3.53726447547 -0.502475794627 0.455404203524)
(-0.169724979741 -0.0159376546524 0.0152757626954)
(-0.0092254979606 0.000129060122165 0)
(-0.020647346777 0.000348545964032 0)
(-0.0205377596686 0.000346696034123 0)
(-0.0252423746652 0.000517064825074 0)
(-0.0252421882166 0.000517061005862 0)
(-0.0493676039401 0.000833369986618 0)
(-0.482973389948 -0.0552376436768 0.0514170934434)
(-0.136254336999 -0.00288841101607 0.00442921407822)
(-0.256635019875 -0.00570783980712 0.00804291932367)
(-0.0434114702414 0.000732825040853 0)
(-0.0591392548328 0.000346264113624 0.000664143211918)
(-0.127546535409 -0.00167780844763 0.00305455282655)
(-0.845823252505 -0.0946646427269 0.0884872512128)
(0 0 0)
(0 0 0)
(0 0 0)
(0 0 0)
(0 0 0)
(0 0 0)
(0 0 0)
(0 0 0)
(0 0 0)
(0 0 0)
(0 0 0)
(0 0 0)
(0 0 0)
(0 0 0)
(0 0 0)
(0 0 0)
(0 0 0)
(0 0 0)
(0 0 0)
(0 0 0)
(0 0 0)
(0 0 0)
(0 0 0)
(-0.00536971354999 2.45874989131e-05 0)
(0 0 0)
(-0.00814090364366 0.0001138871878 0)
(0 0 0)
(0 0 0)
(0 0 0)
(-0.0367258335753 0.000752292007594 0)
(-0.0144858993043 0.000173525594446 0)
(-0.00877702206009 0.000105139345404 0)
(-0.0196575490164 0.000402665251521 0)
(0 0 0)
(-0.0104531523086 0.000146234395121 0)
(0 0 0)
(0 0 0)
(0 0 0)
(0 0 0)
(0 0 0)
(0 0 0)
(0 0 0)
(0 0 0)
(0 0 0)
(0 0 0)
(0 0 0)
(0 0 0)
(0 0 0)
(0 0 0)
(0 0 0)
(0 0 0)
(0 0 0)
(0 0 0)
(0 0 0)
(0 0 0)
(0 0 0)
(0 0 0)
(0 0 0)
(0 0 0)
(0 0 0)
(0 0 0)
(0 0 0)
(0 0 0)
(0 0 0)
(0 0 0)
(0 0 0)
(0 0 0)
(0 0 0)
(0 0 0)
(0 0 0)
(0 0 0)
(-0.015054233402 0.000287204961239 0)
(0 0 0)
(0 0 0)
(0 0 0)
(0 0 0)
(0 0 0)
(0 0 0)
(0 0 0)
(-0.00335897584623 6.40826073274e-05 0)
(0 0 0)
(0 0 0)
(0 0 0)
(0 0 0)
(0 0 0)
(0 0 0)
(0 0 0)
(0 0 0)
(0 0 0)
(0 0 0)
(0 0 0)
(0 0 0)
(0 0 0)
(0 0 0)
(0 0 0)
(0 0 0)
(0 0 0)
(0 0 0)
(0 0 0)
(0 0 0)
(0 0 0)
(0 0 0)
(0 0 0)
(0 0 0)
(0 0 0)
(0 0 0)
(0 0 0)
(-0.322032324112 0.00854009076691 0)
(-0.00772907190341 0.000147455385947 0)
(0 0 0)
(0 0 0)
(0 0 0)
(0 0 0)
(0 0 0)
(0 0 0)
(-0.0707064367668 0.00189130424435 0)
(0 0 0)
(0 0 0)
(0 0 0)
(0 0 0)
(0 0 0)
(0 0 0)
(0 0 0)
(0 0 0)
(0 0 0)
(0 0 0)
(0 0 0)
(0 0 0)
(0 0 0)
(0 0 0)
(0 0 0)
(0 0 0)
(0 0 0)
(0 0 0)
(0 0 0)
(0 0 0)
(0 0 0)
(0 0 0)
(0 0 0)
(0 0 0)
(0 0 0)
(0 0 0)
(0 0 0)
(-1.51704802681 0.0513844861776 0)
(-0.0431828305931 0.00151301237624 0)
(0 0 0)
(0 0 0)
(0 0 0)
(0 0 0)
(0 0 0)
(0 0 0)
(-0.332776323196 0.0111431724446 0)
(-0.00656178680056 0.000248627309357 0)
(0 0 0)
(0 0 0)
(0 0 0)
(0 0 0)
(0 0 0)
(0 0 0)
(0 0 0)
(0 0 0)
(0 0 0)
(0 0 0)
(0 0 0)
(0 0 0)
(0 0 0)
(0 0 0)
(0 0 0)
(0 0 0)
(0 0 0)
(0 0 0)
(0 0 0)
(0 0 0)
(0 0 0)
(0 0 0)
(0 0 0)
(0 0 0)
(0 0 0)
(0 0 0)
(0 0 0)
(0 0 0)
(0 0 0)
(0 0 0)
(0 0 0)
(0 0 0)
(0 0 0)
(-2.59364605489 0.0673305849345 0)
(-0.0783148465045 0.0020330393248 0)
(0 0 0)
(0 0 0)
(0 0 0)
(0 0 0)
(0 0 0)
(0 0 0)
(-2.61472407166 0.0641131841728 0.00284914432696)
(-0.57865794358 0.0150218561028 0)
(-0.0162381940382 0.000430044506967 0)
(0 0 0)
(0 0 0)
(0 0 0)
(0 0 0)
(0 0 0)
(0 0 0)
(-0.0474989043787 0.00123306301164 0)
(-0.0783122177992 0.00203297108408 0)
(-0.016238071613 0.000430041264717 0)
(0 0 0)
(0 0 0)
(0 0 0)
(0 0 0)
(0 0 0)
(0 0 0)
(0 0 0)
(0 0 0)
(0 0 0)
(0 0 0)
(0 0 0)
(0 0 0)
(0 0 0)
(0 0 0)
(0 0 0)
(0 0 0)
(0 0 0)
(0 0 0)
(0 0 0)
(0 0 0)
(0 0 0)
(0 0 0)
(0 0 0)
(0 0 0)
(0 0 0)
(0 0 0)
(-0.0322939504202 0.000396516409575 0)
(-0.0010092432091 1.23531745859e-05 0)
(0 0 0)
(0 0 0)
(0 0 0)
(0 0 0)
(0 0 0)
(0 0 0)
(-0.0239101682521 0.000293577402092 0)
(-0.0377531880312 0.000463546836896 0)
(-0.00792325429884 9.69809286393e-05 0)
(-0.000179051629136 6.52620074328e-07 0)
(0 0 0)
(0 0 0)
(0 0 0)
(0 0 0)
(0 0 0)
(0 0 0)
(-0.000727027165476 6.6840899407e-06 0)
(-0.00121162744541 1.48303651996e-05 0)
(-0.000207039838357 7.54633483923e-07 0)
(0 0 0)
(0 0 0)
(0 0 0)
(0 0 0)
(0 0 0)
(0 0 0)
(0 0 0)
(0 0 0)
(0 0 0)
(0 0 0)
(0 0 0)
(0 0 0)
(0 0 0)
(0 0 0)
(0 0 0)
(0 0 0)
(0 0 0)
(0 0 0)
(0 0 0)
(0 0 0)
(0 0 0)
(0 0 0)
(0 0 0)
(0 0 0)
(0 0 0)
(0 0 0)
(-0.000200698567619 5.20384770224e-07 0)
(-0.000198874840239 5.15656086981e-07 0)
(-2.57119255309e-05 2.3371578968e-08 0)
(0 0 0)
(0 0 0)
(0 0 0)
(0 0 0)
(0 0 0)
(0 0 0)
(0 0 0)
(-2.59086199151e-05 2.35503698691e-08 0)
(-2.576978069e-05 2.34241680446e-08 0)
(-2.64180392677e-06 -7.21727122533e-09 0)
(0 0 0)
(0 0 0)
(0 0 0)
(0 0 0)
(0 0 0)
(0 0 0)
(0 0 0)
(0 0 0)
(0 0 0)
(0 0 0)
(0 0 0)
(0 0 0)
(0 0 0)
(0 0 0)
(0 0 0)
(0 0 0)
(0 0 0)
(0 0 0)
(0 0 0)
(0 0 0)
(0 0 0)
(0 0 0)
(0 0 0)
(0 0 0)
(0 0 0)
(0 0 0)
(0 0 0)
(0 0 0)
(0 0 0)
(0 0 0)
(0 0 0)
(0 0 0)
(0 0 0)
(0 0 0)
(0 0 0)
(0 0 0)
(-0.00335903193985 6.40836774826e-05 0)
(-0.00913065797021 0.000174194872524 0)
(-0.00203731927787 3.88680172949e-05 0)
(-0.0867586557764 0.00199074656399 0)
(-0.0177848807765 0.000339300305612 0)
(-0.0526200566906 0.00120740917568 0)
(-0.0107868349766 0.00020579145006 0)
(0 0 0)
(0 0 0)
(0 0 0)
(-0.00240685643911 4.59180545327e-05 0)
(0 0 0)
(0 0 0)
(0 0 0)
(0 0 0)
(0 0 0)
(0 0 0)
(-0.0177840789505 0.000339285008359 0)
(-0.00396815649697 7.57045677761e-05 0)
(-0.00396815298039 7.57045006868e-05 0)
(0 0 0)
(0 0 0)
(0 0 0)
(0 0 0)
(0 0 0)
(0 0 0)
(0 0 0)
(0 0 0)
(-0.0707069404286 0.00189131771664 0)
(-0.195323096194 0.00517984328117 0)
(-0.042886143008 0.00114714795433 0)
(-0.802718219324 0.0245660070609 0)
(-0.176917362528 0.00548716734062 0)
(-0.486869070031 0.0148999097369 0)
(-0.107304052631 0.00332808088873 0)
(0 0 0)
(-0.0046879176399 8.94361850319e-05 0)
(0 0 0)
(-0.0227966813796 0.000728413576123 0)
(0 0 0)
(-0.0121943983041 0.000378469211693 0)
(0 0 0)
(-0.0149384695347 0.000389486617364 0)
(-0.0149380926917 0.000389476792039 0)
(-0.00284328717293 5.42442886651e-05 0)
(-0.176918642333 0.0054872070343 0)
(-0.0375862701317 0.00120097960681 0)
(-0.0375854365045 0.00120095297024 0)
(-0.00739640861364 0.000229557282578 0)
(0 0 0)
(0 0 0)
(0 0 0)
(-0.0033590394236 6.40838202578e-05 0)
(0 0 0)
(0 0 0)
(0 0 0)
(-0.332768536969 0.0111429117191 0)
(-0.904582487903 0.0302903720922 0)
(-0.201831582622 0.00675842592504 0)
(-2.23695676038 0.0720209952523 0)
(-0.493392720025 0.0157472738197 0)
(-1.34126684733 0.0428082852724 0)
(-0.299262532611 0.00955135504384 0)
(0 0 0)
(-0.0261916290285 0.000917685532186 0)
(0 0 0)
(-0.0667701672182 0.00213105719541 0)
(0 0 0)
(-0.0404988341441 0.00129257324797 0)
(0 0 0)
(-0.0742502833364 0.00248630582649 0)
(-0.0742485678122 0.00248624838135 0)
(-0.0139976203826 0.000533260235328 0)
(-0.493395241907 0.0157473543089 0)
(-0.110089347892 0.00351364549076 0)
(-0.110085636064 0.00351352702291 0)
(-0.0245633824513 0.000783972470003 0)
(0 0 0)
(0 0 0)
(0 0 0)
(-0.013332351181 0.000479789020949 0)
(0 0 0)
(0 0 0)
(0 0 0)
(-7.23962027752 0.193688968663 0)
(-4.3016451723 0.112448030488 0)
(-4.45574275321 0.0753683980784 0)
(-2.10090840724 0.0355366343914 0)
(-0.578698376966 0.0150229057462 0)
(-1.57305297903 0.0408361723108 0)
(-0.350988770787 0.00911160533949 0)
(-2.71416477799 0.0459097983811 0)
(-0.286553614918 0.00484702284583 0)
(-1.27875985549 0.0216300821598 0)
(-0.135556957358 0.00229293100844 0)
(0 0 0)
(-0.0475000897064 0.00123309378253 0)
(0 0 0)
(-0.103809308878 0.00175239540601 0)
(0 0 0)
(-0.0491424652406 0.000829569440916 0)
(0 0 0)
(0 0 0)
(0 0 0)
(0 0 0)
(0 0 0)
(0 0 0)
(0 0 0)
(0 0 0)
(0 0 0)
(0 0 0)
(0 0 0)
(0 0 0)
(0 0 0)
(0 0 0)
(0 0 0)
(0 0 0)
(0 0 0)
(0 0 0)
(0 0 0)
(0 0 0)
(0 0 0)
(0 0 0)
(0 0 0)
(0 0 0)
(0 0 0)
(0 0 0)
(0 0 0)
(0 0 0)
(0 0 0)
(0 0 0)
(0 0 0)
(0 0 0)
(0 0 0)
(0 0 0)
(0 0 0)
(0 0 0)
(0 0 0)
(0 0 0)
(0 0 0)
(0 0 0)
(0 0 0)
(0 0 0)
(0 0 0)
(-1.65812755988 -0.213614553014 0.197660687515)
(-0.708379612754 -0.00589773996616 0.0185654335049)
(-2.52193832416 -0.184988488691 0.183642486431)
(-2.72586458555 0.042492905329 0.00288261449333)
(-0.135471372298 0.00229148334656 0)
(-0.28486434415 0.00481844901678 0)
(-1.57295802848 0.0408337074117 0)
(-0.578660510819 0.0150219227479 0)
(-0.350974929931 0.00911124603337 0)
(-2.69247494454 0.0455429172363 0)
(-1.27286586357 0.0215303859355 0)
(-0.283607215977 0.00479718483215 0)
(-0.133708547269 0.0022616653553 0)
(-0.12911571226 0.00335182065969 0)
(-0.129115997247 0.00335182805789 0)
(-0.0288095398163 0.000747890470198 0)
(-0.773935431635 0.0130910326132 0)
(-0.0807922053054 0.00136384579523 0)
(-0.0798621387401 0.00134814542699 0)
(-0.00603446712906 2.76313536273e-05 0)
(0 0 0)
(0 0 0)
(0 0 0)
(-0.0297836959734 0.000502775835442 0)
(0 0 0)
(0 0 0)
(0 0 0)
(0 0 0)
(0 0 0)
(0 0 0)
(0 0 0)
(0 0 0)
(0 0 0)
(0 0 0)
(0 0 0)
(0 0 0)
(0 0 0)
(0 0 0)
(0 0 0)
(0 0 0)
(0 0 0)
(0 0 0)
(0 0 0)
(0 0 0)
(0 0 0)
(0 0 0)
(0 0 0)
(0 0 0)
(0 0 0)
(0 0 0)
(0 0 0)
(0 0 0)
(0 0 0)
(0 0 0)
(0 0 0)
(0 0 0)
(0 0 0)
(0 0 0)
(0 0 0)
(0 0 0)
(0 0 0)
(0 0 0)
(0 0 0)
(0 0 0)
(0 0 0)
(0 0 0)
(0 0 0)
(0 0 0)
(0 0 0)
(-0.0783123061799 0.00203297337843 0)
(0 0 0)
(0 0 0)
(-0.0489736487305 0.000826719664919 0)
(-0.103108828089 0.00174057065417 0)
(0 0 0)
(0 0 0)
(-0.0474986751089 0.00123305705983 0)
(0 0 0)
(0 0 0)
(-0.102662698159 0.00173303957581 0)
(-0.0484182780354 0.000817344503238 0)
(0 0 0)
(0 0 0)
(0 0 0)
(0 0 0)
(0 0 0)
(-0.0293685025912 0.000495766994103 0)
(0 0 0)
(0 0 0)
(0 0 0)
(0 0 0)
(0 0 0)
(0 0 0)
(0 0 0)
(0 0 0)
(0 0 0)
(0 0 0)
(0 0 0)
(0 0 0)
(0 0 0)
(0 0 0)
(0 0 0)
(0 0 0)
(0 0 0)
(0 0 0)
(0 0 0)
(0 0 0)
(0 0 0)
(0 0 0)
(0 0 0)
(0 0 0)
(0 0 0)
(0 0 0)
(0 0 0)
(0 0 0)
(0 0 0)
(0 0 0)
(0 0 0)
(0 0 0)
(0 0 0)
(0 0 0)
(0 0 0)
(0 0 0)
(0 0 0)
(0 0 0)
(0 0 0)
(0 0 0)
(0 0 0)
(0 0 0)
(0 0 0)
(0 0 0)
(0 0 0)
(0 0 0)
(0 0 0)
(0 0 0)
(0 0 0)
(0 0 0)
(0 0 0)
(0 0 0)
(0 0 0)
(0 0 0)
(0 0 0)
(0 0 0)
(0 0 0)
(0 0 0)
(0 0 0)
(0 0 0)
(0 0 0)
(0 0 0)
(0 0 0)
(0 0 0)
(0 0 0)
(0 0 0)
(0 0 0)
(0 0 0)
(0 0 0)
(0 0 0)
(0 0 0)
(0 0 0)
(0 0 0)
(0 0 0)
(0 0 0)
(0 0 0)
(0 0 0)
(0 0 0)
(0 0 0)
(0 0 0)
(0 0 0)
(0 0 0)
(0 0 0)
(0 0 0)
(0 0 0)
(0 0 0)
(0 0 0)
(0 0 0)
(0 0 0)
(0 0 0)
(0 0 0)
(0 0 0)
(0 0 0)
(0 0 0)
(0 0 0)
(0 0 0)
(0 0 0)
(0 0 0)
(0 0 0)
(0 0 0)
(0 0 0)
(0 0 0)
(0 0 0)
(0 0 0)
(0 0 0)
(0 0 0)
(0 0 0)
(0 0 0)
(0 0 0)
(0 0 0)
(0 0 0)
(0 0 0)
(0 0 0)
(0 0 0)
(0 0 0)
(0 0 0)
(0 0 0)
(0 0 0)
(0 0 0)
(0 0 0)
(0 0 0)
(0 0 0)
(0 0 0)
(0 0 0)
(0 0 0)
(0 0 0)
(0 0 0)
(0 0 0)
(0 0 0)
(0 0 0)
(0 0 0)
(0 0 0)
(0 0 0)
(0 0 0)
(0 0 0)
(0 0 0)
(0 0 0)
(0 0 0)
(0 0 0)
(0 0 0)
(0 0 0)
(0 0 0)
(0 0 0)
(0 0 0)
(0 0 0)
(0 0 0)
(0 0 0)
(0 0 0)
(0 0 0)
(0 0 0)
(0 0 0)
(0 0 0)
(0 0 0)
(0 0 0)
(0 0 0)
(0 0 0)
(0 0 0)
(0 0 0)
(0 0 0)
(0 0 0)
(0 0 0)
(0 0 0)
(0 0 0)
(0 0 0)
(0 0 0)
(0 0 0)
(0 0 0)
(0 0 0)
(0 0 0)
(0 0 0)
(0 0 0)
(0 0 0)
(0 0 0)
(-0.00194572649515 1.46634935952e-05 0)
(-0.00283634240605 2.13754033821e-05 0)
(-0.00114729394599 8.6286481139e-06 0)
(-0.00168086184064 1.26674056689e-05 0)
(-0.0927573537315 0.0011389072066 0)
(-0.0579874662175 0.000711990376085 0)
(-0.00258858589533 1.95082468125e-05 0)
(-0.00153850490394 1.1594567305e-05 0)
(-0.00156436586506 1.17894621367e-05 0)
(-0.000937657028498 7.05199620264e-06 0)
(-0.00726472550621 8.89205116143e-05 0)
(-0.0203233899828 0.00024953768497 0)
(-0.00436892737136 5.34758342535e-05 0)
(-0.000563048605886 4.23461512038e-06 0)
(-0.000125637915985 9.44906377818e-07 0)
(-0.000342351667469 2.57478223442e-06 0)
(-7.6223906266e-05 5.73270056322e-07 0)
(0 0 0)
(-0.000565182176813 5.19613115176e-06 0)
(0 0 0)
(-1.4953590244e-05 3.6767649771e-08 0)
(0 0 0)
(-9.07601216068e-06 2.23159542957e-08 0)
(0 0 0)
(0 0 0)
(0 0 0)
(0 0 0)
(0 0 0)
(0 0 0)
(0 0 0)
(0 0 0)
(0 0 0)
(0 0 0)
(0 0 0)
(0 0 0)
(0 0 0)
(0 0 0)
(0 0 0)
(0 0 0)
(0 0 0)
(0 0 0)
(0 0 0)
(0 0 0)
(0 0 0)
(0 0 0)
(0 0 0)
(0 0 0)
(0 0 0)
(0 0 0)
(0 0 0)
(0 0 0)
(0 0 0)
(0 0 0)
(0 0 0)
(0 0 0)
(0 0 0)
(0 0 0)
(0 0 0)
(0 0 0)
(0 0 0)
(0 0 0)
(0 0 0)
(0 0 0)
(0 0 0)
(0 0 0)
(0 0 0)
(-0.0385970096585 0.000473907573741 0)
(-0.00550854758707 6.74248282712e-05 0)
(-0.00890773772892 0.000109031042605 0)
(-0.000417116231928 3.13707677137e-06 0)
(-0.000629759175798 4.73633661491e-06 0)
(-9.63694283042e-05 7.24781899774e-07 0)
(-0.000147408696436 1.10864157779e-06 0)
(-0.0222144377463 0.000272756630306 0)
(-0.00872033147411 0.000106737183044 0)
(-0.00516009426788 6.31597466257e-05 0)
(-0.000603911467185 4.54193937003e-06 0)
(-0.000351072108406 2.64036753321e-06 0)
(-0.000141861002111 1.06691809242e-06 0)
(-8.27685707199e-05 6.22491623989e-07 0)
(-0.00171970412094 2.10492426904e-05 0)
(-0.00187272453341 2.2922218256e-05 0)
(-0.000389261463323 3.57876397864e-06 0)
(-0.000127718473792 9.60553981697e-07 0)
(-2.78632561011e-05 1.68293017261e-07 0)
(-2.87556200618e-05 1.73682861968e-07 0)
(-3.74759258462e-06 -1.02382284511e-08 0)
(0 0 0)
(0 0 0)
(0 0 0)
(0 0 0)
(0 0 0)
(0 0 0)
(0 0 0)
(0 0 0)
(0 0 0)
(0 0 0)
(0 0 0)
(0 0 0)
(0 0 0)
(0 0 0)
(0 0 0)
(0 0 0)
(0 0 0)
(0 0 0)
(0 0 0)
(0 0 0)
(0 0 0)
(0 0 0)
(0 0 0)
(0 0 0)
(0 0 0)
(0 0 0)
(0 0 0)
(0 0 0)
(0 0 0)
(0 0 0)
(0 0 0)
(0 0 0)
(0 0 0)
(0 0 0)
(0 0 0)
(0 0 0)
(0 0 0)
(0 0 0)
(0 0 0)
(0 0 0)
(0 0 0)
(0 0 0)
(0 0 0)
(0 0 0)
(0 0 0)
(0 0 0)
(0 0 0)
(0 0 0)
(0 0 0)
(-0.00123709710604 1.51421147973e-05 0)
(0 0 0)
(0 0 0)
(-1.21160331979e-05 2.97907096534e-08 0)
(-1.88884118344e-05 4.64425264919e-08 0)
(0 0 0)
(0 0 0)
(-0.000677911927423 6.23253780594e-06 0)
(0 0 0)
(0 0 0)
(-1.77415302176e-05 4.36225922201e-08 0)
(-1.02203623367e-05 2.51296643012e-08 0)
(0 0 0)
(0 0 0)
(0 0 0)
(0 0 0)
(0 0 0)
(0 0 0)
(0 0 0)
(0 0 0)
(0 0 0)
(0 0 0)
(0 0 0)
(0 0 0)
(0 0 0)
(0 0 0)
(0 0 0)
(0 0 0)
(0 0 0)
(0 0 0)
(0 0 0)
(0 0 0)
(0 0 0)
(0 0 0)
(0 0 0)
(0 0 0)
(0 0 0)
(0 0 0)
(0 0 0)
(0 0 0)
(0 0 0)
(0 0 0)
(0 0 0)
(0 0 0)
(0 0 0)
(0 0 0)
(0 0 0)
(0 0 0)
(0 0 0)
(0 0 0)
(0 0 0)
(0 0 0)
(0 0 0)
(0 0 0)
(0 0 0)
(0 0 0)
(0 0 0)
(0 0 0)
(0 0 0)
(0 0 0)
(0 0 0)
(0 0 0)
(0 0 0)
(0 0 0)
(0 0 0)
(0 0 0)
(0 0 0)
(0 0 0)
(0 0 0)
(0 0 0)
(0 0 0)
(0 0 0)
(0 0 0)
(0 0 0)
(0 0 0)
(0 0 0)
(0 0 0)
(0 0 0)
(0 0 0)
(0 0 0)
(0 0 0)
(0 0 0)
(0 0 0)
(0 0 0)
(0 0 0)
(0 0 0)
(0 0 0)
(0 0 0)
(0 0 0)
(0 0 0)
(0 0 0)
(0 0 0)
(0 0 0)
(0 0 0)
(0 0 0)
(0 0 0)
(0 0 0)
(0 0 0)
(0 0 0)
(0 0 0)
(0 0 0)
(0 0 0)
(0 0 0)
(0 0 0)
(0 0 0)
(0 0 0)
(0 0 0)
(0 0 0)
(0 0 0)
(0 0 0)
(0 0 0)
(0 0 0)
(0 0 0)
(0 0 0)
(0 0 0)
(0 0 0)
(0 0 0)
(0 0 0)
(0 0 0)
(0 0 0)
(0 0 0)
(0 0 0)
(0 0 0)
(0 0 0)
(0 0 0)
(0 0 0)
(0 0 0)
(0 0 0)
(0 0 0)
(0 0 0)
(0 0 0)
(0 0 0)
(0 0 0)
(0 0 0)
(0 0 0)
(0 0 0)
(0 0 0)
(0 0 0)
(0 0 0)
(0 0 0)
(0 0 0)
(0 0 0)
(0 0 0)
(0 0 0)
(0 0 0)
(0 0 0)
(0 0 0)
(0 0 0)
(0 0 0)
(0 0 0)
(0 0 0)
(0 0 0)
(0 0 0)
(0 0 0)
(0 0 0)
(0 0 0)
(0 0 0)
(0 0 0)
(0 0 0)
(0 0 0)
(0 0 0)
(0 0 0)
(0 0 0)
(0 0 0)
(0 0 0)
(0 0 0)
(0 0 0)
(0 0 0)
(0 0 0)
(0 0 0)
(0 0 0)
(0 0 0)
(0 0 0)
(0 0 0)
(0 0 0)
(0 0 0)
(0 0 0)
(0 0 0)
(0 0 0)
(0 0 0)
(0 0 0)
(0 0 0)
(0 0 0)
(0 0 0)
(0 0 0)
(0 0 0)
(0 0 0)
(0 0 0)
(0 0 0)
(0 0 0)
(0 0 0)
(0 0 0)
(0 0 0)
(0 0 0)
(0 0 0)
(0 0 0)
(-7.22702163273 0.148334370837 0)
(-5.61579777769 0.11480287683 0)
(-6.45399446669 0.109168605798 0)
(-3.9350884961 0.0665615886452 0)
(-4.9558762099 0.101312203294 0)
(-5.70325190347 0.0964698780001 0)
(-8.19760337216 0.168560810737 0)
(-5.6154598629 0.114795968891 0)
(-2.65256475061 0.054225966889 0)
(-3.06195425315 0.0517926190607 0)
(-3.05024558721 0.0515945682654 0)
(-3.859580952 0.0789008105686 0)
(-3.85934702419 0.0788960284189 0)
(-4.4377508923 0.075064067732 0)
(-1.60898967174 0.0328923245492 0)
(-3.40627818654 0.0696340129363 0)
(-1.4546266375 0.024604849414 0)
(-2.39428543337 0.0404990744867 0)
(-3.00599429651 0.0614510718932 0)
(-1.28440831046 0.0217256251538 0)
(-1.82330658794 0.0372735717926 0)
(-0.760047563717 0.0155375336322 0)
(-0.3590224046 0.00733943894104 0)
(-0.687293269466 0.0116254899797 0)
(-0.253134244468 0.00428173787424 0)
(-0.316834462363 0.00647699742728 0)
(-0.607125440803 0.0102694599846 0)
(-0.861268593384 0.0176067793319 0)
(-1.25307854957 0.0256164890688 0)
(-1.60885091058 0.0328894878765 0)
(-1.86357286973 0.0315221299059 0)
(-0.686367899792 0.0116098374536 0)
(-2.34103630133 0.0478574394585 0)
(-0.861147696526 0.0176043078563 0)
(-1.00022284563 0.016918659306 0)
(-0.591912279759 0.0121003702835 0)
(-0.169566650726 0.00346642455596 0)
(-0.197381466462 0.00333868577284 0)
(-0.324777577451 0.00549357696349 0)
(-0.246748787658 0.00504424692606 0)
(-0.406772074668 0.00831557798816 0)
(-0.473227276537 0.00800458727872 0)
(-0.0367319054147 0.000752416383158 0)
(-0.132074285082 0.00269997398107 0)
(-0.0337201235247 0.00056922630729 0)
(-0.0916973935261 0.0015479352757 0)
(-0.116555454198 0.00238272494521 0)
(-0.0297811555783 0.000502732951267 0)
(-0.0416220773317 0.000852586669051 0)
(-0.0092264955728 0.000129074078263 0)
(0 0 0)
(-0.00880269105209 0.000105446832499 0)
(0 0 0)
(0 0 0)
(-0.0060920782847 2.78951506089e-05 0)
(-0.0104546710107 0.000146255641007 0)
(-0.0286071828978 0.0005859895599 0)
(-0.0623815874296 0.00127525704836 0)
(-0.0715095984496 0.00120714696171 0)
(-0.014537029198 0.000174138075936 0)
(-0.0907742670062 0.00185568416225 0)
(-0.0196607656085 0.000402731140196 0)
(-0.0232249836376 0.000392058815063 0)
(-0.00530709393062 2.76366952039e-05 0)
(0 0 0)
(0 0 0)
(0 0 0)
(0 0 0)
(0 0 0)
(-0.00475043499807 2.17518707962e-05 0)
(0 0 0)
(0 0 0)
(0 0 0)
(0 0 0)
(0 0 0)
(0 0 0)
(0 0 0)
(0 0 0)
(0 0 0)
(0 0 0)
(0 0 0)
(0 0 0)
(0 0 0)
(0 0 0)
(0 0 0)
(0 0 0)
(0 0 0)
(0 0 0)
(0 0 0)
(0 0 0)
(0 0 0)
(0 0 0)
(0 0 0)
(0 0 0)
(0 0 0)
(0 0 0)
(0 0 0)
(0 0 0)
(0 0 0)
(0 0 0)
(0 0 0)
(0 0 0)
(0 0 0)
(0 0 0)
(0 0 0)
(0 0 0)
(0 0 0)
(0 0 0)
(0 0 0)
(0 0 0)
(0 0 0)
(0 0 0)
(0 0 0)
(0 0 0)
(0 0 0)
(0 0 0)
(0 0 0)
(0 0 0)
(0 0 0)
(0 0 0)
(0 0 0)
(0 0 0)
(0 0 0)
(0 0 0)
(0 0 0)
(0 0 0)
(0 0 0)
(0 0 0)
(0 0 0)
(0 0 0)
(0 0 0)
(0 0 0)
(0 0 0)
(0 0 0)
(0 0 0)
(0 0 0)
(0 0 0)
(0 0 0)
(0 0 0)
(0 0 0)
(0 0 0)
(0 0 0)
(0 0 0)
(0 0 0)
(0 0 0)
(0 0 0)
(0 0 0)
(0 0 0)
(0 0 0)
(0 0 0)
(0 0 0)
(0 0 0)
(0 0 0)
(0 0 0)
(0 0 0)
(0 0 0)
(0 0 0)
(0 0 0)
(0 0 0)
(0 0 0)
(0 0 0)
(0 0 0)
(0 0 0)
(0 0 0)
(0 0 0)
(0 0 0)
(0 0 0)
(0 0 0)
(0 0 0)
(0 0 0)
(0 0 0)
(0 0 0)
(0 0 0)
(0 0 0)
(0 0 0)
(0 0 0)
(0 0 0)
(0 0 0)
(0 0 0)
(0 0 0)
(0 0 0)
(0 0 0)
(0 0 0)
(0 0 0)
(0 0 0)
(0 0 0)
(0 0 0)
(0 0 0)
(0 0 0)
(0 0 0)
(0 0 0)
(0 0 0)
(0 0 0)
(0 0 0)
(0 0 0)
(0 0 0)
(0 0 0)
(0 0 0)
(0 0 0)
(0 0 0)
(0 0 0)
(0 0 0)
(0 0 0)
(0 0 0)
(0 0 0)
(0 0 0)
(0 0 0)
(0 0 0)
(0 0 0)
(0 0 0)
(0 0 0)
(0 0 0)
(0 0 0)
(0 0 0)
(0 0 0)
(0 0 0)
(0 0 0)
(0 0 0)
(0 0 0)
(0 0 0)
(0 0 0)
(0 0 0)
(0 0 0)
(0 0 0)
(0 0 0)
(0 0 0)
(0 0 0)
(0 0 0)
(0 0 0)
(0 0 0)
(0 0 0)
(0 0 0)
(0 0 0)
(0 0 0)
(0 0 0)
(0 0 0)
(0 0 0)
(0 0 0)
(-3.07145936823 -0.283447396551 0.27427995943)
(-10.7477275882 -1.54939139924 1.40421481496)
(-2.60624791999 -0.089777305692 0.107926148904)
(-1.08901040573 -0.0535120965186 0.0578992356397)
(-7.87586193091 -0.909745529874 0.849832832265)
(-1.22869688002 -0.0195087532057 0.0323946877088)
(-3.8760780549 -0.495545428159 0.455400992028)
(-2.25370376315 -0.075561799621 0.0962446790609)
(-3.83137127901 -0.00271035174105 0.0641936531638)
(-2.63831697695 0.00218124169402 0.0341472260334)
(-1.44890589844 0.0245080837427 0)
(-5.02838422882 -0.28788054713 0.310011943475)
(-1.93363746834 0.0194309417577 0.0158280936753)
(-1.34120311342 0.0126517726435 0.00803393286876)
(-0.942719694938 -0.0458369778706 0.0514154004391)
(-0.202972492026 -0.00152449366561 0.00442920742092)
(-0.384904389768 -0.00352770317685 0.00803453578502)
(-0.197024763104 0.00333265217482 0)
(-0.252411059983 0.00429510786319 0.00066412955795)
(-0.496392608882 0.00458282568412 0.00304013003093)
(-1.00586261188 -0.0913917863748 0.0884863053481)
(-0.867221738646 -0.00167749632257 0.0152747071521)
(-0.358949145188 0.00733794131033 0)
(-0.683851611746 0.0115672747183 0)
(-0.252484423771 0.00427074622871 0)
(-0.861049005467 0.0176022903304 0)
(-0.316774880558 0.00647577940575 0)
(-0.605091777806 0.010235060799 0)
(-1.60865202481 0.0328854220856 0)
(-3.41045629537 0.0689981321945 0.000553863495527)
(-2.37350535624 0.0401475817698 0)
(-1.44456220335 0.0244346106186 0)
(-3.00547681601 0.0614404931203 0)
(-1.82288323984 0.0372649173534 0)
(-1.27012737824 0.0214840647577 0)
(-1.2528266704 0.0256113399422 0)
(-1.6087372003 0.032887163315 0)
(-1.84945833505 0.0312833841058 0)
(-0.68073329535 0.0115145287398 0)
(-2.3406770517 0.0478500953745 0)
(-0.861051594496 0.0176023432575 0)
(-0.989374780481 0.0167351654784 0)
(-0.759826537188 0.0155330152214 0)
(-0.358941750892 0.00733779014988 0)
(-0.682354578776 0.0115419525705 0)
(-0.250081598695 0.00423010270711 0)
(-0.861025723801 0.0176018143869 0)
(-0.316754876953 0.00647537047517 0)
(-0.599861245148 0.010146586915 0)
(-0.591745085329 0.0120969523539 0)
(-0.169540570947 0.0034658914111 0)
(-0.321126438126 0.00543181834381 0)
(-0.194738346435 0.0032939776886 0)
(-0.406703538184 0.00831417690752 0)
(-0.246686749211 0.00504297868378 0)
(-0.466976733011 0.00789886002318 0)
(-0.279524546185 0.00571427663834 0)
(-0.975745036919 0.0199470033868 0)
(-0.415130156976 0.00702188089803 0)
(-0.413372018381 0.00699214217727 0)
(-0.522250428687 0.0106762839427 0)
(-0.522242427984 0.0106761203855 0)
(-0.221522629171 0.00374703088204 0)
(-0.132034454337 0.00269915972738 0)
(-0.102829246782 0.00210212223093 0)
(-0.196487153943 0.00332355857506 0)
(-0.0431505244848 0.000728420039508 0)
(-0.246675661228 0.00504275201388 0)
(-0.0534269073701 0.00109439681805 0)
(-0.10323097152 0.00174263254621 0)
(-0.132031888698 0.00269910727841 0)
(-0.10282994232 0.00210213644971 0)
(-0.194878979313 0.00329635647825 0)
(-0.0427958885485 0.000722433462849 0)
(-0.24667269573 0.00504269139067 0)
(-0.0534289887417 0.00109443945287 0)
(-0.102784870848 0.00173510196175 0)
(-0.0623661498506 0.00127494146034 0)
(-0.00922380781761 0.000129036477906 0)
(-0.0203311780302 0.000343208748465 0)
(-0.0202506145184 0.000341848763223 0)
(-0.0252371010312 0.00051695679995 0)
(-0.0252379095512 0.000516973361675 0)
(-0.0486419972762 0.000821121087188 0)
(0 0 0)
(-0.0367220121859 0.000752213730249 0)
(-0.00882207490559 0.00010567903035 0)
(-0.0144900985944 0.000173575897454 0)
(-0.0104528683565 0.000146230422773 0)
(-0.0196548649945 0.000402610272015 0)
(0 0 0)
(0 0 0)
(0 0 0)
(0 0 0)
(0 0 0)
(0 0 0)
(0 0 0)
(0 0 0)
(0 0 0)
(0 0 0)
(-0.00535094204774 2.45015456706e-05 0)
(0 0 0)
(-0.00813987064581 0.000113872736674 0)
(0 0 0)
(0 0 0)
(0 0 0)
(0 0 0)
(0 0 0)
(0 0 0)
(0 0 0)
(0 0 0)
(0 0 0)
(0 0 0)
(0 0 0)
(0 0 0)
(0 0 0)
(0 0 0)
(0 0 0)
(0 0 0)
(0 0 0)
(0 0 0)
(0 0 0)
(0 0 0)
(0 0 0)
(0 0 0)
(0 0 0)
(0 0 0)
(0 0 0)
(0 0 0)
(0 0 0)
(0 0 0)
(0 0 0)
(0 0 0)
(0 0 0)
(0 0 0)
(0 0 0)
(0 0 0)
(0 0 0)
(0 0 0)
(0 0 0)
(0 0 0)
(0 0 0)
(0 0 0)
(0 0 0)
(0 0 0)
(0 0 0)
(0 0 0)
(0 0 0)
(0 0 0)
(0 0 0)
(0 0 0)
(0 0 0)
(0 0 0)
(0 0 0)
(0 0 0)
(0 0 0)
(0 0 0)
(0 0 0)
(0 0 0)
(0 0 0)
(0 0 0)
(0 0 0)
(0 0 0)
(0 0 0)
(0 0 0)
(0 0 0)
(0 0 0)
(0 0 0)
(0 0 0)
(0 0 0)
(0 0 0)
(0 0 0)
(0 0 0)
(0 0 0)
(0 0 0)
(0 0 0)
(0 0 0)
(0 0 0)
(0 0 0)
(0 0 0)
(0 0 0)
(0 0 0)
(0 0 0)
(0 0 0)
(0 0 0)
(0 0 0)
(0 0 0)
(0 0 0)
(0 0 0)
(0 0 0)
(0 0 0)
(0 0 0)
(0 0 0)
(0 0 0)
(0 0 0)
(0 0 0)
(0 0 0)
(0 0 0)
(0 0 0)
(0 0 0)
(0 0 0)
(0 0 0)
(0 0 0)
(0 0 0)
(0 0 0)
(0 0 0)
(0 0 0)
(0 0 0)
(0 0 0)
(0 0 0)
(0 0 0)
(0 0 0)
(0 0 0)
(0 0 0)
(0 0 0)
(0 0 0)
(0 0 0)
(0 0 0)
(0 0 0)
(0 0 0)
(0 0 0)
(0 0 0)
(0 0 0)
(0 0 0)
(0 0 0)
(0 0 0)
(0 0 0)
(0 0 0)
(0 0 0)
(0 0 0)
(0 0 0)
(0 0 0)
(0 0 0)
(0 0 0)
(0 0 0)
(0 0 0)
(0 0 0)
(0 0 0)
(0 0 0)
(0 0 0)
(0 0 0)
(0 0 0)
(0 0 0)
(0 0 0)
(0 0 0)
(0 0 0)
(0 0 0)
(0 0 0)
(0 0 0)
(0 0 0)
(0 0 0)
(0 0 0)
(0 0 0)
(0 0 0)
(0 0 0)
(0 0 0)
(0 0 0)
(0 0 0)
(0 0 0)
(0 0 0)
(0 0 0)
(0 0 0)
(0 0 0)
(0 0 0)
(0 0 0)
(0 0 0)
(0 0 0)
(0 0 0)
(0 0 0)
(0 0 0)
(0 0 0)
(0 0 0)
(0 0 0)
(0 0 0)
(0 0 0)
(0 0 0)
(0 0 0)
(0 0 0)
(0 0 0)
(0 0 0)
(-0.028601551025 0.000585874196615 0)
(-0.0623772367558 0.00127516810821 0)
(-0.0712445147359 0.00120267210789 0)
(-0.0144680586888 0.000173311882936 0)
(-0.09075621827 0.00185531519476 0)
(-0.023083025182 0.000389662427417 0)
(-0.0196576840327 0.000402668017196 0)
(-0.0367245895848 0.000752266525691 0)
(-0.132046576846 0.00269940754594 0)
(-0.0913593298569 0.00154222845396 0)
(-0.0334545270479 0.000564742797566 0)
(-0.116529996038 0.00238220450803 0)
(-0.0416138131754 0.000852417386066 0)
(-0.0295530092191 0.000498881633537 0)
(-0.00530594901251 2.76307330421e-05 0)
(0 0 0)
(0 0 0)
(0 0 0)
(0 0 0)
(-0.00471778479664 2.16023680742e-05 0)
(0 0 0)
(-0.00922461033685 0.000129047704751 0)
(0 0 0)
(-0.00872866172763 0.000104560040297 0)
(0 0 0)
(-0.0104526927738 0.000146227966458 0)
(0 0 0)
(-0.00604202648725 2.7665967338e-05 0)
(-0.036722780821 0.000752229474972 0)
(-0.132045462352 0.0026993847625 0)