/*--------------------------------*- C++ -*----------------------------------*\
| =========                 |                                                 |
| \\      /  F ield         | OpenFOAM: The Open Source CFD Toolbox           |
|  \\    /   O peration     | Version:  v1906                                 |
|   \\  /    A nd           | Web:      www.OpenFOAM.com                      |
|    \\/     M anipulation  |                                                 |
\*---------------------------------------------------------------------------*/
FoamFile
{
    version     2.0;
    format      ascii;
    class       volVectorField;
    location    "2.45";
    object      U;
}
// * * * * * * * * * * * * * * * * * * * * * * * * * * * * * * * * * * * * * //

dimensions      [0 1 -1 0 0 0 0];


internalField   nonuniform List<vector> 
28582
(
(0.805986001396 -0.00262676235854 0.000152664665035)
(0.804255517545 -0.00325221079702 0.000149860118565)
(0.806055707284 -0.00240590382572 0.000575463342751)
(0.804173598606 -0.00311788765236 0.000539425792973)
(0.806178927709 -0.00276090394848 0.000485121315557)
(0.803954972711 -0.00339905130411 0.000912586702497)
(0.808011948152 -0.00215497585682 -0.000130064484827)
(0.804924278205 -0.00324033174866 0.000318913644395)
(0.53036847215 0.0554087762603 0.00369088298015)
(0.572048500384 0.0771409224873 0.00824727196263)
(-0.0311778571375 -0.0326821404474 0.0031368733665)
(0.806521044586 -0.00282098585449 0.000335665943714)
(0.799051481524 0.000121883725372 0.000552509756979)
(0.798764941483 -0.00042143244325 0.0021177873399)
(0.803444024759 -0.00363124482036 0.000536951551109)
(0.803183997962 -0.00355933962649 0.00239544972463)
(0.798773049998 -0.000199588821491 0.00217945017869)
(0.802469348638 -0.00459352476678 0.00257511542283)
(0.802212377784 -0.00388547631625 0.0029005019695)
(0.80926173687 -0.00232093168467 -0.000148030780617)
(0.802744920097 -0.00320741730358 4.46434591861e-05)
(0.801873502909 -0.0031313341964 -0.000117601231133)
(0.809203741708 -0.00271339227263 0.000447706794715)
(0.802428387622 -0.00316299768428 0.000234246271021)
(0.801503021911 -0.00312743577197 -0.000343574047711)
(0.809978367191 -0.00290458048683 0.000679957373938)
(0.801710142246 -0.00341853861294 0.000485853622795)
(0.811904029143 -0.00176322663247 -0.000724008430963)
(0.801917010927 -0.0038344537258 -0.000114762676361)
(0.585569231204 0.085062482695 0.00821307979734)
(0.033477986836 -0.0141761578823 0.0424660315398)
(-0.014030002562 -0.0157203599653 -0.0370563316263)
(0.811444129092 -0.00341617889575 -0.000563966745756)
(0.809859288893 -0.0024743310685 0.00255609635307)
(0.801736071148 0.00214815982019 -0.00173910330508)
(0.800214462916 0.000165711302408 0.00123965351636)
(0.810035005481 -0.00169938316127 0.00061051126887)
(0.800427886249 -0.00400077499934 -5.25092275875e-05)
(0.80182932545 -0.00374151958693 0.0015078804663)
(0.800574127542 -0.00375701542739 0.0012279349687)
(0.801637425976 -0.00479045365302 0.00211741023558)
(0.79475652237 0.000138965583397 0.00230893206803)
(0.801426731848 -0.00396283451282 0.00205608259975)
(0.799813302536 -0.00308092068617 0.000519985663901)
(0.535281258856 0.064099864136 0.00435611799479)
(0.596536394876 0.0557583665872 0.00623505191109)
(0.0955625921536 0.0588698380807 0.0477696257534)
(0.0617951745502 0.0426172366525 -0.0204396101371)
(0.556280343796 0.0644485512229 0.00736746794215)
(0.0405269121181 0.0281497324605 0.00394181868287)
(0.80871995253 -0.0019455217465 0.000579853834172)
(0.807939710628 -0.0028475887493 0.00146451608412)
(0.799109711136 8.38421670019e-05 0.000851685090324)
(0.799576549281 -0.000480440055636 0.000788014038665)
(0.808723004971 -0.00251363957105 0.000797878054489)
(0.79909963803 -0.000383231524604 0.00148113742049)
(0.80843294994 -0.00210531789556 0.000886527527412)
(0.807239188988 -0.00326078767395 0.00151973600213)
(0.806528760282 -0.0028580829495 0.00198874988828)
(0.798973307223 -0.000465480019881 0.00193829148313)
(0.79919416771 -0.000747206092026 0.00183382818809)
(0.806346778351 -0.00357358378391 0.00217405146998)
(0.799031355126 -0.000768203181065 0.00147635983104)
(0.807410750418 -0.00261573264168 0.00169333171612)
(0.804450376873 -0.00409182957401 0.00266390115565)
(0.805546481387 -0.00309909525544 0.00227236692004)
(0.798651296693 -0.000197386136787 0.00234065932361)
(0.799074552047 -0.000685737178592 0.00227849781175)
(0.805317524116 -0.00386890257557 0.00220890008962)
(0.798759958804 -0.000985702937835 0.00233098390706)
(0.804576931132 -0.00321171050409 0.0023496705581)
(0.802739999172 -0.00373173860985 0.00283079200861)
(0.797801586418 -0.000153294269595 0.00264899489318)
(0.797945125092 -0.00108856072383 0.00227679005826)
(0.803341471424 -0.00433436331827 0.00278583952362)
(0.798270597422 -7.27296170056e-05 0.0024132215087)
(0.798464176357 -0.00106213170675 0.00242745447403)
(0.803631196615 -0.00345398526948 0.00240347547825)
(0.802004123082 -0.00294565097796 0.00281324066926)
(0.79762099773 -0.000926560824311 0.00170202510079)
(0.797629083564 -0.000997606662059 0.0014123591551)
(0.80314061992 -0.0036288120953 0.00307474599352)
(0.798254326251 -0.000751416466317 0.0019912710141)
(0.802900232354 -0.00271105315853 0.00330569822717)
(0.798059904514 -0.000827625605518 0.0017360567514)
(0.529721387582 0.0904237621355 0.00242458183013)
(0.17961805654 0.0218064258271 0.0828940339098)
(0.537390832724 0.150122606864 0.00399865425744)
(0.53551819059 0.14278734227 0.00327630690764)
(0.0819902775698 0.0316640460866 0.110227926512)
(0.0915882129385 -0.0319391625621 0.0631627089829)
(0.589943476979 0.0657443943681 0.00511927324365)
(0.116973875016 0.0880183326906 0.0962345372392)
(0.0546326394641 0.0618489063187 -0.00254008602716)
(0.566386845088 0.0707670634644 0.00369444476894)
(0.202378272792 0.0650486606936 0.164222023616)
(0.58192879643 0.0916639847609 0.00612028646887)
(0.0759550424548 0.0596665589891 0.0187450229018)
(0.811244969912 -0.00262841825172 -0.000320561263753)
(0.81141789449 -0.00148730283429 -0.000722611808282)
(0.801545784286 0.00232313620441 -0.002486764576)
(0.802577721473 -0.000495286707109 -0.00260411821019)
(0.811714801673 -0.00176710595013 -0.0018312226434)
(0.810876060585 -0.00237279271899 -0.00221582309565)
(0.801445173592 0.000258994704321 -0.000863492468779)
(0.810996909786 -0.00336940688157 -1.48255965141e-05)
(0.811411782588 -0.0033292566631 0.00116187892753)
(0.801137032175 0.00120062485711 -0.000372947964022)
(0.800346659742 -0.000869179624606 -0.000845047184757)
(0.811801188093 -0.00243804618319 -0.000546470161261)
(0.810891190869 -0.00419995969406 -0.000221983329208)
(0.800443607792 -0.00040834073273 -0.000738666252908)
(0.800667549094 0.000206970505175 -0.000446059837217)
(0.799919332916 0.000761953318391 0.000992863664291)
(0.809874134664 -0.00191452275537 0.00228817243877)
(0.810338621346 -0.00292332308294 0.00107406031284)
(0.799982195398 0.000220541680809 -0.000457783704647)
(0.810262067215 -0.00314648638352 0.000837238966947)
(0.799996123419 2.34862239352e-05 -0.000248512130455)
(0.801676108701 -0.00397111374281 0.0026021076017)
(0.797127750473 -0.000114060221739 0.00267082939977)
(0.797349941759 -0.00122081759886 0.00191619247339)
(0.8007791744 -0.00491348567788 0.00227908244024)
(0.796136431744 0.000172186145247 0.00225264144224)
(0.800784530615 -0.00401909255271 0.00215522297638)
(0.796664019112 -0.00102893162901 0.00206336356006)
(0.799867765666 -0.00491960280945 0.00180180806615)
(0.799248244986 -0.00444586246925 0.00179703271057)
(0.795554216037 0.000228293457023 0.00193653614323)
(0.794477979846 -0.000991473098552 0.000885570751941)
(0.800055269835 -0.00421258448267 0.00165856284509)
(0.799169058602 -0.00501762497069 0.000933048161016)
(0.795672296051 -0.000856039349782 0.00185655159526)
(0.80050488319 -0.00308039657606 0.00186977469564)
(0.80130947456 -0.003042126584 0.00242219631512)
(0.796959109598 -0.000845251706505 0.00117438595072)
(0.797161127718 -0.000962405402162 0.00115539980926)
(0.796447049641 -0.000901268433834 0.000817102838789)
(0.800645846828 -0.00421651482394 0.00182162341082)
(0.796393946234 -0.000975669427913 0.0010531117464)
(0.795418533921 -0.00107550373576 -0.000424297370417)
(0.794850737842 -0.000981800452739 -0.000800415290446)
(0.799614126316 -0.00306605341084 -8.85739947001e-05)
(0.799904576136 -0.00439894097134 0.00133575838663)
(0.794490667686 -0.000869149645069 0.000228625581404)
(0.799277960554 -0.00417555841654 0.000517294495566)
(0.795661575015 -0.00111993045461 0.000983345936709)
(0.800673287714 -0.00330105364109 -0.000580607045598)
(0.799320507936 -0.00396096950177 -0.00146161367043)
(0.568985914248 0.0930509143701 0.00440514715654)
(0.0505324407954 -0.0207769794658 -0.0352475751686)
(0.808708615961 -0.00355780168096 0.00313455252963)
(0.799451191232 0.000132519443083 0.000774378403939)
(0.799703950255 -0.00354658926399 -8.74025770105e-05)
(0.798590593841 -0.00308264526403 -0.000658861247011)
(0.793588520978 0.000251640598614 0.001912936962)
(0.794009953811 -0.000751722684071 -0.000598961809998)
(0.791070064904 -0.000593827676468 -0.00140705776401)
(0.798532365829 -0.00260155636998 -0.00210416861936)
(0.798962768918 -0.00216151647853 -0.00483326400446)
(0.790377237759 -0.000563828941103 -0.00128399218105)
(0.787693919132 0.000189447329949 -0.00376500735041)
(0.531100731963 0.0979310256573 0.00382269053419)
(0.526700455871 0.0584089489219 0.0018677599343)
(0.495837061085 0.0420779431091 0.000324703311904)
(0.106014931549 -0.0218828853667 0.057793437562)
(0.262012966367 -0.00792634878552 0.144526809019)
(0.243490324255 -0.0350703714139 0.128499015577)
(0.426815279612 0.0219985266613 -0.0020064527795)
(0.370778034256 0.0144487794184 -0.00349847213499)
(0.808823767747 -0.00448684227928 0.00322860784838)
(0.809183051309 -0.00252045911046 0.00226014592548)
(0.799873357194 -0.000605429220671 0.00129091583964)
(0.799529117706 -9.29142761217e-05 0.000958410379028)
(0.809922122321 -0.00386304406868 0.00234726337883)
(0.799341340465 -0.000976842826664 0.00201308281622)
(0.808808049138 -0.00293799120189 0.00251335052033)
(0.798269831806 -0.00461325259029 -0.00028652236784)
(0.798607274241 -0.00448649583421 0.00122690507477)
(0.792389483631 0.000553065815384 0.000756471097112)
(0.793730244532 -0.00106458189166 -3.65640882621e-06)
(0.797906407278 -0.00413589788484 0.000325510538612)
(0.798866322874 -0.00494271988138 -0.00016775371183)
(0.793013746899 -0.000841009442551 9.93747751419e-05)
(0.798555333626 -0.00376570191959 -0.000730598204845)
(0.799388631595 -0.00277000672322 -0.000317205808815)
(0.793447401887 -0.000711325099634 -0.000842901619099)
(0.792696936891 -0.000881987550317 -0.000902610343489)
(0.798910507481 -0.00391233585891 -0.000575971307645)
(0.792956743184 -0.00072391257152 -0.000837128032933)
(0.798778562683 -0.00270167919652 -0.000481524445962)
(0.798223210155 -0.00360386675088 -0.00116353850445)
(0.797854156212 -0.00205122036822 -0.00143312544657)
(0.790910862495 -0.000549075019658 -0.000805393334186)
(0.791829669467 -0.000829748894532 -0.00140932698267)
(0.79736846217 -0.00294518799258 -0.00121359573142)
(0.791888879042 -0.000723239386853 -0.000466837961647)
(0.798419997706 -0.00246452140942 -0.00131783767916)
(0.796395033478 -0.00202590476507 -0.00349276801741)
(0.797705803865 -0.00179031781008 -0.00220514645223)
(0.789978466898 -0.000723261238804 -0.00112907984262)
(0.789497338619 -1.50357586016e-05 -0.00127462981754)
(0.796999841774 -0.00262282969067 -0.00245327043221)
(0.78932998303 -0.000580661355857 -0.00213556440621)
(0.796741353261 -0.00125465518862 -0.00264150348391)
(0.796267862298 -0.00159646020829 -0.00520513224403)
(0.79599003769 -0.00122649352496 -0.00678388785059)
(0.787250573226 -6.23885526086e-05 -0.00458239296937)
(0.788756270367 -0.000122180145888 -0.0019993037363)
(0.796017801327 -0.0017788310249 -0.00797835044992)
(0.788139230588 -0.000166578722666 -0.00278567732736)
(0.796563281451 -0.00118376342338 -0.004009713275)
(0.792599636098 0.00866598431924 -0.000267088219785)
(0.798267553167 0.00922814312328 -0.00126771173896)
(0.802724356621 0.014024445963 -0.0024537511467)
(0.804970539318 0.0077995014026 -0.00204487608549)
(0.813884020801 -0.0789221009878 0.00230215020391)
(0.519647080833 -0.0838324348741 -0.00134201224646)
(0.82255047714 -0.06910440053 0.00158255006477)
(0.583961397929 -0.0716324329116 -0.00142666548257)
(0.608093981954 -0.00210331094211 0.000657689579067)
(-0.0271489807983 -0.0126755211101 0.0362789656024)
(0.0309254581876 -0.00203492176313 0.0869652025686)
(-0.032319755306 0.00848485611953 -0.0265363257963)
(0.0482188931633 0.0193159146542 0.0189427342011)
(0.0265437202794 0.0304470959557 -0.050011126179)
(0.120106878712 0.0547439503602 0.113961302598)
(0.789947687106 0.00192021981602 -5.65137236894e-05)
(0.791144612393 0.0046535445038 0.000458498739016)
(0.795897832519 -0.000678940273266 0.000251633859113)
(0.796164453271 0.00192485936839 0.000656150228579)
(0.788710859935 0.00615705466873 0.0019353153339)
(0.796001501327 0.00181622590507 -0.000122991903977)
(0.793192416919 0.00619346722186 0.000246471420657)
(0.795570296159 0.00712579732723 0.000120998450751)
(0.79687897655 0.00167057746742 0.000812771471448)
(0.799203963123 0.00273192197194 0.000266996147476)
(0.791900922057 0.0133919508713 0.00128849050824)
(0.79538239301 0.00986636837239 0.000215137192257)
(0.796538368816 0.0130409838039 0.000174665239335)
(0.796915426273 0.00363693468849 -0.000457007888507)
(0.793847432946 0.00583075335288 -0.0024714536036)
(0.799328426713 0.00266307976369 -0.000826420182627)
(0.796771858988 0.00543026081163 -0.00283559299866)
(0.800457792813 0.0169990971061 0.000284384599533)
(0.8060275266 0.0208597488341 0.00114986862013)
(0.795280465248 0.00833165877929 -0.0038016525304)
(0.794668932184 0.0118104135531 -0.00618501640806)
(0.798432798756 0.00511271208779 -0.00481165644151)
(0.797823295504 0.0083555868679 -0.00495167452592)
(0.799943073264 0.011557691295 -0.00158640060074)
(0.801529007665 0.00929739947203 -0.000671580127631)
(0.800083841932 0.00360641580417 -0.000554344785666)
(0.797760693371 0.00508557442938 -0.00211683918343)
(0.79934712246 0.00402502221473 -0.00136145641914)
(0.807646779846 0.0154961981538 -0.00193254110542)
(0.804254491927 0.0108134418462 -0.00147413517859)
(0.807384084584 0.0115321691274 -0.000876347456845)
(0.799749560231 0.0074477916882 -0.0041964560004)
(0.798759418679 0.0076204943679 -0.00395846986044)
(0.800468609845 0.00319570045344 -0.00287161209188)
(0.799637745855 0.00504202932215 -0.00141862229093)
(0.800999588399 0.00513231123708 -0.00264948182721)
(0.79994878162 0.00393134780968 -0.000812429561541)
(0.816946364706 -0.0484977856028 0.00254603464363)
(0.828257185201 -0.0821020512225 0.00304023641455)
(0.809383814813 -0.0628188130885 0.00206443004534)
(0.00967338192005 -0.000441603462501 0.100648107292)
(0.0707673043113 -0.00757686329481 0.277536156452)
(0.0420960502055 0.0510670901615 0.098199045403)
(0.0772828294363 0.0444039673873 0.270856577892)
(0.056158262655 -0.0114938775879 0.425938351873)
(0.119314688009 -0.0122782625222 0.350296275473)
(0.0703052097514 0.0414794364433 0.369988387302)
(0.106300079827 0.0364039979338 0.238048222365)
(0.835259791974 -0.0853153191357 0.00327434010765)
(0.840729137873 -0.0874800632118 0.00194407640159)
(0.723309146849 -0.0818608530804 0.00163433007098)
(0.821138453788 -0.0887865738947 0.00187029093584)
(0.74376835852 -0.0944689160115 0.00185001233072)
(0.0677271377451 0.0399880124619 0.103964535198)
(0.106223476701 0.0520354162905 0.254928306354)
(0.131210249945 0.0906452838845 0.0643766949074)
(0.146789508684 0.0962230368371 0.220973780864)
(0.344912684582 -0.0695602245436 -0.00788435237457)
(0.567318708971 -0.082791579382 -0.00287061732623)
(0.405737314181 -0.0485643019309 -0.00489559699763)
(0.0871206489525 0.0350554878009 0.315078262617)
(0.0909904490481 0.0404444759258 0.165418474076)
(0.142497967001 0.094519778078 0.291311595633)
(0.100583929344 0.0828314448482 0.180544470207)
(0.745711683099 -0.0845273604266 0.0011554898192)
(0.725784614873 -0.0520070271376 0.00128182051219)
(0.182706477845 0.0833366359612 0.0387292167957)
(0.241893290702 0.0991315888075 0.171771457476)
(0.342227341925 0.111353113862 0.128959083015)
(0.442732005714 -0.0387380557726 -0.00239751662162)
(0.594238060862 -0.0378203508361 -0.000778885398777)
(0.472771426983 0.0155668678691 -0.0017242176718)
(0.217801250131 0.0896741335334 0.22571333682)
(0.195422242208 0.0641834841287 0.151339507552)
(0.356790422037 0.100052049639 0.167993925095)
(0.321808621141 0.0818192099776 0.121177566104)
(0.791428521137 0.0021631931606 -0.000162424611714)
(0.789582460305 0.00079571190656 0.000730190119781)
(0.797386727041 -0.00078736345077 0.000119414025946)
(0.79692613745 -0.00019243322126 -0.000236754229968)
(0.790026727439 0.00268783042524 6.53524933546e-05)
(0.796913376988 -0.000544847573776 -0.000568436872591)
(0.791402760237 0.000933262799493 0.000626602167972)
(0.791860939482 0.00363762311858 0.00026227031467)
(0.791201889051 0.00557684205845 0.00121850446074)
(0.797257143883 0.00108873408335 0.00015239492938)
(0.797611850913 0.00213288108749 0.00111765176564)
(0.790723323956 0.00420469349755 0.000780049141587)
(0.79253542762 0.0048418464004 0.00164252662553)
(0.797356110697 0.00141818967652 -0.00027889719164)
(0.787761551038 0.00574558660513 0.00126548494463)
(0.790206454833 0.00619371036274 0.000656704938724)
(0.795591161539 0.000724261505484 0.00139464656462)
(0.795919197108 0.00276830773044 -0.000373976760577)
(0.789209373269 0.00481252015601 0.00207131781926)
(0.789181239964 0.00787765041902 0.000240306750786)
(0.793972818902 0.00153658070839 0.00068645109461)
(0.79407410372 0.00609227882907 -0.000172751213882)
(0.792283116634 0.00611958417227 0.00109656207778)
(0.798402543976 0.00069144912153 0.00121542254934)
(0.799082409893 0.00174154503023 -0.000362406264521)
(0.793270004183 0.00557185850562 0.00151347885962)
(0.79353724069 0.00690120971165 1.61042756286e-05)
(0.798791568284 0.000910756377598 -0.000417159451592)
(0.795064997504 0.00661475516081 0.000117201553966)
(0.795707333682 0.00793462536367 0.000750955874117)
(0.799623109646 0.00250122552042 -0.000165555577556)
(0.800145503957 0.00242160461579 0.000507004141556)
(0.794638306277 0.00757382521389 0.000205587973997)
(0.796091325689 0.00701926118469 0.000695044328515)
(0.799549166676 0.00230372624432 -0.000159729378044)
(0.792266851917 0.00982193715793 -0.000578142246734)
(0.791473130901 0.0078953494463 0.000183450112038)
(0.796762573475 0.00371147395006 -0.000775385315766)
(0.797541693798 0.00367963071008 0.000429655343586)
(0.790871688187 0.00913240234891 -0.000460838371359)
(0.792975416707 0.00847040991497 0.000694196702314)
(0.796263274161 0.00386314436114 -0.000650892355444)
(0.793087263518 0.0113207260948 -0.00182570222772)
(0.791432197903 0.0132180500106 -0.00224049858854)
(0.795711456424 0.00389969646747 -0.000689810408701)
(0.797233969745 0.00614402085776 -0.00269212086529)
(0.79109687872 0.010875678273 -9.00333687799e-05)
(0.793972666354 0.0139371783752 -0.00259670698486)
(0.796637856377 0.00397213672391 -0.0021292633474)
(0.79397096868 0.00981928767615 -0.000406779230574)
(0.795675280825 0.00902866698233 -0.000415931543606)
(0.798701092311 0.00252596969685 0.000451917303317)
(0.799664586316 0.00368226037859 -0.00137739820562)
(0.794397807416 0.00884268800805 0.000709102966052)
(0.795611593047 0.0105342220486 -0.00107984000273)
(0.797251526536 0.00362325462752 -0.00050558936228)
(0.794956634716 0.0122903509091 -0.00190334635697)
(0.796958473612 0.0136552337133 -0.00301265090637)
(0.798068050343 0.00540742835063 -0.00245644818914)
(0.798062555139 0.00561722260698 -0.0010107705872)
(0.796098280787 0.0133726051162 -0.00274961862779)
(0.796431835047 0.0122210563003 -0.000892415067614)
(0.797960192988 0.00583030090745 -0.0022675364044)
(0.798166993759 0.0181135360679 -0.00488246082834)
(0.79438089037 0.0161643320968 -0.0028489729814)
(0.796288094453 0.00728107869185 -0.00344419794)
(0.794719472047 0.00836847894976 -0.00222809989898)
(0.796808046794 0.0181858461932 -0.00307300907065)
(0.796219263253 0.0159317524778 -0.00153077434179)
(0.794150563194 0.00756444444908 -0.00512594076538)
(0.803440651967 0.0185023303623 -0.00625709985539)
(0.805108898814 0.0231614608495 -0.00503051293807)
(0.794856592085 0.00766467717755 -0.00179765088653)
(0.802336656199 0.0118980151447 -0.00522270902086)
(0.801178050698 0.0199390378059 -0.000459203710462)
(0.797734748121 0.0068870458094 -0.00696040949939)
(0.808207078 0.021786233681 -0.00446692301275)
(0.800030740776 0.0174404087417 -0.00534543412385)
(0.800074170238 0.0145996011355 -0.00480537012962)
(0.796680656779 0.00544936957963 -0.00193269104156)
(0.80040936003 0.00811795722854 -0.0043460061218)
(0.798193029741 0.0152216970683 -0.00199814839447)
(0.802531596745 0.0170169517421 -0.00482741637369)
(0.795437922545 0.00853866247962 -0.00457260860822)
(0.805163105831 0.0195816231507 -0.00681582953024)
(0.808239516379 0.0186066211164 -0.0055068140522)
(0.803369957579 0.00904193965298 -0.00485190504629)
(0.798236240239 0.010405519501 -0.00212567269331)
(0.805722148272 0.0181709374417 -0.00263489964705)
(0.799845662353 0.0118471104178 -0.00666406216529)
(0.809291231529 0.019939669362 -0.00507437831064)
(0.798142955948 0.00907649183894 -0.000895192868098)
(0.796950910989 0.0090626257693 -0.000592082858324)
(0.800165398968 0.00367233351308 -0.000906969306157)
(0.80060660184 0.0032101454322 -9.26972875729e-05)
(0.797257080217 0.010129739152 -0.00131227947401)
(0.798159775791 0.00824894767563 -0.000433850581781)
(0.799519733915 0.00342316994278 -0.000645262972042)
(0.799223802577 0.0100701171397 -0.00249654652049)
(0.79849376436 0.0126644782727 -0.00287646848716)
(0.799340639915 0.00355991731202 -0.000583016386798)
(0.800776246075 0.00452229442644 -0.00245673738941)
(0.797938330076 0.011627306962 -0.00107575085256)
(0.800334162946 0.0115689641668 -0.0031784637582)
(0.800079107718 0.00315265361446 -0.00207575331976)
(0.800133242743 0.00951534042308 -0.00161099458002)
(0.80164231525 0.00913327914896 -0.00148408109715)
(0.801139776492 0.00374840561328 -0.00187733714443)
(0.800604881807 0.00439345061968 -0.000405386299669)
(0.801405187591 0.0100628034493 -0.00225877654873)
(0.801150928817 0.0084888773961 -0.00082146187561)
(0.800715149138 0.00436220951731 -0.00161342959325)
(0.803498678842 0.0134720075025 -0.00441809911451)
(0.801462087057 0.0148411740409 -0.00476085766904)
(0.801046394262 0.00600530552151 -0.00370556290277)
(0.79898175169 0.00624727906147 -0.00155937693797)
(0.803812780089 0.0151848342629 -0.00484348911492)
(0.802232253596 0.0127067959122 -0.00244090602995)
(0.798052604699 0.00517034693081 -0.00337328327846)
(0.806892349583 0.0130970927893 -0.00613536834933)
(0.808498356543 0.0165589762477 -0.0048624354607)
(0.799588529923 0.0051315866308 -0.0017541456669)
(0.803249502785 0.00595113850605 -0.00409821258324)
(0.806609147706 0.0156611780797 -0.00265253052182)
(0.800630220884 0.00365819767136 -0.005154392281)
(0.8098196394 0.0142760342665 -0.00509201529137)
(0.804179404606 0.0115401217218 -0.00264735361301)
(0.803545357706 0.00943533831485 -0.00314566513264)
(0.799871637948 0.00311322440001 -0.00092308262286)
(0.801784089275 0.00455487965698 -0.0027829662096)
(0.803114091474 0.0108800119012 -0.00133663451249)
(0.805369929335 0.0104167867827 -0.00315104054477)
(0.798692903959 0.00463291803627 -0.00221727270836)
(0.807125430431 0.0125447104495 -0.00422934363173)
(0.808732192871 0.0109917141146 -0.00151839139643)
(0.803255990797 0.00520475198905 -0.00332101421896)
(0.800488117079 0.00618144957706 -0.000497814267504)
(0.807614069619 0.0108820429255 -0.000975129174011)
(0.801141326705 0.00665364264773 -0.00399622641793)
(0.809714273739 0.0123632011061 -0.00325654829848)
(0.805522349605 0.0069039574382 -0.00239223654273)
(0.804176085 0.00863374748226 -0.00320601996258)
(0.802124003325 0.00427699373435 -0.00260080224783)
(0.800734456958 0.00433618957224 -0.00111080219682)
(0.80579682826 0.00876914560636 -0.00339684910176)
(0.804805515253 0.00657109807508 -0.00217923160779)
(0.799434781776 0.00364176527365 -0.00171467526341)
(0.808820226798 0.00876456989141 -0.00140529872246)
(0.800863346966 0.00291844604811 -0.000240246557215)
(0.807882019784 0.00870898927098 -0.00119390986104)
(0.807168273339 -0.0044819432222 -0.000144993980009)
(0.804617153367 -0.00489182297963 -8.57019956657e-05)
(0.802634670041 -0.00439980059981 -8.36533426113e-05)
(0.801709250732 -0.00251438709739 -0.000503344215355)
(0.802643638908 -0.00216260282223 -0.000634991348051)
(0.801187340404 -0.00574853148215 -0.00061483271137)
(0.80718021709 -0.0050831242218 0.000665252900735)
(0.804726155077 -0.00543313859579 0.000633940842398)
(0.802541737668 -0.00475996937883 0.000373115480032)
(0.801202931904 -0.00252897309032 -0.0014666524994)
(0.802539352423 -0.00210162089893 -0.00199031963873)
(0.800797543222 -0.0056569379989 -0.00169727469051)
(0.826754568187 0.00229101468558 0.00438204126886)
(0.81414555693 -0.0030442806923 0.0116698542392)
(0.791286099741 -0.00693358063738 0.0109747736369)
(0.790913151214 -0.00441353426221 0.00511444163741)
(0.793921380893 -0.00245598932249 0.00182382991911)
(0.7955402077 -0.00137067506722 0.000319265561588)
(0.799520502343 -0.000765030768477 -0.000422379289934)
(0.796424667521 -0.00147015013448 -0.00053911059084)
(0.830065134931 -0.00835846635029 0.00112340959786)
(0.816704083575 -0.016032202755 0.00474243040281)
(0.800624671687 -0.0131310363963 0.00394665656699)
(0.79706456517 -0.00909325619734 0.00179994017177)
(0.79723238085 -0.00591806222261 0.000572517020653)
(0.797406559626 -0.0036560543435 -0.000135490110241)
(0.800169914255 -0.00222260760033 -0.000561210710522)
(0.797284572938 -0.00422804640889 -0.000621252345475)
(0.817324913439 -0.00722163311868 0.00150844281746)
(0.810238175467 -0.00927946856188 0.00143525032332)
(0.803752697479 -0.00851764232979 0.0011100795906)
(0.800491814352 -0.00656842317337 0.00062436720165)
(0.799450722407 -0.00500936044109 0.000166926529827)
(0.799196820704 -0.00344093056637 -0.000310563311948)
(0.800950851275 -0.0025164424874 -0.000601345601749)
(0.798411521278 -0.00564923199546 -0.000646810663668)
(0.812953624269 -0.00396541816324 0.000615594658459)
(0.808561373596 -0.00690412069703 0.00082977756062)
(0.804219826403 -0.00696331431694 0.000675349791078)
(0.801619228904 -0.00596054787097 0.000386901863608)
(0.800695487539 -0.00498658400059 8.15448974742e-05)
(0.800326470488 -0.00360339974369 -0.000344377936898)
(0.801756155287 -0.00270036866406 -0.000619747060952)
(0.799647101206 -0.00644485993972 -0.000648162784009)
(0.801571407103 -0.00394999352757 -0.00016089120398)
(0.801254680695 -0.0029893766311 -0.000504363054087)
(0.802279891662 -0.00247250895569 -0.000648422843155)
(0.800550090225 -0.00628512797717 -0.000642382316061)
(0.657729578527 0.0415616390031 0.0208491922992)
(0.696818280672 0.0183892998535 0.0321626394947)
(0.762077925162 -0.00981276694177 0.0138727191659)
(0.779216022953 -0.0064860492158 0.00642151829726)
(0.789231800049 -0.00331120417084 0.00264057548393)
(0.793198998196 -0.001708913829 0.000625077806204)
(0.798959805888 -0.000907160959578 -0.00152324653497)
(0.795683330189 -0.00163826829785 -0.0015350843967)
(0.788698172799 -0.00611014291549 0.015557047651)
(0.792119640214 -0.0248946142228 0.0184260937117)
(0.792827008871 -0.0198607413555 0.00643277221587)
(0.793471344651 -0.0124772608402 0.00347454713423)
(0.795601802269 -0.007252251536 0.0015838429231)
(0.796149381885 -0.00424164100751 6.52460805904e-05)
(0.799942786185 -0.00238301019335 -0.00174657697177)
(0.79674507412 -0.00443165289475 -0.00168740991228)
(0.818623387514 -0.00957459265377 0.0018310867169)
(0.810182298427 -0.0138709931422 0.0022601003197)
(0.803702732172 -0.011614914828 0.00200322197825)
(0.799998294049 -0.00817240343945 0.00140245911395)
(0.798912969746 -0.00565404581334 0.000560808144709)
(0.798460584325 -0.00371057210152 -0.000756631010748)
(0.800726214912 -0.00257827966947 -0.00191373202204)
(0.797854007834 -0.00566629979761 -0.00187647323593)
(0.813616257999 -0.00330602913655 0.00100967853723)
(0.808781485973 -0.00564209183207 0.00129541637462)
(0.803983812045 -0.00613352670133 0.00110120007005)
(0.801062742796 -0.00566662979602 0.00077969665079)
(0.800111171367 -0.00495638005586 0.000186185120543)
(0.799643525443 -0.00370605104606 -0.000981127105929)
(0.801479588161 -0.00272031609637 -0.00198222126282)
(0.799057004972 -0.00647864358126 -0.00193274120869)
(0.801349130598 -0.00414916066726 -0.000151780357165)
(0.800737605358 -0.00315037583346 -0.00134273901288)
(0.802149689418 -0.0024620619738 -0.00202185852449)
(0.800108428871 -0.00628931324654 -0.00182464619567)
(0.650706761375 -0.0209155428192 0.0242457658911)
(0.67913716088 -0.02192753223 0.0156056144482)
(0.756464842447 -0.0172733857986 -0.000784463182731)
(0.77722298879 -0.00823210952772 -0.000263525480873)
(0.787324881547 -0.00372729229833 -3.98821442181e-05)
(0.791216656362 -0.00178764802781 -0.00137236348783)
(0.798118997743 -0.000984898503031 -0.00409216429392)
(0.793793897478 -0.00179806697745 -0.00326796410961)
(0.754545687894 -0.0149408672265 0.0212790856468)
(0.773561305138 -0.0361683099695 0.0106758894192)
(0.792193447877 -0.0211978724395 0.000235749558314)
(0.792643643612 -0.0130883288158 0.000358767997939)
(0.793804721644 -0.00801067108368 3.71668476199e-05)
(0.794256558455 -0.00455335127604 -0.00199040507826)
(0.798965508973 -0.0027390620109 -0.00421871731656)
(0.79494248554 -0.00510706681804 -0.00345514921789)
(0.820716561521 -0.0101205996926 0.000461233507027)
(0.810471918778 -0.0140001240776 -0.000432421926963)
(0.802956333049 -0.012193681589 -4.17113476959e-05)
(0.798826338147 -0.00924558102748 0.000412247334868)
(0.797556855972 -0.00687465226541 0.000282417333563)
(0.796791545304 -0.00440080053506 -0.00188510639322)
(0.800066339314 -0.00292395535513 -0.00418338971135)
(0.796304477509 -0.00623378281003 -0.00363433543483)
(0.81484800015 0.00116885017448 0.000407043376454)