/*--------------------------------*- C++ -*----------------------------------*\
| =========                 |                                                 |
| \\      /  F ield         | OpenFOAM: The Open Source CFD Toolbox           |
|  \\    /   O peration     | Version:  v1906                                 |
|   \\  /    A nd           | Web:      www.OpenFOAM.com                      |
|    \\/     M anipulation  |                                                 |
\*---------------------------------------------------------------------------*/
FoamFile
{
    version     2.0;
    format      ascii;
    class       surfaceScalarField;
    location    "13.2";
    object      alphaPhi0.water;
}
// * * * * * * * * * * * * * * * * * * * * * * * * * * * * * * * * * * * * * //

dimensions      [0 3 -1 0 0 0 0];
oriented        oriented;


internalField   nonuniform List<scalar> 
92311
(
0.203901676491
2.27833277741e-05
-0.00120289963893
-0.20367383491
0.00095455435574
-7.81426408955e-05
0.204075055011
-0.000845342561244
0.000752185794052
0.203910491618
8.28361543007e-05
-0.00125090022045
-0.20369223698
0.000973378518776
-8.00151389746e-05
0.204059316113
-0.000838313357437
0.00069228286157
0.203630790109
0.000135327179135
0.000119576617847
-0.00129042675171
-0.203721555179
0.000970176711671
0.000120443298219
0.000118782240952
5.71209525797e-06
-0.000100429197891
-0.000102215196616
0.203900847534
-0.000821395324495
0.00064802396125
2.04668444659e-05
0.0511269053379
4.90920691632e-05
3.98071540653e-05
4.20436057831e-05
4.6741743538e-05
-0.000352400647536
-0.0511013795544
0.000284561637825
-0.0511842182092
0.0512035708747
9.46158574835e-06
2.41572827058e-05
1.78987984935e-05
1.43348367486e-05
-0.000228783974109
0.000149339749001
-1.08533471922e-05
-0.000632893158928
-7.97043124936e-06
-3.54492990684e-06
-2.39934466271e-06
7.18170427026e-05
0.000480668018847
-7.64035672142e-07
0.00015982782056
-0.00125409441304
-6.88275024855e-05
-3.82060114838e-07
0.001110366254
2.41202338044e-06
3.87187363131e-06
9.52988813833e-07
1.75928450261e-06
0.000225852657988
-3.17094091104e-09
0
0
4.15136271497e-10
6.10901740018e-29
2.19329062757e-27
0
2.75580463955e-09
3.30282933271e-05
3.56353347776e-05
2.91132335402e-05
4.11979731147e-05
-0.000284279278634
0.000207646382127
-5.44293177446e-05
0.0100471918269
4.28866858199e-05
-2.28838832303e-05
-0.0100344590513
0.0100987885757
-4.15466760038e-07
-3.76548374755e-05
-0.0100824593958
6.05768021051e-05
-3.8488070084e-05
6.28332357267e-05
-2.62341930848e-05
0.0512400462048
-1.8028509889e-05
-9.29109806834e-06
-2.85608071822e-06
-0.000143300856312
-4.74671760135e-05
0.0511736801022
-5.78903894874e-05
-2.13555536438e-05
-2.90546204909e-05
-0.0511069701381
4.98568349546e-05
-2.19918779543e-06
-3.27475494958e-05
0.0101136213795
5.7787497474e-05
-3.3436600959e-05
-1.42885816934e-06
0.0127506439167
-9.85234292381e-06
-1.59696643388e-05
-0.012749404901
0.0127403467037
-4.23201361379e-06
-5.29144733264e-05
-0.0127305777297
-0.000125474351131
0.204135837129
-0.00205069726539
0.00172312679587
-0.203680482645
0.204184639082
-7.41644545377e-05
-0.000423090853731
0.000388568668256
-7.36416677837e-05
0.204286582272
-0.00026652940582
0.000238342385135
-4.99236527745e-05
0.204190741807
-0.00214193776419
0.0017488587585
-0.203872925347
0.204283398078
-0.000182246428768
-0.000531720878736
0.000416593194855
-0.000141472149665
0.204477961514
-0.000357329298781
0.000230779231031
3.38339236342e-06
9.93840446163e-05
0.000127399831538
-0.00225478776056
0.204240844515
0.00180187894759
-0.204085658642
1.7859032742e-05
-0.000184953271123
-0.000188852754687
-0.000199002992713
-0.000241551386399
0.204533119079
-0.000374490672475
0.000374409676674
0.0512412864111
1.70216616004e-05
-8.10575946667e-06
7.77003396883e-06
2.61403490184e-06
-0.000688955154474
-0.0511905723101
0.000622439831978
0.0512962778086
9.17902522563e-06
-4.05547542573e-05
-3.27257871598e-05
-5.90544443706e-05
-4.63498843309e-05
-7.17100152911e-05
-0.00026688238755
-1.14702648244e-07
-0.00127496565907
4.48720335822e-06
8.51352874373e-06
4.72194286778e-06
8.74283003025e-06
0.000266174224694
0
0
0
6.36862522308e-32
2.50575638468e-33
0
-3.99927481041e-30
0
-3.15898951968e-08
4.25218450534e-10
-1.13755764469e-07
2.11704469311e-09
5.20732620517e-30
6.6773442744e-09
-1.44395977233e-08
0.000525690617058
3.03602233447e-05
2.9030442964e-05
2.08642716875e-05
4.16987676476e-05
0.0512935005874
-0.000600508094792
4.89175449953e-05
5.67508597428e-05
4.42554057018e-05
5.24916714862e-05
0.0511977223244
0.000409233839876
-0.0511562013401
1.03612721364e-05
7.10203780727e-06
0.0100796867928
-4.5130958291e-05
5.27758312907e-05
-0.0101147042497
1.35876590537e-05
-2.8385122457e-05
-0.010043433233
-4.7277130986e-05
6.15357529896e-05
0.010034356425
7.47803259516e-05
0.0127441623372
-0.000122830084035
9.4507154322e-05
-0.0127426117935
5.96957176036e-07
-5.73699968589e-05
-5.38433972715e-05
-4.56241592083e-05
-6.66460405373e-05
0.051371206252
-4.09421330957e-05
0.0512758610157
-6.28487233418e-05
-9.11327643424e-05
-7.20465884871e-05
-8.04097325592e-05
1.46014637161e-05
-9.03340915037e-05
-0.000100110178383
-8.03036393681e-05
-8.70462612486e-05
0.0513753012596
1.74672772442e-05
-6.18773176527e-06
-3.19244255036e-06
-3.49920553976e-05
0.0127542188048
-5.79021767611e-06
4.77615836908e-05
-0.00996420082985
-3.00676903172e-05
0.00992231884724
4.59499407986e-05
-9.1493183436e-06
-6.74643537432e-05
0.012748765137
-0.0127575686237
-0.000114786359352
0.0127753693688
8.10094528242e-06
-9.39156461177e-07
-0.000856105701894
-1.73185800232e-06
9.28434678058e-07
9.23819620886e-08
7.21854392087e-05
0.000203998943252
-4.18680838425e-07
2.17994806288e-06
1.09602152394e-05
1.14797723023e-05
7.634809005e-06
6.73722591506e-06
-0.000434861491954
0.000159378011988
0.000154655276639
-3.29920123676e-06
-8.94536487486e-07
1.08502354603e-06
2.6651136544e-06
1.5931477072e-06
-9.63215988317e-07
-3.43327994284e-06
-1.99985038428e-07
2.78383721769e-06
1.08073015373e-06
1.33752937901e-06
0.000131710630306
0.000151878289127
-1.30045220807e-06
1.55745492787e-06
1.84669944347e-06
6.60820508417e-05
0.0127365421959
-7.72750854288e-05
-0.0127311034628
-0.0127267676591
3.86062744489e-05
-5.97939357992e-05
0.0127340398295
5.35235628477e-05
5.05706999631e-05
-4.87802709866e-05
0.0100606620137
-2.97836286896e-05
-4.31047531997e-05
0.0100654531519
-0.0100559066406
6.38380529219e-05
-0.0127203987003
5.81919652475e-05
0.0100737955589
7.30587776313e-05
0.0127452102744
-7.07122547143e-05
0.0127362057543
3.84199831102e-05
-5.44947666866e-05
4.73045700213e-05
4.98658707797e-05
-0.0127498578861
0.0127581185011
-5.87753545311e-05
5.53266690535e-05
-4.73594095021e-05
-3.34656028729e-05
-3.13365987608e-05
-0.0100845795993
0.010094081639
8.55132190271e-05
0.0127433110422
4.18117138125e-05
8.11938652901e-05
-6.48651940335e-05
-0.0127455361673
1.6725298163e-05
-3.22037356471e-05
0.0127520719811
2.06367647681e-05
4.00833515814e-05
0.0127609662328
-4.94100677176e-05
5.03089114213e-05
-2.25158462536e-05
0.0101156414088
-2.31626604332e-05
-2.73292416249e-05
0.0101068078511
7.70191803655e-05
3.04940015811e-05
0.0101128969451
6.85872801896e-05
0.0127655455431
-4.32300375519e-05
2.23683637513e-06
-0.0127620577479
0.0127604665954
-2.85837964542e-05
2.64384142463e-05
-0.010109254491
0.0100867481911
-1.06838985083e-06
-0.0101163420148
4.34449270538e-05
0.0100946912904
6.77882960377e-06
-1.91309033999e-05
6.36769681669e-06
4.1286175181e-05
-1.61931602318e-05
-1.61369072538e-05
5.53672690094e-05
-3.44619846346e-05
-7.26368162015e-05
-0.0127200595824
0.0127328938536
-2.67659324192e-07
5.71062523423e-05
-0.010129075327
0.0100988276223
-0.0101274707887
0.0100919991364
6.25865983511e-05
4.59530877483e-06
-1.56914212892e-05
-0.0127322824561
3.11661898706e-05
-6.52955374501e-05
-0.0101288937643
7.02317766399e-05
-0.0127196473715
8.73751235756e-06
-0.0101257928838
-2.06848846229e-06
0.000363797513709
-3.84607803678e-05
-3.69126544581e-05
-3.01951764272e-05
-2.85964844673e-05
-0.000478654352623
0.000420759600645
-0.000129455848258
-1.41941463827e-06
-1.31993577004e-06
2.39296925176e-06
2.2492550743e-06
-0.000597697915377
-1.31209079441e-06
-1.68405594093e-05
-2.31555622844e-05
-2.88119908555e-05
0.000315934323146
-0.000251281486353
0.00062656544192
-1.51088449319e-06
-1.10170477228e-05
-3.28044577338e-05
-2.81725358181e-05
-0.000665495713322
0.000546015807203
-2.31251167577e-06
-6.39596415968e-08
3.14596138457e-06
1.38672173279e-06
-4.7070437687e-08
-1.81383196685e-06
3.51967768406e-06
-0.000745604659533
1.10759443072e-05
1.31588552441e-05
1.37435902158e-05
1.1359674118e-05
-4.26963137649e-05
-8.55379571005e-07
-1.19454906636e-06
1.0620981173e-06
-8.81795707452e-07
-2.54840632575e-06
4.8498945029e-06
0.000397463322477
1.1549341501e-05
1.24807569299e-05
8.11239187741e-06
8.32425637923e-06
-0.000993139891559
-0.000263028468299
-5.29486178296e-07
-1.25066768698e-06
7.69210817258e-07
2.4014488154e-06
4.24554154269e-06
9.20994035886e-06
7.88897563382e-06
-0.00125783168994
0.000313268846073
-5.70175228799e-07
-7.26689949679e-07
-0.000163757071182
-0.0127698499399
3.23359815163e-05
0.0127665781663
0.000151258756364
0.0127779740417
0.000170010100619
-0.000173874554281
-0.0127749946028
-1.37218611019e-05
-4.42631896438e-05
0.0100577867878
5.539226055e-05
-9.18324211823e-06
0.0100502921118
-0.0100803971919
-3.96333933218e-05
0.0127766188104
-0.000168564550478
-0.0127668788982
0.000160346836703
0.0100362484451
-3.5999455883e-05
-0.000156857609192
0.0127676677273
4.12785781347e-05
0.000144514853385
-0.0127821353263
0.000146689920822
-0.000150367519719
0.0127862694817
-1.81056743249e-05
-4.62348093325e-05
6.04443336069e-05
-5.4038804191e-05
-0.0100273157643
-3.61657583268e-05
0.0100220708248
-0.000159877660631
0.000130883157791
0.0127709251111
-3.68136659363e-05
0.0100268933592
1.19182757697e-05
9.2415474382e-06
-0.0100271754681
-8.06661945266e-05
9.50347915191e-06
0.0100283401112
1.57979328859e-05
-0.000108650599731
0.0127464267536
8.19432673446e-05
0.0127558077815
6.56695870684e-05
-0.0127559658016
-7.15270993319e-05
-0.0100278813827
0.0100265328986
0.0127586151512
-0.0100281293558
-1.38322319088e-05
0.0127606136566
-2.27906920881e-05
1.25088162643e-05
0.0100520427698
1.25819675084e-05
0.0100535184103
3.5540384148e-05
-3.49573333149e-07
-5.35450347747e-05
0.0127559441085
-7.53885622576e-06
2.85738206697e-05
-1.52011828356e-06
0.0100057879594
2.71803528601e-05
0.0127609999887
-1.98170170942e-05
0.00999908837168
2.04074564073e-05
-5.7170304393e-06
0.0127684067838
-6.14273944314e-05
-3.44854164758e-06
-0.01276783154
1.03448690125e-05
0.0127750022765
-2.55607185288e-05
3.57413808956e-05
-1.5038808285e-05
3.3728334478e-05
6.98486518747e-05
-0.00994589061273
-1.32544972921e-05
0.00989468622252
-2.43104609678e-05
1.96906261229e-06
0.0127794049728
4.53158770055e-06
-0.0127452830327
-0.000108488119241
1.12016318841e-05
-5.75989183594e-06
-8.82042231036e-05
-4.14908330937e-06
4.37125169504e-05
0.0100582018513
0.0100497419461
4.31597889365e-05
-2.4587052253e-05
0.00998828011991
2.2798907554e-05
-8.55018749857e-05
0.0127573385844
0.00999961188323
0.00992802732875
-4.35174851541e-06
-5.53867566758e-06
0.000122775498781
2.13638734799e-05
0.00986707967978
-3.43981888884e-05
2.77688416773e-07
0.0127928747668
6.44041701814e-06
0.0127719093597
-9.05823655841e-05
9.64659385943e-05
-0.00993997760983
0.00988697470774
0.0127842155057
-0.000180558445008
-0.000210345807495
-0.000138872348809
-0.000174756033242
0.205052152932
-0.000149272942354
0.000193185955098
2.48346975797e-05
-5.67222557889e-05
-4.92388116292e-05
-5.06854889857e-05
-5.91785944506e-05
-5.30584302112e-05
0.051434708029
7.56732160213e-06
-0.000456800333238
3.52488273128e-06
7.46583767748e-06
9.11791431169e-06
8.42460991426e-06
0.000274513781984
-0.00116420333811
0
0
0
-7.65058616151e-30
-3.1984442124e-29
0
-5.13095150491e-30
4.56260399607e-05
5.52260011194e-05
5.10355118254e-05
5.13133508455e-05
-0.000121322149372
-0.000455965767023
0.0512194473715
1.65299886915e-05
-7.56551506351e-05
5.69909512729e-06
0.0100439144617
0.0514589730559
-6.94413688806e-05
-8.96038430306e-05
-7.64086870273e-05
-8.09169268406e-05
4.73038894878e-05
0.0514755606557
-5.03048436225e-05
-3.46604566147e-05
-3.29786501266e-05
-5.89957065308e-05
-2.92895328458e-05
5.0836878248e-05
5.20793617311e-05
0.00988016780713
-4.52174163763e-05
6.27279365156e-05
-1.28405522294e-05
0.000117448655418
4.42277049374e-05
0.00980438243033
-5.21260714595e-05
0.0097066989749
-2.37869108197e-06
2.67111420392e-05
9.82394564777e-05
-0.00972334876379
-9.73860789138e-05
0.0514372874323
-1.19894283661e-05
-2.20896550659e-05
-2.29430664868e-05
-5.68883905554e-06
8.03401040005e-05
-5.36484613603e-05
7.41628931759e-05
-8.76854602188e-06
2.27849767627e-06
-1.04284738023e-05
1.18840409371e-06
6.80240405491e-05
-4.46734673275e-05
0.0513678511124
6.16063627864e-05
-8.01152000023e-07
7.79565008178e-06
0.000118743074025
0.00970016310036
-0.000114793062235
4.59945045752e-06
-1.62709880141e-05
0.000168694616404
-0.00971812235637
0.00972590575448
-0.000165490643384
-1.13885855983e-05
-1.13666313499e-05
-4.58249215751e-06
0.000444043661357
-0.000754684502215
-9.53354334429e-07
-0.00108804969298
4.17447135727e-06
8.71936882471e-06
1.02692567723e-05
6.95419902543e-06
-0.000469236823204
1.80623428515e-06
-0.00104440918762
4.57375616852e-06
6.49764235888e-06
6.49619283361e-06
0.000425261001145
-0.000531451118088
3.41625574819e-07
-5.59125382863e-07
2.41935008614e-07
-1.47094238382e-07
-5.06878725937e-08
7.19162174611e-08
7.07749266324e-07
-4.20845553025e-07
-0.000815644563438
2.89111604201e-06
-1.69953798867e-06
1.52936729864e-06
0.000130653476308
6.25421531976e-07
-0.000385472703061
2.12348539737e-06
-2.51798638487e-06
2.31492376479e-06
-0.000173990237257
-1.00544463929e-07
-0.000546858581933
-8.92439665881e-05
-0.0127628250371
5.2946659199e-05
9.37695190769e-05
-0.000109910913549
0.0127716604264
-0.000102188307156
0.0127505018936
-6.57800281888e-05
0.0100374032107
3.59989712627e-05
2.98022071053e-06
-6.55311372175e-05
0.0100549798296
-0.000121454930647
3.40271806533e-05
0.0100478308273
0.0127593288271
-2.60144766425e-05
-0.0127957893422
-6.09241305902e-05
1.83197008991e-05
0.0128075950755
0.0127879334471
2.0997144505e-05
-3.27864865078e-05
5.12269892471e-05
-6.63576206456e-05
8.23691690843e-05
0.00984219447347
6.86063868727e-05
0.00985233022038
-3.48230898949e-05
-3.71737327934e-05
0.0127985027916
1.37958990663e-05
-5.64692609392e-05
0.00981420457549
-0.0128063412153
-7.57596024008e-05
1.65533748979e-05
0.0128158070416
-8.81908378707e-06
0.0128176733822
1.44591604426e-05
9.20384222563e-05
0.00983999315178
6.43211833874e-05
9.03594240713e-05
0.009757467182
-7.07858670109e-05
0.00980086920022
0.0128237351243
2.25616747351e-05
0.0128232337289
-5.83250954539e-05
3.14259780019e-05
-2.91531060069e-05
-3.52520203696e-05
-0.0128292980174
0.0128252812774
3.32728185035e-05
3.08936053188e-05
-0.00976606431578
0.00974635838177
0.000103845077015
8.0505933489e-05
6.27618839205e-05
-8.32796253604e-05
0.0128219574029
-3.42746211612e-05
8.02089948893e-05
3.17242627609e-05
-0.0128168914443
-3.77325720202e-06
3.78283151402e-05
0.0128110201992
-3.83569415423e-05
-3.78877369939e-05
0.0128160860083
3.45010157649e-05
1.57834789014e-05
0.00973643246433
0.000125172452598
0.000136574204715
-8.87307369608e-06
0.009705144505
-0.000129653077331
-3.81561901752e-05
0.00973681711885
0.000144357017986
0.0128062514081
3.47119166003e-05
0.0128047302729
-9.69642276996e-07
3.46356176493e-05
-3.43771941629e-05
-3.25119513565e-05
-0.012795900946
0.0127880636377
2.67911607317e-05
4.28031378082e-06
-0.0097437741968
0.000173776378759
0.00974537069415
0.000153247328236
-1.72130884008e-05
-0.000148333236301
-3.12097722633e-05
0.0127987660886
0.000161013710671
3.02700888334e-05
-0.000416011771544
-0.0496000960737
0.049484584177
0.000564045014269
-2.00884668517e-05
-1.20311647329e-05
-1.12336032513e-06
-2.46364771176e-05
2.55776835374e-05
-0.00067505883037
0.0500849533813
-6.74899428301e-05
-6.7079366491e-05
-6.70972912377e-05
-6.82291902937e-05
0.000190856190538
-0.0500301238004
0.000699382488726
-0.00113963911323
-0.0501913887383
0.0503318042638
0.00102276334476
-6.77275420024e-05
-6.05457243086e-05
-7.37496872193e-05
-5.8974238384e-05
0.000237567011131
-0.000869999792321
-1.50346622073e-05
-1.29783018101e-05
-1.87360610946e-05
-9.29419129185e-06
0.000125717470879
0.050558779473
0.000712836154582
-0.0504714129616
-3.63481313181e-05
-0.000396936373196
-0.000283057315515
0.000496518077792
0.000391401781348
-1.64233820314e-07
-3.82804627635e-05
-1.47379594832e-05
-1.52840444073e-05
-1.91299042907e-05
-0.000678913927363
0.000774049735472
0.000360469681856
-2.67370351454e-08
-1.64573553865e-06
2.03030984475e-06
6.40450949569e-06
-0.000389026094296
5.90406242649e-06
-0.000241927578432
-0.000346987004411
-9.18970154375e-08
5.80358085877e-06
6.76897618257e-06
6.70065056717e-06
0.000526847827936
8.02818667101e-05
9.43254064541e-06
-0.000246149288677
0.000175472452505
-4.84148966196e-05
9.03940574613e-05
6.77672493461e-07
1.16331780909e-05
8.87807869679e-06
9.5862714013e-06
4.09377856147e-06
3.1435850039e-05
4.72363750846e-06
3.45673667934e-06
4.26415923973e-06
-0.000597218926314
-7.99028259524e-05
-2.76306131024e-07
0.000686932485266
-6.86042824014e-09
-1.32216631339e-28
3.472703466e-09
0
3.38772477414e-09
0
-7.20595807221e-30
-9.45275132329e-28
-1.85963355061e-08
7.13777184711e-09
-4.4419598707e-07
1.08041246567e-08
-2.79086497046e-07
-2.3887599279e-08
1.36450920111e-07
0
8.94871192685e-29
1.86215862914e-09
1.71062515699e-09
0
0
-3.57278378613e-09
-6.82861584135e-27
6.02761396076e-09
-1.32860296383e-07
-2.40095101712e-08
-1.34128427042e-07
1.26976642362e-08
-2.18382390243e-28
0
0
0
1.75831528932e-32
1.80522396981e-30
0
9.4559887444e-09
-9.4559887444e-09
0
0
0
3.86667289049e-29
7.91749953656e-05
8.78860652771e-06
3.15427872146e-05
2.10738215729e-05
1.66359031483e-05
0.0493697695235
-1.5854921308e-05
3.26297467257e-05
-0.0495437194194
0.0493992771554
0.000236163762076
-9.00621721547e-07
1.65714452629e-06
7.80755409161e-06
-9.72484114431e-06
1.32974351596e-05
-0.0495682981244
5.99086315609e-05
-4.96843588859e-05
-0.0105952403412
0.000107856617303
0.0105698758762
-9.56247701001e-05
0.0106289866166
0.000104573970878
3.5618877422e-05
-3.69406873233e-07
-0.000108877979124
-0.0106587169921
4.81198118711e-05
1.70519430835e-05
3.16745659555e-05
3.84564465948e-05
-0.000177406490296
0.0123257064572
0.0122374255804
0.0122543527748
0.0123185462023
-0.00011066190807
0.000118278890249
4.14742836753e-05
-1.35226010927e-05
-0.000127715615573
0.0106098628879
0.000365549725851
-3.4161232661e-05
-1.91246000989e-05
-2.69281986964e-05
-3.18075447753e-05
5.23750153073e-05
-0.0496696687385
0.0498175307114
-5.6488941124e-05
-6.47574562021e-05
-5.43107317e-05
-6.45465916182e-05
8.85971589761e-05
-0.0497998651477
0.000499559401399
0.010642934052
3.34033318016e-05
1.78159205342e-05
-0.0106715028851
8.46607090309e-05
0.0106215766628
-4.53786659639e-06
9.40885255585e-05
-4.33769397015e-05
-0.010659718767
2.23216180713e-05
0.000810770878029
-4.44388424895e-06
1.32342649312e-05
1.19805354951e-05
-6.6974113579e-06
0.0493541813653
-0.000181119061054
-0.000138519719384
-0.000173711655407
-0.000139255505591
-3.40392210679e-05
-1.07618765225e-05
-1.53708137515e-05
-1.5466862266e-06
0.0497734838006
-5.07249970021e-05
-5.92275573271e-05
-4.98705773934e-05
-6.26263850858e-05
0.000155565801334
0.0498543056612
0.00087251869702
-3.91711982259e-05
-6.00763883734e-05
-4.52082539618e-05
-5.11020049477e-05
5.32750604784e-05
3.31197941917e-06
0.0106234050727
9.85234978472e-05
0.0106116278472
3.90926513539e-05
-1.04034366909e-05
-0.0106116772062
0.000141648319212
-0.000170146920987
2.62504504316e-05
-3.86857228686e-06
8.2706385139e-05
-5.35132126514e-05
0.0105978924882
0.0105383411581
5.23089566595e-05
-7.14649366587e-06
9.10422501108e-05
-8.4066637033e-05
-0.0105592431987
0.0499801846408
-6.51565863884e-05
-6.27468987936e-05
-5.04285536244e-05
-7.67539360581e-05
-0.00110720682061
9.73518473705e-05
0.00142271473184
-6.58949723082e-05
-9.61055634666e-05
-7.49417740889e-05
-9.36464669318e-05
0.0505472147308
-3.24757823431e-06
-0.00165504746128
-6.43290640818e-06
0.0106271387507
0.000162334502655
-0.00019102830687
-2.18695459768e-05
0.000132357981331
-0.0106412549309
0.000237827582723
0.0106162440935
-0.000270373439595
6.87265812347e-05
-1.09293505065e-05
8.99925444717e-05
-0.000101272475124
0.0105303951921
0.000125514486812
-2.04632944278e-05
0.000143927664514
-0.000167283347173
-0.010499274677
0.0104717367498
0.000864690520016
-5.32872969894e-05
-6.10714975165e-05
-5.38095826543e-05
-5.95589534968e-05
0.000129222513686
0.050364363815
-3.51942367615e-05
-3.30547382107e-05
-3.82618626113e-05
-3.20857743821e-05
0.000131815730083
-0.0502691864657
0.00077628609104
7.68389321405e-05
0.0105373624353
1.6643588845e-05
-0.0105642028823
0.0104773948113
-7.40851941351e-06
7.58428612839e-05
-0.0104967751444
3.38699430722e-05
0.0103595976806
-4.39870564217e-06
1.82582064127e-05
-1.77707427816e-05
-0.0103705479862
2.12926290458e-05
0.0012113070464
-7.42651270865e-05
-9.42830248517e-05
-7.5952577935e-05
-8.55514757263e-05
0.0506040358666
0.000269429115465
0.0504757981923
-4.10793570004e-05
-2.93765289941e-05
-3.34230739423e-05
-3.44300143236e-05
0.000179627243645
-4.33510890609e-05
-4.70376306539e-05
-4.24130450079e-05
-5.45074133233e-05
0.0506497308279
0.0010044618402
0.00022023616745
6.85510430556e-05
0.0104725103604
4.6780774985e-05
-1.49834269789e-05
0.000108920309673
-0.0104560010007
9.00653930364e-05
0.0104390433909
2.26963359232e-05
-5.49810985262e-06
1.15779704725e-05
-2.38373894887e-05
0.010362083058
2.73711977715e-05
-7.40378458449e-06
2.42825484636e-05
-3.83878310112e-05
-0.0103728860378
0.0103796687559
-2.08946278795e-06
0.0103510579158
2.48404682926e-05
-0.0103473250953
1.63347200422e-05
-0.0103650732984
0.0103701644055
-6.28205234384e-06
1.97344000567e-05
0.00031220802066
-5.15139072765e-05
-5.49185497855e-05
-4.50452860895e-05
0.000548839444176
-0.000175134670667
-0.000324894661816
-6.61132933205e-07
0.000440694572485
0.000390927260089
-5.00628297785e-05
-3.05548078987e-05
-4.11220398438e-05
-0.000218285673844
-6.32911083138e-07
-1.41086316737e-07
-5.17224188309e-05
-4.36682771294e-05
-5.9103602083e-05
-0.000308690328538
0.000670843314306
-9.03249074595e-08
5.82803482232e-09
1.66353379305e-07
-3.72578357278e-08
9.46754925433e-08
2.66049683688e-08
-6.89038345785e-08
1.93891805286e-07
-2.51082051294e-07
-5.66788917706e-08
-2.99355075223e-08
9.67406739008e-08
-2.45347597012e-08
-1.02239801735e-08
1.17108739003e-07
-3.07656744666e-07
-3.05740744834e-08
1.71786178111e-07
-5.08319554044e-08
3.71028540497e-10
-6.18673489816e-06
-2.39202894009e-06
-6.78534903759e-07
-1.45470838075e-07
-4.10821115699e-08
1.07034543351e-07
-5.87306841112e-09
-3.9268019347e-06
-4.37442484926e-06
0.000367317233955
-2.8258851237e-05
-1.11434206928e-05
-8.88147732264e-06
-5.19770249165e-07
-6.65364207102e-05
-7.22012746702e-05
1.77277421141e-06
4.33570829981e-06
2.12545132048e-06
0.000263899638176
-1.78755699216e-07
0.000223616120464
0.000393963885794
-1.15348554746e-07
-3.79202668141e-05
-1.18404896847e-05
-1.5325576659e-05
-0.00038774223228
0.000116900014097
-8.6658793221e-08
1.75371615971e-06
4.12429566128e-06
1.53002699916e-06
-1.92971830076e-08
0.000271922353618
0.000253162900642
3.46530754351e-06
5.56878546042e-06
2.74940872673e-06
-2.83836489623e-08
-1.09522683695e-07
6.57316374534e-08
-7.38400507483e-08
4.24071265904e-09
-2.3923827677e-08
-2.44679561671e-07
8.84329490998e-08
3.86933344866e-08
-2.03666390312e-07
0.000274265083255
4.84314320181e-06
1.20901740084e-05
2.58665562315e-05
1.5787796359e-05
0.000696212731288
-0.000308914428315
0.000349854728396
1.6044819191e-06
7.85888779845e-06
1.42702539861e-05
1.08438120832e-05
3.74191315156e-06
0.000207572536408
2.19607926177e-05
1.76148781541e-05
1.6339838184e-05
0.000318859294163
4.63386950711e-09
-1.35964571907e-07
-1.95349203033e-08
-1.05076129656e-06
9.99887288144e-08
-3.22979438555e-07
-1.69705647821e-07
9.51083896606e-08
8.64935342922e-05
-4.24447297332e-08
6.95154205952e-06
7.76027151979e-06
7.62444145166e-06
-2.41291808117e-07
-0.000496029755328
6.03668909106e-06
4.56939483605e-06
6.10920475968e-06
0.000661334699272
-3.50050443399e-05
1.47695720781e-07
-6.64298574574e-08
-2.64960298038e-07
-2.44705908581e-07
2.35051628801e-07
2.70454664406e-07
-1.4785513209e-07
-2.51476104997e-07
8.6754830835e-05
2.18140855187e-06
1.32442595564e-05
1.20714705394e-05
1.1139274321e-05
6.18289682202e-06
-0.000361005142044
-1.33716760168e-07
6.81359567102e-06
5.84424281443e-06
7.58692697071e-06
8.55490944944e-08
8.81437052271e-06
7.24429263647e-06
8.6927655718e-06
-0.000281616926322
-1.37441188281e-05
3.39003595333e-07
-3.62119805073e-07
-2.9574976691e-07
7.95935011075e-07
3.98856649824e-07
-3.81643764909e-07
8.26524950424e-07
-4.38030160523e-07
0.0124198292702
1.23279275041e-05
6.85988802277e-06
4.87630047147e-06
-0.0124335081831
-1.96902970419e-06
-0.0124133656513
0.0123868889117
1.2081909901e-05
9.53654858492e-05
-2.47935154345e-05
-8.73529485626e-05
-0.0106326593867
-3.42320032132e-05
-0.0106101072836
0.000113250878189
0.0105840370127
1.06327705732e-05
0.0123959772905
9.97082364652e-05
-0.0106468492826
1.55562116194e-05
-0.0124288299852
0.0124280480534
1.38854700961e-05
5.42290623707e-07
-0.0124368734857
-2.69486888668e-05
-0.0124394038541
0.012422263189
4.73720243127e-05
-1.63195860247e-05
-0.010632858025
0.0106044464483
1.46823605734e-05
-9.65947862968e-05
9.10518292441e-05
-0.0106948390559
0.0124050409422
2.82509484529e-05
-0.0124469698883
-0.0106689922641
-0.0123828120518
6.05804589841e-05
5.16701741585e-05
-3.54071469634e-05
0.012354524752
-3.88849031273e-05
0.0124009256375
6.48917382924e-05
-3.5861578782e-05
0.010593739047
-0.000133849258974
-3.02087590572e-05
-0.000143034878164
0.000135395545899
0.0106033014073
-1.9487524142e-05
9.02622678016e-05
0.0123796915812
-0.00014669046237
0.0105871995666
-3.66829138464e-05
0.0124717009942
-5.05827816426e-05
5.56404653566e-05
-0.0124720208107
-0.0124556202725
5.50855432446e-05
0.0124486470358
2.949716681e-05
7.41126191327e-05
-0.0107076743017
4.59987620653e-05
-0.0106931803909
6.42536304707e-05
0.0106611713732
-0.0124594997874
7.47391547855e-05
0.0124684975248
5.85822443013e-05
-0.0107305529396
0.0124872892598
7.59422040606e-05
-7.83013280527e-05
-0.0124832941677
-9.58954049146e-05
-0.0125044715124
0.0125072197783
0.000125126614283
7.29507175534e-05
-0.0106800653195
0.0106497918445
9.7515337752e-05
-4.20418152021e-05
-0.0107023445612
2.41425963641e-05
0.0124872505163
-0.0124987914465
0.00010576720797
-0.0107181112061
-0.000101453652861
-0.0124561610841
-2.83853702935e-05
0.0124434812531
0.000123242515579
0.0124297588456
7.60304663708e-05
-4.35662640331e-06
0.000112269194091
0.0106116896006
3.28042202006e-05
0.0106395462683
7.6218300901e-05
0.0124133341795
9.81637712559e-05
0.0106231607196
8.74842522897e-05
-0.000133473786225
0.0124335843486
-1.6919691903e-05
0.00015616399086
-0.0123952540572
0.000166553061131
0.0123823778736
-0.000150852800162
-1.23042527223e-05
0.000126722516399
-0.000152735029093
2.44054989953e-05
-0.010621458536
0.000112703676669
0.010614009208
-0.000115714057821
0.000190806560576
0.0124273034299
9.76117696169e-05
-0.0124801949257
0.000144025786643
-6.35382072123e-05
0.0124735637017
-0.000120867282598
0.0125034790219
0.000150300319631
6.34708386563e-05
0.0106287767442
8.65049089352e-05
-6.27842833495e-05
0.0105728128754
3.30072340244e-05
0.0125001662077
0.000173017931854
0.0106059220717
0.0124682461926
0.000175843400554
-5.26334974624e-05
-0.000208769147478
-0.012501412332
0.012507998301
0.000234594056665
6.43688163865e-05
-0.0105964791994
0.0105827243785
7.8926083115e-05
-7.22663229905e-05
4.00910065961e-05
0.0124703301874
0.00020393527995
-0.000246165872058
-0.0124228806822
-7.02244459088e-05
0.0124386282582
0.000280572165011
2.06411452322e-05
0.0123739272342
0.000205515897379
-1.66850578333e-05
-0.000186886544284
1.74850450034e-05
0.00018505444762
0.0106336266977
-0.000212780387001
3.35114003591e-05
0.0106226419583
0.000130754636392
0.0123875966679
-9.53802431121e-06
-0.000232771903424
0.00023525048456
8.56866218056e-06
0.0106145229807
0.000150936973488
-0.000294005585661
-9.60889469842e-05
0.0124903632683
0.000327530457857
1.15769126471e-05
-0.0124451541695
0.000334006224443
0.0125447883717
-0.000321184599076
2.05828056709e-05
5.83837042694e-05
0.000209009708399
-0.000240993478713
-0.0106056519761
0.000148309277799
0.000210938463522
0.0105700097885
-0.000275813263661
-1.69715960366e-05
0.000177330795229
0.000369237494952
0.012569633897
3.47887407731e-05
-0.0124720147201
0.000291428271233
-9.51173822469e-05
0.0124922238134
-0.000249698711216
0.012514500835
0.000271875193326
6.5544073106e-05
0.0105798894681
0.000110033307092
-0.000118578048045
0.0105117163704
8.66971282258e-05
0.0125317045702
0.000308949672777
0.0105646420305
0.000331463251401
-0.000108330766564
0.0125319268722
-0.0125617742799
-0.00036937584733
0.000372442856529
0.012607775458
-0.0105555855352
0.000154775758225
0.0105261401064
0.000115967828391
-0.000142115912519
0.000105587375133
0.000343793080755
0.012594184804
-0.000185790709051
-0.0125512143168
-7.22113750977e-05
0.0125504641364
0.000192959056107
0.012527947715
0.000163824161197
-0.0125293102299
7.67836381321e-05
2.07357042508e-05
0.0105114632126
7.65434693213e-05
0.0104841663204
-0.0105147781048
1.12269777479e-05
0.0125265538994
-0.0125498949065
0.000173189605262
0.0104578240468
1.20891993277e-05
-0.000214108762572
0.0125587747878
-6.39684622201e-05
0.00021772625927
-0.0125315245535
0.000241664542036
0.0125405343554
6.76460405764e-05
2.49298790773e-05
6.74678142957e-05
-0.0104427964754
1.83459099775e-05
0.010426540726
0.000240650268843
0.0125688920795
1.42241514265e-05
0.0125808691787
0.000212450835887
-3.64308370834e-05
-0.0125735665881
-0.000230210590091
-0.0125988770478
0.0126074689447
0.000207143840837
3.7242801005e-05
-0.0104033817646
0.0103894557557
2.02589877797e-05