/*--------------------------------*- C++ -*----------------------------------*\
| =========                 |                                                 |
| \\      /  F ield         | OpenFOAM: The Open Source CFD Toolbox           |
|  \\    /   O peration     | Version:  v1906                                 |
|   \\  /    A nd           | Web:      www.OpenFOAM.com                      |
|    \\/     M anipulation  |                                                 |
\*---------------------------------------------------------------------------*/
FoamFile
{
    version     2.0;
    format      ascii;
    class       surfaceScalarField;
    location    "9.3";
    object      alphaPhi0.water;
}
// * * * * * * * * * * * * * * * * * * * * * * * * * * * * * * * * * * * * * //

dimensions      [0 3 -1 0 0 0 0];
oriented        oriented;


internalField   nonuniform List<scalar> 
92311
(
0.203976502964
9.27456368206e-05
-0.00118582599516
-0.203884896585
0.00100050588674
1.7560007303e-05
0.20401931463
-0.000827159129033
0.000767475181176
0.203945653821
0.000297999137072
-0.00121086090972
-0.203936116901
0.000995888792631
6.80832627146e-05
0.203991240072
-0.000799560649367
0.00070373728299
0.203712649358
0.000189228688878
0.000141577618388
-0.00109573014434
-0.203853995081
0.000903207186374
0.000169151312282
0.000131940859499
1.72689896964e-05
-5.97287786723e-05
-6.76262607783e-05
0.203976865561
-0.000659571193447
0.000568695308192
4.83953329243e-06
0.0510244996931
7.79980211501e-05
6.8720365077e-05
8.35269849027e-05
6.97800610833e-05
-0.000375142986351
-0.0510742089744
0.000314077911312
-0.0510183138474
0.0510163142367
1.2655773173e-06
2.89043940233e-05
2.8971924718e-05
4.89326584587e-07
-0.000221905783853
0.000181514723296
-7.36111315359e-05
0.000350680876567
-5.71290196443e-05
-6.3730244806e-05
-4.95274157816e-05
-5.0736903908e-05
-0.000214517949981
-6.30876661051e-06
0.000212988681318
-0.000319393032116
0.000364050493909
-1.39397295898e-06
3.51293910769e-05
1.18729182703e-05
1.13761422806e-05
1.17658912055e-05
1.11074722795e-05
-5.13221455383e-05
-4.80696466612e-27
7.30970968502e-08
2.14560712699e-08
3.81548208759e-08
-5.6148737345e-07
1.45704578686e-06
4.39722561713e-08
1.59782394077e-07
5.68693651645e-05
4.11740814894e-05
4.19449175029e-05
5.91014338694e-05
-0.000283256748451
0.00023193631772
-0.000106339462013
0.010393629902
1.00229071075e-05
-1.6165728196e-06
-0.0103940493062
0.0103710165373
1.93356825216e-05
-4.17148704094e-05
-0.010385630747
5.99596444182e-05
-4.06364085789e-05
0.00010963035677
-1.47550147275e-05
0.0510578175994
-1.18212748747e-05
-8.91968849597e-06
-8.07579741095e-06
-0.000167353822308
-2.6102427699e-05
0.0509888731026
-2.62279186537e-05
-9.26331034954e-06
-8.69444334596e-06
-0.0509462989186
6.96916250513e-05
-4.71337907714e-06
-2.84626898111e-05
0.0103762068129
6.46048202919e-05
-4.17058480779e-05
1.06557411849e-05
0.0127256556331
-2.16597115895e-05
-8.7698605724e-06
-0.0127210002831
0.0127126946467
7.02080680321e-06
-2.76656539849e-05
-0.0127074925956
-1.9153450481e-05
0.204312611398
-0.00203521333799
0.00176740692836
-0.204026008835
0.204074020225
1.19373272573e-06
-0.000324114719508
0.000268605087528
-2.28344671688e-05
0.204172552018
-0.000192616524832
0.000116645798676
0.000195745043943
0.204392843138
-0.00211856179366
0.00183047923259
-0.20431994004
0.20414598612
-1.70285616698e-05
-0.000453008803106
0.000316658889565
4.79559220953e-06
0.204276445004
-0.00023465567832
7.64096588802e-05
0.000189011829437
0.000274998402647
0.000265181069165
-0.00211139542165
0.204405901188
0.0017922593817
-0.204817195477
0.000196913517682
-5.30413084733e-05
-4.88821569209e-05
-9.33503039781e-05
-9.97075527623e-05
0.204362799543
-0.000322024179272
0.000213892636183
0.0513280295053
9.44414515079e-05
6.69373418181e-05
9.23510044943e-05
6.86499266414e-05
-0.000584371614442
-0.0514426315537
0.000565462251964
0.0511026082243
5.02388741909e-05
-7.57053988594e-06
-5.80020860899e-06
-6.58552474754e-06
-1.48604429653e-06
-0.000126792234733
0.000283332433718
-4.37973833142e-07
-0.000489107689149
8.0317097034e-06
9.42681213605e-06
6.29886839475e-06
8.13208368392e-06
-0.000106129451265
2.67695365952e-08
0
2.34664871132e-08
9.54533259174e-30
0
0
-5.02360237084e-08
0
1.14466709511e-08
0
0
0
2.78228431306e-28
0
-1.14466709511e-08
0.000454870779719
8.87160959484e-05
9.00213066456e-05
8.64705019385e-05
9.25911075646e-05
0.0512439645715
-0.000453683415681
0.000102422167655
0.000105527302036
9.30618266741e-05
9.5544577412e-05
0.0511657889312
0.000408177023287
-0.0512505258616
0.000130486983174
-9.50821090066e-05
0.0102874721369
1.479185597e-05
-4.43386033998e-05
-0.0103358790616
0.000104470047054
-0.00010219636543
-0.0102136898718
2.2331921683e-05
-5.09073954154e-05
0.0102056047547
0.000137031772136
0.0127522553551
-0.000117951527849
0.000109551364295
-0.0127789948955
1.96631439079e-06
4.67885480841e-07
5.24516970582e-06
4.80593715281e-06
-6.10047757453e-07
0.0511319785792
-9.02063354789e-05
0.0510624199453
-2.56894521415e-05
-4.01026473018e-05
-2.83776941812e-05
-2.98969148708e-05
7.32590914955e-06
-3.39947803926e-05
-3.23043897857e-05
-2.41894251973e-05
-1.81731306713e-05
0.0511203174522
-4.71709137071e-05
1.89417898086e-06
-1.58663793648e-05
-4.83210924159e-07
0.0127318162127
-2.58960474991e-06
-2.77512938189e-05
-0.0102891876552
-1.80201005969e-05
0.0102745764593
5.5157087215e-05
-6.7522498745e-06
-2.82564400769e-05
0.0127237371992
-0.0127245423452
-4.36191923309e-05
0.0127415658678
2.6388096941e-05
-3.43204408985e-05
0.000269669151632
-3.3236960417e-05
-1.42391853478e-05
-2.43127639252e-05
-3.38839158773e-05
0.000291912227744
-4.64218770011e-06
-3.37206597991e-08
1.55568642187e-05
1.05095355629e-05
7.62029903315e-06
1.01626655685e-05
0.000265971088718
0.000498777585049
-0.000417825815895
-2.69112186279e-06
-4.56735123236e-06
4.31496705022e-06
1.65527423023e-06
5.06834136216e-06
-5.0666109668e-06
-2.03638814575e-06
-1.20869487829e-06
7.47063529152e-06
4.62039821678e-06
7.53490596611e-06
-2.0316674905e-05
0.000359085798445
-2.70290184887e-06
3.49746921098e-06
5.65817573012e-06
7.85311733114e-05
0.0127134719927
-8.89058583588e-05
-0.0127320738016
-0.0127095403676
7.82904096819e-05
-7.4285216926e-05
0.012704025006
6.99832703763e-05
3.12559247948e-05
-8.45218485401e-05
0.0103866262044
-2.26408958105e-05
-0.00011020903885
0.0104408519537
-0.0104404208515
2.93014643244e-05
-0.0127275940042
6.93166936575e-05
0.0104361859372
4.9115197021e-05
0.0127071676093
-8.29203572221e-05
0.0126987798086
6.56401542613e-05
-6.02592110567e-05
5.65764404356e-05
5.70508044189e-05
-0.0127019096625
0.012706897556
-6.27686736579e-05
4.65232438378e-05
-7.10023364064e-05
-3.17679364014e-05
-3.93386258843e-05
-0.0104406625843
0.0104219182111
8.74506646754e-05
0.0127041105213
5.4172974158e-05
6.85594349342e-05
-6.70607201842e-05
-0.0127099306357
1.74137634545e-06
-4.22504235838e-05
0.012714098349
3.73258357e-05
4.85284789967e-05
0.0127144923828
-5.58867250156e-05
6.9658177303e-05
-3.59299985096e-06
0.010362097357
-4.21789759018e-05
-2.73427896453e-05
0.0104159364853
9.43990144399e-05
4.41404019039e-05
0.010393071016
0.000103822569906
0.0127197186637
-5.07019201738e-05
-4.38287175383e-07
-0.0127281040854
0.0127317419552
-3.72296926019e-05
5.42606549778e-05
-0.0103443934043
0.0103223832546
-2.22578683141e-05
-0.0103772433906
8.21422546456e-05
0.0103600662531
-5.53644244532e-06
-3.53419452161e-05
2.48288996942e-05
6.32229356389e-05
3.25141108372e-06
-3.65844674623e-05
9.2699342931e-05
-4.87373603144e-05
-2.45787276541e-05
-0.0126935253121
0.0126991092781
2.25893056679e-08
0.000120535884245
-0.0104496155264
0.0104235761793
-0.0104843215369
0.0104634170751
0.000147546032273
1.67140639685e-05
-1.11092412042e-06
-0.0127075826335
-3.3505395296e-06
-0.000124342447715
-0.0104933055242
0.000150501267432
-0.0126975681667
8.67606976809e-06
-0.0104633381706
-4.2014953006e-06
5.36678943414e-05
-0.000110193001059
-0.000102201855398
-0.000105225179471
-0.000121379715255
3.18656607656e-05
0.000305911497687
5.99519894413e-05
-4.02429041779e-06
5.83346097169e-07
6.34815898486e-06
-5.85611093346e-07
-0.00061043570331
-5.67924734448e-06
-0.000144534552497
-0.000121973206509
-0.000137573663042
6.95183295625e-05
-3.9054740103e-06
0.00103036713117
-3.54248636957e-06
-0.000121360209911
-0.000104915593517
-0.00011818428947
-0.000296115278565
0.000180558743741
6.48148994769e-07
-2.35378608303e-06
1.64089937937e-07
4.51578397775e-06
-2.01393941009e-06
8.06975551648e-07
6.80998197909e-07
9.13532107927e-05
1.57928350463e-05
1.40420212508e-05
1.5164536229e-05
1.47069074087e-05
0.00041179093074
-7.3198138035e-07
-6.36296700776e-06
1.25376177743e-06
-6.00418725816e-06
5.23615141849e-07
1.52245387249e-06
-0.000113030799029
1.2792696999e-05
1.11578656388e-05
7.46939298181e-06
9.6851362994e-06
-8.71316430363e-05
0.000240036651685
-5.6082336824e-07
-6.310277491e-06
1.38375631125e-06
-2.58725518017e-07
3.02012024867e-06
4.87659430123e-06
4.94054183582e-06
-0.000548399790267
-5.60689928083e-05
-5.68523135523e-06
5.43567098188e-07
-0.000124956473954
-0.0128214350574
0.000120706436421
0.0127876106569
0.000131755700894
0.0128333345079
0.000136429083713
-0.000129949803278
-0.0128685226705
-0.000121342296659
1.38840932927e-05
0.0102467766681
-4.81332005477e-05
-9.48085836014e-05
0.0103091689424
-0.0103535197936
-7.25093260481e-06
0.0127985403852
-0.000119984376276
-0.0128564714992
0.00014469017959
0.0102674484329
-1.22528332077e-05
-0.000119381123324
0.0127607869738
0.000107715085148
0.000126124666651
-0.0127736325215
0.00010580004631
-9.93410712065e-05
0.0127544304381
-0.00010451359999
1.74273112448e-05
-4.54211839536e-05
-0.000103874481856
-0.0102367534301
-4.45869732873e-06
0.0102289817063
-0.000113604212094
0.00011189284844
0.0127427401561
-5.99344550251e-06
0.01034031592
1.97025241454e-05
-2.25428806873e-05
-0.010354019726
-0.000129402119436
1.54976144721e-05
0.0103322661632
-1.36511490939e-05
-0.000104021377411
0.0127329707074
9.86916020357e-05
0.0127576681356
0.000127832582942
-0.0127850261513
-0.000122071098959
-0.0102839288697
0.0102775432666
0.0127384240952
-0.0103077082801
8.97833419491e-06
0.0127342490145
-3.41287667368e-05
3.41963693201e-05
0.0103065442644
-1.52455299893e-06
0.010341524576
6.54185554216e-05
-1.05328560719e-05
1.06670538452e-05
0.0127333730046
-9.38008319547e-06
-2.30263032222e-05
1.22514028739e-05
0.0103009470139
2.33657595513e-05
0.0127320894665
-3.41042090049e-05
0.0103256830103
4.70012259327e-05
-8.01250969608e-06
0.0127369768329
1.5833332028e-05
-1.22783169519e-05
-0.0127334612235
7.37066838409e-06
0.012733724935
-3.13400912671e-05
-2.59381098217e-05
-2.32188894442e-06
3.97395953305e-05
-1.61902607314e-05
-0.0103075005563
1.88690405692e-05
0.0102897074737
-3.16882333956e-05
-1.17613763441e-05
0.0127379161918
3.54378245524e-05
-0.0127128675888
-4.56465162843e-05
2.17448777048e-05
-2.81687850155e-05
-3.3987825372e-05
-1.47139205722e-05
0.000102201617246
0.0103986823484
0.0104441489434
0.000126705845218
-8.19815895913e-05
0.0104171716073
0.000103562756922
-2.57504222862e-05
0.0127314114682
0.0103719282749
0.0103826266719
-6.53386532747e-05
8.73798551797e-05
3.55084569109e-05
-4.80669130627e-05
0.0103466237006
6.96703426929e-05
2.77527601425e-05
0.0127496191515
-3.32288044006e-05
0.012740695837
-2.00654381134e-05
5.91294433149e-06
-0.0103438608489
0.010321356243
0.0127434214738
-1.91806423165e-05
-4.34012268084e-05
3.72174561988e-06
-0.00010812001305
0.204571492878
-1.0040665106e-05
-2.70613464157e-05
-3.482946539e-06
9.13940361903e-06
6.41607778898e-06
5.82716586222e-06
2.92357918755e-06
-6.35956190437e-05
0.0511555322843
2.0522232523e-06
-6.40407316373e-05
1.20174839146e-06
2.76850936775e-06
3.34629749697e-06
2.14438871657e-06
2.64412829223e-05
-0.000549203379906
0
0
0
-3.70137762729e-28
4.5491834028e-30
0
1.91893292862e-28
7.34437360198e-05
8.5860944165e-05
7.82095294356e-05
7.91225292238e-05
-0.000221214680832
-0.000413660668326
0.0511088489525
6.86988837095e-05
-0.000106274086455
-9.96262884905e-07
0.0103433167951
0.0511565809338
6.13556524056e-06
-2.20294730379e-05
-7.8693737048e-06
-1.00386461329e-05
-4.95234081004e-05
0.0511447424739
1.2787876008e-05
1.60968253876e-05
1.99605624491e-05
1.48948230073e-06
-1.71382072785e-06
-3.31966600373e-05
-2.19028227566e-05
0.0102562516926
-3.27723090149e-05
6.67565415465e-05
-7.46729883363e-06
2.62483056419e-05
-2.85080834135e-05
0.0103102468838
5.22943575283e-05
0.0102676966425
1.73778599611e-06
-2.65493813951e-05
6.28984105813e-06
-0.0102725317357
1.63402846222e-05
0.0511215769075
1.54005478312e-05
1.20660326838e-05
1.35419000195e-05
1.73757611979e-05
-8.72568234372e-06
-6.57277207374e-06
-1.99635078272e-05
1.00446230547e-05
7.85587206722e-06
5.94558831331e-06
1.25492222037e-05
3.74988204174e-06
1.45870606583e-05
0.0510900621725
-2.32766977268e-05
6.92042909572e-06
-2.84226948973e-05
1.85435114529e-05
0.0102581326035
3.77068898374e-06
8.62223503058e-06
-1.70801805589e-05
5.17302233768e-05
-0.0102393336534
0.0102186222268
-3.53024365418e-05
-7.77059764783e-05
-5.89874545326e-05
-6.2536176203e-05
0.000149226546946
0.000189437999422
-3.15905637026e-06
-0.00022456652545
2.41814897932e-06
3.60281872338e-06
4.84249308046e-06
1.37449810859e-06
1.55056121562e-05
2.00507354346e-06
-0.000297174103818
5.14319836676e-07
7.85451175811e-07
5.45313272566e-07
0.000218700440194
-0.000187800233485
6.37844023938e-07
-4.9843439904e-09
-3.74787247679e-06
-3.60578893153e-06
4.23637611266e-07
2.85739652377e-07
-1.16778048928e-06
1.02428414619e-07
-0.000328029740638
2.93695549885e-07
-7.14264801748e-06
3.57920979088e-07
0.000270227875628
-2.50578705788e-07
-0.000225287457303
1.37402143507e-06
-8.42931020144e-06
9.34101037744e-08
0.000213923903308
-2.11691348751e-07
-0.000361472515871
-0.000168033099635
-0.0127223732355
8.64174448968e-05
8.44619702832e-05
-9.08544394687e-05
0.0127156220044
-9.2858639662e-05
0.0127159926947
-0.000102555398911
0.0102821563249
-1.15333542066e-05
-1.56984133295e-05
-8.75235904546e-05
0.0103371328288
-0.000101446892647
-1.99509266912e-05
0.0102805801252
0.0127088145297
-1.36902796242e-05
-0.0127453094228
2.82214034971e-05
-5.82940105763e-06
0.0127456341127
0.0127406883258
1.03677442233e-05
-3.35200614604e-05
-2.34921241927e-05
-4.47914105456e-05
8.05765555383e-05
0.0102395133794
-1.44059958713e-05
0.0102702318945
2.35412006527e-06
-3.24338650882e-05
0.012741619648
-9.09719636262e-06
-8.47108376783e-06
0.0102594938254
-0.0127508652304
2.08334982981e-05
-1.77601275877e-05
0.012747942607
2.3252551422e-05
0.0127578582252
-2.79609461014e-05
2.07608975644e-06
0.010297370916
-1.97392050663e-05
3.69674588322e-06
0.0102867419737
4.46294958113e-05
0.0102860392171
0.0127566703251
-2.30419215282e-05
0.0127444326957
2.17058218033e-05
-7.68370178094e-06
2.29633724733e-06
9.23621010579e-07
-0.0127533833455
0.012748030226
-5.78513888005e-06
-2.47547314272e-05
-0.0102797447037
0.0102754816372
3.34251753834e-05
-3.89159076714e-06
-1.00058288977e-05
2.6744028614e-05
0.0127417278129
-8.01370999987e-07
2.24133951242e-05
-1.29424921498e-05
-0.012734766061
1.9966763356e-05
6.37125089653e-06
0.0127272827562
-3.06492624963e-06
-1.83126142531e-06
0.0127367234247
-2.61227720353e-06
-2.03549957186e-05
0.0102650911179
4.39259473317e-05
3.07575728837e-05
-3.24695154564e-05
0.0102521649476
-1.00180606214e-05
-9.8400108838e-07
0.0102531614576
5.30557391393e-05
0.0127264746235
1.97352849657e-06
0.0127183596924
1.53845198423e-05
4.15541742907e-06
-6.32104023453e-07
-1.24515366911e-06
-0.0127149100702
0.0127073585451
-6.60690716299e-07
-5.31864674267e-06
-0.0102363585214
7.32692863453e-05
0.010214140305
3.96986219466e-05
-2.75175700379e-05
-2.08425294932e-05
4.31720571956e-06
0.0127132301899
5.98228072454e-05
6.38423018855e-07
-0.000526165773063
-0.0494289764724
0.0493121276558
0.000603108832671
2.73114567137e-05
1.59334364108e-05
3.15655458992e-05
1.49768903062e-05
-4.98519118259e-05
-0.000579518092293
0.0497627372548
-4.62674727148e-05
-2.83718375905e-05
-2.92127944248e-05
-4.38571206429e-05
0.000198109493778
-0.0497792381095
0.000545581047525
-0.0009325054326
-0.0498721976778
0.0501420359856
0.000838152903128
-0.000193295084407
-0.0001260130779
-0.000168153865087
-0.000140802224909
0.000452724798754
-0.00079014474305
-0.000216225271149
-0.000168612286873
-0.000218060098554
-0.000169552490595
0.000519013550792
0.0504617743004
0.000749810446468
-0.0501680034074
-5.53950791051e-05
-8.81905617839e-05
-0.000373505924182
0.000439691356518
0.000138899213088
-7.9057584054e-08
-6.25549479669e-05
-5.75555109331e-05
-6.04501396763e-05
-2.41960489968e-05
-0.000437024117652
0.000170668496219
0.000277755238902
5.88650494295e-06
2.60035129695e-06
-1.00159415033e-05
5.44003120101e-06
-0.000195925812466
-2.991945297e-05
-0.000182816217785
9.28938176995e-05
2.61273852645e-06
-3.2125759313e-05
-7.92994921379e-06
-2.69573591755e-06
-0.00017797984493
0.000170517940811
1.08140922424e-05
-0.000301617176885
0.000103579992345
-0.000304982230581
0.000184912751353
7.83446294141e-06
1.97526002547e-05
1.55587032599e-05
2.56137412213e-05
1.95231566003e-05
7.74737872623e-06
2.85996119668e-05
1.99014219537e-05
2.69885121761e-05
-0.000516898402222
-0.000163981575726
6.80915159128e-06
0.000377721047003
0
-4.42223428433e-11
0
1.40557412013e-10
0
1.19270106033e-10
-2.15605175203e-10
6.29707171085e-27
-1.71883834812e-07
1.2767498579e-08
-2.63578624539e-06
-1.16680880866e-08
-1.64974891738e-06
1.09144830536e-06
4.3753154521e-07
9.27258581287e-10
-2.08991195599e-08
3.99369058915e-09
1.04595687452e-08
3.046305144e-09
-1.20810591968e-08
4.26446453507e-28
-2.69940845456e-07
-1.1419736498e-07
-1.17758976429e-06
-4.11528716652e-07
-1.37887733219e-06
1.63010585692e-06
2.31141742236e-07
-3.38723745793e-08
-2.87193229333e-07
-5.72083551976e-07
-7.09311117335e-09
-3.80139724845e-08
-3.31977110585e-07
-4.93756000892e-07
-1.00614057297e-06
-6.52049045913e-07
-9.43190393999e-07
1.43823252987e-06
-7.74139683783e-08
0.000209956770127
1.74088950687e-06
2.25679149967e-06
9.47657091271e-06
-4.58849378834e-06
0.049141833704
1.34369944677e-05
-3.54434243468e-05
-0.0493386573113
0.0491513984194
0.000371040896284
4.17915387991e-06
2.08720063372e-05
1.09003389952e-05
8.50289792544e-06
3.1138308597e-06
-0.0493599771223
4.93517803092e-05
9.29635221709e-06
-0.0115207237939
1.72810746506e-05
0.0114649471798
-1.17184356726e-05
0.0114842268545
4.7394336041e-05
5.62134113506e-05
-1.28543894853e-05
-3.57025776109e-05
-0.0115360460344
3.34167581218e-05
2.40393540166e-05
2.16701827471e-05
3.95315728104e-05
-0.000317730872346
0.012285745511
0.0121977787331
0.0121782707798
0.0122412801096
-7.86498430142e-05
5.83297775259e-05
5.00031117512e-05
-2.18256152721e-05
-4.55469230952e-05
0.0114442147107
0.000454674036376
9.64626891553e-06
2.13443314136e-05
8.81001942519e-06
2.04911699672e-05
-6.57583246978e-05
-0.0495070979817
0.049601779326
5.18757868719e-06
6.03591474628e-06
1.34735262524e-05
-4.48760068831e-07
-5.12822397694e-05
-0.0496185188841
0.00049848139516
0.011489521261
5.9498353392e-05
-1.83565132371e-05
-0.0115380778572
5.60905319339e-05
0.0114963185933
4.84517682013e-05
-7.65752043297e-07
-6.12129372735e-05
-0.0115427307772
5.90164885946e-05
0.000815855299246
1.77784683202e-05
2.70423150284e-05
2.24039778783e-05
1.75216399653e-05
0.0491258965191
-0.000194645295182
-0.000158522625003
-0.000182901782687
-0.000150717892755
-2.37968598766e-05
-2.52240365431e-06
-4.42208258023e-06
3.14180201566e-06
0.0495222422535
8.420699992e-06
-4.16612718135e-06
2.97925645218e-06
-1.235959842e-06
9.71516722284e-05
0.0495765790491
0.000735888911715
-7.06323161309e-06
-3.18166213345e-05
-1.37704126273e-05
-2.1442872887e-05
9.97751795702e-05
-2.40405999173e-05
0.0114499817364
6.58150124688e-05
0.0113697601504
4.90117201423e-05
-4.00595457305e-05
-0.0113921351852
0.000112088373658
-0.000105682217223
6.24199323951e-05
4.3972468234e-05
-1.92726548486e-06
-6.94585276401e-05
0.0114586096059
0.0113736489557
9.34055446589e-05
1.17634172422e-05
2.68654952125e-05
-0.000108430383422
-0.0114042191242
0.0497866272185
-0.000100123515252
-8.60629528127e-05
-6.75521849613e-05
-0.000124625817875
-0.0010420399525
0.000277925208328
0.00122073871971
-0.000141064410153
-0.000242481425439
-0.000159143968074
-0.000221892674487
0.0506096314242
0.000296910146958
-0.00157591065326
-1.2763013896e-05
0.011346222529
0.000129361058232
-0.000125964948462
-3.42922452456e-05
0.000254892547829
-0.011231993805
0.000212274012442
0.0111047376261
-0.000206853078329
0.000108058110832
-6.07945256074e-06
8.06999193645e-05
-0.000123593283513
0.0113332726366
0.00019822580147
-4.29103369006e-05
0.000330551556742
-0.000212976058875
-0.011147369737
0.0110061728559
0.000667642164252
-7.6750059122e-05
-7.30851287903e-05
-6.00435325675e-05
-9.29675624945e-05
0.000261563489218
0.0500492238353
-0.000101340181065
-0.000131986690592
-0.000118897890851
-0.000110605328398
0.000337730597094
-0.0499060360504
0.000649485528759
9.44995539791e-06
0.0114611290415
5.67017088795e-05
-0.0114972565058
0.0113627769002
-3.571843896e-06
6.6424904239e-05
-0.0114037433169
9.16129405344e-05
0.0112718852744
-1.4259902755e-05
0.000159857714247
-8.51115954453e-05
-0.0113348434001
8.42482353296e-05
0.00100988322121
-0.000220616379297
-0.000278551314184
-0.00020267110868
-0.0002923415548
0.0506720226239
0.000675070135159
0.0503442099662
-0.000211354489563
-0.000166683197845
-0.000158010307141
-0.000222337575275
0.000511544410255
-0.00022738801991
-0.000290682659903
-0.000234951763038
-0.000289323367091
0.0507736646459
0.000898578353613
0.000724372197425
0.000118872399688
0.0113056744042
0.000103038162247
-4.09553563297e-05
0.000342315779947
-0.0111086979334
0.000176076882322
0.0109663388202
0.000101110367365
-2.12689731022e-05
0.00019690309695
-9.72763157022e-05
0.0112019700288
0.000136073342312
-4.37356629236e-05
0.000348806052401
-0.000148670351328
-0.0109877799369
0.010846163036
0.000197451773271
0.011185921194
9.37527254461e-05
-0.0112505828535
0.000333282082581
-0.0109902362124
0.0108595391549
-3.91926906341e-05
0.000116097069124
2.76612629937e-05
-4.06484393748e-05
-5.31388520444e-05
-4.49668670675e-05
0.000369766901239
-7.870864092e-06
-0.000311302007871
-1.02874188259e-07
0.000369346536218
5.37606244577e-05
-5.19919661139e-05
-4.73206988074e-05
-4.30233282474e-05
-0.000313451538181
-9.86172615448e-08
-8.21590431107e-08
-4.9374571508e-05
-5.97474984106e-05
-5.68121588204e-05
-5.12881763875e-05
0.000450077156138
5.52931076958e-08
-2.36603228036e-08
8.35716851871e-08
1.88416247785e-08
-7.25973695338e-08
1.6331016232e-09
5.04611399572e-08
3.82804568092e-08
-8.04462757996e-09
6.91940584452e-08
-3.69804669862e-08
-7.70892670679e-08
7.19161832221e-08
-9.51803097622e-09
3.37646172893e-08
7.28926416936e-08
1.81714254983e-08
1.1071656205e-08
-1.16472130413e-07
1.43541789408e-06
-4.270091033e-06
-8.77761103195e-06
-4.38529189407e-06
2.37111250989e-07
-7.79492137814e-08
-1.32081740323e-06
4.17531247393e-07
1.33928508802e-06
-1.04101533137e-05
0.000104389526832
-5.0964629205e-05
-5.88373304622e-05
-5.37924152417e-05
-1.25793258851e-07
-0.000313446236311
0.000315673530169
-6.15547500252e-05
-4.66276136801e-05
-5.68583506977e-05
-0.000260378492923
-1.05443457544e-07
0.000144842561791
0.000196760002521
-8.66982600623e-09
-5.87008261298e-05
-4.22211637966e-05
-5.21574176841e-05
-0.000135372707229
0.000331100166946
-2.90284577379e-08
-5.43415975344e-05
-4.28972469484e-05
-5.75803488941e-05
2.41462264057e-06
0.000213138135946
0.0002497233419
-3.13070900929e-05
-2.59018116717e-05
-3.62884441927e-05
6.16268337497e-08
-3.87221651618e-08
-6.87324539986e-08
-2.41979010571e-08
7.04107964893e-08
8.03915083443e-08
-6.2969920979e-08
-7.12628882807e-08
2.99260046615e-07
-2.02040981274e-07
0.000349874170289
1.02982837802e-05
1.77684254743e-05
4.00100233387e-05
2.21333642921e-05
-0.000332954803011
-0.000225486134313
-0.000107865180084
8.07675770378e-06
3.74260442747e-06
1.47382193183e-05
9.94862022684e-06
8.93258534714e-06
0.000319056214147
3.88632825425e-05
2.81597808503e-05
2.27858014295e-05
-0.000433729288903
1.06545512445e-06
-1.62736838609e-07
6.10538967524e-07
1.92351215714e-06
1.53481779421e-06
-1.47677276219e-07
3.7680034524e-07
1.55352637231e-06
0.000184267351931
6.57844237306e-06
1.32360781151e-06
7.13645371243e-06
3.18104923396e-06
7.35165445495e-06
-0.000256966242475
1.14068660611e-05
9.20201276994e-06
7.12344495858e-06
0.000111054751548
1.63837885424e-05
2.37276381517e-07
-8.22126332802e-08
-3.7633360879e-07
-3.80734782886e-07
6.92835991465e-07
9.12355878235e-07
-4.90207832893e-07
-6.28198767928e-07
0.000139225938318
7.25056678055e-06
2.76855946655e-05
4.63240884087e-05
3.31503804275e-05
-0.000436456820693
-0.000372090258148
7.24185938807e-06
1.78075049541e-05
3.13873171276e-05
2.8014413566e-05
6.69779825372e-06
4.34951544216e-05
3.41570981708e-05
3.17102652037e-05
-0.000473338760397
-5.22072400923e-05
1.5633721629e-06
-1.80658188487e-07
-3.25544088573e-07
2.15789648659e-06
1.6585873674e-06
-6.62011007317e-07
1.937048456e-06
-9.89162088443e-07
0.0123810948719
-1.10117719387e-05
-3.15136668633e-05
4.92434179621e-05
-0.012385205125
3.76629759662e-05
-0.0123774271968
0.0123660714486
-1.3181323258e-05
1.51438505483e-05
2.128833834e-05
-1.07637241533e-05
-0.0115767320292
-3.60419496697e-07
-0.0115266519916
2.6071117101e-05
0.0114716158927
5.9238491213e-05
0.0123700368587
2.20510949516e-05
-0.0115810658757
-9.57884993752e-06
-0.0123816296001
0.0123899150047
6.74714422308e-05
-9.35362592088e-06
-0.0123934915096
-8.10225347145e-05
-0.0124003996934
0.0123944695125
9.62899070155e-05
-1.122798102e-06
-0.0115313287879
0.0114758580574
2.38944887399e-06
-3.06434071556e-05
4.09557146033e-05
-0.0115911665637
0.0123793633259
8.28409427064e-05
-0.0124040297038
-0.0115854367806
-0.0123609754086
0.000110059038804
3.71200281603e-05
-8.34017140658e-05
0.0123307702696
-9.32938194236e-05
0.0123797571179
0.000110652343942
-1.84652785948e-05
0.0114371511425
-3.48903480954e-05
-4.40216470007e-05
-5.79951041841e-05
7.32372372094e-05
0.0114114384407
-7.13512994046e-05
0.000131465550581
0.012354062694
-4.32527106739e-05
0.011402519577
-9.19318692045e-05
0.0124305351002
2.70624685034e-06
9.76831884786e-05
-0.0124286751254
-0.0124168359605
0.000104306503635
0.0124128200365
2.84076147102e-09
4.78681826792e-05
-0.0115931068421
-1.70518115937e-05
-0.0115397148731
6.16183619362e-05
0.0114923195391
-0.0124164915875
0.000110490399905
0.0124287128025
5.22019035732e-05
-0.0115942525317
0.0124444415401
9.64620815561e-05
5.30003654286e-06
-0.0124427591892
-0.000109490808975
-0.0124569479199
0.0124579569649
0.000114491684278
-1.61338505099e-05
-0.0115440900658
0.0114976231035
8.92950239044e-06
-5.35132262811e-05
-0.0115967718712
5.16385328622e-05
0.0124435535103
-0.0124527966916
0.000101343035178
-0.0115975144169
-0.000139602982008
-0.0124152300717
3.89863501814e-05
0.0123974965928
0.000145902328964
0.0123982489979
0.000117973910732
-4.55323935279e-05
8.20461413669e-05
0.0114203764816
-2.37080745295e-05
0.0114521990919
6.94569813119e-05
0.012376200676
0.000123639050521
0.0114224392823
8.53717307552e-05
-0.000150481883908
0.0123775372181
3.36031502217e-05
0.000154606829902
-0.0123491238741
0.000183441465389
0.0123281193447
-0.000175426161792
-4.55069507877e-05
9.51687459854e-05
-8.66393380216e-05
-2.33468448016e-05
-0.0113984252764
0.000111091976703
0.0113735775364
-0.000146379396022
0.000186737639297
0.0123682539828
9.43692083004e-05
-0.0124325398483
0.000140389230727
2.63034888491e-05
0.0124204013077
-0.000119310739136
0.0124485078457
0.000123525647784
-1.92423087657e-05
0.011459021913
-4.5707217288e-06
-8.25970599516e-05
0.0114258804654
7.3501287429e-05
0.0124415575086
0.000141729548235
0.0114253544186
0.0124049314606
0.000147958394386
1.51348996798e-05
-0.00017320693864
-0.012426364713
0.0124271654413
0.000168366228331
-3.53672787705e-06
-0.0114017018641
0.0113703621758
5.69567397547e-06
-9.16684241673e-05
7.7198578101e-05
0.0124010775968
0.000147584402114
-0.00023492870154
-0.0123551960495
-7.84985100458e-05
0.0123852371522
0.000244071884103
3.93142247511e-05
0.0123148416855
0.000199002571033
-3.22120440083e-06
-0.000195385690043
4.42384515465e-05
0.000152360362855
0.0113040056685
-0.000142590714216
4.63784026285e-06
0.0113570035223
0.00012320944533
0.0123380366389
2.21458219271e-05
-0.000235664333561
0.000207896132613
8.93031491741e-06
0.011305775126
0.00015057365547
-0.0002707259028
-0.000160743399657
0.0124636748817
0.000286425028139
6.70015573455e-05
-0.0124191496902
0.000319608648577
0.0125615431562
-0.000322687053928
0.00011599680437
0.000127880545388
0.000174614790125
-0.000165131325716
-0.0112222117569
0.000277556044805
0.000227421491437
0.0110760793329
-0.00027316120976
4.98553695707e-05
0.000183275403354
0.000332570925405
0.0125893343281
0.000139603170805
-0.0123879293329
0.000225423309858
-0.000123218631747
0.0124300161317
-0.000195546736732
0.0124256170171
0.000191732127436
4.09968936613e-05
0.0113462822376
0.000164432742738
-0.000146479632816
0.0112468817675
0.000137326628264
0.0124728359863
0.000218336069751
0.0112758802841
0.000264853150537
-0.000194444467438
0.0125052794561
-0.0125449924169
-0.000306574014275
0.00029652880754
0.0126439262476
-0.0111868636671
0.00030971307279
0.0110478876059
0.000224863522454
-0.000172758663934
0.000168676962937
0.000258884026427
0.0126199448984
-0.000127106504621
-0.0124741243272
-4.30232475679e-05
0.0124712102558
0.000127110278687
0.0124629597581
0.000112891308566
-0.0124706834159
9.12820359437e-06
6.60620356821e-05
0.0114244135509
3.82157536185e-05
0.0114626244815
-0.0114980116958
4.62393111279e-05
0.012457733766
-0.0124804903593
0.000114329712188
0.0114278083277
5.45977999574e-05
-0.000135212164682
0.0124595232018
-6.70804113498e-05
0.0001373877392
-0.012442991598
0.000153893127802
0.0124508290433
3.29291271538e-05
7.38847120515e-05
0.000106309670074
-0.0113913137655
8.31412368072e-05
0.0113383341703
0.00015506902334
0.0124718244688
6.18995082891e-05
0.0124755200899
0.000139093434354
-9.3137425523e-05
-0.0124852030843
-0.000156885063621
-0.0124923628922
0.0125118335736
0.000165805618719
0.000136514981129