/*--------------------------------*- C++ -*----------------------------------*\
| =========                 |                                                 |
| \\      /  F ield         | OpenFOAM: The Open Source CFD Toolbox           |
|  \\    /   O peration     | Version:  v1906                                 |
|   \\  /    A nd           | Web:      www.OpenFOAM.com                      |
|    \\/     M anipulation  |                                                 |
\*---------------------------------------------------------------------------*/
FoamFile
{
    version     2.0;
    format      ascii;
    class       volScalarField;
    location    "9.3";
    object      p;
}
// * * * * * * * * * * * * * * * * * * * * * * * * * * * * * * * * * * * * * //

dimensions      [1 -1 -2 0 0 0 0];


internalField   nonuniform List<scalar> 
28582
(
17098.1795996
17097.3230732
12200.3533295
12199.6548185
7303.50987949
7302.75769806
3631.14472682
3631.30969077
46.441691396
48.936651387
-27.1195218174
3631.57407355
651.284177034
653.305823098
3629.92783118
3631.6870158
653.532183292
1794.19030556
1795.74145817
17098.4839911
17096.7186806
17096.6672394
12200.0347479
12198.9719974
12198.657843
7300.95793161
7301.08806181
3624.39609722
3628.07013319
49.8830982347
-27.2524877246
-27.1747431629
3627.03198847
3628.38059713
640.666896302
652.077302755
1794.57511624
3626.44283779
3629.99688495
3628.04543337
1792.65261543
651.103942582
1794.18838151
1792.14358409
47.2956624793
46.7590121277
-22.886696874
-22.834489086
48.1952188725
-22.839376252
1798.05220671
1798.75032532
652.099086404
650.491303078
1798.35200515
651.31551474
1798.37316266
1798.883239
1798.02105428
652.756066658
652.559743137
1798.61878455
651.991942344
1798.37928513
1796.81028416
1797.26006892
653.225214515
652.936808038
1797.97938042
652.752417923
1795.95632904
1792.91053433
650.999827823
651.050183241
1795.70632812
652.174812413
651.919898496
1794.5752971
1797.16718169
651.432749058
651.496137745
1796.93676127
652.06398859
1798.11832344
652.190939966
47.0603475903
-22.9692456723
44.1736005889
48.5017358999
-23.1251404163
-23.0554533431
47.7251975343
-22.8868261148
-22.8506687633
49.2427207117
-22.88557717
51.2939111575
-22.8543424693
1790.20455335
1786.67915046
645.108915115
640.599504543
1789.39407822
1787.45701722
644.976225404
1792.77021598
1794.05254197
649.250194949
651.773838851
1791.9530875
1794.82069616
649.032790091
648.631241747
650.914147408
1796.45863566
1793.64838422
651.424911711
1795.64495458
648.905727811
1791.45677986
650.155900134
650.324266035
1791.33631037
650.063283521
1790.40690719
650.004207038
1790.43109955
1789.25070531
650.464993967
650.556208761
1789.6924592
1789.80758689
650.035510921
1793.85171896
1795.71933472
650.484169033
650.840956748
650.188685059
1792.50116957
649.925747827
649.566738262
649.63284352
1790.65911363
1791.1830201
649.934908576
1790.24407563
649.609542589
7299.81946926
3625.82686993
53.0084220436
-27.1030065184
3630.00835598
652.030660402
3626.83887501
3626.43193389
651.985057378
650.035651052
653.075132912
3626.42800298
3626.67526513
654.025215193
657.027238486
48.0850136988
51.3382296623
53.1541478317
-22.8427193526
-22.8525676212
-22.8553690773
54.2570641306
55.5848387538
1797.08501577
1797.48993791
652.574121957
652.793416132
1796.69037069
653.395805701
1797.82927601
1789.47734754
1789.08197483
652.88824534
651.315418838
1789.1046029
1789.46482768
652.177534536
1789.6576003
1789.77461076
650.544274627
650.759217898
1789.73702594
651.403086541
1789.54403153
1789.94069991
1790.07279587
653.720185335
651.946951685
1790.4522042
652.607078899
1789.65055392
1791.32458849
1790.55587101
654.673702138
654.942909025
1790.90521421
655.491013528
1791.04725246
1791.66106096
1791.84394943
657.39241865
656.012539841
1791.82078482
656.408132911
1791.55559145
3662.43070954
3658.44451454
3653.95672066
3647.85646351
14.1840529779
21.2225216338
15.1938778198
23.9836180472
25.367555066
-27.0704093227
-27.1651274801
-27.0743658227
-27.1649726475
-27.0480805663
-27.0946056393
3662.82521734
3661.88493583
633.099854665
631.500726503
3664.66296097
633.324721009
3660.24982035
3658.6296339
630.924411719
630.212614512
3663.08875206
3660.14266018
3660.45687938
632.848705236
640.654426897
632.348474365
641.096425293
3657.5677236
3650.07066272
644.834856016
650.518724929
644.432377386
644.407015757
3657.93830906
3655.38994845
632.701495472
641.546820193
641.190429596
3645.83709414
3650.51187079
3642.15092517
644.364644892
641.906564081
642.076677562
635.201994631
640.954332572
634.362812839
13.5314192575
12.8732954115
14.3345940571
-23.1715348465
-23.1354289055
-23.1731845661
-23.1486030641
-23.110246498
-23.0886403642
-23.1394922696
-23.1013778828
12.4216280066
12.3746825797
16.880178588
14.4052588543
17.4921987819
-23.1642780786
-23.1436954974
-23.164495392
-23.1527930313
27.6852819359
22.272769686
28.2741457617
-23.120917642
-23.0889177098
-23.1134308223
-23.0835739915
18.9229165248
20.86018102
-23.1485496478
-23.1188306327
-23.1056830834
28.5810191983
25.2998134288
28.6691648952
-23.0747367333
-23.0517553915
-23.0708832375
-23.04421929
1825.67171111
1827.8469883
631.568810428
632.663927715
1827.52178783
631.059698294
1825.94702794
1825.23976447
1826.48734259
632.046057896
629.827132857
1827.05592334
1824.70023116
630.424276582
1831.2126598
1828.37043688
633.826991628
635.402845045
1829.06371036
1830.36594637
635.874407511
1823.58141294
1825.80951424
629.219547156
630.539887882
1824.1516287
1825.18992393
628.772218796
1823.05018877
1824.13259233
630.303697649
628.378319559
1824.60837378
1822.56827281
628.498962547
1828.6526424
1827.62525701
634.971644044
632.508975432
1829.44064039
1826.94480005
634.690356819
1830.24609661
1832.57085513
637.562465428
640.57919104
1831.21911134
1831.43225368
637.337257376
1827.8957051
1825.60501966
632.351837784
634.780274595
1826.29891796
1827.15970737
634.594012811
1829.21545892
1829.44126308
640.847443184
637.840531656
1830.24379958
1828.49075512
637.44645937
1831.03221552
1833.03715855
648.416234116
644.842251451
1832.71993458
1831.92503409
648.00864825
1826.93184792
1821.95154298
651.275746031
648.810270961
1829.10585697
650.282259792
1819.44955055
1828.8088285
1828.93862404
644.505770346
646.407104147
1830.55343854
1826.19490598
647.244731704
1824.11772823
1813.10628947
646.673753304
646.783431343
1820.80695185
648.623954105
1816.41023475
1826.03492528
1825.03991752
635.314149553
633.14306184
1826.57469537
1824.70062726
635.792455146
1826.78166158
1828.15903697
638.485449882
641.806807541
1827.68358677
1826.60206233
639.004181861
1825.44557704
1822.73323898
641.634261032
639.297095001
1824.65432461
1824.01842754
639.34577159
1820.29214034
1826.9558873
645.367279731
643.980141082
1823.30470163
1824.64828794
644.194356399
1813.8441891
1809.6305918
644.575341765
639.520359044
1817.35465609
642.613342524
1806.03531479
1817.33081133
1819.78634398
643.035843559
641.15454938
1822.12000929
1814.79591706
642.598204228
1810.68076106
1800.48059955
637.094204641
638.586397264
1808.09485774
640.369285775
1802.88906357
1811.89767059
1818.05007097
639.895010302
639.948492533
1813.05863209
1816.69824648
638.832551228
1799.32636413
637.431087908
1806.58120422
17097.0084944
17096.0705511
17095.7809117
17096.9956078
17097.6442712
17106.2843008
12199.0750684
12198.3133509
12197.9417467
12198.6940252
12198.9976294
12207.667867
18313.2382616
18316.3530007
17089.7450093
17095.0285784
17099.3199062
17102.0874872
17106.2180859
17090.8075501
18314.4344842
18316.8633776
17094.4974263
17096.0535484
17096.9846014
17096.6350535
17094.8996477
17104.0273543
17094.526117
17093.4227478
17094.1319104
17095.3088401
17096.1040562
17095.9897326
17095.4322933
17106.3648115
17097.0585079
17095.4325844
17095.1560845
17095.56456
17095.9663186
17095.9138616
17095.7996633
17106.6220679
17096.0060313
17096.2522822
17096.7024495
17106.4063444
13412.0895373
13415.7079343
12195.2102033
12198.3557414
12201.401158
12205.4641219
12234.9465949
12135.8337806
13415.3689583
13417.9016858
12199.3366027
12200.6529074
12199.8048088
12197.292066
12191.5462266
12183.6753196
12195.1578581
12195.8185105
12197.3355998
12198.1640529
12197.6338388
12196.2852982
12194.1544761
12202.2641661
12198.2596369
12197.4909336
12197.6856271
12197.9269746
12197.7359317
12197.0239974
12195.7511945
12205.2781158
12197.9166736
12197.7493083
12197.5699495
12207.0373354
8509.19421965
8515.84347226
7298.82793358
7301.62412889
7303.08172261
7304.27716983
7314.54999465
7228.45044636
8513.72362795
8519.2114082
7298.00618774
7300.51478491
7300.05010929
7294.26117927
7282.3379875
7269.52614833
7294.58903101
7297.56767008
7299.52709047
7300.31668751
7298.27862215
7294.7543588
7289.60318943
7300.09617501
7299.25686706
7298.52790146
7299.51464786
7299.71782768
7298.91474289
7297.74250225
7296.27704716
7293.39196318
7304.31796763
7301.50044046
7300.67339065
7299.20658585
7298.52708646
7297.94292546
7296.59569193
7307.55781999
7299.29734589
7298.59336228
7308.24234741
3605.38330361
3618.8454382
3627.32346211
3630.45746566
3631.67253534
3632.20652914
3630.88963611
3609.97143666
3610.77810558
3608.67266241
3620.51794087
3627.02143773
3629.91099796
3630.28182195
3626.25889492
3618.66800563
3605.52966695
3635.32002175
3618.00121108
3615.52755849
3623.1704593
3628.82858383
3630.01064471
3626.51881735
3622.75191351
3620.00203255
3620.72445737
3620.23785903
3621.12641817
3626.39467186
3628.30437264
3626.69409217
3623.46562109
3622.74658857
3623.304533
3626.23779906
3628.74579956
3628.53748695
3625.78389653
3623.96209276
3624.27033782
3625.26338106
3628.52165199
3626.13620845
3626.97663631
3628.83384175
43.5017210129
49.0991346595
49.6075973494
47.9693278289
49.9232025865
53.9104257074
57.6350077231
60.0999357127
33.5067045855
40.2010320734
44.0458875572
48.0132775672
49.2005229049
48.2279411311
49.9708759986
54.5121580172
57.4636267835
59.1731716196
32.5108818516
38.7574421221
44.3391725558
49.3287237031
49.2953596615
49.354463639
52.3278279567
55.5009086318
56.9718194502
58.6863611034
36.3483777068
45.4657411272
50.9818715369
51.6860931229
52.7523631306
55.0780794205
57.4521971469
59.273438683
59.7004571087
50.1347299917
51.4505329508
52.9075808482
55.1654783527
58.176559781
60.282794874
60.574566771
55.7079447866
57.7131149077
60.3154930749
-27.5136108334
-27.0187100352
-27.0411946525
-27.0846800631
-27.0717182485
-27.1529775564
-27.2002837436
-27.0757663292
-27.2350760098
-27.8180018538
-27.8467149757
-27.9088384921
-27.7519420788
-27.2945344431
-27.2787033121
-27.1931144042
-27.3047641478
-27.1041136158
-27.2318103452
-27.6693782648
-27.7591652655
-27.0847183915
-27.1966688733
-27.0369597344
-27.1441579139
-27.1178281417
-27.5313969865
-27.1097885762
-27.2505107055
-27.6524653798
-27.2018884749
-27.3422470514
-27.157977396
-27.2721732935
-27.0752313409
-27.4788258489
-27.1550189298
-27.2744996752
-27.6726585061
-27.1566481097
-27.1724717882
-27.3518758546
-27.1191389336
-27.1287301344
-27.2372474475
-27.7246351338
-27.1137253731
-27.2906259876
-27.8925722291
18314.8851224
18313.0998795
18314.9230366
15863.1349936
15864.9212313
15863.4517505
15864.988984
18317.3765505
18316.7055
18317.9114073
15866.5220628
15864.1691075
15866.2571301
15866.1858897
18315.3854239
18316.5358801
18316.4001985
15864.8317662
15866.2449927
15866.7965703
15867.2773685
18318.0101526
18317.1799052
18318.371118
15867.5349279
15868.0456649
15868.4575661
15869.8184225
13414.0173867
13413.1025154
13414.5866466
10960.5702923
10963.1964321
10962.0120039
10964.3012488
13417.0607084
13415.8696033
13417.9771824
10965.430083
10967.125282
10966.2358093
10967.4699099
13416.6765307
13416.9223115
13417.8010812
10964.7854889
10966.7915467
10966.7013506
10967.6218055
13418.9789495
13419.0068183
13423.1440729
10968.3780939
10966.4383968
10968.7381013
10972.6143298
8512.70044586
8511.06389526
8514.16693709
6057.84294152
6062.5544219
6059.721406
6063.69833682
8518.28024859
8517.1475228
8519.61421155
6067.03438882
6070.46526368
6067.82959023
6072.36663619
8516.63548686
8515.88151432
8517.5162559
6061.87835796
6065.69911229
6063.85356821
6066.9255526
8518.05245706
8519.41854623
8522.95972933
6069.58451883
6071.77423267
6070.27623749
6074.32100762
3600.75877107
3603.36894626
620.611501489
622.103424344
3612.20580916
3606.94294717
3613.24868529
624.535395133
639.730119004
626.295545976
640.294812451
3624.20438202
3619.49730149
3624.56016014
644.442580768
651.933169328
644.198995025
651.227002388
3629.27282743
3627.17592809
3628.70288884
652.618632591
651.745157472
652.167397779
651.590020465
3631.20872081
3629.8860645
3630.71832933
651.71843665
653.231435214
651.64948715
653.677428682
3632.17533727
3631.00267604
3630.84308999
654.798965739
657.356766066
655.216519227
657.355164242
3631.57650535
3629.77039947
3627.84322257
657.273205847
656.910618025
656.460367378
653.784901385
3623.19374523
3624.58663785
3614.96440593
657.601942988
657.453109118
653.847764049
652.899329634
3573.12178934
3596.77881513
3592.68967734
657.429985578
612.399762812
652.69475994
633.680057211
3638.72169274
3625.15294447
646.52944996
627.470472313
640.069388822
627.586992848
3606.53878722
3615.25975333
3611.01771583
624.119376605
623.137462087
625.53970094
628.554538677
3614.60799594
3611.86581406
3616.51248628
627.238473548
641.035851856
632.264901596
643.982026287
3624.86010029
3621.70577354
3625.73128202
644.648184334
651.066879896
647.125853602
651.788987992
3628.6640146
3628.68297909
3630.8390097
652.049694744
651.809832647
652.737820988
653.410504999
3630.52755289
3631.45221645
3630.68506111
651.853184058
653.85982308
653.50938315
654.420461271
3628.83632052
3629.04226038
3626.65842868
655.324003105
656.576703626
654.730151488
652.922756997
3622.80081217
3624.06943441
3621.35987684
655.372790937
652.619336044
651.997635591
651.444639164
3613.35084718
3618.60816086
3615.91816199
652.738825683
652.568054994
652.00977288
654.181497459
3619.57280366
3612.86131295
3629.0438166
652.803907583
636.868900342
655.40170084
641.638098827
3624.84809291
3632.45413814
3624.18952649
637.686832316
626.914333185
631.311688425
623.79640819
3614.68247067
3619.10376841
3617.40893403
625.230966251
630.360408312
623.888318595
634.348434868
3619.25012556
3618.6764861
3621.87010214
634.076855885
645.037743277
638.609513831
649.524244302
3626.45221589
3624.87305231
3627.12005898
647.876505033
652.249879324
651.416951341
654.255506485
3630.07583138
3628.65514231
3629.20070995
653.107215257
653.886338519
654.753830741
654.733434004
3628.56660346
3628.43417123
3626.50603547
654.019759683
654.044899992
654.162960834
651.658720409
3624.42408201
3624.51555925
3623.03169828
653.81891708
651.783500768
650.41338396
651.506970005
3621.19931545
3622.36352863
3621.9422965
651.510512443
652.089470274
652.877611347
655.816375435
3619.9161931
3621.86883869
3622.46545358
652.79412905
655.292864237
656.694078387
658.954884208
3633.52318255
3624.00900381
3635.02912429
656.578539692
642.277542679
660.257515035
643.258164088
630.635312329
623.304453018
3619.46482272
3621.09650432
623.900134847
635.077981712
635.727041077
3624.08316128
3623.00592946
3625.75858895
639.814056954
650.820723128
641.001383232
652.2959521
3627.68740422
3627.57612892
3628.16454567
652.403516692
654.876860732
653.820506152
655.332509798
3627.94840471
3627.94532981
3626.88598333
655.213551834
654.252971849
655.262276851
652.618516011
3624.857786
3625.5784556
3623.91470855
653.500987024
650.989126941
651.312777928
650.600973524
3622.78637188
3623.02497811
3623.15921856
649.949853367
652.632724763
651.37501831
655.452860161
3622.91626948
3623.52371405
3623.81917374
654.110056463
657.043963687
656.614084558
659.348103396
3624.2096157
3624.372444
3625.49174309
657.887535614
660.052660026
660.199705479
662.06405788
3636.35881781
3627.67500157
3637.03667827
661.339262288
643.019291093
663.461428819
642.079096089
3629.08247122
3630.30531737
653.616242754
655.16523707
653.858540614
3627.23162114
3629.82445588
3628.4554574
655.106089715
652.18221292
654.042922146
650.970789034
3624.50812596
3626.80963548
3625.71406235
650.54728079
651.427679802
649.633740652
651.439370142
3624.02322406
3625.21015444
3625.19111128
652.573284085
655.675666654
652.443970701
655.49051134
3624.60011169
3625.38299538
3625.68030783
656.796958264
659.66144819
656.64360145
658.952965311
3626.43524183
3626.22480135
3627.19781323
660.404395402
662.363616058
659.579973583
661.97042845
3637.09777316
3628.86192444
3636.56313592
663.833182363
641.351222325
663.145501187
639.787154756
3625.78219071
655.024322084
3626.49289259
656.023475214
658.082043475
3627.68153859
658.847867173
661.48426256
3635.88381802
662.370467799
639.591774449
-23.0425746071
-22.9962241494
-23.0474291085
-23.0213228156
41.133587119
41.7667957026
-22.8521409538
-22.8426217562
-22.9006917244
-22.8789996188
46.4894028238
43.7235301596
46.2706687829
-22.9761548913
-22.946439098
-22.9629999446
-22.9067986186
50.1974839871
48.1709400853
49.5288215171
-22.9975626933
-23.0372737633
-22.980262382
-23.0518024254
48.1261039667
49.3192800286
48.1673633841
-23.0399200838
-22.9819602055
-23.0701951708
-23.0158626892
48.2094982658
48.2490345198
48.499811239
-23.0078012986
-22.9908155362
-23.0099267935
-22.9827809087
51.7164514284
50.1305161029
52.3252676302
-22.9390130925
-22.9020152358
-22.9089720733
-22.853301669
56.1193751458
54.4929479171
56.5356735163
-22.7491534348
-22.7281064989
-22.7029771998
-22.6843405676
59.2559740035
57.8602064682
59.9096055443
-22.7918197942
-22.8445934629
-22.7662518813
-22.8367454256
62.4453252772
59.2014711517
64.0010381651
-22.944669015
-22.878121523
-22.9510568121
-22.8496597089
37.2688502502
32.8845465421
36.5425422273
-23.0760299373
-23.0757664233
-23.0826869994
-23.1189501206
41.9665135645
39.6162794614
41.6914336971
-23.0758116957
-23.0459791557
-23.1613407379
-23.1526168566
46.4663826874
44.1281892384
46.8401532483
-22.9824579279
-22.9672730758
-23.0934902178
-23.0422707439
49.0624041619
48.7674273861
49.1896118399
-23.0009411043
-23.075638259
-23.0232637265
-23.0889733984
48.2557321577
49.1164059844
48.2651006175
-23.1017447121
-23.0452808267
-23.0975783019
-23.0560129373
48.2021222747
48.0968561421
48.6268294834
-23.0400971199
-22.9794861101
-23.0679229633
-22.999274428
52.4350279336
50.5869392076
52.9545578668
-22.8972237438
-22.8230193584
-22.8599095325
-22.7914057085
56.4969541481
54.7218543506
56.464369449
-22.6905818997
-22.6735136609
-22.6926586852
-22.690656073
59.366311021
56.9216330978
58.2599290394
-22.7629668914
-22.8357408449
-22.7726892435
-22.8328314563
63.8840609034
58.901545799
63.5651448619
-22.9308715144
-22.8273702381
-22.9241375515
-22.8170116116
36.1031278592
32.1859481769
35.3514221492
-23.080203429
-23.1630665794
-23.0816746746
-23.1910703376
41.4677771197
37.8036790139
41.6013044085
-23.0858688437
-23.0525948004
-23.1150898332
-23.0857641556
47.3921894101
44.9129259069
48.5645687335
-23.087238459
-23.0288084728
-23.11914498
-23.0698646088
49.7551032433
50.0603287753
50.6714679587
-23.0410442328
-23.0782068347
-23.0682361693
-23.0846701254
48.9084228665
50.3920718504
50.440505298
-23.0754524914
-23.0408798061
-23.0622984721
-23.0204081422
50.3859339748
51.1059272799
52.3682237937
-23.0161372357
-22.9487476347
-22.9773215986
-22.9038087167
54.2437384738
54.1458390955
55.5805216317
-22.8691701827
-22.8304114323
-22.8512782429
-22.8243204023
56.7294874196
56.4336857006
57.4953770313
-22.7194905903
-22.7190069751
-22.7316267783
-22.7269960067
58.1098946271
57.8464786355
59.0386495186
-22.7815494907
-22.823213522
-22.7758789779
-22.8061326592
63.1582261043
59.0191817869
62.4031007134
-22.9094670336
-22.8188752122
-22.9027419886
-22.8096002791
40.9887188563
40.0501068981
-23.1585879715
-23.1063981407
-23.1176455902
49.5711458652
45.2288754305
49.5468570422
-23.1142003236
-23.0656268757
-23.1184106818
-23.0512922952
51.6025079531
51.2491328008
52.0068002129
-23.0633590375
-23.058365026
-23.049833403
-23.0321284401
51.8718165475
52.2956913982
52.3868832459
-23.0289545396
-22.9749853463
-22.9918532705
-22.9197028043
53.7609559492
53.1263178011
53.9886574409
-22.9347692166
-22.8548993084
-22.9008339063
-22.7963230887
56.6731465223
55.7721393276
57.2519874404
-22.8097613042
-22.7974895448
-22.8090028977
-22.8249586076
58.6435463043
58.0420656405
59.5442000217
-22.7297810109
-22.7345124596
-22.7421613222
-22.7583531595
60.0076105151
60.3111117567
60.675861462
-22.7629010193
-22.7856941927
-22.7726426313
-22.7910002276
62.0243081991
60.2330896104
62.0924120903
-22.8751618964
-22.7933226017
-22.8864933686
-22.8003361021
51.079719421
48.9804487493
-23.0359292904
-23.0169131454
-22.9499350451
-22.9355435178
51.9972021221
49.7751237576
50.9688838148
-22.9729880945
-22.909771685
-22.9042285564
-22.8395931748
53.9941216581
52.0365363086
53.1749551685
-22.8460815784
-22.8271398859
-22.8251239389
-22.8670125336
56.6676506183
54.5832424653
56.2256181471
-22.8146970442
-22.8013003351
-22.833713742
-22.8280548802
59.6367889389
57.3717556287
58.6049340321
-22.774556095
-22.7735719069
-22.8011845848
-22.8015647121
60.8205227916
59.3394131386
60.5165405078
-22.789592729
-22.8120814517
-22.8276479174
-22.8449436641
62.3175410068
60.607490284
62.805559279
-22.9027607403
-22.8104711892
-22.9273048483
-22.8494690867
54.622410857
-22.8452545386
56.8362119907
-22.8343638018
-22.8565942176
-22.8647866002
-22.9006175493
60.0934877668
-22.8836989589
-22.8923803258
-22.925938718
-22.9255236913
63.3209851232
-22.9810892846
-22.8917554135
-23.0051482841
-22.9193777252
1757.53106671
1758.31652804
617.078079688
620.941299206
1758.47857078
617.39967476
1756.94716394
1758.36165513
1761.2843893
621.556222968
619.84420549
1759.36785063
1759.85744266
618.701127977
1767.01928131
1761.64092899
629.413435464
624.972742502
1761.98279307
629.709165704
1766.61358453
1772.33766592
1777.43848955
634.828403543
639.58732278
1777.47467011
634.914967695
1772.08312455
1767.96204333
1764.67648429
625.527162577
631.104074179
1762.86958734
1769.39543283
630.196597207
1773.18218545
1778.99148201
639.810231623
636.034818552
1778.0284806
1774.32485616
635.450286962
1786.6627737
1782.26060784
648.275651453
644.111166428
1782.2135145
647.92143747
1786.72738342
1789.79631854
1792.08119637
650.797918566
651.721249441
1792.02897939
650.532617065
1789.86636641
1786.77058925
1783.23729545
643.795982346
647.405535017
1782.49029975
1787.15885499
647.441457738
1789.83900445
1792.19646572
651.44633908
649.924413126
1792.05012048
1789.99716525
650.178903078
1794.79403946
1793.79972499
652.794264637
652.449396864
1793.70222466
652.634683369
1795.00361508
1795.42371535
1795.98599599
652.417034458
651.633956294
1795.67113157
652.247677731
1795.73143868
1794.66612879
1793.83160784
652.199129551
652.354976518
1793.70074268
1794.64122567
652.40138368
1795.2206874
1795.41124021
651.525331981
652.040218328
1795.44857374
1795.16020733
652.089535714
1796.46885339
1796.34761501
651.962286452
651.667043993
1796.04996126
651.994045305
1796.72649464
1796.84981976
1797.60210882
652.275396869
653.383927249
1797.34831585
652.363161018
1797.10873791
1796.26455103
1795.77923313
651.600954745
652.05543332
1795.81980204
1796.27512329
651.980802204
1796.67568281
1797.43749246
653.497703233
652.577419066
1797.24866337
1796.80356602
652.41423326
1798.4633804
1798.26122836
656.130208173
655.013373808
1798.03540205
656.263179574
1798.6369446
1798.40604047
1798.11761721
656.918862201
657.568860325
1797.52039563
657.196774274
1798.73513161
1798.34054229
1798.07901809
655.1628244
656.39387288
1797.93866985
1798.22969072
656.38926231
1798.03527266
1795.77568785
657.673718162
657.333713368
1796.75102909
1797.57024864
657.441393985
1793.94729972
1796.776431
656.942874501
657.333074083
1795.88856542
656.869471879
1795.13436002
1792.15397095
1793.00693627
656.601052463
656.127272103
1790.8669966
656.218408707
1793.77689873
1792.31411452
1793.20371999
657.114521683
655.350835873
1794.69150915
1790.37391927
656.313968941
1790.11755216
1785.94183676
654.995881641
654.103241816
1788.41998014
1787.88411106
655.286535026
1788.38626128
1792.64273019
658.127774314
656.39593503
1789.88454299
656.645978606
1791.88249653
1785.56642325
1784.56480861
658.060824405
655.366895575
1780.94573399
656.202985987
1789.38979666
1785.29757777
1784.56909544
655.109570811
653.889389398
1787.13194268
1782.88838249
655.150357092
1782.46562575
1776.88563967
653.618563389
653.668399453
1778.04678188
1780.48136127
654.635118762
1766.47183044
1777.11175041
659.280326537
655.055071492
1774.25768319
656.485446156
1767.72192354
1756.43082051
1761.29831629
662.996814118
621.49061661
658.66873346
1767.51033722
1755.53309051
1766.23581464
1772.28109816
653.173643456
655.281829736
1772.26930572
1767.72519067
655.157689903
1757.57004421
1782.62742599
629.323875653
660.547800818
1760.27941975
659.873637787
1775.9626958
1797.5726181
1811.62812942
640.149263285
644.5528877
1798.74079093
638.793637428
1809.45644696
1785.96756116
1774.54753617
632.618123084
627.903398358
1785.76696436
1775.96033687
632.341777697
1795.94196649
1803.89824047
642.305495717
635.462173599
1793.83831152
637.259411592
1806.82938408
1785.60752051
1776.66686589
627.920773992
630.818237685
1776.64316475
1784.62820276
631.751192362
1765.3271011
1766.96868966
622.199487727
624.982361036
1763.0461728
1768.94884823
623.466579286
1764.51403971
1764.37710886
621.132935305
624.877691705
1762.02117276
1766.75516274
622.836393549
1767.50554118
1771.48903228
625.480818472
625.039275538
1770.47285766
1769.49401446
624.490140432
1766.97327272
1771.31648956
626.84730822
625.621948176
1768.97096312
1769.4371117
624.308223914
1772.56700817
1767.56517865
632.088715319
628.604743002
1771.00939146
1769.84503675
633.294525339
1776.71092332
1779.84545207
636.903015714
641.927496886
1775.41674535
1780.95117092
638.031567199
1774.21822283
1773.4358032
630.545293811
636.158493998
1771.57981974
1775.96915673
634.800510353
1778.04377309
1783.40124673
642.95813134
640.290287463
1782.08091471
1779.65216915
639.118906975
1787.88233881
1783.85150781
647.512178241
645.28248631
1787.37248488
1784.6306127
648.024064848
1790.37755581
1792.03539838
649.718344488
651.201621645
1789.96690368
1792.46012837
649.933240255
1788.38999339
1786.4826742
646.278128851
649.273212264
1785.49823281
1789.13865734
648.622109854
1790.78005975
1793.41517
651.401920948
650.693627712
1792.85637577
1791.41870647
650.184774725
1794.7871079
1793.57408742
652.306218076
652.232452221
1794.36963755
1793.96057471
652.582145372
1795.33868882
1795.39647124
652.131307356
652.305443701
1794.94167772
1795.76540494
652.423360804
1795.17404162
1794.80394409
652.371541041
653.212291887
1794.3472853
1795.57678214
652.730820642
1795.66973462
1796.59771465
652.999117727
653.360754842
1796.11791978
1796.06425138
652.853304464
1796.66459709
1795.79266019
652.209432791
652.306194453
1796.2738224
1796.17203092
652.549833261
1797.20363599
1797.63458164
652.695574199
654.063872818
1796.85826871
1797.79675353
653.000808917
1797.05182068
1797.17491646
653.211988009
653.681837941
1796.58474766
1797.26742207
653.241916832
1797.25216715
1796.19384525
654.321905987
653.991670892
1797.22578401
1796.92318144
653.659760868
1797.15153827
1798.03145236
656.435054672
655.399560738
1797.80716594
1797.8601413
656.212348607
1795.29166825
1794.27125506
656.992773916
655.662594736
1796.58796837
1792.51178402
656.473057822
1795.36281076
1794.97479085
655.209723487
654.487597272
1796.65172725
1793.15992472
655.458525752
1793.2645372
1788.262641
654.290474448
653.7750032
1790.46000985
1790.85942985
655.106983909
1786.34395056
1791.39123281
654.179281628
654.121431901
1788.27145723
1789.41739459
652.980117173
1783.98457198
1783.73058758
652.967385507
651.704009315
1785.67322489
1782.44489851
652.018403265
1784.93514542
1785.91410234
652.871823704
651.597310101
1787.53704005
1783.95566506
652.079399321
1783.05673106
1782.2637376
651.291227305
651.342097135
1782.03386691
1782.74226739
651.469488425
1780.44714046
1782.38613891
652.906769061
651.996890836
1780.89266641
1781.40790282
652.412582243
1779.10732875
1776.3366452
652.949283749
652.936140851
1778.82832218
1777.52200689
652.867110678
1780.96388989
1782.05724575
651.760114874
652.807319533
1781.39824816
1782.01875739
652.363236814
1780.17778418
1781.097386
653.453829433
653.643978525
1779.2145422
1781.66899874
653.075788512
1773.27072077
1773.67060977
656.625666526
653.541932191
1770.69752335
1775.73194107
657.920424346
1767.51376264
1787.7147316
663.063384653
638.713916101
1764.83401451
664.690331553
1790.44402715
1775.82479975
1779.92434181
654.487323395
659.688915241
1777.96624066
1777.70451823
658.925101731
1770.32315526
1793.45233153
640.469258181
665.264480837
1771.75513853
665.162273185
1792.26832311
1788.77111346
1800.81325062
633.530017413
635.269152437
1791.42038768
631.324548123
1797.5662219
1781.481706
1776.369981
629.575742182
625.869780214
1783.16680271
1776.09751374
627.918330972
1786.7011837
1792.88933571
633.091015331
628.009642993
1785.30510179
629.44241207
1794.86565727
1780.28624695
1776.64717199
624.745975484
625.290821574
1776.27547317
1779.70247029
626.373471137
1773.20936485
1772.40413109
625.312834327
624.666426254
1771.37895274
1773.5153946
625.682828374
1774.02882302
1773.1330773
627.186157488
631.897418871
1771.8944274
1775.14785981
628.398516449
1774.68892061
1775.37193247
624.102603425
626.856539907
1774.5471921
1775.63275524
626.272802168
1775.12443624
1778.55792548
633.259667614
630.488810247
1777.01652546
1776.54234166
629.713825301
1780.04438826
1775.03849244
637.79019225
635.707595041
1777.90979665
1777.18597932
639.336418694
1783.26163222
1784.77334811
641.678303302
646.401021941
1781.36966636
1786.38290454
643.149404182
1782.21190893
1781.16379713
637.232998538
642.594276695
1779.30675842
1784.20167678
641.083228936
1785.23816713
1789.56977128
648.029489514
646.653876986
1788.01213434
1787.05817209
645.022773866
1791.05203575
1787.58377855
649.8391477
648.974006488
1790.03103867
1788.89004236
650.642166071
1792.83828925
1793.8850216
651.242991714
652.876216285
1792.1059734
1794.24780533
651.919979473
1792.02408143
1791.4562006