/*--------------------------------*- C++ -*----------------------------------*\
| =========                 |                                                 |
| \\      /  F ield         | OpenFOAM: The Open Source CFD Toolbox           |
|  \\    /   O peration     | Version:  v1906                                 |
|   \\  /    A nd           | Web:      www.OpenFOAM.com                      |
|    \\/     M anipulation  |                                                 |
\*---------------------------------------------------------------------------*/
FoamFile
{
    version     2.0;
    format      ascii;
    class       volVectorField;
    location    "8.8";
    object      force.turbine;
}
// * * * * * * * * * * * * * * * * * * * * * * * * * * * * * * * * * * * * * //

dimensions      [1 -2 -2 0 0 0 0];


internalField   nonuniform List<vector> 
28582
(
(0 0 0)
(0 0 0)
(0 0 0)
(0 0 0)
(0 0 0)
(0 0 0)
(0 0 0)
(0 0 0)
(0 0 0)
(0 0 0)
(0 0 0)
(0 0 0)
(0 0 0)
(0 0 0)
(0 0 0)
(0 0 0)
(0 0 0)
(0 0 0)
(0 0 0)
(0 0 0)
(0 0 0)
(0 0 0)
(0 0 0)
(0 0 0)
(0 0 0)
(0 0 0)
(0 0 0)
(0 0 0)
(0 0 0)
(0 0 0)
(0 0 0)
(0 0 0)
(0 0 0)
(0 0 0)
(0 0 0)
(0 0 0)
(0 0 0)
(0 0 0)
(0 0 0)
(0 0 0)
(0 0 0)
(0 0 0)
(0 0 0)
(0 0 0)
(0 0 0)
(0 0 0)
(0 0 0)
(0 0 0)
(0 0 0)
(0 0 0)
(0 0 0)
(0 0 0)
(0 0 0)
(0 0 0)
(0 0 0)
(0 0 0)
(0 0 0)
(0 0 0)
(0 0 0)
(0 0 0)
(0 0 0)
(0 0 0)
(0 0 0)
(0 0 0)
(0 0 0)
(0 0 0)
(0 0 0)
(0 0 0)
(0 0 0)
(0 0 0)
(0 0 0)
(0 0 0)
(0 0 0)
(0 0 0)
(0 0 0)
(0 0 0)
(0 0 0)
(0 0 0)
(0 0 0)
(0 0 0)
(0 0 0)
(0 0 0)
(0 0 0)
(0 0 0)
(0 0 0)
(0 0 0)
(0 0 0)
(0 0 0)
(0 0 0)
(0 0 0)
(0 0 0)
(0 0 0)
(0 0 0)
(0 0 0)
(0 0 0)
(0 0 0)
(0 0 0)
(0 0 0)
(0 0 0)
(0 0 0)
(0 0 0)
(0 0 0)
(0 0 0)
(0 0 0)
(0 0 0)
(0 0 0)
(0 0 0)
(0 0 0)
(0 0 0)
(0 0 0)
(0 0 0)
(0 0 0)
(0 0 0)
(0 0 0)
(0 0 0)
(0 0 0)
(0 0 0)
(0 0 0)
(0 0 0)
(0 0 0)
(0 0 0)
(0 0 0)
(0 0 0)
(0 0 0)
(0 0 0)
(0 0 0)
(0 0 0)
(0 0 0)
(0 0 0)
(0 0 0)
(0 0 0)
(0 0 0)
(0 0 0)
(0 0 0)
(0 0 0)
(0 0 0)
(0 0 0)
(0 0 0)
(0 0 0)
(0 0 0)
(0 0 0)
(0 0 0)
(0 0 0)
(0 0 0)
(0 0 0)
(0 0 0)
(0 0 0)
(0 0 0)
(0 0 0)
(0 0 0)
(0 0 0)
(0 0 0)
(0 0 0)
(0 0 0)
(0 0 0)
(0 0 0)
(0 0 0)
(0 0 0)
(0 0 0)
(0 0 0)
(0 0 0)
(0 0 0)
(0 0 0)
(0 0 0)
(0 0 0)
(0 0 0)
(0 0 0)
(0 0 0)
(0 0 0)
(0 0 0)
(0 0 0)
(0 0 0)
(0 0 0)
(0 0 0)
(0 0 0)
(0 0 0)
(0 0 0)
(0 0 0)
(0 0 0)
(0 0 0)
(0 0 0)
(0 0 0)
(0 0 0)
(0 0 0)
(0 0 0)
(0 0 0)
(0 0 0)
(0 0 0)
(0 0 0)
(0 0 0)
(0 0 0)
(0 0 0)
(0 0 0)
(0 0 0)
(0 0 0)
(0 0 0)
(0 0 0)
(0 0 0)
(0 0 0)
(0 0 0)
(0 0 0)
(0 0 0)
(0 0 0)
(0 0 0)
(0 0 0)
(0 0 0)
(0 0 0)
(0 0 0)
(0 0 0)
(0 0 0)
(0 0 0)
(0 0 0)
(0 0 0)
(0 0 0)
(0 0 0)
(0 0 0)
(0 0 0)
(-0.001917069972 2.99377111709e-05 0)
(0 0 0)
(0 0 0)
(0 0 0)
(0 0 0)
(-2.26052571198e-05 1.20582742765e-07 0)
(0 0 0)
(-2.18393557605e-06 5.68765767287e-09 0)
(0 0 0)
(0 0 0)
(0 0 0)
(0 0 0)
(0 0 0)
(0 0 0)
(0 0 0)
(0 0 0)
(0 0 0)
(0 0 0)
(0 0 0)
(0 0 0)
(-0.0157866072612 0.00044572282594 0)
(0 0 0)
(0 0 0)
(0 0 0)
(-0.0286855074832 0.000565980236459 0)
(0 0 0)
(0 0 0)
(-0.0525838240669 -0.000405773608088 0.00482371750345)
(-0.665395066714 -0.0257461637278 0.119360801625)
(-0.0779380839867 0.00153775962408 0)
(-0.749641830514 0.0147895991705 0)
(-0.0056744303892 4.43456114272e-05 0)
(-0.0773136292289 0.00152543880139 0)
(0 0 0)
(0 0 0)
(0 0 0)
(0 0 0)
(0 0 0)
(-0.0157865321056 0.000445720703978 0)
(0 0 0)
(0 0 0)
(0 0 0)
(-0.0284275738913 0.000560891070253 0)
(0 0 0)
(0 0 0)
(0 0 0)
(0 0 0)
(0 0 0)
(0 0 0)
(0 0 0)
(0 0 0)
(-1.33952644175e-05 8.58994818664e-08 0)
(0 0 0)
(-8.13332597713e-06 5.21563789642e-08 0)
(-0.000115236330899 1.3174708624e-06 0)
(-0.000593681729307 6.78742870234e-06 0)
(-6.99993338346e-05 8.00286524176e-07 0)
(-0.000345758547563 3.95297913673e-06 0)
(0 0 0)
(0 0 0)
(-0.00018897750024 1.36199503522e-06 0)
(0 0 0)
(0 0 0)
(0 0 0)
(0 0 0)
(0 0 0)
(0 0 0)
(-0.00933796214161 0.000145825252914 0)
(-0.000399290711877 5.01883039043e-06 0)
(-0.00210376688163 3.28532428096e-05 0)
(-2.49923331032e-05 2.47978722788e-07 0)
(-0.000123359639163 1.4103428053e-06 0)
(-3.04829038995e-06 7.93871047095e-09 0)
(-2.78110815674e-05 2.75946885709e-07 0)
(0 0 0)
(0 0 0)
(0 0 0)
(0 0 0)
(0 0 0)
(-0.000224023407953 1.61457723283e-06 0)
(0 0 0)
(0 0 0)
(0 0 0)
(0 0 0)
(0 0 0)
(0 0 0)
(0 0 0)
(0 0 0)
(0 0 0)
(0 0 0)
(0 0 0)
(0 0 0)
(0 0 0)
(0 0 0)
(0 0 0)
(0 0 0)
(0 0 0)
(0 0 0)
(0 0 0)
(0 0 0)
(-0.00490341656837 4.02839276588e-05 0)
(0 0 0)
(0 0 0)
(0 0 0)
(0 0 0)
(0 0 0)
(-0.00443593990335 3.46668218264e-05 0)
(0 0 0)
(0 0 0)
(0 0 0)
(0 0 0)
(0 0 0)
(0 0 0)
(0 0 0)
(0 0 0)
(0 0 0)
(0 0 0)
(0 0 0)
(0 0 0)
(0 0 0)
(0 0 0)
(0 0 0)
(0 0 0)
(0 0 0)
(0 0 0)
(0 0 0)
(0 0 0)
(0 0 0)
(0 0 0)
(-0.0351203280357 0.000805019018492 0)
(-0.00841969337568 0.000125426465012 0)
(-0.0138670102813 0.000206574040438 0)
(-0.00991309325208 0.000164281312373 0)
(-0.0187984389617 0.000430892925223 0)
(0 0 0)
(0 0 0)
(0 0 0)
(0 0 0)
(0 0 0)
(0 0 0)
(0 0 0)
(0 0 0)
(0 0 0)
(0 0 0)
(-0.00501092089245 3.91602919673e-05 0)
(0 0 0)
(-0.00772005196255 0.000127937893425 0)
(0 0 0)
(0 0 0)
(-0.126463622777 0.00288597361229 0)
(-0.0984927440542 0.00224766185011 0)
(-0.189956110297 0.00374762268717 0)
(-0.0416834448241 0.000822436415734 0)
(-0.236264241541 0.00539168775687 0)
(-0.0510986779311 0.00117127059612 0)
(-0.0999419347812 0.00197190723967 0)
(-0.267712840307 0.00610936311826 0)
(-1.04783687213 0.0152186606597 0.0249334091426)
(-0.401782547478 0.00792672258808 0)
(-0.400475789308 0.00790094170345 0)
(-0.520407553107 0.0104331845456 0.00400552380734)
(-0.21495571655 0.00424083710085 0)
(-0.545013358285 0.00914625428966 0.00926041351154)
(-0.0597357050685 0.00136320362135 0)
(-0.00874752745765 0.000144965376015 0)
(-0.0196740791471 0.000388179988599 0)
(-0.019661067376 0.000387923259473 0)
(-0.0241367056406 0.000553255284651 0)
(-0.0241358256288 0.000553235113249 0)
(-0.0471759329614 0.000930806112053 0)
(-0.126458134414 0.00288584836464 0)
(-0.0984808988844 0.00224739153643 0)
(-0.188823877896 0.00372528500176 0)
(-0.0415353269858 0.000819513972435 0)
(-0.0510944670065 0.0011711740744 0)
(-0.0997177936003 0.00196748481561 0)
(-0.236244496869 0.00539123717194 0)
(0 0 0)
(0 0 0)
(0 0 0)
(0 0 0)
(0 0 0)
(0 0 0)
(0 0 0)
(0 0 0)
(0 0 0)
(0 0 0)
(0 0 0)
(0 0 0)
(0 0 0)
(0 0 0)
(0 0 0)
(0 0 0)
(0 0 0)
(0 0 0)
(0 0 0)
(0 0 0)
(0 0 0)
(0 0 0)
(0 0 0)
(-0.00500514109097 3.91151228819e-05 0)
(0 0 0)
(-0.00771952291342 0.000127929125941 0)
(0 0 0)
(0 0 0)
(0 0 0)
(-0.0351152737144 0.000804903164654 0)
(-0.0138061885556 0.000205667991524 0)
(-0.00834309294768 0.000124285363968 0)
(-0.0187962861197 0.00043084357834 0)
(0 0 0)
(-0.00991158596805 0.000164256333429 0)
(0 0 0)
(0 0 0)
(0 0 0)
(0 0 0)
(0 0 0)
(0 0 0)
(0 0 0)
(0 0 0)
(0 0 0)
(0 0 0)
(0 0 0)
(0 0 0)
(0 0 0)
(0 0 0)
(0 0 0)
(0 0 0)
(0 0 0)
(0 0 0)
(0 0 0)
(0 0 0)
(0 0 0)
(0 0 0)
(0 0 0)
(0 0 0)
(0 0 0)
(0 0 0)
(0 0 0)
(0 0 0)
(0 0 0)
(0 0 0)
(0 0 0)
(0 0 0)
(0 0 0)
(0 0 0)
(0 0 0)
(0 0 0)
(-0.0151359393544 0.000297129236487 0)
(0 0 0)
(0 0 0)
(0 0 0)
(0 0 0)
(0 0 0)
(0 0 0)
(0 0 0)
(-0.00337733128635 6.62994111554e-05 0)
(0 0 0)
(0 0 0)
(0 0 0)
(0 0 0)
(0 0 0)
(0 0 0)
(0 0 0)
(0 0 0)
(0 0 0)
(0 0 0)
(0 0 0)
(0 0 0)
(0 0 0)
(0 0 0)
(0 0 0)
(0 0 0)
(0 0 0)
(0 0 0)
(0 0 0)
(0 0 0)
(0 0 0)
(0 0 0)
(0 0 0)
(0 0 0)
(0 0 0)
(0 0 0)
(0 0 0)
(-0.324242242943 0.00867651128542 0)
(-0.00777076235342 0.000152545582467 0)
(0 0 0)
(0 0 0)
(0 0 0)
(0 0 0)
(0 0 0)
(0 0 0)
(-0.0712023441024 0.00192204445438 0)
(0 0 0)
(0 0 0)
(0 0 0)
(0 0 0)
(0 0 0)
(0 0 0)
(0 0 0)
(0 0 0)
(0 0 0)
(0 0 0)
(0 0 0)
(0 0 0)
(0 0 0)
(0 0 0)
(0 0 0)
(0 0 0)
(0 0 0)
(0 0 0)
(0 0 0)
(0 0 0)
(0 0 0)
(0 0 0)
(0 0 0)
(0 0 0)
(0 0 0)
(0 0 0)
(0 0 0)
(-1.52109715783 0.0517933355761 0)
(-0.0436325909465 0.0015166689475 0)
(0 0 0)
(0 0 0)
(0 0 0)
(0 0 0)
(0 0 0)
(0 0 0)
(-0.33369179226 0.0112360338769 0)
(-0.00661582881705 0.000249551546226 0)
(0 0 0)
(0 0 0)
(0 0 0)
(0 0 0)
(0 0 0)
(0 0 0)
(0 0 0)
(0 0 0)
(0 0 0)
(0 0 0)
(0 0 0)
(0 0 0)
(0 0 0)
(0 0 0)
(0 0 0)
(0 0 0)
(0 0 0)
(0 0 0)
(0 0 0)
(0 0 0)
(0 0 0)
(0 0 0)
(0 0 0)
(0 0 0)
(0 0 0)
(0 0 0)
(0 0 0)
(0 0 0)
(0 0 0)
(0 0 0)
(0 0 0)
(0 0 0)
(0 0 0)
(-2.52727799966 0.0697693373115 0)
(-0.0763174113811 0.00210685774106 0)
(0 0 0)
(0 0 0)
(0 0 0)
(0 0 0)
(0 0 0)
(0 0 0)
(-2.52732295561 0.0697705783886 0)
(-0.563922047294 0.0155679223023 0)
(-0.0157865481732 0.000445721157636 0)
(0 0 0)
(0 0 0)
(0 0 0)
(0 0 0)
(0 0 0)
(0 0 0)
(-0.0462895521483 0.00127789320299 0)
(-0.0763181751213 0.00210687882526 0)
(-0.0157863898835 0.000445716688445 0)
(0 0 0)
(0 0 0)
(0 0 0)
(0 0 0)
(0 0 0)
(0 0 0)
(0 0 0)
(0 0 0)
(0 0 0)
(0 0 0)
(0 0 0)
(0 0 0)
(0 0 0)
(0 0 0)
(0 0 0)
(0 0 0)
(0 0 0)
(0 0 0)
(0 0 0)
(0 0 0)
(0 0 0)
(0 0 0)
(0 0 0)
(0 0 0)
(0 0 0)
(0 0 0)
(-0.0619393637936 0.000968779365515 0)
(-0.00209107908544 3.26551052439e-05 0)
(0 0 0)
(0 0 0)
(0 0 0)
(0 0 0)
(0 0 0)
(0 0 0)
(-0.0288542799975 0.000451303167425 0)
(-0.0553064193915 0.000865035005293 0)
(-0.0134139217219 0.000209477024858 0)
(-0.00036267908207 2.61389376264e-06 0)
(0 0 0)
(0 0 0)
(0 0 0)
(0 0 0)
(0 0 0)
(0 0 0)
(-0.000832315031946 1.04616707889e-05 0)
(-0.0016884250564 2.63671031367e-05 0)
(-0.000331518330379 2.38931258741e-06 0)
(0 0 0)
(0 0 0)
(0 0 0)
(0 0 0)
(0 0 0)
(0 0 0)
(0 0 0)
(0 0 0)
(0 0 0)
(0 0 0)
(0 0 0)
(0 0 0)
(0 0 0)
(0 0 0)
(0 0 0)
(0 0 0)
(0 0 0)
(0 0 0)
(0 0 0)
(0 0 0)
(0 0 0)
(0 0 0)
(0 0 0)
(0 0 0)
(0 0 0)
(0 0 0)
(-0.000182849149959 1.28320452916e-06 0)
(-0.000177187439297 1.24347159759e-06 0)
(-2.26575253173e-05 1.208615559e-07 0)
(0 0 0)
(0 0 0)
(0 0 0)
(0 0 0)
(0 0 0)
(0 0 0)
(0 0 0)
(-2.36799933056e-05 1.26315685166e-07 0)
(-2.39069407851e-05 1.27526286284e-07 0)
(-2.35052707686e-06 6.12151453118e-09 0)
(0 0 0)
(0 0 0)
(0 0 0)
(0 0 0)
(0 0 0)
(0 0 0)
(0 0 0)
(0 0 0)
(0 0 0)
(0 0 0)
(0 0 0)
(0 0 0)
(0 0 0)
(0 0 0)
(0 0 0)
(0 0 0)
(0 0 0)
(0 0 0)
(0 0 0)
(0 0 0)
(0 0 0)
(0 0 0)
(0 0 0)
(0 0 0)
(0 0 0)
(0 0 0)
(0 0 0)
(0 0 0)
(0 0 0)
(0 0 0)
(0 0 0)
(0 0 0)
(0 0 0)
(0 0 0)
(0 0 0)
(0 0 0)
(-0.00337718062501 6.62964535663e-05 0)
(-0.00918052278522 0.000180220180715 0)
(-0.00204844962956 4.02125206877e-05 0)
(-0.0872654268511 0.00203838734374 0)
(-0.0178787158188 0.000350971885937 0)
(-0.0529337170709 0.00123645093857 0)
(-0.0108447653886 0.000212890444679 0)
(0 0 0)
(0 0 0)
(0 0 0)
(-0.00241982642328 4.75029108368e-05 0)
(0 0 0)
(0 0 0)
(0 0 0)
(0 0 0)
(0 0 0)
(0 0 0)
(-0.0178810953514 0.00035101859785 0)
(-0.00398979104649 7.83224311115e-05 0)
(-0.00398983086839 7.83232128436e-05 0)
(0 0 0)
(0 0 0)
(0 0 0)
(0 0 0)
(0 0 0)
(0 0 0)
(0 0 0)
(0 0 0)
(-0.0711928192321 0.00192178733891 0)
(-0.19667473092 0.00526288773138 0)
(-0.0431786646365 0.00116556995361 0)
(-0.807567808006 0.0248202800763 0)
(-0.178394238673 0.00553365495276 0)
(-0.48981725589 0.0150543413901 0)
(-0.108197739588 0.00335621240909 0)
(0 0 0)
(-0.00471301913521 9.25199120062e-05 0)
(0 0 0)
(-0.0229863605632 0.000734674127775 0)
(0 0 0)
(-0.0122823542922 0.000382494896542 0)
(0 0 0)
(-0.015034436801 0.000396442685599 0)
(-0.0150358383276 0.000396479642417 0)
(-0.00285882117982 5.61206896069e-05 0)
(-0.178414299431 0.00553427722234 0)
(-0.0378927193199 0.0012111008369 0)
(-0.0378999979749 0.00121133347223 0)
(-0.00745002311757 0.000232007297118 0)
(0 0 0)
(0 0 0)
(0 0 0)
(-0.00337683633911 6.62896949896e-05 0)
(0 0 0)
(0 0 0)
(0 0 0)
(-0.33365663554 0.0112348500836 0)
(-0.906965631877 0.030539248496 0)
(-0.202372835596 0.00681427619516 0)
(-2.22025374912 0.0730561654008 0)
(-0.489668074126 0.0159794812308 0)
(-1.33102628892 0.0434357695047 0)
(-0.297000927675 0.00969211798785 0)
(0 0 0)
(-0.0264641352778 0.000919893394542 0)
(0 0 0)
(-0.0662745524383 0.00216275681983 0)
(0 0 0)
(-0.0401973939127 0.00131177329194 0)
(0 0 0)
(-0.0744501985712 0.00250687902036 0)
(-0.0744597590102 0.00250720093843 0)
(-0.014140133088 0.000534365643787 0)
(-0.489697495721 0.0159804413543 0)
(-0.109265704562 0.00356569963916 0)
(-0.109269755414 0.00356583183179 0)
(-0.0243813797164 0.000795644682891 0)
(0 0 0)
(0 0 0)
(0 0 0)
(-0.0134940599696 0.000479201331509 0)
(0 0 0)
(0 0 0)
(0 0 0)
(-7.06095401445 0.200336427339 0)
(-4.192699208 0.116477708214 0)
(-3.92218575312 0.0773803605931 0)
(-1.85597493008 0.0366163201799 0)
(-0.563906161513 0.0155674837513 0)
(-1.53289329247 0.0423178412503 0)
(-0.342034185444 0.00944237177686 0)
(-2.36221171667 0.0466038086768 0)
(-0.246956788655 0.00487218264507 0)
(-1.12129563442 0.0221219151728 0)
(-0.117558853706 0.00231930537289 0)
(0 0 0)
(-0.0462896474993 0.0012778958353 0)
(0 0 0)
(-0.0893873928481 0.00176366054428 0)
(0 0 0)
(-0.0425110397362 0.000838765301124 0)
(0 0 0)
(0 0 0)
(0 0 0)
(0 0 0)
(0 0 0)
(0 0 0)
(0 0 0)
(0 0 0)
(0 0 0)
(0 0 0)
(0 0 0)
(0 0 0)
(0 0 0)
(0 0 0)
(0 0 0)
(0 0 0)
(0 0 0)
(0 0 0)
(0 0 0)
(0 0 0)
(0 0 0)
(0 0 0)
(0 0 0)
(0 0 0)
(0 0 0)
(0 0 0)
(0 0 0)
(0 0 0)
(0 0 0)
(0 0 0)
(0 0 0)
(0 0 0)
(0 0 0)
(0 0 0)
(0 0 0)
(0 0 0)
(0 0 0)
(0 0 0)
(0 0 0)
(0 0 0)
(0 0 0)
(0 0 0)
(0 0 0)
(-0.881601220282 -0.0197773287935 0.119360432108)
(-0.588427996571 0.014387031935 0.00482367723817)
(-1.22738733628 0.0242149863996 0)
(-2.49815115158 0.0492857424643 0)
(-0.128749968157 0.00254009360837 0)
(-0.263486486664 0.00519829519376 0)
(-1.53290050644 0.0423180404027 0)
(-0.563918760165 0.0155678315561 0)
(-0.34203284941 0.00944233489364 0)
(-2.46500281837 0.0486317627352 0)
(-1.12650752662 0.0222247400066 0)
(-0.259795900607 0.00512548403746 0)
(-0.118648629993 0.00234080544642 0)
(-0.125828211813 0.00347367838223 0)
(-0.125827206556 0.00347365063057 0)
(-0.0280758097936 0.00077507525648 0)
(-0.681371619621 0.0134427038756 0)
(-0.0702717619803 0.00138649903563 0)
(-0.0704834599774 0.0013906759491 0)
(-0.0051312142271 4.01003830619e-05 0)
(0 0 0)
(0 0 0)
(0 0 0)
(-0.025831641405 0.000509671949123 0)
(0 0 0)
(0 0 0)
(0 0 0)
(0 0 0)
(0 0 0)
(0 0 0)
(0 0 0)
(0 0 0)
(0 0 0)
(0 0 0)
(0 0 0)
(0 0 0)
(0 0 0)
(0 0 0)
(0 0 0)
(0 0 0)
(0 0 0)
(0 0 0)
(0 0 0)
(0 0 0)
(0 0 0)
(0 0 0)
(0 0 0)
(0 0 0)
(0 0 0)
(0 0 0)
(0 0 0)
(0 0 0)
(0 0 0)
(0 0 0)
(0 0 0)
(0 0 0)
(0 0 0)
(0 0 0)
(0 0 0)
(0 0 0)
(0 0 0)
(0 0 0)
(0 0 0)
(0 0 0)
(0 0 0)
(0 0 0)
(0 0 0)
(0 0 0)
(0 0 0)
(-0.0763183284371 0.00210688305778 0)
(0 0 0)
(0 0 0)
(-0.0465408841536 0.000918276263153 0)
(-0.0951068658772 0.00187650877258 0)
(0 0 0)
(0 0 0)
(-0.0462891381793 0.00127788177475 0)
(0 0 0)
(0 0 0)
(-0.0937650405542 0.00185003384917 0)
(-0.0428808084363 0.000846061033173 0)
(0 0 0)
(0 0 0)
(0 0 0)
(0 0 0)
(0 0 0)
(-0.0259079488019 0.000511177534428 0)
(0 0 0)
(0 0 0)
(0 0 0)
(0 0 0)
(0 0 0)
(0 0 0)
(0 0 0)
(0 0 0)
(0 0 0)
(0 0 0)
(0 0 0)
(0 0 0)
(0 0 0)
(0 0 0)
(0 0 0)
(0 0 0)
(0 0 0)
(0 0 0)
(0 0 0)
(0 0 0)
(0 0 0)
(0 0 0)
(0 0 0)
(0 0 0)
(0 0 0)
(0 0 0)
(0 0 0)
(0 0 0)
(0 0 0)
(0 0 0)
(0 0 0)
(0 0 0)
(0 0 0)
(0 0 0)
(0 0 0)
(0 0 0)
(0 0 0)
(0 0 0)
(0 0 0)
(0 0 0)
(0 0 0)
(0 0 0)
(0 0 0)
(0 0 0)
(0 0 0)
(0 0 0)
(0 0 0)
(0 0 0)
(0 0 0)
(0 0 0)
(0 0 0)
(0 0 0)
(0 0 0)
(0 0 0)
(0 0 0)
(0 0 0)
(0 0 0)
(0 0 0)
(0 0 0)
(0 0 0)
(0 0 0)
(0 0 0)
(0 0 0)
(0 0 0)
(0 0 0)
(0 0 0)
(0 0 0)
(0 0 0)
(0 0 0)
(0 0 0)
(0 0 0)
(0 0 0)
(0 0 0)
(0 0 0)
(0 0 0)
(0 0 0)
(0 0 0)
(0 0 0)
(0 0 0)
(0 0 0)
(0 0 0)
(0 0 0)
(0 0 0)
(0 0 0)
(0 0 0)
(0 0 0)
(0 0 0)
(0 0 0)
(0 0 0)
(0 0 0)
(0 0 0)
(0 0 0)
(0 0 0)
(0 0 0)
(0 0 0)
(0 0 0)
(0 0 0)
(0 0 0)
(0 0 0)
(0 0 0)
(0 0 0)
(0 0 0)
(0 0 0)
(0 0 0)
(0 0 0)
(0 0 0)
(0 0 0)
(0 0 0)
(0 0 0)
(0 0 0)
(0 0 0)
(0 0 0)
(0 0 0)
(0 0 0)
(0 0 0)
(0 0 0)
(0 0 0)
(0 0 0)
(0 0 0)
(0 0 0)
(0 0 0)
(0 0 0)
(0 0 0)
(0 0 0)
(0 0 0)
(0 0 0)
(0 0 0)
(0 0 0)
(0 0 0)
(0 0 0)
(0 0 0)
(0 0 0)
(0 0 0)
(0 0 0)
(0 0 0)
(0 0 0)
(0 0 0)
(0 0 0)
(0 0 0)
(0 0 0)
(0 0 0)
(0 0 0)
(0 0 0)
(0 0 0)
(0 0 0)
(0 0 0)
(0 0 0)
(0 0 0)
(0 0 0)
(0 0 0)
(0 0 0)
(0 0 0)
(0 0 0)
(0 0 0)
(0 0 0)
(0 0 0)
(0 0 0)
(0 0 0)
(0 0 0)
(0 0 0)
(0 0 0)
(0 0 0)
(0 0 0)
(0 0 0)
(0 0 0)
(0 0 0)
(0 0 0)
(0 0 0)
(0 0 0)
(0 0 0)
(0 0 0)
(0 0 0)
(0 0 0)
(-0.00226169313777 2.58848413288e-05 0)
(-0.00421096425396 4.81940453084e-05 0)
(-0.00132847779276 1.51881856151e-05 0)
(-0.00261403367953 2.99173419652e-05 0)
(-0.162357882545 0.00253940235748 0)
(-0.0970242368811 0.00151753380869 0)
(-0.00373642125196 4.27629503002e-05 0)
(-0.00216337454294 2.47595952977e-05 0)
(-0.00225657829954 2.58263025405e-05 0)
(-0.00134310314092 1.5355393907e-05 0)
(-0.0142647760018 0.000222764296608 0)
(-0.0371308026812 0.000580754358124 0)
(-0.00859398795674 0.000134207062347 0)
(-0.000815110166763 9.31896985935e-06 0)
(-0.000182720704229 2.08900441292e-06 0)
(-0.000517856167818 5.92053223742e-06 0)
(-0.000112945117668 1.29127594063e-06 0)
(0 0 0)
(-0.00118681912488 1.49175618533e-05 0)
(0 0 0)
(-1.88849064728e-05 1.21102774126e-07 0)
(0 0 0)
(-1.09381679343e-05 7.01429198291e-08 0)
(0 0 0)
(0 0 0)
(0 0 0)
(0 0 0)
(0 0 0)
(0 0 0)
(0 0 0)
(0 0 0)
(0 0 0)
(0 0 0)
(0 0 0)
(0 0 0)
(0 0 0)
(0 0 0)
(0 0 0)
(0 0 0)
(0 0 0)
(0 0 0)
(0 0 0)
(0 0 0)
(0 0 0)
(0 0 0)
(0 0 0)
(0 0 0)
(0 0 0)
(0 0 0)
(0 0 0)
(0 0 0)
(0 0 0)
(0 0 0)
(0 0 0)
(0 0 0)
(0 0 0)
(0 0 0)
(0 0 0)
(0 0 0)
(0 0 0)
(0 0 0)
(0 0 0)
(0 0 0)
(0 0 0)
(0 0 0)
(0 0 0)
(-0.0521323028063 0.000815389376678 0)
(-0.0064297098389 0.00010040885251 0)
(-0.0115546434609 0.00018044181155 0)
(-0.000454211813766 5.19290075728e-06 0)
(-0.00100996754128 1.15467300739e-05 0)
(-9.64485186692e-05 1.10267406187e-06 0)
(-0.000219967160359 2.51483470703e-06 0)
(-0.0351189164446 0.000549286907502 0)
(-0.012281316542 0.000191789821344 0)
(-0.00785399420393 0.000122651031756 0)
(-0.000950968860149 1.08722115197e-05 0)
(-0.000612476144837 7.0023009969e-06 0)
(-0.000212439736319 2.42877537345e-06 0)
(-0.000135067454325 1.54419560344e-06 0)
(-0.00318443416658 4.97293639325e-05 0)
(-0.00305000616904 4.7630083978e-05 0)
(-0.00068725845614 8.63840185397e-06 0)
(-0.000256666395229 2.93440874446e-06 0)
(-4.90493897978e-05 4.86677453655e-07 0)
(-4.97616851707e-05 4.93744984969e-07 0)
(-5.22062890999e-06 1.3596165749e-08 0)
(0 0 0)
(0 0 0)
(0 0 0)
(0 0 0)
(0 0 0)
(0 0 0)
(0 0 0)
(0 0 0)
(0 0 0)
(0 0 0)
(0 0 0)
(0 0 0)
(0 0 0)
(0 0 0)
(0 0 0)
(0 0 0)
(0 0 0)
(0 0 0)
(0 0 0)
(0 0 0)
(0 0 0)
(0 0 0)
(0 0 0)
(0 0 0)
(0 0 0)
(0 0 0)
(0 0 0)
(0 0 0)
(0 0 0)
(0 0 0)
(0 0 0)
(0 0 0)
(0 0 0)
(0 0 0)
(0 0 0)
(0 0 0)
(0 0 0)
(0 0 0)
(0 0 0)
(0 0 0)
(0 0 0)
(0 0 0)
(0 0 0)
(0 0 0)
(0 0 0)
(0 0 0)
(0 0 0)
(0 0 0)
(0 0 0)
(-0.00158500619042 2.47520738553e-05 0)
(0 0 0)
(0 0 0)
(-1.10475976878e-05 7.0844657311e-08 0)
(-2.41334555181e-05 1.54760015184e-07 0)
(0 0 0)
(0 0 0)
(-0.00102107644645 1.283428176e-05 0)
(0 0 0)
(0 0 0)
(-2.20802933537e-05 1.41593752794e-07 0)
(-1.353672497e-05 8.68066224637e-08 0)
(0 0 0)
(0 0 0)
(0 0 0)
(0 0 0)
(0 0 0)
(0 0 0)
(0 0 0)
(0 0 0)
(0 0 0)
(0 0 0)
(0 0 0)
(0 0 0)
(0 0 0)
(0 0 0)
(0 0 0)
(0 0 0)
(0 0 0)
(0 0 0)
(0 0 0)
(0 0 0)
(0 0 0)
(0 0 0)
(0 0 0)
(0 0 0)
(0 0 0)
(0 0 0)
(0 0 0)
(0 0 0)
(0 0 0)
(0 0 0)
(0 0 0)
(0 0 0)
(0 0 0)
(0 0 0)
(0 0 0)
(0 0 0)
(0 0 0)
(0 0 0)
(0 0 0)
(0 0 0)
(0 0 0)
(0 0 0)
(0 0 0)
(0 0 0)
(0 0 0)
(0 0 0)
(0 0 0)
(0 0 0)
(0 0 0)
(0 0 0)
(0 0 0)
(0 0 0)
(0 0 0)
(0 0 0)
(0 0 0)
(0 0 0)
(0 0 0)
(0 0 0)
(0 0 0)
(0 0 0)
(0 0 0)
(0 0 0)
(0 0 0)
(0 0 0)
(0 0 0)
(0 0 0)
(0 0 0)
(0 0 0)
(0 0 0)
(0 0 0)
(0 0 0)
(0 0 0)
(0 0 0)
(0 0 0)
(0 0 0)
(0 0 0)
(0 0 0)
(0 0 0)
(0 0 0)
(0 0 0)
(0 0 0)
(0 0 0)
(0 0 0)
(0 0 0)
(0 0 0)
(0 0 0)
(0 0 0)
(0 0 0)
(0 0 0)
(0 0 0)
(0 0 0)
(0 0 0)
(0 0 0)
(0 0 0)
(0 0 0)
(0 0 0)
(0 0 0)
(0 0 0)
(0 0 0)
(0 0 0)
(0 0 0)
(0 0 0)
(0 0 0)
(0 0 0)
(0 0 0)
(0 0 0)
(0 0 0)
(0 0 0)
(0 0 0)
(0 0 0)
(0 0 0)
(0 0 0)
(0 0 0)
(0 0 0)
(0 0 0)
(0 0 0)
(0 0 0)
(0 0 0)
(0 0 0)
(0 0 0)
(0 0 0)
(0 0 0)
(0 0 0)
(0 0 0)
(0 0 0)
(0 0 0)
(0 0 0)
(0 0 0)
(0 0 0)
(0 0 0)
(0 0 0)
(0 0 0)
(0 0 0)
(0 0 0)
(0 0 0)
(0 0 0)
(0 0 0)
(0 0 0)
(0 0 0)
(0 0 0)
(0 0 0)
(0 0 0)
(0 0 0)
(0 0 0)
(0 0 0)
(0 0 0)
(0 0 0)
(0 0 0)
(0 0 0)
(0 0 0)
(0 0 0)
(0 0 0)
(0 0 0)
(0 0 0)
(0 0 0)
(0 0 0)
(0 0 0)
(0 0 0)
(0 0 0)
(0 0 0)
(0 0 0)
(0 0 0)
(0 0 0)
(0 0 0)
(0 0 0)
(0 0 0)
(0 0 0)
(0 0 0)
(0 0 0)
(0 0 0)
(0 0 0)
(0 0 0)
(0 0 0)
(0 0 0)
(0 0 0)
(0 0 0)
(0 0 0)
(0 0 0)
(0 0 0)
(0 0 0)
(0 0 0)
(0 0 0)
(0 0 0)
(0 0 0)
(-6.91403037992 0.158333949959 0)
(-5.37061099522 0.122560474496 0)
(-5.75402973238 0.113520603965 0)
(-3.46180908 0.0682976411054 0)
(-4.73965787205 0.108161756319 0)
(-5.07342699197 0.10009306922 0)
(-7.84316469435 0.179895260242 0)
(-5.37126829747 0.122575474517 0)
(-2.53671794603 0.0578893826803 0)
(-2.69725572578 0.0532138541646 0)
(-2.71931365613 0.053649032586 0)
(-3.69095015893 0.0842296348076 0)
(-3.69141868431 0.0842403268299 0)
(-3.95368994823 0.0780019033071 0)
(-1.53846141275 0.0351085865106 0)
(-3.25697486751 0.0743260656079 0)
(-1.25700866529 0.0247993822606 0)
(-2.08791354722 0.0411922110121 0)
(-2.87434415506 0.065594209639 0)
(-1.11172836786 0.0219331636495 0)
(-1.7431778246 0.0397803343986 0)
(-0.726695106612 0.0165836060664 0)
(-0.343289366503 0.00783406351449 0)
(-0.593074325563 0.0117006965145 0)
(-0.218404959307 0.00430888682237 0)
(-0.302959166508 0.00691370483419 0)
(-0.524463638043 0.0103470839946 0)
(-0.823425161982 0.0187910423329 0)
(-1.19820546409 0.0273437473602 0)
(-1.53848337569 0.0351090877179 0)
(-1.62810253769 0.0321206514376 0)
(-0.597834468703 0.0117946088419 0)
(-2.23852672606 0.0510844851662 0)
(-0.823500565767 0.0187927630912 0)
(-0.868346096023 0.0171315022437 0)
(-0.565998815372 0.0129164229988 0)
(-0.162173372253 0.00370089091756 0)
(-0.170612649179 0.00336599772327 0)
(-0.282090036555 0.00556532253246 0)
(-0.235964206267 0.00538484077697 0)
(-0.388997411011 0.00887714774237 0)
(-0.409858004494 0.00808604236924 0)
(-0.03507924393 0.000804077299313 0)
(-0.126303328801 0.0028823156103 0)
(-0.0290720041974 0.000573606021077 0)
(-0.0790124654261 0.0015589577382 0)
(-0.111467251408 0.00254374767332 0)
(-0.0256911898272 0.000506900765198 0)
(-0.039746690817 0.000911063302063 0)
(-0.00873830066514 0.000144812468185 0)
(0 0 0)
(-0.00755413468332 0.000112532412675 0)
(0 0 0)
(0 0 0)
(-0.00510943440153 3.99301739633e-05 0)
(-0.0099011409584 0.000164083237116 0)
(-0.0273202099303 0.000626226741411 0)
(-0.0596672208963 0.00136164077261 0)
(-0.0616836608628 0.00121705125772 0)
(-0.0124832170272 0.000185959952915 0)
(-0.0868156874747 0.00198118461011 0)
(-0.0187768677866 0.000430398476363 0)
(-0.0200480052479 0.000395557748365 0)
(-0.00489785832273 4.0238263995e-05 0)
(0 0 0)
(0 0 0)
(0 0 0)
(0 0 0)
(0 0 0)
(-0.00398540665339 3.11459094056e-05 0)
(0 0 0)
(0 0 0)
(0 0 0)
(0 0 0)
(0 0 0)
(0 0 0)
(0 0 0)
(0 0 0)
(0 0 0)
(0 0 0)
(0 0 0)
(0 0 0)
(0 0 0)
(0 0 0)
(0 0 0)
(0 0 0)
(0 0 0)
(0 0 0)
(0 0 0)
(0 0 0)
(0 0 0)
(0 0 0)
(0 0 0)
(0 0 0)
(0 0 0)
(0 0 0)
(0 0 0)
(0 0 0)
(0 0 0)
(0 0 0)
(0 0 0)
(0 0 0)
(0 0 0)
(0 0 0)
(0 0 0)
(0 0 0)
(0 0 0)
(0 0 0)
(0 0 0)
(0 0 0)
(0 0 0)
(0 0 0)
(0 0 0)
(0 0 0)
(0 0 0)
(0 0 0)
(0 0 0)
(0 0 0)
(0 0 0)
(0 0 0)
(0 0 0)
(0 0 0)
(0 0 0)
(0 0 0)
(0 0 0)
(0 0 0)
(0 0 0)
(0 0 0)
(0 0 0)
(0 0 0)
(0 0 0)
(0 0 0)
(0 0 0)
(0 0 0)
(0 0 0)
(0 0 0)
(0 0 0)
(0 0 0)
(0 0 0)
(0 0 0)
(0 0 0)
(0 0 0)
(0 0 0)
(0 0 0)
(0 0 0)
(0 0 0)
(0 0 0)
(0 0 0)
(0 0 0)
(0 0 0)
(0 0 0)
(0 0 0)
(0 0 0)
(0 0 0)
(0 0 0)
(0 0 0)
(0 0 0)
(0 0 0)
(0 0 0)
(0 0 0)
(0 0 0)
(0 0 0)
(0 0 0)
(0 0 0)
(0 0 0)
(0 0 0)
(0 0 0)
(0 0 0)
(0 0 0)
(0 0 0)
(0 0 0)
(0 0 0)
(0 0 0)
(0 0 0)
(0 0 0)
(0 0 0)
(0 0 0)
(0 0 0)
(0 0 0)
(0 0 0)
(0 0 0)
(0 0 0)
(0 0 0)
(0 0 0)
(0 0 0)
(0 0 0)
(0 0 0)
(0 0 0)
(0 0 0)
(0 0 0)
(0 0 0)
(0 0 0)
(0 0 0)
(0 0 0)
(0 0 0)
(0 0 0)
(0 0 0)
(0 0 0)
(0 0 0)
(0 0 0)
(0 0 0)
(0 0 0)
(0 0 0)
(0 0 0)
(0 0 0)
(0 0 0)
(0 0 0)
(0 0 0)
(0 0 0)
(0 0 0)
(0 0 0)
(0 0 0)
(0 0 0)
(0 0 0)
(0 0 0)
(0 0 0)
(0 0 0)
(0 0 0)
(0 0 0)
(0 0 0)
(0 0 0)
(0 0 0)
(0 0 0)
(0 0 0)
(0 0 0)
(0 0 0)
(0 0 0)
(0 0 0)
(0 0 0)
(0 0 0)
(0 0 0)
(0 0 0)
(0 0 0)
(0 0 0)
(0 0 0)
(0 0 0)
(0 0 0)
(0 0 0)
(-1.19949297386 0.0273731290838 0)
(-1.65384781553 0.0290488261685 0.0249315666754)
(-1.76681739694 0.0348573412589 0)
(-0.655463982124 0.0129315750159 0)
(-2.26128652726 0.0501613722415 0.00400465096274)
(-0.944373440719 0.018631437157 0)
(-0.869374619962 0.0165486811246 0.0092595308489)
(-1.53999771263 0.0351436457698 0)
(-3.25973155724 0.0743889748749 0)
(-2.23756286335 0.0441446255008 0)
(-1.33866664584 0.026410403354 0)
(-2.87718407975 0.0656590183764 0)
(-1.7446995066 0.0398150600692 0)
(-1.19811544181 0.0236374844933 0)
(-0.566583606763 0.0129297682794 0)
(-0.16235827985 0.00370511061675 0)
(-0.309175022766 0.00609967917226 0)
(-0.185699958681 0.0036636535517 0)
(-0.236206770111 0.00539037622533 0)
(-0.445835250048 0.00879583339122 0)
(-0.389461121075 0.00888772987643 0)
(-0.727405336237 0.0165998139206 0)
(-0.343551043462 0.00784003513528 0)
(-0.632649515418 0.012481470974 0)
(-0.23571002475 0.00465029650779 0)
(-0.82408236968 0.0188060401958 0)
(-0.303251041037 0.00692036558114 0)
(-0.566009864746 0.0111667448179 0)
(-1.53893252196 0.0351193374975 0)
(-3.25904752971 0.0743733649678 0)
(-2.14358331264 0.0422905135388 0)
(-1.31996171047 0.0260413757926 0)
(-2.87521761121 0.0656141424175 0)
(-1.74432560991 0.0398065275285 0)
(-1.14901641506 0.0226688153293 0)
(-1.19826759486 0.0273451652205 0)
(-1.53827971763 0.035104440122 0)
(-1.65051945673 0.0325629123062 0)
(-0.603557703492 0.0119075218959 0)
(-2.23853145534 0.0510845930911 0)
(-0.823380497169 0.0187900230558 0)
(-0.885827716507 0.0174763951636 0)
(-0.726894244997 0.0165881505204 0)
(-0.343472539712 0.00783824363391 0)
(-0.623677703803 0.012304467114 0)
(-0.226002186819 0.00445877166756 0)
(-0.823889268174 0.0188016335068 0)
(-0.303024259766 0.00691519030031 0)
(-0.542587706491 0.0107046516979 0)
(-0.56597184065 0.0129158074199 0)
(-0.162125480084 0.00369979799034 0)
(-0.285008287692 0.00562289638019 0)
(-0.174102245597 0.00343484357764 0)
(-0.388909728371 0.0088751467734 0)
(-0.235936107763 0.0053841995527 0)
(-0.418167027638 0.00824997015022 0)
(-0.267263704687 0.00609911358153 0)
(-0.93291070849 0.0212895663449 0)
(-0.36360083168 0.00717343982115 0)
(-0.364271528088 0.00718667191497 0)
(-0.499354908732 0.0113955701895 0)
(-0.499332140382 0.0113950506024 0)
(-0.194518567532 0.00383763489165 0)
(-0.126240728802 0.0028808870418 0)
(-0.0983341481708 0.00224404259957 0)
(-0.171490049601 0.0033833078573 0)
(-0.0376236781749 0.000742335072245 0)
(-0.235873776209 0.00538277711031 0)
(-0.0510106585159 0.00116925303799 0)
(-0.0903578421614 0.00178280802257 0)
(-0.126238621347 0.00288083894846 0)
(-0.0983154637536 0.00224361621028 0)
(-0.172033017262 0.00339402000506 0)
(-0.0376442886067 0.000742741726966 0)
(-0.235850229413 0.0053822397587 0)
(-0.0510071553123 0.00116917273847 0)
(-0.090372828689 0.00178310371469 0)
(-0.0596281049337 0.00136074812354 0)
(-0.00873256373728 0.00014471739493 0)
(-0.0177894366893 0.000350994995984 0)
(-0.0177666987029 0.000350546363486 0)
(-0.0240936452538 0.000552268265672 0)
(-0.0240936630462 0.000552268673503 0)
(-0.0426870071681 0.000842237231636 0)
(0 0 0)
(-0.0350669100579 0.000803794585506 0)
(-0.00758316361332 0.000112964850759 0)
(-0.0125113597884 0.000186379189922 0)
(-0.00989860906566 0.000164041278199 0)
(-0.0187674549871 0.000430182718621 0)
(0 0 0)
(0 0 0)
(0 0 0)
(0 0 0)
(0 0 0)
(0 0 0)
(0 0 0)
(0 0 0)
(0 0 0)
(0 0 0)
(-0.00453101588543 3.54098395864e-05 0)
(0 0 0)
(-0.00770676097731 0.000127717633165 0)
(0 0 0)
(0 0 0)
(0 0 0)
(0 0 0)
(0 0 0)
(0 0 0)
(0 0 0)
(0 0 0)
(0 0 0)
(0 0 0)
(0 0 0)
(0 0 0)
(0 0 0)
(0 0 0)
(0 0 0)
(0 0 0)
(0 0 0)
(0 0 0)
(0 0 0)
(0 0 0)
(0 0 0)
(0 0 0)
(0 0 0)
(0 0 0)
(0 0 0)
(0 0 0)
(0 0 0)
(0 0 0)
(0 0 0)
(0 0 0)
(0 0 0)
(0 0 0)
(0 0 0)
(0 0 0)
(0 0 0)
(0 0 0)
(0 0 0)
(0 0 0)
(0 0 0)
(0 0 0)
(0 0 0)
(0 0 0)
(0 0 0)
(0 0 0)
(0 0 0)
(0 0 0)
(0 0 0)
(0 0 0)
(0 0 0)
(0 0 0)
(0 0 0)
(0 0 0)
(0 0 0)
(0 0 0)
(0 0 0)
(0 0 0)
(0 0 0)
(0 0 0)
(0 0 0)
(0 0 0)
(0 0 0)
(0 0 0)
(0 0 0)
(0 0 0)
(0 0 0)
(0 0 0)
(0 0 0)
(0 0 0)
(0 0 0)
(0 0 0)
(0 0 0)
(0 0 0)
(0 0 0)
(0 0 0)
(0 0 0)
(0 0 0)
(0 0 0)
(0 0 0)
(0 0 0)
(0 0 0)
(0 0 0)
(0 0 0)
(0 0 0)
(0 0 0)
(0 0 0)
(0 0 0)
(0 0 0)
(0 0 0)
(0 0 0)
(0 0 0)
(0 0 0)
(0 0 0)
(0 0 0)
(0 0 0)
(0 0 0)
(0 0 0)
(0 0 0)
(0 0 0)
(0 0 0)
(0 0 0)
(0 0 0)
(0 0 0)
(0 0 0)
(0 0 0)
(0 0 0)
(0 0 0)
(0 0 0)
(0 0 0)
(0 0 0)
(0 0 0)
(0 0 0)
(0 0 0)
(0 0 0)
(0 0 0)
(0 0 0)
(0 0 0)
(0 0 0)
(0 0 0)
(0 0 0)
(0 0 0)
(0 0 0)
(0 0 0)
(0 0 0)
(0 0 0)
(0 0 0)
(0 0 0)
(0 0 0)
(0 0 0)
(0 0 0)
(0 0 0)
(0 0 0)
(0 0 0)
(0 0 0)
(0 0 0)
(0 0 0)
(0 0 0)
(0 0 0)
(0 0 0)
(0 0 0)
(0 0 0)
(0 0 0)
(0 0 0)
(0 0 0)
(0 0 0)
(0 0 0)
(0 0 0)
(0 0 0)
(0 0 0)
(0 0 0)
(0 0 0)
(0 0 0)
(0 0 0)
(0 0 0)
(0 0 0)
(0 0 0)
(0 0 0)
(0 0 0)
(0 0 0)
(0 0 0)
(0 0 0)
(0 0 0)
(0 0 0)
(0 0 0)
(0 0 0)
(0 0 0)
(0 0 0)
(0 0 0)
(0 0 0)
(0 0 0)
(0 0 0)
(0 0 0)
(0 0 0)
(0 0 0)
(0 0 0)
(0 0 0)
(0 0 0)
(0 0 0)
(-0.0273443096537 0.000626779148997 0)
(-0.0597286331728 0.00136304223657 0)
(-0.0671074077117 0.00132406465206 0)
(-0.0136572325247 0.000203449023733 0)
(-0.08689629249 0.00198302406356 0)
(-0.0217700384545 0.000429534374438 0)
(-0.0187949223153 0.000430812317569 0)
(-0.0351064690678 0.000804701346836 0)
(-0.126389633265 0.00288428512849 0)
(-0.0851224714299 0.00167951138867 0)
(-0.0307708667521 0.00060712547793 0)
(-0.11156142907 0.00254589686247 0)
(-0.0397719917623 0.000911643243746 0)
(-0.0275822249166 0.000544211887816 0)
(-0.00490204214242 4.02726360879e-05 0)
(0 0 0)
(0 0 0)
(0 0 0)
(0 0 0)
(-0.00430620282413 3.36529279713e-05 0)
(0 0 0)
(-0.00874465231673 0.000144917728736 0)
(0 0 0)
(-0.00793346641503 0.000118183240568 0)
(0 0 0)
(-0.00990660287437 0.000164173752831 0)
(0 0 0)
(-0.00544804283593 4.25763951746e-05 0)
(-0.0350811654715 0.000804121344386 0)
(-0.126361195916 0.00288363617159 0)
(-0.081591683379 0.00160984707274 0)
(-0.0303189805622 0.000598209524368 0)
(-0.111482793392 0.00254410235045 0)
(-0.0397621834559 0.0009114184203 0)
(-0.0263819009512 0.000520528861041 0)
(-0.027315072942 0.000626108992701 0)
(-0.0596498386514 0.00136124409965 0)
(-0.0628950974969 0.00124095354333 0)
(-0.012549790231 0.000186951680433 0)
(-0.086802511885 0.00198088393547 0)
(-0.0187707245703 0.000430257663156 0)
(-0.0203492553584 0.000401501572397 0)
(-0.0087380546694 0.000144808391505 0)
(0 0 0)
(-0.00781720702904 0.000116451348068 0)
(0 0 0)
(-0.00990412825645 0.000164132743081 0)