/*--------------------------------*- C++ -*----------------------------------*\
| =========                 |                                                 |
| \\      /  F ield         | OpenFOAM: The Open Source CFD Toolbox           |
|  \\    /   O peration     | Version:  v1906                                 |
|   \\  /    A nd           | Web:      www.OpenFOAM.com                      |
|    \\/     M anipulation  |                                                 |
\*---------------------------------------------------------------------------*/
FoamFile
{
    version     2.0;
    format      ascii;
    class       surfaceScalarField;
    location    "8.8";
    object      phi;
}
// * * * * * * * * * * * * * * * * * * * * * * * * * * * * * * * * * * * * * //

dimensions      [0 3 -1 0 0 0 0];
oriented        oriented;


internalField   nonuniform List<scalar> 
92311
(
0.203969550457
0.000133707993619
-0.00106966700703
-0.20389575474
0.000862163262948
0.000101627937445
0.203946431804
-0.000679417975652
0.000601044175212
0.203948245022
0.000466650552869
-0.00109819394497
-0.204022011035
0.000839147047925
0.000285211328674
0.203885749864
-0.000686791301525
0.000565808624572
0.203772758346
0.00031482969604
0.000312939396924
-0.00106895816325
-0.204186816986
0.00070953646905
0.000315598715166
0.000296879444145
0.00016870919283
7.05711913009e-05
9.28880045982e-05
0.203736012443
-0.000645157321211
0.00045966523752
0.000175351953812
0.0510736759268
0.000131726821767
0.000147576783291
0.000138884058038
0.000143304725785
-0.000384376410087
-0.0512203479455
0.000284400614161
-0.050984467381
0.0509117493173
6.5433001857e-05
8.38253497188e-05
9.13314885909e-05
5.54386649434e-05
-0.000267577263679
0.000213000211854
-0.000208653592576
0.00270432282363
-0.000196555614779
-0.000210468096918
-0.000189783543389
0.00363903973906
0.00232791121919
-0.00817852039955
0.000312594041317
-0.00383082187194
0.000856820802151
-5.45378184835e-06
-0.000896340673906
3.12468537514e-05
3.51915898643e-05
1.55598294216e-05
1.27863346665e-05
0.00378110640371
-0.100914816749
-0.00187482770638
-0.00275136128475
0.00174367231116
-0.061690317508
0.132249292885
0.00545631377342
0.0021983107177
0.000127547446823
0.000112706077652
0.000114587805079
0.000122718420988
-0.000292942738259
0.000217539272786
-0.000187625593981
0.0118976505339
4.49068341277e-06
2.46452370083e-06
-0.0119255853717
0.0118913898853
0.000121843548868
-0.000140523944888
-0.0118893778601
7.93259059966e-06
8.7111014757e-06
0.000164835862454
2.43330955262e-05
0.0509082345448
1.535121447e-05
4.69940224449e-05
3.82517345832e-05
-0.000215651399311
3.6351996208e-05
0.0508779435679
4.26001650612e-05
5.7023689382e-05
6.06624786846e-05
-0.0508927650262
7.59470705628e-05
4.5865244626e-05
-0.000107729661821
0.0119281850558
9.07409045557e-07
2.41125716372e-05
4.78060193103e-05
0.0126778350581
-5.46100469536e-05
2.42392843647e-05
-0.0126709231124
0.0126708225085
3.44306350718e-05
4.47826817407e-05
-0.0126658670994
-8.92719227399e-05
0.204314909914
-0.001937271134
0.00163753138236
-0.203925898708
0.203973466761
3.91061154363e-05
-0.000161622128654
9.54982310331e-05
-2.21877514965e-05
0.20407044315
-4.25035041277e-05
-3.23296140688e-05
1.63477327972e-05
0.204458322125
-0.00200465519052
0.00171857859238
-0.204277757745
0.204001883506
7.72043616788e-05
-0.000307606655814
0.00015339786336
-1.50268575862e-05
0.20415619138
-7.59747138066e-05
-8.55486494933e-05
6.95949286018e-05
0.000244227114643
0.00026486404002
-0.00207772353847
0.204717679861
0.00176762223381
-0.205053952569
8.41126159469e-05
-5.024429087e-06
-5.09003969456e-05
5.80733322548e-07
-5.14028689029e-05
0.204080173977
-0.000261514646124
0.000101362211854
0.0515534847941
4.00731467077e-05
-2.71333495955e-05
3.53077670493e-05
-1.7019333658e-05
-0.000605496374008
-0.0515379950619
0.000628307860609
0.0509653402392
0.000125646318841
1.51053821333e-05
4.4744395987e-06
-8.46655812571e-06
-1.81138308467e-05
-0.000180715593485
-0.000324520380361
0.000407591383779
-0.00650529052713
4.66065907801e-05
4.63672674896e-05
5.12159965333e-05
5.49882555099e-05
0.00239224474283
0.0149352973757
0.0126487707085
0.0147208694237
-0.10082261038
0.0313418267432
0.138977543895
-0.0421244025535
0.0117003431548
0.00427945354433
0.00301650419503
0.00402380127437
0.0034823107553
-0.0441131250181
0.0304719405783
-0.00669359070567
0.000522595046734
7.10688477048e-05
0.000111451476035
6.75246445926e-05
0.000115639127661
0.0513962099541
-0.000486980489676
0.000103812367268
0.000144745141857
8.61249902213e-05
0.000129842742662
0.0513113918004
0.000465863386048
-0.0514544600894
6.76775912587e-05
2.35900464699e-05
0.0119699275642
6.1339915652e-06
-3.54641958516e-05
-0.0120318695448
0.000180281052112
-0.000139362770526
-0.0118808901876
1.63616047058e-05
-4.09271213067e-05
0.011864561058
0.000151915704055
0.0128377649036
-0.00014097671797
0.000124904459885
-0.0128698276284
7.11624480049e-05
-1.39564909828e-05
-2.69064729172e-05
-1.99940253348e-05
-2.28527246133e-05
0.0510624642454
-0.000135507275219
0.0509036919559
2.78079733044e-05
-4.79642813099e-07
3.36596019254e-05
-3.23301795725e-06
4.27371475303e-05
-1.16210692241e-05
-2.89254591159e-05
-1.25212842082e-05
-2.47067476297e-05
0.0510038329241
-2.61916335977e-06
3.7170002972e-05
-5.03047536686e-05
1.2444782887e-05
0.0126936551379
-4.75801413197e-05
1.90161583067e-05
-0.0120107756686
-0.000109122798492
0.0120078083815
0.000140639827575
2.43713616608e-05
2.71837499421e-05
0.0126842218869
-0.0126877973427
-1.44931845374e-05
0.0127051763712
-9.59090545716e-06
-4.95534823138e-06
0.00415949313834
-0.000143395229271
-0.000108352919049
-0.000124857194822
0.0046134045807
0.000680300246193
-0.00625047230472
-0.00198126945211
-1.28996837983e-05
-2.33437072832e-05
-3.69966492904e-05
-3.41175576615e-05
0.0082384228469
0.00410566743514
-0.00939877950485
-0.00676471376906
-0.0198146179309
0.0146853623511
0.00803648598981
0.00955718915723
-0.0148369267529
-0.00424011575851
-0.00239994036747
-1.73793386747e-05
-4.68540230022e-05
-2.53284664088e-05
0.00472489906269
0.00107356078939
-0.00896209559334
0.00739056935761
0.0104705656914
8.40188198232e-05
0.0127584900405
-0.00010185725746
-0.0127966323854
-0.0127514757714
0.00018813660642
-7.20331870317e-05
0.0127270987184
5.58433836945e-05
4.08733028297e-06
-0.000186672624208
0.0118801143676
3.55022588204e-06
-0.000195207452036
0.0119138552111
-0.0119432552844
1.86544500043e-05
-0.0127886449881
6.47481651736e-05
0.0118949191017
2.12291512443e-05
0.0127318090963
-8.87887406324e-05
0.0127063823864
0.000160787631803
-6.49670909957e-05
5.24466002571e-05
6.62490071552e-05
-0.0127072757116
0.0126914045302
-7.82337775435e-05
5.21323501678e-06
-0.000163213933097
5.3440742156e-06
-0.000135048092155
-0.0119058895431
0.0119040112275
3.65507085352e-05
0.0126933592927
5.88192480402e-05
3.01024431995e-05
-8.0912691067e-05
-0.0126757801023
7.57181629537e-05
-6.54670865399e-05
0.0126720931855
5.88824208028e-05
6.03454925472e-05
0.0126745332341
-6.73789691403e-05
1.01871355449e-07
-6.0505123764e-05
0.0119390150772
3.2216701751e-05
-0.000115516904036
0.0119351804024
3.84163541512e-05
5.37442422247e-05
0.0119429208999
4.27407174759e-05
0.0126731452216
-6.91685741107e-05
1.71103795147e-05
-0.0126733656304
0.0126790396098
-6.2029850141e-05
-2.14296238339e-05
-0.0119700396317
0.0119890334835
5.07615675719e-05
-0.0119686378204
2.20659634226e-05
0.0119845687595
5.53138479774e-05
-5.87971162934e-05
5.16898574064e-05
-1.19609288627e-05
-4.48420311996e-05
4.13314086693e-05
3.03561515767e-05
-6.55431428966e-05
5.61067796817e-05
-0.0126606153295
0.0126638972918
1.7596995407e-05
5.29194771474e-05
-0.0119780287432
0.0119790587955
-0.0119808219718
0.0119752519227
9.12237120088e-05
3.61437910473e-05
7.82967178268e-05
-0.0126716091364
-8.85805188205e-05
-5.73372404208e-05
-0.0119667309907
9.48394221895e-05
-0.0126720075101
1.95311273275e-05
-0.0119608681626
-0.00930131605966
0.00376356385981
-0.000197371021016
-0.000219548483439
-0.000201260914127
-0.000183768263151
-0.00665422017356
0.015006838928
-0.00201313804616
-0.0190307330538
-6.15040938112e-05
0.0237186148749
0.00100216464981
-0.0202772400993
-0.00454432590625
-0.000113904786502
-6.91140811955e-05
-0.000107672817141
0.00344830387749
-0.0022929315251
0.0240243883024
-0.00840711579421
-0.000160946117191
-0.000173804133819
-0.000161349209163
-0.0127984777631
0.00536775158146
-0.000685071152608
-0.0121128013238
0.00476269630737
0.01614088795
-0.0145816132385
0.0011867900058
-0.000139508556978
0.00540352332312
2.39693895967e-05
1.38751925381e-05
3.09149902391e-05
4.2595431674e-05
0.00253838798224
-0.00163253281669
-0.0192936188095
0.00524972280879
-0.0152374838929
0.00219526036228
0.000472369502448
0.00230096658919
6.8651869374e-05
7.9171179197e-05
6.45695438377e-05
6.8830565569e-05
0.00180476735639
0.000544603199884
-0.000571458256428
-0.0179021352358
0.00368195778309
0.000594698314174
5.09723284911e-05
5.66322136771e-05
5.54647593684e-05
-0.00742616400662
0.00241662212574
-0.0141970357793
0.00246412785242
-0.00014253995591
-0.0129116519894
5.0902969499e-05
0.0128878109353
0.000155494960405
0.0129212095777
0.00014761788115
-0.000138609036932
-0.012933878382
-4.49504581085e-05
9.15501000727e-06
0.0119307069123
-3.89581696261e-05
1.60790149146e-05
0.0119680225593
-0.0120309553214
-1.62005578221e-05
0.0128980929215
-0.000129330869004
-0.0129232173616
0.000157964644368
0.0119309270651
-1.07021928584e-05
-0.000132764768047
0.0128543571914
9.06758925476e-05
0.00014651214031
-0.0128681701297
0.000119643192097
-0.000110173397373
0.012830660497
-8.50968791436e-05
1.35960154113e-05
-3.96916851696e-05
-0.000139608193739
-0.011879448609
-8.57466159176e-07
0.0118624349012
-0.000120650199267
0.000131433546883
0.0128183732177
-5.76153179961e-06
0.0119211296054
1.64258066787e-05
-1.71548362569e-05
-0.0119658798503
-0.000193854932674
9.724350189e-06
0.0118956249016
-9.91370355629e-06
-0.00012490950082
0.0128022619964
0.000111066546236
0.0128486017903
0.000123221160389
-0.0128804363803
-0.000171023363902
-0.0119011938092
0.011879775478
0.012813710895
-0.0119511813148
4.40960980719e-06
0.0126947174993
-6.58962688199e-05
-4.27584667232e-05
0.0120095274081
7.32860972944e-05
0.0120014627464
-8.2035026926e-07
-4.63549266847e-05
-7.77018129564e-06
0.0127063199477
3.29925230842e-05
1.77842344045e-05
-6.45003577578e-05
0.0120115793441
9.58891358736e-05
0.0127094314787
-6.13184208256e-05
0.0120054899458
-2.12774150931e-05
-3.97922224969e-05
0.0127240803579
-1.5268133297e-05
2.33934424524e-05
-0.0127285520081
3.70692489146e-05
0.0127441135742
-6.04968253383e-05
1.91306139568e-05
-8.63775092301e-05
0.000119078997444
1.88358793112e-05
-0.0120074946208
-7.16835945663e-05
0.0120078613298
-5.9755187079e-05
1.69192943201e-05
0.0127402574207
-4.81264106197e-05
-0.012677106415
4.76198146439e-06
-1.98243270131e-05
3.88638724517e-06
3.50600334032e-05
9.65614699781e-06
3.39999087878e-05
0.0119953725567
0.0119843128867
7.38218091547e-05
-1.66716097226e-05
0.0119837829123
5.28403721184e-05
-1.60691298763e-06
0.0126956941123
0.0119983682827
0.0120030691267
9.16500526963e-06
2.56336907114e-05
3.5867208898e-05
3.45050880863e-05
0.0120129183488
-1.01254820601e-06
3.25963777947e-07
0.0127258283035
-1.39805755327e-05
0.0127149456956
-1.79753141471e-05
2.51678873995e-05
-0.0120102622184
0.0120124892887
0.0127327213041
-6.6749159021e-05
-5.21677294715e-05
-4.44200806383e-05
3.68952273672e-05
0.204466007819
-6.56437874495e-05
-0.000208778737825
5.35895542585e-05
-1.20665634478e-05
-2.16115812628e-05
-2.18068352034e-05
-1.42159171556e-05
-0.00012183926495
0.0511336428885
4.10798117099e-05
-0.00392680785653
0.000649803934275
3.84157693931e-05
4.32166041822e-05
3.66967389764e-05
0.00313748361186
-0.00744594297788
0.00575676695745
0.0065185591763
0.00722842465426
0.051413209722
-0.00934807924311
0.00654573785681
-0.00250351315319
0.00013088008824
0.000132450407195
0.00011969764926
0.000141454360213
-0.000293999028779
-0.000442516095503
0.0511389318276
0.000203793751401
-0.000182987293836
1.68105562703e-06
0.0118754037233
0.0510982564378
-8.90814232955e-06
-2.27002936365e-05
-1.51364685847e-05
-1.97096907239e-05
-2.66037536966e-05
0.0511201450006
-1.5024427448e-06
3.45785926442e-06
9.78734702156e-06
-1.14366943264e-05
-1.73138929547e-05
-4.94266585448e-05
1.44333364762e-05
0.0120026041659
-0.000123375280108
0.00015528379862
-7.2626770331e-05
3.52733528756e-05
5.23350203235e-05
0.012016497641
-1.84061994163e-05
0.0120374680026
-1.42869010752e-05
-1.70413545373e-05
7.51040531163e-05
-0.0120335677892
-4.79394876119e-05
0.0511002657316
2.40623976002e-05
1.24403159886e-05
1.5935381262e-05
2.21992679856e-05
-5.19322189913e-06
1.12958525649e-05
-6.09765178139e-05
3.2883675574e-05
4.05994363488e-05
3.94857963622e-05
3.05668275401e-05
-3.71190534832e-05
5.76339569011e-05
0.0510253679487
-8.92536175736e-05
2.29346429965e-05
-3.14562757482e-05
8.14879170865e-05
0.0120212758326
-5.68603278631e-05
5.16665330872e-05
-6.48255424455e-05
0.00010582289107
-0.0120093581929
0.012008809651
-9.24063597723e-05
-0.000195024496846
-0.000192094862039
-0.000179316697792
0.00654944133435
-0.00183379954407
-0.00696071335692
-0.00101704609708
0.00042877621179
4.77199819089e-05
6.73445786733e-05
3.98202960687e-05
-0.00176107827502
0.000247818945947
-0.00278979908084
8.98203676863e-06
3.49346170722e-05
2.40882137464e-05
0.00574701691147
-0.00430417388784
0.00118433497901
0.000358179348412
-0.00933395703434
-0.0114539963643
0.00169488299273
0.00144752810973
-0.00558838887288
0.000176117781697
-0.00397945329458
-1.59839858311e-05
-2.50475679475e-05
-1.61483954964e-05
0.00635985606933
-0.000397360705419
-0.00469250359857
-2.88954403532e-05
-3.73831805623e-05
-2.14850286389e-05
0.00510172207672
-0.00147562892388
-0.00373818185128
-0.00372771142809
-0.0127717637062
0.000166206509609
9.8380708728e-05
-0.000105504472536
0.0127435615367
-0.000113916787906
0.0127636917046
-0.000169228032009
0.0118624963572
-6.89583326859e-06
3.88290857288e-06
-0.000179530306141
0.0118624879598
-0.000121495894987
-1.63045273933e-06
0.0118548747609
0.0127351544534
-2.8760037609e-05
-0.0127550134998
3.65146697467e-06
5.89099375422e-06
0.0127621537107
0.0127590657881
3.40083583205e-05
-5.61474170936e-05
7.39924032995e-06
-0.000133208853949
0.000164196556145
0.0120026454958
6.14649135748e-06
0.012006767067
-8.51732563591e-05
-4.82298099566e-05
0.0127640584054
1.11296564966e-05
-9.665852573e-05
0.0120105709768
-0.0127504687438
-1.663566693e-06
-9.3019907862e-06
0.0127583854701
7.34824725664e-06
0.0127515007627
-2.039516243e-05
1.44272588938e-05
0.0120129553193
6.84530616799e-05
1.87498788635e-05
0.012032271298
-3.5491831545e-05
0.0120229239403
0.012761296569
-2.00706216146e-05
0.0127634211703
6.11640063239e-06
-8.23333430087e-06
-4.44245309816e-06
6.55385320461e-06
-0.0127663652083
0.012762466385
-1.63997262446e-05
-2.33025952736e-05
-0.0120261796027
0.0120291881014
0.000104411332437
7.39126438592e-05
6.46765345513e-06
-4.68245203726e-05
0.0127604106998
-3.98395332239e-06
0.000100871606767
-1.83791190267e-05
-0.0127527136135
3.51269412409e-05
-2.74020983656e-06
0.0127449455855
-5.72597537451e-07
3.0682911944e-06
0.0127515511375
-1.12485379756e-05
-2.92395819926e-05
0.0120171086504
0.000106782592203
8.47677296592e-05
-3.9032638576e-05
0.0120129637937
-6.25345377352e-05
-2.65533527294e-06
0.0120111572051
0.000109602625082
0.0127421464604
-1.03255808117e-05
0.0127310758356
4.40681305763e-05
-6.47045894848e-06
9.1130870196e-06
7.72492015239e-06
-0.012727077309
0.0127078031204
-1.28207519301e-05
-5.20531112962e-05
-0.0120087132186
0.000128258576106
0.0120094593803
9.47889232876e-05
-5.10144783786e-05
-7.78449183579e-05
1.32026993863e-05
0.0127129153831
0.000119810592216
-1.20446759564e-05
-0.000518217826312
-0.04957160149
0.0493628326214
0.0006023978024
7.92146834998e-05
6.89647195379e-05
8.68573368404e-05
6.24468840959e-05
-0.000173089714477
-0.000590122341628
0.0498250157758
1.73015964117e-05
2.31610003717e-05
2.8915105472e-05
1.44625701839e-05
4.0124408575e-05
-0.0498965958649
0.000537691059351
-0.000921115411373
-0.0498315858954
0.0499185305658
0.000790817336951
-6.60886126138e-05
-3.50195976186e-05
-5.29675749351e-05
-4.99117321372e-05
0.000247335369857
-0.000719275524874
-0.000102289784429
-8.68163470925e-05
-9.99206901646e-05
-8.79641794479e-05
0.000346609587021
0.0501248169572
0.000682210519525
-0.0500573579043
-7.73653240917e-05
-0.00368862708234
-0.0122074175896
0.0166601454266
0.00694300062059
-0.00743304250903
-7.70302880396e-05
-6.51127909341e-05
-6.86216918029e-05
-7.90505236244e-05
-0.019538074366
0.0173329732212
0.0117036821388
-0.00196589688066
-7.07489173549e-05
-5.9613774097e-05
-4.73974181612e-05
-0.00726866404303
-4.57130972872e-05
-0.00938589025994
0.00983629041956
-0.00108621500706
-4.23706034534e-05
-2.31222427903e-05
-1.84943740672e-05
-0.00801030216822
0.00877549101145
-1.52676569206e-05
-0.012125178298
-0.0104148528532
0.00813245767842
0.0076812778579
0.00670041870695
1.20241296343e-05
-2.04939120785e-07
2.90466654457e-05
3.61573585004e-05
-0.000748971965207
5.48917116607e-05
4.37015837235e-05
6.92024553258e-05
0.00110058070745
-0.00492129190314
0.00909734027113
-0.00473177124874
0.074747368103
-0.00964563720194
0.0113348694353
0.0121955027732
0.0110704641293
0.0114451240266
-0.00504905359406
-0.0439919071881
-0.0356180269113
-0.000259598128852
-0.0128568785542
-0.00286702721836
-0.0132475501682
0.0308283579693
0.0110452700307
0.0761560507193
-0.0231423597493
0.00970071939517
0.00911057618335
0.00774334417975
0.00542925280506
-0.0379351552391
-0.0403521447396
0.00250322157071
-0.00880859915198
-0.00324434729723
-0.0119362989288
0.124956637496
0.0592725442869
0.00302696732922
-6.5564916576e-05
-0.00332324252873
-0.0280733162873
-0.0105651056625
-0.00210795990359
-0.00562682653685
-0.0106019709401
-0.00714717810655
-0.0105670544798
0.0806957862699
-0.0108475561678
0.000187561897233
4.29821749966e-05
5.77840377703e-05
5.99807970609e-05
3.73745059204e-05
0.0492717772204
-5.95533730692e-05
-3.56442363951e-05
-0.0495623477006
0.0492441722759
0.000354537138712
4.52425804993e-05
7.03172909487e-05
6.27744360745e-05
4.56843801406e-05
-6.52302350188e-05
-0.0495700009893
6.97069341984e-05
-6.90858491931e-05
-0.0120439452331
1.56726652455e-06
0.0120284184689
1.3226636665e-05
0.0120555939484
5.41010809682e-05
6.90211502403e-05
-7.85455200924e-05
-3.73093418673e-05
-0.0120630560295
0.00010249339389
8.5760383506e-05
8.82609587075e-05
0.000104610250969
-0.00029247393905
0.0122838922343
0.0122089732894
0.0121768075314
0.0121714371045
-0.000203926937293
6.89566309874e-05
7.24141132737e-05
-9.3045688602e-05
-4.73168667132e-05
0.01205469426
0.00042832342918
4.34572090836e-05
6.62789765391e-05
4.58740690844e-05
6.26448985878e-05
-0.000154912445895
-0.049708764737
0.0497256570181
3.6877048171e-05
4.53190304022e-05
5.28720693286e-05
3.08784836178e-05
-0.000140977676703
-0.0498059097751
0.000483526696467
0.0120684038472
6.89651276062e-05
-7.69018192375e-05
-0.0120734690663
6.71675284147e-05
0.0121088709844
4.56839272834e-05
-4.79713030433e-05
-8.18383854519e-05
-0.0121118352285
8.70850533212e-05
0.000837468680555
7.98251097609e-05
9.9213383485e-05
8.61955311591e-05
8.91411863322e-05
0.0490917446747
-0.000197571506726
-0.000156654883556
-0.00018532737271
-0.000149667241486
-7.60557806992e-05
-5.1097269184e-05
-5.91243368928e-05
-4.54035020982e-05
0.0495702933438
6.55590290423e-05
4.23134709803e-05
5.15131719029e-05
5.31239257867e-05
-4.51018120622e-05
0.04955535532
0.000746909223589
5.54234734491e-05
4.05167787204e-05
5.60579765336e-05
4.24369399758e-05
-8.91553727362e-05
-8.99665798423e-05
0.0120674876571
8.22200345661e-05
0.0121002785453
8.32857847578e-05
-0.000116008471906
-0.0120862916688
0.000148121092659
-0.000129364167352
0.000102356563085
4.62379259501e-05
-5.58495198339e-05
-0.00010003093315
0.0121160736837
0.0121634785114
0.000160175823067
3.3024718848e-05
-5.27751951816e-05
-0.00015960745988
-0.0121442954815
0.049638939863
5.56163344828e-06
4.64581656039e-06
1.81179340206e-05
-1.40399797423e-05
-0.00106302155662
4.37328031179e-05
0.00114365672832
-5.07566439475e-05
-9.79435937203e-05
-7.29145233427e-05
-7.47748460425e-05
0.0502641192732
5.06850436364e-05
-0.00152346016503
-0.000102352166907
0.0121047954881
0.000168464835315
-0.000149717273638
-2.36215220307e-05
5.50760338925e-06
-0.0120979186261
0.000235009974946
0.0121023164029
-0.000221015823747
0.000172645544299
3.37139154253e-05
-2.16845928889e-05
-0.00017944318388
0.0121582099869
0.000187107044104
-9.7577088685e-05
0.000144128859574
-0.000219651708606
-0.0121456708729
0.0121316640068
0.000659238752742
3.0029168489e-06
9.31362275588e-06
1.48330711893e-05
-3.63238212987e-06
5.74284066217e-05
0.0499699928579
-1.60554474119e-05
-3.26596800674e-05
-2.43221871317e-05
-2.54200641576e-05
0.000121470641771
-0.0499469349447
0.000613133651609
-4.96816704308e-05
0.0121352652446
9.73776629053e-05
-0.0121264244445
0.01217788784
2.32520195799e-05
-2.86340158715e-05
-0.0121638331248
0.000151469970109
0.0121947841845
-1.18812025124e-05
3.19245096129e-05
-0.000121767007265
-0.0121946187957
0.00010148889699
0.000924739093666
-0.000127200901416
-0.00014611027362
-0.000117941666054
-0.000155528722706
0.0502647319123
0.000419342170347
0.0500554848863
-8.12465071988e-05
-7.30777574009e-05
-6.58817732736e-05
-8.71793284689e-05
0.000293264345088
-0.000140341654448
-0.000178170043113
-0.000141835611528
-0.000173176557219
0.0503184519574
0.00079428265048
0.000500892492903
5.03376888572e-06
0.0121697520972
0.000160345018047
-0.000115086046268
0.000171043816526
-0.01214070207
0.000158534694557
0.0121133049471
9.76982067831e-05
-2.06455096946e-05
6.17377498063e-05
-0.000121553913312
0.012177596562
9.33482615925e-05
-0.00015945374417
0.000221260957252
-0.000110990590034
-0.0121235201278
0.0120794681856
7.53207975428e-05
0.0121730674265
7.51029940059e-05
-0.012189907685
0.000228046038715
-0.0121219165615
0.0120822465729
-0.000180200464909
8.50238770232e-05
-0.000806458532258
-5.25247370115e-05
-7.32432173629e-05
-5.25693295771e-05
0.0119771560273
0.00286032126166
-0.00777154140734
-0.00601132440954
0.0124303102752
0.00169791713574
-6.0813937465e-05
-5.30879700245e-05
-4.67896765037e-05
-0.00863049597134
-0.00607545927001
-0.00799803494502
-7.21495430793e-05
-8.21110290989e-05
-8.13873647263e-05
-0.000296645625137
0.0173422710892
0.0114277692087
-0.00223309975357
0.00809351031435
0.00224773654422
-0.00824507276286
7.32956684336e-05
0.0153326145322
0.00894437483703
-0.000722260811642
0.0125464548059
-0.00318838755841
-0.00859920464221
0.0170174383203
-0.00129908666482
0.00832032621926
0.00848832628464
0.00125003469014
0.00765715509693
-0.00234428379825
0.00276851572766
0.000480996732093
-0.00189535635969
-0.0056896881496
0.0123938494499
-0.00276646463371
0.00579450471041
-0.000480653668835
0.00639734781611
-0.00401126321271
0.0049149415456
-5.59907087216e-05
-5.81537943393e-05
-5.08431254272e-05
-0.0066614607605
-0.00853048040082
0.0100244127638
-6.31220661448e-05
-3.67221955012e-05
-5.61721455583e-05
-0.00661471732451
-0.00565489351053
0.00736092345878
0.00951712517298
-0.00657833795927
-8.20489018661e-05
-7.59162209857e-05
-7.64868773102e-05
-0.00552440347859
0.0132811382883
-0.0054752231465
-6.33534637433e-05
-4.73919483648e-05
-6.81631719174e-05
-0.00304628608879
0.0146341674218
0.0114187446943
-5.80198731507e-05
-4.72954826243e-05
-7.11389232251e-05
0.0107914077609
-0.00359651873999
-0.00811948512274
-0.00231435380848
0.0142979401383
0.0102325878298
-0.00349651262524
-0.00810300847071
0.0132612630037
-0.00295427776014
0.0115121442882
0.00607309562
-3.0513757597e-05
5.53973223174e-05
-1.20039449375e-06
0.0074291389767
-0.00775552555755
0.0116425304581
0.00267144307045
-4.93687928397e-05
-2.85079523776e-06
-1.87736180712e-05
0.00821631771648
0.0101402503891
8.0052952383e-05
4.80467429936e-05
3.36031218629e-05
0.00453835604458
0.0146162952157
-0.00250541502567
-0.000229061672626
0.0116357185077
0.0130054229501
-0.00284740658234
-0.00173443850404
0.0107793367962
0.00878166705993
0.00214190515814
-3.96561955405e-05
-5.71179008974e-06
-1.63663605831e-05
0.00619903986449
0.0084852307356
1.54174194023e-07
-8.05546007621e-07
-7.65358912974e-06
-0.00832254671899
0.00241471582633
0.00805497187427
-0.00649929007563
-0.0031354564472
-0.00317809389831
0.01036704219
0.00982610278048
-0.00708296509794
-0.00304943279122
0.00471271230824
0.00998099097342
6.77347426787e-05
0.000125869803621
7.62716924659e-05
0.00319309421836
0.00598686876882
0.00932817450836
9.79086563269e-06
3.64876854204e-05
3.1887804258e-05
0.0108087255162
0.000144800391387
9.40036122308e-05
8.85596188888e-05
0.00141843059504
-0.00201633573434
0.0115441260589
-0.00295608358914
-0.00248798613174
0.0116921800241
0.0119449128024
-0.00291327650401
0.0122174271974
-0.00254751747553
0.0124517047243
4.42385610702e-05
-2.80781687868e-05
4.34052294946e-05
-0.0124683057393
3.62995376663e-05
-0.0124470452899
0.0124117085407
-1.23640504454e-05
-1.88466214652e-06
-3.81940258125e-05
1.37359703314e-05
-0.0120703175435
-7.3667034452e-05
-0.0120520717024
1.62935489014e-05
0.0120375415338
5.63113057092e-05
0.0124179530516
9.848713387e-06
-0.0120723426355
-8.71146752272e-06
-0.012467282686
0.0124556857044
6.40226830929e-05
4.26829761374e-05
-0.0124737627614
-7.84544358423e-05
-0.012464332479
0.012441433098
9.30163941833e-05
-7.01914177815e-05
-0.0120560863542
0.0120442653342
-4.54189151308e-05
-2.56309448482e-05
3.90989939949e-05
-0.0120844217368
0.0124260873441
7.96407634742e-05
-0.0124797262684
-0.0120761886352
-0.0123965080235
0.000107250269024
0.000112654325545
-8.12769621488e-05
0.0123603599019
-8.61184649544e-05
0.0124130660418
0.000107091600819
-9.41345662522e-05
0.0120448231135
-2.58543049713e-05
-0.000113178368825
-6.17904777103e-05
8.48623633963e-05
0.0120628340387
-6.25784777114e-05
0.000128763751808
0.0123828761151
-3.6524535389e-05
0.0120508750507
-8.77292650916e-05
0.0124915774272
4.4246370787e-05
9.53924468342e-05
-0.0125000445476
-0.0124789369583
0.000100539586541
0.0124607626966
-4.8283504957e-05
5.16434994827e-05
-0.0120938249618
-6.7769936227e-05
-0.0120843516589
7.90504584678e-05
0.012082027954
-0.0124895228181
0.00010873852976
0.0124782090207
6.24466121783e-05
-0.0121018242146
0.012504945403
9.62367364814e-05
4.20308520229e-05
-0.0125109967669
-0.000109460280965
-0.0125196318971
0.0125107712104
0.000115624703706
-6.26271549183e-05
-0.01209848303
0.0120950895015
-2.81971096389e-05
-6.44086012086e-05
-0.0121263402545
7.02774180366e-05
0.012494428367
-0.0125237012907
0.000102941063519
-0.0121146959438
-0.00013709827081
-0.0124527195745
9.63375183452e-05
0.0124271559434
0.000145450579435
0.0124326442389
0.000114131469979
-0.000108774631855
0.000102667774718
0.0120816184202
-7.92956867606e-05
0.0120839288358
9.44194558743e-05
0.0124023343332
0.000122706185264
0.0120992854754
0.00011490726297
-0.000155594465876
0.0124059109792
9.56705410462e-05
0.000160889218864
-0.0123749283576
0.000186127497239
0.0123487551758
-0.000176760699051
-0.000103480975887
0.000123079075883
-0.00010634987543
-9.99873527723e-05
-0.0121081929244
0.000158666694539
0.0121214672016
-0.000145535956696
0.000192429100209
0.0123886840241
0.000133102410009
-0.0124739476322
0.000142070929098
8.85081225507e-05
0.0124543307426
-0.000121109349799
0.0124915638442
0.000126699760901
-7.3444775193e-05
0.0120997539515
-6.76230705012e-05
-0.000119595370558
0.0121334996755
0.000122415808413
0.0124748145527
0.000144244957476
0.0121153353647
0.012431824577
0.000154335039507
8.4402798915e-05
-0.000182680387793
-0.0124553554403
0.012448748257
0.000176980776843
-7.7642910546e-05
-0.0121239441796
0.0121425616505
-6.0962489554e-05
-0.000137665676272
0.000140324674324
0.0124198302904
0.000155154877458
-0.000244946677054
-0.0123748110421
5.78102215763e-05
0.0123816565525
0.000248164873979
-6.80369648628e-05
0.0123327407714
0.000206682807483
-8.62805046535e-05
-0.000206780039273
-8.66153225519e-05
0.000191311955227
0.0121023984062
-0.000173012243187
-8.04607300917e-05
0.0121289540932
0.000181603343959
0.0123411646202
-8.83480461862e-05
-0.000251766185875
0.00021221013773
-7.22487145668e-05
0.0121279782966
0.000201899160428
-0.000272662804022
1.33976248947e-05
0.0124153150215
0.000277226577184
-5.17548282881e-05
-0.012390808033
0.000302776421494
0.0124800030917
-0.000319913877808
-6.6746959924e-05
-4.22801341762e-05
0.000208743514477
-0.000192711968995
-0.012125381085
4.36461298269e-05
0.000247254795846
0.0121244395582
-0.000286442484598
-7.85706399654e-05
0.000223420078272
0.000303451336692
0.0124943235882
-3.64277735687e-05
-0.0124057195236
0.000225247189848
1.45788111361e-05
0.0124195671541
-0.000197743705574
0.0124361079958
0.00019325606475
-4.64019394503e-05
0.0121419040831
1.26464991607e-05
-0.000198368204393
0.0121544741664
0.000186689192845
0.0124457272137
0.00021387660942
0.0121414073638
0.000251365118116
-4.76785051301e-05
0.0124419175667
-0.0124633176954
-0.000272331485312
0.00025934221533
0.0125223685038
-0.0121411442234
0.000115168107429
0.0121327750778
8.07902883317e-05
-0.000208580479641
0.000184596738388
0.000241525674516
0.0125130370521
-0.000133417489655
-0.0125186672811
3.30112870123e-05
0.0125055004468
0.000130866009535
0.0125070786416
0.000118608310017
-0.0125255972004
-5.51925442747e-05
0.000117017688001
0.0121535346404
-3.19650667674e-05
0.0121522880708
-0.0121435922708
9.74908158289e-05
0.0124916119506
-0.0125356320922
0.000117997265276
0.0121694701332
0.000114417845933
-0.000144166828348
0.0124914852472
1.99376049977e-05
0.000141230458011
-0.0124747022157
0.00016131398598
0.0124709688708
-4.26788316342e-05
0.000132881812154
-4.07105213403e-06
-0.0121778182549
0.000139918138722
0.0121876403404
0.000155849244011
0.0124891652299
0.000127898085422
0.0125063084618
0.000136694948613
1.29746546983e-06
-0.0125191452452
-0.000148654737104
-0.0125183501671
0.0125167321405
0.00014943762533
1.46256627554e-05
-0.0121916884099
0.0121953056468
1.51748546242e-05
-0.00011515747229
-0.0121933568431
9.78621645514e-05
0.0125036781882
-0.0125301501076