/*--------------------------------*- C++ -*----------------------------------*\
| =========                 |                                                 |
| \\      /  F ield         | OpenFOAM: The Open Source CFD Toolbox           |
|  \\    /   O peration     | Version:  v1906                                 |
|   \\  /    A nd           | Web:      www.OpenFOAM.com                      |
|    \\/     M anipulation  |                                                 |
\*---------------------------------------------------------------------------*/
FoamFile
{
    version     2.0;
    format      ascii;
    class       volScalarField;
    location    "8.25";
    object      p;
}
// * * * * * * * * * * * * * * * * * * * * * * * * * * * * * * * * * * * * * //

dimensions      [1 -1 -2 0 0 0 0];


internalField   nonuniform List<scalar> 
28582
(
17096.2131305
17095.0930245
12197.395277
12196.9052489
7297.24543264
7298.73778708
3618.45723638
3624.14860017
46.3550560221
50.3985009094
-27.4052540104
3621.33414276
636.532311791
645.745125618
3626.21025778
3627.11195669
648.98877864
1793.21884525
1793.82658299
17097.6834656
17094.7870537
17094.7789366
12198.5972298
12196.9897905
12196.8595597
7296.4749928
7299.26435746
3618.32585078
3627.00612325
49.9265426023
-27.5107462197
-27.235947819
3615.87646289
3616.69237546
627.757227222
629.713611154
1774.22458362
3626.68035057
3627.62355266
3627.246814
1793.32513399
651.073645812
1793.99299039
1793.83255562
48.6165757048
49.434334252
-22.9841591841
-22.9092912294
50.5497682777
-22.8859400301
1777.43722197
1781.2837525
639.694822979
636.964237051
1778.77987708
640.237710126
1779.94819187
1784.17072849
1785.91484319
642.633093615
646.463338684
1787.18558915
643.347664719
1782.86128353
1791.51418581
1788.57378149
650.970298333
649.605421057
1789.64893252
651.369872126
1790.7224846
1792.80085713
652.445334982
652.52411151
1792.68117836
651.966211395
652.114244193
1792.12338755
1794.53490221
652.266004945
652.009514052
1793.2657937
651.517341503
1793.95562812
651.852646006
42.6816651209
-22.8848636062
39.4914982504
42.3282377862
-22.8149722321
-22.8648548052
49.0835801589
-22.9570673794
-22.8919425795
49.5391865708
-22.9240754561
50.1407260634
-22.8662229903
1772.64830609
1774.18165174
627.16977667
628.346373962
1772.12085863
1774.64649837
627.908758064
1772.64409974
1773.57010778
627.527497632
630.685576404
1771.99638101
1774.0714805
628.364093402
628.950731729
632.068310343
1774.67981043
1773.23034674
631.33308206
1774.16324797
628.526806187
1793.01525158
652.397636021
652.495794149
1792.90410651
652.077858724
1792.64345622
652.240498399
1792.18467982
1791.16735108
651.497238698
651.231288126
1791.97325125
1791.30912616
651.708159841
1794.61198486
1794.83019999
652.43541704
652.269220218
652.517501885
1793.64891955
652.417057712
652.505256812
652.000232714
1792.74699205
1792.91093557
651.583210943
1791.9270643
652.136055792
7298.3106857
3625.863112
51.3630663759
-27.1612670055
3616.94575686
635.623381347
3626.12894107
3624.35877219
650.979236332
651.369717883
650.591837921
3622.64347479
3621.40015074
650.340157243
650.701344685
45.9517822285
50.8238141353
52.7631464956
-22.7929022218
-22.8324565758
-22.7629044446
54.4815185265
55.0738951853
1778.00488265
1776.24571559
634.962009759
638.859986995
1775.51252928
638.295077652
1778.80442484
1789.52051343
1790.41395546
651.097732771
651.061298288
1789.62943392
1790.45692992
651.145405271
1789.60179678
1791.44873867
651.137034432
651.037794519
1790.86605766
651.077735632
1789.79159922
1788.21300696
1786.17038918
650.950450172
650.777547928
1786.78192251
651.110481705
1787.96752629
1784.98186941
1784.86817948
650.69030895
650.291255048
1785.62506381
650.670282647
1784.22332639
1784.68697337
1784.03664354
650.767964587
650.428369887
1784.56498763
650.734235347
1784.00405386
3653.32285195
3649.20799833
3648.84557896
3647.28849791
10.6646656372
12.9846520175
8.72759175117
10.4892456291
10.3196721818
-27.1141425464
-27.1803408465
-27.099165358
-27.1205214173
-27.024346236
-27.0421697228
3654.81241266
3654.13136769
623.055697704
622.449227092
3656.1692811
623.798669784
3652.22127733
3650.48458115
621.972551383
620.268486953
3654.15746125
3650.87402744
3650.98439379
623.133123229
626.123776455
620.962899521
622.70506106
3650.42393439
3648.50820092
626.826172457
628.144973119
623.340210415
626.148405138
3649.22852265
3648.20380179
620.112539913
621.775863515
619.82200487
3647.83717241
3647.99852937
3647.49502933
622.460940393
625.838898771
620.821034247
625.851598299
620.657115997
626.177822252
9.57035146865
9.51725549523
11.2374550608
-23.2147885904
-23.1973685687
-23.2131903923
-23.2038006543
-23.1924335011
-23.1288241415
-23.1922823667
-23.1363468638
9.34539109058
9.00794648571
11.8690311076
9.89791016575
10.5774819135
-23.2137666062
-23.2080989271
-23.2213920559
-23.2169906767
14.0728596382
11.5052709726
12.9961330988
-23.1892372935
-23.1524684165
-23.2026122337
-23.1763873004
9.39305591764
8.57308238773
-23.22354065
-23.2171957463
-23.2047449301
12.3699961384
10.0896196276
12.2660268272
-23.1996682492
-23.1710884081
-23.19154894
-23.1585695773
1816.10937419
1817.34300769
621.680243943
622.99666665
1817.2014837
621.516671937
1816.24031332
1815.86812508
1816.25249735
622.814696058
621.276957442
1816.8402314
1815.39838747
621.440536511
1819.05745843
1817.17951603
624.362806499
625.024334104
1817.94532784
1818.06038654
625.695813606
1814.09689106
1815.47149888
620.961425841
621.45688531
1814.75573154
1814.68196927
620.544493079
1813.44321509
1813.25312499
620.928227495
619.56765587
1813.90146746
1812.83692067
620.18992584
1815.82191406
1816.20051688
624.192264564
622.450691163
1816.90487993
1815.2554626
623.3133601
1816.32733737
1818.19750043
625.190851402
624.947715318
1817.58884603
1816.75977692
624.172271329
1814.80690144
1813.63061823
621.74516644
621.574570148
1814.35874426
1813.94738637
622.458284265
1815.17018045
1814.47354031
623.792793262
622.083155945
1815.48526009
1814.20442548
623.110128977
1816.67313172
1818.54622252
627.452175269
625.609938637
1818.49600415
1816.88297295
626.277578087
1815.94171707
1815.79590906
627.87202716
627.48452427
1817.61833456
626.920259312
1814.79720961
1815.35843231
1814.53760402
624.40360661
624.159508266
1815.50191607
1814.56577872
625.15971894
1814.89684522
1813.97492317
626.651351433
625.084819144
1814.31448788
625.868174111
1814.24599643
1812.62031472
1812.93479584
620.676266222
619.233850085
1813.22083831
1812.35167628
619.791521549
1812.83042721
1813.67472872
621.127092508
621.011972593
1813.4487455
1813.0141759
620.305938008
1812.24409627
1811.91766481
620.282550023
618.935672336
1812.45204583
1811.68031769
619.520834527
1813.30382112
1813.7875036
623.376845186
621.746396891
1813.8936114
1813.17214957
622.800738602
1813.56819289
1813.81323312
624.532677161
625.68450137
1813.87021036
624.111321333
1813.88084669
1812.95177943
1812.20705233
621.150767371
622.104378989
1812.66885827
1812.60391235
622.317850541
1813.27649737
1813.86296747
625.666872131
623.759285291
1813.05925918
623.797483697
1813.88635581
1812.00957701
1811.75964602
622.105693047
620.766975266
1812.25009336
1811.40575724
622.359660042
1813.85667855
623.917762981
1812.88950358
17095.0489459
17094.0618978
17094.2229019
17094.7164128
17094.827487
17102.0517257
12196.1432656
12195.8295807
12196.5318619
12196.3110193
12196.0118808
12203.2732402
18312.4384164
18314.8857683
17087.2283738
17093.1594882
17098.3545281
17102.2295387
17107.5903985
17096.0990147
18314.0086242
18315.5928401
17092.3933353
17094.6466805
17096.8266458
17097.3445851
17096.7109722
17104.5370093
17094.0519785
17091.5696919
17092.1430946
17093.9311166
17095.7916838
17096.362665
17096.3894062
17105.22844
17096.4926186
17093.6833589
17093.4626027
17094.6593948
17095.6921885
17095.8018763
17095.6037354
17104.3042534
17094.801252
17095.0003926
17095.0037224
17102.9644805
13412.1764816
13413.5948432
12191.6390843
12195.9050249
12200.0171342
12204.911029
12226.2974954
12152.6916052
13415.8849838
13416.0861251
12196.071499
12198.8403694
12199.6368853
12198.4077032
12194.6617248
12187.077417
12194.559025
12192.950556
12194.549608
12196.6291822
12197.963623
12197.4873616
12195.1259083
12201.1414527
12197.2165406
12194.8585494
12195.5373921
12197.1869133
12198.0473983
12197.2998479
12195.8189011
12203.6666565
12197.0286308
12196.6283232
12195.888883
12203.6456696
8511.10548391
8511.70980757
7292.43143846
7298.22867617
7303.07191867
7307.17659895
7320.14853769
7242.99743037
8515.76359487
8515.25503352
7292.52597467
7297.9447584
7300.83986801
7298.54803695
7288.77184873
7277.95285314
7292.77217714
7291.45634603
7295.41057802
7298.871611
7299.98119611
7298.24608687
7292.93214735
7299.56001134
7303.66157408
7294.97720357
7293.63262896
7296.49304874
7299.1506916
7299.52765266
7297.70377769
7293.8447924
7302.04831775
7295.31834277
7297.17161042
7298.88118856
7298.77010534
7297.11253208
7294.56026967
7303.56008092
7296.40360883
7294.45944296
7303.32087898
3613.22561908
3607.52399518
3615.11936236
3625.73537572
3631.21768039
3635.08319643
3637.4070315
3635.58434376
3626.89306448
3614.61773809
3609.61463821
3616.3496404
3625.25499521
3630.09963508
3630.40604289
3625.15545718
3615.78707481
3645.89645239
3633.90866828
3616.4793701
3611.75215573
3619.50422615
3626.66493766
3629.33379997
3627.74986395
3623.46021305
3623.76578841
3633.9685828
3617.58093184
3613.97898807
3621.54462761
3627.57976787
3628.73516979
3626.17208142
3623.2259579
3625.93122767
3615.71984696
3622.41207097
3627.24492433
3627.1169991
3624.86675854
3622.79602464
3625.43905999
3623.27549253
3621.86565002
3624.68697397
33.1472520694
42.2393808244
48.7410606452
48.2956865252
46.8956313732
48.5215335089
53.5898130057
56.4451501778
16.2226774435
24.2625743533
33.4001371568
39.7831426689
45.0008387513
47.3354298704
46.3673348488
48.6714480172
53.6248970333
53.1846170039
15.5479001671
26.453089882
34.675779218
39.2579823049
43.0266692598
45.6874604918
46.3150844574
49.7649047267
52.9566120285
50.2906798606
29.6963514557
37.3357910899
41.3597007285
44.2227031456
45.7834139893
47.4355596692
50.1547187107
51.5048052777
48.9770957206
45.1215368188
48.7074466633
49.1406099074
49.9083474338
51.2812203788
51.4435976225
49.5350534641
53.6510427692
52.7219245927
50.531397869
-27.1634625609
-26.9973654781
-27.0107159939
-27.1330284852
-27.2002771808
-27.0643164243
-27.1898382205
-27.0771788507
-27.1756487689
-27.5800850418
-27.4048014524
-27.4074810838
-27.8669257955
-27.1412379262
-27.3077928509
-27.1569097383
-27.2234606794
-27.1026938868
-27.165605375
-27.4305493779
-27.2479488597
-26.9473559116
-27.1384764959
-27.0736521349
-27.1758239757
-27.1139181225
-27.3834958891
-27.1008100162
-27.1817138179
-27.3581265571
-27.0705954344
-27.3408917088
-27.2013635926
-27.2261033635
-27.041839449
-27.4477430477
-27.1047566541
-27.1943916513
-27.3680571661
-27.4167393242
-27.2697221995
-27.4737012501
-27.2479636999
-27.1159411736
-27.1652172421
-27.4946082175
-27.0938775096
-27.215484479
-27.6673685282
18313.8050116
18312.3041911
18313.866972
15862.6658426
15864.0624618
15863.0858044
15864.1675994
18315.5366576
18315.283912
18316.1888992
15865.1419841
15861.8689856
15864.8735159
15864.0537963
18314.5234718
18316.3606063
18315.6303211
15864.7580885
15865.4626946
15866.8769427
15866.5087832
18316.2330064
18315.917838
18316.5644917
15866.0864043
15866.1249878
15867.0292652
15867.9463598
13413.1325453
13413.3977135
13413.844854
10961.3241113
10962.0901148
10963.0227451
10963.3730362
13414.1692542
13413.9532793
13415.3646376
10962.5888952
10963.3055977
10963.5884374
10963.937381
13415.8935243
13417.4004519
13417.0522683
10965.9600321
10965.9340681
10967.6424049
10966.7555004
13416.3544379
13417.2140533
13420.6614436
10965.8793522
10962.8864576
10966.2523018
10969.299125
8511.31219413
8513.22200361
8512.99295126
6061.7984291
6060.50339557
6063.58521265
6061.91491555
8512.55068912
8513.0432962
8514.04736423
6060.31282449
6061.44194543
6061.33308862
6063.59244187
8515.33317906
8517.32351804
8515.97813243
6065.40227808
6063.52663441
6066.64722924
6064.1375418
8512.62866932
8515.51379553
8517.95519588
6063.05793962
6063.26923769
6063.68662004
6066.5199251
3617.35925973
3619.21752371
628.957183274
627.855590272
3609.26423361
3614.35428837
3610.18292328
628.216166694
622.657685859
626.679339071
622.331744088
3609.50190128
3608.50897588
3610.38288837
621.557727446
633.675880007
621.632979885
632.921675171
3621.19408873
3615.49580009
3621.11566833
638.727837519
650.335156485
637.478599206
648.950317294
3628.78631755
3625.3592401
3628.31774878
650.885335937
651.702887017
649.443439067
650.520091357
3633.3623406
3630.68153687
3632.46589117
652.107222319
654.84008185
650.931247748
653.000893582
3636.22628064
3633.27199134
3633.16752663
655.695484183
656.665869701
654.1809054
654.892870978
3635.86646134
3631.17262994
3624.35817129
657.124102262
660.770445688
654.667185808
654.3505289
3589.4388598
3610.34635364
3605.32662018
663.055347416
618.35902751
654.552855361
635.666792694
3645.00953344
3639.48192478
628.8229223
629.826577764
627.521849788
632.704742526
3620.20903865
3631.50353608
3622.68433585
629.533044705
627.796965823
633.559937974
628.379751715
3610.67833632
3615.38928485
3611.3341256
626.194782535
622.231500318
625.60354701
621.779589956
3611.59579981
3610.81419429
3613.68157501
621.808221296
632.788641504
623.358035904
633.310163747
3621.51583923
3618.77950507
3623.71921419
637.1693284
648.540316522
637.158101752
647.545922796
3628.03418235
3626.73085639
3628.52540932
649.05828727
650.321636951
648.475989456
650.075075873
3631.01872062
3629.76983679
3630.18016102
650.786460304
652.731328191
650.727087156
652.39144764
3628.52738301
3628.99218572
3626.60804021
653.877493232
653.871609384
652.605406789
651.139167085
3620.92315806
3623.76472784
3621.21421806
653.531527963
652.797489216
650.867878836
650.424026717
3626.3044747
3618.97967037
3633.67558452
653.032847254
637.503849646
651.170358225
637.057944864
3641.54689784
3646.13022831
3642.13016384
627.489380865
633.69732197
628.71142284
637.508544594
3624.34023761
3634.48000344
3624.73614309
634.651521839
628.45655882
637.509190219
627.676318348
3612.24147157
3617.14212382
3612.91600523
625.309428387
622.106536742
624.377238019
624.368332764
3615.08424271
3612.83946586
3616.39371349
624.308790789
634.020210563
627.601487939
636.50558182
3624.00415672
3620.72962067
3624.93389766
637.459127332
647.092369777
639.34174324
646.734305402
3628.46539142
3627.44105368
3628.87693271
648.227192197
649.991506589
648.101723067
650.521597165
3629.23124475
3629.18202465
3628.46931845
650.791551079
652.030839812
651.252502426
650.528389648
3625.56559575
3627.0245974
3625.05865459
652.025073068
650.525793906
650.23142363
649.343659605
3622.5693546
3623.3472439
3623.25242939
650.331390726
650.201747456
649.221770082
649.131339096
3637.3703427
3625.27094821
3637.5775918
651.15742399
636.18706516
650.242725881
634.538919651
629.376681728
638.390751394
3624.49677839
3624.03560827
637.880577675
627.463345254
628.857256161
3613.82987283
3617.91993406
3614.85537136
624.436529316
625.55627245
626.721933237
628.843748012
3617.55903637
3614.93845312
3618.34242007
628.882470737
637.727127364
632.579958084
642.055988721
3625.31871795
3622.05309956
3625.50089449
640.482181944
647.35433301
644.600137314
650.173459599
3628.90207303
3627.56384284
3628.40594383
648.580550817
650.914853744
651.21587252
651.308088486
3627.64196521
3627.99876569
3626.87530678
651.392529463
650.178284175
650.953481363
650.321726644
3624.51590401
3625.53236829
3624.08796048
649.922256535
649.313160719
650.41340036
649.729436078
3623.5453443
3623.10713194
3623.55749196
649.1659716
648.715974353
649.29232069
648.026042793
3637.09961233
3625.71404977
3636.12356994
649.773993284
633.911839267
648.81298347
631.488172578
3618.99317189
3619.91636945
633.30201666
643.028204057
644.928622853
3625.57849235
3623.02261731
3625.69355387
645.654170725
650.928850695
648.026046202
652.114020012
3627.54813734
3626.9571136
3626.92933335
651.811199633
650.974624852
652.227040291
650.880909031
3626.19642736
3626.34714615
3625.34276394
650.689731877
650.651838437
650.832081396
651.155584732
3623.55636733
3624.0507768
3622.87214451
650.641816028
649.87935793
651.078172818
650.314619939
3623.38532615
3622.33943945
3623.12236148
649.376880049
648.012838405
649.653393065
648.647465865
3635.1347531
3625.11426073
3634.09327616
648.777310105
631.147575898
649.073675664
628.869370162
3624.64067442
651.150371873
3622.11582837
650.993908623
650.487508955
3622.84803954
649.832591808
649.148296161
3633.1652552
649.398470525
628.637286605
-23.0704395106
-23.020462108
-23.0862608384
-23.0309550616
28.7121154941
28.5526265564
-22.8900375879
-22.8714517911
-22.9124817025
-22.8517032865
38.1226234178
33.0409927482
37.7098329757
-22.7448311269
-22.7251136555
-22.7171541924
-22.6805737115
46.3772998135
41.2599612408
44.8098659282
-22.7060752027
-22.7524991981
-22.7050393541
-22.7655084257
50.4421569378
46.7969304377
49.2227778916
-22.861523998
-22.9478741112
-22.8813762516
-22.9452520204
47.595546864
47.5947281859
47.0809713224
-22.9906182423
-23.0505505806
-22.9480376553
-23.0127369997
47.2981502218
46.4241312053
46.8076965192
-23.0496907448
-23.0221664064
-23.0091632765
-23.0019538679
50.78928306
48.4617133939
50.7794868972
-22.9715637086
-22.9296277737
-22.9540540042
-22.9246867485
55.9781641606
53.5272089702
55.7789656173
-22.8514595063
-22.8752351161
-22.8384000389
-22.8697860652
58.3584774763
54.6992231214
58.6980232075
-22.9756749692
-22.9598855561
-22.997339076
-22.977922326
19.8150041655
15.6703039224
20.1070259403
-23.13620669
-23.0725619873
-23.1436157359
-23.0679620724
28.8614487375
25.0604099488
29.6927355962
-22.9981820035
-22.9545043134
-22.9993034716
-22.959588965
37.3515773888
33.8741337822
37.1174733275
-22.8665891728
-22.902955378
-22.9215631237
-22.9557008018
42.8541810914
39.0849032486
41.7397316697
-22.8663717108
-22.9003557316
-22.9084704498
-22.9369557991
48.052553404
43.7324429713
46.6635068278
-22.9589182771
-22.9894779952
-23.0132453755
-23.0504078647
46.9520297097
46.5878723657
46.3064812813
-23.0244400516
-23.0209529891
-23.0834488962
-23.0604608397
46.7110077441
46.4772053081
47.0937059965
-23.0127619273
-22.9970773563
-23.0216320168
-22.9728169501
51.126125831
49.3740551729
51.7439943606
-22.9386410305
-22.8827603285
-22.8918722606
-22.8321309236
55.2246862347
53.5078928448
54.0085960355
-22.820196655
-22.8626655306
-22.8030803644
-22.8586845183
57.3716712289
51.4993049729
56.0768532248
-22.9999929131
-22.9689650897
-22.9925122411
-22.9549341153
20.8053990364
15.650671929
21.7453457563
-23.1308740291
-23.0314727029
-23.1093718836
-23.0181863599
31.072164455
28.2052486693
32.8381111888
-22.9046763424
-22.8384263326
-22.8679607882
-22.7996189075
37.1595209694
35.9589918167
37.7745139734
-22.7790035458
-22.7991293841
-22.7208428516
-22.7494230685
41.3453438278
40.0641540986
41.6325470231
-22.8755283301
-22.9323392265
-22.8660134632
-22.9202848564
45.2163011715
42.9588649313
44.6007688122
-22.9942573679
-23.0330058846
-22.9927340659
-23.0435139896
45.5594979053
45.2372912703
45.3994034354
-23.0590492646
-23.0508737624
-23.089683335
-23.0820272847
47.5656148735
46.5127503827
47.982167557
-23.0453425352
-22.9346017213
-23.0610196903
-22.9068137741
51.9280181246
49.893309329
51.725861271
-22.835153386
-22.7940591183
-22.8046265196
-22.7741442985
52.8940659807
52.199745277
51.7362437977
-22.7925062233
-22.8613875917
-22.7926647556
-22.8627359413
54.9177892822
49.4246456598
53.9521913575
-22.990617881
-22.9518209465
-22.983379082
-22.9438731594
34.3281867922
35.3247130167
-22.8530095268
-22.7742471038
-22.7805625836
39.2398264075
38.5504648453
40.9474802715
-22.7321500763
-22.7743013837
-22.7365195789
-22.7762594295
43.0469453784
43.4653177572
45.5912076511
-22.8676875289
-22.9142080198
-22.8524264025
-22.8925952774
45.5142845792
46.5905587015
47.4012992794
-22.9801704671
-23.0310614235
-22.9434185175
-22.9683100366
45.9291092847
47.3092155178
47.6341798468
-23.0642058441
-23.0458707052
-22.9811429586
-22.959177096
48.8907611466
48.7167308489
49.7527087196
-22.9964793247
-22.8768920053
-22.9182843407
-22.8468975325
51.4534782805
50.6140898742
51.5754838955
-22.7815136803
-22.7638383674
-22.7629671468
-22.7530210546
50.7466536381
51.2595113907
50.5915516674
-22.7963449861
-22.8657154285
-22.7968754353
-22.8658572695
53.1081250035
49.0490799152
52.4471349662
-22.9755737694
-22.9420957171
-22.9685517641
-22.9286000553
47.464282936
48.1171877702
-22.9095359925
-22.9005610248
-22.9042285079
-22.8715237019
49.2786043649
49.9110770505
50.2740930172
-22.9424066966
-22.9490720691
-22.8904657072
-22.8951315858
49.2068392858
49.9943895819
49.9908230883
-22.9706564471
-22.9207682019
-22.9188432239
-22.8992126077
50.6393283698
51.0183563878
51.8783646483
-22.7831486483
-22.7673007763
-22.8027662812
-22.7561388528
52.0700210847
52.5387707463
53.121479998
-22.7326245433
-22.7417495356
-22.7142771987
-22.7254214673
50.7873820391
51.9850751915
51.2760135134
-22.7892720628
-22.8586609891
-22.7805942654
-22.8495186617
52.2804836365
50.0699133432
52.3325239469
-22.9649924012
-22.9030533297
-22.9646729218
-22.9124269542
52.6012049925
-22.7419427536
54.1520527586
-22.7057340928
-22.7158254405
-22.7186374265
-22.7256860482
52.2922588803
-22.7750397876
-22.839392673
-22.7756520006
-22.8303775032
52.7504346919
-22.9710637796
-22.9295752957
-22.9699805049
-22.9458011495
1786.91232325
1782.99822803
628.311268073
628.533177546
1783.13545401
628.000146393
1786.61256923
1787.10519144
1783.21121849
628.104745146
628.351718268
1783.11921614
1787.72893087
627.848760911
1772.45315914
1778.02082079
626.692586221
627.738652778
1778.03600554
626.262953602
1772.3773379
1767.33729285
1762.74627857
624.258081654
622.540674901
1763.18776624
623.980622193
1767.06374325
1772.71705691
1778.2893562
627.265296124
625.613315946
1778.16959067
1772.85025856
625.961877008
1767.79050757
1764.61836061
622.372784455
623.874343952
1763.79654115
1768.16041702
623.850644769
1762.81759315
1761.65602382
624.046385748
621.54677133
1762.17310859
624.176788063
1762.26690342
1765.60110626
1769.74866005
628.600085035
633.411378715
1770.13231287
628.511123556
1765.07953992
1763.78180417
1763.95538656
621.515665444
624.391174676
1762.95983464
1764.83436761
624.235938988
1766.54270706
1771.80374794
633.143283144
628.450195962
1770.88746588
1767.59793427
628.443385517
1780.22353752
1774.86928487
643.236572529
638.29574459
1775.16958316
642.734326602
1779.95114329
1784.90743541
1788.71735462
647.67807196
649.846841956
1788.84838845
647.184818538
1784.66826311
1780.66867234
1776.50834316
637.830313862
641.888383515
1775.74220903
1781.2828049
642.228030853
1785.15600667
1789.12217957
649.31523568
646.448400673
1788.8667216
1785.58023627
646.718121297
1793.15790941
1791.42332035
651.097637976
650.457404713
1791.44596355
650.625346659
1793.28259589
1794.55623657
1796.11022315
651.531426502
651.233867632
1795.88259609
651.007376182
1794.82133086
1793.00618578
1791.46807957
649.825034888
649.76790184
1791.37533672
1792.956832
649.993045447
1794.34762977
1795.52319932
650.771579391
650.206789815
1795.66375011
1794.22981139
650.458104315
1798.48984504
1797.44067461
652.933669568
651.592341843
1797.15957259
652.387591361
1798.74070212
1799.2797408
1799.95116929
653.82276372
654.269545748
1799.69354438
653.24191476
1799.57488883
1798.14485064
1796.74066789
651.214277047
651.444754372
1796.9301866
1797.82312223
651.839511331
1798.82052964
1798.72460041
653.521922128
652.004813626
1799.26668797
1798.36611898
652.491765006
1799.37293194
1799.9538855
656.205463851
655.208705118
1799.64704372
655.826656618
1799.81924967
1799.19131146
1799.68783052
656.386394306
656.202749594
1798.70648751
656.009711578
1799.91633636
1798.85453539
1798.63362757
654.662157922
654.897007694
1799.24792822
1797.95615411
655.398084932
1798.22026998
1795.26112484
655.586691699
654.949656131
1797.20216416
1796.84116144
655.53604923
1797.5708323
1799.68140767
658.150875075
656.459571893
1798.25168971
657.173126327
1799.59838803
1796.52168746
1796.53957927
659.465750679
658.795149071
1793.74167005
658.161390236
1798.99818319
1794.59821025
1793.50945602
655.612622131
654.615656598
1795.92874734
1791.65712653
655.833731654
1792.66496318
1787.14020497
656.293489827
654.560808432
1789.61097799
1789.63569
656.268063316
1781.83752822
1791.28532706
667.041881706
660.180602937
1788.69645596
662.897435301
1783.96759847
1771.10579791
1777.36110244
673.238674118
625.982300411
665.953775323
1784.10813126
1772.84503274
1779.11645899
1783.46016808
656.707887523
657.218315881
1785.00999704
1778.6370274
659.017737005
1769.55492667
1794.47021759
633.206491212
662.230628028
1770.00915901
663.25452216
1789.8869576
1810.96039913
1812.9852133
629.249887449
628.37248164
1809.74898652
629.231843369
1813.12335448
1808.38475809
1802.81706112
629.765804284
630.917104557
1806.58884788
1804.98511055
630.1620963
1811.77062019
1813.37421399
627.810845103
629.212174255
1812.33185942
629.053297271
1813.23203653
1809.66368965
1807.81801176
631.772817393
631.195949733
1806.6364755
1810.59333886
630.514480744
1795.26311484
1798.34619276
629.314535149
631.304198307
1793.53384405
1800.60391141
630.580287918
1789.24384391
1783.12642055
628.856782057
627.884183684
1788.39233058
1783.09280242
629.288587061
1796.73552398
1803.49017124
632.537181337
632.875649381
1802.34794002
1797.6661089
631.840481687
1790.17089538
1783.14225949
628.219516849
630.931107109
1783.24345191
1790.60523433
630.171019129
1772.47636955
1778.10904814
625.085743387
626.098847873
1772.73768742
1777.77485396
624.577872288
1768.30813275
1765.39839711
623.596652007
622.055669377
1768.31333702
1766.07899732
623.125771358
1771.95732969
1776.81933804
625.945752138
623.764357062
1777.34275685
1771.37785842
624.119058058
1768.20275029
1767.54664129
621.736239721
622.323510583
1766.76461775
1768.19148773
622.656259821
1767.40781
1765.02933898
624.72113345
621.977247086
1766.03128493
1766.13951663
624.997578928
1770.07265324
1772.77020125
628.55055285
632.798219368
1768.70917675
1773.93937387
628.759983528
1768.83154836
1768.50852702
622.548932656
626.33289897
1767.30700987
1770.09222258
625.687592308
1771.52897161
1776.46961176
632.997647559
629.740937694
1775.22359018
1772.87458932
629.2288513
1782.68440797
1777.25380413
641.559298895
637.05020233
1781.7915778
1778.24949641
641.389664747
1786.66133123
1789.14086659
646.126640551
648.274182027
1785.89807124
1789.6339244
645.902325783
1783.6651197
1780.43718823
636.983630186
641.282948438
1779.35032971
1784.62871277
641.252397602
1787.50683132
1791.1122196
647.885203344
645.37592207
1790.37299734
1788.31689452
645.605347985
1793.26777917
1791.32686533
649.522940787
648.84703492
1792.93734581
1791.64671634
649.455064337
1794.56688734
1795.44172298
649.988042911
650.274210148
1794.28883036
1795.53196211
649.921507387
1793.69574696
1792.86108816
648.721483162
649.285735427
1792.24710661
1794.14777397
649.38342794
1794.81690774
1795.86015987
650.087517428
649.722576818
1795.62863485
1795.17663521
649.749300723
1797.26072031
1796.53390933
651.293648121
650.723895439
1797.48288171
1796.42721576
651.336502252
1797.52018067
1797.99923558
651.7884662
652.459065684
1797.87032752
1797.32210009
651.762725781
1797.10029864
1796.47938201
650.70161892
651.606642895
1796.39904328
1796.8788594
651.473094822
1797.17032358
1795.78783895
652.548655724
652.144992235
1796.54140036
1796.61213083
652.185370488
1795.44794133
1797.58550846
654.335275906
653.381596948
1796.60541759
1796.63325919
653.642090849
1793.49897149
1793.05268873
654.11534595
652.908001427
1795.07897814
1791.12586572
653.19759266
1793.94302453
1794.56554619
653.097433379
652.147214628
1795.50337686
1792.68401742
652.895717118
1791.84811779
1788.40407568
651.956944324
651.384406014
1789.56781713
1790.53652485
652.248191555
1786.63116418
1790.79863912
653.312599303
652.483010116
1788.5548985
1788.75304224
652.22232865
1785.04635872
1785.11614799
653.004172585
651.631101778
1786.68269279
1784.14933063
651.887033684
1785.67621022
1786.59852547
651.581704092
650.707343834
1787.43317283
1785.29937424
651.325500037
1784.4614391
1784.20789936
650.80779838
650.608954086
1784.01740135
1784.524019
651.082914119
1779.92385531
1782.84765636
656.450790814
652.110694624
1779.41459665
1782.77302554
655.812716873
1773.13921523
1797.49744758
661.893429248
638.198418665
1772.43282476
661.314352707
1798.79980298
1780.64614056
1783.39917476
651.477340215
654.864560271
1783.10583856
1780.95427591
655.340294583
1774.32704288
1798.95039162
637.792781046
659.887968995
1774.28474795
660.884237385
1799.38134464
1813.4640427
1813.52963391
629.463719349
627.798521737
1812.77462401
630.175127531
1813.94965145
1811.9989894
1808.61757068
631.861808796
634.802594005
1811.24605951
1809.21080816
632.857896301
1814.18446087
1814.62460684
628.224900708
632.017746196
1814.68281505
631.111657037
1814.36787188
1812.68241051
1809.77082613
636.106395404
635.697643963
1809.58703024
1813.19940039
634.256840423
1797.96877912
1804.2418785
633.775944895
635.652154149
1798.0842545
1804.52185825
634.488940873
1790.0466436
1782.75124291
631.376697116
628.418305812
1790.59483888
1781.97215206
631.589015229
1797.40952654
1804.02496471
636.593819901
635.466803899
1804.45421529
1796.47183868
635.01911013
1789.15199475
1779.59917711
628.10176846
631.499060309
1780.8792094
1787.96877477
631.600287209
1770.69576681
1776.2846467
623.324987416
625.133059626
1771.00370123
1775.55987524
622.967326154
1768.74616514
1768.39482797
621.983559009
622.543064004
1768.45827518
1768.9334724
621.683235681
1770.44848071
1773.62186733
624.659815748
622.590726472
1774.61297649
1770.34141578
622.602312253
1769.01061813
1770.14826474
623.173538056
622.026718047
1769.63347755
1769.26485757
621.567635278
1772.31926884
1769.55493122
627.397034215
625.261302701
1771.34421378
1769.79043166
628.339537327
1775.4731954
1777.68561414
630.748857358
634.687281846
1774.20968407
1778.9011555
631.682972285
1773.33765963
1771.37558006
626.471017348