/*--------------------------------*- C++ -*----------------------------------*\
| =========                 |                                                 |
| \\      /  F ield         | OpenFOAM: The Open Source CFD Toolbox           |
|  \\    /   O peration     | Version:  v1906                                 |
|   \\  /    A nd           | Web:      www.OpenFOAM.com                      |
|    \\/     M anipulation  |                                                 |
\*---------------------------------------------------------------------------*/
FoamFile
{
    version     2.0;
    format      ascii;
    class       surfaceScalarField;
    location    "5.7";
    object      alphaPhi0.water;
}
// * * * * * * * * * * * * * * * * * * * * * * * * * * * * * * * * * * * * * //

dimensions      [0 3 -1 0 0 0 0];
oriented        oriented;


internalField   nonuniform List<scalar> 
92311
(
0.20283248725
-0.000274140959671
-0.000252115047422
-0.202508077103
0.000201743573163
-0.000345218211474
0.203055418734
0.000361967412901
-0.000239505775165
0.20277844199
-0.000598146386525
-0.000240382378805
-0.202411817742
0.000197617383656
-0.000825905396692
0.203176029195
0.00035850289493
-0.00027530508744
0.202646713578
-0.00025473845229
-0.000323028168512
-0.000102756873481
-0.202150054692
0.000112458496361
-0.000231898407398
-0.000294877020336
-0.000372572612064
-0.000457007786011
-0.000468558800538
0.203437101921
0.000381863671255
-0.00033283835076
-0.000367214634282
0.0505031222001
-7.43423962075e-05
-8.25121182652e-05
-7.29739509716e-05
-8.48568475435e-05
-6.67471987003e-05
-0.0504696309532
9.32547210638e-05
-0.0506239713329
0.0508106452835
-0.00015550895202
-0.000128451669091
-0.000131176093321
-0.000148653753695
8.7073216106e-05
-8.24112831523e-05
3.80743057662e-06
0.000505014972064
5.72691547727e-06
3.02664995175e-06
5.09819352747e-06
-0.000159123822043
-0.000671013720291
5.64519268729e-06
0.000111527937527
-0.000183998855232
0.000158545047045
4.01873977394e-06
-2.06574555875e-05
1.83959199772e-05
1.93613155466e-05
1.7033215862e-05
1.73353588093e-05
-0.000124079925586
-2.71305109028e-08
-1.06123441924e-06
-1.04805109523e-06
-1.14438104371e-06
-1.97888896e-08
-7.82459597511e-08
3.54029110745e-08
-9.87650802968e-07
-0.000107340487438
-0.000123876336571
-0.000127374045167
-0.000107589911702
1.88564478181e-05
3.5241451184e-06
7.48485976865e-05
0.0115488544184
2.50610409418e-05
-2.73126345974e-05
-0.0115830123749
0.0113688921161
-1.18237201111e-05
0.000146614454032
-0.0114409479104
2.5609766616e-05
-2.12013252643e-05
-0.000163030893336
-0.000158731077056
0.0509661361413
-0.000150502962565
-0.000148843020466
-0.000142437844958
0.000151216225795
-0.000173058853076
0.0509206973935
-0.000181382226708
-0.000162915794663
-0.000162732923394
-0.0507331754261
-0.000138876732244
-1.38736038218e-05
0.000149044035832
0.0113051231232
1.54925750047e-05
-1.30632823387e-05
-6.1759633089e-05
0.0127527414771
5.00664885882e-05
-0.000174407181336
-0.0127241689827
0.0127509432432
-6.25220980945e-05
-0.000203832015714
-0.012717848648
-0.000188464118776
0.202977033294
-0.000964911653053
0.000823031846615
-0.202646826645
0.203110069692
-0.000296792781422
0.000865501240514
-0.000623007908101
-0.000105328833457
0.202921901003
0.0011404572419
-0.000846717021576
-0.000282787389791
0.202907137511
-0.00100763506325
0.000807767639426
-0.202612979405
0.203283877801
-0.000617762917912
0.000834124631258
-0.000620811084597
-0.000196347112238
0.203047066774
0.00113742122149
-0.000809495020515
-9.69147172238e-05
-0.000115413382018
-0.000102934728494
-0.000797939133907
0.202627904972
0.000684768870656
-0.202396271256
-8.59788383085e-05
-0.000376434280541
-0.000274693052612
-0.000377699066488
-0.000241090314002
0.203843781368
0.000986487449161
-0.000741119704005
0.0505449147054
-3.28144325136e-05
-1.9411163165e-05
-2.48167996702e-05
-2.58028778844e-05
-0.000182167490004
-0.050539745615
0.000182962003497
0.0510997157067
-0.000167206905821
-0.00013373202908
-0.000126330227221
-0.000121728983409
-0.000115069262441
0.000154053562021
0.000212355453646
3.09593296735e-06
-0.00030168768699
1.6759896926e-05
1.79712174206e-05
1.6073284302e-05
1.70095969677e-05
-0.000226449909788
-7.22870035367e-07
-4.37845697874e-07
-6.05831964654e-07
6.37435492239e-09
2.5201549367e-07
-7.63495113086e-08
-1.6633702348e-08
-5.3199898739e-07
1.49451935125e-07
1.99546902948e-07
4.87056962457e-08
4.26708630408e-08
5.85877521653e-08
4.56964373282e-10
1.73629690742e-07
9.6628823355e-05
-5.27024674594e-05
-5.31814098711e-05
-4.51882304575e-05
-5.87533249621e-05
0.0506050051782
-6.2245317566e-05
-4.08937677789e-05
-4.62807019501e-05
-4.23420322458e-05
-4.80864725845e-05
0.0505372545567
0.000121036346597
-0.0504869320071
7.87925052958e-06
1.75964145941e-05
0.0116389402726
8.81859995154e-05
-0.000107362403433
-0.0116451727616
-2.85217502967e-06
7.17864154841e-05
-0.0116059296804
5.82251711299e-05
-7.09327517651e-05
0.0115747872606
-3.83111432057e-05
0.0125958165892
-3.07341919079e-05
3.41484508209e-05
-0.0126015695183
-0.000196212236724
-8.54332912145e-05
-5.57001838545e-05
-7.94606065877e-05
-5.93349708385e-05
0.0510899706252
0.000211214206999
0.0510773773775
-0.000143623461576
-0.000134803118537
-0.000152466231743
-0.000127890445371
-0.00014272464152
-9.15209494222e-05
-5.57062049462e-05
-8.38908694759e-05
-5.1454477196e-05
0.0510813156384
-0.000158774522965
-6.10571508783e-05
5.05501807222e-05
-0.000153638623337
0.012784272731
-7.07206801854e-06
3.71983790588e-05
-0.0109247804637
-7.29484767914e-06
0.0109223961748
1.58608247037e-05
-5.91588226306e-05
-0.000178942512531
0.0127859576665
-0.0128022491486
-0.000101934754416
0.0128079203623
4.32688452628e-05
-3.75247853178e-05
0.000268047022164
9.15348449661e-06
1.09666104301e-05
7.79665257752e-06
-9.31889759345e-05
0.000113941570601
5.68286032572e-06
4.34993407713e-06
2.16073566099e-05
2.5384202514e-05
2.22104958286e-05
1.9391712061e-05
-0.00021059351337
0.000186243155881
-5.44242943529e-06
-1.73014794258e-06
-2.19460066533e-06
2.39689597532e-07
2.29449899905e-06
-2.93243953021e-07
-2.39269462143e-06
-3.21760939352e-07
4.86204133253e-06
1.63906616297e-05
1.34527343604e-05
1.7370431541e-05
-7.05328290264e-05
0.000120752916394
-1.95681923859e-07
-2.4418205826e-06
1.14656859228e-06
2.47133891895e-05
0.012587886649
-2.05162735978e-05
-0.0125915531475
-0.0125772076735
-9.86711635254e-05
-9.27043909298e-06
0.0125886173013
1.43992647017e-05
2.69546535962e-05
0.000102856346619
0.0114967938044
-2.56183969377e-05
7.15900097625e-05
0.0115686709241
-0.0116040573176
2.42786988388e-05
-0.0125829935633
2.90725006938e-05
0.0115131569044
2.75239541616e-05
0.0126017698068
-4.84430016461e-06
0.0125947591545
-0.000119712968087
4.95876510735e-06
1.99971022746e-06
-1.75469765965e-05
-0.0126101936189
0.0126326327508
1.89651759406e-05
2.55528484844e-05
0.000119804607768
-2.33927911455e-05
0.000153690995026
-0.0114535754166
0.0113759505552
2.44981878324e-05
0.0126208770778
-1.61821408729e-05
2.25501691597e-05
9.46426546481e-06
-0.012652217774
-0.000183867441864
4.03804467299e-05
0.0126884747576
-4.68618577777e-05
-3.31413888213e-05
0.0126597990379
2.78882875746e-05
8.17624619534e-06
0.00017210023681
0.0112259425696
-7.31769818565e-06
0.000158355854949
0.0113091569777
9.37610520006e-06
-3.59509391524e-05
0.0112197177492
6.56126704962e-06
0.0126933783945
3.16509702212e-05
-0.000164595410568
-0.0127274740574
0.0127550833967
3.7783962056e-05
-4.87520238944e-06
-0.0111550820832
0.0110809234299
5.83692979177e-06
-0.0111422763287
-8.1169454463e-06
0.0110645472196
-0.000172977323235
4.57320969149e-05
-5.59605313986e-05
2.4740109642e-06
0.000162809658974
5.3345420074e-07
-2.01376869608e-06
3.33150165514e-05
-0.000222804096165
-0.0127158094215
0.0127530174162
-5.68490303864e-05
-2.33094472469e-05
-0.0111357288523
0.0110509818036
-0.0111488311048
0.0110463899074
-2.80181917611e-05
-5.75308124683e-05
-0.000202386820709
-0.012675501326
0.000220891444566
1.82879402106e-05
-0.0112492845846
-2.2985704879e-05
-0.0126633055513
-5.08248317452e-05
-0.0112230668499
4.68024536578e-06
-0.000280879676686
1.2221331691e-06
2.62023267633e-06
1.76696351452e-06
8.45589017565e-07
0.000720902179205
-0.000816056215426
0.000197122667069
-1.10604129424e-06
2.14419649025e-06
4.79394021352e-07
-1.96066136847e-06
0.000767122016925
3.09865515165e-06
1.12806822448e-07
1.27818514806e-07
7.2418815514e-07
-0.000361104161119
0.000305091499939
-0.000820711752074
3.89065076418e-06
1.77981955323e-06
2.47878805592e-06
1.84497879143e-06
0.000665861417297
-0.000320030794531
1.39960452129e-06
-1.14161620666e-06
-1.3842920765e-06
9.89811646246e-07
-1.26585653102e-06
1.02910973102e-06
3.04112455694e-06
-0.000327996440567
1.92484546531e-05
2.12871267005e-05
2.00938180402e-05
1.76488429179e-05
0.00019536229767
-1.92981851966e-06
-1.41178830147e-06
4.68524925847e-06
-1.64221126996e-06
4.81773268257e-07
3.13215618905e-06
-0.000212335381653
1.22278735279e-05
5.9467290704e-06
5.92821538187e-06
1.14089606995e-05
-0.000405474230094
0.000172042604107
-2.3001542861e-06
-1.28456219553e-07
5.24879213724e-06
3.37354350929e-06
1.11674246611e-05
7.07708475779e-06
1.18741583966e-05
-0.000381603020298
-0.000255350647181
-1.7027911663e-07
1.20978683446e-07
-3.15942620213e-05
-0.0126130168091
-3.70019903229e-05
0.0126129599854
3.58762355713e-05
0.012621457311
3.98006429267e-05
-3.71975137989e-05
-0.0126259481249
2.98665735574e-05
8.0085103542e-05
0.0116288862804
-9.70271607119e-05
2.42061855117e-05
0.0116320309138
-0.0116350452895
7.2138012627e-05
0.0126204915742
-2.55611663734e-05
-0.0126167404896
4.19324682035e-05
0.0116241241842
6.35241338593e-05
-2.40995302829e-05
0.012611746664
-5.77737549586e-05
3.04082206949e-05
-0.0126201463804
1.2511699764e-05
-2.187436659e-06
0.0126286162256
5.36371806853e-05
6.65965946489e-05
-8.36265311983e-05
7.26890862427e-05
-0.0116008015579
4.07775552049e-05
0.0115704660796
-1.52320502804e-05
1.83681327988e-05
0.0126201571218
4.98091649861e-05
0.0115987032151
-3.5021278224e-05
2.81519345821e-05
-0.0116176044673
5.63230106744e-05
-3.03122380553e-05
0.0115730508274
2.7739810291e-05
-1.97778180057e-05
0.012601116731
2.48439677042e-05
0.0126051691419
-3.90986669171e-05
-0.0126086330019
5.53580706354e-05
-0.0115979879294
0.0115748823836
0.0126111388993
-0.0116103495393
-0.00014408519698
0.012785596333
3.89438750648e-05
-6.52496274914e-06
0.0110135276867
8.49115141283e-06
0.0109987793242
-6.98978206471e-06
5.12752438389e-05
-0.000124952601916
0.012794819033
-5.76450515144e-05
0.000117919997222
-7.42636695988e-06
0.0109608458117
1.17451184138e-05
0.0127969106377
4.35782399224e-05
0.0109507471625
-4.68209131583e-06
5.19594347471e-05
0.0128020751867
-9.04077421096e-05
-5.35881996541e-05
-0.0128036458449
-4.9504590116e-05
0.0127845012362
5.00680996603e-05
8.39210041175e-05
-7.43696252287e-06
1.35746612757e-05
3.9465976034e-05
-0.0109168678391
-1.04496853111e-06
0.0109123060197
4.99550291461e-05
-5.03166443728e-05
0.0127830886389
-2.78810402077e-06
-0.0127909919351
-0.000148325441626
5.04717368539e-05
-4.69275742805e-05
-0.000193491886952
-5.4537222425e-05
-1.86004008399e-05
0.0109804522793
0.0109588391243
-2.62801354294e-05
1.58758421348e-05
0.0109028057653
-1.97925795608e-05
-0.000144860700739
0.0127970018001
0.0109317610834
0.0108705483288
1.00543577088e-05
-1.26899102612e-05
4.05437735699e-05
4.75531284702e-06
0.0108700354505
-6.83561121786e-06
3.96543120446e-05
0.0127857586031
-3.23295248413e-05
0.0128044970328
-0.000100850759075
4.17292321156e-05
-0.0108988009683
0.0108957144065
0.0127843141785
-0.000112246442501
-5.70065338892e-05
4.18648797147e-05
0.00122454926985
0.20337270538
-3.259389393e-05
-0.000790009799096
-0.000189653889785
-1.26740232986e-05
-4.17877983212e-05
-1.12429876573e-05
-4.49248561246e-05
0.000222925909654
0.0510550616079
7.93073342217e-07
0.000182374163813
3.65653787521e-06
-1.19465014142e-05
2.34795307096e-07
-1.4682834749e-05
-0.000238021683297
-0.000446415778866
0
0
3.66879233525e-08
0
5.21731480542e-27
2.18998288128e-08
2.5716845107e-26
-7.04891385233e-05
-6.98395580306e-05
-6.84121392677e-05
-7.46028483704e-05
0.000212952856314
-3.80606584789e-05
0.0505790280063
-4.56860053698e-06
7.55604447619e-05
-2.40633905083e-05
0.0115371127547
0.0510347902195
7.26082854328e-06
-3.7824020966e-05
-3.55149825872e-05
1.05494123657e-05
-0.000144749570762
0.050897482631
2.0053795329e-05
4.71900157067e-05
3.6921237902e-05
2.43067072687e-05
0.000208884479178
-0.000158179149525
2.42639786417e-05
0.0109137563972
-6.45579282188e-06
1.67137875518e-05
1.16971807297e-05
2.20769779278e-05
1.3388226232e-06
0.0108577357075
-1.26097462632e-06
0.0108112841335
7.85623803642e-05
-6.46094040485e-05
5.50521142354e-06
-0.0108238807047
-1.21003793967e-05
0.050765600352
4.60592143153e-05
4.31867874737e-05
3.39848944097e-05
5.34157877787e-05
-9.42059373709e-05
0.000232405165295
-0.000182927182087
4.48698109127e-05
4.47003666067e-05
3.87772340254e-05
4.93128318964e-05
-0.000123908275186
0.000252996337476
0.0506712803034
-0.000212351225142
8.07346132264e-05
-6.09871577028e-05
6.85411150114e-06
0.0107956841178
-1.43537476699e-05
4.61166168332e-05
-4.91758382914e-05
3.78970398353e-06
-0.0107837552508
0.0107743416591
-2.35062781203e-06
3.40319669865e-06
5.79466095357e-06
5.20896425425e-06
-0.000203451599624
0.000562329719139
5.4233449503e-06
-0.00044606195612
2.56974066259e-06
-7.53064856611e-06
-3.46519080313e-05
-2.45527233667e-05
0.000135929300973
-1.46075259456e-06
-0.000302393505243
-5.46484727561e-05
-6.84508711113e-05
-5.12202918456e-05
-0.000152269496052
0.000116599417396
1.26536140875e-06
1.68207908638e-06
5.29800264289e-08
9.38767287447e-08
4.1875752923e-06
-4.14079403572e-07
1.93582119981e-07
2.37027559421e-06
-0.000143939792542
-5.95578399841e-05
-8.49866865105e-05
-6.76215406386e-05
-0.00016110605123
-1.38530935722e-06
0.000177977574426
-4.14788033727e-05
-5.15978120153e-05
-5.09537269039e-05
-0.000206099835928
-6.27405758754e-07
-7.75324937038e-05
0.000257510869771
-0.0126113553549
-8.54745086634e-05
-4.51983038484e-07
2.96242826938e-06
0.0126243950326
-1.3787588858e-05
0.0126005480049
7.07622632799e-05
0.0115350411783
-2.91468842932e-05
-1.92194535771e-05
9.36413688347e-05
0.011488567632
-1.13552452008e-05
-1.61335573477e-05
0.0114873077203
0.0126148932827
4.95904662676e-05
-0.0127606661795
6.75219460943e-06
-4.66418911351e-05
0.0127382479999
0.012762979055
-4.92275185225e-05
5.31864354095e-05
-4.19094051882e-06
-7.84920458411e-06
1.5581162536e-05
0.0109077493279
2.47677463775e-05
0.0108951149421
6.75867066232e-07
5.51843843282e-05
0.0127418634116
-4.70218347738e-05
-1.47789686378e-06
0.0108904649135
-0.0127613443675
1.15642444356e-05
-3.00981740973e-05
0.0127408749395
3.3658999373e-05
0.0127629053475
-2.65204580476e-05
2.57291715746e-05
0.0108818315845
1.95988565072e-06
-2.46251712254e-05
0.0108518796147
-2.74235377416e-06
0.0108765524509
0.0127410259935
-2.19363696497e-05
0.0127214244599
2.27205526013e-05
-2.8862605731e-05
4.58433745884e-05
3.03461689426e-05
-0.0127193725763
0.0126967411123
-2.53442624366e-05
-4.02648462499e-05
-0.0108491716377
0.0108372861898
6.37010714239e-06
5.45155646432e-06
-3.93450224578e-05
-1.11303796875e-05
0.0127007994584
4.76177266384e-05
6.66113123586e-06
-2.22245308928e-05
-0.0126805087177
5.30026322862e-05
-3.83600440001e-05
0.0126582832111
5.36767457375e-05
3.26845509912e-05
0.0126734939994
-2.72931447328e-05
-3.86269132848e-05
0.0108198597431
7.25855591699e-06
8.11509501658e-06
-7.02404581175e-05
0.0107788900609
-1.20505025336e-05
4.8369014787e-05
0.010794347135
8.27264714836e-06
0.0126508958375
-3.24116004978e-05
0.0126356929197
5.37029284061e-05
-4.62715161382e-05
5.9937495525e-05
5.21207228943e-05
-0.0126295065697
0.0126178184859
-4.51294431781e-05
-3.84031139122e-05
-0.0107843902349
4.42483550659e-06
0.0107723014568
7.74736759351e-06
-6.26413386496e-05
-1.10735860654e-05
6.42061499014e-05
0.0126238165892
6.16919652503e-06
-3.83842632632e-05
-0.000573367046268
-0.0494941086264
0.0494443255627
0.000729834083201
-4.00952835813e-05
-4.66487197718e-05
-3.2523085734e-05
-6.18179749559e-05
7.45396627254e-05
-0.000792072138627
0.0500219932589
7.4332040093e-06
-4.48367254906e-05
-8.22716101022e-06
-3.54053486995e-05
5.38171448101e-05
-0.0499029934863
0.000700390879515
-0.00115156867516
-0.0501106855005
0.0502326089968
0.000899595992913
6.52989345407e-05
4.72076275207e-05
5.4029076036e-05
5.26542856397e-05
-8.92131969483e-05
-0.000669472284397
3.43483551873e-05
4.05589599697e-05
4.38549105881e-05
3.07358264861e-05
-3.89755783285e-05
0.0503296861166
0.000492420522133
-0.0502631521143
5.5483191351e-06
-2.44356453385e-06
-0.000683632833248
0.000639329450844
-2.33027821048e-06
1.2413285383e-06
5.2023837904e-06
7.39925009191e-06
4.1497566429e-06
1.36310810464e-08
-0.000634482040395
0.000683436413511
-8.14503473216e-05
-3.96013552607e-07
-8.20918013708e-07
-4.46509372501e-05
-3.09669029144e-05
7.10567976588e-05
5.05014451765e-07
-3.42740839034e-06
0.000520564713911
-2.49463123313e-08
-2.30321733142e-05
-6.01719262042e-06
-4.20795325574e-05
-0.000557018949542
4.97434273959e-05
-5.26410006901e-05
1.63649108778e-05
-0.000589511332808
0.000768034862904
0.000103057309597
-3.94162861766e-06
-5.50510174582e-05
-6.56648008071e-05
-8.19815732924e-05
-4.84092297702e-05
-0.000239646815218
-4.9408115972e-05
-3.41937481428e-05
-2.57035935529e-05
0.000707641909332
0.000299320529618
-2.59144817776e-06
-0.000600737092408
8.10577808856e-08
1.45682379701e-11
2.53529962785e-08
4.26121399721e-09
1.78135027623e-09
8.53959024573e-10
1.25533087503e-09
-4.06012057071e-27
-3.13823652371e-07
-3.31806158127e-07
-1.13559986496e-06
-4.90412951203e-07
-1.05774882765e-06
8.91636879717e-08
-1.01652569378e-07
0
-1.51790104845e-09
5.21634516044e-09
4.59839821409e-09
0
0
-8.28227408811e-09
-1.43289219415e-07
-1.83185394344e-07
-3.04116625235e-07
1.32294469766e-07
5.80605757021e-08
1.90149877298e-07
1.21283577087e-07
1.7387880611e-08
1.91715360012e-07
2.79779445944e-07
-1.07300047194e-07
-4.80754001205e-09
1.99536538472e-08
1.86432545981e-07
1.17861046214e-07
2.77014175176e-07
1.91956031102e-07
8.97835103469e-07
-3.95638490745e-07
0.000185906523043
-4.02017396591e-06
-1.41049616786e-05
-9.40287623646e-06
-7.96412110475e-06
0.0490538923411
0.000146424682971
-2.26104847628e-05
-0.0493280901105
0.0491504190418
0.000344690555095
-1.15528380158e-05
-2.7118668755e-05
-1.6311128179e-05
-2.59854201737e-05
0.000149108913064
-0.0493774054226
-1.38736670459e-06
1.23461929725e-05
-0.0117412904695
2.09128881723e-05
0.0117166582908
8.46325667643e-06
0.0116959793042
8.37321361251e-05
-3.3898052164e-06
4.6244035449e-05
-6.28934350758e-05
-0.0117302277261
-8.68149693273e-06
-2.44942906845e-05
-7.22832514567e-06
-1.37744517979e-05
-0.00030371003874
0.0123006452166
0.0122557215436
0.0121647513527
0.0122135335285
2.42974057224e-07
0.000102685672407
-5.37549530744e-06
5.70849113802e-05
-7.5322990941e-05
0.0116553807533
0.00049876156668
-6.80831480445e-05
-5.48241830405e-05
-4.88951587081e-05
-7.35785346592e-05
0.000133040807607
-0.0495356716731
0.0497045248667
-7.66984754104e-05
-8.01294493969e-05
-7.98392799223e-05
-8.29940165936e-05
0.000163895394023
-0.0496757112884
0.000626059623898
0.011653887102
-5.70043838716e-06
9.15517408814e-05
-0.0116974100296
9.08831427562e-05
0.0114923440814
-7.63622321793e-06
0.000111454384863
-8.11751369404e-05
-0.0115276679758
6.38407216791e-05
0.00102301487732
-1.80886274851e-05
1.65947742979e-05
-3.75534274228e-06
1.50615633881e-05
0.0493836738024
-0.000226516613398
-0.000186113314159
-0.000229775477282
-0.000185236031864
-5.24386901003e-05
-2.5500348825e-05
-3.95477282216e-05
-2.70819245924e-05
0.0497448488796
-2.86053456004e-05
-5.96659724795e-05
-5.61874302564e-05
-2.71400009468e-05
6.90408133986e-05
0.0498831509992
0.000950108804902
-1.52924675805e-05
1.73995751485e-05
1.36423927582e-05
-3.41413415825e-06
-7.78658768674e-05
8.32514182999e-05
0.0116146226122
0.000111313235237
0.0115441669135
-3.24444168231e-08
-4.21185231793e-06
-0.0115589912051
0.000164520250463
-0.000159304224609
8.64275950298e-05
-2.85146913724e-06
7.42516133496e-05
-0.000103506433093
0.0114600965085
0.0114426795794
0.00012182371369
4.56231404013e-05
-2.41083257076e-05
-0.000147883413355
-0.0114449393142
0.0500200545147
4.93433202228e-05
5.01143823314e-05
4.64436639312e-05
5.93955747615e-05
-0.00127917851845
-0.000214741113112
0.00130154013862
6.68560190021e-05
7.14728616292e-05
7.37239721468e-05
6.31980128544e-05
0.050490463668
-0.000370775337164
-0.00167666008825
-2.75367933959e-05
0.0115540886612
0.000180130576197
-0.000169172084581
-1.02459893958e-06
-4.77653934048e-05
-0.0115838374279
0.000190552614883
0.0115821336824
-0.000192852583909
0.000132971836285
6.15370074866e-05
-6.46789597751e-05
-0.000158714247341
0.0114543121524
0.000151983772588
3.63373769514e-05
-6.63242783327e-05
-0.000169310375848
-0.0114911824387
0.0115292226523
0.000798663937939
2.38920544101e-05
2.25778425193e-05
1.16369473037e-05
3.71513568869e-05
-3.25570707686e-05
0.0502064425246
3.24709993159e-05
4.06127404331e-05
4.07053938166e-05
3.11449739768e-05
-2.44002637922e-05
-0.0501483078451
0.000620021767767
3.70159163935e-05
0.011441683673
7.83240125651e-05
-0.0114680898062
0.011428751898
3.61238704622e-05
-3.84755197236e-05
-0.0114254809353
0.000116991858269
0.0114444837806
4.8775827446e-05
-6.79354772977e-05
-9.9741706962e-05
-0.0114340002606
0.000104304244092
0.000975300266795
8.02601325805e-05
6.65192218765e-05
6.74863108111e-05
8.17480244346e-05
0.0504409100185
-0.00017810716673
0.0503092181933
6.88248403344e-05
5.36093607886e-05
5.69033576305e-05
6.02049109885e-05
-0.000112256214792
8.60440415623e-05
7.63898090834e-05
7.41486244465e-05
8.76360344279e-05
0.0504176692174
0.000705022627372
-0.000162490162082
-7.2623512827e-05
0.0114409950853
0.00012626424079
3.82637686155e-05
-8.24726322997e-05
-0.0114756637414
0.000150214363559
0.0115136303361
0.000115350080871
5.97642981089e-05
-8.16729806385e-05
-0.000112925003156
0.0114526949646
0.000149417979802
6.01985758453e-05
-0.000103827829742
-0.000141249869791
-0.0114819002677
0.0115051444963
-6.96705141633e-05
0.0114698573734
0.000117838011049
-0.0114599521888
-7.66954353034e-05
-0.0114998512977
0.0115175517513
5.48151857819e-05
0.000144089247427
3.2094399048e-05
7.62930035905e-07
3.32192268461e-07
1.75408336827e-08
0.000754663673152
-1.00058369332e-05
-0.000751529090989
-1.03147202215e-09
0.000738015581039
4.21993950352e-05
9.88180167555e-07
1.73508917611e-06
2.87377315895e-07
-0.000744904221491
3.12605904374e-07
1.16515835935e-06
3.03658348516e-06
6.22495630541e-06
4.83007860543e-06
-6.21022990881e-06
0.000713592591259
2.35809029632e-07
-2.33889022514e-08
-9.15958114823e-07
4.91382821481e-09
-2.22358200605e-08
-3.80189826634e-08
1.01436547767e-06
-1.21970078e-06
-3.58215914011e-08
6.31378897119e-07
-1.92799034587e-07
-6.34433351488e-08
1.78050909542e-06
-2.59002496803e-07
-9.5949831464e-07
2.86741097705e-06
-6.78581180673e-08
-5.016933532e-07
-2.54257133093e-07
-1.77439223015e-07
3.49413247068e-06
-1.72858576557e-07
-7.91350475941e-07
4.31325323684e-06
-3.95654892347e-07
-4.52997115209e-07
-6.11547296758e-07
3.99330725627e-06
-4.38546871634e-08
9.27141187244e-06
4.02865523805e-06
8.81002839331e-06
6.87134918512e-06
1.74934975385e-06
-0.00071922003144
0.000591424010931
8.02951572421e-06
8.94965189649e-06
7.13833576293e-06
-0.00065194267191
1.51778733238e-06
-6.37948932055e-06
-3.84021326548e-05
6.49736499646e-07
1.83931333755e-06
-1.43336628299e-06
2.0511066407e-06
3.49039758754e-05
0.000543917683984
9.15333565291e-07
4.72546131347e-06
5.78914877104e-07
1.36149016633e-06
-2.35071525882e-07
0.000567903512032
-1.25506878763e-05
-2.68863938529e-05
-2.47838879511e-05
9.02207699606e-08
1.53065727014e-06
-3.92783010051e-07
-5.61693796569e-07
-2.44837710701e-07
2.66434555416e-06
2.46866481476e-06
-3.87970566314e-07
-1.53630491658e-06
3.20297700498e-06
-9.9710984098e-08
-9.1963241906e-05
-5.86490487856e-07
3.89444145185e-07
3.28431575828e-07
-3.38051579977e-06
0.00071807013234
7.29735480952e-05
0.000717856586192
-3.09185873488e-06
-3.82257670012e-05
-7.29060378633e-05
-3.0767214701e-05
-3.74707059019e-06
-2.97788408461e-05
-9.98482889738e-06
-5.76512558601e-05
-1.73301841145e-05
0.000793372649983
4.33960627613e-06
-2.36340563337e-08
2.10125487003e-07
3.90487199896e-06
3.80972552654e-06
1.86145056351e-07
6.82978430818e-07
3.81523187472e-06
7.11930364561e-05
-1.60415448895e-06
-3.31419338707e-05
-7.10176515457e-05
-6.9458122701e-05
-2.14605156605e-06
0.000620309667426
-5.97732362493e-05
-4.84494367636e-05
-6.36475385771e-05
-0.000541986803698
0.000181334479298
3.07640321906e-06
-2.28217909803e-06
-1.54557795483e-07
-3.15599383455e-08
3.63422761918e-06
3.61710919004e-06
-3.07878356057e-06
-7.34309208067e-08
0.000106737493532
-4.91618769242e-06
-4.73895623277e-05
-8.13034354712e-05
-8.79231747191e-05
0.000899713792655
0.00078204040091
-3.61436817716e-06
-6.65549329201e-05
-6.5190026428e-05
-8.18577258997e-05
-4.2798417637e-06
-8.77044354812e-05
-6.38885593249e-05
-9.12390253124e-05
0.00091576350591
0.000278370070377
3.3721643441e-06
1.37267360822e-07
3.64495059247e-07
4.07341756344e-06
3.23064967974e-06
-1.12974089437e-07
3.90663560173e-06
-2.22728461759e-07
0.0123441178353
7.25796627684e-06
-2.34457524848e-05
3.0312417164e-05
-0.0123623350096
2.93011561828e-05
-0.0123392368029
0.012317633877
-9.00415996076e-06
2.21001927296e-05
-7.09953422776e-07
3.9178789355e-06
-0.0117561674115
1.97037873283e-06
-0.0117469646107
4.29529250772e-05
0.0117274883792
4.32317617039e-05
0.0123227176613
4.29247351214e-05
-0.0117604370688
-1.1177493827e-05
-0.0123602852273
0.0123550281373
3.6395160347e-05
-2.95441936864e-06
-0.0123697531716
-5.65694499456e-05
-0.0123731071147
0.0123711451709
7.78305908355e-05
1.62526840391e-05
-0.0117461121115
0.0117209328786
3.29244426812e-05
-5.91633114615e-05
7.11864748779e-05
-0.011753993426
0.0123420554477
5.16164982212e-05
-0.0123813894301
-0.0117609563094
-0.0123345634195
0.000117971838878
-3.44235216541e-05
-8.35851625316e-05
0.0123260179844
-8.17479929662e-05
0.0123716398651
0.000114041330935
2.56206540246e-05
0.0116893967387
-4.58653078706e-05
4.34161331477e-05
-9.22140928739e-05
0.000125048492601
0.0116237895454
-5.58550451367e-05
0.000153183507411
0.012366398905
-5.46087633385e-05
0.0116522812446
-7.85654723886e-05
0.0124324559733
-0.000112651183873
0.000109923564065
-0.0124187751252
-0.0124006122285
0.000106897175591
0.0124087305011
7.81890675346e-05
7.31248839188e-05
-0.0117300566852
0.000121054843162
-0.0116365328102
9.24469937918e-05
0.0115930221374
-0.0123978862534
0.000140358198238
0.0124470810565
6.66105946749e-05
-0.0116742963002
0.0124650286852
0.000139373809547
-0.000124995109068
-0.0124452892532
-0.000169901778536
-0.0124944817434
0.0125088395805
0.00018746110374
0.000124415671145
-0.0115760535539
0.0115396328475
0.00012939503566
-5.24642979965e-05
-0.0115683271655
4.07522094737e-05
0.012480820283
-0.0124705620557
0.000162628192634
-0.0116136895494
-0.000182673934267
-0.0124563819122
-5.77604082388e-05
0.012451008366
0.000206125051029
0.0124152710006
0.000144579897101
5.69284746153e-05
0.000137195521457
0.011586984629
0.000100499443708
0.0115572004184
0.000113909085207
0.0124105061209
0.000174759621361
0.0115377493962
0.000133672419943
-0.000221559990876
0.0124501043088
-3.34751150492e-05
0.000238249958548
-0.0124072173486
0.000261082633763
0.0123993223334
-0.000240730915707
2.52197112941e-05
0.000145791247338
-0.000136982029036
-5.9106680447e-06
-0.0115200369909
0.000163176920945
0.0115128923108
-0.000196775471973
0.000271245328013
0.0124489132211
0.000147556889642
-0.0124906337093
0.000219068487759
-3.50391408007e-05
0.0124849334794
-0.000200608695973
0.012514192333
0.000210297398284
9.11566962423e-05
0.0115095127545
2.14330679295e-05
-0.000119687137708
0.011455851028
0.000105251745922
0.0125085184298
0.000219364648548
0.011505677376
0.0124848120675
0.000245276227555
-2.19432509244e-05
-0.000270267622659
-0.0125137098238
0.0125162987022
0.000261051084961
-1.48125528093e-05
-0.011500062736
0.011487246779
6.46689464913e-06
-0.000134281533527
0.000113012517401
0.0124845377964
0.000243571239994
-0.000337818362346
-0.0124474332845
5.38379438923e-05
0.0124574072093
0.000338731567352
-6.52224458208e-05
0.0124030388937
0.000302510034482
-5.0524380155e-05
-0.000283248807323
-3.46832329086e-05
0.000183986253245
0.0115733917005
-0.000181458644138
-5.05231435279e-05
0.0115046311387
0.000168913588042
0.0124201833276
-6.24439460083e-05
-0.000327104832502
0.000305951925164
-5.28582262007e-05
0.0115224341957
0.000175193043696
-0.000368805129533
5.02728867988e-05
0.0125159637325
0.000371897433183
-0.000111797098549
-0.0124934345575
0.000386014433503
0.0125784300117
-0.000390738937537
-0.000128422402989
-3.94190611184e-05
0.000187166519248
-0.000189253399796
-0.0115558322017
-4.30725057235e-05
0.000186629569645
0.0115792187552
-0.000360511211815
-0.000121282201615
0.00018362180562
0.000390302615473
0.0125833204606
-0.000114748151304
-0.0124848446263
0.000328170382443
4.67790556551e-05
0.0124977583505
-0.0003022963805
0.0125182688592
0.000285536374294
-4.94749974088e-05
0.0114814208315
-7.71897087266e-05
-0.000163561720792
0.011456974039
0.000138232521573
0.0125244739336
0.000303704656034
0.0114965299563
0.000351202512013
5.27370333916e-05
0.0125321870931
-0.0125419370729
-0.000362798810463
0.000334819116919
0.0125750351775
-0.0115362861151
-4.0561244022e-05
0.0115696504578
-8.34346649027e-05
-0.000169104025968
0.000146549947505
0.000323899684945
0.0125821685294
-0.000209068730725
-0.0125433232803
2.59222465626e-05
0.0125457249937
0.000188158487497
0.0125288714416
0.000201116354884
-0.012527472682
-2.84673802362e-06
9.10364671243e-05
0.0114330279153
1.97492415903e-05
0.0114360380033
-0.0114552101035
7.32960104112e-05
0.0125282066874
-0.0125374621749
0.000179476776861
0.0114186644927
7.851749938e-05
-0.000231231522998
0.0125479259515
5.1258099858e-05
0.000201740856536
-0.0125347640403
0.000242480471503
0.0125378513644
-1.79063534313e-05
0.000105129218705
-6.72805963637e-05
-0.0114060628181
0.000102033884554