/*--------------------------------*- C++ -*----------------------------------*\
| =========                 |                                                 |
| \\      /  F ield         | OpenFOAM: The Open Source CFD Toolbox           |
|  \\    /   O peration     | Version:  v1906                                 |
|   \\  /    A nd           | Web:      www.OpenFOAM.com                      |
|    \\/     M anipulation  |                                                 |
\*---------------------------------------------------------------------------*/
FoamFile
{
    version     2.0;
    format      ascii;
    class       volScalarField;
    location    "10.55";
    object      p;
}
// * * * * * * * * * * * * * * * * * * * * * * * * * * * * * * * * * * * * * //

dimensions      [1 -1 -2 0 0 0 0];


internalField   nonuniform List<scalar> 
28582
(
17099.7225516
17098.4070071
12202.0922999
12200.5033037
7304.91609396
7302.5746864
3633.94991431
3630.07877792
45.0642620274
50.2244802775
-27.1200211357
3632.06974066
650.646958563
651.231952275
3628.46532515
3627.73783927
650.338332247
1790.67892126
1789.45425412
17099.3417024
17097.4516879
17097.2207117
12201.6951944
12199.5072959
12199.1938815
7304.99786583
7300.9718915
3633.29501616
3627.72177371
51.4615705001
-27.1130924564
-27.052468413
3632.78846239
3634.13337966
646.230953561
647.140276658
1800.23221108
3627.56991421
3626.93497214
3627.06919563
1790.64536856
654.597310634
1789.45738503
1790.14589184
47.6513599394
51.8795610587
-22.8167772491
-22.8069661858
49.239992147
-22.8521179721
1800.35305748
1799.86959466
651.321360922
651.427281899
1800.92498302
652.101197908
1799.42838556
1798.16998275
1795.82112666
651.605518484
652.077247353
1796.05703734
652.359714269
1797.84015943
1792.27760584
1794.01293771
649.884282528
651.228161105
1794.00877035
650.691335287
1792.65307178
1791.86556884
650.475330588
650.675059536
1791.16105303
649.923092703
650.414088083
1791.99137659
1788.16451141
650.446906924
650.258049511
1790.08153374
650.490181113
1789.02456503
650.440961302
41.9976161706
-23.0496749664
41.0342746455
41.6675976983
-23.1555318442
-23.0834877628
52.6154463628
-22.8264537038
-22.8217620284
54.0999822359
-22.853815887
53.2465243626
-22.8467279436
1798.93996824
1798.58945055
646.219770139
646.288059025
1798.21461696
1799.192122
646.395912387
1798.866857
1797.89660453
646.532262542
647.57985355
1798.02813869
1798.82978926
646.823200223
648.020403031
648.841005186
1800.22283519
1799.58162352
648.229043981
1799.57582987
647.421542336
1791.98568841
651.460423619
651.417688033
1790.99699966
652.630461513
1792.09737127
652.469591443
1791.36019045
1791.87405534
653.774192451
654.867595565
1792.05546692
1791.60028722
653.762266589
1789.10673614
1788.24928837
651.012971708
650.652202681
651.945915807
1790.0974471
652.148423995
653.865992632
655.672441194
1791.21669935
1790.87413379
655.172239834
1791.50895077
653.693552516
7300.26330343
3627.31857131
54.8351030041
-27.0610616259
3633.04876825
649.931256314
3627.39407861
3627.33183911
655.097114055
657.27997717
659.453930718
3626.8115246
3625.95889171
659.636626064
659.40349514
43.8027972047
55.9474794501
57.5553392575
-22.8634612989
-22.8607096425
-22.8794895371
58.8894452401
59.7928660897
1798.54812146
1799.88021904
649.273225904
650.61892085
1799.28123456
649.963717759
1799.04280108
1791.63468506
1791.62997457
655.601794686
655.733224778
1791.39639164
1791.68816203
656.39820976
1791.94701229
1791.91927715
656.434114506
658.335497954
1791.87238713
657.253222687
1792.23040616
1791.71359011
1791.89161796
658.154247975
659.050027022
1791.27953167
657.784813708
1792.24150224
1790.28251287
1791.22240351
658.464989346
659.741574196
1790.78280556
658.749846405
1790.45253914
1789.75613834
1788.84589901
658.875974175
659.595902843
1789.16343151
658.854530318
1789.65940491
3642.33835111
3632.30270866
3621.3971563
3621.95931782
29.1037735648
34.0619320342
29.4616760959
33.4154311398
33.7469326047
-27.1521298465
-27.3352132661
-27.1194478417
-27.2416724317
-27.0723413892
-27.1505768915
3656.3118137
3654.59487107
645.384966207
645.957269762
3648.11410044
643.856339257
3650.12188495
3644.30570515
643.457426644
634.408602929
3632.70287696
3636.36496232
3627.64072288
641.034334769
627.833444591
632.279520583
623.966087306
3621.37883191
3617.77714109
622.068901997
621.168102432
621.39370017
626.53607934
3625.3695246
3624.38879769
630.688413989
623.964791536
624.119189262
3619.56178215
3621.83148965
3621.26398815
622.034948957
628.314934457
623.746253281
631.908307369
623.942770723
632.625181406
23.8313499519
25.0961800569
28.6546549915
-23.0012536354
-22.9441033991
-22.9838499582
-22.9290661249
-22.9435434938
-22.9541571244
-22.9158224006
-22.8717866633
25.9408579716
26.2594049774
32.2125719412
29.3398568234
31.9474165386
-22.9549777372
-22.9156210937
-22.9387984414
-22.9002504912
36.6128238552
33.6268913656
37.0366692094
-22.8914002831
-22.7859043943
-22.9000656125
-22.8124174467
31.8447625552
32.0163363643
-22.9082658323
-22.8866054051
-22.8795767889
37.1471295344
33.5728115856
37.095302443
-22.9104121024
-22.8635336431
-22.9223966116
-22.8824523105
1827.76955971
1824.24606172
644.479970222
646.695859446
1824.56396489
645.799818862
1827.15096304
1827.12628123
1820.63533035
646.88774392
646.220750609
1823.36175403
1825.11428629
646.438078553
1809.92543845
1814.43956589
645.403521936
640.270919711
1817.78903388
1806.33438504
642.119273794
1817.3007314
1816.61535869
644.543283567
640.604449199
1821.74433063
1811.8353461
642.283357128
1812.85032765
1803.37646448
637.317623558
636.273252768
1807.40172269
1808.60816424
639.10238497
1797.57399447
1809.98645479
637.588123655
637.863281008
1802.01136915
1805.26031783
634.39581687
1789.50498884
1784.21830248
632.954090298
625.849245385
1793.46603088
1781.19887119
630.132404009
1794.0338056
1797.57710524
634.872882001
629.908897757
1801.12930032
1791.22256
631.88925586
1786.70627081
1778.76828645
624.430397103
626.725598784
1779.54124338
1784.77305257
628.057065658
1771.89780176
1776.50795468
618.643787941
621.303638526
1771.77796133
1774.84300557
618.766048933
1771.93228205
1770.23367622
617.187550798
622.842434534
1770.77699544
618.971051452
1771.44074306
1772.52708754
1775.01573499
621.081395847
620.770289365
1774.45265083
1773.86685907
619.531702524
1772.82455541
1775.14747338
624.74017257
622.486998013
1774.53434065
620.688853208
1773.11730947
1787.98853277
1795.2165215
628.694169803
629.68297515
1789.42452204
1793.22226161
627.940533527
1783.01464224
1778.69309809
626.170836216
624.120445856
1783.70857881
1778.93559155
625.778018122
1782.46295653
1779.48939125
624.189931681
625.270448221
1779.23475266
1781.96472932
625.50843939
1776.97101927
1775.90529667
622.022433233
622.767221169
1775.31714068
1777.06808711
623.32671619
1778.0662385
1777.12568029
624.303000521
629.756682348
1776.1613115
625.814338409
1779.1027121
1778.32623652
1778.88432061
623.400112158
625.105606173
1778.0707739
1779.41734641
624.364527136
1779.45328188
1782.30416081
631.004161905
628.260669812
1780.18327402
627.211085436
1780.83277155
1781.04085422
1779.44238322
625.845169747
624.498186165
1780.28941972
1779.89512539
626.528216021
1783.55523201
629.074687204
1781.16287383
17098.0376288
17096.8367092
17096.2244941
17097.4774706
17098.068212
17107.6692529
12200.4028165
12199.1446704
12198.5210205
12199.0634523
12199.1225069
12208.8674971
18310.825729
18315.4158501
17088.4957264
17093.5620499
17097.7127387
17100.8244162
17106.1583929
17087.1696984
18312.2674573
18315.8674171
17093.4952281
17094.6603686
17095.3322125
17095.0948277
17093.9295052
17104.8722467
17093.8544104
17093.2073819
17093.5406961
17094.2786208
17094.9698121
17095.2321769
17095.396059
17107.5623687
17097.1659098
17095.8842265
17095.3465226
17095.5493223
17095.9405664
17095.8867501
17095.8715937
17108.0874447
17096.2843942
17096.5460427
17097.0255539
17107.97777
13410.7204168
13415.3205484
12194.246726
12197.0959141
12200.3219151
12205.3749363
12247.2724454
12122.6775346
13414.2825416
13417.7231656
12198.2857035
12198.9891347
12197.9138372
12195.7201419
12190.7874653
12186.09019
12195.3039253
12195.7857571
12196.7921009
12197.0603217
12196.5665072
12195.5949187
12194.2055212
12204.3724335
12199.2656983
12198.2788159
12197.9509545
12198.0687347
12197.8658943
12196.8514705
12195.2981466
12206.7759406
12198.2383553
12197.8835188
12197.48677
12208.5825766
8510.81023674
8516.80270102
7298.05132755
7299.29684212
7300.13790598
7299.85541435
7306.2599881
7225.9328453
8515.54538209
8520.29051016
7295.97450229
7297.11297108
7296.23096899
7291.85266131
7279.72046881
7266.95293215
7297.96340573
7298.08048597
7298.2283271
7297.53688186
7296.48325797
7293.76143473
7287.1091246
7300.781052
7303.25089753
7302.16812551
7300.80894764
7299.97185195
7299.29809988
7298.40699308
7295.99348937
7291.44526423
7304.06086949
7303.21922045
7301.48344699
7300.33387536
7299.39792153
7297.96906856
7295.27507741
7307.39326208
7299.2234899
7297.15643119
7308.03538024
3615.89069303
3621.62625619
3626.32689085
3629.08800798
3628.39106889
3628.426141
3627.68207691
3598.62183165
3613.86640298
3618.67318203
3622.56113415
3625.01374311
3625.1426084
3623.70200547
3622.50091481
3618.39028608
3605.31961352
3620.93609037
3624.19425583
3624.30948424
3624.88671229
3625.83700892
3624.47825052
3622.46149425
3621.35464961
3618.95330892
3619.06175724
3629.49884946
3629.75482472
3628.26522515
3627.41997163
3626.35827957
3625.27699964
3623.61559804
3621.12964003
3623.27604026
3631.89238811
3629.33491675
3628.06612387
3627.08391729
3625.39164145
3623.92386268
3625.4363481
3626.42771719
3625.31732649
3626.40019395
48.4854714744
46.2963338181
45.9207210603
48.1959974044
53.5234053413
57.9167139391
60.6301746417
62.0488775594
43.1406577081
48.7582705292
49.6781532749
48.7732939447
49.1399221592
52.4645781129
56.6567794371
59.8876521851
62.7925333136
62.8556218682
42.3396217598
47.1394452019
46.9329277776
47.4281445863
49.3035896968
52.3183124542
57.099637571
60.7600652741
62.9177652682
64.741434633
43.7797118871
43.8363587353
44.8388387348
47.1281159266
49.3848451493
53.5409106209
57.7633812164
60.5729558022
63.2940283981
43.150716273
46.5188633102
49.2068094901
52.7856897048
56.1064397355
58.38081133
60.535129256
57.430413057
58.7236060712
59.0276116194
-27.2355871188
-27.0713182486
-27.0484648134
-27.0716961901
-27.0988302782
-27.1972060605
-27.0504558529
-27.0583496824
-27.2353992949
-27.7743758515
-27.5176685268
-27.2382558461
-27.1329319028
-27.1902572495
-27.1438498179
-27.3853921695
-26.9686120778
-27.0861672599
-27.2229404089
-27.6542774462
-27.5141993472
-26.9661883846
-27.0786910812
-27.0633601414
-27.1136135588
-27.0665584263
-27.3674126977
-27.100732652
-27.2808103975
-27.7102643228
-26.9628160982
-27.1174723318
-27.0904125721
-27.1484914113
-27.0680700072
-27.1409029928
-27.0986607834
-27.2653039276
-27.7018144161
-27.10075097
-27.0325924924
-27.1966743059
-27.0980691503
-27.1090884851
-27.2555627557
-27.7023905475
-27.0910993457
-27.259655687
-27.7574085874
18313.3502697
18310.7778208
18313.4161688
15861.1186671
15863.8858333
15861.4305683
15863.9291571
18316.6437845
18315.7237414
18317.2861227
15865.9883938
15863.2750657
15865.6924711
15865.4593324
18314.0239603
18314.8006395
18315.2965433
15863.0613509
15865.1436806
15865.4004574
15866.476247
18317.2102573
18316.336
18317.5992304
15866.9469336
15867.5435184
15867.9882381
15869.3198022
13413.4550667
13411.8592773
13414.1633776
10960.2310941
10963.4438999
10961.856826
10964.6546479
13416.4168241
13415.5622858
13417.5094842
10965.6105732
10966.8952798
10966.4584142
10967.2371134
13416.2233224
13416.1966258
13417.5936498
10964.8659712
10967.2183352
10967.1106349
10968.1799502
13418.5681027
13418.9826136
13422.9306048
10968.6638854
10966.0127207
10969.0508011
10972.5505533
8514.34115018
8512.69363244
8515.74285866
6062.62136126
6066.30529376
6064.34741832
6067.38801594
8518.4478137
8518.0407257
8519.57572029
6069.12852457
6071.2237528
6069.87140227
6072.84710332
8518.22776802
8518.0806289
8519.294925
6066.83495463
6069.38734434
6069.14201232
6070.61015572
8517.51531464
8520.26150979
8522.87868633
6071.31295672
6071.68064463
6071.95174397
6074.508909
3612.22286291
3614.13886644
642.667320483
646.535608833
3618.94009142
3617.22578212
3619.74379124
644.094204386
645.126574738
647.085355019
647.129047802
3623.97712527
3622.05708899
3623.96562949
645.264854156
646.297966531
647.221851059
647.941321814
3628.09253754
3625.52189121
3626.56021337
646.99088742
650.833824575
648.649454293
651.897568334
3629.06498538
3626.91503417
3626.38615531
651.969810781
654.329745151
652.635267806
653.026796616
3627.95722495
3625.62301515
3625.36237771
654.474389378
655.209617541
652.884075415
654.959982981
3628.8271276
3625.48453368
3625.52656966
656.497589842
661.241802714
656.520425963
660.300643275
3617.4769619
3624.23094653
3615.65471202
662.34950146
661.892036053
661.523525698
659.318734436
3579.18237788
3599.22809988
3601.90173574
661.520124621
622.838996985
657.435830181
638.534206848
3618.05112617
3619.00797471
627.504214985
640.360188039
632.229363693
645.187775091
3616.49554561
3619.89893494
3620.46215471
642.968795555
647.204726965
647.503828085
648.387418926
3620.7907606
3621.06763945
3622.12501405
647.326886084
647.364059546
647.999637811
647.459803339
3624.0702241
3623.52776252
3625.06596416
647.712206237
648.78477154
647.983248225
650.049697883
3625.30267874
3626.01425995
3625.83693322
649.659094533
652.176078562
650.695907834
651.430146251
3624.60214872
3624.96408618
3623.77674494
652.606601238
652.491964913
651.241241573
651.392134683
3623.10036527
3622.61453725
3621.81173194
652.472461617
655.453852057
652.269434847
656.867215248
3621.29414655
3621.16764842
3620.00242295
656.899649853
660.32984111
658.094469845
660.248352535
3613.26403651
3618.11431456
3615.2613075
661.346504675
659.232763253
660.549123258
659.847220349
3622.89241909
3612.44931221
3631.84834982
657.597171273
641.342401917
659.863798075
644.972203663
3623.02118684
3623.32869936
3625.61786797
633.349582066
645.824914304
636.111211898
646.701065877
3624.55646755
3627.26680401
3627.79230741
648.131547005
648.772436315
648.215595978
648.8414277
3624.32448108
3627.44577669
3626.67866557
648.331748669
647.248111467
648.260903108
646.246435771
3625.52045223
3626.39257976
3626.43151852
647.564555766
649.662364525
646.114201207
648.386193045
3625.43253094
3626.46801704
3625.99672679
650.25180776
650.848225825
648.954556077
649.359206032
3623.44913959
3625.23187757
3624.54708527
650.80346969
651.274760615
649.277659523
650.682720472
3621.92438418
3623.98579751
3623.26094154
652.151819229
657.286835186
651.873796796
657.626356538
3620.28304191
3622.47797798
3621.27200105
658.70101536
659.713150417
658.439540531
657.719140462
3618.35616225
3620.00974967
3619.99897528
659.759002077
660.111222298
657.921016107
659.972294986
3635.0862553
3621.48324679
3636.06150666
661.020072961
644.948464631
661.915961763
641.560434338
636.669410966
646.825945204
3630.1149009
3631.99363525
648.091353882
648.552644166
647.091491211
3628.88058103
3631.75754787
3631.06755877
647.956432356
646.204781339
646.486008507
646.808661668
3627.80028985
3630.32396927
3629.38091814
646.153301355
648.160170197
647.402886249
648.804482004
3626.90877113
3628.4842567
3627.80724571
648.659472203
649.055335294
648.56649572
648.638936467
3625.81937762
3627.30982144
3627.07262443
649.014641194
650.846260175
649.408748527
652.144346373
3624.6460179
3626.70967498
3625.96169583
652.281291096
657.280412919
653.429855088
655.765760279
3622.27162176
3624.71195929
3623.50287161
657.679793113
657.160423447
655.722826307
656.682068898
3621.50565555
3622.64187256
3622.91957849
657.513825357
659.789347883
657.117750975
659.114187918
3636.54930629
3624.54850652
3636.64846355
661.714848186
640.688996665
660.232197746
637.671143202
3630.60156345
3631.4928068
647.996391347
648.960155912
650.300048738
3628.46802435
3629.91114744
3628.75062267
648.296274195
648.673951729
649.273565616
649.86717973
3627.81383321
3628.27121535
3627.96156682
649.771939728
653.352765536
651.05406273
654.322224344
3626.25968914
3627.35886758
3626.72677261
653.726307829
655.678022877
654.464425758
656.347042384
3624.58564499
3626.10575065
3625.51746751
656.295570633
656.994865249
657.076953962
658.26117791
3624.08719478
3624.9030958
3624.94160828
657.331603626
659.196725424
658.514630966
659.036623911
3636.74810976
3625.97647729
3636.56070487
659.999554796
636.885013784
659.325876496
635.876160715
3626.97120824
656.60776363
3625.84458411
657.252066022
658.36418805
3625.40168942
658.614694339
658.60322929
3636.46416077
658.679851988
635.870950275
-22.990606178
-23.0688714928
-22.9226541076
-22.9955596881
48.0162866536
49.6963959309
-23.0999472666
-23.1382426995
-23.0353967379
-23.0656217425
47.3027845254
49.6592921974
48.4302553261
-23.1201799124
-23.0642843912
-23.0826581806
-23.0311962267
45.9944211382
47.5361258783
47.24559818
-23.0474760402
-23.0193462567
-23.0335163971
-23.0122601907
46.6426602515
47.4746268593
48.5944892776
-22.995134871
-22.9296107311
-22.996391509
-22.9196259736
50.6728183679
50.4698719133
52.8331594683
-22.8732689473
-22.7930338857
-22.8372055889
-22.7583535009
56.0183603292
55.3112986467
57.3961846859
-22.6559062101
-22.6297218237
-22.6209164039
-22.6023808687
59.3111276123
58.9647279549
60.0489230837
-22.6875204616
-22.7826424746
-22.6797066214
-22.7732916959
62.5798987724
61.5864336441
63.9413042678
-22.8437364429
-22.8593882236
-22.8370871526
-22.8656076799
66.1303820342
61.672094484
67.5935869144
-22.9276087258
-22.7948348005
-22.94551807
-22.7745506632
46.5116297134
43.2354047333
46.691402466
-22.8593102806
-22.9539091361
-22.836307686
-22.9599922691
50.0840284619
48.3133826688
48.6901315138
-23.0080094243
-23.0380133502
-23.0496251081
-23.1087351559
49.0633233975
48.5050806687
48.4707136356
-23.0346837153
-23.0252224119
-23.0762077616
-23.051216424
48.6725420375
48.8680241986
49.1039567155
-23.036773421
-23.0151497697
-23.0577940362
-23.0267508475
50.4056569065
49.8395264292
51.2169500656
-22.9844542975
-22.901867298
-22.9838762791
-22.9148806321
54.6056301336
53.141709816
54.9417807452
-22.8309017325
-22.7585177322
-22.8673310306
-22.754614575
58.4902971588
57.1211616021
59.2781134459
-22.6106512362
-22.6206499193
-22.5408922056
-22.6106864999
61.5898413128
60.6486274068
62.4185230259
-22.7277847549
-22.8117606442
-22.7455174133
-22.8343231942
64.895777358
63.302257593
64.9882486648
-22.8445108935
-22.8577531068
-22.8569165011
-22.8556980404
68.3202575431
63.9465814721
68.6215441965
-22.9422062281
-22.7926509038
-22.9521937254
-22.8129295436
45.4872281129
41.4197941515
44.3418059356
-22.900448424
-23.0275853505
-22.9206175389
-23.0598337212
47.1399208689
45.2766697622
45.3211547614
-23.0774507706
-23.1371328878
-23.1169225236
-23.1961470483
46.8978675516
45.2512709129
45.7340049218
-23.1236028495
-23.0825060281
-23.1796568606
-23.1166259754
48.1445693103
46.3203949844
47.1691835524
-23.0645124704
-23.0245916472
-23.0765383555
-23.0320190677
50.7219523465
48.205049208
49.4426413788
-22.980619277
-22.9288522339
-22.9882099938
-22.9569406396
54.0183652329
50.726047786
52.1247321484
-22.8830871969
-22.7758685923
-22.9217440054
-22.817567286
59.3700345603
55.2349317903
58.1227238872
-22.6993581238
-22.7636022683
-22.7713690853
-22.8423079272
62.2165130457
59.6285401796
61.13222189
-22.7933930376
-22.8640491891
-22.8357523859
-22.8954072708
64.3447479509
61.8722947461
63.1918636981
-22.8808065977
-22.8637250315
-22.9084735636
-22.8846928418
68.696753636
64.5358442369
67.8924988266
-22.9583934662
-22.8405704693
-22.9724448623
-22.8747439946
43.9085302942
42.5183879976
-23.1079448326
-23.1791678769
-23.1670698654
44.1038540692
42.0607004732
42.3673855465
-23.1663569852
-23.1053854762
-23.1484590505
-23.0822464304
45.9887911241
43.4034824673
45.0862106138
-23.0651019352
-23.0181635754
-23.0382369333
-22.998627333
48.2437499991
46.439088489
47.6938895217
-22.9733602552
-22.9457289561
-22.9538059697
-22.9190403062
50.9612399676
48.6999604885
50.091481394
-22.918002841
-22.8560269971
-22.8931904093
-22.8348080821
56.0559272458
52.3940355489
55.0139581272
-22.8017281109
-22.8526215766
-22.8412430221
-22.8765466549
59.605267116
56.586901248
58.2510796537
-22.863041676
-22.9184648663
-22.8829717863
-22.9351679207
62.0305881058
59.2323569355
61.0162536719
-22.9355255913
-22.923623149
-22.9561829994
-22.9532426111
66.9703894354
61.8081784164
66.0240046556
-22.9992325147
-22.915790191
-23.0224673469
-22.944428178
45.1953469378
46.0206469356
-23.0279955277
-22.980856628
-23.0022919319
-22.9537868204
47.4847047948
47.5761792233
48.5539433271
-22.8923323488
-22.8103069251
-22.853348676
-22.7597279745
51.0736048989
49.8831984885
51.7871796136
-22.8756871361
-22.88542938
-22.8396126695
-22.8977913896
54.6951200512
53.7192687554
55.2735775274
-22.881688262
-22.8944115641
-22.8948568289
-22.9096513317
57.4635865926
56.3958714617
57.4233053667
-22.901484241
-22.9395421632
-22.9008600864
-22.9325768979
60.531678438
58.1336549307
60.0493638902
-22.9646470713
-22.9748283203
-22.9639652919
-22.9784391928
65.2565688775
59.720815556
64.5161212079
-23.0385361849
-22.9591483947
-23.042988596
-22.9571525506
56.236122949
-22.8793746395
58.3436085501
-22.8750633142
-22.9052330454
-22.8721520987
-22.8955643011
60.115552025
-22.9487415175
-22.9729428976
-22.9324552823
-22.9581213882
63.7762341723
-23.0479487798
-22.9444511086
-23.0424426978
-22.9441072011
1777.89032403
1779.40138176
640.398496704
644.135878157
1779.78172219
642.125953629
1777.23320962
1779.10798553
1782.23081951
645.397989184
645.290495912
1780.7479303
1780.89289209
643.78750066
1783.36164987
1781.43467268
644.878661173
645.293020574
1781.64698678
645.89840687
1783.17668018
1784.80554434
1785.72222529
645.098753321
645.936274192
1785.84262066
646.050653134
1784.57347578
1783.90007181
1783.36213158
646.358606537
647.276843135
1782.39648524
1784.43295436
646.789700948
1785.23363649
1786.46760727
646.611942133
647.207847498
1786.29242916
1785.52905758
646.792043039
1787.89659141
1786.86931143
645.506451488
645.923666701
1786.89182825
646.075249279
1787.95080746
1788.81539227
1790.02680529
645.824051208
646.725639037
1789.80887471
646.36716223
1788.93129299
1787.99509901
1787.3375455
646.605380666
647.395068993
1787.15554355
1788.08602853
646.713883492
1788.80125259
1789.57103292
647.262164606
647.543726389
1789.70602364
1788.77703187
646.90987328
1792.1112067
1791.26923357
648.205225422
647.344054854
1790.92368164
648.585736175
1792.57209247
1793.22383862
1795.05538466
649.576183151
651.036467212
1794.31289307
649.927368234
1793.79064657
1791.80481014
1790.4754821
647.967602693
649.824012123
1790.72782221
1791.36579601
649.215042256
1792.72414244
1792.37345286
651.559567662
650.95291686
1793.45536695
1792.07941096
650.525310959
1794.83026488
1795.96506661
653.044192719
652.190341802
1794.94806784
653.175056285
1796.18125166
1794.02808372
1794.44504476
653.944445356
654.071606104
1792.60373784
653.84089047
1795.630358
1793.12967676
1792.16227182
652.50201426
653.049129087
1793.6753551
1791.28563883
653.162341305
1791.98541002
1788.5574474
653.59291849
653.127043671
1790.55692011
1789.95071288
653.496415879
1789.71976079
1792.96197332
654.465521182
654.048021011
1791.09127153
654.049908663
1791.34888253
1788.8785399
1790.09848451
654.432585252
655.204554414
1788.93594386
654.288269797
1790.24174414
1788.06323333
1787.29982734
653.467968745
653.225327335
1789.14573013
1786.48784525
653.536014298
1787.62181641
1787.06508235
655.057030223
653.855123389
1787.99929027
1786.52872849
653.950035299
1790.85200706
1790.83662108
658.095803351
656.595855795
1789.89584837
658.072462266
1791.90197674
1791.58330094
1793.57358551
659.68769739
660.900300397
1792.02446006
659.532966506
1792.82460496
1789.72286817
1787.77740457
656.546976075
657.910859577
1788.88781369
1788.40523578
657.95307947
1790.24540863
1788.69396649
660.47052988
659.13489041
1790.50141089
1788.66506169
659.243717357
1790.44325824
1793.84496392
663.157542811
661.95366465
1791.80533048
662.669252774
1793.0851484
1787.6337333
1785.40762415
663.024732552
660.213594352
1782.58475649
662.128005951
1790.65183677
1788.57557484
1788.10373004
661.650232693
662.19641039
1790.14108758
1786.55607458
662.376234301
1785.42998457
1779.37209968
659.501657495
661.668869713
1780.5403932
1783.7449026
661.785109041
1768.27281955
1777.50742411
666.299199639
658.762669445
1775.49382899
662.146021069
1767.58257988
1759.1002394
1761.46995541
678.253565687
630.321638805
669.273244694
1771.2633028
1754.19486403
1769.51830728
1774.81455456
657.698805774
661.333854569
1774.67985198
1771.06747379
661.566870658
1762.41248393
1786.60052456
634.893650605
669.552505233
1764.91712763
670.956553326
1779.67031383
1776.54995233
1771.49957397
632.825828862
629.128002927
1773.93271957
634.728970858
1773.35060138
1779.23579798
1777.75914292
637.364174638
642.425852913
1776.06292026
1781.12500724
639.456835319
1778.72229801
1777.54309269
630.757771031
637.237011464
1781.02886198
636.038413723
1775.34643766
1781.835509
1786.62264496
643.940202166
641.956597802
1783.9645475
1784.3372435
640.781817331
1783.98136999
1779.50000066
645.06526567
644.954543401
1781.33519036
1782.61564646
646.544637151
1784.7806485
1783.4340447
646.540992831
647.696067811
1782.61614355
1785.08911609
647.504485531
1786.42868034
1787.95826508
646.42287415
648.50375132
1785.40360197
1788.75829373
647.671647573
1786.82495838
1788.67038094
648.064590384
648.646168086
1786.78762047
1788.9282515
648.128197182
1785.63604352
1784.07918682
647.359373912
647.577451526
1784.78097449
1785.33324624
647.598122834
1786.20222397
1786.5578884
647.319385498
647.557067096
1785.67922557
1786.82025403
647.45191545
1786.50354619
1788.21313844
647.718866541
647.748821584
1786.62523174
1787.77164762
647.60526009
1786.74091507
1787.86730214
647.619165974
647.465100638
1787.16562301
1787.69020253
647.52084791
1788.3281669
1787.43644321
647.976786869
648.028602177
1788.16822516
1787.58880666
648.443219101
1788.96895224
1789.57685121
648.269174004
649.426279927
1788.84451247
1789.64075694
648.852924054
1788.62624883
1788.45692931
648.130337661
648.577741487
1787.87742741
1789.09360335
648.657998581
1789.28451954
1790.07004732
649.987094313
649.231770625
1789.90108497
1789.61289941
649.23754443
1790.59346436
1790.30886639
650.749206766
650.246392612
1790.9084556
1790.23653774
651.129078929
1790.63534338
1791.17272884
651.567835609
652.108971178
1791.29231565
1790.11627371
651.7924001
1790.35450224
1790.32168826
650.747864421
651.154806146
1790.26641479
1790.21455689
651.407400528
1790.09303007
1788.7079286
651.859842641
651.404691678
1789.28181198
1789.68285751
651.756319743
1787.95082459
1790.58106432
652.677566849
652.238671102
1789.50004087
1789.2070296
652.112102121
1786.71190695
1786.91405645
652.588556449
651.942449626
1788.16971315
1785.70219196
651.893372598
1786.95110358
1787.5573684
651.708871071
651.092689219
1788.15908978
1786.48248375
651.55294319
1785.95075477
1785.20061955
651.462406755
650.905342833
1785.36283967
1785.74110051
651.273100163
1785.34736384
1786.08143522
653.077202676
652.234887287
1785.72149488
1785.3582373
653.092432194
1785.63737802
1786.53984395
654.090313566
655.851975788
1786.03017383
1786.08451912
654.448875661
1785.23030552
1785.029621
652.139994036
653.665742909
1785.20780826
1785.26762343
653.473184637
1785.41089555
1785.90647594
656.368441115
655.393780412
1785.77371709
1785.57909284
654.994862878
1786.18023963
1786.92023377
658.087179669
657.218294465
1787.17574323
1786.17109101
658.295402377
1786.01797257
1786.97068137
659.200222953
660.451579846
1787.19814403
1785.79188798
659.365493249
1785.79253229
1786.00435959
657.591886139
659.072487311
1785.90485593
1785.80808631
658.627503449
1785.51358839
1784.70322319
660.459928671
659.792859197
1785.11500847
1785.34104734
659.607832961
1783.24362888
1786.12948502
661.796071367
661.256961074
1784.47873651
1784.86797124
661.541123748
1781.10193014
1778.39004036
661.282894916
659.536457946
1781.859743
1778.45791662
661.15790239
1782.53267141
1783.69560175
660.962895804
660.735956668
1784.07156693
1782.42408102
661.091791275
1780.80880346
1779.59073156
659.646667078
660.460283207
1778.94955672
1781.00484331
660.66079783
1774.52199338
1775.27878849
662.453390358
658.225613578
1772.87780928
1776.27609158
663.290724256
1770.13600419
1791.69038527
671.792210845
643.043379269
1768.34843919
672.158350606
1794.09983509
1776.06084672
1778.36610079
659.203304862
665.34570696
1777.48711304
1776.87865368
664.445405892
1771.59475008
1794.96387418
644.418030749
673.569825484
1771.82489537
672.814999655
1795.17494175
1784.66770451
1779.49791621
637.992509513
634.481289165
1782.82988166
638.763320016
1781.50775758
1787.85804653
1788.66216756
642.582916193
646.338684841
1786.14362457
1790.54080486
643.138182527
1786.31809898
1784.89661015
635.331878932
639.963252436
1787.84785483
639.345989601
1783.28698651
1789.41379619
1793.46701089
646.545526334
643.919090006
1792.08595026
1790.85084685
643.515737781
1792.56814346
1790.10079645
649.103457641
648.468490155
1790.81236013
1791.98550931
649.285989674
1792.48524624
1790.402327
649.095288799
648.990907954
1790.8402155
1792.0257724
649.294982918
1793.95877902
1794.83946299
648.256239692
648.84599969
1793.48433825
1795.215963
649.008737159
1793.86308211
1794.65798136
648.993261166
649.046685026
1793.38828271
1795.09586775
649.15432891
1790.53740023
1789.7772834
647.935574865
648.492262451
1789.11531158
1791.38643561
647.930162553
1789.86674676
1788.69883843
647.426926733
646.89997995
1788.75871708
1789.53312242
647.234876974
1791.86441997
1794.10047554
648.507883937
647.658711634
1792.67375786
1793.09507957
647.853789688
1790.92758959
1791.13269483
646.594420577
646.893193488
1790.22317883
1792.01293974
647.077255819
1789.97576697
1789.03311151
648.14631831
647.055339239
1789.53423367
1789.67325079
647.58888983
1790.30470842
1790.25425574
648.899763821
649.153915475
1789.88719222
1790.59767243
648.406145418
1790.32960348
1790.84975056
646.525751012