/*--------------------------------*- C++ -*----------------------------------*\
| =========                 |                                                 |
| \\      /  F ield         | OpenFOAM: The Open Source CFD Toolbox           |
|  \\    /   O peration     | Version:  v1906                                 |
|   \\  /    A nd           | Web:      www.OpenFOAM.com                      |
|    \\/     M anipulation  |                                                 |
\*---------------------------------------------------------------------------*/
FoamFile
{
    version     2.0;
    format      ascii;
    class       surfaceScalarField;
    location    "10.55";
    object      phi;
}
// * * * * * * * * * * * * * * * * * * * * * * * * * * * * * * * * * * * * * //

dimensions      [0 3 -1 0 0 0 0];
oriented        oriented;


internalField   nonuniform List<scalar> 
92311
(
0.203907339412
-0.000160334837142
-0.00105821126954
-0.203625349058
0.000936556166777
-0.000189359707672
0.204099527203
-0.000730046511695
0.000727236875878
0.203931875406
-0.000350155130101
-0.00109837429077
-0.203638143376
0.00099449467374
-0.000413270697515
0.204165345098
-0.00068341331182
0.000673975068992
0.203956003183
-0.000179373379868
-0.000275671888901
-0.00096278818224
-0.203398645802
0.000980595083876
-0.000178211361941
-0.000292062594011
-0.000265120179938
-0.000204526462388
-0.000244607976474
0.204403968999
-0.000489040141101
0.000633616013214
-0.000291502419901
0.0511045627987
-6.86025859564e-05
-8.83303386214e-05
-6.85302405973e-05
-8.58345506929e-05
-0.000259141386813
-0.0509864239606
0.000272974731728
-0.0512145233394
0.0512875057275
-8.91454518706e-05
-9.43891175661e-05
-9.808828721e-05
-8.1318744663e-05
-0.0001378073361
0.000162678487331
4.10649957864e-05
-0.00131740733647
5.47103861076e-05
4.85426182896e-05
6.81426119614e-05
-0.00243293079762
-0.00115848347656
0.00217069084761
0.00252549819826
-0.0163882238969
0.00441455094329
0.000749674299955
0.0124077970886
2.99794892369e-05
5.21085231467e-05
3.72065255644e-05
6.27395859823e-05
-0.00136587206131
-0.0388772313592
0.00352389885885
0.00425732156157
0.00504592583705
-0.0348241591792
0.0689969750288
0.0735262012657
0.00249617964289
-9.62597792027e-05
-0.000102683888924
-0.000110038559623
-9.44107117268e-05
-0.000166002238387
0.000183807511019
7.61587670757e-05
0.011767208347
-0.000108237020563
8.5085111279e-05
-0.0117791565664
0.0117684782121
-0.000109761069265
0.000118963904802
-0.0117589140666
-8.61141417165e-05
6.73475066538e-05
0.000131350345778
-5.56721120227e-05
0.0513044171412
-4.67703736367e-05
-7.03897865723e-05
-6.33983636416e-05
-0.000116470114324
-5.7358789107e-05
0.0512745802696
-6.62455777155e-05
-8.12220374788e-05
-8.71222028141e-05
-0.0512480575274
0.000152183578437
-9.51876871079e-05
0.000104489334612
0.0117722056377
-7.47703099327e-05
6.17492132329e-05
1.73682655106e-05
0.0128299629957
-1.71766842841e-05
-4.58996067135e-05
-0.012839929107
0.0128299241321
1.87837137458e-05
-4.6186249862e-05
-0.0128424758062
-0.000124990180981
0.204089645258
-0.00183212134464
0.00161727581801
-0.203749809345
0.204185308543
-8.65537956271e-05
-0.000259142185965
0.000260233915191
-7.81180996987e-05
0.20432086632
-0.000115977166033
5.89082580602e-05
-0.000192961172197
0.2040871926
-0.00180540090811
0.00159478690406
-0.20380859224
0.204337960701
-0.000207498968438
-0.000373054129428
0.000321660867202
-0.00010839826573
0.204466557782
-0.000148022891694
5.00502677429e-05
-0.0001300289073
-0.000116955443698
-0.000110800229741
-0.00163605590156
0.203955350661
0.0014961146309
-0.20352908234
-0.000121487087766
-0.000121927005461
-0.000102754840315
-0.000138032164518
-0.000103276119095
0.204582435589
-0.000160791105645
0.000240715212077
0.0510759828739
-5.02694944605e-05
-4.12161738358e-05
-5.13136016868e-05
-4.21022263483e-05
-0.000420243054844
-0.0510063151408
0.000405470035392
0.0513080240287
0.000102475339517
-4.69693537405e-05
-3.83997203098e-05
-3.67376581628e-05
-3.21185734721e-05
-7.37860799322e-05
0.00350100192168
0.000671855658145
-0.0180040631063
2.79844478707e-05
3.98438378804e-05
2.69157630181e-05
3.59931642875e-05
-0.00268761411466
0.00323537915074
0.00501816762403
0.00501544294957
-0.0350531583439
0.0165129345688
0.0684597368117
0.0169564187328
0.00320274835627
0.00337153659045
0.00211420557928
0.00373321575292
0.00242894928289
-0.0130694714711
0.0323060229077
-0.00701923477965
0.000323254799911
-4.97353994733e-05
-4.98015823583e-05
-4.80904993201e-05
-5.1025670307e-05
0.0511745021834
-0.000340059795294
-4.78843094528e-05
-5.24605315068e-05
-4.71063211287e-05
-5.05384798875e-05
0.0510775816958
0.000313900228574
-0.0509810767628
9.23666041069e-06
5.3917726592e-05
0.0118635669702
2.79510248907e-05
-7.48139805227e-05
-0.0118798215577
2.47445488649e-05
6.54086653193e-05
-0.0118047247822
2.07985356171e-05
-7.04292097707e-05
0.0117642517239
-6.2525141983e-05
0.0127456949496
-7.65833078834e-05
8.12496629089e-05
-0.0127357208265
5.47016940681e-05
-3.25095303467e-05
-2.90537026659e-05
-2.93708576906e-05
-2.43851040272e-05
0.0513027157349
-3.67925859863e-05
0.0512630326338
-4.06243979587e-05
-2.73761474881e-05
-4.90335173904e-05
-2.57692277714e-05
0.000118822213768
-2.83159445479e-05
-2.20294006275e-05
-2.39871547947e-05
-2.38994347238e-05
0.0512261460302
8.65137211769e-05
2.32309135914e-05
-2.58699785556e-05
-3.43684988936e-05
0.0128199875168
-6.04481351363e-05
2.71563690219e-05
-0.0117294737097
6.02935996717e-05
0.0117372808692
-3.48763651831e-05
2.76496047003e-05
-3.42853766912e-05
0.0128192117104
-0.0128083837387
-1.06838656251e-05
0.0127923424288
-2.82299640635e-05
2.67252307283e-05
-0.00646841302087
0.000104153286492
0.000122352085632
0.000110474088744
-0.00149808086903
0.00382833396622
0.00237428094065
0.00141602393102
4.440773521e-05
6.3992293038e-05
9.4275021717e-05
6.41216351967e-05
-0.0111513611764
0.00629452180265
0.00758858829906
-0.00287189157304
-0.0160239681032
0.0191656994214
0.00466949434689
0.015487795277
-0.012399568234
-0.000956636528515
0.0016101143173
6.8269118205e-05
0.000116286959782
9.85446915665e-05
-0.000662230005131
0.00461339238124
0.000264864927824
0.0166588492807
0.00522261895247
5.90400608358e-05
0.0127622523941
-6.31935427887e-05
-0.0127505989761
-0.012750816028
-0.000110857501528
-4.89729627983e-05
0.0127717888916
5.0516961307e-05
-0.000104665645887
0.000102965732009
0.0117444048117
7.9161816582e-05
8.25072243672e-05
0.0117800157537
-0.0117887897446
-0.000133408328405
-0.0127385119786
6.0723849261e-05
0.0117594012475
-0.000126786187996
0.0127849180873
-5.45211186316e-05
0.0127946822443
-0.00012108198015
-4.17180629111e-05
4.36687151778e-05
3.06830717593e-05
-0.0128074102218
0.0128308272008
-3.7696590427e-05
-9.55303919464e-05
0.000111973520425
7.32663884508e-05
0.00013391673963
-0.011771657351
0.0117794777824
-0.000105504295217
0.0128176492374
3.16929119623e-05
-0.000118254448195
-4.64678497199e-05
-0.012837837516
-9.50575414471e-05
-1.53138013221e-05
0.0128407631439
1.83075232812e-05
1.79754558451e-05
0.0128477429404
-2.47173889749e-05
-6.82262813144e-05
7.05966338592e-05
0.0117778250013
6.02414881987e-05
0.000121297044364
0.0117873901226
-8.767069261e-05
2.11152541162e-05
0.011796084444
-7.34532734853e-05
0.0128438967125
-2.20986983318e-05
-3.42561189599e-05
-0.0128343233712
0.0128246072132
-1.99520102971e-05
-3.40624966136e-05
-0.0117694535802
0.0117604488555
3.8809055008e-05
-0.0117837196148
-2.25990050547e-05
0.0117784883653
-7.09635629199e-05
-1.45308173192e-05
1.5964890174e-05
-5.04978390906e-05
4.90411893201e-05
4.70707963858e-05
-4.63453582036e-05
-1.92864858085e-05
-5.62008821206e-05
-0.0128435860463
0.0128309066025
2.1462540459e-05
-2.3988702874e-05
-0.0118193957283
0.0118190289079
-0.0118448474805
0.0118536940684
-2.49181651306e-05
1.57537617812e-05
-8.36272323957e-05
-0.0128398095694
0.000100558072401
5.4009148961e-05
-0.011849335565
-5.57937353693e-05
-0.0128331424643
1.88447772366e-05
-0.0118310737855
0.000880052296831
-0.00275224005489
-1.21278053059e-06
1.6580175585e-06
-8.46654821696e-06
-7.91665717498e-06
0.00133007545248
-0.00173181036074
0.00228970026837
-0.0126068131161
-0.00768273978603
0.0201379151257
0.00426470933289
-0.000292557606158
-1.29220537981e-05
-9.60963967109e-06
-6.06049922813e-06
-9.19414250003e-06
-0.00343539959062
0.00274710639048
0.0010277936879
-0.000559047837654
-2.11784485127e-05
-2.28142622461e-05
-2.10131661037e-05
-0.000875696885244
-0.00152063149208
-0.00581461279214
-0.0078976589278
0.00713961671251
0.0115766364009
-0.00587455973267
-0.00809405297444
0.000725352304373
-0.012335406832
2.88374710982e-05
2.521394324e-05
8.5756810124e-06
2.02090784986e-05
0.00387707302913
0.00354219413454
-0.0116589936392
-0.00380847417117
-0.00996228543275
0.00389215970233
0.000670545702434
0.000246566187125
4.02752984474e-06
5.971662458e-06
2.0835025193e-05
1.82021846719e-05
-0.0125117198525
-0.000790592201934
0.00518212990749
-0.00817241789478
-0.00426482751655
0.000771038182346
4.72063077918e-05
3.69056733878e-05
4.24690184732e-05
-0.017265301232
-0.00145009750987
-0.00773092943599
0.0061457867091
-8.71125172446e-05
-0.0127480327558
-6.49212264886e-05
0.0127604112219
8.93885811451e-05
0.0127608737264
9.91193935668e-05
-0.000100564031739
-0.0127467123997
6.60458893171e-05
2.5394046226e-05
0.0118398441068
-7.72841393014e-05
5.38131139541e-05
0.0118664704963
-0.0118826083409
-1.57591265153e-05
0.0127734850863
-8.5011867873e-05
-0.0127358648877
9.86604975976e-05
0.0118401675225
-2.23666200762e-05
-7.06436972602e-05
0.0127711972759
-6.54058097016e-05
7.55070747551e-05
-0.0127862114128
6.00652735294e-05
-5.35425407332e-05
0.0127952528468
6.4188615897e-05
2.59525711387e-05
-7.62385962003e-05
6.88646621334e-05
-0.0118029566606
-2.86595892395e-05
0.0117606800702
-6.73361731728e-05
6.86237701145e-05
0.0127803600763
-2.330220401e-05
0.0118043107501
5.44046425247e-05
-8.66436407913e-05
-0.0118357905257
7.09684811216e-05
5.79798451772e-05
0.011765190545
-8.81560315936e-05
-6.96868434162e-05
0.0127584948175
7.53035726115e-05
0.0127586825644
-5.92377035617e-05
-0.0127476768691
6.46288012009e-05
-0.011802972117
0.0117591890693
0.0127716560245
-0.0118390297871
-2.87413288831e-05
0.0128154855161
-2.63869502251e-05
-1.14160955395e-05
0.0117478615172
2.3235334665e-05
0.0117654955406
7.02058163933e-06
-2.98005091667e-05
-2.63166094818e-05
0.0128143507136
2.50392204841e-05
2.94721989756e-05
1.19076278579e-05
0.0117255319465
7.83622736894e-06
0.0128131288888
-3.01045452904e-05
0.0117490852125
3.79769040406e-05
-2.82413843003e-05
0.0128076933712
-1.95075148038e-05
2.18947565352e-05
-0.0128144515534
2.29691475117e-05
0.0128163852812
-2.67853151746e-05
2.8418013759e-05
3.25968877749e-05
-1.77163163747e-05
1.52736701591e-05
-0.0117426969258
8.49903661822e-05
0.0117396782312
-3.04554469206e-05
1.56957638698e-05
0.0128059069358
6.18954360929e-05
-0.0128198996172
-1.31985465141e-05
-2.89052734873e-05
2.6218007854e-05
-3.95473574353e-05
2.91388107686e-05
1.172762966e-05
0.011808911942
0.0118361472849
1.49529610789e-05
-4.66743745498e-05
0.0118259392817
5.22714325902e-05
-1.92874419973e-05
0.012808863233
0.0118010553157
0.0118080894854
-7.08012903403e-05
8.22031227259e-05
1.54674050593e-05
-9.58479072058e-05
0.0117894562418
0.000105251996297
-2.39760244922e-05
0.0127818844509
2.7888511516e-05
0.0127987315995
-2.02074057599e-05
2.58105593335e-05
-0.0117901064886
0.0117742882174
0.0127923467795
-0.000112445517406
-0.000115226200253
-0.000123334636241
7.61001524741e-05
0.204850231274
-0.000123084797392
2.17928575362e-05
1.65992904006e-05
-3.06043019486e-05
-3.20374513559e-05
-3.28607961636e-05
-2.90768567507e-05
3.53604264305e-06
0.0512947319814
6.57515763862e-05
-0.00347370229687
0.000884949930417
6.14686736599e-05
4.92596630641e-05
5.38756813633e-05
0.000507254440676
-0.0154139866761
0.0043577532324
0.00504236036575
0.00551484591641
0.0354105563332
0.0139089040574
0.00500390485579
0.00494896664576
-6.93964994359e-05
-5.90132739574e-05
-5.57548050697e-05
-7.36598813708e-05
0.000148349048644
-0.000245655490271
0.0511735685971
-3.37172954522e-05
7.62545819323e-05
5.56693353848e-05
0.0117519777767
0.0512143798635
-3.99814058426e-05
-3.37238403453e-05
-3.35021175288e-05
-3.79161778533e-05
5.83349942756e-05
0.0512227474594
-4.44132882557e-05
-5.03547750637e-05
-4.87302867446e-05
-4.41945035586e-05
6.17428704815e-05
-5.67088846087e-06
2.46099569834e-05
0.011746623926
6.55199656338e-05
-3.37767511596e-05
-2.6746630395e-05
2.99586056666e-05
-0.000109054489656
0.0117818116966
0.000113359836128
0.0117590287884
-5.37959100717e-05
5.87866369155e-05
-8.24303980825e-05
-0.0117657014632
8.43607136983e-05
0.0512318205202
-4.02467886317e-05
-4.70670120763e-05
-4.36187181656e-05
-4.80241923121e-05
0.000117623488992
0.000119677478972
-6.74066080465e-05
-2.90790837665e-05
-3.46355429138e-05
-2.53407090769e-05
-3.77208107701e-05
8.96355016829e-05
0.000177442566964
0.051216453717
-0.000124903592849
-6.52271433591e-05
5.74622075722e-05
-5.6193371319e-05
0.0117607196453
6.24049073604e-05
-5.63545419623e-05
3.68551776847e-05
6.60235720284e-06
-0.011778556118
0.0117914874445
-4.52574008528e-09
2.51811434115e-05
5.49467717275e-05
3.89874065541e-05
-0.00146039229827
-0.00140919997329
0.00161357955125
-0.0119473204676
0.000766079401478
5.05699484752e-05
3.23843006635e-05
5.84727628556e-05
-0.00497213943876
0.000587339196213
-0.0108226124916
6.47096734041e-05
4.49602375597e-05
6.57036628844e-05
0.0047829342622
-0.00672393428226
-0.0034275832574
0.00585885396909
-0.00491772497476
-0.0041247473772
-0.00164978090777
0.00316373339299
-0.00101266280018
-0.000147673146742
-0.00987827586754
5.60687198234e-05
6.94944174839e-05
5.07359870925e-05
0.00442903725864
0.000378270986664
-0.00599290669788
4.26025554779e-05
6.45308151584e-05
4.94009057035e-05
0.00121665321148
0.000456726362276
-0.00887269988889
-0.00289151958973
-0.0127808201429
-9.07362054218e-05
4.73147200072e-05
-4.55854710205e-05
0.0128004268975
-5.57695105016e-05
0.012768295653
6.61567799329e-05
0.0117444703694
2.93294501092e-05
5.64158539919e-05
0.000102492010627
0.0117271197901
-5.45666117902e-05
3.16552314826e-05
0.0117174709024
0.0127898590453
-3.07662691742e-06
-0.0128011284359
-1.83072985398e-05
-3.14244066852e-06
0.0127950537175
0.0128150496397
1.46042337152e-05
-2.0655889395e-05
1.53154727703e-05
6.07068150257e-05
-2.81351899332e-05
0.0117602218035
1.63890023693e-05
0.0117455551302
9.25532436607e-05
-1.08874983895e-05
0.0128054592936
6.82592215197e-06
9.1679256253e-05
0.0117500978335
-0.0127857767658
-4.73498820875e-05
8.37469143857e-06
0.0127816932455
-1.77025331669e-05
0.0127719631849
2.38905162609e-05
3.77528331892e-05
0.0117706270663
-0.000108061313712
4.13419802758e-05
0.0117695850807
0.000111441838154
0.0117653256941
0.0127687407942
1.52254871533e-05
0.0127789974135
-5.14648006078e-05
-3.15807650619e-06
1.29371106215e-05
1.44104595224e-05
-0.0127641405827
0.0127617432659
-3.42938823786e-06
5.29276977132e-05
-0.0117652414455
0.0117652693147
-7.06401269342e-05
-9.91675938378e-05
4.8767469209e-05
9.95553881262e-05
0.0127763625215
2.13037093094e-05
-8.48395086438e-05
6.23756176562e-06
-0.0127737421704
-3.8610330953e-05
-2.95904684837e-05
0.0127708648183
3.0840552983e-05
2.39585513616e-05
0.0127624343005
-1.41640067608e-05
4.44738386587e-05
0.0117711368964
-5.0399539796e-05
-3.4133192837e-05
5.49339007767e-05
0.0117675111834
4.19890976935e-05
2.74763804646e-05
0.0117795809035
-3.03528079821e-05
0.0127641173685
-2.42737310319e-05
0.0127716436722
-3.00645310804e-05
-3.48360304423e-05
3.5057477986e-05
3.73499119803e-05
-0.0127669408724
0.0127675530735
-3.56791611343e-05
2.34652358565e-05
-0.0117917662239
1.35005913875e-05
0.0118040772776
-1.18563774567e-05
4.61151986508e-05
1.9379831857e-05
3.60994383515e-05
0.0127710395349
-4.71670627143e-06
-2.92340483624e-05
-0.000616059612273
-0.049622927136
0.0498512721302
0.000882203932457
-0.000315326192841
-0.000264875854795
-0.00031377190721
-0.000276030789325
0.000675675495047
-0.000973473029735
0.0505326863893
-0.000214038303404
-0.000217182743404
-0.000229826135069
-0.000205674169596
0.000524841628575
-0.0501726994288
0.000955203266737
-0.00131873872891
-0.0508200218101
0.0511472568207
0.00117397107824
-4.77361138232e-05
-0.000113187479022
-6.64582917727e-05
-9.76507590432e-05
0.000142578787594
-0.00100789981339
5.51680355692e-06
-5.2672092835e-05
-6.32653379045e-06
-4.44004888143e-05
9.08444063143e-05
0.0511030869741
0.000844844020594
-0.0509330488026
0.000363811816407
0.00239760916973
0.0150632513494
-0.0185377202062
-0.00319062896722
0.00272066032533
0.000406514673515
0.000376833314421
0.000384203423519
0.000283057891171
0.0258232938768
-0.0320973218854
0.00553581303824
0.000949640872556
0.000180324287785
0.000205571154211
0.000116341049096
-0.00100485055417
0.000219379764851
0.00168941563171
-0.0300707965957
0.000290683459842
0.000209732322443
0.000191799225914
0.000179956113102
0.028418520767
-0.0011290533601
6.46524822523e-05
-0.0072790988352
0.0297691410467
-0.0270193636175
0.00530854890172
-0.000878141266766
8.4366641645e-06
3.35893491368e-05
-8.41946306512e-06
-1.0977451751e-05
-0.00285578844001
-5.45745184799e-05
-2.08804211773e-05
-6.03046292328e-05
-0.0242915207596
0.000349831819822
-0.00110908716379
0.0280527841616
0.115964186411
-0.0151941264682
-0.0044625794583
-0.00531792054411
-0.00491721921181
-0.00582272655362
0.0103380784847
-0.058255813199
-0.0439075550087
-0.00662216181666
-0.00135403092997
-0.00664674480287
-0.000170190848269
0.0399047270823
0.0445407535292
0.0979133002661
-0.0204786294482
-0.00385472651352
-0.00339038866691
-0.00259427816694
-0.000388708187505
-0.0474932627609
-0.0316300365201
0.00443806707311
0.0104920074333
0.00739965787583
0.0113276085342
0.153923664207
0.0838711302662
0.00434929832602
0.00492250368583
0.00578072728137
-0.0392798811042
-0.0115819745168
0.0053189064539
0.00771286255125
0.00967127590007
0.00794626283319
0.0101899562968
0.121203665164
-0.00862237439563
8.3823897402e-05
-0.000188484683114
-0.000209312411249
-0.000215596290068
-0.000183054022275
0.0493157153693
0.000603725298681
0.000112500199031
-0.0493190370256
0.0493273567963
0.000372239652879
-0.000206676688507
-0.000247970932715
-0.000237439859674
-0.00021621971365
0.000635822474885
-0.0493432816346
-0.000216381809247
0.000243725067541
-0.0121040774045
2.30800195503e-05
0.0120732479438
-1.87756078917e-05
0.0120702284746
5.61513993883e-05
-0.000305451402236
0.000322638704419
-3.74512380785e-05
-0.0121050862894
-0.000290779318403
-0.00026668012368
-0.00024908390696
-0.000296405283695
-0.000260802126601
0.0124017108677
0.0123116645243
0.0123851190874
0.0123562314307
0.000620456088705
8.00831962553e-05
-0.000373220923967
0.000358434964769
-5.15830611796e-05
0.0120563085912
0.000649457006926
-0.000241476826805
-0.000273352677775
-0.000234103847626
-0.00028956044119
0.000667873538905
-0.0495293205223
0.0499334485339
-0.000234573441668
-0.000276514674868
-0.000275994682095
-0.000237773952761
0.00066879656003
-0.0497222543326
0.000794266026003
0.012085787475
-0.000322038892652
0.000354602668441
-0.0121180576787
5.50941988553e-05
0.0121441965992
-0.000275099965229
0.000330414587192
-5.96377600921e-05
-0.0121805839214
4.07045607928e-05
0.00125160331738
-0.000260860471443
-0.000273893210987
-0.000261737755902
-0.000261443884495
0.0501699861275
-0.000251328330508
-0.000198476257488
-0.000274730004051
-0.000203884179344
9.94189002852e-05
0.00011666862511
0.000100945307637
9.8658682922e-05
0.050217012748
-0.000286042245455
-0.000256567841227
-0.000256503896878
-0.000273517220894
0.000697876758586
0.0506488417915
0.00121939925592
-0.000228329768207
-0.000206428529419
-0.000229378309383
-0.00021371925951
0.000478541516569
0.000362021982512
0.0120774967747
9.18180734163e-05
0.0120324377841
-0.000397825931513
0.000386156525277
-0.0120452410284
0.000178124521933
-0.000153714937148
8.54116671632e-05
-0.000269072867676
0.00030677546821
-0.000108307144034
0.0121294838904
0.0120596695957
0.000142257006737
-0.0001939160087
0.000241645730669
-0.000170671396175
-0.0120789934002
0.0509957324722
-9.51033989018e-05
-0.000131593078415
-0.000149013814603
-7.30453686488e-05
-0.00141512343399
0.000198217891593
0.00139299512438
-2.81609605384e-05
7.91464394971e-05
-7.55188493171e-06
7.83561421669e-05
0.0514808405895
-0.000262924557248
-0.00173677771868
0.000295040550625
0.0119995101368
0.00019026062288
-0.000169019636547
0.000149846878026
-9.10303377833e-05
-0.0119251996481
0.000201093191055
0.0118608221445
-0.000194873825361
0.000142084004484
-8.3835737578e-05
0.000164714522302
-0.000174135242983
0.0120110954136
0.000155642965276
0.00020509513119
-0.000113017001905
-0.000177796316483
-0.011918289888
0.0118485939033
0.00106918637512
-0.000171137874833
-0.000177716616321
-0.000185138018664
-0.000157025590744
0.00055377425
0.0508930191085
-0.000140072450001
-0.000112288749568
-0.000125990032167
-0.000131276341446
0.000468203064697
-0.0506873979044
0.000905093999766
0.000268961294013
0.0121478950409
5.29164361839e-05
-0.012165042527
0.0120733198038
-0.000151598027305
0.000204244526935
-0.0120936650069
0.000109949478214
0.0121159742481
-7.40655563593e-05
0.000102268677404
-6.35936860822e-05
-0.0121353163558
5.47135502342e-05
0.00116395066623
-2.06113587237e-06
5.91287933711e-05
-2.24374763833e-05
6.39138096039e-05
0.0513602890269
-8.27209239504e-05
0.0511549364686
-3.7017943119e-05
-6.84950930549e-05
-7.74810534989e-05
-2.20824285931e-05
0.000108900483671
7.84936792637e-06
6.5283748733e-05
2.11004603617e-05
5.69826463834e-05
0.051281628114
0.00098797203202
-0.000101963825234
0.000139973750019
0.012022326006
0.000117781712572
0.000186842626401
-0.000101616129104
-0.0119243115715
0.000136328299254
0.0118584026225
7.14070864933e-05
7.0282393233e-07
6.59695558931e-05
-8.01617196554e-05
0.0120582900117
9.73343968055e-05
0.000161546249322
-0.000103159337041
-0.000109644161964
-0.0119520627763
0.0119059248592
4.81676394994e-05
0.0120765294721
7.1130134988e-05
-0.0121354275143
-9.17499693911e-05
-0.0119662957084
0.0119194130769
0.000134791804984
0.000101116089515
0.00142431852221
0.000158243851487
0.000232858846105
0.000162856808992
-0.0116815130625
-0.00561490066359
0.0100868318778
0.00501487814038
-0.0131084299846
-0.00275147247266
0.000265867293395
0.000234042503638
0.000194514112588
0.0107925191163
0.00549351364062
0.00210140140906
0.000340158389201
0.000437682473253
0.000408714881661
0.000127221089366
-0.0144973614333
-0.00316333472296
-0.00512627582312
-0.00183096913222
0.00186234481596
0.0038135242398
-0.00360152859563
-0.00367661881515
-0.00236281663901
0.00115443380397
-0.00446253659684
-0.00841628453333
0.00491522668352
-0.00531030901545
-0.00561139521784
-0.00297752699943
-0.00924406190081
-0.00320500506823
-0.00226683860105
0.00442191652106
-0.00259727194283
-0.0137070121318
0.00110072423502
0.00459748570304
-0.00789344747493
-0.00518997704703
-0.002089629605
-0.00384555546404
-0.00913378145212
0.00235507719679
-0.00608976306371
0.000258582029339
0.00035008904228
0.000301109156327
0.00472826856801
0.0124450907424
-0.0194823163314
0.000309699780027
0.000269230176264
0.000272980404993
0.0158056554521
0.0037291724424
-0.00726688053695
0.00181355250799
0.00228952841336
0.000408027023332
0.000335492938017
0.000364762119217
0.00167211772268
-0.0243574089654
0.00218913897214
0.000321601932974
0.000264061270469
0.000331144617355
0.000983440881115
-0.0293386610414
0.00483319428306
0.000259639361032
0.000227101184793
0.000299077808398
-0.00716123725972
-0.00912480162196
0.00675350024954
-0.00564371758907
-0.0081894492149
-0.00891871216133
-0.00971149536443
0.0091284266508
-0.00838090956392
-0.00558666116452
0.00400508309114
-0.00429855041618
-1.1757293058e-06
-0.000193309786096
-4.5037871824e-05
-0.0306553959615
-0.000750061889532
-0.0307437492722
-0.000665769528537
0.000151549383508
2.77350819801e-05
6.52223683442e-05
-0.00484060375134
0.00543614586199
-0.000206720978588
-7.78578097146e-05
-6.61720749536e-05
-0.026782280936
-0.00556907082873
-0.00238696984673
0.00019681485144
-0.00346128822922
-0.00344621772658
-0.000591284218081
0.00293950318745
0.000300436029187
0.00362907182004
0.000308131079097
0.000185164607401
0.000114956255494
0.000142423630256
5.08543413469e-06
-0.0272067378726
9.10441332307e-05
0.000117216103615
0.00012659061885
0.0298384595693
0.000583214090115
-0.00994437185815
0.0121350831132
-0.00726719687879
-0.00460728431871
-0.00568460515133
-0.00274678322475
0.00853436897073
-0.00460420766505
0.00424019362488
-0.00467898965192
-7.21199165294e-05
-0.000186866666506
-8.44410007504e-05
-0.0206159252768
-0.0239929753809
-0.00071505258564
1.92449237549e-05
-4.16102611647e-05
-2.47096941136e-05
-0.00489526657551
-0.000148949674274
-9.61539603377e-05
-7.71286799012e-05
-0.017158355163
0.00278429032104
0.00207056134282
-0.00152223250545
0.000497765042444
0.00950709830996
0.0052039065059
-0.0022541996104
0.0132004049021
-0.00220414454961
0.0123227330233
-0.000193761947108
2.68273218864e-05
-4.1523830669e-06
-0.0123400843158
-2.65371811615e-05
-0.0123255882685
0.0123331545093
5.35040429589e-05
2.57971619138e-05
0.000180858637036
-2.39619643807e-05
-0.0121283980038
0.000264088521447
-0.0121001388285
2.81316200363e-05
0.0120643042283
1.03453288471e-05
0.0123339978943
2.3578352096e-05
-0.0121285684622
4.11794846097e-05
-0.012342302808
0.0123327796784
2.00719072896e-05
-0.000219000277384
-0.0123447464844
-5.01618126912e-05
-0.0123581543208
0.0123853217747
9.80078303708e-05
0.000294823954118
-0.0120998097784
0.0120616359059
0.00025217014083
-2.62046877142e-05
3.36520923179e-05
-0.0121303319567
0.0123499584433
5.68648778236e-05
-0.0123589323029
-0.0121268209792
-0.0123751885898
0.000123520422771
-0.000399653150408
-5.70215798129e-05
0.0124176442933
-7.87603036088e-05
0.0124171066067
0.000139697266408
0.000325145367894
0.0120557351478
-3.00828183882e-05
0.000414830378862
-7.06756059227e-05
0.00010652628264
0.0120444412103
-2.67589235635e-05
0.000192437436262
0.0124674604436
-4.26123889518e-05
0.0120371875668
-9.88693010015e-05
0.0124347239917
-0.000306839304109
0.000144028905181
-0.0124144726472
-0.0123911075807
0.00014094257403
0.0124296345348
0.000282438857675
3.23267061007e-05
-0.0121403095132
0.000371069730975
-0.0121344078689
6.76095407757e-05
0.0121004992347
-0.0123838153692
0.000185223284949
0.0124726126744
4.43469826056e-05
-0.0121520239201
0.0124768911198
0.000180521470052
-0.000300753754803
-0.0124467212028
-0.000221434841542
-0.0125175799561
0.0125570130563
0.000236003022246
0.00035067476858
-0.012158980318
0.0121264479534
0.000295107054333
-3.62753685799e-05
-0.0121970364018
2.68742048624e-05
0.0125156183755
-0.0124798825566
0.000200526583494
-0.0121777910352
-0.000243820646201
-0.0125279745958
-0.000402164647501
0.0125834741671
0.000275565184617
0.0124785958906
0.00018844491059
0.000419433342703
0.000117246394996
0.0120554522867
0.000368043635835
0.0120890485452
0.000112877054711
0.012533800634
0.000225563022477
0.0120640551987
0.000126962565445
-0.00027464914336
0.0126659205158
-0.000368611600924
0.000300211654426
-0.0126206276085
0.00033422874086
0.0126987052123
-0.000299623483366
0.000393642140515
0.000152024161133
-0.000126055485729
0.000341995570121
-0.0120487009538
0.000186913912803
0.0120340338349
-0.000228536529261
0.000343637406523
0.0127380038628
0.00016487816342
-0.0125690204268
0.000297658739929
-0.00036302437025
0.0126238085038
-0.00025584835861
0.0126047910512
0.000258480827885
0.000338993050055
0.0121159945487
0.000319084339091
-0.000124027731634
0.0120983631162
0.000100197363826
0.0126561437435
0.000292255569146
0.0120870525362
0.0127029512052
0.000318358896841
-0.000325279982083
-0.000350441273856
-0.0127279039828
0.0127789669937
0.000334642235895
0.000297189376982
-0.0120748103756
0.0120541337664
0.000277390448547
-0.000152214845639
0.000121409692201
0.012764273852
0.000310600678619
-0.000379015260724
-0.0128147879292
-0.000114211059979
0.0128323647794
0.000379969792946
9.52809637228e-05
0.0127880545226
0.000358751941175
0.000174429147126
-0.000327132565096
0.000157232228746
0.000202200922752
0.0120058834656
-0.000185195017181
0.000244822952052
0.0119956799971
0.000189994375009
0.0128200160193
0.000116437227467
-0.00036991424155
0.000364557729208
0.000162482516644
0.0119968018491
0.000201954932281
-0.000391040252174
-4.38667591541e-05
0.0128924829597
0.000385861231205
-1.10990202033e-05
-0.0128783926597
0.000408761178389
0.0128942372542
-0.000410371557644
-0.000105481791149
7.72353575801e-05
0.000200969557927
-0.000199134445417
-0.0119149641762
-0.000129852385511
0.000198905448815
0.0118525026257
-0.000395050193883
2.2278193404e-05
0.000193991139473
0.000401036136903
0.0128888979304
-0.000119239796954
-0.0128279713534
0.000364466842656
-0.000100046371359
0.0128481074984
-0.000359710388547
0.0128330636571
0.000338749209797
0.000208193435723
0.0120141527365
7.0092168894e-05
-0.000176274180559
0.0119954039311
0.000149629745455
0.0128504035726
0.000343862525091
0.0120053118833
0.000354608396054
-4.01060258025e-05
0.0128907154528
-0.0128879027809
-0.00036773204443
0.000342295437361
0.0128792017665
-0.0119239102356
-0.000113337764639
0.0118503827423
2.38312961088e-05
-0.000167590781472
0.000142472481703
0.000333114244853
0.0128883673588
-0.000288346687478
-0.0126618879733
-0.000239480710063
0.0127046081225
0.000271066211967
0.0126355639034
0.000260467574381
-0.0125858893078
0.000272717521357
6.9026169226e-05
0.0121162287633
0.000240122874578
0.0121592825222
-0.0121772717438
2.23819222764e-05
0.0126821438063
-0.0126109302393
0.000243632532855
0.0121296363011
3.93514685147e-05
-0.000300647615033
0.0127577948871
-0.000202638448813
0.000278762445807
-0.0127466948075
0.000319588511844
0.0127883096544
0.000239805976102
8.91671001722e-05
0.000164723094818
-0.0120997656346
8.0493666337e-05
0.0120793610734
0.000294721486618
0.0127904795029
5.88089733959e-05
0.0127702816495
0.000261046154167
-0.000168503854879
-0.0127241793233
-0.000272663720204
-0.0127786932123
0.0127952283544
0.00024609773155
0.000127155854961
-0.0121206734754
0.0121012996791
0.000146960932528
-4.52300120422e-05