/*--------------------------------*- C++ -*----------------------------------*\
| =========                 |                                                 |
| \\      /  F ield         | OpenFOAM: The Open Source CFD Toolbox           |
|  \\    /   O peration     | Version:  v1906                                 |
|   \\  /    A nd           | Web:      www.OpenFOAM.com                      |
|    \\/     M anipulation  |                                                 |
\*---------------------------------------------------------------------------*/
FoamFile
{
    version     2.0;
    format      ascii;
    class       volVectorField;
    location    "14.5";
    object      force.turbine;
}
// * * * * * * * * * * * * * * * * * * * * * * * * * * * * * * * * * * * * * //

dimensions      [1 -2 -2 0 0 0 0];


internalField   nonuniform List<vector> 
28582
(
(0 0 0)
(0 0 0)
(0 0 0)
(0 0 0)
(0 0 0)
(0 0 0)
(0 0 0)
(0 0 0)
(0 0 0)
(0 0 0)
(0 0 0)
(0 0 0)
(0 0 0)
(0 0 0)
(0 0 0)
(0 0 0)
(0 0 0)
(0 0 0)
(0 0 0)
(0 0 0)
(0 0 0)
(0 0 0)
(0 0 0)
(0 0 0)
(0 0 0)
(0 0 0)
(0 0 0)
(0 0 0)
(0 0 0)
(0 0 0)
(0 0 0)
(0 0 0)
(0 0 0)
(0 0 0)
(0 0 0)
(0 0 0)
(0 0 0)
(0 0 0)
(0 0 0)
(0 0 0)
(0 0 0)
(0 0 0)
(0 0 0)
(0 0 0)
(0 0 0)
(0 0 0)
(0 0 0)
(0 0 0)
(0 0 0)
(0 0 0)
(0 0 0)
(0 0 0)
(0 0 0)
(0 0 0)
(0 0 0)
(0 0 0)
(0 0 0)
(0 0 0)
(0 0 0)
(0 0 0)
(0 0 0)
(0 0 0)
(0 0 0)
(0 0 0)
(0 0 0)
(0 0 0)
(0 0 0)
(0 0 0)
(0 0 0)
(0 0 0)
(0 0 0)
(0 0 0)
(0 0 0)
(0 0 0)
(0 0 0)
(0 0 0)
(0 0 0)
(0 0 0)
(0 0 0)
(0 0 0)
(0 0 0)
(0 0 0)
(0 0 0)
(0 0 0)
(0 0 0)
(0 0 0)
(0 0 0)
(0 0 0)
(0 0 0)
(0 0 0)
(0 0 0)
(0 0 0)
(0 0 0)
(0 0 0)
(0 0 0)
(0 0 0)
(0 0 0)
(0 0 0)
(0 0 0)
(0 0 0)
(0 0 0)
(0 0 0)
(0 0 0)
(0 0 0)
(0 0 0)
(0 0 0)
(0 0 0)
(0 0 0)
(0 0 0)
(0 0 0)
(0 0 0)
(0 0 0)
(0 0 0)
(0 0 0)
(0 0 0)
(0 0 0)
(0 0 0)
(0 0 0)
(0 0 0)
(0 0 0)
(0 0 0)
(0 0 0)
(0 0 0)
(0 0 0)
(0 0 0)
(0 0 0)
(0 0 0)
(0 0 0)
(0 0 0)
(0 0 0)
(0 0 0)
(0 0 0)
(0 0 0)
(0 0 0)
(0 0 0)
(0 0 0)
(0 0 0)
(0 0 0)
(0 0 0)
(0 0 0)
(0 0 0)
(0 0 0)
(0 0 0)
(0 0 0)
(0 0 0)
(0 0 0)
(0 0 0)
(0 0 0)
(0 0 0)
(0 0 0)
(0 0 0)
(0 0 0)
(0 0 0)
(0 0 0)
(0 0 0)
(0 0 0)
(0 0 0)
(0 0 0)
(0 0 0)
(0 0 0)
(0 0 0)
(0 0 0)
(0 0 0)
(0 0 0)
(0 0 0)
(0 0 0)
(0 0 0)
(0 0 0)
(0 0 0)
(0 0 0)
(0 0 0)
(0 0 0)
(0 0 0)
(0 0 0)
(0 0 0)
(0 0 0)
(0 0 0)
(0 0 0)
(0 0 0)
(0 0 0)
(0 0 0)
(0 0 0)
(0 0 0)
(0 0 0)
(0 0 0)
(0 0 0)
(0 0 0)
(0 0 0)
(0 0 0)
(0 0 0)
(0 0 0)
(0 0 0)
(0 0 0)
(0 0 0)
(0 0 0)
(0 0 0)
(0 0 0)
(0 0 0)
(0 0 0)
(0 0 0)
(0 0 0)
(0 0 0)
(0 0 0)
(0 0 0)
(0 0 0)
(0 0 0)
(0 0 0)
(0 0 0)
(0 0 0)
(0 0 0)
(0 0 0)
(0 0 0)
(0 0 0)
(0 0 0)
(0 0 0)
(0 0 0)
(0 0 0)
(-0.00311480274434 7.05262319686e-05 0)
(0 0 0)
(0 0 0)
(0 0 0)
(0 0 0)
(-2.20114748159e-05 4.08471504017e-07 0)
(0 0 0)
(-2.08402861406e-06 4.5902178146e-08 0)
(0 0 0)
(0 0 0)
(0 0 0)
(0 0 0)
(0 0 0)
(0 0 0)
(0 0 0)
(0 0 0)
(0 0 0)
(0 0 0)
(0 0 0)
(0 0 0)
(-0.0197895465842 -0.000126245876001 0.000437402206653)
(0 0 0)
(0 0 0)
(0 0 0)
(-0.0259753126863 0.000650836102764 0)
(0 0 0)
(0 0 0)
(-0.0852628649211 -0.00901667962593 0.00706290916476)
(-0.891170401014 -0.138755579156 0.10213998744)
(-0.113528607356 -0.00567107040196 0.00532170712606)
(-2.10285289345 -0.250381644781 0.191211033669)
(-0.0050747516139 7.8554825347e-05 0)
(-0.0684760252515 0.00171573177754 0)
(0 0 0)
(0 0 0)
(0 0 0)
(0 0 0)
(0 0 0)
(-0.0155385195108 0.000484036431837 0)
(0 0 0)
(0 0 0)
(0 0 0)
(-0.0251968434195 0.00063133081673 0)
(0 0 0)
(0 0 0)
(0 0 0)
(0 0 0)
(0 0 0)
(0 0 0)
(0 0 0)
(0 0 0)
(-1.76989425597e-05 3.04612655955e-07 0)
(0 0 0)
(-1.01988254637e-05 1.75529769739e-07 0)
(-0.000172543771471 3.58326246193e-06 0)
(-0.000831734234367 1.72728463909e-05 0)
(-0.000108979008618 2.26319610028e-06 0)
(-0.000528409434473 1.0973619476e-05 0)
(0 0 0)
(0 0 0)
(-0.000312163919217 5.06555210019e-06 0)
(0 0 0)
(0 0 0)
(0 0 0)
(0 0 0)
(0 0 0)
(0 0 0)
(-0.0145325217757 0.000329049408891 0)
(-0.000654690094625 1.30328963917e-05 0)
(-0.00324239338684 7.34151748611e-05 0)
(-3.61347733926e-05 7.0309719092e-07 0)
(-0.000204158507803 4.23981411244e-06 0)
(-3.85712245463e-06 8.49558018776e-08 0)
(-4.14229506648e-05 8.05992608162e-07 0)
(0 0 0)
(0 0 0)
(0 0 0)
(0 0 0)
(0 0 0)
(-0.000341705003597 5.54492172882e-06 0)
(0 0 0)
(0 0 0)
(0 0 0)
(0 0 0)
(0 0 0)
(0 0 0)
(0 0 0)
(0 0 0)
(0 0 0)
(0 0 0)
(0 0 0)
(0 0 0)
(0 0 0)
(0 0 0)
(0 0 0)
(0 0 0)
(0 0 0)
(0 0 0)
(0 0 0)
(0 0 0)
(-0.00478394292388 7.1707120144e-05 0)
(0 0 0)
(0 0 0)
(0 0 0)
(0 0 0)
(0 0 0)
(-0.00406817475742 6.2973477692e-05 0)
(0 0 0)
(0 0 0)
(0 0 0)
(0 0 0)
(0 0 0)
(0 0 0)
(0 0 0)
(0 0 0)
(0 0 0)
(0 0 0)
(0 0 0)
(0 0 0)
(0 0 0)
(0 0 0)
(0 0 0)
(0 0 0)
(0 0 0)
(0 0 0)
(0 0 0)
(0 0 0)
(0 0 0)
(0 0 0)
(-0.0557932734633 -0.00257147256779 0.0025136102897)
(-0.00766519445123 0.000157890493222 0)
(-0.0125242546072 0.000257979200625 0)
(-0.00970542119292 0.000206112535148 0)
(-0.0184106940743 0.000500726768949 0)
(0 0 0)
(0 0 0)
(0 0 0)
(0 0 0)
(0 0 0)
(0 0 0)
(0 0 0)
(0 0 0)
(0 0 0)
(0 0 0)
(-0.00450857244561 6.97906317343e-05 0)
(0 0 0)
(-0.00755457396171 0.000160435323749 0)
(0 0 0)
(0 0 0)
(-0.733304536417 -0.108441744335 0.0801155146117)
(-0.574807114553 -0.0859432728823 0.0634617683542)
(-0.473813794538 -0.0509640963192 0.0395524666431)
(-0.037401818223 0.000937138039587 0)
(-2.50050964167 -0.420360042657 0.305752238637)
(-0.154466514178 -0.0169954778946 0.0131563049792)
(-0.14776453899 -0.00778056326095 0.00717367084591)
(-1.98091379866 -0.311551928074 0.228360779384)
(-11.1618401274 -1.90641034359 1.38404694907)
(-1.22861704137 -0.151789739584 0.115136506409)
(-0.741426232476 -0.0612247938545 0.0501788854141)
(-6.69602153901 -1.15557512695 0.837688968049)
(-0.413280477865 -0.0349467109072 0.0284444636984)
(-3.33962010397 -0.515872853499 0.379200041195)
(-0.125292096968 -0.0098001194919 0.00815437528844)
(-0.00855914315965 0.000181769205093 0)
(-0.0176778147421 0.000442934419735 0)
(-0.0175600490743 0.000439983689201 0)
(-0.0236337822276 0.000642782252809 0)
(-0.0236314565436 0.000642718999778 0)
(-0.0420809776733 0.00105437881885 0)
(-0.383314342752 -0.0428639672689 0.0331141673058)
(-0.11808375005 -0.000935183095276 0.00253378116103)
(-0.21473063078 -0.00400644350879 0.00585275380468)
(-0.036905656197 0.000924706229305 0)
(-0.0500194151846 0.00136040825235 0)
(-0.107529612883 -0.000909902529173 0.00223928364162)
(-0.689286329641 -0.0763327263977 0.059179043649)
(0 0 0)
(0 0 0)
(0 0 0)
(0 0 0)
(0 0 0)
(0 0 0)
(0 0 0)
(0 0 0)
(0 0 0)
(0 0 0)
(0 0 0)
(0 0 0)
(0 0 0)
(0 0 0)
(0 0 0)
(0 0 0)
(0 0 0)
(0 0 0)
(0 0 0)
(0 0 0)
(0 0 0)
(0 0 0)
(0 0 0)
(-0.00445064042692 6.88938706796e-05 0)
(0 0 0)
(-0.00755322197439 0.000160406611803 0)
(0 0 0)
(0 0 0)
(0 0 0)
(-0.0343829822842 0.000935134740521 0)
(-0.0122682201869 0.000252705309511 0)
(-0.0073988195812 0.000152403605723 0)
(-0.0184046296539 0.000500561831245 0)
(0 0 0)
(-0.0096987086638 0.000205969982201 0)
(0 0 0)
(0 0 0)
(0 0 0)
(0 0 0)
(0 0 0)
(0 0 0)
(0 0 0)
(0 0 0)
(0 0 0)
(0 0 0)
(0 0 0)
(0 0 0)
(0 0 0)
(0 0 0)
(0 0 0)
(0 0 0)
(0 0 0)
(0 0 0)
(0 0 0)
(0 0 0)
(0 0 0)
(0 0 0)
(0 0 0)
(0 0 0)
(0 0 0)
(0 0 0)
(0 0 0)
(0 0 0)
(0 0 0)
(0 0 0)
(0 0 0)
(0 0 0)
(0 0 0)
(0 0 0)
(0 0 0)
(0 0 0)
(-0.0149647282421 0.000293915923299 0)
(0 0 0)
(0 0 0)
(0 0 0)
(0 0 0)
(0 0 0)
(0 0 0)
(0 0 0)
(-0.00333969462157 6.55935351685e-05 0)
(0 0 0)
(0 0 0)
(0 0 0)
(0 0 0)
(0 0 0)
(0 0 0)
(0 0 0)
(0 0 0)
(0 0 0)
(0 0 0)
(0 0 0)
(0 0 0)
(0 0 0)
(0 0 0)
(0 0 0)
(0 0 0)
(0 0 0)
(0 0 0)
(0 0 0)
(0 0 0)
(0 0 0)
(0 0 0)
(0 0 0)
(0 0 0)
(0 0 0)
(0 0 0)
(0 0 0)
(-0.320547697344 0.00861181317123 0)
(-0.00768464591093 0.00015093089307 0)
(0 0 0)
(0 0 0)
(0 0 0)
(0 0 0)
(0 0 0)
(0 0 0)
(-0.0703769264746 0.00191014811117 0)
(0 0 0)
(0 0 0)
(0 0 0)
(0 0 0)
(0 0 0)
(0 0 0)
(0 0 0)
(0 0 0)
(0 0 0)
(0 0 0)
(0 0 0)
(0 0 0)
(0 0 0)
(0 0 0)
(0 0 0)
(0 0 0)
(0 0 0)
(0 0 0)
(0 0 0)
(0 0 0)
(0 0 0)
(0 0 0)
(0 0 0)
(0 0 0)
(0 0 0)
(0 0 0)
(0 0 0)
(-1.50280772719 0.052022565563 0)
(-0.0431817470848 0.00149607659784 0)
(0 0 0)
(0 0 0)
(0 0 0)
(0 0 0)
(0 0 0)
(0 0 0)
(-0.329672019307 0.0112862191471 0)
(-0.00653758238997 0.000250244317113 0)
(0 0 0)
(0 0 0)
(0 0 0)
(0 0 0)
(0 0 0)
(0 0 0)
(0 0 0)
(0 0 0)
(0 0 0)
(0 0 0)
(0 0 0)
(0 0 0)
(0 0 0)
(0 0 0)
(0 0 0)
(0 0 0)
(0 0 0)
(0 0 0)
(0 0 0)
(0 0 0)
(0 0 0)
(0 0 0)
(0 0 0)
(0 0 0)
(0 0 0)
(0 0 0)
(0 0 0)
(0 0 0)
(0 0 0)
(0 0 0)
(0 0 0)
(0 0 0)
(0 0 0)
(-2.48754273459 0.0753908138611 0)
(-0.0751451937248 0.00227745125095 0)
(0 0 0)
(0 0 0)
(0 0 0)
(0 0 0)
(0 0 0)
(0 0 0)
(-2.49268522843 0.0748075592486 0.000437396444143)
(-0.55524123782 0.0168278873068 0)
(-0.0155384965159 0.00048403571553 0)
(0 0 0)
(0 0 0)
(0 0 0)
(0 0 0)
(0 0 0)
(0 0 0)
(-0.0455777580786 0.0013813408018 0)
(-0.0751452063037 0.00227745163218 0)
(-0.0155384906535 0.000484035532909 0)
(0 0 0)
(0 0 0)
(0 0 0)
(0 0 0)
(0 0 0)
(0 0 0)
(0 0 0)
(0 0 0)
(0 0 0)
(0 0 0)
(0 0 0)
(0 0 0)
(0 0 0)
(0 0 0)
(0 0 0)
(0 0 0)
(0 0 0)
(0 0 0)
(0 0 0)
(0 0 0)
(0 0 0)
(0 0 0)
(0 0 0)
(0 0 0)
(0 0 0)
(0 0 0)
(-0.0723077228536 0.00163587650978 0)
(-0.0022593753782 5.11574070996e-05 0)
(0 0 0)
(0 0 0)
(0 0 0)
(0 0 0)
(0 0 0)
(0 0 0)
(-0.0409471378918 0.000926380452546 0)
(-0.0708954263233 0.00160392497503 0)
(-0.0164386383419 0.000372208231502 0)
(-0.000408163145162 6.62335250781e-06 0)
(0 0 0)
(0 0 0)
(0 0 0)
(0 0 0)
(0 0 0)
(0 0 0)
(-0.00115519689775 2.29964705499e-05 0)
(-0.00219909596604 4.97925438469e-05 0)
(-0.000398016837744 6.45870616119e-06 0)
(0 0 0)
(0 0 0)
(0 0 0)
(0 0 0)
(0 0 0)
(0 0 0)
(0 0 0)
(0 0 0)
(0 0 0)
(0 0 0)
(0 0 0)
(0 0 0)
(0 0 0)
(0 0 0)
(0 0 0)
(0 0 0)
(0 0 0)
(0 0 0)
(0 0 0)
(0 0 0)
(0 0 0)
(0 0 0)
(0 0 0)
(0 0 0)
(0 0 0)
(0 0 0)
(-0.000168411124476 3.28984538961e-06 0)
(-0.000171528755368 3.35074708863e-06 0)
(-2.28421757995e-05 4.23886994483e-07 0)
(0 0 0)
(0 0 0)
(0 0 0)
(0 0 0)
(0 0 0)
(0 0 0)
(0 0 0)
(-2.25031630939e-05 4.17595865383e-07 0)
(-2.30579991053e-05 4.27892072338e-07 0)
(-2.16687577079e-06 4.77269443327e-08 0)
(0 0 0)
(0 0 0)
(0 0 0)
(0 0 0)
(0 0 0)
(0 0 0)
(0 0 0)
(0 0 0)
(0 0 0)
(0 0 0)
(0 0 0)
(0 0 0)
(0 0 0)
(0 0 0)
(0 0 0)
(0 0 0)
(0 0 0)
(0 0 0)
(0 0 0)
(0 0 0)
(0 0 0)
(0 0 0)
(0 0 0)
(0 0 0)
(0 0 0)
(0 0 0)
(0 0 0)
(0 0 0)
(0 0 0)
(0 0 0)
(0 0 0)
(0 0 0)
(0 0 0)
(0 0 0)
(0 0 0)
(0 0 0)
(-0.00333917866721 6.55834015262e-05 0)
(-0.00907812056966 0.000178299541822 0)
(-0.00202561431462 3.97842374346e-05 0)
(-0.0862578823245 0.00202522973851 0)
(-0.0176790833512 0.000347227428537 0)
(-0.052326290778 0.00122855740639 0)
(-0.0107225822224 0.00021059772039 0)
(0 0 0)
(0 0 0)
(0 0 0)
(-0.00239293854627 4.69986979281e-05 0)
(0 0 0)
(0 0 0)
(0 0 0)
(0 0 0)
(0 0 0)
(0 0 0)
(-0.0176814618939 0.000347274144492 0)
(-0.00394531922227 7.7488352823e-05 0)
(-0.00394543570838 7.74906406775e-05 0)
(0 0 0)
(0 0 0)
(0 0 0)
(0 0 0)
(0 0 0)
(0 0 0)
(0 0 0)
(0 0 0)
(-0.0703926982028 0.00191057618239 0)
(-0.194388491717 0.00522242832245 0)
(-0.0426920927069 0.00115873517545 0)
(-0.798082358234 0.0247420927984 0)
(-0.176439566761 0.00548539194541 0)
(-0.484034093075 0.0150059907037 0)
(-0.107011887992 0.00332693034351 0)
(0 0 0)
(-0.0046608395116 9.15415854026e-05 0)
(0 0 0)
(-0.0227292608919 0.000730922953274 0)
(0 0 0)
(-0.012140453758 0.000382384543032 0)
(0 0 0)
(-0.0148601170847 0.000394972602751 0)
(-0.0148633409603 0.000395058291346 0)
(-0.00282692911242 5.5522523813e-05 0)
(-0.176363535397 0.0054830281795 0)
(-0.037463891557 0.00120475621219 0)
(-0.0374651327961 0.0012047961277 0)
(-0.00736247570031 0.000231893878299 0)
(0 0 0)
(0 0 0)
(0 0 0)
(-0.00333953731564 6.5590445589e-05 0)
(0 0 0)
(0 0 0)
(0 0 0)
(-0.329762617972 0.0112893207643 0)
(-0.896136484453 0.0306789541027 0)
(-0.200012865495 0.00684737830334 0)
(-2.19091275506 0.0749392346866 0)
(-0.483367112389 0.0164049629593 0)
(-1.31360622126 0.0445823905899 0)
(-0.293176615189 0.0099501008435 0)
(0 0 0)
(-0.0261906963902 0.000907403951802 0)
(0 0 0)
(-0.0654251788342 0.00222046061445 0)
(0 0 0)
(-0.0396821424236 0.00134676948414 0)
(0 0 0)
(-0.0735769099059 0.00251888264922 0)
(-0.0735814750532 0.00251903893562 0)
(-0.0139822870931 0.000531230130735 0)
(-0.48331106213 0.0164030606734 0)
(-0.107855934547 0.00366051509471 0)
(-0.107862019925 0.00366072162593 0)
(-0.0240676576257 0.000816830565728 0)
(0 0 0)
(0 0 0)
(0 0 0)
(-0.0133666220788 0.000468320531752 0)
(0 0 0)
(0 0 0)
(0 0 0)
(-6.95093039518 0.215651313306 0)
(-4.12737173311 0.125764667815 0)
(-3.72775868695 0.0930674393059 0)
(-1.75235381819 0.0437493669286 0)
(-0.555142933765 0.016824907972 0)
(-1.50907116083 0.0457359390885 0)
(-0.336747642877 0.0102059267201 0)
(-2.25991503612 0.0564211696954 0)
(-0.237715870701 0.00593482819741 0)
(-1.06292897591 0.0265371463818 0)
(-0.112239943888 0.00280218894053 0)
(0 0 0)
(-0.0455780976077 0.00138135109203 0)
(0 0 0)
(-0.0860196413617 0.00215530372324 0)
(0 0 0)
(-0.0406190942509 0.00101774994277 0)
(0 0 0)
(0 0 0)
(0 0 0)
(0 0 0)
(0 0 0)
(0 0 0)
(0 0 0)
(0 0 0)
(0 0 0)
(0 0 0)
(0 0 0)
(0 0 0)
(0 0 0)
(0 0 0)
(0 0 0)
(0 0 0)
(0 0 0)
(0 0 0)
(0 0 0)
(0 0 0)
(0 0 0)
(0 0 0)
(0 0 0)
(0 0 0)
(0 0 0)
(0 0 0)
(0 0 0)
(0 0 0)
(0 0 0)
(0 0 0)
(0 0 0)
(0 0 0)
(0 0 0)
(0 0 0)
(0 0 0)
(0 0 0)
(0 0 0)
(0 0 0)
(0 0 0)
(0 0 0)
(0 0 0)
(0 0 0)
(0 0 0)
(-1.10404795379 -0.132303678994 0.102139896925)
(-0.612858730173 0.00697340316515 0.00706287671033)
(-2.51892035073 -0.238773204143 0.190440286802)
(-2.30854705026 0.0494509055699 0.00511706542972)
(-0.114284971071 0.00285324520762 0)
(-0.239270763872 0.00597364775039 0)
(-1.50929867846 0.0457428345436 0)
(-0.555240346898 0.0168278603053 0)
(-0.336771762385 0.0102066577183 0)
(-2.26329231481 0.0565054870309 0)
(-1.06215215478 0.0265177522206 0)
(-0.238367860839 0.00595110582097 0)
(-0.111467284247 0.00278289867516 0)
(-0.123891821829 0.00375483208733 0)
(-0.123891493367 0.00375482213253 0)
(-0.0276439209926 0.000837813828468 0)
(-0.643971645993 0.0160774334154 0)
(-0.0667985029829 0.00167369986559 0)
(-0.0664183398657 0.00166417451802 0)
(-0.00481300558822 7.45031170277e-05 0)
(0 0 0)
(0 0 0)
(0 0 0)
(-0.0245748726776 0.000615746749714 0)
(0 0 0)
(0 0 0)
(0 0 0)
(0 0 0)
(0 0 0)
(0 0 0)
(0 0 0)
(0 0 0)
(0 0 0)
(0 0 0)
(0 0 0)
(0 0 0)
(0 0 0)
(0 0 0)
(0 0 0)
(0 0 0)
(0 0 0)
(0 0 0)
(0 0 0)
(0 0 0)
(0 0 0)
(0 0 0)
(0 0 0)
(0 0 0)
(0 0 0)
(0 0 0)
(0 0 0)
(0 0 0)
(0 0 0)
(0 0 0)
(0 0 0)
(0 0 0)
(0 0 0)
(0 0 0)
(0 0 0)
(0 0 0)
(0 0 0)
(0 0 0)
(0 0 0)
(0 0 0)
(0 0 0)
(0 0 0)
(0 0 0)
(0 0 0)
(0 0 0)
(-0.0751450724368 0.00227744757503 0)
(0 0 0)
(0 0 0)
(-0.0413385322194 0.00103577614362 0)
(-0.0864239545189 0.00216543417297 0)
(0 0 0)
(0 0 0)
(-0.0455777956083 0.00138134193923 0)
(0 0 0)
(0 0 0)
(-0.0860989230067 0.00215729020007 0)
(-0.0403093900399 0.00100999000994 0)
(0 0 0)
(0 0 0)
(0 0 0)
(0 0 0)
(0 0 0)
(-0.0244046515113 0.0006114816969 0)
(0 0 0)
(0 0 0)
(0 0 0)
(0 0 0)
(0 0 0)
(0 0 0)
(0 0 0)
(0 0 0)
(0 0 0)
(0 0 0)
(0 0 0)
(0 0 0)
(0 0 0)
(0 0 0)
(0 0 0)
(0 0 0)
(0 0 0)
(0 0 0)
(0 0 0)
(0 0 0)
(0 0 0)
(0 0 0)
(0 0 0)
(0 0 0)
(0 0 0)
(0 0 0)
(0 0 0)
(0 0 0)
(0 0 0)
(0 0 0)
(0 0 0)
(0 0 0)
(0 0 0)
(0 0 0)
(0 0 0)
(0 0 0)
(0 0 0)
(0 0 0)
(0 0 0)
(0 0 0)
(0 0 0)
(0 0 0)
(0 0 0)
(0 0 0)
(0 0 0)
(0 0 0)
(0 0 0)
(0 0 0)
(0 0 0)
(0 0 0)
(0 0 0)
(0 0 0)
(0 0 0)
(0 0 0)
(0 0 0)
(0 0 0)
(0 0 0)
(0 0 0)
(0 0 0)
(0 0 0)
(0 0 0)
(0 0 0)
(0 0 0)
(0 0 0)
(0 0 0)
(0 0 0)
(0 0 0)
(0 0 0)
(0 0 0)
(0 0 0)
(0 0 0)
(0 0 0)
(0 0 0)
(0 0 0)
(0 0 0)
(0 0 0)
(0 0 0)
(0 0 0)
(0 0 0)
(0 0 0)
(0 0 0)
(0 0 0)
(0 0 0)
(0 0 0)
(0 0 0)
(0 0 0)
(0 0 0)
(0 0 0)
(0 0 0)
(0 0 0)
(0 0 0)
(0 0 0)
(0 0 0)
(0 0 0)
(0 0 0)
(0 0 0)
(0 0 0)
(0 0 0)
(0 0 0)
(0 0 0)
(0 0 0)
(0 0 0)
(0 0 0)
(0 0 0)
(0 0 0)
(0 0 0)
(0 0 0)
(0 0 0)
(0 0 0)
(0 0 0)
(0 0 0)
(0 0 0)
(0 0 0)
(0 0 0)
(0 0 0)
(0 0 0)
(0 0 0)
(0 0 0)
(0 0 0)
(0 0 0)
(0 0 0)
(0 0 0)
(0 0 0)
(0 0 0)
(0 0 0)
(0 0 0)
(0 0 0)
(0 0 0)
(0 0 0)
(0 0 0)
(0 0 0)
(0 0 0)
(0 0 0)
(0 0 0)
(0 0 0)
(0 0 0)
(0 0 0)
(0 0 0)
(0 0 0)
(0 0 0)
(0 0 0)
(0 0 0)
(0 0 0)
(0 0 0)
(0 0 0)
(0 0 0)
(0 0 0)
(0 0 0)
(0 0 0)
(0 0 0)
(0 0 0)
(0 0 0)
(0 0 0)
(0 0 0)
(0 0 0)
(0 0 0)
(0 0 0)
(0 0 0)
(0 0 0)
(0 0 0)
(0 0 0)
(0 0 0)
(0 0 0)
(0 0 0)
(0 0 0)
(0 0 0)
(0 0 0)
(0 0 0)
(0 0 0)
(0 0 0)
(0 0 0)
(0 0 0)
(0 0 0)
(-0.00178697794933 3.71076175679e-05 0)
(-0.00278388025237 5.78088631695e-05 0)
(-0.0011508964673 2.39009734961e-05 0)
(-0.00182251261344 3.78455151601e-05 0)
(-0.191502426285 0.00433251537128 0)
(-0.118483161484 0.00268054106845 0)
(-0.00309818008848 6.43354787466e-05 0)
(-0.00183090073343 3.80196992617e-05 0)
(-0.00222790516891 4.62637230729e-05 0)
(-0.00139928205776 2.90592632147e-05 0)
(-0.0163058196813 0.000369200914365 0)
(-0.0442119906182 0.00100024387505 0)
(-0.00994326073768 0.000225138081242 0)
(-0.000743128483852 1.54327471684e-05 0)
(-0.000180292150225 3.74417510744e-06 0)
(-0.000652622420574 1.35531836445e-05 0)
(-0.000150655860876 3.12871039242e-06 0)
(0 0 0)
(-0.00130464733113 2.59715759164e-05 0)
(0 0 0)
(-2.45956505437e-05 4.23310399013e-07 0)
(0 0 0)
(-1.46946260066e-05 2.52906016336e-07 0)
(0 0 0)
(0 0 0)
(0 0 0)
(0 0 0)
(0 0 0)
(0 0 0)
(0 0 0)
(0 0 0)
(0 0 0)
(0 0 0)
(0 0 0)
(0 0 0)
(0 0 0)
(0 0 0)
(0 0 0)
(0 0 0)
(0 0 0)
(0 0 0)
(0 0 0)
(0 0 0)
(0 0 0)
(0 0 0)
(0 0 0)
(0 0 0)
(0 0 0)
(0 0 0)
(0 0 0)
(0 0 0)
(0 0 0)
(0 0 0)
(0 0 0)
(0 0 0)
(0 0 0)
(0 0 0)
(0 0 0)
(0 0 0)
(0 0 0)
(0 0 0)
(0 0 0)
(0 0 0)
(0 0 0)
(0 0 0)
(0 0 0)
(-0.0695774393444 0.00157410708209 0)
(-0.00906192053325 0.000205182530666 0)
(-0.0154905426771 0.000350741185185 0)
(-0.000621610864576 1.29091584007e-05 0)
(-0.00104051553853 2.16086633466e-05 0)
(-0.000143331945518 2.97661269133e-06 0)
(-0.000217501574287 4.51691312826e-06 0)
(-0.0437539998112 0.000989882375979 0)
(-0.0160153120497 0.000362623159595 0)
(-0.00992359062818 0.00022469270514 0)
(-0.00110333278725 2.29132058833e-05 0)
(-0.000667640139045 1.38650606042e-05 0)
(-0.000205612512643 4.27000981826e-06 0)
(-0.000126770116907 2.63266878507e-06 0)
(-0.00375658250856 8.5057588282e-05 0)
(-0.0037486048399 8.48769556844e-05 0)
(-0.000815101275633 1.62261970378e-05 0)
(-0.000251164569603 5.21600151865e-06 0)
(-4.98842246315e-05 9.70628979142e-07 0)
(-4.4757949499e-05 8.70883794459e-07 0)
(-5.05416139528e-06 1.11321416213e-07 0)
(0 0 0)
(0 0 0)
(0 0 0)
(0 0 0)
(0 0 0)
(0 0 0)
(0 0 0)
(0 0 0)
(0 0 0)
(0 0 0)
(0 0 0)
(0 0 0)
(0 0 0)
(0 0 0)
(0 0 0)
(0 0 0)
(0 0 0)
(0 0 0)
(0 0 0)
(0 0 0)
(0 0 0)
(0 0 0)
(0 0 0)
(0 0 0)
(0 0 0)
(0 0 0)
(0 0 0)
(0 0 0)
(0 0 0)
(0 0 0)
(0 0 0)
(0 0 0)
(0 0 0)
(0 0 0)
(0 0 0)
(0 0 0)
(0 0 0)
(0 0 0)
(0 0 0)
(0 0 0)
(0 0 0)
(0 0 0)
(0 0 0)
(0 0 0)
(0 0 0)
(0 0 0)
(0 0 0)
(0 0 0)
(0 0 0)
(-0.00211654559547 4.79234153461e-05 0)
(0 0 0)
(0 0 0)
(-1.61909199549e-05 2.78658406467e-07 0)
(-2.2377845793e-05 3.85140243186e-07 0)
(0 0 0)
(0 0 0)
(-0.00128408834038 2.55623086944e-05 0)
(0 0 0)
(0 0 0)
(-1.80467791003e-05 3.105991951e-07 0)
(-1.12233443163e-05 1.93162541172e-07 0)
(0 0 0)
(0 0 0)
(0 0 0)
(0 0 0)
(0 0 0)
(0 0 0)
(0 0 0)
(0 0 0)
(0 0 0)
(0 0 0)
(0 0 0)
(0 0 0)
(0 0 0)
(0 0 0)
(0 0 0)
(0 0 0)
(0 0 0)
(0 0 0)
(0 0 0)
(0 0 0)
(0 0 0)
(0 0 0)
(0 0 0)
(0 0 0)
(0 0 0)
(0 0 0)
(0 0 0)
(0 0 0)
(0 0 0)
(0 0 0)
(0 0 0)
(0 0 0)
(0 0 0)
(0 0 0)
(0 0 0)
(0 0 0)
(0 0 0)
(0 0 0)
(0 0 0)
(0 0 0)
(0 0 0)
(0 0 0)
(0 0 0)
(0 0 0)
(0 0 0)
(0 0 0)
(0 0 0)
(0 0 0)
(0 0 0)
(0 0 0)
(0 0 0)
(0 0 0)
(0 0 0)
(0 0 0)
(0 0 0)
(0 0 0)
(0 0 0)
(0 0 0)
(0 0 0)
(0 0 0)
(0 0 0)
(0 0 0)
(0 0 0)
(0 0 0)
(0 0 0)
(0 0 0)
(0 0 0)
(0 0 0)
(0 0 0)
(0 0 0)
(0 0 0)
(0 0 0)
(0 0 0)
(0 0 0)
(0 0 0)
(0 0 0)
(0 0 0)
(0 0 0)
(0 0 0)
(0 0 0)
(0 0 0)
(0 0 0)
(0 0 0)
(0 0 0)
(0 0 0)
(0 0 0)
(0 0 0)
(0 0 0)
(0 0 0)
(0 0 0)
(0 0 0)
(0 0 0)
(0 0 0)
(0 0 0)
(0 0 0)
(0 0 0)
(0 0 0)
(0 0 0)
(0 0 0)
(0 0 0)
(0 0 0)
(0 0 0)
(0 0 0)
(0 0 0)
(0 0 0)
(0 0 0)
(0 0 0)
(0 0 0)
(0 0 0)
(0 0 0)
(0 0 0)
(0 0 0)
(0 0 0)
(0 0 0)
(0 0 0)
(0 0 0)
(0 0 0)
(0 0 0)
(0 0 0)
(0 0 0)
(0 0 0)
(0 0 0)
(0 0 0)
(0 0 0)
(0 0 0)
(0 0 0)
(0 0 0)
(0 0 0)
(0 0 0)
(0 0 0)
(0 0 0)
(0 0 0)
(0 0 0)
(0 0 0)
(0 0 0)
(0 0 0)
(0 0 0)
(0 0 0)
(0 0 0)
(0 0 0)
(0 0 0)
(0 0 0)
(0 0 0)
(0 0 0)
(0 0 0)
(0 0 0)
(0 0 0)
(0 0 0)
(0 0 0)
(0 0 0)
(0 0 0)
(0 0 0)
(0 0 0)
(0 0 0)
(0 0 0)
(0 0 0)
(0 0 0)
(0 0 0)
(0 0 0)
(0 0 0)
(0 0 0)
(0 0 0)
(0 0 0)
(0 0 0)
(0 0 0)
(0 0 0)
(0 0 0)
(0 0 0)
(0 0 0)
(0 0 0)
(0 0 0)
(0 0 0)
(0 0 0)
(0 0 0)
(0 0 0)
(0 0 0)
(0 0 0)
(0 0 0)
(0 0 0)
(0 0 0)
(0 0 0)
(0 0 0)
(0 0 0)
(0 0 0)
(-6.78916466581 0.183551412388 0)
(-5.27461026367 0.142222881561 0)
(-5.42686294349 0.135487374594 0)
(-3.28441268456 0.0819988373297 0)
(-4.65409874443 0.125491610074 0)
(-4.78131669664 0.119370629602 0)
(-7.70271689801 0.208502500201 0)
(-5.27269006873 0.142171106047 0)
(-2.48958141417 0.0671282663372 0)
(-2.55431284063 0.0637711223356 0)
(-2.55395293066 0.0637621368024 0)
(-3.62327558518 0.0976968285151 0)
(-3.62286129522 0.0976856577349 0)
(-3.71729710317 0.0928062547992 0)
(-1.51018578678 0.0407201600784 0)
(-3.19853540805 0.0862442720443 0)
(-1.20825059958 0.030165254456 0)
(-1.9912226834 0.0497129808538 0)
(-2.82216668666 0.0760959878281 0)
(-1.06518811744 0.0265935482402 0)
(-1.71165377 0.0461524774789 0)
(-0.713192055264 0.0192302794208 0)
(-0.33689067665 0.00908381101335 0)
(-0.570784380771 0.0142502359125 0)
(-0.209829144366 0.00523860657242 0)
(-0.297236227796 0.00801458130709 0)
(-0.503233608655 0.0125637594231 0)
(-0.808350697903 0.0217961062184 0)
(-1.17581543875 0.0317043063891 0)
(-1.50971380212 0.0407074336372 0)
(-1.54953158904 0.0386856954074 0)
(-0.569174460566 0.0142100425515 0)
(-2.19712232713 0.0592424943051 0)
(-0.807984440862 0.0217862305823 0)
(-0.829357815327 0.0207057952573 0)
(-0.55535546345 0.0149744247166 0)
(-0.159092468622 0.00428971775943 0)
(-0.163446905942 0.00408062492128 0)
(-0.269142299011 0.00671942222697 0)
(-0.231493167183 0.00624190672916 0)
(-0.381645203937 0.0102905575814 0)
(-0.391926518169 0.00978486015462 0)
(-0.0343895799673 0.000935314181694 0)
(-0.123896600372 0.00334070777548 0)
(-0.0279685862292 0.000700779462448 0)
(-0.0759583354913 0.00190320815925 0)
(-0.109320200568 0.00294767445563 0)
(-0.0246980608501 0.000618833346248 0)
(-0.0389731487202 0.00105997627008 0)
(-0.0085594344911 0.000181775392054 0)
(0 0 0)
(-0.00725492089273 0.000149439527637 0)
(0 0 0)
(0 0 0)
(-0.00488292544259 7.55854442757e-05 0)
(-0.00970024041556 0.000206002511777 0)
(-0.0267890995171 0.000728599323313 0)
(-0.0585264784862 0.0015780889965 0)
(-0.0591639203141 0.00148240815371 0)
(-0.0119188120282 0.000245508071807 0)
(-0.0851569925947 0.00229614554753 0)
(-0.0184122745766 0.000500769754824 0)
(-0.019228532667 0.000481789128547 0)
(-0.0047780947111 7.16194605496e-05 0)
(0 0 0)
(0 0 0)
(0 0 0)
(0 0 0)
(0 0 0)
(-0.00379888611778 5.88050131711e-05 0)
(0 0 0)
(0 0 0)
(0 0 0)
(0 0 0)
(0 0 0)
(0 0 0)
(0 0 0)
(0 0 0)
(0 0 0)
(0 0 0)
(0 0 0)
(0 0 0)
(0 0 0)
(0 0 0)
(0 0 0)
(0 0 0)
(0 0 0)
(0 0 0)
(0 0 0)
(0 0 0)
(0 0 0)
(0 0 0)
(0 0 0)
(0 0 0)
(0 0 0)
(0 0 0)
(0 0 0)
(0 0 0)
(0 0 0)
(0 0 0)
(0 0 0)
(0 0 0)
(0 0 0)
(0 0 0)
(0 0 0)
(0 0 0)
(0 0 0)
(0 0 0)
(0 0 0)
(0 0 0)
(0 0 0)
(0 0 0)
(0 0 0)
(0 0 0)
(0 0 0)
(0 0 0)
(0 0 0)
(0 0 0)
(0 0 0)
(0 0 0)
(0 0 0)
(0 0 0)
(0 0 0)
(0 0 0)
(0 0 0)
(0 0 0)
(0 0 0)
(0 0 0)
(0 0 0)
(0 0 0)
(0 0 0)
(0 0 0)
(0 0 0)
(0 0 0)
(0 0 0)
(0 0 0)
(0 0 0)
(0 0 0)
(0 0 0)
(0 0 0)
(0 0 0)
(0 0 0)
(0 0 0)
(0 0 0)
(0 0 0)
(0 0 0)
(0 0 0)
(0 0 0)
(0 0 0)
(0 0 0)
(0 0 0)
(0 0 0)
(0 0 0)
(0 0 0)
(0 0 0)
(0 0 0)
(0 0 0)
(0 0 0)
(0 0 0)
(0 0 0)
(0 0 0)
(0 0 0)
(0 0 0)
(0 0 0)
(0 0 0)
(0 0 0)
(0 0 0)
(0 0 0)
(0 0 0)
(0 0 0)
(0 0 0)
(0 0 0)
(0 0 0)
(0 0 0)
(0 0 0)
(0 0 0)
(0 0 0)
(0 0 0)
(0 0 0)
(0 0 0)
(0 0 0)
(0 0 0)
(0 0 0)
(0 0 0)
(0 0 0)
(0 0 0)
(0 0 0)
(0 0 0)
(0 0 0)
(0 0 0)
(0 0 0)
(0 0 0)
(0 0 0)
(0 0 0)
(0 0 0)
(0 0 0)
(0 0 0)
(0 0 0)
(0 0 0)
(0 0 0)
(0 0 0)
(0 0 0)
(0 0 0)
(0 0 0)
(0 0 0)
(0 0 0)
(0 0 0)
(0 0 0)
(0 0 0)
(0 0 0)
(0 0 0)
(0 0 0)
(0 0 0)
(0 0 0)
(0 0 0)
(0 0 0)
(0 0 0)
(0 0 0)
(0 0 0)
(0 0 0)
(0 0 0)
(0 0 0)
(0 0 0)
(0 0 0)
(0 0 0)
(0 0 0)
(0 0 0)
(0 0 0)
(0 0 0)
(0 0 0)
(0 0 0)
(0 0 0)
(0 0 0)
(0 0 0)
(0 0 0)
(0 0 0)
(0 0 0)
(0 0 0)
(-2.89423710577 -0.287018562359 0.228419087675)
(-11.7563134668 -1.89053405509 1.38414281768)
(-2.42543881915 -0.11910072311 0.113363935962)
(-0.966215510009 -0.0553220189346 0.0499959596605)
(-8.40352192866 -1.10988168058 0.837906546707)
(-1.05982840632 -0.0181932050675 0.0280600364882)
(-3.65759022264 -0.507346605332 0.379229702154)
(-2.11848130094 -0.0711153779343 0.080129943115)
(-3.67370378456 -0.00239583256559 0.0634681526116)
(-2.30008645537 -0.00365682200606 0.0384738265474)
(-1.21500700686 0.0303339353116 0)
(-5.0891498341 -0.350656770283 0.305812402569)
(-1.81441729295 0.0277492524586 0.013157510561)
(-1.13221337992 0.0170701829252 0.00699808360872)
(-0.814374061783 -0.0312400064472 0.0331135409499)
(-0.180630131673 0.000751497177419 0.00253365819151)
(-0.321276938223 -0.00130180452649 0.00582488921352)
(-0.165696373919 0.00413678526908 0)
(-0.231319278798 0.00623721805908 0)
(-0.415339855821 0.00682320731058 0.00220432096828)
(-0.839320277202 -0.0722858721977 0.0591781786015)
(-0.77931390385 0.00783634734154 0.00815336372294)
(-0.336598244981 0.00907592598061 0)
(-0.573665721827 0.0143221716402 0)
(-0.211956546281 0.00529171941187 0)
(-0.807471966013 0.0217724123765 0)
(-0.297035319011 0.00800916406774 0)
(-0.50743730996 0.0126687092734 0)
(-1.50913946893 0.0406919475031 0)
(-3.21694370291 0.082656803491 0.00251355620046)
(-1.99224297576 0.0497384535319 0)
(-1.21266930654 0.03027557215 0)
(-2.8200417054 0.0760386905221 0)
(-1.71012790261 0.046111334485 0)
(-1.06749305868 0.0266510935367 0)
(-1.17525334674 0.0316891503224 0)
(-1.50921709097 0.0406940404786 0)
(-1.548006702 0.0386476249892 0)
(-0.568187413209 0.01418539987 0)
(-2.19613737296 0.0592159363199 0)
(-0.807654614882 0.0217773372614 0)
(-0.828913293159 0.0206946972911 0)
(-0.712655814429 0.0192158203967 0)
(-0.3366160198 0.00907640525504 0)
(-0.572131513944 0.0142838685174 0)
(-0.209535365068 0.00523127206144 0)
(-0.807548039446 0.0217744635959 0)
(-0.297062042051 0.00800988461914 0)
(-0.503345557354 0.0125665543408 0)
(-0.555004386998 0.0149649584049 0)
(-0.158996538535 0.00428713113165 0)
(-0.268056122888 0.00669230469095 0)
(-0.162665493595 0.00406111613536 0)
(-0.381424636154 0.0102846102632 0)
(-0.23135155921 0.00623808845767 0)
(-0.390888913333 0.0097589552522 0)
(-0.262166502431 0.00706897259904 0)
(-0.915270883334 0.0246790674437 0)
(-0.344767539993 0.00860748637385 0)
(-0.34445399458 0.0085996583809 0)
(-0.489861790228 0.0132084745394 0)
(-0.489827659131 0.0132075542396 0)
(-0.184284796126 0.00460086489464 0)
(-0.123828444661 0.00333887004699 0)
(-0.0964469772051 0.00260056503329 0)
(-0.162903612725 0.00406706103136 0)
(-0.0356446248137 0.000893109891627 0)
(-0.231377076954 0.00623877650984 0)
(-0.0500173134427 0.00136035109 0)
(-0.0855303022468 0.00214304286746 0)
(-0.123804551345 0.00333822579535 0)
(-0.0964262345877 0.00260000573608 0)
(-0.162423174676 0.0040550663872 0)
(-0.03551828407 0.000889944304431 0)
(-0.2313270355 0.00623742720829 0)
(-0.0500089183273 0.00136012276298 0)
(-0.0853966813968 0.0021396948703 0)
(-0.0584712589038 0.00157660007358 0)
(-0.00855118037617 0.000181600100687 0)
(-0.0167958711888 0.000420836487286 0)
(-0.0167650900726 0.000420065237216 0)
(-0.0236154007207 0.000642282319863 0)
(-0.0236183104341 0.000642361457095 0)
(-0.0402862934233 0.0010094113023 0)
(0 0 0)
(-0.0343804124724 0.000935064847798 0)
(-0.00720810093148 0.000148475112863 0)
(-0.0118422064709 0.000243930122376 0)
(-0.00969558745428 0.000205903697555 0)
(-0.0183985391323 0.000500396183648 0)
(0 0 0)
(0 0 0)
(0 0 0)
(0 0 0)
(0 0 0)
(0 0 0)
(0 0 0)
(0 0 0)
(0 0 0)
(0 0 0)
(-0.00425626246486 6.58849890589e-05 0)
(0 0 0)
(-0.00754542494329 0.000160241027454 0)
(0 0 0)
(0 0 0)
(0 0 0)
(0 0 0)
(0 0 0)
(0 0 0)
(0 0 0)
(0 0 0)
(0 0 0)
(0 0 0)
(0 0 0)
(0 0 0)
(0 0 0)
(0 0 0)
(0 0 0)
(0 0 0)
(0 0 0)
(0 0 0)
(0 0 0)
(0 0 0)
(0 0 0)
(0 0 0)
(0 0 0)
(0 0 0)
(0 0 0)
(0 0 0)
(0 0 0)
(0 0 0)
(0 0 0)
(0 0 0)
(0 0 0)
(0 0 0)
(0 0 0)
(0 0 0)
(0 0 0)
(0 0 0)
(0 0 0)
(0 0 0)
(0 0 0)
(0 0 0)
(0 0 0)
(0 0 0)
(0 0 0)
(0 0 0)
(0 0 0)
(0 0 0)
(0 0 0)
(0 0 0)
(0 0 0)
(0 0 0)
(0 0 0)
(0 0 0)
(0 0 0)
(0 0 0)
(0 0 0)
(0 0 0)
(0 0 0)
(0 0 0)
(0 0 0)
(0 0 0)
(0 0 0)
(0 0 0)
(0 0 0)
(0 0 0)
(0 0 0)
(0 0 0)
(0 0 0)
(0 0 0)
(0 0 0)
(0 0 0)
(0 0 0)
(0 0 0)
(0 0 0)
(0 0 0)
(0 0 0)
(0 0 0)
(0 0 0)
(0 0 0)
(0 0 0)
(0 0 0)
(0 0 0)
(0 0 0)
(0 0 0)
(0 0 0)
(0 0 0)
(0 0 0)
(0 0 0)
(0 0 0)
(0 0 0)
(0 0 0)
(0 0 0)
(0 0 0)
(0 0 0)
(0 0 0)
(0 0 0)
(0 0 0)
(0 0 0)
(0 0 0)
(0 0 0)
(0 0 0)
(0 0 0)
(0 0 0)
(0 0 0)
(0 0 0)
(0 0 0)
(0 0 0)
(0 0 0)
(0 0 0)
(0 0 0)
(0 0 0)
(0 0 0)
(0 0 0)
(0 0 0)
(0 0 0)
(0 0 0)
(0 0 0)
(0 0 0)
(0 0 0)
(0 0 0)
(0 0 0)
(0 0 0)
(0 0 0)
(0 0 0)
(0 0 0)
(0 0 0)
(0 0 0)
(0 0 0)
(0 0 0)
(0 0 0)
(0 0 0)
(0 0 0)
(0 0 0)
(0 0 0)
(0 0 0)
(0 0 0)
(0 0 0)
(0 0 0)
(0 0 0)
(0 0 0)
(0 0 0)
(0 0 0)
(0 0 0)
(0 0 0)
(0 0 0)
(0 0 0)
(0 0 0)
(0 0 0)
(0 0 0)
(0 0 0)
(0 0 0)
(0 0 0)
(0 0 0)
(0 0 0)
(0 0 0)
(0 0 0)
(0 0 0)
(0 0 0)
(0 0 0)
(0 0 0)
(0 0 0)
(0 0 0)
(0 0 0)
(0 0 0)
(0 0 0)
(0 0 0)
(0 0 0)
(0 0 0)
(0 0 0)
(0 0 0)
(0 0 0)
(0 0 0)
(0 0 0)
(0 0 0)
(0 0 0)
(0 0 0)
(0 0 0)
(0 0 0)
(-0.026782943853 0.000728431903997 0)
(-0.0584971754851 0.00157729887987 0)
(-0.0598970642094 0.00150077776956 0)
(-0.0121380406721 0.000250023824008 0)
(-0.0851140335521 0.00229498721383 0)
(-0.0194667373323 0.000487757572426 0)
(-0.0184069863309 0.000500625927212 0)
(-0.0343900959666 0.000935328215638 0)
(-0.12384278774 0.00333925678912 0)
(-0.076578888896 0.00191875671354 0)
(-0.0280723287178 0.000703378828922 0)
(-0.109288170379 0.002946810804 0)
(-0.0389695653651 0.0010598788114 0)
(-0.0248801351476 0.00062339539051 0)
(-0.00477823170924 7.16215140319e-05 0)
(0 0 0)
(0 0 0)
(0 0 0)
(0 0 0)
(-0.00384210680448 5.94740495601e-05 0)
(0 0 0)
(-0.00856185565769 0.000181826809996 0)
(0 0 0)
(-0.00726626187592 0.000149673133378 0)
(0 0 0)
(-0.00970220010044 0.000206044129303 0)
(0 0 0)
(-0.00491022241189 7.60079888294e-05 0)
(-0.0343913231211 0.000935361591302 0)
(-0.123848841659 0.00333942002503 0)
(-0.0757095930769 0.00189697568207 0)