/*--------------------------------*- C++ -*----------------------------------*\
| =========                 |                                                 |
| \\      /  F ield         | OpenFOAM: The Open Source CFD Toolbox           |
|  \\    /   O peration     | Version:  v1906                                 |
|   \\  /    A nd           | Web:      www.OpenFOAM.com                      |
|    \\/     M anipulation  |                                                 |
\*---------------------------------------------------------------------------*/
FoamFile
{
    version     2.0;
    format      ascii;
    class       volScalarField;
    location    "14.5";
    object      p;
}
// * * * * * * * * * * * * * * * * * * * * * * * * * * * * * * * * * * * * * //

dimensions      [1 -1 -2 0 0 0 0];


internalField   nonuniform List<scalar> 
28582
(
17071.4198995
17071.6738896
12173.526981
12173.6632535
7275.65849409
7275.25817757
3602.40235343
3601.376853
47.4194897813
51.5822356547
-27.0622378026
3601.66920477
635.500007418
637.267432829
3601.27167941
3601.03523627
638.309333865
1765.24740396
1764.96784464
17070.7918258
17072.4195919
17074.0149716
12172.900889
12174.5184226
12176.105783
7275.15571306
7275.2074785
3602.17583284
3601.6134398
53.3605460781
-27.076189659
-27.0226778049
3601.12956602
3602.53211368
637.681302905
637.347759234
1768.1152741
3602.0619622
3601.10722732
3601.79024483
1765.21517894
643.259804351
1765.03558075
1765.72310698
48.5427184398
51.2236813359
-22.9935422731
-22.9762029001
49.8733179987
-22.9941537369
1766.13644635
1766.32763479
635.742264232
635.330346426
1766.86171746
635.714489492
1765.53041182
1766.08441181
1765.61492179
636.330514819
637.155706366
1766.03870509
636.321175934
1765.43255195
1765.78355466
1765.74976684
639.113954608
638.032869392
1765.93058582
638.751720178
1765.83586642
1765.6003983
640.235075614
639.82987012
1765.52341671
639.86889146
639.386893026
1765.76863702
1764.69995881
639.283062464
638.888948585
1765.17645006
638.363665225
1764.89493142
638.693372172
47.2115512294
-23.0127985132
47.0689602161
48.5074083346
-23.0238836964
-22.9978146432
52.8921321545
-22.9864438322
-22.9687652978
54.5303099109
-23.0096334235
55.0839495049
-22.9891336971
1768.2749325
1768.13198117
637.877872436
637.646132086
1767.16575446
1769.37289839
637.720664707
1766.82477877
1764.58274069
637.654845826
636.878457245
1765.90657584
1765.32053818
637.344054999
636.51879422
636.054159271
1766.5508888
1767.53674637
636.505178637
1765.96565537
637.006272791
1765.56341856
640.57399462
640.209647949
1765.37396869
641.218543245
1765.72495913
640.868321708
1765.75733846
1766.47836485
642.157981836
643.222880792
1766.02349875
1766.34215296
641.972131796
1765.0660019
1764.81804619
639.875060266
639.555304541
640.56665329
1765.26200481
640.737872439
641.899246707
643.274729079
1766.65415014
1765.79071581
643.365016964
1766.59137011
642.000493542
7276.53464065
3602.74040532
56.6528380601
-27.0297152782
3601.36895526
635.663135315
3602.8693795
3604.01589274
644.388362311
644.710215647
648.422698805
3605.31988334
3606.34781428
649.140973047
650.279114714
48.4296785267
56.1542248078
57.4711248441
-23.0067207647
-23.0197468843
-23.0346470084
58.3311426425
58.6439610704
1764.23440447
1765.41849992
636.055526443
635.90657808
1764.83134779
636.21604445
1764.8241831
1768.07444773
1766.98324682
645.664135848
644.584006243
1767.68545519
1767.19245573
645.952898285
1768.43517278
1767.65579864
644.733777936
646.040804544
1767.51111427
646.055937165
1768.62094514
1769.33849351
1770.25277255
648.37358421
647.360118791
1770.07264745
647.299985659
1769.49619671
1771.01097822
1770.80709441
649.167784198
649.686626602
1770.57697214
649.777852787
1771.21475404
1771.42360137
1771.96033113
650.637396558
649.976134249
1771.78934737
650.192207615
1771.61220715
3620.46333467
3614.29670571
3607.96259483
3605.15410958
34.5156643631
40.5896429994
35.1166334845
40.1708073418
39.6805966994
-27.1032016008
-27.1894933902
-27.0867121928
-27.1679434813
-27.1385827435
-27.1521955211
3623.57873318
3622.60859493
630.554478198
632.105756359
3624.29075401
634.24581431
3620.22713338
3617.58204796
632.200177287
631.583555477
3618.96622843
3616.91147729
3614.29064517
633.949819216
635.524903521
632.514551769
633.905321881
3609.88638759
3604.38880378
634.115024458
629.134029608
633.516446063
630.830303557
3611.65066685
3609.77310187
632.128297018
633.60724545
632.251430373
3603.58420726
3606.67850758
3603.14395249
633.464156083
631.223336969
632.429873071
631.232810517
631.628411004
630.733963388
28.9675255816
30.328280838
33.0519849649
-23.1046753577
-23.0366272053
-23.0837064387
-23.0232275495
-23.0062025483
-23.0702642857
-22.9689462493
-23.0040042
32.1941196708
33.196429015
37.4033572503
35.0489031187
37.5547679123
-23.0394842859
-22.9886242632
-23.0472541834
-23.0047826235
43.6842866267
40.4931744019
43.580305306
-22.9064138382
-22.8020993896
-22.9248484317
-22.8188364027
37.4152418802
37.4398619061
-23.0733156065
-23.0326563926
-23.0519726073
43.1087768594
40.0376072015
42.6319136955
-22.9782391583
-22.9262029439
-23.0015484129
-22.9644537807
1788.86462036
1790.14895027
628.553992803
631.28587365
1790.46968539
629.112494297
1788.61232542
1788.60705991
1789.04104122
631.889692241
630.244827719
1790.07388017
1787.81572173
629.795841954
1791.04556232
1789.67696963
634.263478372
635.97719945
1791.04644065
1789.40249066
636.213999649
1785.60947949
1787.66914353
630.665870273
632.197881315
1786.74834231
1786.27945016
630.939851268
1784.40371569
1783.61935898
631.862520367
630.672956879
1784.87478616
1783.25635212
630.795865402
1785.33812233
1787.89186515
635.26803168
633.524073172
1787.25354796
1786.20798859
634.544668459
1783.50628545
1782.55734516
635.840042252
634.8686075
1785.48368331
1780.73210617
635.012698015
1783.71365143
1783.34774683
632.973321394
633.270334665
1784.67351556
1782.40160412
633.857454421
1781.94913449
1778.37524767
634.366836065
633.733369473
1779.3567218
1780.73526695
634.309940948
1772.60219635
1778.73053963
632.627038576
633.818320442
1774.07426695
1777.10368233
632.52784594
1768.21517327
1765.34629771
630.72565869
629.572375297
1769.45031378
630.844317128
1764.35735543
1771.90104482
1775.37181846
633.692842398
632.825100332
1775.98364263
1771.74158868
632.695331947
1767.85143376
1764.53254668
630.323612557
631.763999187
1768.05127887
631.372422452
1764.1190486
1780.12915546
1782.20887295
632.83959277
631.651597427
1781.24246744
1781.08736989
632.337640208
1778.67410824
1777.48247746
633.335175546
633.255444008
1779.65111477
1776.68435486
632.908416766
1777.63504545
1774.68996941
632.873143443
631.798077334
1775.79355765
1776.41076421
632.452104333
1771.37602256
1774.78975298
632.975912743
633.27732881
1771.554325
1774.29500341
632.957676515
1768.2749831
1764.82503471
632.095965582
631.410090533
1768.14785667
632.248502467
1765.16888359
1770.97737501
1772.68008171
632.995828181
632.304044134
1773.60966352
1770.31424529
632.799001211
1768.15325416
1765.26799548
631.467661008
631.848302966
1767.79813953
632.2275335
1765.295656
1768.20769819
1771.52686016
631.542917996
630.553516562
1769.41674862
1770.03753128
630.524012854
1765.06025692
631.170374147
1767.2195235
17070.6152248
17071.0196007
17072.0907864
17076.3811121
17079.1634123
17091.7895479
12172.6514735
12173.1143045
12174.3521023
12178.3561839
12180.7452034
12194.0834942
18283.7925014
18290.000793
17064.8898115
17071.4791919
17076.3892949
17080.352421
17086.596825
17069.6540394
18285.5217277
18290.2874324
17069.5137577
17072.5944119
17075.1984725
17077.1034015
17079.1476663
17093.1574465
17066.7202995
17067.1873795
17069.2706067
17071.8608844
17074.3593129
17076.0474924
17076.9988678
17092.1775933
17069.4304754
17069.3496067
17070.3613496
17072.2123296
17074.491679
17076.6220949
17078.8131509
17093.7659324
17073.9531062
17076.2298739
17078.6733922
17092.522207
13384.3207807
13390.1599251
12171.054019
12175.9969271
12181.694345
12188.9091128
12251.8661286
12063.846995
13387.6182486
13392.1023229
12174.5760288
12177.6202615
12178.9093254
12180.2235489
12183.6943653
12192.6034076
12167.6660899
12169.6622161
12172.7402142
12175.1445556
12176.8581366
12177.8698228
12177.8477262
12187.9686423
12171.157692
12171.3743793
12172.8817967
12174.9373274
12176.9787728
12178.4656733
12179.8037236
12195.501615
12176.1797155
12178.0514245
12179.745806
12194.349354
8484.86339332
8491.26586348
7275.07788199
7277.76667626
7277.56526623
7272.75286967
7262.02529753
7203.72524462
8488.75168863
8493.98493306
7272.35534561
7276.4160817
7277.59067872
7274.12647497
7264.22570293
7258.25420567
7268.27333824
7270.68495145
7273.74349558
7276.24318573
7277.1599896
7274.80754423
7267.26172266
7286.42000362
7273.45170702
7272.46485852
7272.80738563
7274.29855171
7275.89202821
7277.05165561
7276.71763969
7273.18676861
7292.1791517
7274.49148111
7274.72412728
7275.33382972
7276.53142488
7277.4498464
7276.29387426
7293.34843615
7278.17052038
7277.76442902
7293.6663678
3588.65112121
3595.73519676
3603.49870294
3607.67154263
3607.57219944
3607.00258407
3604.91240933
3584.45007531
3586.50528803
3589.16803835
3595.77292377
3601.61171377
3605.1782747
3606.6480717
3605.25592704
3601.39389245
3590.54333118
3599.6544226
3593.53329688
3591.10147574
3595.01070644
3600.67748157
3604.68842308
3606.58145135
3605.81521045
3602.99151493
3604.07337499
3598.15434806
3596.79247891
3597.29553059
3600.88407727
3604.20833565
3605.33645474
3605.47034592
3605.02337462
3609.02780946
3600.2084093
3600.94785515
3602.3875524
3603.44078934
3604.52858155
3605.59526023
3610.0551589
3604.94612777
3607.06118001
3611.68686619
49.8953697993
53.6802203406
56.7951174212
59.0869144659
62.297351834
62.6519854869
61.3691746609
60.6883174288
46.1397052184
49.7645395183
52.8679238183
56.022008158
60.2430018862
63.3631316816
61.1688764536
59.9383241868
59.4085204626
57.377511302
45.9347190782
50.4621704399
54.1189421
58.7019809202
60.5051573244
59.4220307219
56.0644431916
56.6745970141
57.6059453292
56.7582680138
48.2671848572
51.9314122613
54.9435446791
55.8744905521
55.0624493769
54.9682814917
56.3526443612
57.7287658018
57.6237330924
49.7914245411
51.8638212444
54.2164806216
56.5812816491
58.5460454974
59.7889864617
58.8750042728
58.9194171875
59.4710861023
58.1594885829
-27.0827892746
-27.232775139
-27.3097114186
-27.234877057
-27.0445543234
-27.0557419595
-27.0200421871
-27.0195876669
-27.1031060897
-27.2982832514
-27.2794322325
-27.450060261
-27.3286518938
-27.1906278687
-27.0023534952
-27.2751817321
-27.0105245475
-27.0744852622
-27.1014118936
-27.2939579826
-27.4929751551
-27.0954411384
-27.148285524
-27.0456528595
-26.9938671069
-27.0149915259
-27.0655436514
-27.0408005331
-27.1395301569
-27.3412025451
-27.0892331784
-27.0942611013
-27.0222237002
-26.9995217037
-27.0254642498
-27.0163458748
-27.040466546
-27.1256630302
-27.3510823108
-27.0642008526
-27.0273325156
-27.1661520466
-27.0379451777
-27.0798611071
-27.1396951651
-27.3942561305
-27.0616316163
-27.1437289958
-27.3671837924
18287.1960632
18283.8684891
18287.1886612
15834.4275077
15838.0483175
15834.6758739
15837.9063291
18291.9679208
18290.186496
18292.3805255
15840.8992543
15838.5861994
15840.4814601
15840.5851312
18287.7106723
18288.0041351
18288.853287
15836.3532903
15838.9551179
15838.543809
15840.0264808
18292.1644442
18290.4452985
18292.2582934
15841.3277537
15842.4762711
15841.9995986
15844.1230791
13387.5933064
13385.3371843
13388.2227791
10934.1857395
10937.5610267
10935.7002561
10938.6588341
13392.061306
13390.3965565
13392.7829084
10940.3531441
10942.3978495
10941.044983
10942.4848788
13390.023507
13389.2491513
13391.0340655
10938.3002514
10940.9173805
10939.8292108
10941.2648317
13393.5724331
13392.9440954
13397.7103649
10942.8644011
10941.0122155
10942.7593133
10947.0422334
8488.23832117
8486.39772023
8489.46477731
6036.38323344
6039.67248418
6037.61489744
6040.51936321
8493.73577147
8492.39547862
8494.93006443
6043.19353984
6046.40107852
6043.72898838
6048.10994034
8491.57178412
8490.03433227
8491.78003055
6038.94250352
6041.81176572
6039.77598399
6042.0102936
8492.59229236
8493.53615412
8497.03102154
6044.78304912
6046.42277149
6044.63867595
6048.38762906
3586.20053157
3586.78841997
628.618024759
630.656663814
3591.68318878
3589.27252959
3592.1380823
630.220389761
634.574188208
632.019524937
636.876799326
3599.98336628
3596.05910163
3600.06007985
636.809906962
645.598337098
638.967739333
647.387968779
3606.37479234
3603.03747038
3605.19010195
647.966663864
651.941697581
649.700353135
653.23981891
3607.58814562
3606.13713413
3606.29854462
653.053487954
655.463202088
654.312942672
655.370868104
3607.2701798
3606.52819678
3606.22769116
654.91944495
652.611910948
654.785863642
652.158191667
3606.76779914
3605.69573184
3605.33357511
651.908671734
651.641726561
651.291867831
649.578813273
3598.10740044
3604.26201473
3597.60461465
651.818957267
651.047428497
648.95835781
646.445026955
3575.66827818
3585.5681226
3593.40031028
655.229011388
582.672835306
647.886223043
610.444021539
3598.68924713
3594.02023298
628.363204148
629.571074948
630.213291546
631.534022872
3586.99103381
3590.61356546
3588.84463332
629.979369785
631.082447828
632.028574915
632.419075192
3592.25170631
3589.534637
3592.08394934
632.555068105
637.683676909
633.759470611
639.874978037
3599.06329077
3595.26159886
3598.54844337
639.865111174
647.941774531
642.086458518
648.659498703
3603.68933491
3601.5175028
3603.84624146
650.293511096
653.72020033
650.546560104
652.863879615
3606.12243611
3605.58393769
3606.61484678
654.18022927
654.912528048
652.66000444
651.126081179
3606.33476497
3607.05756339
3606.73380168
654.306717608
651.745301706
650.683180545
650.227562123
3603.74124596
3605.67823467
3604.373598
651.148005087
649.178704586
650.600654826
648.748202263
3596.6678704
3602.93443629
3600.69818132
648.362461305
645.722042493
647.55163288
645.694994037
3611.10201832
3599.24858765
3621.54272614
647.103879969
614.304651936
647.269597877
619.39778936
3596.3480123
3600.08988759
3597.71764527
630.546900769
631.733253666
630.696587301
631.531198526
3591.58337493
3595.85616245
3594.49643206
632.223159439
632.951286238
632.075024014
634.834360273
3592.6597643
3593.92176378
3594.40900176
633.882574345
639.955074435
635.899874778
639.607282972
3597.89974597
3595.91246989
3598.19792675
642.292430998
648.166145636
641.076463845
645.134523397
3603.0180592
3600.81068605
3603.18375676
649.707988571
652.207127251
646.333950602
648.470969778
3605.82886346
3604.73090533
3605.67261543
651.928917345
649.329117408
648.423706266
646.498531108
3606.53936211
3606.25683555
3606.30265395
648.75296947
649.717331629
645.816295895
647.839774431
3604.50289351
3605.83821571
3604.94725945
650.12096876
648.466211225
648.401231267
648.387519092
3602.34387686
3604.11777209
3604.52005139
647.48204692
646.278076999
648.231577783
648.813220775
3625.50877197
3607.44850287
3625.25392227
648.017275772
620.378224326
650.417162399
620.225918939
630.401087202
631.54359693
3597.35963901
3600.28252062
632.233842223
635.324987241
636.613953448
3596.65381945
3599.78345819
3599.14749493
636.399086471
639.217192734
637.496387264
637.777165067
3598.92433655
3598.91531284
3599.66751212
640.28044091
643.599750808
637.84655978
639.823240803
3602.83059219
3600.87271534
3602.19348693
644.730092624
647.013529761
640.783988874
643.248376012
3604.93735888
3603.21373111
3603.82422997
647.261963046
646.139651966
643.856985974
644.964196753
3605.51445073
3604.18967948
3604.54377376
645.726542594
647.205478482
645.083921105
646.869635053
3605.16290326
3604.86800495
3604.93406513
647.985643988
648.847683043
647.953610144
650.037239088
3605.83858338
3605.02472964
3606.45058697
648.776448641
649.319630537
650.588039972
651.319128073
3624.48875699
3609.56662445
3624.24767671
650.943757147
618.705435007
652.247862294
618.920814268
3600.28476498
3600.95588258
637.132598178
638.853697534
637.451548661
3601.71604267
3601.1409726
3601.42886385
639.911522385
642.3273575
638.577617512
640.514765231
3602.9645559
3601.84865664
3602.45438451
642.959412389
644.599035892
641.031761812
643.388617825
3603.96128701
3603.02615641
3603.74810702
644.903334585
646.905159934
644.292995456
647.671695935
3605.06671465
3604.51851848
3605.51565346
648.022119088
650.511817788
648.770370275
651.128535357
3607.09118607
3606.34203755
3607.93267213
651.204693008
652.095604633
651.753758671
652.616498257
3624.10882753
3610.77256737
3624.55099487
652.937350116
618.889063469
653.096124432
621.041261305
3603.82787133
648.05174955
3606.05413176
649.067684838
651.084867558
3608.89827411
651.597066535
652.291249044
3625.21692108
652.636516792
621.95531749
-23.0690338565
-23.0111458463
-22.9906525431
-22.9363487025
47.7761242407
49.6670902818
-22.9775222222
-22.9516740806
-22.8931773419
-22.853210159
51.3214466331
51.5706894925
52.8609804522
-22.9671365042
-22.8751998214
-22.8645125583
-22.8184706151
55.5675385007
54.5059314888
56.944037686
-22.7679265376
-22.8601364341
-22.7728113195
-22.8253295325
57.3499303438
58.6134453534
59.8672326711
-22.8710862332
-22.8786783634
-22.8362415547
-22.8384067682
61.5188422443
62.0780361763
63.1428268607
-22.8983355983
-22.8916164208
-22.8594101244
-22.8572138239
62.5329279945
62.645564094
62.005141489
-22.8238551234
-22.8080848789
-22.8151029857
-22.8213257292
62.2608629976
61.7193454878
61.1196578664
-22.8244189129
-22.8829194735
-22.8484832929
-22.9058745707
59.5101797522
60.3687977742
59.5880910625
-22.9843961889
-23.0646725109
-22.9931755826
-23.0646563555
69.0997197815
57.5436970071
64.9971268672
-23.1245616372
-23.0454393996
-23.1255119803
-23.0637488469
48.2176230676
46.1967457601
48.3989960156
-22.8689537106
-22.8253619177
-22.8325587336
-22.8053684711
51.0667468038
50.3831325449
51.9531552975
-22.8576446762
-22.8412649761
-22.8903764572
-22.9003544486
54.4474297317
53.8212968723
56.132091379
-22.7837567683
-22.7642474499
-22.8558131955
-22.8514405364
58.4544924222
57.9906400434
59.7513498953
-22.7791937518
-22.8532673283
-22.8617265459
-22.9016792973
61.8863334394
61.3013900816
62.0591338357
-22.8827317307
-22.8751631823
-22.9126875084
-22.908316051
62.7557980938
62.0376871555
60.3149623979
-22.8616959753
-22.8793315944
-22.9281743259
-22.9048173081
60.2097517572
58.5185050507
57.6935355799
-22.871840227
-22.881738463
-22.8828528013
-22.9091834704
59.6532147355
57.8838169946
58.1111346267
-22.9107369112
-22.9527089994
-22.9428687335
-22.9816713969
59.5888642191
58.3833608251
58.9948085746
-23.0163388516
-23.0741794575
-23.0359636928
-23.0850186712
65.0690283412
56.9754282576
64.3537375187
-23.1281252058
-23.0605866703
-23.132357525
-23.0605578953
48.3352594884
45.2906272636
47.6953681509
-22.944678403
-23.0188920659
-22.9893870099
-23.0692276771
52.3070706601
49.8348282431
51.8461192074
-22.9480821918
-22.904778765
-23.003691854
-22.951652913
56.508056723
53.8222899175
55.8712480697
-22.8565868781
-22.8249594518
-22.8906671333
-22.8441944693
59.7792368262
57.5790133561
58.43939474
-22.8244618777
-22.8369814698
-22.8172609882
-22.821914061
60.6184519333
58.5287036042
57.9324124649
-22.8433078136
-22.8581596662
-22.828648214
-22.8507938144
57.0989441619
56.6556157347
55.1975921009
-22.9109268212
-22.9209943314
-22.917623897
-22.9362020788
56.2273927186
54.8250194564
55.5643284065
-22.925789032
-22.9360380216
-22.9500704043
-22.9584619652
57.1466139926
56.2348166826
56.7841228739
-22.9612999784
-23.0105968768
-22.9789888664
-23.0340628368
58.2972847079
57.2713877257
58.2445664811
-23.0602949026
-23.0966533911
-23.0737353775
-23.1012438963
63.8666572733
56.9948238205
63.4684207256
-23.1475601423
-23.0653268533
-23.1473629552
-23.0638901246
50.110781723
47.6620090801
-23.0357667036
-22.9835688651
-23.0084657405
53.6540845332
49.1830002317
50.686018104
-22.9195580639
-22.8736107758
-22.9605955963
-22.9201307893
55.6580409157
51.810071684
52.624865622
-22.8478737144
-22.8482316252
-22.8995470707
-22.897760086
55.5757417515
53.3628985645
54.0015066538
-22.859829528
-22.8751923438
-22.901792035
-22.9097656393
54.7354953926
54.4581591626
54.9139743492
-22.9303593206
-22.9569334049
-22.9475147287
-22.9768496386
55.6691416736
55.6577174121
56.4821290998
-22.9726745676
-22.9909925788
-23.0040118765
-23.0220258641
56.9592635042
57.3365304365
58.1478497508
-23.011801983
-23.0436210036
-23.0293516739
-23.0516969566
59.0015383118
58.8678672126
60.2698143542
-23.0771509693
-23.0992078751
-23.0810455349
-23.0987422707
63.2855807955
58.350986576
63.3074332355
-23.1397353468
-23.055129387
-23.1362888612
-23.0560184937
50.7170244511
49.5758424571
-22.9822960626
-22.9737758827
-23.002257276
-22.9936560769
53.0968745436
51.0114805946
52.4634239065
-22.9636605413
-22.9418086134
-22.9792496931
-22.9612884009
55.4853532556
53.9896184001
55.5793065418
-22.981919066
-22.9980131804
-22.9739953883
-22.9938768658
57.5369836533
56.9068815145
58.1125364231
-22.9927662611
-23.0120060288
-22.9957513626
-23.0139319724
59.4739717372
59.1518536409
60.026829142
-23.021827448
-23.0399494222
-23.0213172162
-23.0416525349
61.1197146063
60.0035131211
61.028050394
-23.0693897878
-23.0901761863
-23.0722583239
-23.0953082963
63.4943552061
58.704958585
63.6925839757
-23.1324456215
-23.0600237447
-23.1386159652
-23.0665632795
57.8960295165
-23.0212370128
59.6249031374
-23.0350887171
-23.0564412415
-23.0515083762
-23.0696101284
60.4069848892
-23.0861989275
-23.111439639
-23.0973754337
-23.1254373601
63.4322219915
-23.1503736747
-23.0748994854
-23.1618306715
-23.0888829749
1750.42185871
1751.37103776
626.832205361
629.192576139
1751.3581128
627.36972131
1750.48453589
1750.52069741
1751.68381355
629.948954003
629.451227341
1751.52886104
1750.95501114
628.360853936
1753.74310894
1752.40206479
631.589303337
630.76394278
1752.55087831
632.131481178
1753.57858645
1755.35339388
1757.20787385
632.811921966
635.254909815
1757.59720397
633.434783096
1755.0998975
1754.18832008
1752.91410913
631.415340618
633.557592029
1752.80643832
1754.43300718
632.843533962
1755.96477568
1758.37020076
636.053344297
635.089609967
1758.11524494
1756.30486744
634.254087788
1762.92892341
1759.71339321
639.699858393
637.543141397
1760.09072331
640.314784811
1762.60555125
1765.89675024
1768.63167093
642.979185721
646.216821839
1768.69447157
643.547338602
1765.70249252
1763.19860374
1760.57075694
638.28140765
641.578866887
1760.45387839
1763.14381558
641.004327989
1766.05307775
1768.14573643
646.91919135
644.76727
1768.72892077
1765.77095778
644.244885472
1772.38079808
1770.82399033
649.592017563
648.55586938
1770.83881742
650.111715734
1772.3943188
1773.51302753
1774.43957612
650.722141866
652.389832653
1774.35050976
651.186872006
1773.54844769
1772.19848124
1770.16819576
649.232626051
651.266118772
1770.77861052
1771.60850113
650.734609245
1773.1674867
1773.11017342
652.79758719
652.220863636
1773.82751436
1772.50411143
651.699770413
1775.05336489
1775.33575162
654.188329346
653.659846932
1774.94241958
654.615470043
1775.79511943
1774.87973544
1775.01919093
655.288589223
655.501443084
1774.19915434
655.462886301
1775.69413957
1774.24973905
1773.52153186
654.204772283
654.963779692
1774.28212018
1773.55373523
654.960434419
1774.13858542
1773.29165936
655.49143783
655.37634117
1773.63274181
1773.58635303
655.49861383
1772.36401969
1774.12529488
654.34318688
654.98741532
1773.41631062
654.418727422
1772.84355695
1771.25941617
1770.2772241
653.414122981
652.626655994
1770.07738275
653.521081606
1771.52270467
1772.20749104
1772.96196464
654.885813297
654.133879813
1773.03714095
1772.36899796
654.376183209
1771.2645358
1770.61317264
652.421831727
653.167197203
1770.17985052
1771.57619829
653.442942161
1768.8242615
1769.43747534
651.585049123
651.782854084
1769.19288845
651.295687909
1769.27895251
1768.8506188
1770.46150776
651.593931925
651.027475849
1769.0261956
651.177961619
1769.72501024
1768.71873702
1769.75368661
651.515689628
650.5647983
1769.27763753
1769.03669524
650.821750787
1768.39837923
1767.83625023
650.19476776
650.029690939
1768.22438985
1768.44401373
650.480518007
1768.37394888
1770.81646998
651.367278886
650.84636614
1768.79194713
650.154662823
1770.79420716
1767.18043024
1766.75707716
650.681239057
649.081701883
1764.92038048
649.140025888
1769.66703658
1766.68323675
1766.81017442
649.820496638
648.029561673
1767.57350965
1765.44737672
648.989168207
1765.07824238
1761.21151231
647.714933811
646.870340394
1762.61587938
1763.53850469
647.925069994
1753.57504003
1761.11608824
672.529756812
651.848047809
1760.27544619
663.58907095
1752.3913539
1739.50705544
1739.81999746
721.977362707
625.924566257
690.578210743
1750.07177438
1735.21271688
1751.54303774
1757.31735207
649.954911038
653.913657769
1758.26907248
1751.41936914
657.268862049
1735.88028032
1764.43492114
594.762308508
662.827222043
1737.64256606
667.684766296
1756.00446259
1759.07237565
1761.73517649
628.631116535
628.812550249
1758.55907251
629.228811187
1761.41970774
1756.92579351
1753.92416956
629.27115196
630.521807234
1755.7496482
1755.2857771
630.095742411
1759.48844721
1761.8164208
629.593935996
630.329571262
1759.89699652
629.778616259
1761.43458339
1757.7904784
1757.038453
631.095045343
630.998277572
1756.40918855
1758.3954024
630.531901438
1752.86834582
1752.70914554
630.04354323
630.932084162
1751.74395789
1754.02046312
630.969026399
1752.18606571
1751.74186797
630.194688695
631.652042651
1751.36781891
1752.13500425
630.891492369
1753.8252243
1755.66551482
631.633049845
632.023019133
1755.02953215
1754.50846648
631.606217012
1752.90802681
1753.05872007
632.31409078
631.914852994
1752.52488431
1753.6528862
631.600236999
1754.40522613
1752.84988825
634.301759187
633.066094594
1754.37351087
1753.01528926
634.819543778
1756.04420032
1758.18794251
635.870229574
638.447733168
1756.18520084
1757.94622631
636.53458855
1754.20018903
1753.26066307
633.512289504
635.596871282
1753.02167075
1754.19509505
635.348254798
1755.75055872
1757.46451091
639.384635233
637.674458498
1757.69352632
1755.64063121
637.2456435
1762.25181261
1760.34087789
642.349366237
640.617615561
1762.74737315
1760.00591702
642.99188263
1764.52084561
1767.46844248
645.298655675
648.31931157
1765.18237275
1766.75793364
645.763868045
1761.74310187
1759.28598808
641.597984925
644.238806756
1759.6309297
1761.35216237
643.822167381
1763.9818013
1765.61189374
648.732996403
646.474819444
1766.24277098
1763.50634132
646.292585516
1770.1419436
1769.5101003
651.900443309
650.55610134
1770.98317105
1768.71649569
652.240205452
1771.0412036
1772.38271434
653.069651764
653.790555788
1771.86736837
1771.60323657
653.391746356
1769.53718652
1767.3440953
650.872371347
651.894321546
1768.13181465
1768.73204411
652.379621648
1770.49887306
1770.71881514
653.490149156
652.710695413
1771.17094052
1769.86981631
653.274980214
1772.82231565
1772.86311291
654.67946202
653.905391992
1773.23925373
1772.16259462
654.155271275
1773.35448776
1773.42029228
654.982758777
653.96597326
1773.50789127
1773.55299178
654.227841956
1772.641775
1771.53096646
653.362933238
652.302910948
1771.90005614
1772.25110222
653.332856328
1773.3041505
1773.24657963
652.66853651
651.738865772
1773.56183954
1772.8373149
653.118610194
1772.84459056
1773.07249431
653.529441623
653.528196656
1772.4726965
1773.35519874
652.764510597
1772.32922059
1771.03237795
652.487769645
651.383145153
1771.78218369
1771.80835601
651.851090845
1773.1927869
1773.40616402
652.19400793
650.292018385
1773.41376567
1773.50844962
651.590922069
1772.9046035
1773.3175045
650.797381134
650.054028722
1772.56196614
1773.4917739
650.925501911
1770.47963985
1770.32677768
650.507749096
651.068560367
1769.6011276
1771.25679055
650.527447041
1769.41985752
1767.73776645
649.882278983
648.859671987
1768.77862727
1767.99534938
649.734835714
1771.32502169
1772.87283833
650.900899279
650.44345356
1772.07588949
1772.11729367
650.580471574
1770.12336701
1769.14109441
648.70401537
649.807796306
1768.51555647
1770.87049303
649.8120332
1764.54072519
1766.36121106
647.330511429
647.855606068
1764.6835161
1766.36082994
646.776110812
1762.58532777
1760.75148619
646.182452932
645.27175516
1762.67917162
1761.00927831
645.65802177
1765.02866695
1767.3476837
647.59294311
646.594388179
1766.80971964
1765.64062229
646.578183314
1763.28323949
1763.04088487
645.539537886
645.709600029
1761.94493033
1764.13295131
645.688303395
1754.53081056
1758.08282292
652.941012944
646.618042152
1753.25687949
1758.93451881
652.394307534
1743.14887209
1770.10678415
660.771615791
615.91425631
1741.45840747
659.938777525
1772.97971075
1756.28135135
1761.58575842
647.043090835
653.013529954
1760.28985776
1757.56872912
652.787217893
1745.11081534
1775.24396776
617.825371621
660.045470672
1746.10595998
659.711881002
1774.77106114
1760.48898186
1762.15168975
630.6473134
630.725910995
1760.1499241
630.79031418
1762.56492785
1758.85315795
1757.32767374
631.246833792
631.795142769
1758.64387111
1757.53149932
631.296859526
1760.81630978
1763.08498415
630.806106302
630.695483488
1761.26610001
630.769173291
1762.84161556
1759.22623041
1758.80049649
631.580173514
631.019981622
1757.98399388
1759.86101495
631.111071371
1755.76263358
1756.10466674
632.365684924
632.252101537
1755.07722898
1756.55883918
632.484036832
1755.25774328
1754.03136925
632.386346609
633.439343223
1754.43833638
1755.08056354
632.814383706
1756.74106606
1758.28868713
632.079246029
632.792622862
1757.25133523
1758.03597018
632.587787083
1756.36662399
1757.76916923
634.189369673
633.775728904
1756.23628483
1757.85035673
633.310307235
1755.62818798
1754.19110194
635.684349819
634.311279556
1754.54427327
1755.30298306
635.72896124
1756.33540439
1757.30233317
637.767749445
639.994731057
1755.69750968
1757.75941039
637.815902197
1756.74611925
1757.80507841
635.165134342
636.953277698
1756.36156192
1757.95455724
636.345610688
1757.30367306
1758.88800395
639.688758455
638.212598095
1758.27164643
1758.27142433
637.896490845
1761.68670783
1759.03469636
644.42804745
642.151126528
1760.98398785
1759.51982253
644.045927444
1763.42279445
1764.91214388
646.353096806
647.420082313
1763.02938134
1764.95170858
645.764001257
1761.06451812
1759.88007654
641.56994761
642.54837927