/*--------------------------------*- C++ -*----------------------------------*\
| =========                 |                                                 |
| \\      /  F ield         | OpenFOAM: The Open Source CFD Toolbox           |
|  \\    /   O peration     | Version:  v1906                                 |
|   \\  /    A nd           | Web:      www.OpenFOAM.com                      |
|    \\/     M anipulation  |                                                 |
\*---------------------------------------------------------------------------*/
FoamFile
{
    version     2.0;
    format      ascii;
    class       surfaceScalarField;
    location    "14.5";
    object      phi;
}
// * * * * * * * * * * * * * * * * * * * * * * * * * * * * * * * * * * * * * //

dimensions      [0 3 -1 0 0 0 0];
oriented        oriented;


internalField   nonuniform List<scalar> 
92311
(
0.20306547095
-0.000193225943683
-0.00112865562599
-0.202666879588
0.000923290019292
-0.000138767686564
0.203300987339
-0.000803302171435
0.000707089311037
0.203099547391
-0.000330361804093
-0.00119325579954
-0.202743323612
0.000974748298741
-0.000179725239567
0.20329359776
-0.000815101544177
0.00066280093068
0.20324960165
-0.000195228772806
-0.000148432549155
-0.00113622108342
-0.202655907886
0.000880344723225
-0.00016093284746
-0.000163223859725
-7.7026959217e-05
-3.13863531407e-05
-2.50959315185e-05
0.203501403811
-0.000804875320833
0.000602932283678
-9.56254724625e-05
0.0509700411263
-4.69865944885e-05
-4.39804473532e-05
-4.34420553117e-05
-4.33476193054e-05
-0.000391945150243
-0.0509070704725
0.000311549726555
-0.0510171475075
0.051066531835
-1.945789332e-05
-1.54483920153e-05
-1.51983793054e-05
-1.40931004536e-05
-0.000280808258438
0.000218612843795
7.15347239709e-05
-0.0188754748859
5.26385062453e-05
5.70550618424e-05
4.56269979256e-05
0.00207960478453
0.0161919143565
-0.00133311096998
0.0017101778134
-0.0242650904073
-0.00703281767343
-0.000895157054341
0.0238455596023
6.59070623385e-05
6.27321467725e-05
6.15858822857e-05
5.92568767521e-05
0.00809827044667
-0.0184727012774
0.00445701497076
0.00371889576263
0.00395802808268
-0.0239134644664
0.03272604189
0.0500638108965
0.00396617961766
-3.16157635255e-05
-3.15577440366e-05
-2.72867787016e-05
-3.74853049633e-05
-0.000335599183876
0.000268058483021
4.91576771649e-05
0.0116585630188
-2.26031526721e-05
4.77722712903e-05
-0.0116613796489
0.0116100168411
-2.05075581694e-05
1.76349639341e-05
-0.0116319804371
-4.49247336308e-05
6.99035181732e-05
0.000187704646245
-2.0096986782e-05
0.0511295010657
-1.26700537347e-05
-1.42538903201e-05
-9.01587382866e-06
-0.000225971154563
-9.7223208919e-06
0.0510899932002
-1.3648776066e-05
-1.17932329263e-05
-1.81684270189e-05
-0.0510156873832
0.00014170510782
-2.86470339641e-05
4.78062285338e-06
0.011605022751
-4.47053699685e-05
7.35658873831e-05
2.51743943916e-05
0.0127681993304
-3.34091420337e-05
-2.33090064795e-05
-0.0127567444209
0.0127569434434
2.427064917e-05
-1.57411389212e-05
-0.0127499879261
-0.000313902279584
0.203087492347
-0.00182433376559
0.00160178919227
-0.202551045205
0.20334535764
2.36944932974e-06
-0.000424051636751
0.00037870561421
6.29574989123e-06
0.20343574037
-0.000304230253103
0.000208736264892
-0.000500645772678
0.203167759132
-0.00191365058092
0.00163672962011
-0.20270361906
0.203441333077
-1.76370433955e-05
-0.000552309875244
0.000425837001977
4.07665431632e-05
0.203590414138
-0.000403398993069
0.000220987838223
-0.000221450452391
-0.000267699868369
-0.000245058708181
-0.00186548983207
0.203167511394
0.00168960749011
-0.202561540658
-0.000196261136598
-2.84546791496e-06
-2.55250273928e-05
4.00177467416e-05
3.97037091507e-05
0.203621113236
-0.000503757599039
0.000315582326673
0.0509521347781
-8.58548399443e-05
-6.81077960986e-05
-9.33038209986e-05
-6.2622384046e-05
-0.000537204591284
-0.0508714389114
0.000545020805986
0.0511927729576
0.000176173018201
-1.49727315829e-05
-6.95900723238e-06
-7.24107884948e-06
-4.44213826562e-07
-0.000212685760593
-0.00913913115274
-0.000769599104663
-0.0233258294804
5.87256479032e-05
4.97699696593e-05
4.67984350179e-05
3.60576395056e-05
0.00877804452442
0.00151792359531
0.000977173941535
0.000505233732022
-0.0141116443162
-0.00397479465757
0.0410580903265
0.0238993297141
0.00175186783321
0.00592438675999
0.00286892050006
0.00633668891394
0.00345365291106
-0.00424894137782
0.0220526942755
-0.00858300109275
0.000485683520034
-8.93259951176e-05
-0.000103751409336
-9.47662244862e-05
-9.5921249661e-05
0.0510305995822
-0.000447950462558
-6.50533191481e-05
-6.95261500425e-05
-7.28103143969e-05
-7.89559950373e-05
0.0509776106407
0.000446900091949
-0.0508973099468
-9.81320686148e-05
9.34854449288e-05
0.0116118165846
8.27528298854e-06
-2.84018070683e-05
-0.0115871535354
-0.000132412745083
0.000137777233041
-0.0116327864606
-7.49279283139e-05
6.21492082489e-05
0.0116401076781
-7.55903716731e-05
0.0127311761703
-0.000143832200246
0.000133377639277
-0.0127101526151
0.000153234946854
1.44720976632e-06
-6.79632852172e-07
-2.65534504298e-06
8.74297121786e-06
0.0512192282263
-0.000212037679763
0.0511535556336
1.55997097683e-06
1.28571497042e-05
6.51206273633e-07
1.0662331648e-05
0.000126910527477
1.77943844273e-05
2.43878184929e-05
1.60764354934e-05
2.12294827367e-05
0.051161025973
0.000106043604311
2.54752010325e-05
-3.55742311003e-05
-1.28899936718e-05
0.0127762397408
-3.50177221772e-05
-2.38193988273e-06
-0.0116216646412
-4.1384376384e-05
0.0116212222457
7.92549671828e-05
2.71823984058e-05
-9.41791603811e-06
0.0127661907814
-0.0127661278596
1.90395606852e-05
0.0127682306965
-2.96015557136e-05
2.62467612117e-05
-0.0216582358043
2.7524221348e-05
1.48129431451e-05
1.86183453473e-05
0.00484281831564
-0.000543970119705
-0.00159837919962
-0.00148259771921
3.31544523998e-05
3.26821401438e-05
4.11614624874e-05
3.74914648044e-05
-0.0123742709298
-0.00286841113593
0.00954758784178
-0.00667074622548
-0.00637916630588
0.00804119746564
0.00797827980209
0.00727067730311
-0.0057979540716
-0.00531666133574
-0.0013900070456
3.36023785381e-05
3.17284969878e-05
3.88512110217e-05
0.00676339936353
-0.00331962370123
-0.00563311203352
0.00890617140812
0.00656394575784
0.000101353560887
0.0127477687316
-0.000111187738405
-0.0127357801443
-0.0127336743113
-2.55532862936e-05
-8.58610302642e-05
0.0127312033602
6.99305010351e-05
-3.19114222927e-05
3.26422854657e-05
0.0116536201026
5.68101982115e-05
3.81604477597e-05
0.011677163671
-0.0116829813394
2.07685483203e-06
-0.0127242111904
8.66488166245e-05
0.0116731008437
-7.82357546804e-06
0.0127466975265
-9.54936351424e-05
0.0127307656107
-1.49386456333e-05
-6.92910505339e-05
5.30650997175e-05
5.72866882563e-05
-0.0127455023187
0.0127421632729
-6.79385558236e-05
-3.86964627552e-05
2.40001628475e-05
6.3795378878e-05
1.23202076379e-05
-0.0116540805731
0.0116320881376
-2.04730698218e-05
0.0127308295266
4.21879014181e-05
-1.5942147425e-05
-8.16846345089e-05
-0.0127372373799
-1.60968249569e-05
-3.71739707007e-05
0.0127432277488
2.78325979132e-05
4.41516369247e-05
0.0127438709192
-5.65864338372e-05
-4.38055768593e-05
8.04363938559e-06
0.0115980245973
7.6335230196e-05
9.18188651797e-06
0.0116267782307
-1.69326731582e-05
3.16524280943e-05
0.0116179909333
-1.22047505594e-05
0.0127478544526
-4.72605716327e-05
-1.62302323298e-05
-0.0127590819066
0.0127674851414
-3.82476887165e-05
-3.93759976846e-05
-0.0116076268073
0.0116128633761
8.37407583854e-05
-0.0116226417474
-1.53054440081e-06
0.0116241850623
-1.99912691223e-05
-3.42453783685e-05
2.64259029124e-05
-4.05418210896e-05
1.30809831534e-05
7.93765794903e-05
-6.02981224631e-06
-4.13585766918e-05
-1.63852293808e-05
-0.0127493383292
0.0127547918226
2.15331730198e-05
8.76559446973e-06
-0.011650356124
0.0116575322186
-0.0116672799313
0.0116774224726
1.49541763921e-05
2.43467103465e-05
-2.37881025875e-05
-0.0127359118147
2.97289947132e-05
-5.44045630391e-06
-0.0116656440407
1.52408197394e-05
-0.0127343521356
2.08251188908e-05
-0.0116480570616
0.000233967430313
0.00660959787808
0.000107810495629
0.00010436662481
0.000121827510183
0.000119968534299
-0.0184156752129
0.0130485275665
-0.00193000241814
-0.00718743484002
-0.0064612650181
0.00734357324627
0.00805766547875
-0.0138421083886
0.000966054728457
0.000118319176432
9.03106034208e-05
0.000109870887651
0.0069971598859
-0.00623832722871
0.011701252434
0.00135571368419
0.000133553776678
0.000133024754773
0.000131766448772
-0.0182393063918
0.00912139458898
-0.0124664693912
-0.00748937140584
0.0147355205199
0.00716424506423
-0.00666103393726
-0.0111307271176
-0.00147564949051
-0.015394188125
2.27115920205e-05
1.50246186397e-05
5.71874723104e-07
1.41531811388e-05
-0.00469635833336
0.00121597370608
-0.00352444971891
0.00037046095685
-0.00291841061457
0.000438140105851
-0.0016594600268
0.00913649958763
-6.08067544983e-06
-1.53881101175e-05
-5.45790870898e-06
1.92966941887e-06
-0.0172028088442
-0.00564327299158
0.00164196951463
-0.000404980236386
-9.31994597362e-05
-0.000716467804192
3.67292700478e-05
1.21777853479e-06
1.15274408544e-05
-0.0214224840597
0.00786484181634
0.000668404969828
0.000800777655643
-0.00013788185506
-0.0126968941246
-0.000118555652171
0.0127166914
0.000150827301628
0.0127020018441
0.000144040106504
-0.000127747604839
-0.0126928190942
0.000131202435997
-1.47888882065e-05
0.0116176685028
-3.99374977475e-06
8.41996184289e-05
0.0116010542236
-0.0115815894622
-5.08370012166e-06
0.0127205681045
-0.000118321151503
-0.0126855587525
0.00015455432486
0.0116055563778
-2.79427407922e-05
-0.000131719400432
0.0127385165834
-0.000124803059042
0.000145531773595
-0.0127405206054
0.000124965522299
-0.000106308929537
0.0127560410947
0.000134367078256
-4.41763635911e-05
2.83025243394e-05
0.000125148979433
-0.0116215143704
-7.70729603477e-05
0.0116314536145
-0.000111762916629
0.000137544706626
0.0127555013952
-5.30401002792e-05
0.011630998566
4.34388215612e-05
-2.30950945775e-05
-0.011619169635
7.34084905181e-05
5.90236798543e-05
0.0116389333782
-3.60978930216e-05
-0.000135793673151
0.0127474244229
0.000123526098754
0.0127384707009
-9.28946764352e-05
-0.0127165135981
9.42706490008e-05
-0.0116309305978
0.011640414113
0.0127556822749
-0.0116134136606
-9.02408381778e-06
0.012774760319
-4.07616089265e-05
-3.82910172427e-05
0.0116208459524
8.0027959319e-05
0.0116240607994
-1.31152093321e-06
-3.71907534901e-05
1.3307405727e-07
0.0127809255052
2.51691214599e-05
9.88428655318e-07
-3.64326585997e-05
0.0116245889981
7.84635866457e-05
0.0127828297852
-4.47163631027e-05
0.0116272159616
-3.45050124002e-06
-4.54528826864e-05
0.0127835719756
1.68500041672e-05
2.74146313346e-05
-0.0127883925351
4.46863984198e-05
0.0127923656038
-5.17428808731e-05
1.47949616827e-06
-3.7879644379e-05
7.60678269242e-05
-2.89928985873e-05
-0.0116245506701
-1.11836887727e-05
0.0116245347022
-5.22301285786e-05
2.40682614634e-05
0.0127839030406
-6.93326918918e-06
-0.0127640728093
1.19205817509e-05
-2.92329216603e-05
2.81037947366e-05
-7.08219183587e-06
2.55354674787e-05
1.14513553481e-05
0.0116580768357
0.0116767459484
2.005268197e-05
-1.07755727265e-05
0.0116779285875
2.20961591114e-05
2.18884414442e-06
0.0127705713283
0.0116602113628
0.0116764217623
-9.06810072433e-06
2.34540082001e-05
-3.00037095507e-05
-8.04607108495e-06
0.0116737946663
2.5175711442e-05
-2.41786769305e-05
0.0127663637847
2.03339156952e-05
0.0127718714415
1.25064374966e-05
-2.26297564391e-05
-0.0116586700064
0.0116566926732
0.0127702971825
-8.35970195426e-05
-9.67751689222e-06
-8.19832098025e-05
-0.000364205870762
0.204092860195
-0.000133767139453
0.000242797778033
0.000113562624797
-2.24033329539e-06
-1.03583137134e-05
-9.3206726192e-06
5.00543683685e-08
-0.000173439859494
0.0512173632397
1.98327937251e-05
-0.00739820162541
-0.000492238489944
1.22925263898e-05
-4.31808990292e-06
-2.21867451769e-06
0.00393762771244
-0.017495751073
0.00399645869646
0.00543022332419
0.00478850034497
0.00205829009489
0.0261821151839
0.00381103132952
0.00237137545435
-6.32641572586e-05
-6.21943151919e-05
-7.14696785007e-05
-5.37799882082e-05
0.00023068928476
-0.000435723100652
0.0510415622571
-7.66477927977e-05
6.0510713667e-05
7.1903989074e-05
0.0116310189115
0.0511396481428
9.36080549535e-06
1.538058407e-05
1.25337452262e-05
1.16034629222e-05
7.65175689805e-05
0.0511406613162
-9.92938116016e-06
-2.04131349549e-05
-2.31134912878e-05
-5.63870865981e-06
-6.0697353071e-05
3.69174597173e-05
-7.46801933795e-07
0.0116070593986
-4.14977047555e-05
7.62268407862e-05
1.72992476137e-05
-2.95535829503e-05
-5.75978996128e-06
0.0116667610764
2.48685885306e-05
0.0115969290124
2.97494793447e-06
1.37730049981e-05
3.92696337754e-06
-0.0116292170973
1.15468296004e-05
0.0511652116618
-3.1889007767e-05
-2.56175359376e-05
-3.08164507033e-05
-3.00955094343e-05
0.000100711938793
-3.07304460615e-06
-3.6872268748e-06
-2.36206281966e-05
-2.40036303023e-05
-2.10137392658e-05
-2.44166430008e-05
7.13997636125e-05
5.95554115765e-05
0.0511786478375
-5.11914220133e-05
-9.91365321273e-06
2.32807810368e-05
8.84831662805e-06
0.0115688587679
6.02059271198e-06
-8.73957900244e-07
2.49549665985e-05
4.46040081378e-05
-0.0115124106039
0.0114855608153
-4.180794799e-05
9.98117568154e-05
6.12656379164e-05
7.79130533518e-05
0.00720519385827
-0.0236433799723
-0.000213531185463
-0.0165655694471
-0.00146199048825
-7.398831748e-06
-1.29211951836e-05
-4.17673176595e-06
-0.00653209539407
-0.000923235884246
-0.0139220511544
6.07356666621e-06
-1.67771552759e-05
-7.34702891148e-06
0.00343996088576
-0.00513946656803
0.000687029549722
-0.00060878076985
0.00409299363881
0.00386710757869
0.000348726699795
-0.000738775525415
0.00715738497168
0.00127125350282
-0.0095797386752
1.5687529147e-05
9.63941432075e-06
1.40217082374e-05
-0.00229888179703
-0.000265319088659
-0.00182748703543
1.2369030388e-06
8.28950388707e-06
6.57775375507e-06
-0.00506862659182
-0.000312261442814
-0.00639641140946
0.00218035997348
-0.0127704249527
-5.83005997482e-05
0.000113330223836
-0.000119691097333
0.0127718378897
-0.000126701913258
0.0127613560204
8.29254549113e-05
0.0116314832656
9.7766108171e-05
8.60868996279e-05
3.54289030435e-05
0.0116275842277
-0.000129927272661
0.00011497533422
0.0116223514154
0.0127609425297
-3.55412452283e-05
-0.0127786082623
1.904824202e-05
1.74582395181e-05
0.0127754195675
0.0127899112557
4.09908051808e-05
-4.96892932017e-05
-3.81804405641e-06
-4.31994382443e-05
7.66538507362e-05
0.0115897501007
-2.43926492675e-05
0.0116153610293
-1.22452985613e-05
-4.53158654268e-05
0.0127864791572
2.1901246179e-05
-1.15107405044e-05
0.0116005380274
-0.0127643776346
1.22168349361e-05
1.65595529971e-05
0.0127623757712
-2.03487122364e-05
0.0127581351026
1.43880074647e-05
-1.99745007784e-05
0.0116512592782
-5.35324513462e-06
-1.99287559772e-05
0.0116548658836
2.41937760149e-05
0.0116424976567
0.0127560586326
1.02886509742e-05
0.0127516748225
-3.93487215528e-07
1.04445125987e-05
-9.28357780571e-06
-3.72072929662e-06
-0.01274673877
0.0127424112196
1.4485473218e-06
1.84299749366e-05
-0.0116172679258
0.0115896510869
1.92104917163e-05
-3.30426793641e-06
-7.82254302621e-06
1.99474088026e-05
0.0127466836183
-3.44176007463e-06
1.42058623602e-05
6.32402792147e-06
-0.0127443411879
-3.07619182099e-05
-4.39349207579e-06
0.0127442546765
3.36582426699e-06
1.56362541882e-06
0.0127397415346
-1.13150326682e-06
2.86362641841e-05
0.0115624107482
2.31375386106e-05
1.74037098411e-05
2.99598535831e-05
0.0115395899427
-8.32166709087e-06
1.78440819081e-06
0.0115348481706
2.82268289474e-05
0.0127421046916
-6.78273896319e-06
0.0127472655568
-2.42831987885e-05
-5.13055709067e-06
2.82627008353e-06
4.64443874761e-06
-0.0127461902909
0.0127490904129
-6.55113218034e-06
2.00740773796e-05
-0.0115082532556
4.85025911894e-05
0.0114855325427
3.22956177666e-05
2.68254481041e-05
-2.36831977042e-05
-6.59316811176e-07
0.0127516179012
4.12419231423e-05
-6.77843249388e-06
-0.000543485644692
-0.049013704864
0.0490564878718
0.000711787515435
-0.000144897260121
-0.000108366398452
-0.000145844970265
-0.00010554887807
0.000293686443754
-0.000729136558655
0.0496110885819
-0.000127188712368
-0.000104328094414
-0.000129694055225
-0.000110204045312
0.000383929542999
-0.0494607059114
0.000666375226289
-0.00108491893294
-0.0499017952826
0.0502656435528
0.000946464336859
-0.000163934177006
-0.000154118770556
-0.000168376956102
-0.000155250962824
0.000416293089194
-0.000844724190395
-0.00015885671601
-0.000150134166529
-0.00015854744351
-0.000156073046731
0.000393384203647
0.0504179128399
0.000788743610678
-0.0501316978529
6.5168810899e-05
-0.00420866874479
0.00255508121909
-0.00291252870385
0.00274638854338
0.00149330805267
9.65669044359e-05
6.7129010391e-05
9.67548129456e-05
0.000196985294588
0.00389944287443
-0.00604622906091
0.00532700852686
0.00067230664781
0.000187837157105
0.00016945055298
0.000162444810076
-0.00458118384927
5.19205355877e-05
-0.00245103756369
-0.0181283407933
0.000574420566398
7.05067682117e-05
5.64321446973e-05
7.32117540386e-05
0.0181732164111
0.00157996733908
0.000136668053691
-0.00585087765722
0.0179599106449
-0.0178226922697
0.0045815580783
0.000569753872918
0.000145756422902
0.000135783946292
0.000144379432922
0.00013004799375
-0.00208961967074
0.000135584105624
0.000128665495748
0.000129262382389
-0.0254069724304
-0.000890707294805
0.00097541851959
0.0268886267738
0.0258812845906
0.00199893807161
-0.00686785319912
-0.0063169021243
-0.00979492791946
-0.00815910010062
-0.0321638846472
0.00512260805197
-0.0495019058124
-0.00210012191773
-0.000554618105176
-0.00155823690135
0.000193853526549
0.0186022305428
0.044709464263
0.0577739095633
-0.00825904209228
-0.00338362274592
-0.00289583606943
-0.000838201250933
-0.00111163560007
-0.0248901125512
-0.0237632273016
0.00382149043202
0.00757254236424
0.0047449710285
0.00685999464244
0.0853722430522
0.061903085214
-0.000768804451333
-0.001541737377
-0.00235326883353
-0.0283901304325
-0.006471884551
-0.00162358093897
-0.00287474572492
-0.00268480051331
-0.00414396149259
-0.00460058152447
0.0810966539291
-0.0140524837934
0.000112075115328
-5.35302797112e-05
-6.62306546229e-05
-7.28122371906e-05
-4.59644224379e-05
0.0488191273548
0.000279396373971
9.8519437996e-05
-0.049070386916
0.0488463654588
0.000354604874656
-6.11300423556e-05
-8.36570543925e-05
-7.98290254752e-05
-6.77035569072e-05
0.000273832396585
-0.0490703471435
-9.59511424176e-06
6.50132264269e-05
-0.0119958660526
7.59217273508e-05
0.0119406075997
-7.60934790718e-05
0.0119673105576
6.55519715302e-05
-3.82351471259e-05
0.00010229761443
-7.35163682723e-05
-0.0120232009704
-0.000118421355763
-0.000112426667768
-9.93468272216e-05
-0.000125574696104
-0.00022574423548
0.0122197669614
0.0121456757212
0.0121896588976
0.0121902822022
0.000239150832809
8.3227781877e-05
-6.63264108809e-05
0.000142438740407
-8.85459940504e-05
0.01189629016
0.000526194269718
-5.45571746324e-05
-8.7908148576e-05
-5.88415327251e-05
-8.66279791452e-05
0.000258241537155
-0.0491555287906
0.0492527100424
-5.03362868343e-05
-8.0502636498e-05
-8.0217572301e-05
-4.89881466426e-05
0.000230028108041
-0.049284520182
0.000587988442113
0.0119655072939
-4.97981847142e-05
0.000100799259145
-0.0120205817725
6.94954783615e-05
0.0119820862581
-2.89446684227e-05
7.80313275868e-05
-7.67846654143e-05
-0.0120352080462
8.04919800264e-05
0.000986155147988
-0.000132917976747
-0.000171725872059
-0.000134206066287
-0.000167990953312
0.0492295729553
-0.000198048513281
-0.00016261024808
-0.000223000684847
-0.000183825933834
4.73656396376e-05
5.37931364387e-05
6.29513501035e-05
5.10971251252e-05
0.0493061491302
-0.000128993422745
-9.9367149446e-05
-9.66915250009e-05
-0.000127885688619
0.000382308469044
0.0496390770995
0.000918921189781
-0.000124805684386
-0.000155646076016
-0.000162546986344
-0.000124440257184
0.00030192752883
0.000129054944249
0.0119038167316
8.13822844557e-05
0.0116903037687
-0.000168976531843
0.000254681434559
-0.0117604749097
0.000160480787699
-0.000176018580034
8.86403079852e-05
-5.19662662928e-05
9.68172339074e-05
-8.56844661108e-05
0.0119343555326
0.0117252618987
0.000112370018548
-0.000109981414784
0.000198699922208
-0.000124707793406
-0.0118015747764
0.0500433679315
-0.000165401984602
-0.000149000651378
-0.000149420743028
-0.000157831781706
-0.00118701341441
0.00031972203906
0.00124302160791
-0.000143934732622
-0.000112299194386
-0.000137828878699
-0.000114445518143
0.0506984256
0.000145116345623
-0.00153455236815
0.000236687417645
0.0116617841391
0.000168243204931
-0.000179345076114
-8.58639629647e-05
9.37298683422e-05
-0.0116172525964
0.000219090672335
0.0116494798116
-0.000259242099268
0.000110839022919
-0.000133036605506
0.000197006785215
-0.000127936383719
0.011678538492
0.000109787565543
-0.000110230344708
0.000155631326554
-0.000142796898525
-0.0115960952092
0.0115836215989
0.000803985304389
-0.000137810407694
-0.000159907874355
-0.000131097288932
-0.000154741373963
0.000407934382291
0.0500514594211
-0.000137939163267
-0.000153374726849
-0.000151413168798
-0.000142834518057
0.000420328421754
-0.0497911410747
0.000708891211257
9.8260183681e-05
0.011933996806
9.25778684968e-05
-0.0119844259555
0.011719877438
-0.00010989587373
0.000190045290444
-0.0117994612632
0.000111756811764
0.0117127370028
-0.000112609463821
0.000184751000226
-0.00012318260968
-0.0117950767676
0.000133395128311
0.00102795360472
-0.00015261349626
-0.000142557903689
-0.000156720189093
-0.000141765197806
0.0506720831949
0.000402478006039
0.0503639632132
-0.000162764202102
-0.000156879388738
-0.000152769880418
-0.000164317639079
0.000426315818068
-0.000151882908191
-0.000147403312791
-0.000153266586899
-0.000148879340303
0.0506812665313
0.000888892819571
0.000423430913404
0.000189640520977
0.0116673934097
0.000110331945002
-0.000135411423797
0.000161669542395
-0.0115715500441
0.000103507762308
0.01155147989
0.000138906232208
-0.000135780580266
0.000186609031215
-0.000126758962687
0.0116497766001
0.000133110373508
-0.000147454860639
0.000165603956575
-0.000119506678498
-0.0115433356903
0.0115114932637
0.000187161235104
0.0116419930976
0.000148389036823
-0.0117085753861
0.000158718608358
-0.011531092315
0.0114972450991
-0.000139039651056
0.000147257659775
0.00575575780437
-4.33824556378e-06
1.67495211469e-05
-1.09667466691e-06
0.00385562841531
-0.0066159537493
-0.00465385763264
0.00163684293742
0.00230869865254
0.0029075968847
3.64019372652e-05
1.99732436753e-05
1.48814106667e-05
-0.00269403853179
0.00312384895451
0.00287863727
5.86224385661e-05
0.000109578869418
9.65877730837e-05
-0.00620386135014
0.0010946494307
-0.0117661041641
0.00619261114921
-0.00197155623925
-0.0105158913812
0.0112078139182
0.00537606094542
-0.00985458160546
-0.00134977458068
-0.0122619391328
-0.0124048872401
-0.000849893252255
0.0125361740577
-0.0120811769754
-0.0015247492172
-0.00157737610111
-0.00904827736775
-0.00320736378708
-0.0020100070708
0.00231669901702
-0.00188181172436
-0.0112473522391
-0.00129340278031
0.0048124989264
-0.0112913441017
-0.00374914192416
-0.00183193303943
0.000340389536131
-0.0127639561595
-0.000567685631212
0.0011079977392
2.99005421972e-05
4.69976451976e-05
2.2899239125e-05
0.00215397573833
0.00205177111183
-0.00984890169541
3.72107052364e-05
1.25131410416e-05
1.75664177641e-05
0.00900675649626
0.00135571749523
0.000498374655024
0.00411691818573
0.00102857503343
0.000137504394804
0.000150703332575
0.000127148200623
-0.00473413784312
-0.0102181195611
0.000410934912751
5.40630700599e-05
7.06990792685e-05
7.63815109074e-05
0.000468520305454
-0.0112028421398
0.00420810370522
0.000121235838931
9.38765447288e-05
9.97772389729e-05
-0.00973178547417
-0.00195110134728
0.00893021987367
-0.00158928433432
-0.0115210630011
-0.0100404995016
-0.000992702389208
0.0086804286744
-0.0121865304121
-9.7322006305e-05
0.00552246736701
-0.000334036348584
0.000133951988343
8.01378340252e-05
0.000120467399941
-0.0080531013161
-0.0035942261903
-0.0125360697144
0.000241487008186
0.00014735888251
0.000137115006758
0.000151900314303
-0.000218147519315
0.00654962157005
0.000102944205322
0.000133456029097
0.00013273246411
-0.0138233972668
-0.0110692965804
0.000305431197935
0.00513792915687
-0.0086035994175
-0.0111782625219
0.00429463286456
0.00950429035756
-0.00890245490835
0.00291144692058
0.00071900022625
9.38232924899e-05
0.000110788848363
9.56155743752e-05
0.00103583432114
-0.0230719354132
0.000108626485291
0.000101340063459
9.57291981749e-05
0.0239925032165
0.000537312746955
-0.00622262603626
0.00567670007489
-0.000616419362992
-0.000221756698862
-0.00692491842071
-0.00525008382242
0.00560931933645
-0.00190226557174
0.00556343816816
0.000420078754874
0.00015151789752
0.000144111289821
0.000155662766052
-0.0178422328668
-0.021985267806
0.000849922691454
0.000134552740521
0.000142147909646
0.000143523133772
0.000828850034535
0.000153032474319
0.000154935787771
0.000158116496211
-0.0212800580579
0.00341696138259
-0.00713139769689
0.00220507865467
0.00509906185759
-0.00499703132812
-0.00473121639239
-0.00159963135103
-0.00217148993426
-0.00123484373788
0.0122499480361
-3.74128096912e-05
5.25122233775e-06
1.98685251265e-05
-0.0122911633401
-9.18889788701e-06
-0.0122549258371
0.0122271363783
3.56442248193e-05
6.3156092268e-05
2.85224195274e-05
-6.28224988773e-05
-0.0120288829149
7.66531763262e-05
-0.0120076497128
7.22307764213e-05
0.0119511049727
2.3702086268e-05
0.0122205976856
6.22272493525e-05
-0.0120449568339
2.65770186763e-05
-0.0122937754233
0.0122537198303
4.91090384372e-05
-5.18931214474e-05
-0.0122922556507
-6.328239698e-05
-0.0122612916663
0.0122431295913
0.000100113713509
9.28895723909e-05
-0.0120096959561
0.0119521168853
6.27465583789e-05
-6.34644396893e-05
5.39383212615e-05
-0.0120563715336
0.0122271406463
8.24374043599e-05
-0.0122994258067
-0.0120479191892
-0.0122078005389
9.3925769918e-05
-0.000176583667335
-3.80057741549e-05
0.0122100639511
-6.79125092913e-05
0.0122247140733
0.000116598245015
0.000121152327973
0.0118809499885
-8.00192515556e-05
0.000190739870255
-0.000108869566889
0.000115472144226
0.0118086682454
-2.64063514989e-05
0.000147373029718
0.0122367757716
-9.61374907818e-05
0.0117883208779
-0.000108769277844
0.0122937487634
-3.94751655509e-05
0.000121687652349
-0.0123217276617
-0.0122751223613
0.000124925059503
0.0122632592455
5.11596496236e-05
6.03851608123e-05
-0.0120483673944
9.40894473281e-05
-0.0120284104796
7.29487017412e-05
0.0119778093976
-0.0123090257489
0.000141590677672
0.0122845829353
6.77707876079e-05
-0.0120524452333
0.0123156675616
0.000130965051872
-3.7250492222e-05
-0.0123379583291
-0.000149958550945
-0.0123381610028
0.0123371096128
0.000148361531743
8.4485979683e-05
-0.012029089889
0.0119777533864
3.1248028299e-05
-7.06964339424e-05
-0.0120563847622
7.32226830517e-05
0.0123113895332
-0.0123564581609
0.000131489330085
-0.0120515216209
-0.000174273488183
-0.0122797834661
-0.000186308338717
0.0123012218329
0.000194354625125
0.0122501982948
0.000150430917511
0.000194522291593
0.000106345248768
0.0118152822184
0.000120853444577
0.0119215579093
8.37056238319e-05
0.0122723272493
0.000170628745808
0.011837342626
0.000101214677626
-0.000205110164349
0.0123416105244
-0.000192222764843
0.000224223053989
-0.0123098839103
0.000240452560994
0.012366370713
-0.000213787712718
0.000205279804864
0.00012068701333
-0.000133136808475
0.000241767915652
-0.0117807120926
0.000144233107495
0.0117060233244
-0.000171074683385
0.000255565782837
0.0124006089511
0.00011266376171
-0.0123111315698
0.000199395209512
-0.000156083290731
0.0123332833038
-0.000178162576508
0.0123395578281
0.000173191751499
0.000103849802803
0.0119260374589
0.000146368131106
-9.86607404168e-05
0.0118582224636
9.91669137481e-05
0.0123627466843
0.000194609474425
0.0118490877908
0.0123714085303
0.000227803907418
-0.000166426654075
-0.000252515116439
-0.0123989520102
0.0124504528426
0.000244074906645
0.000215107560384
-0.0117910308924
0.0117170656388
0.000154316659001
-0.000104423852794
0.000100828266526
0.0124272785769
0.000221614283774
-0.000284351154787
-0.0124675338648
-0.000217674895941
0.0125361331691
0.00029379058936
0.000139670621898
0.0124343912593
0.000259672404776
0.000140721842602
-0.000231503382307
0.000230806355115
0.000193351557703
0.0116413367509
-0.000215776501277
0.000220532568731
0.0116722425093
0.000151272971383
0.0125116177879
0.000144756161494
-0.000275087744766
0.000276065929002
0.000137567683953
0.0116425117215
0.000167775750071
-0.000300698908025
-0.000189263671317
0.0126275096914
0.000305200211106
9.36240694343e-05
-0.0126082554088
0.000315088638626
0.0126738518893
-0.000331332582778
4.4338832929e-05
0.000193233776914
0.000209393108872
-0.000244563650602
-0.0116089667072
9.98900204592e-05
0.000180111101866
0.0116279332082
-0.000302786578898
9.87390295818e-05
0.000174670184987
0.000315322329661
0.0126812551744
4.58309066449e-05
-0.0124916401321
0.000285309070696
-0.000220670812254
0.0125555877295
-0.000273696089771
0.0125081728824
0.000264075580921
0.000211152119665
0.0116768188057
0.000207419127002
-0.000137098479617
0.0116330315247
0.000112293193219
0.012566672781
0.000276465993226
0.0116394799564
0.000291065043342
-0.000207976662046
0.0126339651003
-0.0126346606004
-0.000295604876817
0.000292531429805
0.012681094987
-0.0116008091119
0.000143996649324
0.0115974002774
0.00020029748894
-0.000137946966082
0.000108201525261
0.000285757760366
0.0126835597982
-0.000181962012385
-0.012389528176
-0.000142172214501
0.012417905637
0.000168555253261
0.0123650941218
0.000161278650592
-0.0123592154003
0.000142598630813
0.000101877289003
0.0118591443394
0.000105678468413
0.0119366535228
-0.011991212957
9.78154264694e-05
0.0123905533166
-0.0123810097744
0.000148371629148
0.0118630278949
0.000106584540334
-0.000205758819565
0.0124497127898
-0.000153469121372
0.000189622052867
-0.01242574022
0.000225911748939
0.0124741116197
0.000150299729532
0.000104099048202
0.000185075524481
-0.0117984216909
0.000115034077141
0.0117209100858
0.000210354475952
0.0124956398608
0.000110941404288
0.0124711516061
0.000176147685156
-0.000155288428305
-0.0124402335505
-0.000195842258099
-0.012490996893
0.0125322458611
0.000186002950872
0.000180668630124
-0.0117948796911
0.0117147719036
0.000163958809282
-0.000118674016634