/*--------------------------------*- C++ -*----------------------------------*\
| =========                 |                                                 |
| \\      /  F ield         | OpenFOAM: The Open Source CFD Toolbox           |
|  \\    /   O peration     | Version:  v1906                                 |
|   \\  /    A nd           | Web:      www.OpenFOAM.com                      |
|    \\/     M anipulation  |                                                 |
\*---------------------------------------------------------------------------*/
FoamFile
{
    version     2.0;
    format      ascii;
    class       volVectorField;
    location    "14.15";
    object      U;
}
// * * * * * * * * * * * * * * * * * * * * * * * * * * * * * * * * * * * * * //

dimensions      [0 1 -1 0 0 0 0];


internalField   nonuniform List<vector> 
28582
(
(0.812521447509 0.00379308804325 -0.000446358644374)
(0.813930961798 0.0027890139652 -0.000740219420025)
(0.812700555405 0.0041323882266 -0.000721648770297)
(0.814129937671 0.0026212740218 -0.000143351112702)
(0.813209189077 0.00391019954296 -0.00106269492677)
(0.814795361442 0.00256456227588 -0.00132903218542)
(0.815174392887 0.00579807545578 -0.00270409568073)
(0.817677523037 0.00314198479928 -0.000283908630455)
(-0.229266604722 0.00708112725495 -0.00883737272776)
(-0.367856048785 -0.139237311004 -0.0138000839499)
(-0.0271936550948 0.0744621222634 -0.226010587469)
(0.8164161879 0.00454205200541 -0.00133209365987)
(0.748103190192 -0.00330107999526 -0.00264475263901)
(0.746083340447 -0.00355765615715 5.98350343254e-05)
(0.818661619858 0.00244773902752 -9.30221340188e-05)
(0.817655872142 0.0022006444457 0.000163420279215)
(0.746288974879 -0.00352365113769 0.000908438251971)
(0.817358771978 0.00116214401623 -0.00305933640927)
(0.817114632015 0.000897543312491 -0.00292002249001)
(0.811558055649 0.00690829587859 -0.000825430471609)
(0.815170466666 0.0011731229152 -0.000460794289897)
(0.815343189976 0.000525202482469 -0.000700037626643)
(0.812021538948 0.00715205870571 -0.00146819077097)
(0.815727624287 0.00148143181494 0.000221151217857)
(0.815570812156 0.000646706443434 0.000482695227359)
(0.812157063417 0.00745813063121 -0.00175937430502)
(0.815986650975 0.00120084636623 -0.00124899406159)
(0.814927843681 0.00993848313051 -0.0030817840955)
(0.819267787473 0.00224551562403 -0.000981466268464)
(-0.3706448474 -0.14968917279 -0.0115780796976)
(0.057702185067 0.218083312145 -0.243011400715)
(-0.10699987817 -0.192320224462 -0.165767194894)
(0.816074327133 0.00855055858785 -0.00414628199051)
(0.814862786903 0.00794606838318 -0.00350659745931)
(0.749272968996 -0.00211579242965 -0.00176584387421)
(0.748961381432 -0.00775320531563 -0.00491609833933)
(0.813696172249 0.0081364151253 -0.00191108165905)
(0.820282555768 0.0015960799531 -0.00264875384524)
(0.818786293761 0.00188075454927 0.00032227676327)
(0.819364068578 0.00128113074327 -0.000677275492852)
(0.818234150314 0.00156767398864 -0.00308971299883)
(0.74713903116 -0.00372862920877 -0.00242739318875)
(0.818006712925 0.00125098939345 -0.00249459477071)
(0.818901414035 0.00184741360969 -0.00138171454585)
(-0.278229700262 -0.0343454131151 -0.00701752436696)
(-0.13587141844 -0.0631578303137 -0.00914988738167)
(-0.11288548919 0.133115291358 -0.00752243402092)
(-0.10046039983 0.100015394766 0.00215102039319)
(-0.35247614623 -0.104274346796 -0.00941106199701)
(-0.12054868989 0.0891893330625 -0.00966052974066)
(0.814610720703 0.00606537881013 -0.00261133186491)
(0.814403705869 0.00474102238762 -0.00235533659685)
(0.746933455618 -0.00333606756123 -0.00204383183265)
(0.749450639622 -0.00161316805219 -0.00240818559302)
(0.813778620674 0.00566312803154 -0.0023010366183)
(0.748013605027 -0.00122485308672 -0.00175569795575)
(0.815476386988 0.00528652526393 -0.00256070450214)
(0.814864788611 0.00353108799615 -0.0015740183624)
(0.816032245529 0.00336550295606 -0.000675828191513)
(0.746439416261 -0.00325577275972 -0.00124319193987)
(0.747328593491 -0.00156570701298 0.000413744314311)
(0.815058719932 0.00266248646614 -0.00086514764221)
(0.747487074628 -0.00127195617718 -0.000735171803483)
(0.815902599711 0.00429423613743 -0.00188822910734)
(0.815689623526 0.00123486931894 -0.00124361134022)
(0.816234606407 0.00263498569106 7.14929662002e-05)
(0.747235693145 -0.00356709473147 0.000802822622579)
(0.747592618103 -0.00158232189505 0.000717093264474)
(0.815499677264 0.00163220030557 -0.000551741603423)
(0.747923728759 -0.00154902560487 0.000379198798006)
(0.816294338401 0.00192634504523 -0.000276564480914)
(0.817445498504 0.00128840429173 -0.00181052510612)
(0.748236102963 -0.00394724945738 -0.000622116720541)
(0.748135214683 -0.00132914338511 -0.00152374053048)
(0.816376620923 0.00106519916141 -0.00167658235862)
(0.747432213752 -0.00363156353871 5.67833586576e-05)
(0.747883878934 -0.0012234217504 -0.000566177788718)
(0.816912812403 0.00161855974801 -0.000599634276482)
(0.817099746904 0.00186853307907 -0.00323993210124)
(0.749238812023 0.000556854672915 -0.00256460697439)
(0.750282168721 0.00043599414908 -0.00260604084367)
(0.815863170385 0.000800727434544 -0.00237739461829)
(0.750135621873 0.00048900856695 -0.00286377962057)
(0.815683286141 0.00176715822412 -0.00281136905012)
(0.749019970954 0.000388374710024 -0.00268709454297)
(-0.16982310575 -0.0932389362464 -0.0121788955644)
(-0.108402703997 0.130508063209 0.0101693007188)
(-0.155167327349 -0.125261123479 -0.00136257616915)
(-0.193737904849 -0.16414491312 -0.00734754063014)
(-0.168629493191 0.109413241967 0.00374225807507)
(-0.164909583327 0.0971447846999 0.02581000571)
(-0.217502328669 -0.141173967661 -0.00371361389977)
(-0.078305274666 -0.0195538635925 -0.0274257732192)
(-0.0737626589188 -0.00392617867892 0.00496662449802)
(-0.259637495777 -0.162072843483 -0.00017535741492)
(-0.065447673751 -0.0319727091121 -0.0334012823847)
(-0.354244902182 -0.154033221532 -0.00533529390297)
(-0.0458411531373 -0.01455782966 -0.00134298191106)
(0.813880829773 0.0102696984271 -0.00281459888883)
(0.81401223794 0.0107319913877 -0.00223149192445)
(0.749695659261 -0.00382763639859 -0.0031930021984)
(0.747955150746 -0.00375038752305 -0.000783334622458)
(0.814289691952 0.0102095913308 -0.00374621159066)
(0.813625843207 0.0107316799967 -0.00133501290894)
(0.748426501732 -0.00519533778711 -0.00170644356747)
(0.814565816878 0.00961532163854 -0.00339692256984)
(0.816107030948 0.00859677165691 -0.00615296726305)
(0.748827348736 -0.00596872910102 -0.00382092387541)
(0.74787749003 -0.00837603194527 -0.00380211043036)
(0.815057704433 0.00946478622054 -0.0043357788834)
(0.815499723263 0.00891468953529 -0.00515105887091)
(0.747754776541 -0.00699470197043 -0.00258421825001)
(0.747753431162 -0.00465414184802 -0.000826798252706)
(0.747924525387 -0.00501543509648 -0.00208600876153)
(0.814580418227 0.00757289911634 -0.00342892555942)
(0.814290022157 0.00910984886212 -0.00230205474105)
(0.747927617141 -0.00728373807143 -0.00212846545261)
(0.815092118696 0.00854112301894 -0.00374744312311)
(0.747671296912 -0.00645653731818 -0.000952079114898)
(0.818152368976 0.0016301222314 -0.00185507025603)
(0.748810340167 -0.00403180397286 -0.00149720578269)
(0.748219450571 -0.00134254285194 -0.00207101113182)
(0.819116137924 0.00199548374875 -0.00300051356215)
(0.74873003184 -0.00413890698624 -0.00174067979476)
(0.819026152266 0.00219237214752 -0.00253664923376)
(0.748131946691 -0.00139466895419 -0.00170277952125)
(0.819489388716 0.00234367642563 -0.00263279416884)
(0.819944013866 0.00294711246766 -0.00289499745548)
(0.748435569615 -0.00386515276213 -0.00237688386559)
(0.747364521782 -0.000855949231853 -0.00116594529118)
(0.819491293396 0.00282344458448 -0.00301756785558)
(0.819439090473 0.00224399099397 -0.002387028484)
(0.748053587859 -0.00116387486704 -0.00143147991573)
(0.818698358614 0.00196456056149 -0.00185923000748)
(0.817956586647 0.00207618186699 -0.00254203928826)
(0.749750605557 0.000652255437494 -0.00243598713473)
(0.750782961012 0.000630309965753 -0.00232770864043)
(0.750841802946 0.000712405148129 -0.00161521538719)
(0.818797218047 0.00131918847123 -0.00207283924658)
(0.749864164561 0.000702934612711 -0.00187456556072)
(0.750810179414 0.00107693986791 -0.00119136048476)
(0.750123438512 0.00131383624166 -0.000481481298985)
(0.818533038218 0.00159211475413 -0.000874236174479)
(0.81893326198 0.00141425597874 -0.00168164177793)
(0.749340748703 0.000769890638826 -0.0014212639621)
(0.818722862266 0.00133607207039 -0.0014834504823)
(0.749824867629 0.000710687310216 -0.00172188641877)
(0.817061641979 0.000833104025355 -0.00115006816696)
(0.820720743645 0.000860229706725 -0.00324001836628)
(-0.316005650702 -0.121947576017 -0.00174680184579)
(0.0664203463833 -0.0427507448353 -0.205519700271)
(0.816505006354 0.00686225975352 -0.00337036615266)
(0.746981823525 -0.00512339774318 -0.00241987200998)
(0.819901643641 0.000771716219688 -0.00178294268018)
(0.819858379367 0.0001415769973 -0.00205180774419)
(0.74590312267 -0.0032668662848 -0.00262026651893)
(0.749069452168 0.00122559428243 -0.000930081840528)
(0.742438741233 -0.000346863670477 -0.00215065447494)
(0.820261865857 -0.000513126924656 -0.00164718758867)
(0.820480803136 -0.00113923230328 -0.00115784348119)
(0.739050134704 -0.00159229784752 -0.00182513844424)
(0.734426057333 -0.00681672304932 -0.000561903024759)
(-0.279386953387 -0.0919144748267 -0.0142382747835)
(-0.274184770465 -0.154030702327 0.00315417624736)
(-0.260327299109 -0.106730487298 0.00540718475961)
(0.0360866995473 0.0223604483299 -0.0071848562613)
(0.0226049138635 -0.0198076436139 -0.0304194151059)
(0.0680262274456 -0.007831463004 -0.0281842841836)
(-0.201168612176 -0.035647251667 0.00200772130526)
(-0.130070311614 0.0292631807994 1.63366780497e-05)
(0.817102332658 0.00718517375935 -0.00375995104837)
(0.815385428539 0.00678345221682 -0.00363661627009)
(0.746753164236 -0.00787727868938 -0.00257815989632)
(0.745835468286 -0.00544317762612 -0.00173434055723)
(0.816100877491 0.00789556181385 -0.00411213662375)
(0.745852751171 -0.00843287506955 -0.00198120466537)
(0.816400203672 0.00603767761614 -0.00328788486101)
(0.81884799705 0.00151703964926 -0.00188586318174)
(0.819902991407 0.00279688298801 -0.00274801531447)
(0.744111218877 -0.00362555977672 -0.00185014118682)
(0.746074948067 -0.000513261634444 -0.00155174176534)
(0.819734299955 0.00243135847135 -0.00224592026267)
(0.81918512371 0.00193060416276 -0.00241458429137)
(0.744264463561 -0.00082615428774 -0.00117687597107)
(0.818059454942 0.000947451906741 -0.00189332328519)
(0.818201693855 0.00146646904791 -0.00114066861013)
(0.748707533359 0.000774123233273 -0.00203224571582)
(0.747096816927 0.00116843563182 -0.0017049002433)
(0.81846099897 0.00122781130245 -0.00180153573197)
(0.746885368488 0.000478875837298 -0.00248998167195)
(0.817633386981 0.00122285152031 -0.00148404573557)
(0.817544554965 0.000601268649557 -0.00218697287854)
(0.816963483695 0.000666530291126 -0.00239405517899)
(0.742417117433 -0.00112133490274 -0.00299089341922)
(0.744206441398 0.00055196948631 -0.00166140306774)
(0.817176271354 0.000386953974682 -0.00260803684776)
(0.744718176189 -0.000177018570226 -0.00226768546413)
(0.817192865637 0.000881506254924 -0.00190356692189)
(0.817437218737 0.000281894006611 -0.0026830222694)
(0.817002520725 0.000554787926883 -0.00245373094205)
(0.739650584962 -0.00229052874966 -0.00270891398019)
(0.7374834694 -0.00330488386842 -0.00157758421188)
(0.817198244043 0.000316394146437 -0.00263553249783)
(0.737608298439 -0.00363028276463 -0.00259632014155)
(0.817298714068 0.000389804061275 -0.00264124016382)
(0.817861215316 0.000352098987382 -0.00242961547184)
(0.818562053332 7.6520443197e-05 -0.00193510525298)
(0.734862694427 -0.00677412502222 -0.000889946346778)
(0.735298373822 -0.00506764078706 -0.00112942134392)
(0.818496360045 0.000509670970514 -0.00163772247034)
(0.735831900104 -0.00527080929327 -0.00173201283598)
(0.817742344217 0.000243316401718 -0.00226165662969)
(0.787850465232 0.00874753403198 -0.00423385027465)
(0.794616808966 0.0111067004604 -0.00486923870035)
(0.802115953963 0.0172473581056 -0.00649212641048)
(0.805524528046 0.0121431900154 -0.00552602472077)
(0.0372613572714 0.0937067568472 0.00578271336535)
(0.017693736998 0.0935486006224 -0.0181921948116)
(-0.243357707255 0.025610209374 0.00331228886377)
(-0.209440305871 0.0660537813119 -0.00993572344294)
(-0.362614643252 -0.00992670590087 -0.0114619946804)
(0.00888856761686 0.0624843398834 0.0853881664244)
(0.0855565764488 -0.303309371869 0.0673806480669)
(0.090029737923 -0.0886719275034 -0.0382657288356)
(0.356428208397 -0.121607792088 -0.180254823941)
(0.0874289185828 -0.00934541873133 -0.138913894017)
(0.417967830201 -0.0661954359851 -0.065907907036)
(0.784732266377 8.93186582049e-06 -0.00291661953181)
(0.785673865905 0.00293401710754 -0.00300465893014)
(0.764565715807 0.00672318082541 -0.00164215078905)
(0.766857968932 0.00672439031645 -0.00402939096888)
(0.78337759404 0.005502753073 -0.00256484839583)
(0.761957965222 0.00780899048648 -0.0040602139462)
(0.786954993119 0.00663949461635 -0.00319401708772)
(0.790133203857 0.00860007950255 -0.00273758476161)
(0.766699322367 0.006148398352 -0.0050097149911)
(0.766685764847 0.0049045285686 -0.0040263431318)
(0.788460698681 0.0137811327461 -0.00399151817748)
(0.791433152865 0.0115682995414 -0.00403824655219)
(0.794244120696 0.0155898981047 -0.00447518566702)
(0.761847875231 0.00685771856585 -0.00550336788336)
(0.747418949912 0.0114024308004 -0.0100755275476)
(0.762452585538 0.00511962825824 -0.00449259583075)
(0.749352727896 0.00680650900966 -0.00776899644725)
(0.799389100669 0.0199534189949 -0.00611344748596)
(0.805343441021 0.0236579842157 -0.00411569626898)
(0.744392623721 0.0126401338602 -0.0112547183319)
(0.743356137053 0.017999192809 -0.0131643434876)
(0.745848461719 0.00720437096701 -0.00808136503142)
(0.741051581633 0.00918569719879 -0.00869987011521)
(0.79783700206 0.0144572286431 -0.00553463485398)
(0.800293689429 0.0122101176579 -0.00566186334428)
(0.762025422129 0.00499860496231 -0.00422898473826)
(0.749090651244 0.00594541412256 -0.00619568453663)
(0.748734012359 0.00629438310988 -0.00512722989572)
(0.807382887189 0.0196428869766 -0.00631803271823)
(0.804199557254 0.0144679353015 -0.00626491794437)
(0.808494140527 0.0156720438829 -0.00603351385743)
(0.745696852968 0.00591136505697 -0.00649007827387)
(0.740185181343 0.006789168088 -0.00792861710261)
(0.745027516629 0.00613853826078 -0.00502494222972)
(0.739857383236 0.00576990948332 -0.00502227789883)
(0.744405360864 0.0064667245766 -0.00504067638415)
(0.739407243434 0.00605525286135 -0.0043169547817)
(0.1297868396 0.116584025191 0.00835763212305)
(0.102017512902 0.119562235479 0.00822523236744)
(0.131966670659 0.126269631028 0.00772154187567)
(-0.171686172774 0.152806231535 -0.0252354790304)
(-0.12837886166 0.185882635434 0.0850144090609)
(-0.198232476347 0.0478327868802 0.0186070161389)
(-0.133288983746 0.0468947247903 0.140846854394)
(-0.134086811069 -0.0111412193495 0.11107556198)
(-0.231935341657 -0.0329018341712 0.0856788091277)
(-0.152873149431 -0.0322196060485 0.129058077322)
(-0.256035997482 0.0535102795439 0.103488075291)
(0.0163943032103 0.0784519559481 0.00814313226906)
(-0.113901130677 0.0335730099981 0.00697850362273)
(0.0437175351901 0.0897511795144 -0.00381708611001)
(-0.0910943233159 0.0427644761648 0.00430594713389)
(-0.092516427167 0.0564509939881 -0.00231942818642)
(-0.102990200237 -0.0328356079704 0.0911406131315)
(-0.092455469312 -0.0353097125728 0.123222495811)
(-0.0974750368043 -0.0390724401212 0.0465383826554)
(-0.107698023574 -0.0402529029486 0.0541455966045)
(-0.0324540115503 0.0853739953012 -0.0229863410874)
(-0.102059388785 0.0730524992605 -0.0103347031492)
(-0.132631342991 0.0880260668915 -0.0138578488611)
(-0.115085737598 -0.0376774829263 0.131334921174)
(-0.152308736795 0.0606986843973 0.10996055814)
(-0.143096242089 -0.0166352101115 0.0648510146194)
(-0.118592615448 0.0885614394052 0.0592047871368)
(-0.223997316773 0.0434214595386 -0.00278388144703)
(-0.314563554991 0.00998665387904 -0.00480792101829)
(-0.0550767674294 -0.0494819017804 0.0237026140512)
(-0.0331931307521 -0.0391224245826 0.0371563628991)
(-0.0213721396511 -0.0354982848811 0.0385879341814)
(-0.208291615167 0.0812838728975 -0.0148635512035)
(-0.294462874556 0.0281999010818 -0.0113692341692)
(-0.273137269047 0.0454158925149 -0.0154664880605)
(-0.057056152387 -0.000679729228323 0.0480557670788)
(-0.036673809549 0.064117640993 0.0769944188807)
(-0.0147345225344 -0.0355660873809 0.0577871373727)
(-0.00311589792314 -0.0211109513023 0.0850361584785)
(0.786841730818 8.4186325188e-05 -0.0015090332769)
(0.785575464674 -0.00104185958713 -0.00219046583549)
(0.769430029144 0.00601205350656 -0.000409607760991)
(0.765461635736 0.00701155181614 -0.00199176017146)
(0.7856047601 0.000541037443567 -0.00240326086056)
(0.770397788921 0.00642898504967 -0.000797350580085)
(0.786829201026 -0.00107314965773 -0.000843898551744)
(0.787137400445 0.00122054122733 -0.0021207685593)
(0.786535671791 0.00384870422669 -0.00408431492733)
(0.76589021038 0.00686312266695 -0.00221157540406)
(0.77172295241 0.00624790471473 -0.00263475475058)
(0.785912472214 0.00192606489805 -0.00285713769843)
(0.787470700919 0.00283787887478 -0.00360245639914)
(0.770875190217 0.00623381684693 -0.0011207364472)
(0.784411342097 0.00320558290046 -0.00515809406649)
(0.785664341382 0.00427710154296 -0.00567144017593)
(0.760841099502 0.00779080899954 -0.00236439513794)
(0.756438479613 0.00849611840741 -0.00574639677792)
(0.784938662912 0.00238870404743 -0.00376697229886)
(0.785439250808 0.00616171013364 -0.00645692853248)
(0.755232079293 0.0084881252731 -0.00369476755151)
(0.788843486147 0.00644631893853 -0.0036386540878)
(0.787161905309 0.00592968816923 -0.00553500197922)
(0.771363019084 0.00571065134105 -0.00308948904172)
(0.766936753504 0.00545439288252 -0.0050296514631)
(0.788025077866 0.00507754321523 -0.00374282521998)
(0.788274588145 0.00761135543004 -0.00559973915511)
(0.771596504599 0.00529810162475 -0.0028241735418)
(0.790184325031 0.00767327388966 -0.00290384148637)
(0.791115348974 0.00959840267312 -0.00475899469476)
(0.766792488324 0.00495047681191 -0.00479340425873)
(0.770518066447 0.00490036382135 -0.00235457334534)
(0.789620012829 0.00902554430824 -0.00491423163468)
(0.791579586945 0.00830727033261 -0.00268022652027)
(0.770878148808 0.00486942033081 -0.00278217708426)
(0.788818790811 0.0108934000756 -0.00927097668805)
(0.786807299317 0.00717293751881 -0.00676111457954)
(0.756668297309 0.00794802714839 -0.00723851550099)
(0.762764435627 0.00620930061351 -0.00562904159245)
(0.787025516096 0.00860322526229 -0.00900714196671)
(0.788259730576 0.00917032534349 -0.00694497859995)
(0.757172868705 0.00692570000089 -0.00768339709674)
(0.790345054854 0.0131425695512 -0.0098427739289)
(0.789410276266 0.0131463828474 -0.0138553293414)
(0.751469216924 0.00900978190089 -0.00740233848812)
(0.748120805214 0.0100938304789 -0.0106215011542)
(0.788201210587 0.0109394400626 -0.00980818444884)
(0.791770366087 0.0153516341747 -0.0137149136119)
(0.752846596146 0.00808427573438 -0.00792721934184)
(0.790768724481 0.0124096735415 -0.00856019331309)
(0.791805683825 0.0112636015672 -0.00553489683227)
(0.762493285903 0.00544569566411 -0.00508717477573)
(0.757932489998 0.00537223903462 -0.00602292938927)
(0.790090767692 0.0107465445567 -0.00597483467409)
(0.792692041479 0.0129685214008 -0.00804247329571)
(0.757543665304 0.00581446866757 -0.00681770119077)
(0.79263942039 0.0147426483156 -0.00898132127266)
(0.795986262341 0.0169697374148 -0.0113870320847)
(0.748733257628 0.00818782470343 -0.00892724904089)
(0.753347822389 0.00586385439665 -0.00618460752957)
(0.793956581731 0.0166900868125 -0.012554194485)
(0.794519055373 0.0150277936293 -0.00828910248289)
(0.753194017595 0.00676577356961 -0.00702491226378)
(0.79899054948 0.020139410429 -0.0163360339307)
(0.792843566901 0.0157062018811 -0.0133975749584)
(0.741897008416 0.0160699865606 -0.0138758755398)
(0.745264163583 0.0110897735207 -0.0108866022819)
(0.797128655261 0.0186247024025 -0.0171683983578)
(0.794946677456 0.0176632640854 -0.0129834488589)
(0.742385072308 0.0141204901082 -0.0132444876538)
(0.803345970599 0.021386761373 -0.0146646963043)
(0.807631944608 0.0216562624639 -0.0128984158367)
(0.74278805374 0.0167510048491 -0.0142349954116)
(0.742307233958 0.0157411616296 -0.0115556820898)
(0.801858420282 0.0201977892537 -0.0153234825914)
(0.742127626983 0.0149381938579 -0.0130976106911)
(0.808809151295 0.0221900566367 -0.0127902229556)
(0.800438758777 0.020618987496 -0.0156151780642)
(0.798705489226 0.0187337154084 -0.0109448938435)
(0.745866007717 0.00903235186793 -0.00963053043251)
(0.74336817931 0.00841298995743 -0.00929001502222)
(0.797013435901 0.018739961185 -0.0121544364197)
(0.801639340405 0.0201409353553 -0.0136194555119)
(0.743076441929 0.010977569851 -0.0112324212589)
(0.804224850045 0.0218453377677 -0.0145127080876)
(0.809172219561 0.0214572870569 -0.0121958196722)
(0.741661411147 0.0123931073974 -0.0110830948327)
(0.741365243391 0.00899756766928 -0.00939095179259)
(0.804940594366 0.0211933455798 -0.0130071027188)
(0.741691763999 0.0117845948824 -0.01170324798)
(0.809179046098 0.0222076215114 -0.0137596138486)
(0.796431138777 0.0116151678581 -0.00661577323152)
(0.793503954997 0.0109703072863 -0.0052600659429)
(0.757629701171 0.00513601792867 -0.00528101523194)
(0.761786858446 0.00515247996279 -0.00381263898205)
(0.794679892076 0.012570617093 -0.00740637644487)
(0.79505268695 0.0100725662605 -0.00509964199122)
(0.757635190251 0.00520927977609 -0.00474722361473)
(0.798138832692 0.013227694171 -0.00727030354154)
(0.798112450753 0.016253436471 -0.00984190921281)
(0.753155460851 0.00528891287869 -0.00522764893222)
(0.749230602517 0.00549182409893 -0.00542679523491)
(0.796475129191 0.0144659273143 -0.00744182537203)
(0.799853625443 0.0147831672818 -0.00865380274792)
(0.752993413995 0.00531947055745 -0.00465525532533)
(0.799656684718 0.0118803387862 -0.00719815969777)
(0.802728795968 0.0119572196918 -0.00837530759215)
(0.748909792237 0.00559875074308 -0.00515803269711)
(0.752574949674 0.00628197147608 -0.0045774403822)
(0.801455906586 0.0132545423529 -0.00836409260634)
(0.800954776432 0.0105750047413 -0.00765118722993)
(0.752705996078 0.00559360502013 -0.00459769663271)
(0.804178922368 0.0173644741965 -0.010425576395)
(0.80034056111 0.0178809156622 -0.0096167530414)
(0.742983222394 0.00669112459733 -0.0074757986574)
(0.745648357443 0.00551732849559 -0.00549130939545)
(0.803030687571 0.0190228393795 -0.0118960761341)
(0.801711144302 0.0162248215997 -0.00914019738416)
(0.743061207759 0.00583419458266 -0.00623906879266)
(0.806546545975 0.0183473194437 -0.0103743462046)
(0.809293157322 0.0201207626119 -0.0115581109505)
(0.740882095263 0.00674296928297 -0.0078935238301)
(0.740376638815 0.005755040949 -0.0064993003505)
(0.805781447073 0.0199676548718 -0.0115365905812)
(0.741085181459 0.00594187998398 -0.00654034649599)
(0.809632437775 0.0186742324679 -0.0102258986344)
(0.80543243827 0.0157764761286 -0.00947519737805)
(0.804482916961 0.0131173676044 -0.00899966311866)
(0.745260968824 0.00557086691255 -0.00506392989744)
(0.742367013088 0.0059865072224 -0.00540626500698)
(0.803213374911 0.0145898835514 -0.0087368006471)
(0.806476136019 0.0143723255472 -0.00927625172553)
(0.742530710888 0.00560725311924 -0.00561437874513)
(0.807590114531 0.0168130881471 -0.0094749386813)
(0.810633154178 0.0160707161676 -0.00872098483912)
(0.739969647204 0.00534721945255 -0.00565865042961)
(0.740609586362 0.005877300248 -0.00538509566843)
(0.808469567183 0.0153471987314 -0.00915433920599)
(0.740725972073 0.00555243555416 -0.00580030923225)
(0.810090003117 0.0173471308069 -0.0093008889391)
(0.808515978545 0.0122063880749 -0.00953525887998)
(0.805598075115 0.011883080098 -0.00916177909641)
(0.741764245482 0.00621058575268 -0.00503404575031)
(0.744135613971 0.00659625603869 -0.00552739749927)
(0.807426297713 0.0131316655676 -0.00926949573725)
(0.806706414472 0.0108186823162 -0.00961707105486)
(0.741499564485 0.00634965200051 -0.0052805006704)
(0.811283974158 0.0150841823314 -0.00830158459132)
(0.740077696854 0.00612150382053 -0.00487347898115)
(0.80933540486 0.0141984406809 -0.00865738679859)
(0.814391442882 0.00475853565916 -0.000637051701402)
(0.81586987395 0.0032112982035 -0.000800621757903)
(0.816977708499 0.00161452461987 -0.00062729792731)
(0.814888889719 -0.000463440912538 -0.000590271934085)
(0.8071007851 -0.00112614230796 -0.000139372275988)
(0.834255007942 -0.0491508273674 -4.7415223185e-05)
(0.81483816043 0.00508403563217 -0.000976921216079)
(0.816223665523 0.0034455304959 -0.000218449806633)
(0.817190564805 0.00228887998393 -0.000116576768345)
(0.815819992036 -0.000306768354743 0.00241117897613)
(0.807855160783 -0.00143020122882 0.00595983790897)
(0.839494468153 -0.0556909757887 0.00720872480196)
(0.812097822791 0.0057283766113 0.000195030763532)
(0.809120345824 0.00639148011414 0.000111177374656)
(0.786668102368 0.0101555355409 0.00221590919336)
(0.782507475407 0.0105376764797 0.00182636833509)
(0.779243024362 0.0115508769831 0.00143311412839)
(0.770796378901 0.0133598828182 -0.00204564579285)
(0.780212770505 0.0151491015097 -0.0411379645555)
(0.711002729363 -0.0104219579895 0.0278025982548)
(0.822683634847 0.00497144530625 -0.000446084886554)
(0.820558409521 0.00351056901879 -0.000340541712785)
(0.817491218868 2.5991992508e-05 -0.00111917696083)
(0.815906094087 -0.0021908218847 -0.00319549263993)
(0.814052957559 -0.000914725735053 -0.00414097314431)
(0.81469595506 0.00244551851251 -0.00402394735699)
(0.805482262068 0.00953504703822 -0.00384946317666)
(0.835572614368 -0.0895402480585 0.00238216923642)
(0.816954206708 0.00657847389399 -0.000930032625886)
(0.819655437386 0.00458073956733 -0.000972573358822)
(0.820053975814 0.00284929627679 -0.00137375534639)
(0.819481028344 0.00231145604081 -0.00226132938092)
(0.818243516648 0.00243815184507 -0.0022011548411)
(0.818292475297 0.00235395639471 -0.00155221134947)
(0.810048816728 0.00193621539006 -0.000471819776153)
(0.845105167714 -0.0588496085073 0.00297756273822)
(0.813819405584 0.00715247677141 -0.00085006186278)
(0.816786842411 0.00441592382961 -0.000758989344008)
(0.817896089163 0.00229972045993 -0.00103531860796)
(0.818204705332 0.000815099214434 -0.00122395921157)
(0.817343187357 0.000416584941211 -0.00165323071021)
(0.81711767992 -0.000389468135733 -0.00109709067703)
(0.808360677429 -0.0017160806456 3.49112428222e-05)
(0.838368335402 -0.0678986651028 0.000959164081524)
(0.81665155562 0.00120565520997 -0.000996963622737)
(0.816266012651 0.000253461031859 -0.000741958972903)
(0.807816630982 -0.00078703443479 -5.10307740534e-05)
(0.836541781408 -0.0515298426048 0.000169130821968)
(0.635489174924 0.0409130741074 0.0112988278825)
(0.632602493501 0.0399938474427 0.0121714011813)
(0.642648963597 0.0242569399513 0.019487435824)
(0.638649071696 0.0225769896259 0.0174074031936)
(0.634319091836 0.0205672153487 0.0185429565159)
(0.582311554498 0.0176286030839 0.0251880656569)
(0.68497997991 0.00828638122017 0.0407715910307)
(0.0868531316108 0.0847186392603 0.0734094193507)
(0.770188569918 0.0129210046206 0.00710204264337)
(0.765272182742 0.00939358160603 0.00697199856974)
(0.772772271436 0.00227501434271 0.0113784727459)
(0.76956422942 0.0015986633535 0.0141771287553)
(0.7688584454 0.00433965331981 0.0146000031439)
(0.76591603254 0.00828527950466 0.0191439785495)
(0.760842379665 0.057592295256 0.032464619123)
(0.772565907144 -0.212378282883 0.0513434044613)
(0.819196238571 0.00735300334716 -0.00163206435557)
(0.819587547521 0.00510682374195 -0.000839925305383)
(0.81908638252 0.00521776068417 -0.000514964076634)
(0.818994301933 0.00630263393272 -0.000304292481286)
(0.818325902178 0.00706607071886 0.00128249754433)
(0.820584405261 0.00712479929071 0.00475485060449)
(0.813625732924 0.0080060624083 0.0147929094223)
(0.890200346763 -0.0922323896128 0.0200937751906)
(0.814699862872 0.00774297558846 -0.00177274944081)
(0.817256612648 0.00449648009699 -0.00116224039194)
(0.817900799054 0.00270596800761 -0.000390166627998)
(0.817995473033 0.0021555155763 5.67540881285e-05)
(0.81756374013 0.00180038767559 0.00113157053975)
(0.819171730891 0.000813508612919 0.00434387865075)
(0.810801949263 -0.00112100196342 0.0106541414615)
(0.853948074955 -0.0869402700959 0.0134441801867)
(0.816854826712 0.00184386081246 0.000390275821868)
(0.81750951773 0.000868006222326 0.00278141858547)
(0.808935584346 -0.000911563881951 0.00736250716918)
(0.845032101391 -0.0639847055953 0.00910271730501)
(0.632545345069 -0.0157280281185 0.0194813625469)
(0.62604228931 -0.0173585676465 0.0181607268366)
(0.630553018456 -0.0210073551836 0.0232051775536)
(0.629128503274 -0.0173556443121 0.0240098831388)
(0.633384861489 -0.0139177721667 0.0254043518871)
(0.636188845989 -0.00327772696191 0.0284253171023)
(0.692534186352 0.0665239007758 0.0839700894912)
(0.686568472505 -0.407313714389 0.0206819443466)
(0.733409124779 0.00555448243813 0.0221193393922)
(0.729063857367 0.000477866403795 0.0221463697779)
(0.779363133859 0.000210183435858 0.00885662561685)
(0.77818521136 0.000466923416947 0.0104590371115)
(0.780522317945 0.00249826466696 0.0126212317092)
(0.788798774261 0.000796032984883 0.011754042909)
(0.799915582164 0.00750500396373 0.0199823395632)
(0.916166399929 -0.235178175767 0.0200404767132)
(0.820539783681 0.00629503007062 -0.00334829753813)
(0.82169169464 0.00467162951685 -0.00251454512691)
(0.820660730641 0.00201134771141 -0.00187799474777)
(0.820831576807 0.00118871780946 -0.0011723609943)
(0.822318289428 0.00157433438242 -0.000675821157943)
(0.830426287149 -0.000265064248214 0.000243290248511)
(0.823896701018 -0.00509009626862 0.000626032972077)
(0.926984538142 -0.190544552506 -0.000581347085529)
(0.810830847606 0.0116878139708 -0.00325143047612)
(0.815222138019 0.00743015453505 -0.00284691711525)
(0.818529501917 0.00395292088407 -0.00261229674111)
(0.819333304561 0.00183632042813 -0.00155332599626)