/*--------------------------------*- C++ -*----------------------------------*\
| =========                 |                                                 |
| \\      /  F ield         | OpenFOAM: The Open Source CFD Toolbox           |
|  \\    /   O peration     | Version:  v1906                                 |
|   \\  /    A nd           | Web:      www.OpenFOAM.com                      |
|    \\/     M anipulation  |                                                 |
\*---------------------------------------------------------------------------*/
FoamFile
{
    version     2.0;
    format      ascii;
    class       volVectorField;
    location    "11.5";
    object      force.turbine;
}
// * * * * * * * * * * * * * * * * * * * * * * * * * * * * * * * * * * * * * //

dimensions      [1 -2 -2 0 0 0 0];


internalField   nonuniform List<vector> 
28582
(
(0 0 0)
(0 0 0)
(0 0 0)
(0 0 0)
(0 0 0)
(0 0 0)
(0 0 0)
(0 0 0)
(0 0 0)
(0 0 0)
(0 0 0)
(0 0 0)
(0 0 0)
(0 0 0)
(0 0 0)
(0 0 0)
(0 0 0)
(0 0 0)
(0 0 0)
(0 0 0)
(0 0 0)
(0 0 0)
(0 0 0)
(0 0 0)
(0 0 0)
(0 0 0)
(0 0 0)
(0 0 0)
(0 0 0)
(0 0 0)
(0 0 0)
(0 0 0)
(0 0 0)
(0 0 0)
(0 0 0)
(0 0 0)
(0 0 0)
(0 0 0)
(0 0 0)
(0 0 0)
(0 0 0)
(0 0 0)
(0 0 0)
(0 0 0)
(0 0 0)
(0 0 0)
(0 0 0)
(0 0 0)
(0 0 0)
(0 0 0)
(0 0 0)
(0 0 0)
(0 0 0)
(0 0 0)
(0 0 0)
(0 0 0)
(0 0 0)
(0 0 0)
(0 0 0)
(0 0 0)
(0 0 0)
(0 0 0)
(0 0 0)
(0 0 0)
(0 0 0)
(0 0 0)
(0 0 0)
(0 0 0)
(0 0 0)
(0 0 0)
(0 0 0)
(0 0 0)
(0 0 0)
(0 0 0)
(0 0 0)
(0 0 0)
(0 0 0)
(0 0 0)
(0 0 0)
(0 0 0)
(0 0 0)
(0 0 0)
(0 0 0)
(0 0 0)
(0 0 0)
(0 0 0)
(0 0 0)
(0 0 0)
(0 0 0)
(0 0 0)
(0 0 0)
(0 0 0)
(0 0 0)
(0 0 0)
(0 0 0)
(0 0 0)
(0 0 0)
(0 0 0)
(0 0 0)
(0 0 0)
(0 0 0)
(0 0 0)
(0 0 0)
(0 0 0)
(0 0 0)
(0 0 0)
(0 0 0)
(0 0 0)
(0 0 0)
(0 0 0)
(0 0 0)
(0 0 0)
(0 0 0)
(0 0 0)
(0 0 0)
(0 0 0)
(0 0 0)
(0 0 0)
(0 0 0)
(0 0 0)
(0 0 0)
(0 0 0)
(0 0 0)
(0 0 0)
(0 0 0)
(0 0 0)
(0 0 0)
(0 0 0)
(0 0 0)
(0 0 0)
(0 0 0)
(0 0 0)
(0 0 0)
(0 0 0)
(0 0 0)
(0 0 0)
(0 0 0)
(0 0 0)
(0 0 0)
(0 0 0)
(0 0 0)
(0 0 0)
(0 0 0)
(0 0 0)
(0 0 0)
(0 0 0)
(0 0 0)
(0 0 0)
(0 0 0)
(0 0 0)
(0 0 0)
(0 0 0)
(0 0 0)
(0 0 0)
(0 0 0)
(0 0 0)
(0 0 0)
(0 0 0)
(0 0 0)
(0 0 0)
(0 0 0)
(0 0 0)
(0 0 0)
(0 0 0)
(0 0 0)
(0 0 0)
(0 0 0)
(0 0 0)
(0 0 0)
(0 0 0)
(0 0 0)
(0 0 0)
(0 0 0)
(0 0 0)
(0 0 0)
(0 0 0)
(0 0 0)
(0 0 0)
(0 0 0)
(0 0 0)
(0 0 0)
(0 0 0)
(0 0 0)
(0 0 0)
(0 0 0)
(0 0 0)
(0 0 0)
(0 0 0)
(0 0 0)
(0 0 0)
(0 0 0)
(0 0 0)
(0 0 0)
(0 0 0)
(0 0 0)
(0 0 0)
(0 0 0)
(0 0 0)
(0 0 0)
(0 0 0)
(0 0 0)
(0 0 0)
(0 0 0)
(0 0 0)
(0 0 0)
(0 0 0)
(0 0 0)
(0 0 0)
(0 0 0)
(0 0 0)
(0 0 0)
(0 0 0)
(0 0 0)
(0 0 0)
(0 0 0)
(0 0 0)
(0 0 0)
(-0.00355885441805 0.000102109989037 0)
(0 0 0)
(0 0 0)
(0 0 0)
(0 0 0)
(-2.31453014749e-05 7.64098367822e-07 0)
(0 0 0)
(-2.27564412419e-06 9.93375561397e-08 0)
(0 0 0)
(0 0 0)
(0 0 0)
(0 0 0)
(0 0 0)
(0 0 0)
(0 0 0)
(0 0 0)
(0 0 0)
(0 0 0)
(0 0 0)
(0 0 0)
(-0.0157263302379 0.000489846608495 0)
(0 0 0)
(0 0 0)
(0 0 0)
(-0.0266701992965 0.000764734032264 0)
(0 0 0)
(0 0 0)
(-0.136379244932 -0.00734251470208 0.0220513882584)
(-1.20981939273 -0.0822656925209 0.231815788559)
(-0.0725839443028 0.00208125225414 0)
(-0.702489961549 0.0200069529631 0)
(-0.00537001668336 0.000123770118155 0)
(-0.0729036692829 0.00209041996116 0)
(0 0 0)
(0 0 0)
(0 0 0)
(0 0 0)
(0 0 0)
(-0.0157262820724 0.000489845108227 0)
(0 0 0)
(0 0 0)
(0 0 0)
(-0.026827604077 0.000769247414079 0)
(0 0 0)
(0 0 0)
(0 0 0)
(0 0 0)
(0 0 0)
(0 0 0)
(0 0 0)
(0 0 0)
(-1.71830471082e-05 4.9344210102e-07 0)
(0 0 0)
(-1.00996255029e-05 2.90028910256e-07 0)
(-0.000141055233047 4.23105785857e-06 0)
(-0.000610274275294 1.83056361156e-05 0)
(-8.07720007461e-05 2.42281694288e-06 0)
(-0.000356311160499 1.06878213814e-05 0)
(0 0 0)
(0 0 0)
(-0.00035002760056 8.93155158049e-06 0)
(0 0 0)
(0 0 0)
(0 0 0)
(0 0 0)
(0 0 0)
(0 0 0)
(-0.0166231129772 0.000476947265743 0)
(-0.000730326661449 1.95110671994e-05 0)
(-0.00362583500879 0.000104031783689 0)
(-2.71023678945e-05 7.89584551824e-07 0)
(-0.000124895986677 3.74634910393e-06 0)
(-3.39098087449e-06 1.48024794126e-07 0)
(-2.72681752562e-05 7.9441508663e-07 0)
(0 0 0)
(0 0 0)
(0 0 0)
(0 0 0)
(0 0 0)
(-0.000376842841042 9.61578820389e-06 0)
(0 0 0)
(0 0 0)
(0 0 0)
(0 0 0)
(0 0 0)
(0 0 0)
(0 0 0)
(0 0 0)
(0 0 0)
(0 0 0)
(0 0 0)
(0 0 0)
(0 0 0)
(0 0 0)
(0 0 0)
(0 0 0)
(0 0 0)
(0 0 0)
(0 0 0)
(0 0 0)
(-0.00494694249073 0.000105925243842 0)
(0 0 0)
(0 0 0)
(0 0 0)
(0 0 0)
(0 0 0)
(-0.00413602367189 9.53285936986e-05 0)
(0 0 0)
(0 0 0)
(0 0 0)
(0 0 0)
(0 0 0)
(0 0 0)
(0 0 0)
(0 0 0)
(0 0 0)
(0 0 0)
(0 0 0)
(0 0 0)
(0 0 0)
(0 0 0)
(0 0 0)
(0 0 0)
(0 0 0)
(0 0 0)
(0 0 0)
(0 0 0)
(0 0 0)
(0 0 0)
(-0.0351007476747 0.00102737496953 0)
(-0.00783250370112 0.000197667773899 0)
(-0.0129620065375 0.00032712030218 0)
(-0.00992639735052 0.000243069581432 0)
(-0.0187874666483 0.000549896348484 0)
(0 0 0)
(0 0 0)
(0 0 0)
(0 0 0)
(0 0 0)
(0 0 0)
(0 0 0)
(0 0 0)
(0 0 0)
(0 0 0)
(-0.00472799125536 0.000108972480128 0)
(0 0 0)
(-0.00773057744558 0.000189300121441 0)
(0 0 0)
(0 0 0)
(-0.131110896267 0.00335884119639 0.000787106197083)
(-0.0984240446742 0.00284326985525 0)
(-0.177361759209 0.00505127271302 0)
(-0.0389336694739 0.00111637343676 0)
(-0.285091504658 0.0031990311146 0.00975780064192)
(-0.0510725083009 0.00149485752115 0)
(-0.0935458270191 0.00268230757118 0)
(-0.411559644416 -0.00343773891433 0.0300869136367)
(-1.46153322556 -0.0168300755657 0.118020494963)
(-0.375603014579 0.0106971946317 0)
(-0.376239532937 0.0107153227097 0)
(-0.791540569518 -0.00922957108844 0.063770704353)
(-0.201344768622 0.00573431014774 0)
(-0.764640207085 -0.00645058585461 0.0562833242803)
(-0.0596968440706 0.00172452003736 0)
(-0.00875998223866 0.000214507352558 0)
(-0.0184189783758 0.000528140770412 0)
(-0.0184581928865 0.000529265196615 0)
(-0.0241242729352 0.000706101032418 0)
(-0.0241239547481 0.000706091719298 0)
(-0.0442135567514 0.00126776748682 0)
(-0.1487015736 0.00207948161026 0.00423350092461)
(-0.0984114736293 0.0028429067034 0)
(-0.177672044214 0.00506010964714 0)
(-0.0390509320288 0.00111973579132 0)
(-0.0510690938485 0.00149475758245 0)
(-0.0935706328313 0.00268301884628 0)
(-0.296539445375 0.00238513142182 0.0119489604372)
(0 0 0)
(0 0 0)
(0 0 0)
(0 0 0)
(0 0 0)
(0 0 0)
(0 0 0)
(0 0 0)
(0 0 0)
(0 0 0)
(0 0 0)
(0 0 0)
(0 0 0)
(0 0 0)
(0 0 0)
(0 0 0)
(0 0 0)
(0 0 0)
(0 0 0)
(0 0 0)
(0 0 0)
(0 0 0)
(0 0 0)
(-0.00474125763272 0.000109278248469 0)
(0 0 0)
(-0.00773027960937 0.000189292828269 0)
(0 0 0)
(0 0 0)
(0 0 0)
(-0.0350946571126 0.00102719670293 0)
(-0.0130118842785 0.000328379059585 0)
(-0.00789169289155 0.000199161523019 0)
(-0.0187862352824 0.000549860307242 0)
(0 0 0)
(-0.00992500553919 0.000243035499883 0)
(0 0 0)
(0 0 0)
(0 0 0)
(0 0 0)
(0 0 0)
(0 0 0)
(0 0 0)
(0 0 0)
(0 0 0)
(0 0 0)
(0 0 0)
(0 0 0)
(0 0 0)
(0 0 0)
(0 0 0)
(0 0 0)
(0 0 0)
(0 0 0)
(0 0 0)
(0 0 0)
(0 0 0)
(0 0 0)
(0 0 0)
(0 0 0)
(0 0 0)
(0 0 0)
(0 0 0)
(0 0 0)
(0 0 0)
(0 0 0)
(0 0 0)
(0 0 0)
(0 0 0)
(0 0 0)
(0 0 0)
(0 0 0)
(-0.0150681147944 0.000253167190125 0)
(0 0 0)
(0 0 0)
(0 0 0)
(0 0 0)
(0 0 0)
(0 0 0)
(0 0 0)
(-0.00336229580807 5.64916709032e-05 0)
(0 0 0)
(0 0 0)
(0 0 0)
(0 0 0)
(0 0 0)
(0 0 0)
(0 0 0)
(0 0 0)
(0 0 0)
(0 0 0)
(0 0 0)
(0 0 0)
(0 0 0)
(0 0 0)
(0 0 0)
(0 0 0)
(0 0 0)
(0 0 0)
(0 0 0)
(0 0 0)
(0 0 0)
(0 0 0)
(0 0 0)
(0 0 0)
(0 0 0)
(0 0 0)
(0 0 0)
(-0.322180543274 0.00758872880563 0)
(-0.00773641815671 0.000129983562847 0)
(0 0 0)
(0 0 0)
(0 0 0)
(0 0 0)
(0 0 0)
(0 0 0)
(-0.0707561732604 0.00168884674048 0)
(0 0 0)
(0 0 0)
(0 0 0)
(0 0 0)
(0 0 0)
(0 0 0)
(0 0 0)
(0 0 0)
(0 0 0)
(0 0 0)
(0 0 0)
(0 0 0)
(0 0 0)
(0 0 0)
(0 0 0)
(0 0 0)
(0 0 0)
(0 0 0)
(0 0 0)
(0 0 0)
(0 0 0)
(0 0 0)
(0 0 0)
(0 0 0)
(0 0 0)
(0 0 0)
(0 0 0)
(-1.50812555764 0.0472827252709 0)
(-0.0431853226683 0.00131761786865 0)
(0 0 0)
(0 0 0)
(0 0 0)
(0 0 0)
(0 0 0)
(0 0 0)
(-0.330791320676 0.0102474998414 0)
(-0.00656551088685 0.000226479472075 0)
(0 0 0)
(0 0 0)
(0 0 0)
(0 0 0)
(0 0 0)
(0 0 0)
(0 0 0)
(0 0 0)
(0 0 0)
(0 0 0)
(0 0 0)
(0 0 0)
(0 0 0)
(0 0 0)
(0 0 0)
(0 0 0)
(0 0 0)
(0 0 0)
(0 0 0)
(0 0 0)
(0 0 0)
(0 0 0)
(0 0 0)
(0 0 0)
(0 0 0)
(0 0 0)
(0 0 0)
(0 0 0)
(0 0 0)
(0 0 0)
(0 0 0)
(0 0 0)
(0 0 0)
(-2.51700657533 0.0757670817371 0)
(-0.0760104437882 0.00228807090289 0)
(0 0 0)
(0 0 0)
(0 0 0)
(0 0 0)
(0 0 0)
(0 0 0)
(-2.51753708976 0.0757830513143 0)
(-0.561737533985 0.0169094566814 0)
(-0.0157260301252 0.000489837260531 0)
(0 0 0)
(0 0 0)
(0 0 0)
(0 0 0)
(0 0 0)
(0 0 0)
(-0.04611060992 0.00138802432421 0)
(-0.0760232658932 0.00228845687465 0)
(-0.0157261928196 0.000489842328165 0)
(0 0 0)
(0 0 0)
(0 0 0)
(0 0 0)
(0 0 0)
(0 0 0)
(0 0 0)
(0 0 0)
(0 0 0)
(0 0 0)
(0 0 0)
(0 0 0)
(0 0 0)
(0 0 0)
(0 0 0)
(0 0 0)
(0 0 0)
(0 0 0)
(0 0 0)
(0 0 0)
(0 0 0)
(0 0 0)
(0 0 0)
(0 0 0)
(0 0 0)
(0 0 0)
(-0.0670845417007 0.00191999683768 0)
(-0.0021204958001 6.08408710969e-05 0)
(0 0 0)
(0 0 0)
(0 0 0)
(0 0 0)
(0 0 0)
(0 0 0)
(-0.0441804873935 0.00126447008405 0)
(-0.0686772477521 0.00196558096936 0)
(-0.0152895314663 0.000438684393069 0)
(-0.000377044196193 9.6209261242e-06 0)
(0 0 0)
(0 0 0)
(0 0 0)
(0 0 0)
(0 0 0)
(0 0 0)
(-0.00123760664638 3.30633231931e-05 0)
(-0.0021376473345 6.13329797317e-05 0)
(-0.000375620666022 9.58460232251e-06 0)
(0 0 0)
(0 0 0)
(0 0 0)
(0 0 0)
(0 0 0)
(0 0 0)
(0 0 0)
(0 0 0)
(0 0 0)
(0 0 0)
(0 0 0)
(0 0 0)
(0 0 0)
(0 0 0)
(0 0 0)
(0 0 0)
(0 0 0)
(0 0 0)
(0 0 0)
(0 0 0)
(0 0 0)
(0 0 0)
(0 0 0)
(0 0 0)
(0 0 0)
(0 0 0)
(-0.000179090099061 5.90864251485e-06 0)
(-0.000178839054046 5.90035989479e-06 0)
(-2.30003344095e-05 7.59312554244e-07 0)
(0 0 0)
(0 0 0)
(0 0 0)
(0 0 0)
(0 0 0)
(0 0 0)
(0 0 0)
(-2.35385111528e-05 7.77079441906e-07 0)
(-2.33378756515e-05 7.70455840166e-07 0)
(-2.27644875152e-06 9.93726801345e-08 0)
(0 0 0)
(0 0 0)
(0 0 0)
(0 0 0)
(0 0 0)
(0 0 0)
(0 0 0)
(0 0 0)
(0 0 0)
(0 0 0)
(0 0 0)
(0 0 0)
(0 0 0)
(0 0 0)
(0 0 0)
(0 0 0)
(0 0 0)
(0 0 0)
(0 0 0)
(0 0 0)
(0 0 0)
(0 0 0)
(0 0 0)
(0 0 0)
(0 0 0)
(0 0 0)
(0 0 0)
(0 0 0)
(0 0 0)
(0 0 0)
(0 0 0)
(0 0 0)
(0 0 0)
(0 0 0)
(0 0 0)
(0 0 0)
(-0.00336214381936 5.64891172622e-05 0)
(-0.00913962198962 0.000153559516203 0)
(-0.00203932730977 3.42637929033e-05 0)
(-0.0868166418992 0.00177442692445 0)
(-0.0177994096023 0.000299057086861 0)
(-0.0526628322416 0.00107636445505 0)
(-0.0107963918406 0.000181395763376 0)
(0 0 0)
(0 0 0)
(0 0 0)
(-0.00240912060658 4.04768813459e-05 0)
(0 0 0)
(0 0 0)
(0 0 0)
(0 0 0)
(0 0 0)
(0 0 0)
(-0.017801539324 0.000299092869416 0)
(-0.00397206280481 6.67366815964e-05 0)
(-0.00397207257856 6.67368458102e-05 0)
(0 0 0)
(0 0 0)
(0 0 0)
(0 0 0)
(0 0 0)
(0 0 0)
(0 0 0)
(0 0 0)
(-0.0707555982514 0.00168883301586 0)
(-0.195411609397 0.00460277859771 0)
(-0.0429131612767 0.00102427462095 0)
(-0.801456908818 0.0221099305329 0)
(-0.17697114616 0.004851873907 0)
(-0.486103358969 0.013410217543 0)
(-0.107337640732 0.00294278875176 0)
(0 0 0)
(-0.00469229771437 7.88377208287e-05 0)
(0 0 0)
(-0.0228114129793 0.000652052123315 0)
(0 0 0)
(-0.0122044875915 0.000342312683452 0)
(0 0 0)
(-0.0149504165629 0.000349534432368 0)
(-0.0149516290347 0.000349562779447 0)
(-0.00284608816988 4.78185993834e-05 0)
(-0.176965933933 0.00485173100762 0)
(-0.0376032727682 0.00107486957841 0)
(-0.037608959432 0.00107503212868 0)
(-0.00740132774854 0.000207593177815 0)
(0 0 0)
(0 0 0)
(0 0 0)
(-0.00336194343543 5.64857505081e-05 0)
(0 0 0)
(0 0 0)
(0 0 0)
(-0.330825716504 0.010248565381 0)
(-0.899173371104 0.0278552622208 0)
(-0.200654541212 0.00621602578643 0)
(-2.20294324647 0.0703120214822 0)
(-0.485830277024 0.0153861744891 0)
(-1.32059920628 0.0418231855425 0)
(-0.294675052141 0.00933231621055 0)
(0 0 0)
(-0.0261931135263 0.000799172317942 0)
(0 0 0)
(-0.0657649975304 0.00208276794415 0)
(0 0 0)
(-0.0398887324774 0.00126327037872 0)
(0 0 0)
(-0.0738093245134 0.00228652021372 0)
(-0.0738295228231 0.00228714593199 0)
(-0.014002984638 0.000477007277225 0)
(-0.485967224898 0.0153905116085 0)
(-0.108432947836 0.00343405574885 0)
(-0.108446724237 0.00343449204548 0)
(-0.0241977130652 0.000766338067155 0)
(0 0 0)
(0 0 0)
(0 0 0)
(-0.0133252092678 0.000405834497438 0)
(0 0 0)
(0 0 0)
(0 0 0)
(-7.03269252121 0.216025174816 0)
(-4.17624503153 0.126299126424 0)
(-4.00518513255 0.114067894122 0)
(-1.89104630867 0.0538571034742 0)
(-0.561601487 0.016905361387 0)
(-1.52681513965 0.0459602802063 0)
(-0.340674193148 0.0102549948383 0)
(-2.42970929809 0.0691982552089 0)
(-0.256726687519 0.00731159026135 0)
(-1.14720547237 0.0326724753106 0)
(-0.120970350989 0.00344524228765 0)
(0 0 0)
(-0.0461063978281 0.00138789753157 0)
(0 0 0)
(-0.0928849626571 0.00266335812641 0)
(0 0 0)
(-0.0437554532656 0.00125463195221 0)
(0 0 0)
(0 0 0)
(0 0 0)
(0 0 0)
(0 0 0)
(0 0 0)
(0 0 0)
(0 0 0)
(0 0 0)
(0 0 0)
(0 0 0)
(0 0 0)
(0 0 0)
(0 0 0)
(0 0 0)
(0 0 0)
(0 0 0)
(0 0 0)
(0 0 0)
(0 0 0)
(0 0 0)
(0 0 0)
(0 0 0)
(0 0 0)
(0 0 0)
(0 0 0)
(0 0 0)
(0 0 0)
(0 0 0)
(0 0 0)
(0 0 0)
(0 0 0)
(0 0 0)
(0 0 0)
(0 0 0)
(0 0 0)
(0 0 0)
(0 0 0)
(0 0 0)
(0 0 0)
(0 0 0)
(0 0 0)
(0 0 0)
(-1.42517852502 -0.0757816859347 0.231813340843)
(-0.670147144525 0.0087252327097 0.0220509368803)
(-1.15769638387 0.0329712570505 0)
(-2.44048668717 0.0695051958459 0)
(-0.122055337962 0.00347614277665 0)
(-0.257192972924 0.00732487009549 0)
(-1.52696043306 0.0459646538372 0)
(-0.561739138034 0.0169095049666 0)
(-0.340712959912 0.0102561617977 0)
(-2.43689446196 0.0694028890733 0)
(-1.1469855246 0.032666211186 0)
(-0.256807865435 0.0073139022129 0)
(-0.120909676981 0.00344351428852 0)
(-0.125340455413 0.00377300584884 0)
(-0.125342049704 0.00377305384027 0)
(-0.0279676312737 0.000841883301172 0)
(-0.695594291323 0.0198105638936 0)
(-0.0721172315368 0.00206786985938 0)
(-0.0720763180272 0.00206669671654 0)
(-0.00528734068734 0.000121864571413 0)
(0 0 0)
(0 0 0)
(0 0 0)
(-0.0265191261445 0.000760402201842 0)
(0 0 0)
(0 0 0)
(0 0 0)
(0 0 0)
(0 0 0)
(0 0 0)
(0 0 0)
(0 0 0)
(0 0 0)
(0 0 0)
(0 0 0)
(0 0 0)
(0 0 0)
(0 0 0)
(0 0 0)
(0 0 0)
(0 0 0)
(0 0 0)
(0 0 0)
(0 0 0)
(0 0 0)
(0 0 0)
(0 0 0)
(0 0 0)
(0 0 0)
(0 0 0)
(0 0 0)
(0 0 0)
(0 0 0)
(0 0 0)
(0 0 0)
(0 0 0)
(0 0 0)
(0 0 0)
(0 0 0)
(0 0 0)
(0 0 0)
(0 0 0)
(0 0 0)
(0 0 0)
(0 0 0)
(0 0 0)
(0 0 0)
(0 0 0)
(0 0 0)
(-0.0760234226965 0.00228846159476 0)
(0 0 0)
(0 0 0)
(-0.0441832380943 0.00126689813791 0)
(-0.0931232698383 0.00267019128163 0)
(0 0 0)
(0 0 0)
(-0.0461104905994 0.00138802073242 0)
(0 0 0)
(0 0 0)
(-0.0930126290723 0.00266701879844 0)
(-0.0436833035376 0.00125256315056 0)
(0 0 0)
(0 0 0)
(0 0 0)
(0 0 0)
(0 0 0)
(-0.0264556020549 0.000758580729394 0)
(0 0 0)
(0 0 0)
(0 0 0)
(0 0 0)
(0 0 0)
(0 0 0)
(0 0 0)
(0 0 0)
(0 0 0)
(0 0 0)
(0 0 0)
(0 0 0)
(0 0 0)
(0 0 0)
(0 0 0)
(0 0 0)
(0 0 0)
(0 0 0)
(0 0 0)
(0 0 0)
(0 0 0)
(0 0 0)
(0 0 0)
(0 0 0)
(0 0 0)
(0 0 0)
(0 0 0)
(0 0 0)
(0 0 0)
(0 0 0)
(0 0 0)
(0 0 0)
(0 0 0)
(0 0 0)
(0 0 0)
(0 0 0)
(0 0 0)
(0 0 0)
(0 0 0)
(0 0 0)
(0 0 0)
(0 0 0)
(0 0 0)
(0 0 0)
(0 0 0)
(0 0 0)
(0 0 0)
(0 0 0)
(0 0 0)
(0 0 0)
(0 0 0)
(0 0 0)
(0 0 0)
(0 0 0)
(0 0 0)
(0 0 0)
(0 0 0)
(0 0 0)
(0 0 0)
(0 0 0)
(0 0 0)
(0 0 0)
(0 0 0)
(0 0 0)
(0 0 0)
(0 0 0)
(0 0 0)
(0 0 0)
(0 0 0)
(0 0 0)
(0 0 0)
(0 0 0)
(0 0 0)
(0 0 0)
(0 0 0)
(0 0 0)
(0 0 0)
(0 0 0)
(0 0 0)
(0 0 0)
(0 0 0)
(0 0 0)
(0 0 0)
(0 0 0)
(0 0 0)
(0 0 0)
(0 0 0)
(0 0 0)
(0 0 0)
(0 0 0)
(0 0 0)
(0 0 0)
(0 0 0)
(0 0 0)
(0 0 0)
(0 0 0)
(0 0 0)
(0 0 0)
(0 0 0)
(0 0 0)
(0 0 0)
(0 0 0)
(0 0 0)
(0 0 0)
(0 0 0)
(0 0 0)
(0 0 0)
(0 0 0)
(0 0 0)
(0 0 0)
(0 0 0)
(0 0 0)
(0 0 0)
(0 0 0)
(0 0 0)
(0 0 0)
(0 0 0)
(0 0 0)
(0 0 0)
(0 0 0)
(0 0 0)
(0 0 0)
(0 0 0)
(0 0 0)
(0 0 0)
(0 0 0)
(0 0 0)
(0 0 0)
(0 0 0)
(0 0 0)
(0 0 0)
(0 0 0)
(0 0 0)
(0 0 0)
(0 0 0)
(0 0 0)
(0 0 0)
(0 0 0)
(0 0 0)
(0 0 0)
(0 0 0)
(0 0 0)
(0 0 0)
(0 0 0)
(0 0 0)
(0 0 0)
(0 0 0)
(0 0 0)
(0 0 0)
(0 0 0)
(0 0 0)
(0 0 0)
(0 0 0)
(0 0 0)
(0 0 0)
(0 0 0)
(0 0 0)
(0 0 0)
(0 0 0)
(0 0 0)
(0 0 0)
(0 0 0)
(0 0 0)
(0 0 0)
(0 0 0)
(0 0 0)
(0 0 0)
(0 0 0)
(0 0 0)
(0 0 0)
(0 0 0)
(0 0 0)
(0 0 0)
(-0.00157133044351 4.71031929334e-05 0)
(-0.00243922706711 7.31198097924e-05 0)
(-0.000962944408623 2.88842421472e-05 0)
(-0.00148837322652 4.46164150482e-05 0)
(-0.178166285008 0.00509921801843 0)
(-0.110865725254 0.00317303862407 0)
(-0.00235117090547 7.04801827248e-05 0)
(-0.00142438561713 4.2698282091e-05 0)
(-0.00143177615443 4.29198255006e-05 0)
(-0.000867629254511 2.60251923755e-05 0)
(-0.0152536978321 0.0004376562611 0)
(-0.0412241104547 0.00117985693429 0)
(-0.00934799884016 0.00026821104405 0)
(-0.000526357462729 1.57884881758e-05 0)
(-0.000118530222476 3.55540321653e-06 0)
(-0.000324954968161 9.74726879688e-06 0)
(-7.24252783142e-05 2.17245072268e-06 0)
(0 0 0)
(-0.00122347713724 3.26858458026e-05 0)
(0 0 0)
(-1.41746724317e-05 4.07051211694e-07 0)
(0 0 0)
(-8.60316124239e-06 2.47055247659e-07 0)
(0 0 0)
(0 0 0)
(0 0 0)
(0 0 0)
(0 0 0)
(0 0 0)
(0 0 0)
(0 0 0)
(0 0 0)
(0 0 0)
(0 0 0)
(0 0 0)
(0 0 0)
(0 0 0)
(0 0 0)
(0 0 0)
(0 0 0)
(0 0 0)
(0 0 0)
(0 0 0)
(0 0 0)
(0 0 0)
(0 0 0)
(0 0 0)
(0 0 0)
(0 0 0)
(0 0 0)
(0 0 0)
(0 0 0)
(0 0 0)
(0 0 0)
(0 0 0)
(0 0 0)
(0 0 0)
(0 0 0)
(0 0 0)
(0 0 0)
(0 0 0)
(0 0 0)
(0 0 0)
(0 0 0)
(0 0 0)
(0 0 0)
(-0.0701491853367 0.00200770864044 0)
(-0.00974885892106 0.000279712446933 0)
(-0.0157364728852 0.000451507953131 0)
(-0.000404827540434 1.21431067059e-05 0)
(-0.000653060226282 1.95890329117e-05 0)
(-9.44539691135e-05 2.83321787967e-06 0)
(-0.000154218692208 4.62590572154e-06 0)
(-0.0414957273713 0.00118763076128 0)
(-0.0156031778389 0.000447683476455 0)
(-0.00941134423294 0.000270028538277 0)
(-0.000622515863995 1.86728317804e-05 0)
(-0.000368163956982 1.10433549311e-05 0)
(-0.000125654370146 3.76909738677e-06 0)
(-7.63650928172e-05 2.29062842338e-06 0)
(-0.00347400301191 9.96754482738e-05 0)
(-0.00346184977807 9.9326749949e-05 0)
(-0.000736846551718 1.96852495536e-05 0)
(-0.000123365156674 3.70043070608e-06 0)
(-2.5972954579e-05 7.56680884146e-07 0)
(-2.64524804095e-05 7.7065110953e-07 0)
(-3.23440054332e-06 1.41189671151e-07 0)
(0 0 0)
(0 0 0)
(0 0 0)
(0 0 0)
(0 0 0)
(0 0 0)
(0 0 0)
(0 0 0)
(0 0 0)
(0 0 0)
(0 0 0)
(0 0 0)
(0 0 0)
(0 0 0)
(0 0 0)
(0 0 0)
(0 0 0)
(0 0 0)
(0 0 0)
(0 0 0)
(0 0 0)
(0 0 0)
(0 0 0)
(0 0 0)
(0 0 0)
(0 0 0)
(0 0 0)
(0 0 0)
(0 0 0)
(0 0 0)
(0 0 0)
(0 0 0)
(0 0 0)
(0 0 0)
(0 0 0)
(0 0 0)
(0 0 0)
(0 0 0)
(0 0 0)
(0 0 0)
(0 0 0)
(0 0 0)
(0 0 0)
(0 0 0)
(0 0 0)
(0 0 0)
(0 0 0)
(0 0 0)
(0 0 0)
(-0.00214060658541 6.14178860085e-05 0)
(0 0 0)
(0 0 0)
(-1.07300089942e-05 3.08131505939e-07 0)
(-1.69491747969e-05 4.86726036988e-07 0)
(0 0 0)
(0 0 0)
(-0.00122760554612 3.27961384529e-05 0)
(0 0 0)
(0 0 0)
(-1.38554113749e-05 3.97883056264e-07 0)
(-8.84347479857e-06 2.53956283623e-07 0)
(0 0 0)
(0 0 0)
(0 0 0)
(0 0 0)
(0 0 0)
(0 0 0)
(0 0 0)
(0 0 0)
(0 0 0)
(0 0 0)
(0 0 0)
(0 0 0)
(0 0 0)
(0 0 0)
(0 0 0)
(0 0 0)
(0 0 0)
(0 0 0)
(0 0 0)
(0 0 0)
(0 0 0)
(0 0 0)
(0 0 0)
(0 0 0)
(0 0 0)
(0 0 0)
(0 0 0)
(0 0 0)
(0 0 0)
(0 0 0)
(0 0 0)
(0 0 0)
(0 0 0)
(0 0 0)
(0 0 0)
(0 0 0)
(0 0 0)
(0 0 0)
(0 0 0)
(0 0 0)
(0 0 0)
(0 0 0)
(0 0 0)
(0 0 0)
(0 0 0)
(0 0 0)
(0 0 0)
(0 0 0)
(0 0 0)
(0 0 0)
(0 0 0)
(0 0 0)
(0 0 0)
(0 0 0)
(0 0 0)
(0 0 0)
(0 0 0)
(0 0 0)
(0 0 0)
(0 0 0)
(0 0 0)
(0 0 0)
(0 0 0)
(0 0 0)
(0 0 0)
(0 0 0)
(0 0 0)
(0 0 0)
(0 0 0)
(0 0 0)
(0 0 0)
(0 0 0)
(0 0 0)
(0 0 0)
(0 0 0)
(0 0 0)
(0 0 0)
(0 0 0)
(0 0 0)
(0 0 0)
(0 0 0)
(0 0 0)
(0 0 0)
(0 0 0)
(0 0 0)
(0 0 0)
(0 0 0)
(0 0 0)
(0 0 0)
(0 0 0)
(0 0 0)
(0 0 0)
(0 0 0)
(0 0 0)
(0 0 0)
(0 0 0)
(0 0 0)
(0 0 0)
(0 0 0)
(0 0 0)
(0 0 0)
(0 0 0)
(0 0 0)
(0 0 0)
(0 0 0)
(0 0 0)
(0 0 0)
(0 0 0)
(0 0 0)
(0 0 0)
(0 0 0)
(0 0 0)
(0 0 0)
(0 0 0)
(0 0 0)
(0 0 0)
(0 0 0)
(0 0 0)
(0 0 0)
(0 0 0)
(0 0 0)
(0 0 0)
(0 0 0)
(0 0 0)
(0 0 0)
(0 0 0)
(0 0 0)
(0 0 0)
(0 0 0)
(0 0 0)
(0 0 0)
(0 0 0)
(0 0 0)
(0 0 0)
(0 0 0)
(0 0 0)
(0 0 0)
(0 0 0)
(0 0 0)
(0 0 0)
(0 0 0)
(0 0 0)
(0 0 0)
(0 0 0)
(0 0 0)
(0 0 0)
(0 0 0)
(0 0 0)
(0 0 0)
(0 0 0)
(0 0 0)
(0 0 0)
(0 0 0)
(0 0 0)
(0 0 0)
(0 0 0)
(0 0 0)
(0 0 0)
(0 0 0)
(0 0 0)
(0 0 0)
(0 0 0)
(0 0 0)
(0 0 0)
(0 0 0)
(0 0 0)
(0 0 0)
(0 0 0)
(0 0 0)
(0 0 0)
(0 0 0)
(0 0 0)
(0 0 0)
(0 0 0)
(0 0 0)
(0 0 0)
(0 0 0)
(0 0 0)
(0 0 0)
(0 0 0)
(0 0 0)
(0 0 0)
(0 0 0)
(0 0 0)
(-6.91747075435 0.200229404143 0)
(-5.37560386644 0.155290228905 0)
(-5.8316420793 0.166085488996 0)
(-3.53509615749 0.100679734109 0)
(-4.74342687065 0.137027925204 0)
(-5.14524126871 0.146536755942 0)
(-7.84776054054 0.227361689884 0)
(-5.37400585218 0.155244065533 0)
(-2.53861599972 0.0733354371885 0)
(-2.75069382198 0.0783399122044 0)
(-2.7526770446 0.0783963944943 0)
(-3.6938928477 0.10670902844 0)
(-3.69333285561 0.106692851412 0)
(-4.00232891726 0.113986548952 0)
(-1.54018372118 0.0444927655682 0)
(-3.26064063984 0.0941932560356 0)
(-1.30134815846 0.0370624675368 0)
(-2.14460821496 0.061078560591 0)
(-2.87731738367 0.0831198291844 0)
(-1.14858812932 0.0327118534571 0)
(-1.74531645566 0.050418631775 0)
(-0.727535230015 0.0210170085468 0)
(-0.343673928981 0.00992803867735 0)
(-0.615067472312 0.0175171556339 0)
(-0.22642370156 0.00644855954504 0)
(-0.303280407157 0.00876115223889 0)
(-0.542739597664 0.0154572537631 0)
(-0.824431937625 0.0238161567502 0)
(-1.19945734419 0.0346498756546 0)
(-1.53989977781 0.0444845630237 0)
(-1.66891122049 0.0475306838753 0)
(-0.614358585357 0.0174969664942 0)
(-2.24072071291 0.0647298500903 0)
(-0.82431499461 0.0238127785051 0)
(-0.893929824348 0.0254591708451 0)
(-0.566589171739 0.0163676052701 0)
(-0.162321094943 0.00468912528083 0)
(-0.176223629592 0.00501885871857 0)
(-0.290177761532 0.00826427869959 0)
(-0.236189018217 0.00682301888588 0)
(-0.389387996304 0.0112486248208 0)
(-0.422427555726 0.0120307601536 0)
(-0.0351107629979 0.00102766811122 0)
(-0.126428828546 0.00365227092859 0)
(-0.0301352362349 0.000864089557896 0)
(-0.081915405238 0.00234882002402 0)
(-0.111568750599 0.00322299359284 0)
(-0.0265769840027 0.000762061202311 0)
(-0.0397879744338 0.00116456690326 0)
(-0.00876156533084 0.000214546118038 0)
(0 0 0)
(-0.00780727696647 0.00019703113041 0)
(0 0 0)
(0 0 0)
(-0.0053075590366 0.000122330571358 0)
(-0.00992879205463 0.000243128221007 0)
(-0.0273438229723 0.000800335068453 0)
(-0.0597138645175 0.00172501172335 0)
(-0.0637547401207 0.00182808605764 0)
(-0.0128526005224 0.000324359238249 0)
(-0.0868876012266 0.0025100055396 0)
(-0.0187925935902 0.000550046410578 0)
(-0.0206848414217 0.000593111510391 0)
(-0.00494757959403 0.000105938885667 0)
(0 0 0)
(0 0 0)
(0 0 0)
(0 0 0)
(0 0 0)
(-0.00413055918187 9.52026461242e-05 0)
(0 0 0)
(0 0 0)
(0 0 0)
(0 0 0)
(0 0 0)
(0 0 0)
(0 0 0)
(0 0 0)
(0 0 0)
(0 0 0)
(0 0 0)
(0 0 0)
(0 0 0)
(0 0 0)
(0 0 0)
(0 0 0)
(0 0 0)
(0 0 0)
(0 0 0)
(0 0 0)
(0 0 0)
(0 0 0)
(0 0 0)
(0 0 0)
(0 0 0)
(0 0 0)
(0 0 0)
(0 0 0)
(0 0 0)
(0 0 0)
(0 0 0)
(0 0 0)
(0 0 0)
(0 0 0)
(0 0 0)
(0 0 0)
(0 0 0)
(0 0 0)
(0 0 0)
(0 0 0)
(0 0 0)
(0 0 0)
(0 0 0)
(0 0 0)
(0 0 0)
(0 0 0)
(0 0 0)
(0 0 0)
(0 0 0)
(0 0 0)
(0 0 0)
(0 0 0)
(0 0 0)
(0 0 0)
(0 0 0)
(0 0 0)
(0 0 0)
(0 0 0)
(0 0 0)
(0 0 0)
(0 0 0)
(0 0 0)
(0 0 0)
(0 0 0)
(0 0 0)
(0 0 0)
(0 0 0)
(0 0 0)
(0 0 0)
(0 0 0)
(0 0 0)
(0 0 0)
(0 0 0)
(0 0 0)
(0 0 0)
(0 0 0)
(0 0 0)
(0 0 0)
(0 0 0)
(0 0 0)
(0 0 0)
(0 0 0)
(0 0 0)
(0 0 0)
(0 0 0)
(0 0 0)
(0 0 0)
(0 0 0)
(0 0 0)
(0 0 0)
(0 0 0)
(0 0 0)
(0 0 0)
(0 0 0)
(0 0 0)
(0 0 0)
(0 0 0)
(0 0 0)
(0 0 0)
(0 0 0)
(0 0 0)
(0 0 0)
(0 0 0)
(0 0 0)
(0 0 0)
(0 0 0)
(0 0 0)
(0 0 0)
(0 0 0)
(0 0 0)
(0 0 0)
(0 0 0)
(0 0 0)
(0 0 0)
(0 0 0)
(0 0 0)
(0 0 0)
(0 0 0)
(0 0 0)
(0 0 0)
(0 0 0)
(0 0 0)
(0 0 0)
(0 0 0)
(0 0 0)
(0 0 0)
(0 0 0)
(0 0 0)
(0 0 0)
(0 0 0)
(0 0 0)
(0 0 0)
(0 0 0)
(0 0 0)
(0 0 0)
(0 0 0)
(0 0 0)
(0 0 0)
(0 0 0)
(0 0 0)
(0 0 0)
(0 0 0)
(0 0 0)
(0 0 0)
(0 0 0)
(0 0 0)
(0 0 0)
(0 0 0)
(0 0 0)
(0 0 0)
(0 0 0)
(0 0 0)
(0 0 0)
(0 0 0)
(0 0 0)
(0 0 0)
(0 0 0)
(0 0 0)
(0 0 0)
(0 0 0)
(0 0 0)
(0 0 0)
(0 0 0)
(0 0 0)
(0 0 0)
(0 0 0)
(0 0 0)
(0 0 0)
(-1.34272884784 0.0234660330278 0.0300786820339)
(-2.06710438527 0.000668094349364 0.118011592)
(-1.68256411913 0.0479195191838 0)
(-0.619783229496 0.0176514606593 0)
(-2.53127936198 0.0410343707508 0.0637579139266)
(-0.900608208893 0.0256493716064 0)
(-1.08877293269 0.00291602026063 0.0562772640748)
(-1.54386182956 0.0441704827577 0.000786832144039)
(-3.25844949256 0.0941299582608 0)
(-2.15740640764 0.0614430538264 0)
(-1.30636307613 0.0372052926697 0)
(-2.9246124493 0.0794506898706 0.00975531393012)
(-1.74404874895 0.0503820103144 0)
(-1.15490086992 0.0328916406586 0)
(-0.588529631267 0.014785874578 0.00423224459732)
(-0.162232527926 0.0046865667604 0)
(-0.292674974165 0.00833539945353 0)
(-0.17736017668 0.00505122764252 0)
(-0.236025869961 0.00681830586559 0)
(-0.425314002704 0.0121129663232 0)
(-0.449641935092 0.006808646634 0.0119476137928)
(-0.726989866782 0.0210012541156 0)
(-0.34340085861 0.0099201502314 0)
(-0.616931476639 0.0175702425802 0)
(-0.22739363705 0.00647618336145 0)
(-0.823785298232 0.0237974766574 0)
(-0.303052780509 0.0087545765694 0)
(-0.545329728625 0.0155310208361 0)
(-1.539177299 0.0444636920847 0)
(-3.25847680715 0.0941307473237 0)
(-2.14691790763 0.0611443407661 0)
(-1.30444818668 0.0371507565122 0)
(-2.87570659753 0.083073296859 0)
(-1.74406196285 0.0503823920372 0)
(-1.14940604615 0.0327351477738 0)
(-1.1987957367 0.0346307631639 0)
(-1.53948295034 0.0444725217285 0)
(-1.67007354914 0.0475637870594 0)
(-0.614062839708 0.0174885436417 0)
(-2.23975399316 0.0647019235289 0)
(-0.823982944906 0.0238031862666 0)
(-0.894179964692 0.025466294856 0)
(-0.72700627022 0.0210017279775 0)
(-0.343403632912 0.00992023037534 0)
(-0.616080044539 0.0175459937469 0)
(-0.226350137996 0.00644646445068 0)
(-0.823789371404 0.023797594323 0)
(-0.303062198526 0.0087548486367 0)
(-0.543035094784 0.0154656695374 0)
(-0.566220227167 0.0163569472141 0)
(-0.162241750148 0.00468683317156 0)
(-0.290109655634 0.00826233903986 0)
(-0.17611581123 0.00501578804566 0)
(-0.389183483845 0.0112427168731 0)
(-0.236039867136 0.00681871021543 0)
(-0.422524179858 0.0120335120143 0)
(-0.267542677107 0.00772876212644 0)
(-0.933826418094 0.0269763401147 0)
(-0.37237550318 0.0106052749285 0)
(-0.372223101209 0.0106009345119 0)
(-0.499880534597 0.0144405288357 0)
(-0.499809769516 0.0144384845769 0)
(-0.199114277309 0.00567078563176 0)
(-0.12638094523 0.00365088767728 0)
(-0.0984345622637 0.00284357368695 0)
(-0.175893175594 0.00500944737043 0)
(-0.0385427957286 0.00110516562942 0)
(-0.236132473483 0.00682138542388 0)
(-0.0510724087478 0.0014948546073 0)
(-0.0924835256638 0.00265184743138 0)
(-0.12636723987 0.00365049175739 0)
(-0.0984134281898 0.00284296316667 0)
(-0.175823648022 0.00500746722133 0)
(-0.0385428622177 0.00110516753591 0)
(-0.23607080764 0.00681960402348 0)
(-0.0510684703396 0.00149473933277 0)
(-0.0924912772126 0.00265206969718 0)
(-0.0596936385126 0.00172442743534 0)
(-0.00875970162335 0.000214500481078 0)
(-0.0181929591582 0.000521659956914 0)
(-0.0181919708618 0.000521631618771 0)
(-0.0241229208971 0.000706061459182 0)
(-0.0241233987066 0.000706075444342 0)
(-0.043661373289 0.00125193432858 0)
(0 0 0)
(-0.0351039890324 0.00102746984186 0)
(-0.00779002498759 0.000196595744691 0)
(-0.0128296359731 0.000323779685207 0)
(-0.00992696201458 0.000243083408468 0)
(-0.0187883965202 0.000549923565201 0)
(0 0 0)
(0 0 0)
(0 0 0)
(0 0 0)
(0 0 0)
(0 0 0)
(0 0 0)
(0 0 0)
(0 0 0)
(0 0 0)
(-0.00466835393837 0.000107597937327 0)
(0 0 0)
(-0.00773023734129 0.000189291793242 0)
(0 0 0)
(0 0 0)
(0 0 0)
(0 0 0)
(0 0 0)
(0 0 0)
(0 0 0)
(0 0 0)
(0 0 0)
(0 0 0)
(0 0 0)
(0 0 0)
(0 0 0)
(0 0 0)
(0 0 0)
(0 0 0)
(0 0 0)
(0 0 0)
(0 0 0)
(0 0 0)
(0 0 0)
(0 0 0)
(0 0 0)
(0 0 0)
(0 0 0)
(0 0 0)
(0 0 0)
(0 0 0)
(0 0 0)
(0 0 0)
(0 0 0)
(0 0 0)
(0 0 0)
(0 0 0)
(0 0 0)
(0 0 0)
(0 0 0)
(0 0 0)
(0 0 0)
(0 0 0)
(0 0 0)
(0 0 0)
(0 0 0)
(0 0 0)
(0 0 0)
(0 0 0)
(0 0 0)
(0 0 0)
(0 0 0)
(0 0 0)
(0 0 0)
(0 0 0)
(0 0 0)
(0 0 0)
(0 0 0)
(0 0 0)
(0 0 0)
(0 0 0)
(0 0 0)
(0 0 0)
(0 0 0)
(0 0 0)
(0 0 0)
(0 0 0)
(0 0 0)
(0 0 0)
(0 0 0)
(0 0 0)
(0 0 0)
(0 0 0)
(0 0 0)
(0 0 0)
(0 0 0)
(0 0 0)
(0 0 0)
(0 0 0)
(0 0 0)
(0 0 0)
(0 0 0)
(0 0 0)
(0 0 0)
(0 0 0)
(0 0 0)
(0 0 0)
(0 0 0)
(0 0 0)
(0 0 0)
(0 0 0)
(0 0 0)
(0 0 0)
(0 0 0)
(0 0 0)
(0 0 0)
(0 0 0)
(0 0 0)
(0 0 0)
(0 0 0)
(0 0 0)
(0 0 0)
(0 0 0)
(0 0 0)
(0 0 0)
(0 0 0)
(0 0 0)
(0 0 0)
(0 0 0)
(0 0 0)
(0 0 0)
(0 0 0)
(0 0 0)
(0 0 0)
(0 0 0)
(0 0 0)
(0 0 0)
(0 0 0)
(0 0 0)
(0 0 0)
(0 0 0)
(0 0 0)
(0 0 0)
(0 0 0)
(0 0 0)
(0 0 0)
(0 0 0)
(0 0 0)
(0 0 0)
(0 0 0)
(0 0 0)
(0 0 0)
(0 0 0)
(0 0 0)
(0 0 0)
(0 0 0)
(0 0 0)
(0 0 0)
(0 0 0)
(0 0 0)
(0 0 0)
(0 0 0)
(0 0 0)
(0 0 0)
(0 0 0)
(0 0 0)
(0 0 0)
(0 0 0)
(0 0 0)
(0 0 0)
(0 0 0)
(0 0 0)
(0 0 0)
(0 0 0)
(0 0 0)
(0 0 0)
(0 0 0)
(0 0 0)
(0 0 0)
(0 0 0)
(0 0 0)
(0 0 0)
(0 0 0)
(0 0 0)
(0 0 0)
(0 0 0)
(0 0 0)
(0 0 0)
(0 0 0)
(0 0 0)
(0 0 0)
(0 0 0)
(0 0 0)
(0 0 0)
(0 0 0)
(0 0 0)
(0 0 0)
(0 0 0)
(0 0 0)
(0 0 0)
(-0.0273259566407 0.000799812133101 0)
(-0.0596805964656 0.00172405067721 0)
(-0.0641987227032 0.00184081669331 0)
(-0.0129955306396 0.000327966345142 0)
(-0.0868266656245 0.00250824523437 0)
(-0.0208549450129 0.000597989014445 0)
(-0.0187828201693 0.000549760349209 0)
(-0.0350864650246 0.00102695692609 0)
(-0.126329556037 0.00364940314833 0)
(-0.0823009557927 0.00235987519564 0)
(-0.0302563823478 0.000867563268551 0)
(-0.111485315623 0.00322058332658 0)
(-0.0397583330563 0.00116369932033 0)
(-0.0267412974299 0.000766772680782 0)
(-0.00494534336142 0.000105891002861 0)
(0 0 0)
(0 0 0)
(0 0 0)
(0 0 0)
(-0.00417039970152 9.61209050636e-05 0)
(0 0 0)
(-0.00875705896673 0.000214435769842 0)
(0 0 0)
(-0.00785151472672 0.000198147552429 0)
(0 0 0)
(-0.00992288988989 0.000242983693576 0)
(0 0 0)
(-0.00534742180713 0.000123249343144 0)
(-0.035089146504 0.00102703541117 0)
(-0.126331456154 0.00364945803885 0)
(-0.0820007502489 0.00235126718362 0)
(-0.0302103718477 0.000866243976 0)
(-0.111491628597 0.00322076569552 0)
(-0.0397594774641 0.00116373281637 0)
(-0.0266261403918 0.000763470699228 0)
(-0.0273302765296 0.000799938573303 0)
(-0.0596875594831 0.00172425182457 0)
(-0.0637174266346 0.0018270161409 0)
(-0.0128271694152 0.000323717437039 0)
(-0.086835864847 0.00250851098114 0)
(-0.0187854004841 0.000549835873266 0)
(-0.0206803318249 0.000592982203439 0)