/*--------------------------------*- C++ -*----------------------------------*\
| =========                 |                                                 |
| \\      /  F ield         | OpenFOAM: The Open Source CFD Toolbox           |
|  \\    /   O peration     | Version:  v1906                                 |
|   \\  /    A nd           | Web:      www.OpenFOAM.com                      |
|    \\/     M anipulation  |                                                 |
\*---------------------------------------------------------------------------*/
FoamFile
{
    version     2.0;
    format      ascii;
    class       volScalarField;
    location    "11.5";
    object      p_rgh;
}
// * * * * * * * * * * * * * * * * * * * * * * * * * * * * * * * * * * * * * //

dimensions      [1 -1 -2 0 0 0 0];


internalField   nonuniform List<scalar> 
28582
(
19547.1905667
19545.2906182
19546.8737612
19544.9020739
19545.8485441
19543.4759679
19544.8257928
19542.1372192
1259.23159903
1325.56036405
-0.0899379190893
19543.0614934
17002.9629665
16877.2970499
19542.0970546
19541.6252064
16883.7608002
19503.1403187
19504.1791083
19548.9818844
19544.2119009
19544.1230207
19549.1317054
19544.046123
19544.0247785
19549.3186251
19542.8912221
19550.7784472
19542.3853055
1336.44704503
-0.105030871216
-0.0337906918867
19547.684044
19547.6108345
17182.6771726
17092.5666586
19525.1520486
19542.5820823
19541.9819626
19542.6313609
19506.1739497
16864.5872448
19506.7284082
19509.8575365
1283.25019469
1326.08064795
7.07874479577
9.57267237239
1310.84889813
9.6743935681
19515.1724286
19510.2368551
16944.0826995
17002.3967829
19515.8158305
16939.2373807
19509.5008719
19504.7642159
19498.446612
16905.1668944
16873.6964042
19499.7409377
16896.9009645
19503.8411509
19498.6490557
19497.3880854
16894.5563558
16866.2842755
19497.9410104
16865.3928756
19498.6891931
19503.7424037
16931.616456
16881.5679637
19500.4570106
16905.8576726
16870.6592993
19501.0361211
19504.8590909
16865.4313877
16853.6887306
19502.3151305
16850.0957313
19503.7868181
16854.3420229
1260.34719594
9.6224483754
1257.6274985
1259.09778399
8.74781413737
9.07256979753
1344.14378303
6.86605242173
8.83880174025
1359.29108564
7.15508399111
1349.37484054
7.73509443216
19528.6841873
19530.3483528
17150.3568502
17198.7125202
19527.2968682
19532.0554922
17158.7320299
19524.0895614
19517.4059312
17128.7585689
17081.1894044
19523.0153243
19517.8396682
17128.5117037
17116.9840668
17058.2804244
19519.5963385
19524.7954999
17070.6144165
19519.3363864
17119.1079089
19505.895778
16926.5223956
16889.5764979
19508.8394587
16911.4647222
19507.555552
16889.2993244
19511.1896933
19508.0439118
16891.4407815
16868.6418092
19508.2798649
19512.2999172
16881.6233199
19508.2980265
19506.4767457
16875.9493784
16864.0264336
16881.3918695
19509.0643521
16893.8798282
16891.7291959
16896.621401
19511.2018538
19511.4211238
16873.207873
19511.3100946
16892.2276639
19542.675268
19542.5729002
1370.8597183
-0.0611820093444
19544.906173
17003.9886956
19543.0016215
19543.0227861
16834.8377843
16883.1624138
16759.4931334
19542.8213727
19542.8050416
16732.1536161
16695.725051
1267.4633608
1376.24784631
1405.70425496
7.09711377909
7.15051868955
7.18520749361
1433.05197876
1458.43388501
19506.616805
19513.6227271
17015.6318857
16944.382941
19513.0706189
16959.0640148
19506.8884151
19512.1274019
19507.6868015
16806.7276525
16848.0987768
19507.6001272
19512.3293263
16823.1826638
19509.7284552
19511.4424162
16846.6243854
16849.8395168
19510.6541142
16814.8549684
19510.6413434
19508.6771794
19507.0652101
16756.7871808
16805.076038
19508.169797
16783.9402235
19508.9030477
19508.7532108
19505.5121643
16732.0700567
16716.9914117
19508.1733178
16708.7547871
19505.5100679
19509.904804
19506.715656
16700.3756531
16703.8718011
19511.476877
16698.8997387
19505.9438029
19550.8228083
19550.9784602
19558.2480591
19557.735258
1026.05555378
1205.96223098
999.371568913
1153.34568566
1150.25648728
-0.113083475002
0.0707994644566
-0.100102337202
-0.165312959294
-0.123966972453
-0.116456447771
19547.3520683
19546.8660281
17220.1209499
17243.5466882
19551.7295514
17249.5234313
19546.7898356
19547.4030324
17291.3218093
17452.2334577
19557.3192385
19550.9718964
19555.9699714
17293.0539516
17357.3733286
17452.2422226
17478.0624442
19560.098185
19561.0357527
17382.9151698
17448.8884829
17477.2183493
17461.7357713
19555.1822547
19555.2410951
17473.5041392
17490.1983594
17534.7476345
19559.3111473
19557.6733358
19558.7135025
17486.5368994
17465.7589665
17523.7051638
17488.0083275
17525.4751606
17479.902475
926.421051824
935.437507704
1027.51021307
8.4234485485
6.45783383858
7.93937216014
5.55379709015
5.43719965334
4.45530933556
3.80200759082
3.43742372805
932.462349326
924.306257184
1117.00679025
1005.93498599
1089.88320005
6.52056621074
4.32057621224
5.98987393649
4.43487952662
1257.91766357
1175.31208214
1229.18500881
2.09047584927
2.18715487024
2.31632292055
2.29247990591
1076.6664917
1077.27172491
5.48439907837
4.23825077926
4.25196586272
1204.2455145
1146.58740863
1189.33533113
2.8734385979
2.36204787679
3.28737655485
2.83653572521
19517.3070762
19519.7509442
17234.846334
17188.6808541
19518.2052866
17213.9183268
19517.6499647
19518.9161735
19519.9936372
17212.8638989
17283.7903196
19517.8891067
19520.0511228
17246.9646432
19527.4350252
19522.5706061
17230.8866496
17282.881526
19522.1244152
19527.3031912
17274.7260342
19523.3603847
19522.2593925
17329.5247162
17358.5884899
19521.8826222
19523.6245663
17382.6432335
19527.0063927
19528.7273601
17411.6668804
17454.8296343
19526.8336206
19528.3052389
17426.2112044
19527.2362395
19523.3487458
17316.7120914
17344.950839
19527.3184977
19524.6007677
17361.015161
19531.7723284
19537.4805325
17336.2000844
17404.3763842
19532.4991874
19536.9588938
17381.642821
19529.804373
19530.0998479
17399.4571793
17458.478014
19527.9385972
19531.6037978
17407.6961674
19532.8256194
19537.675758
17433.7442632
17468.4397062
19537.0031388
19534.5529078
17420.6176893
19545.5734485
19541.8596079
17420.9342021
17417.9639493
19545.6539586
19541.9774357
17448.9781192
19547.3524267
19545.8931744
17429.8919168
17457.9710544
19547.5095993
17453.9850722
19546.3078621
19543.6856701
19540.3787005
17442.5882733
17481.3013616
19540.8866368
19542.7729266
17457.4134431
19544.929967
19541.8511323
17451.880866
17473.1438686
19543.5933416
17454.9758094
19543.4840749
19536.2213444
19532.7954205
17479.7259426
17500.096588
19534.3080178
19534.5434584
17506.4657802
19537.7187128
19537.8696073
17487.1919447
17514.1815258
19536.0867996
19539.4233197
17511.9127926
19539.4038726
19542.1903664
17521.0956737
17532.9106787
19540.9264253
19540.7001682
17519.2910024
19541.8865856
19539.6075943
17487.7757074
17506.5581638
19541.3115288
19540.7227041
17504.4030219
19541.8656942
19540.2917682
17477.6542161
17477.1509068
19541.7877095
17492.1259682
19540.2451822
19543.0172204
19543.282222
17512.3183429
17516.0273087
19542.0782318
19544.1412301
17504.1802597
19543.1146322
19542.589238
17477.5780491
17502.9401308
19544.0820087
17492.0378279
19541.7153773
19545.0950627
19544.2888277
17513.4335544
17529.5282334
19544.9265111
19544.7448476
17518.0867642
19543.4537221
17497.7881679
19544.7510304
19546.599125
19544.7683879
19543.9431607
19544.8374394
19545.8850901
19556.4110137
19546.4520978
19544.6718467
19543.9879929
19544.3057633
19544.9586341
19555.9637743
19538.6301799
19542.4534528
19538.8465711
19542.8371569
19546.1877174
19549.4253072
19555.3639442
19534.8496847
19540.7958182
19542.9311749
19543.73386
19544.2890067
19544.5835068
19544.264924
19543.6094129
19555.6344363
19545.503285
19543.8461531
19543.4581174
19543.75062
19544.2141922
19544.4053912
19544.6535281
19557.4964557
19547.8875031
19545.5753607
19544.2801739
19544.090644
19544.3596329
19544.4468574
19544.7858329
19557.8837874
19543.944282
19544.3487881
19545.3825708
19557.3097987
19535.9663107
19540.6620759
19542.1522588
19543.1542405
19546.4775674
19553.0195056
19602.7765079
19456.0994146
19540.5684757
19542.7587546
19546.4603834
19546.3147451
19544.7061014
19542.8277962
19539.2236812
19537.4602086
19544.958923
19544.4830838
19544.6659107
19544.4072938
19543.9610022
19543.0770886
19542.0433534
19552.5731936
19548.0441367
19545.7556241
19544.6836591
19544.5406228
19544.4746355
19543.5776806
19542.3477834
19555.1284739
19543.8448863
19543.6886864
19543.9130035
19556.3448376
19533.4506246
19540.3742464
19543.6055328
19541.9010052
19541.6290032
19542.6020238
19546.133191
19472.9569224
19537.7532921
19542.4335459
19542.5920017
19542.6229961
19541.439049
19537.4259611
19525.1956588
19513.286499
19545.9827178
19544.8122171
19544.0616593
19543.5763224
19542.4272886
19539.5585099
19532.092083
19546.9555602
19552.1679895
19548.366143
19545.4757541
19543.9642145
19543.529543
19542.5510157
19540.2523251
19535.4847821
19549.9014291
19545.8229108
19543.6457838
19542.8200427
19542.0774548
19540.8757738
19538.9025779
19553.0621566
19542.0236402
19540.9750948
19553.6717624
19539.7264863
19544.2251648
19546.5998948
19542.1704333
19539.6523741
19543.5756176
19545.954906
19516.8905913
19544.885745
19544.6600221
19546.640457
19545.9288983
19543.131298
19542.497493
19542.5062904
19538.4085276
19523.7536872
19557.7859167
19551.8319376
19547.6584185
19546.223033
19545.9233905
19544.5044544
19544.0828591
19543.09993
19538.9186992
19537.2954951
19554.4849587
19549.6671558
19545.8599437
19544.8500874
19544.964282
19544.8291667
19542.4716629
19539.5242374
19541.6037653
19545.1972262
19543.5740605
19543.537015
19542.730465
19541.6035325
19540.6155608
19543.5005839
19542.190166
19542.4562981
19545.240538
1123.36727316
1184.22616192
1268.96816279
1341.34645007
1436.35790303
1505.18192964
1506.79421762
1532.45003395
1222.44447524
1150.98137056
1155.08603763
1204.52555059
1251.22605737
1284.39009977
1361.62265789
1418.50461508
1456.61248416
1483.92396057
1209.03659997
1193.91519327
1200.06699627
1216.35228147
1238.21556934
1278.52183273
1296.96278391
1360.60614922
1403.32369647
1449.41968208
1217.85443272
1239.82729547
1236.89345905
1252.52753787
1267.22167317
1281.00539399
1358.18651849
1406.20222743
1442.80711242
1264.28215289
1276.6031806
1279.21563963
1337.43226185
1397.34083351
1448.6182653
1473.06978056
1429.75841715
1478.30013726
1491.60327281
-0.00206281606204
-0.14837990487
-0.1499602067
-0.157943529581
0.453233220493
0.715144962742
-0.105843304062
-0.119043371756
-0.224962566079
1.01030831541
0.43361659608
0.221188475007
-0.146686885081
-0.223862000253
-0.103745308435
1.37838888549
-0.0139602888723
-0.162116996974
-0.221350087414
0.597511013469
0.493674125307
-0.0935283672839
-0.159152755097
-0.137975110102
-0.13901646239
-0.138509633172
0.994471651911
-0.13189122032
-0.265348730753
0.800256652163
-0.0691956309572
-0.146653157575
-0.0662630723954
-0.0893295362609
-0.084149715518
0.232542407105
-0.140890142551
-0.268193904702
1.02618995913
-0.0579216197323
0.0182265408948
0.95999363986
-0.105276560718
-0.139780571249
-0.263495077061
1.04060765504
-0.101412994383
-0.251701262388
1.26313915652
19540.8384029
19539.1715388
19541.2051668
19537.4355401
19540.1367733
19538.6301766
19540.5146433
19543.1737577
19542.8781573
19543.7918927
19542.2269046
19538.9438924
19541.9391258
19541.143306
19541.7605516
19542.947766
19542.7853366
19540.7109423
19541.9830925
19542.7076634
19543.0570076
19543.6665515
19543.2480327
19543.9375423
19543.0613666
19543.0806535
19543.9296243
19544.7832931
19538.8281436
19537.2836445
19539.3938865
19533.9874174
19537.4724509
19535.5066776
19538.7105107
19541.2427901
19540.9789133
19542.2126611
19540.0510184
19540.8424566
19540.9792537
19541.1392711
19541.683597
19542.6593046
19543.2685029
19539.2737073
19540.8473485
19542.4154962
19541.7345182
19543.0923574
19543.9626555
19547.3314039
19542.5302391
19539.6987256
19542.4128203
19546.044869
19537.2058457
19535.2613902
19538.470784
19533.9352906
19536.4547241
19535.525738
19537.6149985
19541.4637138
19541.5919176
19542.7855649
19540.9787732
19543.5438792
19541.6521954
19545.3451572
19539.5536123
19542.4971897
19542.8504676
19541.1493763
19542.4845605
19544.0716226
19544.6932023
19540.3912785
19543.0655434
19545.5091772
19543.6141879
19543.865177
19545.1200669
19546.7993028
19540.4520108
19542.0936228
17271.7005826
17267.40054
19541.4574615
19542.6097702
19543.9642625
17276.4107468
17323.656172
17271.4209376
17283.3376932
19546.1724171
19545.4336179
19546.3004155
17322.2240861
17265.9338406
17276.7849446
17224.8485844
19544.8991716
19545.9362978
19544.161372
17228.3127047
16984.3405941
17184.6694488
16954.8878563
19540.0529527
19542.1050558
19540.8826567
16865.6489138
16486.9283557
16885.3774406
16758.1258239
19541.1313597
19540.9442606
19541.7273974
16434.5590418
16491.4159239
16729.7507456
16719.4758918
19545.9145849
19542.9692979
19544.3138884
16550.551175
16694.0338096
16729.2327024
16751.8641616
19536.262428
19544.0826731
19535.8612217
16727.2097537
16629.4351218
16737.9595256
16476.2156487
19500.5053877
19520.0311568
19524.528976
16691.6206226
15661.5862482
16530.7399572
16397.7916578
19557.704973
19552.5650591
17439.1350981
17358.0245305
17442.244124
17359.1764799
19543.9065833
19548.8888307
19546.7784877
17331.1282198
17268.7597518
17332.8641513
17274.9710594
19545.8413724
19546.0249517
19546.3042132
17267.0214088
17269.9126041
17259.8773663
17214.687853
19546.6461914
19546.6800346
19546.9460252
17264.1542752
17235.4937223
17197.7546554
17171.6204992
19544.5095807
19547.0490088
19545.8557828
17195.6013121
16964.4546657
17149.9861983
17036.5095345
19542.5215783
19544.4683214
19543.8374107
16938.4314091
16868.4040003
17010.5705735
16985.8182558
19542.6322328
19543.7685015
19543.7040637
16846.340631
16779.6799022
16983.0321741
16971.4310264
19541.5796527
19543.0586074
19541.187934
16774.2522596
16753.5051042
16960.0102974
16820.9936535
19532.3844229
19538.4496245
19534.7285657
16723.7868517
16444.7804395
16754.0979103
16533.0280511
19541.2805144
19530.9078172
19551.5837999
16505.1643791
16429.6044785
16589.3230789
16453.0221108
19554.9138671
19558.1110693
19556.1533708
17447.1884637
17368.9914294
17467.9091091
17398.3149345
19549.4621939
19553.3884297
19550.9076004
17348.1925065
17248.8771248
17362.8513924
17198.8443269
19546.572757
19548.8053644
19546.9715564
17223.0642539
17191.3310597
17170.5266187
17143.5961612
19546.1811118
19546.0547909
19545.5986894
17183.4855354
17160.0115807
17141.5538523
17119.5556655
19545.3122505
19545.4090887
19545.3243064
17147.0214905
17059.704121
17105.427678
17073.8346592
19544.0804589
19545.1111276
19544.9859191
17029.0146393
16985.2532515
17065.3543116
17062.4803281
19544.1198749
19544.9548224
19544.5048358
16996.8589536
17016.9830493
17079.925193
17033.4855151
19541.0667377
19543.1364172
19541.0992818
16972.5773148
16807.3345767
16935.7980499
16751.349229
19537.2014785
19539.2234406
19538.5964597
16759.1105657
16597.7641493
16726.2231319
16643.7628937
19553.9201296
19539.8469146
19555.1586982
16649.44671
16452.2045625
16702.1390273
16452.8217084
17460.8233462
17383.2444388
19552.0005671
19552.8668833
17346.308976
17194.0758151
17213.4581646
19547.4370095
19550.3007526
19547.6597232
17168.9150777
17139.0915968
17180.2026777
17113.1959398
19545.0630541
19545.6200244
19544.5768908
17127.1674281
17091.3999521
17083.6618765
16979.7855583
19544.9606721
19544.2835463
19544.4215516
17086.1344889
17078.2382498
16993.3372251
17057.7881693
19544.9838172
19544.4459255
19544.2895755
17068.7202308
17074.8063048
17048.5597492
16996.4168947
19543.9168154
19543.8664389
19543.0412321
17086.1936058
16975.0333465
16970.6818401
16844.5809482
19540.8034202
19542.0383758
19540.7971073
16901.2915263
16762.3475636
16806.5079646
16719.3826193
19539.7034864
19540.062504
19540.5439952
16729.2067025
16630.8568912
16694.3959127
16579.9047965
19555.6716794
19542.586105
19556.036257
16695.7854607
16454.5604273
16658.6925423
16478.4226722
19543.9159372
19543.4422783
17049.6013813
16963.2458792
16887.6422378
19543.6508281
19542.9095986
19542.9436415
16981.8355181
17043.2690555
16902.7732773
16961.1994307
19543.1785919
19542.8762864
19542.698772
17039.9092593
16947.1322186
16962.0430007
16864.1853564
19542.1773235
19542.3966981
19542.081604
16912.7564532
16835.6744164
16831.0345201
16759.285773
19540.9088598
19541.6615315
19541.2951047
16792.1488047
16692.2882
16724.2337201
16641.2779013
19541.3074219
19541.2994073
19542.0840375
16675.1869875
16579.435674
16643.61583
16566.8036383
19556.3164168
19544.181442
19556.2432542
16667.0638296
16497.7889912
16653.3829627
16519.2554658
19542.427917
16752.9941297
19542.110301
16719.0341653
16653.1394221
19543.3422674
16651.5734786
16558.3260882
19556.2556535
16647.9610389
16529.6045473
2.93548268668
1.36576557309
3.28254304256
1.54612905193
1097.04177295
1126.03654047
0.486369641948
0.458608664954
0.604183882841
0.613085537909
1152.29100635
1138.49483954
1164.49023478
0.626007989567
0.902713274205
1.05530502043
1.07735489101
1226.23514859
1194.3746402
1228.31462978
1.3297899363
1.77295504281
1.3367939556
1.70734733976
1303.16747805
1259.75825628
1283.13569382
10.9279971565
24.5747432223
11.197802908
24.1093599904
1385.24094174
1316.61044384
1355.8731812
28.4371665531
27.3570076542
27.0078566567
22.4831295989
1486.6984106
1407.08623151
1438.76026183
16.0211328813
12.8437042934
11.3895331647
9.2752364461
1512.55434349
1463.54337133
1477.88996882
11.4123221877
10.2801631158
8.64106713007
7.94736538506
1517.22418439
1482.82347039
1506.66505777
10.635030234
10.4105010859
8.43214327825
8.65555764949
1587.2016816
1496.69469634
1591.61959212
11.7103664949
34.7183186593
11.7409953897
19.5423887989
1176.2590302
1216.14361388
1190.0760207
7.0355718515
6.35013566896
8.35984957796
8.05490009197
1146.4664488
1179.2839175
1172.61309421
4.96986175327
4.25376816582
2.28611555752
2.2971188765
1176.59065283
1172.38679271
1185.7946429
1.83749570461
1.10533914132
1.51251520953
1.20347738492
1225.55377313
1208.51357809
1224.72763041
0.749345718302
1.06695578663
1.17329289792
1.94271037904
1274.06168028
1241.58829413
1262.32380119
4.99839936983
17.1836643254
5.0064114911
10.4996013537
1315.95220415
1277.11500731
1298.79671968
31.4926513173
25.4277915889
19.9035265893
19.8066858368
1388.62345526
1333.6535812
1351.8101214
9.97814145266
7.59298269206
8.74758409648
6.2195418488
1440.19280476
1377.43285612
1406.44588124
6.06656426097
4.67732404537
4.62430186133
4.38931831722
1490.80047412
1427.93087865
1457.04268286
5.29810790479
5.76535343176
4.30072975474
4.83299448993
1590.10398829
1464.26399404
1563.39080547
9.75186017624
16.1613310595
8.86422616896
17.6099002877
1196.05665521
1201.93558303
1195.65540378
7.27259837883
6.00795028892
7.32059467966
8.25707410662
1198.50652704
1205.77842041
1216.34427251
0.718215001563
1.94328430638
1.63621458784
4.15440865817
1206.61879364
1222.93923057
1222.28903713
2.12507364932
1.48273508694
4.34786134537
3.45867494229
1225.75159338
1226.03909669
1234.35050836
2.01932630517
2.80461080295
3.02243146599
3.71029126165
1260.71674817
1243.19781459
1258.56588208
4.5084240762
5.69589249781
4.58951377589
4.86806841173
1288.48198824
1268.6431657
1272.70232659
6.56726626874
10.389539119
5.88501672501
9.33737463281
1324.08913273
1275.35586592
1307.53749459
18.4837610509
12.6616508971
20.3894241901
18.8496842495
1384.31924682
1352.89509607
1375.79457026
5.50691391096
4.68756065261
6.23430131747
4.74281093931
1434.515726
1397.36522572
1424.84998222
4.36111034269
4.73151163031
4.31369937418
4.52228366014
1529.55576508
1440.41669347
1508.73824048
8.84980788249
20.8804036416
8.27696072331
25.1413208728
1232.83492273
1243.18855388
3.37565199679
6.01009889437
7.37364026118
1235.59375914
1251.53136603
1250.17820768
6.01785126621
5.45805921726
7.63153853457
7.52392450712
1246.31928289
1252.08727473
1261.19639433
5.6723933804
5.99873897208
8.47903961221
9.53306122642
1260.55307807
1265.094881
1270.26588783
6.71709991776
7.14341867699
10.7213152342
11.7169935965
1270.60501133
1280.863315
1287.32737834
7.63545765332
10.1254710889
11.4890010858
11.7700320662
1314.05026038
1301.51924612
1338.24335688
15.6066638186
16.5874876485
15.2522279954
13.0153747858
1383.08040858
1375.79458156
1404.25394788
6.50592832268
5.02721606379
6.51998801008
5.43281338884
1431.03591725
1425.33913038
1450.75120018
4.51393584846
4.63522208376
4.81880393815
4.93514926019
1503.98260642
1455.27493757
1515.21175188
8.18839173688
28.1768565789
8.39553927383
30.2447256143
1272.99765683
1283.57161299
10.8896382643
11.7277870564
12.5203698809
13.5051652098
1281.90437861
1294.66387063
1298.05947938
11.4980491062
15.5075302626
12.3945373089
16.1500086485
1306.41564887
1297.66999692
1329.07168198
25.737728997
13.6799319575
24.7467746187
11.5820274809
1367.35678706
1362.16329589
1390.54136082
7.41799943684
7.21721311117
6.88410179885
7.34907273577
1427.70521494
1420.86120539
1450.61061045
7.63355671626
7.93027778645
8.36870689501
9.42834451985
1477.42473761
1470.87174951
1501.08111297
7.20572587554
6.87874805277
8.66140025139
8.94972986997
1527.95453251
1490.96386598
1539.03381064
9.31239718046
29.8656088165
10.9933122412
29.5035391893
1399.58615606
7.42115333487
1459.18607267
8.08833514606
9.08819512415
7.50685884869
7.41766542744
1509.38107254
8.88491254042
9.41338537549
6.72726783479
7.56871803362
1537.49960251
12.0648094692
31.3643742899
11.2102961914
33.6586513888
19525.5202919
19529.3923904
17282.3074725
17275.1610355
19527.8418381
17279.563846
19526.639317
19524.8054032
19526.9752573
17261.6180141
17274.3299902
19527.1360022
19525.12182
17261.1614172
19533.1518472
19531.6825508
17288.8691527
17280.2334037
19530.8248182
17291.5846091
19533.6109215
19534.8091645
19536.8958297
17300.4328515
17313.8980657
19536.1583068
17299.1147138
19535.39794
19532.864493
19529.5326844
17267.9782252
17280.861254
19530.2323078
19532.0437162
17281.1615394
19534.4372308
19534.7095748
17303.2822587
17280.9373957
19535.7026129
19533.6111912
17289.3571735
19536.2978467
19537.7720228
17312.6419724
17311.0819224
19536.9012834
17301.7659777
19537.6197654
19534.448133
19533.9097963
17292.6431385
17252.1510866
19532.5492879
17282.2191796
19536.0495465
19535.8296502
19535.3582674
17300.4646763
17265.7410442
19536.370355
19535.1343352
17291.0068457
19533.961896
19531.96739
17234.6916898
17248.3848952
19531.9289535
19533.8567127
17269.9466777
19528.4768855
19532.3222994
17179.2693218
17211.7890395
19530.5123533
17151.7252467
19530.0752583
19524.9691641
19519.8796998
17096.6490102
16959.308649
19519.4632781
17066.1341715
19526.1599625
19527.9724784
19530.0930894
17189.8158329
17124.1902874
19529.7596523
19527.8482348
17130.5818951
19525.2349217
19521.0688767
16966.3808649
17045.753411
19520.856007
19525.0709171
17056.5129512
19504.7261492
19511.4305627
16727.5437688
16849.2711973
19512.8553807
16734.0521677
19501.7660759
19496.8294521
19485.4910284
16609.4536131
16553.3959856
19491.0587413
16637.1772153
19492.381139
19508.9843294
19516.4565693
16885.4896002
16825.9003129
19515.4818421
19511.7116603
16787.8479166
19502.5723562
19501.5875304
16663.7928353
16789.2858211
19496.8182211
19506.791205
16723.1271008
19486.7936888
19480.4594132
16415.1890158
16522.2119873
19486.2673358
16499.332616
19482.1234798
19489.7154001
19492.5101092
16436.3417424
16554.6559332
19494.8320695
16512.9684867
19486.0889136
19491.9552228
19496.0101648
16629.9470392
16709.153943
19491.6382668
19495.3676652
16605.7804654
19494.1300404
19499.7044247
16629.8401885
16710.9160228
19498.2997448
19496.6840706
16611.8047087
19507.6534101
19499.7238067
16605.7857072
16605.8273893
19501.1701191
16652.5688438
19506.7993246
19513.104171
19517.1655053
16650.0206438
16714.7559917
19516.7563392
16681.8151657
19512.6110667
19509.0644426
19504.2996609
16652.9496604
16740.5104225
19503.5935472
19509.4229815
16681.0922477
19513.6086766
19514.2275481
16721.4474204
16745.7334476
19515.6349329
19513.2997546
16700.5300478
19514.732073
19518.2530907
16740.5058275
16729.7039098
19516.7282397
16717.7606082
19517.6155342
19508.4221666
19504.9323661
16699.2507291
16551.4232536
19499.6010625
16659.240888
19512.99498
19511.1965854
19512.223505
16716.7710132
16703.1084829
19514.567968
19508.2207446
16698.5041507
19502.8544307
19491.6611639
16503.393966
16612.3002432
19493.3618121
19500.0535688
16624.5682308
19460.5226578
19489.3039383
16623.3428629
16591.6954985
19484.5792996
16547.8555578
19460.8938471
19392.0344542
19355.0703796
16371.2900157
16407.7330821
16235.4241879
19399.6836462
19374.9222991
19461.3102479
19481.7084559
16562.7986077
16488.4830606
19481.2625949
19465.0841529
16498.0303155
19408.8604262
19454.874419
16372.2017605
15939.5050279
19422.4507739
15885.6667541
19436.3333289
19536.5211668
19541.8868125
17417.0352169
17441.6935484
19536.9253113
17417.1849781
19542.0322558
19531.3543591
19527.1747692
17389.7867332
17360.1739273
19531.5788401
19527.6982975
17392.4443801
19534.8251376
19538.0371119
17435.8760474
17419.0775252
19534.2881764
17413.108108
19539.5388827
19530.8087163
19528.6531748
17357.1042956
17392.0559797
19527.8780293
19531.2432977
17386.6585805
19524.0092046
19524.6020426
17301.1132929
17333.5660796
19523.368019
19525.3582521
17306.3472002
19523.9888123
19524.7674952
17280.8630134
17273.2785351
19523.5162721
19524.7895846
17287.1359609
19524.277656
19526.7792348
17332.3715049
17310.8436761
19525.7568281
19525.5225619
17310.8759288
19523.7541251
19525.4887542
17277.3923978
17294.1999256
19524.051189
19525.1328322
17294.4634616
19527.4114341
19526.7242594
17270.135222
17263.2467234
19528.8566515
19526.1298036
17253.5533127
19528.4319678
19531.2257918
17270.8584163
17244.6136259
19530.2045996
19529.4494373
17247.7902844
19526.1241464
19526.3522518
17264.1153184
17243.8494891
19525.0382314
19527.0667977
17248.9537893
19527.013972
19527.5990739
17232.3713113
17230.9708688
19527.6172828
19527.3769679
17238.6304545
19530.0571531
19531.8371815
17253.8203758
17234.6655892
19531.4751102
19530.0987061
17222.6476879
19529.1019373
19528.2675545
17245.1441788
17206.8014925
19530.1662189
19527.418286
17213.1030179
19527.9091359
19527.6894132
17223.7234959
17187.8128811
19528.0528544
19527.2646482
17212.2847951
19526.8654106
19524.1749751
17194.6650409
17179.2865344
19524.9569289
19526.1023619
17201.4818733
19522.4877521
19526.0969027
17129.1395452
17176.4568539
19523.4054012
19525.1213416
17129.0159247
19518.7224984
19515.4272714
17051.1937001
16978.3607437
19519.7724185
19514.7054054
17060.6375053
19519.3603318
19521.7756531
17171.4232277
17114.0571457
19522.3985674
19519.1389713
17136.6525105
19515.9473804
19513.1442748
17030.4857895
17077.0294981
19512.6215297
19516.1992263
17089.3363293
19506.1688734
19510.8545514
16910.9699232
16953.7775944
19506.5111737
19510.5313544
16937.8626434
19501.610377
19497.3987458
16888.5083601
16912.659653
19502.2357058
19496.6456396
16924.6950117
19506.920414
19510.2801172
17000.2037151
16989.9053554
19509.6003239
19507.5960197
16978.7354355
19504.1781865
19503.9316704
16964.7189762
16982.8764583
19501.8769327
19504.9695743
16971.6502761
19493.1878208
19492.8110992
16818.7107715
16895.0984058
19492.1529863
19493.3557083
16878.6692746
19493.8212998
19495.6584204
16790.9499161
16863.3657856
19493.1770131
19495.624938
16869.2805938
19501.5541923
19504.3399253
16946.9143564
16978.6949996
19501.2484842
19504.9424447
16927.6722451
19502.2303823
19507.7090586
16907.5946287
16974.9297152
19503.8311103
19505.9443898
16916.8651164
19502.7251305
19499.8929012
16771.171827
16851.0520235
19504.8608761
19498.8100433
16836.2509968
19503.7345508
19504.7117425
16764.5708695
16801.1346244
19506.0258671
19502.0578939
16820.504803
19508.9542216
19509.8840825
16891.0233516
16934.6846046
19506.4686449
19511.0902066
16872.5169584
19508.589204
19507.1844251
16800.0332996
16886.1373913
19506.6081133
19509.7642226
16838.4644654
19492.5417429
19500.8001769
16687.6684005
16760.9056916
19494.8386179
19498.1502815
16700.562429
19484.0079447
19478.6529609
16587.7278096
16454.5722287
19485.8244198
19476.4032018
16593.3149066
19498.65747
19503.5178264
16747.4424197
16685.642857
19503.1684128
19499.0959121
16692.4018127
19491.9187198
19488.9182148
16509.4711588
16623.0155984
19485.9358573
19493.5865346
16615.3815753
19456.1644124
19470.9797511
16474.9660356
16514.8737303
19457.165546
19468.8849334
16494.2354207
19426.0170838
19459.8334722
15929.9551684
16429.8720739
19422.4032502
15980.2191454
19464.9295998
19467.9814156
19483.4867046
16565.0416036
16564.9569571
19479.7601956
19471.9284636
16541.7296001
19439.9303406
19478.832249
16446.9325483
16043.3682212
19443.8986263
16023.4148584
19475.8016714
19533.6498756
19537.1643275
17423.2355254
17456.7950695
19533.7721315
17433.3376937
19536.9181533
19531.6310313
19529.3364232
17394.8571013
17382.6071419
19531.4039401
19530.0041614
17408.9504255
19535.4839155
19539.7292641
17458.8393141
17446.2998983
19536.802902
17434.2644107
19538.906833
19533.2245905
19533.0325577
17388.6464186
17425.1815025
19531.4813122
19534.921614
17409.9118938
19527.9813109
19527.767321
17330.3134968
17356.4299023
19526.6852546
19528.7973134
17333.7912538
19528.0568948
19526.8438543
17291.4490817
17231.9589055
19526.3044092
19527.9437671
17287.6345973
19529.1639799
19531.6263011
17358.0354529
17321.1617612
19530.2000751
19530.383199
17330.7238789
19529.1071536
19528.6751458
17218.8739411
17259.7539405
19528.6443714
19529.8489527
17278.8101677
19526.7368329
19527.4558294
17202.7226434
17199.9363693
19527.3044786
19527.1491403
17170.239668
19526.5125794
19527.0387012
17199.8979159
17164.5711705
19527.083329
19526.4981097
17166.4244145
19526.4116479
19527.3249047
17183.0909984
17147.6844403
19527.44338
19526.3534157
17156.4922236
19525.3848318
19523.8449844
17156.3693406
17147.8606424
19524.4683373
19525.3214937
17158.4171276
19525.4020188
19526.723835
17178.1201094
17159.9617657
19525.8488957
19526.3170403
17152.0553169
19524.0385588
19522.6552249
17170.435267
17133.3141449
19524.462489
19522.4949611
17142.5444904
19522.2291886
19522.188844
17148.3876855
17140.9373847
19523.4595368
19521.0313122
17141.4342563
19521.3687973
19519.4669092
17128.1586524
17130.8651778
19520.7242097
19520.2611073
17134.2507983