/*--------------------------------*- C++ -*----------------------------------*\
| =========                 |                                                 |
| \\      /  F ield         | OpenFOAM: The Open Source CFD Toolbox           |
|  \\    /   O peration     | Version:  v1906                                 |
|   \\  /    A nd           | Web:      www.OpenFOAM.com                      |
|    \\/     M anipulation  |                                                 |
\*---------------------------------------------------------------------------*/
FoamFile
{
    version     2.0;
    format      ascii;
    class       surfaceScalarField;
    location    "8.5";
    object      phi;
}
// * * * * * * * * * * * * * * * * * * * * * * * * * * * * * * * * * * * * * //

dimensions      [0 3 -1 0 0 0 0];
oriented        oriented;


internalField   nonuniform List<scalar> 
92311
(
0.203948649858
0.00010961964254
-0.000972166914536
-0.203860660747
0.000774557896048
0.000121699800192
0.203896848445
-0.000544981985391
0.000475220865415
0.203957533488
0.000436896808872
-0.00100921823628
-0.204034779332
0.000759334228182
0.000358122327394
0.203830712865
-0.000568783882286
0.000459298736786
0.203897724022
0.000286582777499
0.000348763256031
-0.00107341558698
-0.204369414789
0.00068545890281
0.000307787312407
0.000353531908801
0.000232086337511
0.000147804201953
0.000182831928035
0.203613549867
-0.000549188973581
0.000376179562736
0.000252638809368
0.0511559880413
0.000120800095476
0.00015978709536
0.000132315598158
0.000149164078283
-0.000413818162928
-0.0513272867737
0.000309612346134
-0.0510109252504
0.0508999909439
9.33672010669e-05
0.000101329941136
0.000115534205367
8.05609048035e-05
-0.000277412034287
0.00022967665726
-0.000189618409518
-0.00228999048527
-0.000200728662049
-0.00019351027012
-0.000216770816067
0.00676519159511
0.00858319692357
-0.0100515254277
-0.00220641843175
-0.00380378680039
-0.00272289309567
-0.000286080622323
0.000327180235248
6.66768075019e-06
-7.731801411e-06
-2.99036527554e-05
-3.35666045116e-05
0.00655022989094
-0.11694651919
-0.00249658191402
-0.00412485850205
0.00175842829679
-0.0731720387625
0.130296075637
0.00268433464002
0.00332211009946
0.00014874302394
0.000135258938554
0.000148804090294
0.000134430865868
-0.0003139149696
0.000240464403083
-0.000176002116448
0.0119735384093
-1.02525071018e-05
2.20331833683e-05
-0.0119988742982
0.0119498851716
0.000170707563795
-0.000171070089065
-0.0119588898836
-4.83411443928e-05
5.7749075919e-05
0.000164554178251
4.51825756755e-05
0.0508782801946
2.84079721458e-05
7.27004238459e-05
5.88808936623e-05
-0.000200173317961
6.02812429676e-05
0.0508427059295
7.00143662073e-05
8.42178196433e-05
9.14012320744e-05
-0.050877158872
7.6005176461e-05
0.000110431930693
-0.000136604774751
0.0119667344147
-5.86568125272e-05
6.7980661236e-05
5.47086389848e-05
0.0126640790093
-6.41811813093e-05
4.62339806349e-05
-0.0126556352443
0.0126569470347
4.33717639874e-05
6.59111419674e-05
-0.0126512136335
-0.000192909383701
0.204289759217
-0.00184041309473
0.00154498844366
-0.203801425813
0.203895904072
5.38797233672e-05
-1.83916275009e-05
-3.43761331361e-05
-3.98055239474e-05
0.203970348865
0.000131058784616
-0.000165625725093
-0.000277404796766
0.204464114889
-0.00187430284608
0.00163377861058
-0.20413904041
0.203889765307
0.000135248774733
-0.000148543553199
8.2939765545e-06
-5.22473276432e-05
0.204026673687
9.85221711392e-05
-0.000222938075282
-0.000137221846237
8.97623709429e-05
0.00011780546389
-0.00200880611049
0.204912508332
0.00175150938475
-0.204903806591
-9.91450313145e-05
3.79413268699e-05
-3.66821446556e-05
6.63892664134e-05
-1.55707723658e-05
0.203845853762
-0.000122554901701
-2.63898097556e-05
0.0515987080729
-3.37305199253e-05
-0.000100200955625
-4.68504928462e-05
-9.28599406082e-05
-0.000600447078181
-0.051485869148
0.000623932728595
0.0509144799438
0.000132400535296
2.80696249739e-05
8.9865538957e-06
5.86149963209e-06
-7.94083717545e-06
-0.0001655362417
-0.00364265361812
0.00101990492907
-0.00616052997298
3.0620877958e-05
1.93372719771e-05
3.13085502558e-05
2.74384732523e-05
0.00487066354116
0.0062168509384
0.00127314883184
0.00435840449405
-0.121360151431
0.0376680890807
0.126624526247
-0.063876558836
0.00188074342791
0.00513563167443
0.00299936903815
0.00444214787707
0.00324676197703
-0.0488026640623
0.024219904044
-0.00574945276204
0.000526371225378
1.39181969637e-05
6.25793741517e-05
6.13204912575e-06
6.04143898711e-05
0.0514937231917
-0.000474856480219
4.97348900455e-05
9.41085876937e-05
3.23862951094e-05
7.87032687787e-05
0.0514094789324
0.000489137100043
-0.0515095063729
-5.82064687719e-05
0.000113956520605
0.0120533384455
9.14018818231e-06
-3.31110004179e-05
-0.012085081687
0.000125633285942
-8.73605321238e-05
-0.0119837317379
4.58289197596e-06
-2.84793020881e-05
0.0119693305267
7.00359344378e-05
0.0128803666914
-0.000147918237218
0.000141234693112
-0.0128940193451
8.43739441612e-05
-3.39939220008e-06
-2.729790889e-05
-1.50188661767e-05
-1.75110703156e-05
0.0509908109989
-0.000134185265738
0.0508443298053
4.16386918343e-05
3.25694228285e-05
5.27779762904e-05
1.69308223369e-05
5.33140304528e-05
1.43405892946e-05
-1.59730613224e-05
6.1320052006e-06
-1.70178886113e-05
0.0509123742447
1.33317261525e-05
4.48031721966e-05
-5.80079532089e-05
2.91270289683e-05
0.0126762822546
-4.00130096814e-05
1.70027938601e-05
-0.012004209502
-0.000148397624904
0.0119995163111
0.000176122591581
3.34490828434e-05
4.67390725784e-05
0.0126631784481
-0.0126655511795
1.42822741296e-05
0.0126791469494
-1.51945992076e-05
1.6538681376e-06
0.000989487841811
-0.000187921593054
-0.000183118897238
-0.000207126624665
0.00809464737907
-0.00295390379547
-0.00767153741294
-0.00337251257804
-4.33585622941e-05
-5.23230418664e-05
-6.39462386234e-05
-6.74929983155e-05
0.00813027919901
0.000475988057172
-0.00772971551883
-0.0057320896664
-0.0187133722564
0.0127323168879
0.00584279858428
0.0101538980552
-0.0152582286945
-0.00503374021629
-0.00353954020357
-7.53394672696e-05
-0.000102394365842
-7.50443121395e-05
0.00786388800748
-0.00264466999955
-0.00880979558335
0.00905860673761
0.00812279359196
0.000103666000376
0.0128041419162
-0.00012001521143
-0.0128430941988
-0.0127977864422
0.000220541598754
-8.97326837713e-05
0.0127583354194
6.84114538903e-05
-2.09824767033e-05
-0.000204108036882
0.0119680381694
2.98462117801e-05
-0.00018805618208
0.0119779963707
-0.0120045510507
1.08041817888e-05
-0.0128310465797
8.09814800066e-05
0.0119670409479
-6.18693238253e-06
0.0127638575995
-0.000104703972899
0.0127191122928
0.000210372602794
-8.68087233858e-05
6.42800615096e-05
7.89548701611e-05
-0.0127243831521
0.0126972848937
-8.77183079209e-05
-3.22980425308e-05
-0.000187702996629
4.11145071981e-05
-0.000192153199354
-0.0119570040319
0.0119476294054
-2.9984004522e-05
0.0126923053738
6.22485009471e-05
-1.90149528848e-05
-0.000100783041715
-0.0126666700246
0.000105860585317
-7.25253731574e-05
0.0126616881396
6.50291304743e-05
7.01754149889e-05
0.0126689021099
-7.70656806217e-05
-6.36624685967e-05
-9.16661275221e-05
0.0119674589784
7.92556514319e-05
-0.000152424767997
0.0119677171025
-2.87937077899e-05
5.89100695557e-05
0.0119673051921
-3.23289757024e-05
0.0126611612382
-7.59484260234e-05
1.98087027995e-05
-0.0126565065437
0.0126662576349
-6.52985721894e-05
-8.32546979214e-05
-0.0119847552297
0.0119872861929
0.0001071378415
-0.0119851885177
-4.58264099646e-05
0.0119862256037
8.66112082904e-05
-6.31960162431e-05
5.53971277369e-05
-7.80543855286e-05
-6.52108176722e-05
9.60168521223e-05
-4.29357313187e-05
-6.48174001288e-05
8.47020866832e-05
-0.0126487560679
0.0126515712804
2.58622943964e-05
-1.71666423694e-05
-0.0119916769084
0.0119855353859
-0.0119953131869
0.0119872956623
2.32206859469e-05
4.09311816229e-05
0.000108182784058
-0.0126607031048
-0.000118924215068
1.49049669319e-05
-0.0119826934069
2.74003733937e-05
-0.0126603376256
2.4885704852e-05
-0.0119789654754
-0.00560209390521
0.00545424908588
-9.81447417522e-05
-0.000140771677278
-0.000125452880158
-9.4136553485e-05
-0.0126187616302
0.0175784911344
-0.00435323559435
-0.0152105497823
-0.00344420507002
0.0172557808429
0.00201631767435
-0.020542425134
-0.000481377031646
-1.65928091914e-06
5.39122752241e-05
-1.17917532123e-05
0.00434741106445
-0.00316170870325
0.0197386246161
-0.00307129119544
-8.15762323564e-05
-0.000110462580201
-7.69976772815e-05
-0.0177948428732
0.0061727755216
-0.00414160858105
-0.0122963772478
0.00409446638231
0.0131313748566
-0.0143799279981
-0.00367483763117
-0.000517048130356
0.00604174599288
-5.06950948576e-06
-3.29822704964e-05
-8.24988840326e-06
1.16318799505e-05
-0.00100259401901
-0.000174886956793
-0.0187357593589
0.00481218363656
-0.0143289125818
0.00291690446549
0.000555556856858
0.00469272856463
4.28183268669e-05
6.27256811173e-05
5.12178712619e-05
4.61009140831e-05
0.00275603258627
-0.00216527250886
0.000571511611201
-0.0174078646555
0.00309850994271
0.00105473837996
3.97071783754e-05
4.53909966484e-05
4.04050960055e-05
-0.00709649901701
0.00440809764614
-0.0128891213274
0.0034301475113
-0.000145754177573
-0.0129277624021
-2.40070627366e-05
0.012904820932
0.000158926560995
0.0129428171368
0.000150494824271
-0.000136647773012
-0.0129430977729
3.52205005067e-05
1.06434806465e-05
0.0120367384927
-3.08531828788e-05
0.000105745303407
0.0120462979061
-0.0120754521757
-1.36602083839e-05
0.0129186174427
-0.000133639561026
-0.0129282359361
0.000163397034956
0.0120293787992
-8.33997737427e-06
-0.000129406340865
0.0128944950816
7.93639715453e-06
0.000145405429587
-0.0129077207509
0.00012168464848
-0.000107596338943
0.0128687576967
-4.82099965996e-06
3.57780869627e-06
-2.75916122136e-05
-7.93835105805e-05
-0.0119790460384
-1.2606281143e-05
0.0119651029363
-0.000117476487621
0.00013700021107
0.0128600739009
-1.5340689504e-05
0.0119971143866
2.24044102462e-05
-1.29504673703e-05
-0.0120347508996
-0.000133103417138
1.7465063047e-05
0.0119839254125
-1.19513501188e-05
-0.000139080493369
0.0128491591933
0.000131241018832
0.0128895207594
4.11896786105e-05
-0.0129009595488
-0.000108924250977
-0.0119881893969
0.011976422022
0.0128570529061
-0.0120341441925
5.62147700684e-06
0.0126801260194
-6.8474798847e-05
-0.000100479999733
0.0120016081212
0.000122433030127
0.0119968798473
-6.267756349e-05
-5.32275901116e-05
7.5820117062e-06
0.0126883520728
3.94258260988e-05
8.06119462639e-06
-0.000113830582444
0.0120002585625
0.000138443833516
0.0126939090214
-6.695758998e-05
0.0119933703277
-7.5333119275e-05
-4.76395700099e-05
0.0127025213202
2.62444148756e-06
2.74552248654e-05
-0.012710503785
4.14489897125e-05
0.0127222556969
-6.35158665873e-05
9.98117308339e-06
-0.000134187086115
0.000159980233875
7.24326716792e-06
-0.0120009080631
-0.000111712661829
0.0120023529893
-6.93388363852e-05
1.93665639411e-05
0.0127142545216
-9.87170011683e-05
-0.0126519558078
3.43317317332e-05
-2.75542444399e-05
1.21818907173e-05
6.8129227107e-05
1.76738819956e-05
-2.94824600712e-05
0.0119939357001
0.0119857694059
7.17744782268e-06
4.06115498715e-05
0.0119743718813
-3.15488685998e-06
1.65662490693e-05
0.0126753482516
0.0119874031109
0.0119973962868
6.29188565803e-05
-2.88068040293e-05
1.5761295964e-05
8.06308695241e-05
0.0120122049773
-4.84652394486e-05
-2.80420085026e-06
0.0126914421632
-9.66168561507e-06
0.0126881594615
5.49406472339e-06
1.46194829665e-05
-0.0120032137298
0.0120086717666
0.0127022722231
-9.19650090013e-05
-7.02732306186e-05
-0.000101082649459
0.000205146867469
0.204303264748
-0.000110705109203
-0.000340766659227
5.08544539381e-05
-2.14532356653e-05
-2.91519267392e-05
-3.05570861573e-05
-1.66578427357e-05
-0.00010711224528
0.0510529139467
4.73437504637e-05
-0.00537666520206
0.000529307108796
4.67229256912e-05
4.56798756015e-05
4.42723165501e-05
0.00450500606602
-0.00693828375787
0.00625767525553
0.00719293746293
0.00803928689296
0.0553684323636
-0.013382836813
0.00690857059313
-0.00277000053608
0.000114840761507
0.000102898747577
8.76936034894e-05
0.000132166863806
-0.000226340533893
-0.000443768254821
0.0512279882281
0.000175887062945
-0.000152712621465
2.03909175709e-05
0.0119623912496
0.0510046269789
-2.11417021135e-05
-1.83338954072e-05
-1.77357269907e-05
-2.72083492274e-05
-2.73198472237e-05
0.0510355059545
-1.57638898949e-05
-1.88952897354e-05
-1.07089574268e-05
-2.42249662563e-05
2.08017488617e-05
-8.32846106035e-05
1.63526030399e-05
0.0120034275995
-0.000154494279342
0.000181558153464
-6.94923641535e-05
2.57233119552e-05
9.5112459559e-05
0.0120272800467
-6.62194869561e-05
0.0120671812267
-5.12111248671e-05
1.07321276228e-05
0.000100514284819
-0.0120520120355
-7.51142426192e-05
0.0510288235646
1.09635152227e-05
-1.09975927212e-05
-3.17574933746e-06
6.65467587759e-06
5.15992216379e-05
5.40888645287e-05
-0.000102500215348
2.52791183355e-05
2.58279596542e-05
2.76816330682e-05
2.21678122171e-05
-2.02538304887e-05
0.000109745699871
0.0509689610317
-0.00013069826028
-1.47600598246e-05
2.73091704793e-06
9.66008443304e-05
0.012060876566
-7.84541403419e-05
2.59562690707e-05
-3.58221927859e-05
0.000108355765544
-0.0120602355805
0.0120642010575
-0.000102591949979
-0.000148672724165
-0.000189840522586
-0.000153647091793
0.0088379431394
-0.00676936632772
-0.00725416830498
6.8719558644e-05
0.000673415771393
4.80522011264e-05
7.28003575748e-05
4.63154576764e-05
-0.00359973277251
0.000119978864241
-0.00155270876682
4.1617621715e-05
5.75545450525e-05
4.65922303973e-05
0.00661479570477
-0.00531009448803
-0.000422215528063
0.00307379655962
-0.00875325468276
-0.0115496057274
0.00158336910559
0.002848926614
-0.00611459575806
-0.000115974813941
-0.00264631560204
1.99649577674e-05
-1.83244781454e-06
4.91607652336e-07
0.00676252236347
-0.000677476616371
-0.00502443305321
-1.29245218291e-05
-2.87913577089e-05
-1.4939250309e-05
0.00450418842771
-0.000390325715391
-0.00324501703269
-0.00343207483106
-0.0128153224575
0.000148442227423
0.00011492781362
-0.000111317526317
0.0127781019652
-0.000128794828437
0.0128079901507
-0.000126510366972
0.0119604626324
1.42326901589e-05
2.42197496097e-05
-0.000181751882776
0.0119598904814
-0.000126029917645
1.73740353684e-05
0.0119621424283
0.0127685084945
-2.49262432442e-05
-0.0127239578556
-2.9531230361e-06
1.67825124983e-07
0.0127302061698
0.0127325524276
3.13438586131e-05
-5.44999971757e-05
1.22740571456e-05
-0.000159071450191
0.000183948706191
0.0120129833514
2.55783436045e-06
0.0120096742647
-0.000118739943382
-4.72292687958e-05
0.0127364458319
7.48669971479e-06
-0.000125788849073
0.0120176421787
-0.0127152638555
-1.4381736558e-05
-1.49985494271e-05
0.0127236218765
8.69696577777e-06
0.0127105433928
-2.03736601237e-05
1.4558780051e-05
0.012018507222
0.000105724878161
2.99345659085e-05
0.0120444449938
-7.97271073884e-05
0.0120303715917
0.0127236636924
-2.53591940518e-05
0.0127345173361
-1.3149946071e-05
-1.5490583844e-05
1.96375416315e-06
1.23730902254e-05
-0.0127362602646
0.012737472611
-2.17781884189e-05
5.86150118166e-06
-0.0120403362867
0.0120517025846
0.000124893536766
0.000103692954749
2.65629142397e-05
-8.01881654267e-05
0.0127381635005
3.82719910351e-06
0.000127196163099
-2.57748196045e-05
-0.0127389442475
2.02403696843e-05
-1.42898089242e-05
0.0127302638892
1.36707019933e-05
1.10983608634e-05
0.0127360170991
-1.80310026125e-05
8.86804742242e-07
0.0120501355977
0.000117241561719
9.66583730276e-05
-1.7583918289e-05
0.0120615703626
-8.18828892324e-05
7.80610359294e-06
0.0120533943139
0.000114183092547
0.0127283832637
-1.78486255967e-05
0.0127190008849
3.04869744116e-05
-1.58234773814e-05
2.17422662104e-05
1.86259786224e-05
-0.0127148548959
0.0127046172091
-1.8417839566e-05
-2.90159344904e-05
-0.0120583350463
0.000115377382672
0.0120673811128
0.000102607496304
-3.68501751918e-05
-9.34302660252e-05
2.8148224663e-05
0.0127080552459
0.000113080183325
-1.70222719891e-05
-0.00053243621753
-0.0495687852718
0.049358943856
0.000611411157261
8.29043228895e-05
7.89404899864e-05
8.95320813419e-05
7.20053618262e-05
-0.000192590103916
-0.000604078933015
0.0498398316662
1.83815903454e-05
2.68297525254e-05
2.71721340469e-05
1.82087087884e-05
1.31257855028e-05
-0.0498985459497
0.000559034466914
-0.000962399569817
-0.0498818384224
0.0499655276508
0.000829645346051
-3.09004362349e-05
-2.46851455735e-05
-2.85260645982e-05
-2.92263325543e-05
0.000162404837351
-0.000715553792169
-4.68161267824e-05
-3.71048733675e-05
-4.19650428119e-05
-4.1190966988e-05
0.000236694855349
0.0501126887868
0.000632927889063
-0.0500996746498
-7.0512657821e-05
-0.00426782632527
-0.0112153590545
0.0163981424396
0.00764857098375
-0.00831150275116
-7.14015480139e-05
-6.20282473432e-05
-6.09043554595e-05
-7.0836280458e-05
-0.0206109011786
0.0210421521898
0.0121910565545
-0.00486179248239
-6.76127439024e-05
-5.36313711477e-05
-4.37799660258e-05
-0.00751704056852
-3.23431172772e-05
-0.00898261506406
0.0121219538635
-0.00175496454885
-2.36969613067e-05
-1.30970464456e-05
-7.15606505386e-06
-0.00861776201773
0.0073092588171
-1.56492268075e-05
-0.0108767848306
-0.0155262065686
0.0170530390433
0.00617133578167
0.00321345564815
-9.18979964043e-06
-6.7064124466e-06
-3.14548762098e-06
-1.34393857853e-05
-0.00176769605638
-1.08248420889e-05
-5.74312618973e-06
-2.56691038836e-06
0.0132324181865
-0.00280748644902
0.00380698876265
-0.0124318486277
0.0751810856533
-0.00952475564735
0.0138572728511
0.0152399316394
0.0132551212408
0.0139281364641
-0.0064827051874
-0.0438927774228
-0.0364221935489
0.00188444185058
-0.00734260148447
-0.000364518903391
-0.0089254267564
0.0208831504728
0.00179696671106
0.0729563257351
-0.019154152877
0.0110957847207
0.0112748226224
0.00820145576775
0.00604116868602
-0.0361716972982
-0.0389400497807
0.00441293798316
-0.00486800219145
-0.000164108787712
-0.00894572065071
0.102764710393
0.0546522794424
0.00421861166923
0.00255206012483
0.00229602260373
-0.0275667190531
-0.00813059788405
0.00199491725298
-0.00167130678351
-0.00686549498135
-0.000949851406456
-0.00542384936624
0.0668266280942
-0.0110269982196
0.000185933089388
6.61622425834e-05
7.22105008685e-05
7.69660044668e-05
5.83166590623e-05
0.049273178495
-6.73655034325e-05
-5.31012309519e-05
-0.0496124593641
0.0492338902851
0.000340981534634
6.6905122379e-05
8.64158105076e-05
7.93752027133e-05
6.36746792387e-05
-7.70652208767e-05
-0.0496083626517
5.63415876004e-05
-8.81643706982e-05
-0.0120850356893
6.72121439344e-06
0.0120973741336
1.2809611817e-05
0.0121169039937
6.29920359904e-05
6.22123660463e-05
-9.8976405825e-05
-4.3372529285e-05
-0.0120997146115
0.00010980161997
9.53299024612e-05
0.000101737133402
0.000110473909644
-0.000311821782156
0.0122853286006
0.0122121535685
0.0121780968265
0.0121614528844
-0.000241164653596
7.52037149532e-05
6.95965317546e-05
-0.000102142127556
-5.30622109235e-05
0.0121274036173
0.000411772432695
5.78111846484e-05
7.97659445914e-05
6.20611174926e-05
7.47557010595e-05
-0.000166556833234
-0.0497474580921
0.0497235633332
4.95753175269e-05
5.48341501316e-05
6.38484476114e-05
4.28959504906e-05
-0.000154218472383
-0.0498343763008
0.000465646057089
0.0121264143125
6.1772653827e-05
-9.50525391246e-05
-0.0121056307112
7.54191160317e-05
0.0121672025729
3.40225464021e-05
-6.12367035299e-05
-8.78669126124e-05
-0.0121453006971
9.3196180524e-05
0.000842820954606
8.28084324184e-05
0.000102569494902
9.2744227855e-05
9.0031146559e-05
0.049128235778
-0.000196438325392
-0.00015707466412
-0.000185327604501
-0.000150339658534
-8.95765424243e-05
-6.44850269838e-05
-7.56816625558e-05
-6.1344057749e-05
0.0495701223595
6.61952602326e-05
4.96856754987e-05
6.12690804964e-05
5.39061564645e-05
-7.03247096823e-05
0.0495913716392
0.000770996603151
5.08890447206e-05
3.63621543679e-05
4.94869906556e-05
3.96714631837e-05
-0.000125824530546
-9.949061758e-05
0.0121406176202
8.99457438572e-05
0.0121749244336
8.12772277527e-05
-0.000113012269881
-0.0121659273368
0.000153755697278
-0.000131040827708
0.000110823344599
3.61417836189e-05
-6.20538294691e-05
-0.000106225116211
0.0121884778779
0.0122419332397
0.000161517563015
2.49432868754e-05
-3.52820177483e-05
-0.000167065111375
-0.012226058152
0.049692019299
1.44046766993e-05
5.05521034143e-06
1.83162509063e-05
4.05967730631e-07
-0.00105814537797
-4.30308562474e-05
0.00118482375097
-1.72795918854e-05
-3.98658315159e-05
-3.21479919622e-05
-2.61641689737e-05
0.0502438321201
-9.68414533144e-05
-0.00152429383161
-9.21885542149e-05
0.0121758655918
0.000173043644664
-0.000152711438453
2.13347660301e-05
-3.46461121843e-05
-0.0121835526349
0.000242130188123
0.0122012785206
-0.000246455390147
0.000170342498287
2.39644991675e-05
-6.34847653406e-06
-0.00018191768975
0.0122358287478
0.000173177393936
-2.78835604859e-05
6.85825069561e-05
-0.000204483435257
-0.0122242004855
0.0122148167226
0.000691292247671
5.50912017302e-06
9.16701978209e-06
1.35199461005e-05
5.54105738612e-07
8.93735735216e-06
0.0500227815023
-4.38803878885e-06
-9.16387943282e-06
-8.24894207998e-06
-9.44076829862e-06
5.38328689807e-05
-0.0499810844378
0.000627015170403
-4.80132341808e-05
0.0122068294808
0.000105993290302
-0.0121863441082
0.0122524840698
1.7186447638e-05
-1.43083147093e-05
-0.0122419834655
0.000148118528547
0.0122659536603
1.27752277241e-05
4.09102984028e-06
-0.000120278704398
-0.0122658112469
0.000103324319082
0.000944097321091
-6.18035226273e-05
-7.13926154265e-05
-6.12095890635e-05
-6.99527933368e-05
0.0502205743798
0.00024997703209
0.0500760360504
-3.26127975108e-05
-2.91747780041e-05
-2.99193906047e-05
-3.27449749192e-05
0.000185196157236
-6.39895279779e-05
-7.9982276218e-05
-6.52573930268e-05
-7.79417393788e-05
0.0502346372123
0.000755835402514
0.00031671955297
1.02358997047e-05
0.0122442534436
0.000152691019478
-2.9479229018e-05
7.23042910805e-05
-0.0122202985252
0.000150473866704
0.0122001879337
0.000100265930993
1.91109794085e-05
1.13425953116e-05
-0.000119233104164
0.0122544973795
0.00010038226225
-8.09133878388e-06
6.4910807784e-05
-0.00011684592329
-0.0122135896388
0.0121733653706
1.72700443408e-05
0.0122539994427
7.94071633968e-05
-0.012263847271
7.9922933966e-05
-0.0122095276632
0.0121650108009
-2.4043493222e-05
8.90583881277e-05
-0.00078786173363
-4.22798646994e-05
-7.52616239186e-05
-6.22373141618e-05
0.0120789071262
0.00382952472922
-0.00677315159163
-0.00811210892744
0.0123488493316
0.0023001381442
-6.14736562571e-05
-5.22296425129e-05
-5.28613756415e-05
-0.00755621641994
-0.00765329454946
-0.00954073628246
-7.58367994942e-05
-7.74213510175e-05
-7.76290072818e-05
3.3537773117e-05
0.0178866404159
0.0129273610205
-0.00228272164182
0.0101336148135
0.00231820953486
-0.00926312051802
-0.000130409787035
0.0173362044762
0.0115170495159
-0.000552081475766
0.0139967792409
-0.00298258278313
-0.00963881023424
0.0186266316245
-0.0013484812094
0.0104913304129
0.0106161767907
0.000815859813209
0.0104621525224
-0.0026881427673
0.00195180964631
0.00251607504117
0.00359443128549
-0.00475151516154
0.01390929082
-0.0027650048723
0.00795553784747
-0.00122316995011
0.00700176719285
0.00117296172025
0.00527440783855
-6.07569270772e-05
-5.34993078576e-05
-4.52114095214e-05
-0.00716455327966
-0.00680497950964
0.00903995191682
-6.07466238944e-05
-3.11030512028e-05
-5.06773213264e-05
-0.00485160515244
-0.00572290549092
0.00698414438236
0.0106008741156
-0.00836618825227
-8.69555979031e-05
-6.50611076424e-05
-6.06842396128e-05
-0.00617854201336
0.013491277133
-0.00560090471019
-6.45347697777e-05
-3.19937659814e-05
-5.31203044105e-05
-0.0032738008242
0.0170882478228
0.0104361301698
-3.93234346713e-05
-3.96015497497e-05
-5.48195533925e-05
0.0124468878497
-0.00337631099879
-0.00929180215662
-0.00206467589203
0.0160487590789
0.0117093767266
-0.00339837037495
-0.00912377045849
0.0149560521646
-0.00253589114071
0.0110251271657
0.00257370394424
-4.4956241644e-05
1.35005729457e-06
-2.65976516346e-05
0.0153684702219
-0.00785065386967
0.0180608681292
0.000440698659822
-4.29159377509e-05
-5.81420062884e-06
-2.78285207262e-05
0.00583091323207
0.00884098766847
1.5582655941e-05
1.03905181147e-05
9.18953475648e-07
0.0143564406915
0.0156721774913
-0.00280288170146
-0.0017197119434
0.0138064277146
0.0155097161698
-0.00309686294445
-0.00351400570428
0.0141887448389
0.006836893006
0.000250242384148
-2.75232587958e-05
-1.18236036917e-06
-9.82998901067e-06
0.00133233917038
0.0152515371864
-1.10095792342e-05
-1.10550820487e-05
-1.32273442996e-05
-0.0122950931526
0.00259517787537
0.00982722578493
-0.00758969282325
-0.00320067747841
-0.00285064627805
0.0129511465701
0.0129684045293
-0.00937211232736
-0.00281750311442
0.00398023349796
0.00729155025249
1.26991986293e-05
2.26848523117e-05
5.31480130717e-06
0.0145504705431
0.0168652109693
0.00284272610124
-1.01063283787e-05
-1.35603827288e-05
-1.13727588313e-05
0.00699600218046
7.81972659664e-06
-7.61857798787e-06
-7.86713654688e-06
0.0143453513152
-0.000500297311721
0.0146221338129
-0.0032400712675
-0.00382271743341
0.0153691102026
0.0148497436602
-0.00324595196989
0.0158655378182
-0.00328949577929
0.0124533510144
8.32977712907e-05
-3.45563130242e-05
4.47160477474e-05
-0.0124806651666
4.29480862107e-05
-0.0124487050602
0.0124080256142
-1.82996465526e-05
4.18886001495e-06
-6.93099323953e-05
1.37924438714e-05
-0.0120760786695
-0.000100242092162
-0.0120906268182
2.1913339505e-05
0.0121002972887
5.93501580482e-05
0.0124135255447
1.73306073871e-05
-0.0120828535564
-1.61103580419e-05
-0.0124782681442
0.0124567468264
6.22918997335e-05
7.79289172695e-05
-0.0124854225029
-7.73416735945e-05
-0.0124647554403
0.0124377202223
9.17604961279e-05
-9.50391881183e-05
-0.0120942412729
0.012106107891
-7.53423703874e-05
-3.44580378339e-05
5.03967750667e-05
-0.0120926182946
0.0124229852737
7.66082779667e-05
-0.0124908133287
-0.0120864813355
-0.0123935267862
0.000107855366982
0.000118127173111
-8.43201642285e-05
0.0123616463975
-8.61023475098e-05
0.0124099266775
0.00010699779096
-0.000109450395298
0.0121180601532
-3.14988867796e-05
-0.000117193208991
-6.98432610899e-05
9.39079566077e-05
0.0121429887365
-6.44978986022e-05
0.000127249183445
0.0123836908472
-4.11481140378e-05
0.0121297563855
-8.29505449542e-05
0.0124944611429
6.59553809646e-05
9.0583439888e-05
-0.0125102460957
-0.0124796501974
9.81369436716e-05
0.0124579445874
-7.55510283139e-05
6.09200979886e-05
-0.0121014335177
-8.59051933437e-05
-0.0121198863536
8.78915679988e-05
0.0121398025835
-0.0124995354295
0.000104636281699
0.0124767734204
7.25808427022e-05
-0.0121109749757
0.0125101220369
9.13147206753e-05
6.05377661828e-05
-0.0125218374633
-0.000104751627809
-0.0125235765578
0.012509613306
0.000112284582631
-8.00758512459e-05
-0.0121322362568
0.012151446317
-4.62767096827e-05
-7.27164495162e-05
-0.0121348620598
7.7358539189e-05
0.0124937304403
-0.0125339855175
9.83033845632e-05
-0.0121226599541
-0.000133610547945
-0.0124503279411
9.68525947124e-05
0.0124286551479
0.000141306311218
0.0124310181448
0.000113302866239
-0.00010964380543
0.000110526973423
0.0121619869418
-9.09515989041e-05
0.0121547638067
0.000103833193047
0.0124044080912
0.000120749473778
0.0121776486444
0.000123475893569
-0.000154556872047
0.0124129290719
9.07439740636e-05
0.000162365126483
-0.0123811761594
0.000184106205472
0.0123642968469
-0.000177710280535
-0.000107080232786
0.000129722747748
-0.0001137314068
-9.14770552928e-05
-0.0121913815262
0.000169890596562
0.0122016326107
-0.000145787395607
0.000190998976436
0.0124045167927
0.000146184403092
-0.0124711249553
0.000140754486122
8.29562898101e-05
0.0124549120132
-0.000120194393444
0.0124910144931
0.000126380824533
-8.42929680015e-05
0.0121683920401
-6.28079690317e-05
-0.000126898998447
0.0122159876187
0.000130191958949
0.0124791639511
0.000143709171181
0.0121948106672
0.0124404016318
0.000160594502216
6.71357262612e-05
-0.000185642856402
-0.0124688411884
0.012470817347
0.000184757009022
-5.53884550611e-05
-0.0122059855428
0.0122245507905
-4.85232835846e-05
-0.000147102025209
0.000145748832648
0.0124398525345
0.000162109973084
-0.000245397990136
-0.0124007518286
6.26182453453e-05
0.012409283483
0.000251945426643
-7.77338181224e-05
0.0123603306831
0.000210685645055
-8.91437924272e-05
-0.000209801378033
-8.83589593218e-05
0.00019677013663
0.0121791298368
-0.00017923589813
-7.2142668853e-05
0.0122028332226
0.000190427225793
0.012374090884
-9.57414080428e-05
-0.000251880677154
0.00021688211689
-7.46870042684e-05
0.0122086288652
0.000209754053068
-0.000274491060526
2.87872368196e-05
0.0124502404362
0.000282758112556
-7.81804710727e-05
-0.0124246263729
0.000306327864717
0.0124968239936
-0.000312535008621
-0.000100726415838
-5.66394585718e-05
0.000219348356292
-0.000212326042461
-0.0122049460848
-7.8202868011e-06
0.000240246340023
0.01221524539
-0.000281197505726
-0.000100580115297
0.000224875609339
0.000311569303936
0.0125111940401
-7.42654805448e-05
-0.0124370574892
0.000238229722163
1.400726055e-05
0.0124510639635
-0.000207796199701
0.0124669177603
0.000210421132043
-3.01191371485e-05
0.0122202234475
1.1026708026e-05
-0.000194701101839
0.0122350369564
0.000178661715996
0.012480212636
0.000236345279605
0.0122211407266
0.00026460921724
-2.51616261574e-05
0.0124770082531
-0.0124972849672
-0.00028671721083
0.000278884545045
0.0125337313439
-0.0122202524709
5.18585990551e-05
0.0122193883809
4.74320931549e-05
-0.00020129097178
0.000174837335319
0.00026265613427
0.0125272800456
-0.000136963384174
-0.0125244658037
2.63624471847e-05
0.0125174971523
0.000135956641481
0.0125090982916
0.00012178359176
-0.0125256915407
-4.41906010211e-05
0.000124683245866
0.0122328700673
-3.21812848586e-05
0.0122236077399
-0.0122050846209
0.000106534610833
0.0124988670324
-0.0125389605951
0.000122309831639
0.0122461161883
0.000121491531666
-0.000155134427585
0.0125144940561
1.03151031549e-05
0.000153337730313
-0.0124924847819
0.000174674503375
0.0124974385719
-2.69350968284e-05
0.000135944331921
2.1328087083e-06
-0.0122519815796
0.000136760612286
0.0122599167092
0.000171846274309
0.0125201016698
0.000130429543396
0.0125332287099
0.000148437283064
3.14447298499e-06
-0.0125358292139
-0.000164170998023
-0.012547346415
0.0125491216051
0.000157296541637
4.10383403438e-06
-0.0122617248463
0.0122629987673
2.84339382166e-06
-0.000117574660607
-0.0122644620113
0.000102169902251