/*--------------------------------*- C++ -*----------------------------------*\
| =========                 |                                                 |
| \\      /  F ield         | OpenFOAM: The Open Source CFD Toolbox           |
|  \\    /   O peration     | Version:  v1906                                 |
|   \\  /    A nd           | Web:      www.OpenFOAM.com                      |
|    \\/     M anipulation  |                                                 |
\*---------------------------------------------------------------------------*/
FoamFile
{
    version     2.0;
    format      ascii;
    class       volScalarField;
    location    "1.45";
    object      alpha.water;
}
// * * * * * * * * * * * * * * * * * * * * * * * * * * * * * * * * * * * * * //

dimensions      [0 0 0 0 0 0 0];


internalField   nonuniform List<scalar> 
28582
(
1.00000122505
1.00000115965
1.00000163459
1.00000192679
1.00000087552
1.00000118467
1.00000080258
1.00000138741
0.0150375976285
0.0150942857336
1.72792157033e-09
1.00000235991
0.956739284773
0.956177383127
1.00000237734
1.00000065021
0.95273744378
0.999965008593
0.999970929052
1.00000108257
1.00000241548
1.00000338594
1.00000095678
1.00000296871
1.00000358862
1.0000005353
1.00000145941
0.999998651617
1.0000013075
0.0151273628877
3.43226840038e-07
1.37183424727e-07
0.999998846401
0.999999030745
0.967211669276
0.962487285522
0.999971829256
1.00000091086
0.999999957412
1.00000182339
0.999968582832
0.954031553131
0.999971433472
0.999980036282
0.0150776028837
0.0145282204377
1.4214548882e-08
4.86551246002e-08
0.0151809843473
3.11953524223e-09
0.99998762136
0.999974524443
0.948510438126
0.950471593474
0.999964003401
0.958872280316
0.999969183027
0.999967168671
0.999972029299
0.947684949109
0.948147044944
0.9999634281
0.955419863602
0.999959291908
0.999975178015
0.999975738077
0.947002324009
0.948044134781
0.999962718973
0.956665019783
0.999970691598
0.999974803438
0.955430592154
0.948632799919
0.999975540958
0.946806934739
0.95387357403
0.999954803923
0.999979678607
0.949930879354
0.959179872233
0.999967559554
0.951065287874
0.999966036735
0.95539856761
0.0141525838833
2.17709941377e-05
0.0129907444421
0.0136278441603
2.58101830811e-06
1.19316287382e-05
0.0146537279196
7.14950013552e-07
1.39353486027e-07
0.0150458788685
1.7498237548e-05
0.0152523045957
4.86476760689e-06
0.999980865104
0.999986258699
0.958330418931
0.958856129407
0.999972608042
0.999977198593
0.966428138944
0.999972733075
0.999969239475
0.954722850485
0.953642104989
0.999965627866
0.999965765633
0.963999550242
0.953282334866
0.960957677782
0.999982142618
0.999983021929
0.953228780301
0.999976605584
0.96306374728
0.999973748245
0.952906077824
0.948175946099
0.99998496467
0.947907818007
0.999963815034
0.956562244148
0.999974797504
0.999968485762
0.946981303553
0.94789658138
0.999953785192
0.999960151588
0.95450164363
0.999971861856
0.999978535484
0.949329882315
0.956715031945
0.950585643234
0.999977886942
0.957744753525
0.948751032027
0.955980468417
0.999975131727
0.999971385056
0.948516075112
0.999957533008
0.955630427355
1.00000155286
0.99999996932
0.0156909373807
3.06882630171e-07
1.00000030197
0.957185899261
1.0000006919
1.00000084814
0.951728027228
0.952921467132
0.950481097976
1.00000052677
1.00000037618
0.945760711328
0.949126479478
0.014824130459
0.0157046638038
0.0166585814183
9.10057668809e-06
3.24574489936e-05
2.23068819194e-05
0.0176027717706
0.0191238068765
0.999975152634
0.999982839913
0.950252370918
0.947919684799
0.999956574661
0.958208509444
0.999964628923
0.999966902166
0.999972372852
0.946659591517
0.946942773751
0.999966168579
0.999957342512
0.953209568681
0.999958807529
0.999973358018
0.946874634018
0.945001771182
0.999958939416
0.953175456447
0.999967948553
0.999959581285
0.999960634961
0.944252176889
0.945195941578
0.999951019777
0.949688292677
0.999960157139
0.999959665833
0.999961041146
0.945850042733
0.943015221124
0.999947622415
0.950220740074
0.999948275667
0.999956826913
0.999961896897
0.944464283082
0.946310924506
0.999956658931
0.94597280963
0.999951441201
0.999997939446
1.0000008604
1.00000100952
1.0000023695
0.00840190270804
0.00784955061579
0.00872294920342
0.00872891809108
0.0106003588758
0
4.37912594323e-11
-5.6747498078e-26
1.44969096065e-08
3.3736613975e-07
6.49470456338e-07
1.00000133007
1.00000003554
0.99170756409
0.990962015081
1.00000053237
0.991416659343
1.00000032563
1.00000041595
0.991446332271
0.989378618063
1.00000015836
0.999999621587
0.999999203536
0.991447878752
0.992505467213
0.988156664879
0.987380560206
0.999998217435
0.999997573295
0.990032033733
0.985209039739
0.982261532979
0.980039559623
1.0000005694
1.00000154546
0.989005344136
0.987419504553
0.984254052627
1.00000016281
1.00000176209
1.00000217156
0.981914924012
0.979225137776
0.97976523868
0.976763179362
0.980660929938
0.976553877095
0.00948156150685
0.00955112242868
0.00884884041033
1.19510019534e-06
5.78261043182e-08
7.92994697616e-08
2.33659217531e-09
1.51241099655e-10
2.03572153355e-10
7.55945675096e-10
2.13339317741e-09
0.00912119913409
0.00925083080289
0.00789498177964
0.00868074601034
0.00815017799149
2.57101688811e-07
4.38710803229e-08
3.52597336616e-06
1.11138226815e-06
0.0080641860074
0.00830216292093
0.00872270058294
6.48027459824e-08
9.18935373221e-08
1.27555275662e-06
2.45496970784e-06
0.00851649835619
0.00930009356411
1.9669404075e-06
5.87428555663e-06
1.82109906626e-05
0.00952948521362
0.00981246495906
0.0106098996626
9.05614737128e-06
1.50825349429e-05
2.60574257662e-05
2.62084770408e-05
1.00000014755
1.00000089152
0.991429481747
0.991641515109
1
0.991761570281
0.999999008492
0.999999678925
0.999996312496
0.991863225835
0.98970300505
1.00000052664
0.999999919472
0.991772923862
0.999999045574
1.00000014702
0.992313420523
0.992355936492
0.999996944825
0.999996456644
0.992460151027
0.999997134575
0.999995243685
0.989603881107
0.991447854209
0.999995622094
0.999996828666
0.991439369705
0.999998509977
0.999999190346
0.990586073462
0.989295914739
0.999996191631
0.999999354771
0.991168073544
0.999991179865
0.999992519134
0.992383151572
0.991633261657
0.999986567652
0.999996531007
0.990976285881
1.00000150726
0.999994857837
0.993556619676
0.990091115672
0.999989253116
0.999993300567
0.989128749478
0.999999899032
0.999999592207
0.990599338969
0.988532536404
0.999999786695
0.999999279281
0.98966375504
0.999995857727
0.999997603122
0.988025744711
0.989762063748
0.999997092592
0.999996932994
0.986889108062
0.999999455111
0.999999749821
0.992023105786
0.99070998107
1.00000189796
0.999996165348
0.987490005984
0.999999115746
0.999997249526
0.99227572257
0.981131750535
1.00000163569
0.980173248261
0.999986079319
0.999997246619
0.999997322269
0.98902261273
0.984268529779
0.999995925874
0.999997713357
0.985238664013
0.999996416673
0.999984222129
0.978633575913
0.985593336703
0.999993336405
0.977482180636
0.999987375344
0.999991985918
0.999995189571
0.988682173283
0.989930323402
0.999996055598
0.999991548844
0.989285061228
0.999993622404
0.999996493575
0.989559227518
0.985723178929
0.999995426063
0.999995180874
0.985821488646
0.999996912565
0.999996169916
0.984145494662
0.985034314042
0.999996161464
0.999998688626
0.98603060212
0.999993720241
0.999995831286
0.982976828185
0.986683161984
0.999993837921
0.999994009124
0.982536994368
0.999990407839
0.999991024113
0.983789298265
0.97298169084
0.999998419089
0.974045682561
0.999993946566
0.999996084182
0.999996084071
0.98404403101
0.977655220557
0.999997041707
0.999996176881
0.981430278084
0.99999433074
0.999993634261
0.971169459336
0.977560302478
0.999996047626
0.973769938432
0.999995019803
0.999996041673
0.999996447926
0.976083542005
0.979311905972
0.999991959742
0.999993985171
0.979239654433
0.99999432222
0.975588192766
0.999998629182
1.0000013189
1.0000016696
1.00000175903
1.0000038897
1.00000395715
1.00000380464
1.00000121097
1.00000158525
1.0000017425
1.00000371776
1.00000350017
1.00000291306
0.999944398109
0.999988181536
0.999998513908
1.00000081229
1.00000251388
1.0000037185
1.00000440802
1.00000471272
0.999992062774
0.999972731974
0.999998180462
1.0000000386
1.00000114006
1.00000179286
1.00000215418
1.00000201367
0.999999794876
0.999999608602
0.999999940104
1.00000059505
1.00000123486
1.00000167383
1.00000192149
1.00000176703
1.00000027238
1.00000041467
1.00000094277
1.00000143771
1.00000140337
1.00000161535
1.00000174973
1.00000156694
1.00000225504
1.00000233975
1.00000223281
1.0000016775
0.999934973265
0.999992967371
1.00000040605
1.00000188202
1.00000293998
1.00000380028
1.00000494625
1.00000490409
0.999944769447
0.999989140746
1.00000017613
1.00000096387
1.0000015775
1.00000199757
1.00000208348
1.00000168475
0.999999702731
0.999999765343
1.00000031026
1.00000099838
1.00000148849
1.0000018321
1.00000201737
1.00000168186
1.00000022507
1.00000041771
1.00000084195
1.00000115676
1.0000014436
1.00000175475
1.00000187694
1.00000157274
1.00000184454
1.00000172275
1.00000153597
1.0000009377
0.999937200456
0.999998393677
1.00000024998
1.00000080325
1.00000084734
1.00000182529
1.00000326839
1.00000341351
0.999981708168
0.999997577789
1.00000059533
1.00000047472
1.00000068579
1.00000082043
1.00000151348
1.00000170007
0.99999994655
1.00000010182
1.00000044196
1.0000007402
1.0000009183
1.00000110616
1.0000012308
1.00000105302
1.00000032149
1.00000013305
1.00000040677
1.00000067978
1.00000080699
1.0000010684
1.00000123827
1.00000132184
1.0000012219
1.00000090228
1.00000120681
1.00000127581
1.00000137674
1.00000114184
1.00000106059
1.00000088576
1.00000166974
1.00000126462
1.00000082337
0.999997878746
0.999999189048
1.00000036674
1.00000142487
0.999997098334
0.999999672359
1.00000068714
0.99999829791
0.999996843807
0.999998190361
1.00000146216
1.00000464458
1.00000097819
0.999999824517
0.999999596973
1.00000110969
1.00000237525
1.00000055476
1.00000097805
1.00000104826
1.00000121331
1.00000151911
1.00000107089
1.00000039881
1.00000046312
1.00000126594
1.00000169981
1.00000109297
1.0000012575
1.00000168014
1.00000203129
1.00000228673
1.00000236949
1.00000262773
1.00000283225
1.00000287355
0.99999996646
1.00000083811
1.00000209851
1.00000252829
1.00000274106
1.00000250133
1.00000207786
0.999999969358
0.99999912468
0.99999916771
0.0179925577883
0.017121027909
0.0182481823774
0.018763872799
0.0187620177748
0.0189362359536
0.0211548652048
0.0264080954833
0.00932629416508
0.014675557336
0.0175093127086
0.0174023331422
0.0180138713465
0.0186532213917
0.0182981748265
0.0180461019065
0.0203395667813
0.0261806294898
0.0110257340307
0.014164921082
0.0157854548636
0.015759909376
0.0165598646138
0.0171668389588
0.0173521327581
0.017967576871
0.0200933047932
0.0249952778877
0.0125226810011
0.0139714089939
0.014766372306
0.0156962963164
0.0163375399224
0.0167938184021
0.0178250985411
0.0202374129664
0.0247391301665
0.0142822484275
0.0151927258577
0.0159348006174
0.0162312387146
0.0172635676223
0.0198236964002
0.0248096469334
0.0171510507805
0.0202837510279
0.0256604488478
5.09296742348e-09
1.12089236378e-07
3.97840740425e-07
5.37290117987e-08
9.66024904357e-08
1.99296501416e-07
4.36013445151e-08
1.10086427802e-07
2.17593801163e-06
1.5225533533e-05
5.54558243429e-08
5.91264127125e-08
2.22968433355e-07
1.14088576825e-07
9.53935776874e-08
7.18538310141e-09
1.25547490174e-09
3.44118061057e-08
2.2604051859e-06
1.3581190127e-05
3.56254468734e-07
2.24058440768e-08
2.65652764586e-09
2.61707863615e-09
7.64293006447e-09
5.40101221484e-09
2.86654741491e-09
1.21274209016e-08
1.01657964727e-06
9.53241522534e-06
1.93883050808e-27
5.93278283524e-09
3.85503935092e-09
3.45634265642e-09
4.71150848881e-09
2.90139895091e-09
8.48705348443e-09
8.76306313896e-07
8.75892872479e-06
8.86739753449e-08
2.58493941423e-27
2.37205152666e-09
4.65117809551e-09
4.96228831725e-08
1.46331403179e-06
9.83825893507e-06
2.37190490172e-07
2.83086211297e-06
1.41326640805e-05
0.999962073854
0.999990675676
0.999984031788
0.999937476079
0.999956310942
0.999941696693
0.999956383147
0.999996516659
0.999973083056
0.999977795641
0.999980712879
0.999994782389
0.999982062081
0.99999393524
0.999976557725
0.999984160867
0.99998471282
0.999985141502
0.999972762081
0.999984151792
0.999984561049
0.999980058531
0.999989909465
0.999995864459
0.999972580476
0.999984874659
0.999990960253
0.999997257404
0.999971922795
0.999927416918
0.999973304742
0.999913794749
0.999973746042
0.999933203054
0.999977221633
0.99999819732
0.999990459697
0.999998272286
0.999994485935
0.999999353884
0.999995769153
0.999999962404
0.999966684651
0.999989335608
0.999989689647
0.999954790379
0.999982969374
0.999988678078
0.999991799027
0.999997512806
0.999992720193
0.999998359255
0.999994815546
0.999999763616
0.999996697713
0.999999821535
0.999984883511
0.999964982275
0.999984746991
0.999979938757
0.999990698205
0.999988688775
0.999990965401
1
0.999997296162
1
0.999998084395
1
0.999997565313
1.00000033862
0.999990295916
0.999994240267
0.999996218496
0.999992498806
0.999993369767
0.999996962794
0.9999994611
1
0.999998438395
1.00000016545
0.999996975765
1.00000000226
1.0000002422
1.00000109665
0.999996053534
0.999985988127
0.941952337398
0.946092599294
0.999998954364
0.99999187125
0.99999630855
0.935369877379
0.943160761331
0.939000371084
0.943568096409
1.00000132804
0.999997864891
0.999998711799
0.941488936086
0.945301164731
0.940636043963
0.944626911943
0.999995839326
0.999997314922
1.00000347387
0.940578642132
0.945306187656
0.939301489952
0.942782259652
0.999997467398
0.999999225317
0.999996383159
0.940923786913
0.943500055695
0.937494749076
0.9428840188
1.0000003949
0.99999754053
0.999995810404
0.938977958074
0.942386899265
0.939023874375
0.94472204102
1.00000381743
0.999997472733
0.999995968437
0.938044533663
0.942958808889
0.941476112339
0.945989006167
1.000000162
1.00000098203
0.99999922211
0.940184265617
0.945439162851
0.943190525856
0.945845285878
0.999999195946
0.999997465548
0.99999760397
0.943361374223
0.916378548475
0.942984137092
0.915248544986
0.999999987701
0.99999752474
0.96918969461
0.964821832449
0.966339242884
0.966597096672
0.999996838686
0.999996513716
0.999999366896
0.944324854377
0.947423776962
0.950352196246
0.952829843397
1.00000071045
1.00000162949
1.00000017092
0.940522491837
0.944595845641
0.947378475854
0.951084338726
1.00000302503
1.0000002654
0.999998912576
0.941738294952
0.944883655976
0.948777201336
0.950528699733
1.00000272919
0.999999497031
0.999997972178
0.940134695997
0.943021671002
0.947088791725
0.948155613261
1.0000023423
1.00000006699
0.999997804658
0.938045757194
0.94284567746
0.944351817406
0.946238728207
1.00000170175
0.999999542352
0.999996799325
0.939037840638
0.944909728833
0.94301333598
0.945959085668
1.00000312177
0.999999016204
0.999997638052
0.942025590964
0.946649187174
0.943248145275
0.947350404447
1.00000337046
0.999999877153
0.999998869634
0.944038614263
0.946380957813
0.945578697088
0.948806716973
1.00000236662
0.999999430427
0.999997985853
0.943608978451
0.916156676467
0.946375961631
0.919028346418
1.00000227797
1.000002418
1.00000199538
0.965829918977
0.967298911764
0.967862928592
0.970498469812
1.00000317089
1.00000420697
1.00000127689
0.953148445056
0.954250472915
0.961649962664
0.960362473433
1.000002863
1.00000298192
1.00000018855
0.949582498023
0.952302074028
0.956986886677
0.956342511168
1.00000337326
1.00000189451
1.00000022745
0.949968465681
0.951241373541
0.954139860987
0.954349885096
1.00000330988
1.00000239693
1.00000032171
0.948303157955
0.948571924177
0.951402042498
0.950997711753
1.00000240866
1.00000242592
0.999999893168
0.945247699154
0.946478600634
0.948278817491
0.948267919032
1.00000205905
1.0000017202
0.999999569773
0.943526572789
0.945987673334
0.945553138767
0.946718082758
1.00000271539
1.00000178887
1.00000018836
0.943376534258
0.947245745197
0.944051429902
0.947298300923
1.00000329811
1.00000177091
1.0000004486
0.945509108905
0.948963109782
0.945313661966
0.948386236018
1.00000170484
1.0000019757
1.00000120141
0.946599561093
0.920766788666
0.946205248393
0.924998393355
0.969769620514
0.972687269193
1.00000268315
0.999999442548
0.965553121557
0.962545639974
0.968939905489
1.00000306769
1.0000005964
0.9999994679
0.959360235912
0.957686031103
0.966282248846
0.96225286146
1.00000340157
1.00000113398
0.999999781806
0.955679450658
0.954918424997
0.960013680334
0.957000145461
1.00000386624
1.00000249769
1.0000004464
0.952018978166
0.951184462133
0.954075503191
0.952224346256
1.00000417738
1.00000331418
1.00000123742
0.948746509028
0.94839551324
0.949926914424
0.949957346333
1.00000443161
1.00000355458
1.00000137292
0.945900063853
0.946871714246
0.947829364375
0.94876888052
1.00000449372
1.00000334335
1.00000159894
0.944253786746
0.947403786371
0.946125577935
0.948972175188
1.00000419464
1.00000257678
1.0000012015
0.945387308204
0.948515033631
0.946912493286
0.949656248185
1.00000267777
1.00000207083
1.00000128512
0.946226746287
0.925725489994
0.94726964325
0.925730840344
1.0000021854
1.00000083869
0.960095186789
0.957024999184
0.955635262093
1.00000387932
1.00000218184
1.00000103073
0.954121160772
0.952420926221
0.952310708022
0.954424561969
1.00000449826
1.00000072996
0.999998860861
0.949988407853
0.950335443344
0.951831095894
0.953039909859
1.000004608
1.00000030974
0.999999366421
0.948344729203
0.949517292669
0.950731447442
0.951810069549
1.0000041488
1.00000144645
0.999999914932
0.946893480216
0.949708869975
0.948693927522
0.951134407292
1.00000339788
1.00000120238
0.999999657331
0.947750391005
0.950402794956
0.948772898217
0.950668625613
1.00000158054
1.0000003566
0.999999678343
0.947990612128
0.925468577195
0.948024127442
0.92174961622
1.00000177339
0.952172270553
1.00000103156
0.949005789431
0.951253317612
1.0000001931
0.948660452431
0.950297983523
0.999999493338
0.947670450925
0.921331250361
2.08991136223e-07
2.56339714551e-06
1.19316263699e-07
2.68470933753e-07
0.0173348118386
0.0170510530685
1.74698365153e-06
7.8618483834e-06
1.95588624e-06
6.64678709637e-06
0.0176922914291
0.0179687735959
0.0178958186005
9.16115828009e-06
2.54710028086e-06
2.2558432144e-05
2.17974729745e-05
0.017533572387
0.0176879270473
0.0177793620754
7.03843598196e-08
2.75105060279e-07
7.61361041348e-06
5.5491467253e-06
0.0187037046295
0.0184601018631
0.0189664030939
8.7041495531e-07
8.91681470539e-06
9.16377507158e-06
6.09620153941e-06
0.0187908212795
0.0190690421488
0.0189611143087
1.79865447164e-05
1.96351058949e-05
7.95116768199e-06
2.31080109365e-06
0.0187895807938
0.0185656624126
0.0183160748039
1.5125352491e-05
1.38654225151e-05
3.75541255022e-06
3.48352635135e-06
0.0196567171666
0.0184270684044
0.0191154348379
7.71789012428e-06
1.56932037886e-05
9.03364630449e-06
1.84575427798e-05
0.0234995148184
0.0207716042974
0.0234376472019
3.31902503679e-05
9.26127138065e-05
5.24352905947e-05
0.000117168684259
0.0302095282799
0.0265944149107
0.0300468664365
0.00018181844024
0.000323158474653
0.000195689112887
0.000321381637951
0.0119815499395
0.0102149247215
0.0125042162593
5.6645241965e-07
9.50576774017e-07
9.72590374704e-06
7.41174312099e-06
0.0166863885213
0.0148163731975
0.0161978274883
1.62987054626e-06
5.39364958253e-06
3.68169777274e-06
4.19188177864e-07
0.0176337663743
0.0166602850868
0.0166970576577
1.23683068692e-05
2.23153071763e-05
2.67879865796e-06
6.21687895871e-07
0.0176480366011
0.0165601143933
0.0166735758983
1.40804154689e-05
1.0367480919e-05
6.98631040045e-06
3.30631880572e-06
0.0186555984367
0.0172213877576
0.0175737245146
9.4081647824e-06
1.01146275567e-05
9.86988428881e-06
4.3902340997e-06
0.0186170342432
0.0178489141089
0.0177910246931
1.88623977711e-06
2.75486051958e-06
6.95801562127e-06
1.23657982771e-07
0.0179945678757
0.0177567897301
0.0176747121245
4.52230756156e-08
1.74349811865e-06
9.95328787304e-07
2.46452878524e-08
0.0186847762179
0.0179554896393
0.0186180312853
1.64473081772e-06
1.91781920641e-05
1.62134143993e-06
8.26479833808e-06
0.0229496346533
0.0199915137888
0.0223838649598
5.15546382056e-05
0.000115616765101
3.96681713745e-05
9.47737349077e-05
0.0295460748972
0.025465962948
0.028928973074
0.000188920501115
0.000304793149406
0.000168931056299
0.000285714844438
0.0127368853764
0.0115519390844
0.0125255712535
1.78535932065e-05
1.49518670156e-05
2.15872855134e-05
9.55051779242e-06
0.0154623322779
0.0137413841868
0.0144894202855
1.97922135144e-06
4.39593025853e-07
3.72392592798e-06
3.88299596436e-07
0.0157073487177
0.0149137512875
0.0150906501336
3.55486184496e-08
1.43357439682e-07
4.91017685108e-07
3.79440240083e-08
0.0161864379066
0.0153840578447
0.0156877737328
1.5118974212e-08
1.44795149277e-06
2.94290112011e-07
2.99480975771e-08
0.01698847924
0.0162135215835
0.0165215553272
7.75599947764e-07
6.89974239144e-06
5.55558861861e-07
4.41605758836e-08
0.0173038594951
0.0168013420783
0.0168393909412
2.05548220103e-06
3.3840684801e-06
3.52776709806e-06
7.02030873887e-08
0.0175993098313
0.0170896160152
0.0173732582937
5.89324301013e-08
1.77952256519e-06
1.05946211883e-06
5.34063711012e-08
0.0187130857529
0.0179399489456
0.0187550979064
1.18843945597e-06
1.01594656169e-05
3.32150763445e-06
6.97467183288e-06
0.0221401182545
0.0201783253814
0.0222125551807
2.46084295709e-05
7.99466460473e-05
2.85278844754e-05
6.77114625148e-05
0.0283470795915
0.0247891638913
0.0277986022054
0.000143983974332
0.000260001282678
0.000133734221638
0.000243617587849
0.0132811207655
0.0125488950375
7.23996209218e-08
4.54578118717e-07
5.41742474533e-09
0.0143809408658
0.013237517111
0.0138420110402
3.4545457128e-08
3.207483246e-07
4.53960765732e-09
2.7130096456e-06
0.0151823635793
0.0143484848443
0.0148572050154
2.61112214521e-08
3.77028298123e-07
4.74938602581e-06
9.08108263294e-07
0.0161282794498
0.015350576716
0.0157914962317
2.99595957497e-08
1.15923341532e-06
3.93231260774e-07
3.21970400941e-08
0.0165086525142
0.0160699520913
0.0161485302862
9.78498169536e-07
2.83002974239e-06
1.23773133445e-06
3.14859998098e-07
0.0171701234475
0.0164566380376
0.0168739039921
1.10637145035e-07
1.07189279415e-06
9.31981384723e-07
1.88220882773e-08
0.0187372381497
0.017489681681
0.0185075125898
3.89128928452e-07
9.29636480547e-06
9.01898902566e-07
4.03108708164e-06
0.0222185651052
0.0199749959152
0.0220804612351
2.09875446528e-05
7.01033074559e-05
2.6908377992e-05
6.60336620598e-05
0.0276053658975
0.0246467050955
0.0276524952808
0.000128494890706
0.000238073396768
0.000130554470919
0.000238084253907
0.0147221898982
0.0152475667499
7.12466405969e-06
1.92292222261e-06
1.68553564428e-05
5.69414545441e-07
0.0156308773899
0.0153294539985
0.0155304604958
3.2385440342e-08
4.20388584958e-07
9.13642131902e-09
5.81753270076e-08
0.0160216413793
0.0155910409503
0.01565353866
5.47615994328e-08
3.65362601203e-07
3.38749954633e-07
2.59130475108e-08
0.0165658810366
0.0158598062618
0.0162213136458
2.4344502292e-08
7.95678033245e-07
9.19839834138e-08
4.11498460753e-07
0.0182362694963
0.0169654580556
0.0181501662526
8.43028588794e-07
1.18063225348e-05
7.89517761355e-06
1.86923642891e-05
0.0220360767392
0.0198084311343
0.0222011669082
2.55002029782e-05
7.84377398729e-05
4.82786760814e-05
9.3481405956e-05
0.0279535355561
0.0251106636292
0.0283405984188
0.000134950239036
0.000247113474756
0.000152128949204
0.000259719074688
0.0162604866191
1.49508387751e-05
0.018495281209
1.09315224339e-05
3.20998121448e-05
1.37838544206e-05
2.2917515841e-05
0.0228440585092
5.64826614964e-05
0.000115234880129
5.72285504093e-05
0.000119623694436
0.0287215040137
0.000172736365572
0.000284049333012
0.000188828380064
0.000305315542829
0.999923853447
0.999921751542
0.937580667667
0.932483116204
0.999846190718
0.936359600127
0.999900571875
0.999916940729
0.999919704043
0.933306015355
0.938336346936
0.999879262805
0.999919636918
0.937971755045
0.999840437231
0.999908758732
0.933609360674
0.93713960229
0.99982902573
0.941848805125
0.999890715054
0.999838774781
0.99993389803
0.937913373537
0.937573417497
0.999845924508
0.938145855326
0.999905009993
0.999872781575
0.999932889241
0.937111694032
0.934382764572
0.999867601801
0.999915406372
0.942411660185
0.99987543585
0.999929044299
0.93638171095
0.937093897442
0.999876727722
0.999914548496
0.938209032657
0.999920632504
0.999945631589
0.941386446838
0.941482760653
0.999884170466
0.944253519608
0.999947031935
0.999924481793
0.999952661312
0.944453308295
0.939506438735
0.999929084583
0.940897952225
0.99995309439
0.999926716825
0.999941342699
0.939836652413
0.939090127452
0.999897488602
0.999930901151
0.94404442068
0.999934076818
0.999943251298
0.939308094475
0.941978027565
0.999937564095
0.999932092213
0.940978672414
0.999960026413
0.999954388101
0.938171001978
0.942392376364
0.999949489877
0.944845492698
0.999954340257
0.999945902959
0.999936301118
0.940346867607
0.935675819072
0.999905848009
0.939436655761
0.9999725498
0.999949997436
0.999953513316
0.941910134756
0.93659265158
0.999953644429
0.999918576913
0.943841297286
0.99997134482
0.999947989579
0.935201248484
0.939239224238
0.99999426921
0.999946508629
0.938205644739
0.999936395554
0.999978598338
0.936376923433
0.937437340707
0.999932701509
0.943432849538
0.999945565706
0.999927374444
0.999946383858
0.937419707809
0.934303813624
0.999920978986
0.938624127548
0.999938501815
0.999944646464
0.999946381603
0.937313444829
0.934244225129
0.999963432198
0.999934055163
0.942599585048
0.999924592539
0.999955382737
0.934282387217
0.936515503249
0.999923703031
0.999941323781
0.937840837168
0.999942279591
0.999953186614
0.934696588394
0.936071686573
0.999924324413
0.942687068274
0.999946438184
0.999934426424
0.999939498578
0.936557020463
0.935326047299
0.999925853859
0.938715267822
0.999938626298
0.999938258529
0.999952108038
0.936243817916
0.935832665917
0.999928908941
0.999938272872
0.943160400604
0.999928783053
0.99994961041
0.935994576748
0.937881839275
0.999922953056
0.999939530471
0.939327621538
0.999942939642
0.999941797395
0.936014917118
0.937873304578
0.999937589978
0.943755649358
0.999919860471
0.99995996146
0.999934063006
0.939612361736
0.93883281155
0.999984156743
0.94010094895
0.999923819218
0.999948463497
0.999948787301
0.938254557517
0.939180141255
0.999931861582
0.999947944546
0.944514654936
0.999940043891
0.999950084569
0.939732309648
0.941855264631
0.999926882335
0.999962045737
0.941215385102
0.999960486289
0.999942851174
0.940563804014
0.942686477906
0.999972480751
0.944698005824
0.999945163562
0.999950770173
0.999956026512
0.944137833748
0.941316069587
0.999938145062
0.94232504597
0.999953472683
0.999946063032
0.999976624989
0.9427374013
0.942384353023
0.999949305926
0.999981411151
0.94548933792
0.999942497932
0.999960345473
0.94063646322
0.943532141977
0.999928365771
0.999971908336
0.94280066973
0.999898449957
0.999944624451
0.937550088543
0.940950022899
0.999922289438
0.940797082036
0.999898496204
0.999800737799
0.999845464962
0.929349832494
0.909775090372
0.932777967569
0.999811386505
0.999819051807
0.999893595607
0.999947908901
0.93955362244
0.935046316794
0.99991486451
0.999898494854
0.939569986501
0.999809746718
0.999835641065
0.909161468063
0.926933307069
0.999802086458
0.932010120446
0.999823026553
0.999978601847
0.999993769919
0.963764963115
0.980342391547
0.999985648115
0.976026070611
0.999980371098
0.999971730785
0.999975695071
0.963536601464
0.945334599627
0.999985667777
0.999969209611
0.955160382465
0.999975549749
0.999981251675
0.978759907846
0.962210722901
0.999977284352
0.975542488895
0.999977377871
0.999967658139
0.99997671112
0.946223735963
0.963078108779
0.999956685367
0.999982846939
0.956059497385
0.999942367339
0.999956455447
0.934332674011
0.948546095018
0.999927899455
0.999933014693
0.955506526839
0.999943488857
0.999914642677
0.939019867869
0.934919364593
0.999902980722
0.999934646586
0.942638391175
0.999923617144
0.999970835147
0.948749486122
0.938897215146
0.999930469729
0.99995637287
0.95654868656
0.999934800673
0.999974502217
0.936597390883
0.941173530809
0.999917547886
0.999952697708
0.945029626178
0.999921792035
0.99991897339
0.935463222527
0.937305262024
0.999907001578
0.999902950595
0.947159629804
0.999922462953
0.999912799471
0.937702592638
0.939274818004
0.999902010428
0.999914064754
0.943831397877
0.999934142188
0.999974181351
0.938633945299
0.94136988474
0.999916360871
0.999962446636
0.949067254365
0.999932673471
0.999964477148
0.940918292593
0.942463635619
0.999924674574
0.999957485246
0.94586793855
0.999942655291
0.999914441518
0.939050704329
0.940864742286
0.99990511733
0.999916846818
0.947111996262
0.99994491372
0.999928437863
0.941343078514
0.939840565449
0.99991082441
0.999940680262
0.943789894665
0.999940484805
0.999966446949
0.941872420629
0.944031704848
0.999929260912
0.999960445943
0.948749334435
0.999937106669
0.999964658118
0.940835268512
0.944580894535
0.999929514963
0.999960669464
0.945858094394
0.999954079637
0.999934050249
0.936943276392
0.941398295623
0.999949822371
0.999939012515
0.946041575996
0.999944930199
0.999950026144
0.938995023325
0.936293173971
0.999944054968
0.999933880937
0.94099838851
0.999944910947
0.999964196452
0.941655907754
0.941358994277
0.999936746167
0.999955446953
0.947439491251
0.999936043342
0.999959339311
0.937833667846
0.94166724585
0.999926954007
0.999954678016
0.943339647254
0.999953152016
0.999943540971
0.934812157457
0.937959343327
0.999930883064
0.999935518407
0.94411185856
0.999940685516
0.999931585675
0.936635694229
0.935397617626
0.999927321804
0.999926275554
0.939777985871
0.999940149419
0.999956892417
0.938487765918
0.938424649459
0.999927776577
0.999947216516
0.945283425594
0.999931763585
0.999952278523
0.936613254504
0.938713376645
0.99992503929
0.99994557069
0.941472788481
0.99994373444
0.999926675602
0.936062394723
0.936963218676
0.999911480776
0.999926156672
0.944778584865
0.999935600935
0.999920459978
0.937985322571
0.938677378162
0.999906590863
0.999928338892
0.941843147715
0.999936230901
0.99995034411
0.937459085631
0.938376829701
0.999924321536
0.999943820174
0.94520948185
0.999928649078
0.999949563773
0.939073350992
0.939424732048
0.999930081307
0.999945087586
0.942386973896
0.999949041602
0.99992718067
0.940088742102
0.940737099774
0.999925062527
0.999934537678
0.946558035074
0.999944587728
0.999939859475
0.942624989683
0.943053946872
0.999924637668