/*--------------------------------*- C++ -*----------------------------------*\
| =========                 |                                                 |
| \\      /  F ield         | OpenFOAM: The Open Source CFD Toolbox           |
|  \\    /   O peration     | Version:  v1906                                 |
|   \\  /    A nd           | Web:      www.OpenFOAM.com                      |
|    \\/     M anipulation  |                                                 |
\*---------------------------------------------------------------------------*/
FoamFile
{
    version     2.0;
    format      ascii;
    class       surfaceScalarField;
    location    "1.45";
    object      alphaPhi0.water;
}
// * * * * * * * * * * * * * * * * * * * * * * * * * * * * * * * * * * * * * //

dimensions      [0 3 -1 0 0 0 0];
oriented        oriented;


internalField   nonuniform List<scalar> 
92311
(
0.201054059932
-9.76378457345e-05
0.000642650802812
-0.201176979922
-0.000422179008341
-6.8457708491e-05
0.200943693139
0.000635867755983
-0.000457063721918
0.201071843143
-0.000237369916518
0.00068788405206
-0.201191228326
-0.000428744610034
-0.000141576065886
0.200955047605
0.000665993664562
-0.00047613978141
0.201152994743
-0.000143126001066
-0.000130847344706
0.00074348561323
-0.201235494104
-0.000488133606266
-7.19250509645e-05
-6.43522705921e-05
-8.7383423575e-05
-6.52548081885e-05
-1.40014975634e-05
0.201009641648
0.000737477015051
-0.000544300563856
-2.50324192757e-05
0.0503405802157
-2.39503157493e-05
-5.89005422215e-05
-5.73507712681e-05
-3.01702490399e-05
0.000154836596772
-0.0503283673966
-0.000139918363827
-0.0503263264866
0.0503005799773
-2.92729896843e-05
5.52225975833e-06
-3.64454703171e-05
-7.06787773488e-06
0.000185467341943
-0.000179963137824
-0.000187768239422
0.000581992176998
2.298752049e-06
9.00869574961e-06
6.59510870223e-07
-6.12541049007e-05
-0.000594872483932
1.05971646255e-07
7.26748063916e-05
0.000663441831293
6.95267717372e-05
-5.70872412761e-10
-0.000620183155357
-2.41893482203e-06
5.39746299257e-07
7.04531373223e-06
-0.000191585265649
-5.30581514332e-05
-4.19850212949e-10
8.94375326208e-11
1.99405802781e-11
2.41722558818e-11
1.34213550904e-31
-1.86128268294e-10
-2.81815534826e-11
3.78665391797e-11
-1.19000426014e-05
-4.59760462681e-05
-1.91622621909e-05
-4.9609679209e-05
0.000172475074087
-0.000162684795557
-1.73935643548e-05
0.0118741029764
-7.23200479609e-05
-5.93007392627e-06
-0.0120877888303
0.0120183619124
-1.79118780532e-07
3.6380876928e-05
-0.011950382421
-1.7470599129e-05
4.56701618822e-06
-0.000187705696251
1.7841905683e-06
0.0502662378914
-2.1378626684e-05
1.18724315383e-05
-2.8872916482e-05
0.000193179809286
8.16246033502e-06
0.0502625527638
-7.70220704771e-06
1.8373409664e-05
-1.70000602842e-05
-0.0502972827454
-0.000169044574586
0.000203716834562
-4.76573816799e-05
0.011828373101
-7.84416726674e-05
4.42317103328e-06
-5.45040256856e-05
0.0125611700108
4.88032132433e-05
1.01219835512e-05
-0.012563944998
0.0125590681297
-5.44925868656e-05
1.09465087992e-05
-0.0125620303998
-0.000154717634272
0.201339059632
0.000899975459871
-0.000492882047641
-0.201591506989
0.200857674545
-4.88568349492e-05
0.000576726784465
-0.000441750201101
-5.32412369777e-05
0.200806888789
0.000511598969897
-0.00040763334214
-0.000195462649546
0.201406103249
0.00077046475261
-0.000527067477208
-0.201608662826
0.200862909222
-9.7107385109e-05
0.000602019435494
-0.000461719359478
-9.57262033309e-05
0.200790823887
0.000534067129465
-0.00041975312682
-0.000167678571955
-0.0001876413467
-2.36927044882e-05
0.000991143793947
0.201432493164
-0.000578459576319
-0.201656332603
-5.26510913585e-06
-5.36250380631e-05
-5.54861343062e-05
-8.85044381579e-06
-2.96715946889e-05
0.200894085569
0.000685724456441
-0.000520108363232
0.0504246956611
-6.34174452219e-05
-3.04928480071e-05
-3.47358429471e-05
-5.78664139887e-05
0.000203454113149
-0.050468493941
-0.000140946865761
0.0502407743183
-0.000190709174223
-2.38238866206e-05
1.40472720914e-05
-1.99282342184e-05
3.16532973546e-06
0.000188939899688
7.22515681378e-05
-8.67355311038e-10
0.000693026890269
-0.000190483659068
6.5810461209e-06
1.60635799e-07
4.11561905596e-07
-5.58560352904e-05
-4.53546675721e-08
-1.22428216652e-09
-1.48692145365e-08
2.03642812584e-09
2.49425783411e-10
-6.53930744058e-10
2.02656419502e-09
-2.60329640794e-08
3.90251189779e-09
1.3075941855e-09
-1.99596553973e-08
1.4171445607e-09
-3.26712608655e-09
1.71240955223e-10
-4.86534155197e-09
-0.000194614424171
-4.31270509555e-05
-7.21989523947e-05
-6.55792631351e-05
-4.2064248727e-05
0.0503857960737
0.000268724146519
-3.38943196353e-05
-3.66681930168e-05
-2.93963273943e-06
-1.44823540804e-05
0.0503685601296
-0.000125254016589
-0.0503737251832
0.000173831926963
-1.51985763801e-05
0.0120124422784
-6.6272742193e-05
-3.93983692356e-06
-0.0121957217258
-1.17983608553e-06
6.81179532977e-05
-0.0120457615504
-1.33120608358e-05
6.20619868358e-06
0.0121138456934
-7.71938606238e-05
0.0126020988243
4.47221335371e-05
-1.93340794108e-05
-0.0125842003883
-0.000187651420179
8.66124757592e-06
-1.72157060916e-05
-2.14888081214e-05
-2.15648394255e-06
0.0502167850595
0.000188165793644
0.0502440567998
-1.92840840034e-05
3.992883872e-06
1.85046228265e-05
-1.61470138329e-05
-0.00016830672355
-2.56113595646e-05
-2.77821222487e-05
9.07733856639e-06
-2.05034798504e-06
0.0502307131881
-0.000158056079032
-5.68201135675e-05
7.10882174654e-05
-4.52521002848e-05
0.0125684455471
-2.82517608463e-07
1.4011941318e-05
-0.0119022526367
-1.69013039998e-05
0.0119762142115
1.37442895408e-05
-3.81009601119e-05
-4.56852936386e-05
0.0125667631351
-0.0125554409472
-6.01142588928e-05
0.0125693487014
6.44382857229e-05
-4.40296152133e-05
0.00059057102769
8.65210043034e-06
1.79825067268e-06
-0.000183418132499
-6.08367100848e-05
7.78319966335e-05
-3.07298003537e-09
-1.39730882659e-10
9.70343077351e-07
1.05424743285e-07
6.75070451406e-06
-0.000186351735074
0.00064903252281
7.6940348135e-05
-0.000600280007014
-1.01441268559e-10
1.46673556579e-10
-1.49645477709e-11
3.26241513175e-11
-7.69490289803e-12
2.34586638843e-10
-6.17043179155e-11
-2.37952462159e-11
4.48447885321e-07
7.43806298951e-06
1.17689142969e-07
-5.74346919897e-05
7.86820991102e-05
-1.17502486307e-12
-2.70243184654e-11
1.14079802654e-12
-5.53739475842e-05
0.01257973135
2.86629927569e-05
-0.0125943907093
-0.0125969767469
-5.31493338054e-05
4.32636075431e-05
0.0125959264788
-4.77622039513e-05
-4.6217415096e-06
1.95076303294e-05
0.0118668614241
-2.95405009965e-06
8.9947284055e-05
0.0119891939065
-0.0119107467779
-1.35118023155e-05
-0.0125740689209
-4.53958478422e-05
0.0120600989201
-1.40343627952e-05
0.0125795490099
3.25205580169e-05
0.0125785551029
2.66474684425e-05
2.9491664751e-05
-5.06209052754e-05
-4.19516161306e-05
-0.0125977380843
0.012593452672
3.69066424276e-05
5.60775467993e-05
7.51374239728e-05
2.65907169161e-06
7.58387423316e-06
-0.0118618131171
0.0118573596693
-1.79780909203e-05
0.012576069422
-5.1018920394e-05
-1.47782259143e-05
3.7142433564e-05
-0.0125883266394
-2.63115222172e-05
5.28828411599e-05
0.0125855287064
-5.29059478186e-05
-6.41412467949e-05
0.0125737688124
4.16502634973e-05
-1.39038797401e-05
-7.44465376196e-06
0.0118302249201
3.37760569058e-06
6.04468958492e-05
0.0119502973702
-2.00401138889e-05
-5.21493134712e-05
0.0120132256874
-1.96993516259e-05
0.0125691967556
4.26909310608e-05
-1.99841320867e-05
-0.0125796232188
0.0125785729182
4.85517762207e-05
-1.35549760808e-05
-0.0119184784229
0.0119892212755
2.66198324651e-06
-0.0118452186018
-1.74582088216e-05
0.0118463675397
5.0550556343e-05
3.668999965e-05
-5.38960640744e-05
4.82851096043e-05
4.96809480935e-05
3.07624857727e-06
-1.79588925202e-05
4.7147682887e-05
-1.4694048386e-05
-0.0125760419397
0.0125741604565
-4.55981844155e-05
-1.19364402705e-05
-0.0118640988394
0.0118637020271
-0.0119791268939
0.0120362264834
-5.93584765561e-06
-6.66211872364e-05
5.33266099082e-05
-0.0125842034522
4.47982637081e-05
7.44579373986e-05
-0.0118887868659
-6.74299859095e-06
-0.0125687891198
-4.59665737488e-05
-0.0120321617131
4.33921379286e-07
-6.70936021533e-05
8.67585169442e-06
8.82930951449e-07
3.53341678528e-06
-0.000145826280531
0.000574709182482
-0.000576214786445
5.28721579407e-05
-1.68788203193e-08
1.36590639115e-07
3.65591280046e-08
-2.07483917586e-07
0.000564052628253
2.25051595311e-07
2.80558070595e-06
8.10641027845e-06
1.21069929537e-06
-8.58870380412e-05
5.68757106558e-05
-0.000527152066591
4.74335108676e-07
8.33432899239e-06
3.8763276094e-06
-0.000133081503168
0.000571413086889
-9.68160096052e-05
8.78080978189e-09
-1.29417585021e-11
-1.1275018686e-09
1.8931111056e-08
-1.77060815772e-09
9.61432304188e-09
-2.93003906315e-09
0.000673658520157
7.0542825063e-06
-0.000178666569569
1.57905213605e-06
5.42097505301e-07
7.44845870265e-05
-6.6440813477e-10
1.41861942066e-08
4.22334764162e-09
6.96631204843e-10
-1.08784134595e-09
5.4544383834e-07
-9.70780761407e-05
8.08464808172e-06
1.29166789239e-06
1.99571791006e-06
-0.000143298858934
0.000671658305987
7.46029241464e-05
-2.72035209118e-08
2.90248441356e-07
3.14123991667e-08
-1.10085111699e-08
6.24383956544e-06
1.28872223565e-06
-0.000142022224241
0.000697356791387
-8.0513543401e-05
1.83295214453e-08
-6.44015791533e-11
4.50673592774e-05
-0.0126154304248
-6.61206469642e-05
0.0126136362201
-4.04884401202e-05
0.0126057930362
-5.00537035516e-05
2.98810073224e-05
-0.0126313364581
2.82820345799e-05
-2.23932476988e-06
0.011969987997
9.53710684112e-07
8.33486799974e-05
0.012096122538
-0.0120154624581
-1.39327283579e-07
0.0126043306531
3.98941430463e-05
-0.0126053495165
-3.4469262091e-05
0.0121594367484
-1.7972495374e-06
3.9597765428e-05
0.0125922631563
-1.03431444753e-05
-5.10146920829e-05
-0.0126142646357
-5.36805151043e-05
5.39402457727e-05
0.0126100944659
8.69958670019e-05
5.42065066411e-05
5.66629122223e-06
4.25835928481e-05
-0.011978878853
-4.08670613817e-06
0.0119231835141
5.12401232827e-05
-5.3647170589e-05
0.0125926867711
-2.97366588327e-06
0.0120267484556
5.54138419419e-05
8.16075992564e-06
-0.0119479464069
5.06956387169e-05
-1.01937601099e-05
0.0120921356052
6.32021390226e-06
3.71087358625e-05
0.0126012683999
-2.23041318684e-05
0.0125882709683
6.1139114293e-06
-0.0126035863142
3.19723881993e-05
-0.0119629515846
0.01191205366
0.0125888704532
-0.012150957435
5.43532552072e-05
0.0125580602989
5.12164389332e-05
-7.14353609854e-05
0.011832176128
4.10917087328e-06
0.0119251636306
-1.67428369729e-05
6.16101285448e-05
-2.51464165193e-05
0.0125696477852
-5.756488696e-05
-1.57497509654e-05
-1.75830489706e-05
0.0118354543403
7.34723906039e-06
0.0125557828562
5.1011387866e-05
0.0119967423656
-1.59104586161e-05
4.47868540988e-05
0.0125530551541
3.76144152336e-05
-5.72965274282e-05
-0.0125628127799
-5.26830778799e-05
0.0125620756851
5.04797128028e-05
3.53202919198e-05
3.4033078718e-05
1.31381226957e-05
-4.0272327677e-06
-0.0118603335667
-1.86368617401e-05
0.0118504616211
5.17551451104e-05
-5.66415381954e-05
0.0125507938815
-1.53375527892e-05
-0.0125532000648
-9.46325204952e-08
4.75332009722e-05
-4.58210430271e-05
4.7826798575e-05
-4.65628360803e-05
4.57869535186e-05
0.0119405172771
0.0118716143343
-7.90295248389e-06
1.40510471035e-05
0.0118600140209
-8.8256656206e-06
-2.91556598591e-05
0.0125697938045
0.0120139697342
0.0119359123873
6.61000715232e-05
-5.84054541522e-06
4.12840589643e-05
1.32014788176e-05
0.0120064076457
-5.30069960362e-06
5.35424112997e-05
0.0125716313899
-4.23121717187e-05
0.0125542552888
3.1654527471e-05
4.11826628624e-06
-0.0118695917865
0.011849479824
0.0125532065446
-4.85559726375e-05
-2.13262731205e-05
-1.80894009936e-05
0.000609295687153
0.200770076743
-3.62474526376e-05
-0.000457247532647
-0.000176069220457
-2.89945925948e-05
1.09857636235e-05
-2.58097937791e-07
-2.62089512295e-05
0.00018614630833
0.0502026001509
-0.00015164644814
9.31756163598e-05
4.4908176854e-07
7.84776693461e-07
6.41747917909e-06
9.16800075974e-07
-9.49115060428e-05
0.000685783730296
-6.50930279291e-09
-6.38797119927e-08
-3.10543211066e-08
1.1255286734e-09
-1.54008320773e-09
-1.6660718471e-08
-2.83804684931e-09
-3.69276106512e-05
7.73858028355e-06
-3.79581578802e-05
-3.17219240973e-06
6.38957376865e-06
0.000218835197174
0.0503683420629
0.000173757328918
-2.45131499175e-05
-6.7243801911e-05
0.0118818943002
0.0502352051631
-2.54840574557e-05
4.33913308277e-06
-2.52752879711e-05
-8.24870492716e-06
-0.000147471497825
0.0502210304629
7.99038194187e-06
-1.5539293331e-05
-3.02233909663e-06
-2.4698055357e-05
0.000158674281797
-0.000127539418897
-4.5352807669e-05
0.0118405344968
-6.42490625954e-05
1.22997760679e-05
0.000130446061269
-2.18614581993e-05
-4.02184013091e-05
0.0118416492771
-6.69950557476e-06
0.0119240734109
5.78561123134e-06
1.80772829096e-05
4.19703990999e-06
-0.0119055843339
-9.26185828828e-06
0.0501761889452
3.33962183152e-06
1.704545938e-05
-1.41515873901e-05
5.23944139421e-06
6.99108855699e-06
0.000126110801767
-9.99328582164e-05
2.50635277592e-05
1.399737439e-05
1.322890808e-05
-4.07731751089e-06
-2.21831324451e-06
0.000101871804601
0.0501076083565
-7.95029072963e-05
0.000160686396532
-4.85422142946e-05
-4.15136496137e-05
0.0117611299495
-9.41164814439e-06
5.72467726454e-05
-3.37467433591e-05
-4.37832201041e-07
-0.0118418943176
0.0118267612596
-9.02650051823e-06
9.36852651748e-06
2.6080501722e-06
1.11602268677e-06
-6.27791164826e-05
0.000575975119508
2.82837986954e-07
0.000653110790853
9.31677714478e-07
7.28858905002e-06
2.58516974793e-06
7.89285012907e-07
6.79778443213e-05
9.36889655812e-07
0.000657887726935
1.41590083096e-06
6.92076155438e-06
-0.000142739469178
-6.80578419893e-05
3.41503845892e-05
-2.5400389854e-08
-2.37715272163e-13
4.02148379714e-08
3.05308321348e-07
-8.5693676115e-09
3.59941395955e-08
1.57394098492e-07
-4.44753454303e-08
0.000675077650273
5.14754940089e-06
-2.93845782557e-06
-3.14073444701e-05
-2.713061307e-05
6.29444440439e-07
6.10092716038e-06
-1.59179769142e-05
3.29809744872e-06
-0.000149778871559
5.88974176357e-06
7.45131176028e-07
0.000712532207518
-2.54117587207e-05
-0.0126069996847
-5.13295681159e-05
-3.93325150282e-05
5.82507255302e-05
0.0126027933527
2.71056161029e-05
0.0125859475132
8.5486734838e-05
0.0119905265157
7.86357430103e-06
4.9019576512e-06
8.34878330285e-06
0.0118645557766
5.68056102788e-05
8.62406247686e-06
0.0120590598703
0.0125843887134
5.42372214729e-05
-0.0125605631674
-3.27415603506e-05
-4.91887156269e-05
0.0125594198708
0.0125447417114
-6.69107877406e-05
4.99054885828e-05
-7.00467894198e-06
-1.4645864365e-05
1.27921018556e-05
0.0118387162028
5.01662606794e-05
0.0119111939792
-1.83764791077e-05
4.88953097217e-05
0.01254265045
-5.24692897426e-05
-1.46981707044e-05
0.011972365948
-0.0125650269051
-3.09658022957e-05
-4.16765048069e-05
0.0125632219113
3.51327242151e-05
0.0125579036336
-3.88563710023e-05
5.43162684648e-05
0.0119126493219
1.58261588296e-05
1.11612047767e-05
0.011828102097
-8.84479646405e-06
0.0119730649399
0.0125562307879
-3.71762790257e-05
0.0125502215424
2.96787737137e-05
-5.14351787204e-05
4.27186099685e-05
3.4871650893e-05
-0.0125703552133
0.0125680890293
-2.98863407097e-05
5.42800277188e-06
-0.0118096901822
0.0118050391536
9.71387005738e-06
6.11398374983e-05
5.67928485102e-05
-8.65592074256e-06
0.0125478394002
3.94729820985e-05
9.95600013676e-06
-3.32775050488e-05
-0.012556166454
7.25208540083e-06
-2.44187250857e-05
0.012546290613
3.05012277222e-05
1.5300665032e-05
0.0125465463018
-2.54091414538e-05
4.14103500672e-05
0.0118834860156
7.36535653478e-06
1.16731528931e-05
-8.72912953056e-06
0.011761974074
-8.49447803253e-06
3.43888383163e-05
0.0118814805989
6.25940644241e-06
0.0125400890861
-2.16924056543e-05
0.0125193432869
5.92749994076e-05
-3.36189778962e-05
2.63130884408e-05
1.54336662068e-05
-0.0125382680174
0.0125187857484
-1.55866852984e-05
-1.63062507177e-05
-0.011749439071
5.64874378972e-06
0.0117452519097
4.65269963496e-05
1.73627378563e-05
-9.42820481827e-06
2.44615387951e-05
0.0125072057807
4.88676830465e-06
-1.839018917e-05
-0.000378559565345
-0.0495661795588
0.0495017905683
0.000431435617321
-6.15687407307e-06
1.29174897692e-06
1.2921068122e-05
-7.70431309638e-06
1.13813138852e-05
-0.000434905242436
0.0498821874417
-5.17625463596e-05
-4.12494119475e-05
-4.64569643322e-05
-4.68213853141e-05
0.0001459229996
-0.0498048951387
0.000397976333156
-0.000663473103293
-0.0500300005978
0.0502693196699
0.000515146049755
-7.91308540745e-05
-5.95038615869e-05
-7.89232186193e-05
-7.50260330097e-05
0.000201620711142
-0.00041886533896
-9.2761306718e-05
-7.74359186565e-05
-8.62468230626e-05
-8.61318993241e-05
0.000255516872874
0.0502470429355
0.00035750615162
-0.05009861993
4.95423392836e-07
-6.2282052615e-05
-0.000346022036599
0.000353052900698
0.000108976652539
-6.8611219319e-09
1.49593364765e-07
2.90744246691e-07
3.34907040677e-07
6.6558464423e-07
-0.000366837954558
0.000372054498855
0.000142164545246
-1.08724220459e-09
4.86381488554e-07
-3.67852814468e-05
1.24026358656e-06
-9.5730407959e-05
4.20295501357e-07
-0.0001311205462
0.000413800421092
2.1224363631e-08
1.08240437923e-06
1.46806971017e-06
1.35472741735e-06
-0.000406510930875
0.000102878539368
9.63941063909e-07
-0.000187399007273
-0.000413027886121
0.000400374396347
0.000176767808051
3.1590200391e-07
1.81974867471e-06
1.51986756448e-06
2.49775330482e-06
-1.55334730113e-05
-0.000155497159123
3.94706281953e-06
4.88466711501e-06
2.11879065839e-06
0.000428235447909
0.00010952222241
9.95333305826e-07
-0.000470556133064
0
-1.47703416541e-27
0
6.69334572061e-28
5.54328597565e-28
2.46039511375e-29
4.90318952575e-29
4.05347272603e-30
-6.825581732e-12
1.31628100566e-12
9.92940765536e-13
9.1994110059e-12
1.50772253457e-11
-4.02545367144e-12
-1.21604528996e-14
-2.99375321951e-11
-3.78412078486e-09
2.20123616276e-09
5.06122653286e-10
0
1.10861845381e-09
-1.91895279497e-12
-1.10404757658e-08
9.25155524276e-10
7.4921022568e-10
7.80882430095e-11
-6.1403429995e-10
-3.02483057337e-10
9.06427306369e-10
1.09242241925e-09
-3.16173501048e-09
-4.70145423872e-08
-4.58420752816e-11
-3.84505717134e-09
-2.21589966225e-08
-1.515795577e-08
-4.20190793939e-08
-1.13578556364e-07
-1.16449312801e-07
4.51184777651e-09
-8.31233250933e-09
0.000168789287898
-1.0933454254e-06
-5.11253570973e-06
-3.08812527498e-06
-7.8145057123e-06
0.0493815108878
1.70271103974e-05
-4.65370652697e-05
-0.0495036205708
0.0494562739612
0.000256782967567
7.64396636739e-06
-8.56591563844e-06
8.92999021445e-07
-7.05829990567e-06
-9.42630259429e-06
-0.0495276588622
-5.57295823833e-07
6.01941981517e-06
-0.0123014825378
-1.46863028858e-06
0.0123010972849
2.61592631984e-05
0.0123084962702
4.66914087087e-05
-5.00901029417e-07
1.9472946295e-05
-3.59530260111e-05
-0.0123005048428
2.18550537589e-05
7.99817774716e-06
1.58965196456e-05
1.68192608649e-05
-0.000229493508494
0.01235210033
0.0123204629541
0.0123036590969
0.0123476116084
-7.91231791107e-05
5.46770202762e-05
-5.58783077593e-07
6.10958124974e-06
-4.07583642311e-05
0.0123204167258
0.000308170157477
-1.13451289101e-05
-1.10772614419e-05
-1.38230802892e-05
-1.33969025957e-05
4.25799563028e-05
-0.0496105072485
0.0496738245334
-7.93519749307e-06
-2.06713861162e-05
-1.30194896966e-05
-1.78438792391e-05
2.35249516137e-05
-0.0496708553293
0.000341180230061
0.0123198222626
-4.11805890364e-07
1.01671497019e-05
-0.0123079770879
6.3319471706e-05
0.0123241114251
-7.59762207707e-07
3.40379482715e-05
-7.89405437616e-05
-0.0123226443236
7.93387069067e-05
0.000612754574213
1.45275214988e-06
2.55988864413e-05
3.26776571085e-05
1.58090824154e-06
0.0495437636197
-0.000161804349616
-0.000139620148129
-0.000162264357456
-0.000134431315809
-4.40355128697e-05
-2.26750631439e-05
-3.06487834203e-05
-2.0447538367e-05
0.0497161658876
-1.05945693943e-05
-2.0103029123e-05
-1.04877332792e-05
-2.08755960171e-05
1.63363502368e-05
0.0498540054659
0.000544224830392
-7.16962952999e-06
-2.42150311161e-05
-1.67380252358e-05
-1.82971330981e-05
-2.72024452419e-06
-4.43313912179e-06
0.012329538189
7.41797408885e-05
0.0123497659611
-5.17661049296e-07
-2.03232284395e-05
-0.0123506610402
0.000125882220647
-9.31655621417e-05
8.72086720007e-05
-7.26184933409e-07
2.77277881289e-05
-9.05821641891e-05
0.0123176420751
0.0123287136385
0.000104467321353
-1.44038624583e-06
4.10800578943e-05
-0.000100127565707
-0.0123530922536
0.0501623567683
-1.62303457545e-05
-2.25233344004e-05
-6.11466638832e-06
-3.62805074171e-05
-0.000840294821724
-5.03160044068e-05
0.000749124517691
-1.9078341843e-05
-3.1330684716e-05
-2.72694579176e-05
-4.53336918304e-05
0.0507723808403
-0.000116755947129
-0.00111943679895
-2.58812149343e-05
0.0123589235056
0.000152578898227
-0.000118238731344
-1.528333008e-06
6.87431485333e-06
-0.012423823515
0.00016007709931
0.012341187002
-0.000175006044724
0.000108176207744
-1.00677564285e-06
3.31490232444e-05
-0.000115762876793
0.0123041803103
0.00012577098519
-1.12811576536e-06
6.13007025135e-05
-0.000175359604701
-0.0123751097293
0.0122659682788
0.000458084737319
-5.76603613416e-05
-5.23697830616e-05
-4.78166993034e-05
-6.4631613275e-05
0.000160772442006
0.0500649129893
-4.24482871677e-05
-5.74367985733e-05
-5.00818943538e-05
-5.13055019053e-05
0.000117689897287
-0.0499298761545
0.000406679380873
3.84656103141e-05
0.0123329355333
6.77639266539e-05
-0.0123434142549
0.0123359978969
-1.59064796455e-06
5.92946680206e-05
-0.0123619010596
0.000105670543781
0.0123270740789
-2.21590251173e-06
7.95914336387e-05
-7.30309253005e-05
-0.0123318458579
7.45514847295e-05
0.000515824348666
-8.95963630581e-05
-8.91259386165e-05
-8.76694015234e-05
-0.000107626161603
0.0506104070904
0.00026616549099
0.0502439151103
-6.66079617486e-05
-5.89500921869e-05
-6.05180212996e-05
-6.83455369185e-05
0.000171590432623
-6.66508187079e-05
-7.51792937548e-05
-7.51289519327e-05
-8.2228242442e-05
0.0504994166428
0.000410233886821
0.000149340672074
4.63333463751e-05
0.0123023102414
9.18474642511e-05
-1.08359250298e-06
8.16661121894e-05
-0.0123692597166
6.38705025618e-05
0.0122680897659
6.71045179407e-05
1.65271242621e-05
4.93122653489e-05
-0.00010618166657
0.0122350775949
7.8766776898e-05
-1.45104282217e-06
9.85298081336e-05
-0.000117487439347
-0.0123124539734
0.0122582645678
5.29029941832e-05
0.0122310841219
2.60292862157e-05
-0.0123364040043
0.000110375075443
-0.0122994748264
0.0122862311311
-1.33996621278e-06
2.63318806082e-05
-1.08516778871e-05
7.79323724882e-07
4.38522023451e-07
3.70283942111e-07
0.000323131748042
8.46546991305e-05
-0.000349303829372
-1.72797351342e-08
0.000345608227045
5.41996679824e-05
5.26046875201e-07
7.34375338024e-07
2.7014826471e-07
-0.000371747934965
-2.24487991329e-09
-1.89688470735e-09
3.79180115853e-07
2.82997733397e-07
2.78459815727e-07
-8.96457933162e-06
0.000343060247869
-7.56023193838e-11
1.88452058808e-09
3.38301504367e-08
-1.13501092958e-10
-8.19916101857e-10
5.2070284441e-11
-2.39533970699e-13
2.16799467869e-09
-4.21536220533e-12
-1.71993537912e-12
9.35005914379e-11
4.80554055735e-11
-6.97935873841e-13
3.38506202863e-12
6.20183531605e-11
-1.14588696677e-13
-2.71615237694e-14
5.66075822373e-12
-1.27542148565e-13
3.62869355137e-14
8.91154590858e-13
3.43563074262e-12
4.5629047507e-15
3.07391126801e-13
1.32364105126e-12
1.79959410079e-11
8.6571997347e-12
1.01725014754e-11
2.21560502525e-11
9.47739942236e-05
9.04006434778e-07
3.32874208427e-07
2.6442414959e-07
-1.2382744015e-10
-0.000369584908255
0.000389396469923
9.03067597793e-07
9.18826574803e-07
2.77181295366e-07
-0.000396031636436
-6.03906954229e-09
0.000109849149268
0.00013574382887
-1.26356372084e-09
-1.24104296628e-05
2.05416256816e-07
5.05339873415e-07
-8.06343477472e-05
0.000392804373344
-5.38367499585e-08
7.80845115756e-07
6.7112367711e-07
8.03140209491e-07
-1.65070979615e-08
0.000398046342616
0.000169371118308
2.94809428206e-07
6.74007287585e-07
6.51116897236e-07
-6.9719349792e-12
1.66707080503e-09
-8.03732251077e-12
3.14843629989e-10
-4.14772402584e-11
1.46527205412e-08
1.79358484272e-08
-5.42773470013e-09
4.14056497532e-09
9.80571925271e-09
0.000139921742204
-4.43386829457e-10
5.3422866682e-07
3.02987379872e-06
-7.06927733846e-06
0.000361253209249
-9.48298947617e-05
0.000392536256362
-6.81239909942e-09
-9.90469522545e-06
1.24677348748e-06
1.1160297971e-06
1.21708397614e-07
0.000187269176209
2.95192086216e-06
1.23927988535e-06
-2.74758012088e-05
0.000367510354473
5.44094988742e-11
3.86594235989e-10
6.46617344739e-10
4.16076630354e-10
6.14246748417e-09
7.92654363941e-09
7.82199096543e-09
2.45882287863e-08
0.000149834731897
1.47280537715e-07
1.08631671114e-06
1.14035796843e-06
8.01728130411e-07
4.71645552339e-07
0.000450566666857
1.63012459911e-06
2.82727334178e-06
2.52079077496e-07
-0.000457370060702
0.00010230007771
1.94587414392e-08
-9.5384738689e-09
1.12206985686e-08
4.83327724925e-08
6.2343420794e-08
3.59297533038e-07
-2.66687257199e-07
1.13024402814e-07
0.000188352333539
5.58132962086e-07
1.95769152148e-06
5.31851872944e-06
-4.48072614908e-05
0.000382104301899
0.000412184092914
8.28784557886e-07
2.37286998802e-06
3.03450482355e-06
2.1603478298e-06
9.8936834085e-07
5.67047835719e-06
4.83747436078e-06
-5.36815227205e-05
0.000366263960968
0.000154526273119
9.35813075986e-08
4.25971850592e-08
7.38851275387e-09
1.53060738222e-07
3.64175694059e-07
1.07146787692e-07
2.95983908915e-07
2.00358990435e-08
0.0123725113738
6.70685500588e-09
-3.06450321126e-05
3.5677500692e-05
-0.0123786298903
3.14639069589e-05
-0.0123762879188
0.0123625709896
-1.67914593213e-05
-3.09057168251e-06
1.28699390863e-05
2.87531747551e-05
-0.0123001825418
5.01107621682e-06
-0.0123039345021
1.36583858753e-05
0.0123048238366
4.19927471983e-05
0.0123639054845
1.00664476814e-05
-0.0123015120868
-1.92664298401e-05
-0.0123825870989
0.0123793615852
4.39533409995e-05
2.39474714784e-06
-0.012382380967
-5.52190926244e-05
-0.0123876094737
0.0123834701961
7.03059955854e-05
4.88157470236e-06
-0.0123118872737
0.0123139766238
1.7700563163e-05
-2.68680585933e-05
4.1332949929e-05
-0.0122877346801
0.0123719146197
5.6394445789e-05
-0.0123894178324
-0.0123098137703
-0.0123662687048
8.00581071158e-05
8.78008637244e-06
-5.52517275439e-05
0.0123545930659
-6.49935720634e-05
0.0123783750683
8.41734863646e-05
-1.86049810793e-06
0.0123164310516
-1.74764436845e-05
-2.44547612345e-06
-4.73238946645e-05
6.52972153366e-05
0.0123351745987
-4.52804405649e-05
0.000101688886436
0.0123710792268
-2.39869583549e-05
0.0123178167421
-6.29286390547e-05
0.0124088570335
-1.5577708128e-05
6.59432088915e-05
-0.0124076294967
-0.0124036912549
7.19895167188e-05
0.0124010976252
2.02697876903e-05
5.96495079021e-05
-0.0122944679129
1.71610201209e-05
-0.0123245372346
6.26540879228e-05
0.012326300248
-0.0124037863271
7.43473862897e-05
0.0124102708743
5.568222624e-05
-0.012322373947
0.0124170321346
6.73900104961e-05
-9.89573062418e-06
-0.0124165138968
-7.93200407438e-05
-0.0124276888396
0.0124351868082
8.52101459115e-05
2.33816582966e-05
-0.0123292102398
0.0123310104785
3.2980513275e-05
-6.17370903078e-05
-0.0123096820739
6.56018519043e-05
0.012422447902
-0.012421563096
7.64025616214e-05
-0.0123307860939
-0.000102376321747
-0.0124138283068
-8.69387884893e-06
0.0124180437944
0.000100847445492
0.012398141449
8.4033493616e-05
-1.48190238045e-05
8.58367804654e-05
0.0123506770392
1.16236576741e-05
0.0123323083665
7.37847827772e-05
0.0123956903372
8.44129135373e-05
0.0123265067885
8.43492698657e-05
-0.000127770122703
0.0124255364969
6.54496826979e-07
0.000121101299637
-0.0123980829934
0.000148380377184
0.012408220364
-0.000153140761813
-2.5978887595e-05
0.00010215179614
-8.23716306574e-05
4.62118332334e-06
-0.0123380405937
0.000115536176406
0.0123718434884
-0.000123370650207
0.000142846971132
0.0124373425572
9.97837552716e-05
-0.0124294219585
9.80268262461e-05
-1.73985013454e-05
0.0124390622859
-8.95962986917e-05
0.0124396936447
9.27372540315e-05
2.26276222e-05
0.0123361904395
3.51299770418e-05
-9.89507788518e-05
0.0123363689445
9.08036045751e-05
0.0124496268178
0.000102352773152
0.0123243424715
0.0124483381841
0.000107469172516
-2.73352322705e-06
-0.00012807827891
-0.0124650997653
0.0124821794202
0.000127879439852
1.61809402753e-05
-0.0123265969418
0.012365134642
4.05110162059e-05
-0.000102495301462
9.88575198053e-05
0.0124625111335
0.000114222384913
-0.000201282999656
-0.0124645455803
-1.14293959519e-05
0.0125024310949
0.000187797474724
-1.29576959783e-05
0.0124332093027
0.000172831792863
-4.21326520447e-05
-0.000181530203966
6.438753326e-06
0.000150205411508
0.0124052515385
-0.000138220477905
-1.44077929745e-06
0.0123550797156
0.000134122969835
0.0124758668915
-2.3128245212e-05
-0.000214238279503
0.00016554043587
-2.1267005391e-05
0.0123290343588
0.000151064287857
-0.000223362877651
7.92691944691e-07
0.012562025167
0.000205164405794
-4.22047791878e-05
-0.0125712232987
0.000223386356209
0.0126804254312
-0.000269470698239
-5.63264079817e-05
1.12834061838e-05
0.000182808329531
-0.000157975970929
-0.0122715122383
9.01184757168e-05
0.000173770636549
0.0123330644546
-0.000232907772987
-7.45621883053e-05
0.00016570078795
0.00022865702149
0.0126633465294
-1.68823074601e-05
-0.012490870685
0.000160584709163
-3.24554813401e-05
0.0125343701282
-0.000150307111753
0.0125020032534
0.000141120334787
1.92216620954e-05
0.012355960781
7.72864626713e-05
-0.000133490303349
0.012355175041
0.000114196824692
0.0125439778481
0.000159606549301
0.0123167704215
0.000161338693198
-1.7464865419e-05
0.0125767014094
-0.0126034728226
-0.000206306857189
0.000177045300056
0.012662649122
-0.0122495443727
0.00011500201149
0.0123145856005
9.2096856521e-05
-0.000122121478555
0.00011914926076
0.000166461518336
0.01266832748
-9.74554161622e-05
-0.0124609829185
-6.77073901698e-05
0.0124757610242
9.86485962974e-05
0.012451167011
8.42259166808e-05
-0.0124454225726
5.47995901277e-05
8.38093430183e-05
0.0123409118385
6.84865853612e-05
0.0123597859
-0.0123380970128
6.68066315725e-05
0.0124644208705
-0.0124470590445
9.19398676334e-05
0.0123506655162
7.61483707576e-05
-0.000111443512379
0.0124828412726
-5.59511318432e-05
0.000102721164358
-0.0124818994912
0.000116122675733
0.0125006148178
6.2520453004e-05
0.000101783327912
7.63084770227e-05
-0.0123194694544
7.44686182422e-05
0.0123358183595
0.000105810243521