/*--------------------------------*- C++ -*----------------------------------*\
| =========                 |                                                 |
| \\      /  F ield         | OpenFOAM: The Open Source CFD Toolbox           |
|  \\    /   O peration     | Version:  v1906                                 |
|   \\  /    A nd           | Web:      www.OpenFOAM.com                      |
|    \\/     M anipulation  |                                                 |
\*---------------------------------------------------------------------------*/
FoamFile
{
    version     2.0;
    format      ascii;
    class       surfaceScalarField;
    location    "6";
    object      alphaPhi0.water;
}
// * * * * * * * * * * * * * * * * * * * * * * * * * * * * * * * * * * * * * //

dimensions      [0 3 -1 0 0 0 0];
oriented        oriented;


internalField   nonuniform List<scalar> 
92311
(
0.203042590155
-0.000344417112022
-0.000386737696244
-0.202645864338
0.00033422392209
-0.000378140067855
0.20332393988
0.000171613768691
-7.49266381405e-05
0.203034858986
-0.000799454259421
-0.000361181242126
-0.202545326178
0.000326540645295
-0.000892821210271
0.203490019707
0.000157520349472
-9.80630048131e-05
0.203072615067
-0.000349253801141
-0.00045167267167
-0.000176031192922
-0.202283468407
0.000209559791418
-0.000351694367838
-0.000469563511387
-0.000433672375139
-0.000444259267608
-0.000475877753366
0.203942730433
0.000216961643816
-0.000168479901162
-0.000457613450076
0.050587741261
-0.000100829232362
-0.00012227924554
-0.000101401780463
-0.000123520473952
-6.86072662637e-05
-0.0504784464226
5.81364185859e-05
-0.0507633350377
0.0510099759816
-0.000177774671775
-0.000154803907646
-0.000159882242992
-0.000167215676744
5.42574630953e-05
-7.47158835539e-05
8.75286244639e-06
0.000447404141861
1.20691240209e-05
7.08146566991e-06
1.09401390962e-05
-0.000284052791961
-0.000656861864271
5.74461437081e-06
0.000285235839594
-0.000348464751654
0.000160954546194
5.0972483431e-06
0.000126643660358
1.67738211872e-05
1.79668137748e-05
1.68398575136e-05
1.7973755651e-05
-0.000139164998568
-4.41319253936e-08
-1.45184282791e-06
-1.54146457427e-06
-1.76034848947e-06
-7.05081817572e-08
-3.33839867733e-07
-2.89157654247e-08
-1.61693200427e-06
-0.000140181358311
-0.000168263610606
-0.00017375326877
-0.000141296863858
1.00149895031e-05
-1.36288520721e-05
9.91620264379e-05
0.0114433042652
5.05645358457e-05
-4.69424839023e-05
-0.011483170647
0.0112321122175
-1.68010083364e-05
0.00018730562028
-0.0113134059359
2.75441025782e-05
-3.58550718821e-05
-0.000129929515727
-0.000145875366121
0.0511576804845
-0.000135847779436
-0.00015192037894
-0.000142556878394
0.000114237908489
-0.000155652441424
0.0511449158292
-0.000166673984624
-0.000167580280804
-0.000179201763165
-0.0509812261241
-0.000100121018653
-1.71867078949e-05
0.000180297075627
0.0111664485281
2.39962701171e-05
-3.42291793371e-05
-4.58653271666e-05
0.0128217413689
3.91958780579e-05
-0.000162011397428
-0.0127970007869
0.0128239657221
-4.27183951433e-05
-0.000182443584929
-0.0127985784777
-0.000245068276671
0.203094860798
-0.00107351883982
0.000921049755365
-0.202697359496
0.20335656729
-0.00025026180692
0.000656763017523
-0.000438765034621
-6.36057012633e-05
0.203138705838
0.000944055389369
-0.000662173592126
-0.000403068670855
0.203004603437
-0.00110751488104
0.00089525473638
-0.202634313465
0.203531077045
-0.000466018712626
0.000605163297836
-0.000430299522218
-5.7673434979e-05
0.203225066781
0.000906502482636
-0.000606202766302
-0.000145780689073
-0.000195302669092
-0.000184161531057
-0.000895087590462
0.202745437253
0.000758342040522
-0.202349406188
-0.000137071790712
-0.000292428175567
-0.000132042764469
-0.000281599261172
-8.52722478497e-05
0.204047367769
0.000673022846869
-0.000452549150876
0.0505215928318
-4.58290543467e-05
-3.01097710634e-05
-3.88328661208e-05
-4.00322146101e-05
-0.000200482590573
-0.0505024809096
0.000190423593153
0.0512225902277
-0.000111723565052
-0.00010696593544
-9.81986079167e-05
-7.51708194408e-05
-6.96052037848e-05
0.000104326212873
0.000201671809307
4.00841021534e-06
-0.000471558055394
1.21511983644e-05
1.2582914142e-05
8.39709226057e-06
8.54487065075e-06
-0.000229309877356
-9.06886533535e-07
-5.02115105648e-07
-7.93632523489e-07
-1.76156765837e-08
5.87747564468e-07
-1.69352975696e-07
-5.62810858834e-08
-6.05629490957e-07
9.03260537518e-08
8.60052185352e-08
3.93255261727e-08
2.99127222566e-08
2.20454825197e-08
8.10523272801e-09
9.11044263897e-08
0.000104236099508
-7.24443799329e-05
-7.71356755046e-05
-6.43945152589e-05
-8.47354458926e-05
0.0506014787755
-8.06435454939e-05
-6.86323393081e-05
-7.79793595312e-05
-6.45930091231e-05
-7.7067340591e-05
0.0505420220627
0.000126415154013
-0.0504600027389
-1.78189819237e-06
2.95706855244e-05
0.0115867771444
0.000100916690576
-0.000106331058648
-0.011604759257
-7.07397997358e-06
9.64782076236e-05
-0.0115319421469
6.80963209202e-05
-7.61903545115e-05
0.0114888077953
-6.99578179479e-05
0.0125858994883
-3.56681909277e-05
4.15997118797e-05
-0.0125900945543
-0.00012099741127
-5.10361575376e-05
6.5578200699e-06
-4.56355703865e-05
3.92039077071e-06
0.0511540875341
0.000143591486264
0.0512091022797
-0.000108304533126
-7.77908603808e-05
-0.000120469873577
-7.17954473439e-05
-7.91337779848e-05
-4.91772366693e-05
1.56013904111e-05
-4.45719358247e-05
1.16508861309e-05
0.0511419488554
-7.27519652756e-05
-3.99616884593e-05
3.54938291144e-05
-0.000119485720474
0.012840287386
1.89179559289e-05
-2.80382115101e-05
-0.0108610826543
1.16614130914e-06
0.0108493842566
1.17579012551e-05
-3.37439585183e-05
-0.000131562776111
0.0128426342908
-0.0128332812744
-3.51788669817e-05
0.0128112871138
1.60910524612e-05
-7.64215541541e-06
0.000163530131455
1.42530055462e-05
1.75093102209e-05
1.34171329315e-05
-0.000179373419193
0.000222719823634
6.32383026256e-06
4.83919361055e-06
1.91898761117e-05
2.38455777997e-05
2.42822482322e-05
2.01688136178e-05
-0.000397547079002
0.000157081727358
0.000200728411064
-1.79491345567e-06
-2.94727130276e-06
1.32446174145e-06
1.92253483738e-06
6.45824509428e-07
-3.18374818957e-06
-8.36890120538e-07
6.34974372378e-06
1.84897032905e-05
1.74702476462e-05
1.98414617007e-05
-0.000116743354263
0.000161238750005
-6.00723083351e-07
-2.49854839194e-06
1.34060520204e-06
1.39578071023e-05
0.0125921042949
-2.07813674468e-05
-0.0125865365317
-0.012577779413
-0.000141131351371
-2.46229132933e-06
0.0126017576212
-2.38739944314e-06
4.57566558489e-05
0.000140343282703
0.011376982956
-4.16921618841e-05
9.75251965087e-05
0.0114660260234
-0.011507263794
4.83583491167e-05
-0.0125753573901
7.97959967311e-06
0.0113989525317
4.49006846268e-05
0.0126177546835
-1.09220312445e-05
0.0126275868178
-0.000160857584853
1.51050282883e-05
-1.98096509754e-05
-2.59264990962e-05
-0.0126424133727
0.0126742441758
1.38727245853e-05
3.27068188877e-05
0.000154572149089
-3.64367427116e-05
0.000201738792909
-0.0113354231446
0.0112433789842
1.83349717367e-05
0.012664520822
-3.39737041584e-05
2.32018345349e-05
4.13217082196e-06
-0.0127128755748
-0.000204614638505
4.30460477041e-05
0.0127524669338
-5.39636353688e-05
-3.77922914818e-05
0.0127163313395
2.25964634447e-05
1.45809162331e-05
0.000186797499614
0.0110963961369
-2.60693373815e-05
0.00019692716035
0.0111666750574
7.39461474608e-06
-4.77175411547e-05
0.0110853553829
-1.30382013159e-06
0.012752297855
2.84809917458e-05
-0.00014956824212
-0.0127927904947
0.0128182627024
2.92894764386e-05
1.04693577112e-05
-0.0110318878731
0.0109688504022
-1.32651920539e-05
-0.0110144780363
1.73835491912e-06
0.0109506575862
-0.000184235614857
4.19896275619e-05
-5.21455929477e-05
1.40376370079e-05
0.000167191259067
-2.26783001763e-05
2.72868087897e-07
2.80821379192e-05
-0.000200158103675
-0.0128075992028
0.0128347461865
-3.45652198978e-05
-1.71220918724e-05
-0.0109974014565
0.0109303967807
-0.0109789002
0.0109011350109
-2.36873693278e-05
-5.21778026301e-05
-0.000212411195494
-0.0127517726124
0.000237523184893
2.02612437328e-05
-0.0110791896778
-2.88884377173e-05
-0.0127559581652
-4.3564434625e-05
-0.0110783612107
3.74180436805e-06
-0.000351252057642
5.57458979717e-06
7.10978952041e-06
7.67600671238e-06
5.25634507198e-06
0.000697145787627
-0.000788255453267
0.000324070471059
-1.98544662885e-06
2.87492095382e-06
9.77861646995e-07
-2.7126927978e-06
0.000726042698028
2.25022991247e-06
3.2213273909e-06
2.10753212999e-06
3.21894103666e-06
-0.000351085130128
0.000353796295786
-0.000786538588005
3.67272044564e-06
5.23678586193e-06
6.84994169305e-06
4.67110979762e-06
0.000604805800091
-0.000342661938966
1.86682560022e-06
-1.51593186795e-06
-1.81288204964e-06
1.5618173121e-06
-2.02833832547e-06
1.28980123236e-06
3.58891583088e-06
-0.000497647338889
1.1993951681e-05
1.48595697739e-05
8.81365257373e-06
7.26744593603e-06
0.000158348059004
-1.31114945114e-06
-1.12727959702e-06
3.80660920807e-06
-1.43329257943e-06
6.66588062947e-07
1.50223481682e-06
-0.000196142199351
-8.31214894796e-07
-3.56735552199e-05
-2.56363115885e-05
3.23398668565e-07
-0.000514419491877
0.000138048276226
-1.53548197852e-06
6.13403933144e-07
4.2033101503e-06
2.28020647919e-06
2.61803039912e-06
-2.02866996501e-05
2.22511475961e-06
-0.000515413368262
-0.000249696888649
5.74580763265e-07
4.68923861996e-07
-2.93328907388e-05
-0.0125993513775
-5.44414201044e-05
0.0126035813924
3.38643461821e-05
0.0126077637735
3.99197935246e-05
-3.88506179967e-05
-0.0126094284585
4.81773600299e-05
9.17263637239e-05
0.0115634572301
-9.68940542604e-05
4.00912077371e-05
0.0115770303788
-0.0115918342956
8.79760585384e-05
0.0126126341125
-2.49613865447e-05
-0.0126027812081
4.35147207372e-05
0.011554714281
7.9024837821e-05
-2.27414752901e-05
0.0126017763969
-7.67018333042e-05
2.89477539317e-05
-0.0126128697502
9.18381327756e-06
-1.37377106364e-06
0.0126246491902
7.2033839604e-05
7.79194028723e-05
-8.43013127957e-05
0.000103519138288
-0.0115201207077
5.34478211378e-05
0.0114785882726
-1.52963126841e-05
1.73730344678e-05
0.0126125887023
6.4863159397e-05
0.011508764873
-6.38704665225e-05
6.42259779204e-05
-0.0115358157169
9.12836068941e-05
-5.58622538269e-05
0.0114732230713
5.63175272812e-05
-2.46055811863e-05
0.0125952211704
2.91664144335e-05
0.0125956777029
-6.88131083176e-05
-0.0125976655322
9.37447749258e-05
-0.0115191512423
0.011476150466
0.0126057469324
-0.0115509627699
-0.000111037462459
0.0128382187149
2.98485811085e-05
7.85298491697e-06
0.0109168214282
-4.11037405802e-06
0.0108972226884
6.39620501399e-06
3.10492817895e-05
-5.86635232477e-05
0.0128285555009
-3.49438385759e-05
5.55911468499e-05
5.81309341367e-06
0.0108939819439
2.94998653059e-06
0.0128285481086
2.75900877319e-05
0.0108714903117
1.06217676232e-05
3.08913435476e-05
0.0128087462954
-3.16020586251e-05
-3.02471744988e-05
-0.0128125578108
-3.21194237333e-05
0.0127881300077
3.4989782033e-05
3.07364571606e-05
3.80259070061e-06
1.0306807264e-05
-2.63773824352e-05
-0.0108389112195
1.13577756521e-05
0.0108295280258
3.21913241264e-05
-2.97380639104e-05
0.0127839153179
1.39817798594e-05
-0.0128515847659
-6.76037925795e-05
2.57978192998e-05
-1.67593184302e-05
-0.000144748362873
-2.4734243955e-05
-7.22899648998e-06
0.0108767306219
0.0108432733438
-1.0990343337e-05
-1.51888116572e-06
0.0108276050422
-1.66930780401e-06
-6.52891270934e-05
0.0128279552011
0.0108535372077
0.0107960295032
-9.30249629316e-06
9.13933498469e-06
-3.37004701308e-05
-9.19597496283e-06
0.010785605042
9.08697749344e-06
1.25311619025e-05
0.012783769285
-2.83634274963e-06
0.0128068649459
-3.74153081173e-05
-1.85973521707e-05
-0.0108215007385
0.0108118143547
0.0127827793655
-1.0995859033e-05
3.57512454456e-05
0.000103126610538
0.000979900961328
0.203410635863
2.95213864449e-05
-0.000558388455219
-0.000119022016705
3.0938105836e-05
1.8160614515e-05
3.35648685298e-05
1.35313967601e-05
0.000159040523291
0.0510067567731
-4.2697154219e-05
0.000153489536729
-1.37764387133e-07
-4.13436027946e-05
-3.5966021623e-05
-3.93918421068e-05
-0.00024514082737
-0.000416710926117
0
0
1.28596985982e-08
0
-7.68412876897e-28
9.18578392152e-09
-7.54494942125e-27
-0.000116508881821
-9.92466326278e-05
-0.000102035435867
-0.000115844922576
0.000297665246919
-4.02320605579e-05
0.0506498295908
-9.14353795901e-06
0.000110002068918
-4.64109074858e-05
0.011431141456
0.0509783964202
4.36154300365e-05
2.77410339912e-05
2.35313976638e-05
5.06919832853e-05
-6.54477403221e-05
0.0508384565767
4.0168400429e-05
5.43146451529e-05
4.73259841621e-05
4.44183009536e-05
0.000140146951246
-8.32798020605e-05
-4.64648050406e-05
0.0108345711669
-1.72734908197e-06
1.17498795409e-05
5.84741939122e-05
-5.18015551126e-05
-8.10425699843e-06
0.0107746724578
4.62653220725e-06
0.0108006416604
7.60730149934e-05
-7.04501214523e-05
7.64313522167e-06
-0.0107981271233
-1.42972438354e-05
0.0507189893951
1.91915624229e-05
3.69315106519e-05
2.92028319847e-05
3.03957635984e-05
-5.83741368283e-05
0.000171435980616
-0.000109215885171
1.15197690976e-05
8.40915852364e-06
8.80492241316e-07
2.25589108585e-05
-3.69489777581e-05
0.000189877659371
0.0506590380012
-0.000136266574314
6.9437533561e-05
-5.25060555444e-05
1.49507906672e-05
0.0107903405616
-2.7050314385e-05
1.29174781683e-05
1.42405728081e-06
2.49081144237e-05
-0.0107763280724
0.0107674425121
-2.85939594959e-05
9.90217603124e-06
1.20970210973e-05
1.3057838521e-05
-0.000286200697771
0.000515282986746
5.43155313182e-06
-0.000355304231963
-1.34769136928e-06
-4.10989636238e-05
-6.00863278568e-05
-4.54921827214e-05
6.81156098436e-05
-1.26968234014e-06
-0.000150412280326
-5.98407203366e-05
-7.46722427177e-05
-6.18885379594e-05
-0.000111159076417
4.60375001198e-05
8.29538044506e-07
1.94930933619e-06
5.30464733131e-07
4.75499233238e-07
3.35038357653e-06
-1.02802494952e-07
2.84977620926e-07
1.55079662345e-06
-3.08088342856e-05
-4.93430389712e-05
-5.55571766987e-05
-4.03839762269e-05
-0.000101294802059
-5.12539103834e-07
7.94842960954e-05
-6.11373747831e-06
-2.44503689355e-05
-8.57637369188e-06
-0.0001523941928
1.50324268705e-06
-7.36777832811e-05
0.000163599266867
-0.012613792785
-0.000146584483798
8.15173915473e-06
-8.68676892363e-07
0.0126373517018
-1.68965459803e-05
0.0126027815692
0.000116076445052
0.0114250806112
-4.20434250631e-05
-3.88147861231e-05
0.000142923601373
0.0113653492584
-1.017561636e-05
-3.22987955841e-05
0.0113610057657
0.0126280256331
3.31044599607e-05
-0.0127539917388
6.0371323309e-05
-2.82804700023e-05
0.0127191533557
0.0127561429859
-3.31064868969e-05
3.61537760987e-05
-6.09493136226e-05
-2.66038496356e-06
1.17070905741e-05
0.0108449752255
-3.87137844468e-05
0.0108189316083
7.5385431993e-06
3.87442394113e-05
0.0127222424793
-2.86409733109e-05
5.46828853536e-06
0.01083484928
-0.0127521013613
6.04401849164e-05
-1.02581024227e-05
0.0127171077903
9.98870986156e-06
0.0127495422948
-1.33141674939e-08
-3.54137001951e-05
0.0108018222081
-5.86127167854e-06
-7.77066171835e-05
0.0107942915495
4.02123389514e-06
0.0108189015263
0.0127134170562
-1.33896140937e-06
0.0126865498895
5.31147266778e-05
-1.1168275387e-05
2.87635125958e-05
1.55409267464e-05
-0.0126829392702
0.0126594973747
-7.76762353501e-06
-5.35146149591e-05
-0.0108188854542
0.0108151749693
6.12937258362e-06
1.81917095058e-06
-6.62391982835e-05
-5.98480439842e-06
0.0126629410674
3.32713138692e-05
-3.52485307968e-08
-2.46842481421e-06
-0.0126408837327
1.01696735805e-05
-2.08012727463e-05
0.0126332259106
3.76051567303e-05
1.94582396664e-05
0.0126359600608
-1.15517462783e-05
-3.48318916435e-05
0.0108031123321
1.28790419856e-05
2.30765311478e-05
-3.18456792072e-05
0.0107717019675
-3.05778351762e-05
3.61551276795e-05
0.0107863202165
1.82804983161e-05
0.0126267726214
-1.31015512493e-05
0.0126272204731
5.29947405368e-07
-2.65669026513e-05
4.36971571439e-05
3.06348754709e-05
-0.0126201696298
0.0126206264412
-2.10025206075e-05
1.37661655232e-05
-0.0107907079931
2.07203657007e-05
0.0107734396098
2.46328429509e-05
-2.05845180707e-05
-3.21468424272e-05
4.6345731359e-05
0.0126264577718
2.04452412403e-05
-1.7873653914e-05
-0.000625161093899
-0.0495639390777
0.049491607851
0.000803518695395
-1.81539175855e-05
-4.15288024582e-05
-2.13641409942e-05
-4.42606388049e-05
1.90872338127e-05
-0.000855850990853
0.0500002221223
4.31349603513e-05
1.58795702315e-05
2.74932833221e-05
3.15854847281e-05
-5.09367307626e-05
-0.0499289571597
0.000717530679019
-0.00116777267176
-0.050079079498
0.0501978623686
0.000916467309611
7.28483796558e-05
5.40196191704e-05
5.85273361798e-05
6.89915864089e-05
-0.000121783684193
-0.000673341499762
5.33004686167e-05
6.21546620381e-05
6.33961863162e-05
4.85986236547e-05
-8.59305335755e-05
0.0503000599519
0.000474352481414
-0.0502425624423
3.36416141863e-06
9.83008055337e-05
-0.000661932978336
0.00061135268962
-0.000148473427708
2.23237811793e-06
9.24056278947e-07
7.58148370958e-07
-3.03263352443e-06
5.07103734431e-07
-0.000600741699188
0.000646904565079
-0.000166730127813
-3.48485957674e-07
2.9894467604e-07
-7.20428072368e-06
-1.94404447735e-05
0.000142987804148
-3.9017825023e-05
0.000116317268061
0.000582131343832
-1.89525601974e-06
-5.36830643326e-05
-7.6945169547e-05
-6.96507810142e-05
-0.000520733914824
1.90632333086e-05
-6.0318625232e-05
9.61578309843e-05
-0.000686490819641
0.000806609244168
6.48422373016e-05
-2.46135001117e-06
-7.18860465399e-05
-9.74769935924e-05
-0.000100148844523
-7.20796722959e-05
-0.000234790412224
-7.40517145125e-05
-4.98630681616e-05
-4.97060252915e-05
0.000752499466115
0.000334856733675
-2.05178351352e-06
-0.000661575913156
5.64377779966e-08
-3.42716743933e-28
-1.81029617299e-08
-2.07559305551e-08
-3.36143857167e-08
-2.29888131206e-08
1.95788486919e-09
-1.58438034183e-09
-2.68968400092e-07
-3.47713354973e-07
-1.23142635796e-06
-4.75884386498e-07
-1.25832730894e-06
2.13567853602e-07
-3.32648360754e-08
0
-1.00366547067e-27
4.49968688813e-09
8.1700193139e-09
0
4.16490412038e-09
-1.68346103224e-08
-1.0331726336e-07
-1.3165561442e-07
-4.20813622595e-07
1.91631229348e-07
9.19520625511e-08
2.28650565936e-07
0
0
3.26129902917e-08
4.51689607551e-08
-7.6567877746e-08
-1.21407330075e-09
0
1.17576854909e-07
1.09725606035e-07
1.5395998758e-07
1.67877976888e-07
8.02922725126e-07
-2.88094307273e-07
0.000188582701138
-3.36093230644e-05
-3.46443427758e-05
-3.77078472088e-05
-3.20165634416e-05
0.0491452194177
0.000180540124229
3.59134983998e-05
-0.049412228937
0.0492298865707
0.000417912696221
-4.36909734372e-05
-5.26317803864e-05
-4.74689514878e-05
-5.79245191795e-05
0.000196508660092
-0.0494539944586
-3.65935533794e-06
5.29357255543e-05
-0.011695669981
1.13048853595e-05
0.0116562599939
1.68676873879e-05
0.0116218037842
8.6543748344e-05
-6.6515753842e-06
8.67387745527e-05
-6.52437349369e-05
-0.0116633866875
-1.81979194381e-05
-3.57012512817e-05
-2.67317135208e-05
-1.55755262719e-05
-0.00030803776306
0.0123164932459
0.0122738447032
0.012189242149
0.0122235423337
5.73753740471e-06
0.000108733930803
-6.43431106504e-06
7.61810269851e-05
-8.25888945369e-05
0.0115832985135
0.000593555472934
-7.01435015699e-05
-5.72032669111e-05
-6.29800411363e-05
-5.91458055763e-05
0.000122525687232
-0.0496124489265
0.0497334729086
-5.02684243552e-05
-2.71374147566e-05
-3.71403654293e-05
-4.43807565865e-05
7.6106635886e-05
-0.0497408465413
0.000683804536831
0.0115775374099
-5.81734081925e-06
9.20871103234e-05
-0.0116111377243
8.78585479249e-05
0.0114754924144
7.23891297924e-06
1.62282622325e-05
-5.46319602076e-05
-0.0114961868407
4.05783127236e-05
0.00105613604557
5.93496640424e-06
1.63542581215e-05
3.89776357922e-06
1.41628468853e-05
0.0494049822878
-0.000232122700936
-0.000191470044163
-0.000231585112994
-0.000184218350796
-5.91623639246e-05
-3.10205256764e-05
-4.64358286297e-05
-3.39309109904e-05
0.0497475785133
8.81682684647e-07
-1.55281941961e-05
-2.90584646998e-05
7.12666345617e-06
-2.99152504346e-05
0.0498654346097
0.000988180865482
1.23610597987e-05
3.17933980592e-05
1.40087567547e-05
2.39876717902e-05
-0.000132269990412
7.10524605787e-05
0.0115510665663
0.000105726906103
0.0115236616863
1.51113396002e-06
6.27883789859e-06
-0.0115296820767
0.000146230492577
-0.000144991168124
5.17981411425e-05
2.61859490267e-05
1.51121427205e-05
-7.04706806503e-05
0.0114555761453
0.0114352626658
9.27306112574e-05
5.91815205277e-05
-3.96219192436e-05
-0.00011896933848
-0.0114348335881
0.0500046084796
4.8308721568e-05
5.05769604731e-05
3.84746352412e-05
5.98057989655e-05
-0.00127496546779
-0.000229443085331
0.00131774252795
6.43857733329e-05
8.82350259208e-05
7.66015659093e-05
7.58382090282e-05
0.0504361573602
-0.000407913888162
-0.00164672579013
-1.78300407082e-05
0.0115290016549
0.000161559117368
-0.000153251271726
-1.30180072228e-06
-3.98810779172e-05
-0.0115467104855
0.000173925521264
0.0115789612684
-0.000173925666881
0.000111957034187
6.60579003376e-05
-6.04466792596e-05
-0.000139021184077
0.0114509668411
0.000145630253459
6.81665624842e-05
-9.72812025794e-05
-0.000162544918095
-0.0114877336556
0.0115109553632
0.000813738602947
5.3003881336e-05
4.68488350014e-05
4.41711709425e-05
6.20919102572e-05
-0.000110386837447
0.0501754477815
6.14560232124e-05
6.80347359777e-05
6.84535034496e-05
6.2684182166e-05
-0.000103434047073
-0.0501325016786
0.000613629797434
-2.66980312702e-05
0.011444640215
5.64145512893e-05
-0.0114667770831
0.0114264253473
5.10629938502e-05
-6.58668342433e-05
-0.0114212215829
9.40624528408e-05
0.0114501168439
6.36460359594e-05
-9.94728967148e-05
-9.91701871911e-05
-0.0114406254257
0.000113955565779
0.00099061099692
8.38889188728e-05
8.37523298248e-05
7.24987446821e-05
9.4474474913e-05
0.0504040856556
-0.000213743009101
0.050270525311
7.72573943995e-05
7.32179546596e-05
7.52138495805e-05
7.33550275313e-05
-0.000150959909154
8.74508161236e-05
8.92145773434e-05
8.12199699706e-05
9.65010201331e-05
0.0503861386559
0.000714828646642
-0.000194214303175
-7.63405685181e-05
0.0114414449917
0.000109221280094
7.59039596898e-05
-0.000111450441716
-0.0114701623394
0.000138925255795
0.0114886044879
0.000119625167522
7.6877991252e-05
-0.000105777922819
-0.000106911023945
0.0114573132947
0.000149898087622
7.90777584412e-05
-0.00011890029836
-0.000142446680478
-0.0114784434567
0.0114941206408
-9.66961945383e-05
0.011468180147
0.00012946712031
-0.0114635238328
-9.78569338286e-05
-0.011491932779
0.0115072707887
6.75194380756e-05
0.000151770126769
1.30159993669e-05
2.66688652085e-06
4.20915292083e-06
2.78615667777e-06
0.000691329207678
-7.79168350816e-05
-0.000703704157784
1.90669053239e-06
0.000687273102942
-7.86578998634e-05
5.03679730953e-06
5.06145569741e-06
3.41139666172e-06
-0.000709334543269
2.56421801374e-06
2.76947008183e-06
5.85978770917e-06
3.90414705026e-06
6.05516323225e-06
7.06030622963e-06
0.000659612961083
7.3134565801e-07
-1.08132985017e-07
-2.44930805173e-06
1.2201550333e-08
-2.51182504265e-07
-7.35643582464e-08
1.35836391375e-06
-2.23961381613e-06
-5.10500915977e-08
1.10809298766e-06
-3.69080297538e-07
-4.66037961017e-07
1.91559430641e-06
-3.45834632348e-07
-2.3194927927e-06
2.35463382438e-06
-5.45287382986e-08
-1.56947557503e-06
-2.08498988144e-07
-9.85939207348e-08
3.47006646174e-06
-1.02164560924e-06
-8.43996026784e-07
3.4964480897e-06
-3.44096731152e-07
-1.41427362982e-06
-5.72916713096e-07
4.07368644807e-06
-1.13797833253e-06
-0.000138293875491
5.66803999653e-06
4.45915507791e-06
6.9767396234e-06
2.18164009983e-06
-0.000705017244601
0.000578575114949
1.0466846951e-06
9.2167101853e-07
3.83842219225e-06
-0.000619035100378
3.31349924681e-07
-0.000103760222329
-0.000172919587419
1.45823051619e-06
1.23597149273e-07
-2.02842980428e-05
-1.6446703062e-05
0.000119225721785
0.000562898942882
1.22863371852e-07
-1.74870805786e-05
-4.44056991064e-05
-2.89104278826e-05
-9.43728491951e-07
0.000610921793038
-0.000123175445274
-1.48557006261e-05
-5.89517559659e-05
-1.70088617843e-05
1.71387887406e-06
-4.72369920101e-07
-9.42042355238e-07
-2.8656258787e-07
2.42203430695e-06
2.37000510965e-06
-3.47693484893e-07
-1.67438259612e-06
2.53788791531e-06
-1.81035901711e-07
-0.000177665260321
3.58452861747e-07
7.61611683279e-07
-2.90173771031e-06
-5.623390191e-06
0.0006742476124
0.000135140879125
0.000709211123999
-1.90285676199e-06
-2.26756058342e-05
-7.73923705044e-05
-3.47439307701e-05
-3.12633957259e-06
-8.71027652222e-05
-2.81940940119e-05
-6.46977519723e-05
-2.81893091299e-05
0.000811987235647
3.12815890148e-06
-1.35667737504e-07
3.61729757148e-08
4.0997095069e-06
2.41848253644e-06
3.95372503356e-08
2.89500915955e-07
3.24203012991e-06
4.29434359223e-05
-2.31306434074e-06
-6.33209146624e-05
-7.83339884691e-05
-7.37532888677e-05
-2.20062433166e-06
0.000719439334025
-7.35449930548e-05
-7.13998149338e-05
-7.02173335241e-05
-0.000602240134865
0.000202936432053
2.32472086885e-06
-2.16230322068e-06
-1.76287952196e-07
-8.51067846407e-08
2.43246224629e-06
2.36329199098e-06
-2.14068220156e-06
-4.65628802307e-08
8.55966782673e-05
-3.1275098675e-06
-7.00388204811e-05
-9.16979544608e-05
-8.41092867341e-05
0.000931213720515
0.000844286509852
-2.353944638e-06
-9.39473896827e-05
-7.83935990451e-05
-9.3432505262e-05
-2.54264000983e-06
-9.18598125691e-05
-7.42205149071e-05
-8.13193511286e-05
0.000958615680695
0.000265638606419
2.22794596418e-06
5.50440806282e-08
1.48522968518e-07
2.58632008965e-06
2.26714736295e-06
-5.87087898792e-08
2.36932003677e-06
-1.10505274455e-07
0.0123772404519
-4.54347580631e-05
-3.10899530093e-06
3.07016594917e-05
-0.012392941208
8.43012662685e-06
-0.0123742432302
0.0123569979826
2.73078372921e-05
1.17155463036e-05
4.04939974109e-05
1.14551921407e-05
-0.011723846239
6.06807593296e-05
-0.0117118966335
4.18223306257e-05
0.0116707497077
4.6023442413e-05
0.0123628549406
3.5627328786e-05
-0.0117403978369
2.42122853295e-05
-0.0123930700446
0.0123888681101
6.30072054307e-05
-6.44360997698e-05
-0.0124003078776
-8.41265074274e-05
-0.0124091855373
0.0124075971107
0.000120168504259
7.78644210362e-05
-0.0117026198021
0.0116581096476
8.57960703423e-05
-5.14019694256e-05
6.1650190629e-05
-0.011702258455
0.0123814152676
9.52730455922e-05
-0.0124132579668
-0.01173517446
-0.012375346585
0.000135206061008
-5.03633074795e-05
-8.28958092913e-05
0.0123555303947
-0.000107569074114
0.012404353806
0.000151880984695
7.06554633452e-05
0.0116151236852
-5.09290547115e-05
3.9202289505e-05
-0.000107455642451
0.000128199195127
0.0115595575055
-5.69916693887e-05
0.000178026035631
0.012385368841
-6.38900654249e-05
0.0115800977066
-0.000132416578641
0.012469343251
-0.000109056417568
0.000163614176457
-0.0124610096042
-0.0124398070706
0.000158002394395
0.0124372421916
0.000102772946742
5.91905788423e-05
-0.0116498396411
7.98690158835e-05
-0.0115673321102
7.5122319366e-05
0.0115363223309
-0.012436583209
0.000182028867808
0.0124665290788
5.26547100074e-05
-0.0116045903118
0.0124933853521
0.000186707912576
-7.83146761972e-05
-0.0124879452328
-0.000196064641413
-0.012508882264
0.0125004467572
0.000193667640563
4.31131790457e-05
-0.0115351291692
0.0115179475861
4.52788441464e-05
-3.95506240717e-05
-0.0115392221214
2.74518286995e-05
0.0124858763586
-0.0125076047373
0.000186348866465
-0.0115682383437
-0.000206121792426
-0.0124550854987
-2.03417440992e-05
0.0124427737819
0.000221189656578
0.0124329231285
0.000185867703311
3.05232314472e-05
0.000123090443727
0.011539172953
5.05154418332e-05
0.0115088815563
9.30178231022e-05
0.012414083347
0.000203739549308
0.0114998275473
0.000110620508739
-0.000232136849878
0.0124433418483
-1.16119444553e-05
0.00024920523139
-0.0124091223427
0.000263079189454
0.0124044101091
-0.000235546633205
1.90988824956e-05
0.000132075243797
-0.000132868072852
4.09566466938e-06
-0.0114898854842
0.000131691369459
0.0114827964097
-0.000203929352725
0.000278264280881
0.012446826769
0.00011797011177
-0.0124759683119
0.000233249290376
-8.34303723619e-06
0.0124728224489
-0.00021778528874
0.0124971392114
0.00022048165659
3.35520001236e-05
0.0114871272247
2.28224333963e-07
-8.94377175379e-05
0.0114419646574
6.15293116019e-05
0.0125014150218
0.000236631955914
0.0114717292301
0.0124738521656
0.00026275025725
-1.90857698672e-06
-0.000287299439839
-0.0125023331842
0.0125065255479
0.000275593796434
5.80632300919e-07
-0.01146943192
0.0114712894002
-2.83823344985e-05
-0.000106945576035
7.85226103655e-05
0.0124800422848
0.000257672837076
-0.000333910751268
-0.0124530485533
4.45526403395e-05
0.0124622127967
0.000340596290702
-6.0505172741e-05
0.0124075356436
0.000298024922268
-4.55623457346e-05
-0.000273264597453
-3.27715811675e-05
0.000169614649263
0.0115356477919
-0.000160272566272
-2.22972161741e-05
0.011502396139
0.000154037348016
0.0124224481334
-6.33812478889e-05
-0.000318154637369
0.000310785483682
-4.10120446432e-05
0.0115212963596
0.000166922027121
-0.000363246193293
4.67432425892e-05
0.0125082558543
0.00037035555712
-0.000100314159163
-0.0124810594916
0.000382863595899
0.0125531505166
-0.00037563840432
-0.000119117292154
-3.27023539027e-05
0.000173915501529
-0.000170401680747
-0.0115451399793
-5.25696018041e-05
0.000176749863792
0.0115709544351
-0.000349315394335
-0.000105348247957
0.000173309098255
0.00039420767338
0.0125590445016
-0.000115120381821
-0.012488244262
0.000335699318986
4.19639686389e-05
0.0124994982323
-0.000314693000246
0.0125144957658
0.000297382026551
-2.70155337576e-05
0.0114870205518
-7.25677962375e-05
-0.000153670691036
0.0114608214428
0.000127941494758
0.0125254411872
0.000312185629368
0.0114969711426
0.000355298629201
5.19418188469e-05
0.0125268099408
-0.0125430000921
-0.0003734737004
0.000342360265441
0.0125645426989
-0.0115144671822
-6.09246118463e-05
0.0115424813104
-8.66451073024e-05
-0.000158188405679
0.000138225647286
0.000327464523892
0.0125618903026
-0.000219592070527
-0.0125349836225
7.07774189073e-05
0.0125359368624
0.000190810717756
0.0125212869811
0.000208350634794
-0.0125202346966
-4.46851912613e-05
6.33753473981e-05
0.011428251249
-6.28836493505e-05
0.0114302517003
-0.0114667374929
5.66903345331e-05
0.0125211335109
-0.0125369898079
0.000178781845476
0.0114195144193
6.45941460966e-05
-0.000237145599567
0.0125385607927
8.25728651394e-05
0.000204948174069
-0.0125223999728
0.00025282052948
0.0125264833551
-6.36023051347e-05
7.7008996314e-05
-9.54065310585e-05
-0.0114206166315
9.0855561994e-05
0.0114300119377
0.000216301641962