/*--------------------------------*- C++ -*----------------------------------*\
| =========                 |                                                 |
| \\      /  F ield         | OpenFOAM: The Open Source CFD Toolbox           |
|  \\    /   O peration     | Version:  v1906                                 |
|   \\  /    A nd           | Web:      www.OpenFOAM.com                      |
|    \\/     M anipulation  |                                                 |
\*---------------------------------------------------------------------------*/
FoamFile
{
    version     2.0;
    format      ascii;
    class       volScalarField;
    location    "6";
    object      alpha.water;
}
// * * * * * * * * * * * * * * * * * * * * * * * * * * * * * * * * * * * * * //

dimensions      [0 0 0 0 0 0 0];


internalField   nonuniform List<scalar> 
28582
(
0.999998700807
0.999997853565
0.999999053878
0.999997996827
1.00000059673
1.00000054399
1.00000497175
1.00000137495
0.0342543611828
0.0387906744377
3.0482361329e-05
1.00000424106
0.92655380817
0.914881556979
0.999999890586
1.00000122579
0.909920460357
0.999367592721
0.999276585621
0.99999962081
0.999996149814
0.999996330365
0.999999820079
0.999997109461
0.999996848659
1.00000133323
1.00000145914
1.0000039382
1
0.0401901904615
1.31659416511e-05
1.67336933132e-06
1.00000331029
1.00000731275
0.931782525536
0.926310738131
0.999778699717
0.999998388535
1
1.0000058761
0.999327541899
0.885383780235
0.999190824936
0.999123700191
0.0360312902177
0.0387099614958
0.000525595473029
0.000537207666173
0.0375581121646
0.000504751121903
0.999796842688
0.99975553784
0.923623368284
0.929036160469
0.999806931977
0.926205167517
0.999752525902
0.999683778953
0.999582678924
0.919544364988
0.917168685091
0.999603027962
0.922359716004
0.999681827422
0.999462319947
0.999514660986
0.905076731418
0.91163052207
0.999529103882
0.905752807403
0.999461537762
0.999386471642
0.895057838407
0.894529462016
0.999418014558
0.900160506194
0.90016021126
0.999424307028
0.999282332178
0.893160530689
0.891164651347
0.999366007211
0.89913125349
0.999405480102
0.899531105879
0.0328218610533
0.000294486482317
0.0311028099842
0.0327867038134
0.00021112338466
0.000270324952829
0.0402896700952
0.000385285716018
0.000397551787668
0.0423621340953
0.000374036812972
0.0420735203341
0.000392339720016
0.999776643169
0.999812505402
0.930500650948
0.931813774754
0.999782203237
0.999793040637
0.930535537314
0.999746756129
0.999693555625
0.928656872508
0.926558962528
0.99973912679
0.999703085458
0.928693159598
0.929032517462
0.927392038614
0.99976178111
0.999770342652
0.927189432544
0.999757596885
0.929371598443
0.999350333844
0.890838464703
0.890201019039
0.999309124839
0.88767530074
0.999339384555
0.886770248507
0.999285025642
0.999357865401
0.886226171106
0.884390088575
0.999343473754
0.999313492693
0.884949117411
0.999151509565
0.999176358592
0.888718633968
0.886090458586
0.882612388584
0.999180415395
0.885343614317
0.881827816408
0.881845047656
0.999173927229
0.999160867511
0.883552296314
0.99918541986
0.883876729751
1.00000187899
0.999999938189
0.0446778016705
-1.07389360675e-25
1.00000571539
0.925273283051
1.00000651008
1.00000713435
0.885471766352
0.882182096796
0.887388003633
1.00000787012
1.00000713011
0.888873399972
0.891659988485
0.0347429343925
0.0449669210007
0.0459624782304
0.000331996401986
0.00029149791304
0.000157993713062
0.0471372983274
0.0473817742413
0.99968902885
0.999743008523
0.924469337562
0.922344327762
0.999726930955
0.921314080262
0.999705264822
0.999281228201
0.999342231489
0.886043749174
0.884585648808
0.999287521999
0.999307888822
0.88541283074
0.999176143729
0.999194983239
0.88380762144
0.883174465025
0.999180438869
0.884683305321
0.999185706711
0.999179049397
0.999219260328
0.888141784712
0.885119650497
0.999200459546
0.886376475241
0.999185668861
0.999241247675
0.999245398413
0.889300479425
0.890049455554
0.999223317148
0.890632931579
0.99923911855
0.999248623675
0.999256658351
0.892516692211
0.890790743401
0.99926209069
0.89213308494
0.999241777422
1.00000473292
1.00000092904
1.00000547145
1.00000351781
0.0258637149008
0.0268723159342
0.029168162819
0.0297377310968
0.0291436796197
2.89924448494e-07
2.64287338721e-05
6.20385459414e-26
1.51768608332e-05
4.70197740329e-38
1.00177550384e-05
1.00000712716
1.00000924599
0.956915233854
0.952521250376
1.00000926503
0.949503534728
1.00000339397
0.999996345216
0.946676371066
0.933813799456
1.000006034
1.00000122129
1.0000026966
0.944934475225
0.945241143
0.933851901889
0.934873129356
1.00000365917
1.0000054889
0.944886710943
0.940148577961
0.935203880642
0.934957904537
1.00000396114
1.00000375425
0.932177724671
0.93254650735
0.931090443894
1.00000612629
1.00000558571
1.00000633495
0.93293344189
0.933145275096
0.931378480906
0.932126339454
0.931912410214
0.932401122016
0.0226014164369
0.0231479334527
0.0244266071962
3.74025811339e-05
5.03714884371e-05
5.36209396564e-05
6.71550893067e-05
0.000107589073095
0.000372827632602
0.000143373828624
0.000386468354912
0.0250103052758
0.0264560554319
0.0268682705609
0.0278447005028
0.0286553192415
9.09430875132e-05
9.38330072498e-05
0.000121483658359
0.000101323090361
0.0271724220003
0.0283066875011
0.0286516354656
0.00013000569702
0.000280294222365
0.000112533244546
0.000181755861601
0.0297802945108
0.0296923929966
0.000127561791658
9.48433121984e-05
8.86262337302e-05
0.0298422860457
0.0299045619879
0.0299444283796
9.8478772113e-05
0.000120786862675
9.17937295564e-05
9.88596513468e-05
0.999997060626
0.999974864098
0.958183190441
0.958335382485
0.999986683328
0.95967978882
0.999999792165
0.999997840577
0.999947424943
0.956897310153
0.955089631655
0.999984094413
0.999983872865
0.958776931994
0.999968213659
0.999944743979
0.953814222087
0.947438368337
0.999955823144
0.999926960615
0.950411278657
0.999866008227
0.999902538025
0.949526028923
0.941669875159
0.999909019005
0.999842973125
0.944377927687
0.999770111536
0.999780384446
0.93805734459
0.936188418737
0.999784896082
0.999768818421
0.939725616215
0.999866440562
0.999874303745
0.944258152639
0.94055445026
0.999882649686
0.999839267934
0.940642685661
0.999889287872
0.99992749784
0.944648245522
0.941433310756
0.9999138633
0.999917680965
0.940912995842
0.999793594738
0.999772132505
0.937603556371
0.934364696974
0.999805998253
0.999782514011
0.937697633455
0.999806416072
0.999823429539
0.938688926169
0.934704440005
0.999843647724
0.999801488186
0.938104512578
0.999966393603
0.99994424824
0.943908016444
0.941592024403
0.999957616207
0.9999605202
0.941488736362
0.999958384628
0.999958916166
0.942038694269
0.939764070134
0.999960999938
0.940827246448
0.99992319317
0.999937853147
0.999860041952
0.939035829908
0.935525142092
0.999906512238
0.999899060438
0.938930725892
0.999933361874
0.999888218902
0.93709853053
0.935447767417
0.999907043738
0.938124289336
0.999909706523
0.99979095
0.999777170996
0.932310828808
0.930912233868
0.999770076551
0.99980057072
0.930742585026
0.999786607886
0.999798929247
0.932490589152
0.931264171504
0.999778157505
0.999793582591
0.930992745978
0.999799799916
0.999826684939
0.931030759796
0.931037551685
0.999816346449
0.999818114473
0.930911220096
0.999843572747
0.999836892619
0.933541384865
0.931564174073
0.999874207228
0.999812198061
0.932049659453
0.999856521293
0.999888553531
0.933544657504
0.93245889067
0.999893105342
0.932410833654
0.999863609198
0.999858897714
0.999839631488
0.931229581769
0.931927260607
0.999839311422
0.99984688214
0.931642223748
0.99986583942
0.999864202956
0.932325476982
0.932144753748
0.999860128338
0.932165382633
0.999864141442
0.999874814448
0.999850324643
0.932190262542
0.932752171229
0.999856094199
0.999860679083
0.932957760521
0.999859162307
0.932360103892
0.999857819275
0.999998796459
0.999996474153
0.999995159717
0.999996590034
0.999993357664
0.999992120101
0.999999187645
0.999997729798
0.999997620977
0.999996411395
0.999995847212
0.99999426026
1.00000823549
1.00001459085
1.00001086244
0.999995353759
0.999934065079
0.999899653176
0.999950252
0.99999155454
1.00000353013
1.00000026976
0.999994549026
0.999980961752
0.999985043149
0.99998870206
0.999985789997
0.999986778455
1.00000011601
0.999998890568
0.999995040628
0.999994408254
0.999995588809
0.999997249927
0.999997809172
0.999997694631
0.999999887923
0.999997599692
0.99999478986
0.999994666949
0.999997473988
0.999999300459
0.999999515986
0.999998814387
0.99999726598
0.999998731504
0.999998472119
0.999996949902
1.00003978407
1.0000696024
1.00000687511
0.999808579079
0.999741508777
0.999840326405
0.999971490324
0.999996844333
1.00001760919
1.00003083639
1.00000853297
0.999976805736
0.999893372738
0.999905534981
0.99996812311
0.999997074555
1.0000017563
1.00000162471
1.00000034408
0.999995539354
0.999988345848
0.999988534065
0.999992532638
0.99999813793
1.00000007709
0.999999358072
0.999998652579
0.999998865662
0.999999442384
0.999999748984
0.999999526052
0.999998855247
0.999998510891
0.999999433539
0.999999544239
0.99999941315
1.00003305273
1.00008390647
1.00001314872
0.999846197347
0.999812605649
0.999924606224
0.999993539775
0.999999713336
1.00001371348
1.00005679957
1.00002278516
1.00000173
0.999971065101
0.999970274116
0.999987888366
0.999998684704
1.0000066304
1.00000652431
1.00000511768
1.00000263586
1.00000057389
0.999999679821
0.999999671033
1.00000035607
1.00000113971
1.00000106768
1.00000102015
1.00000083844
1.0000011299
1.00000152013
1.00000153255
1.00000111915
1.00000109152
1.00000137163
1.00000146318
1.00000181834
1.000002007
1.00000194793
1.00000165164
1.00000177536
1.00000175235
1.000001468
1.00000149001
1.00002134166
1.00008530537
1.00007316936
1.00002001437
0.999917131633
0.999970364362
0.99999788779
0.999997623413
1.00001405812
1.00001638389
1.00001675384
1.00001369734
0.999995518454
0.999990993394
0.999998637558
0.9999997593
0.999999362254
1.00000622976
1.00000643805
1.00000734989
1.00000716384
1.00000448548
0.999997886864
0.999993101839
0.999999800662
1.00000205061
0.999999971544
1.00000341649
1.0000032669
1.00000389078
1.00000322748
0.999999725381
1.00000002267
1.00000236346
1.00000212075
1
1.00000029709
1.00000121573
0.999999859327
1.00000031656
1.0000009853
1.00000056419
0.999999996432
0.999999298261
0.999999981707
0.999999319397
0.0327681845215
0.0341885133629
0.038468106022
0.0440939290874
0.0469729915633
0.0519162976353
0.0536331905766
0.0545374513009
0.0277352803667
0.0289572540514
0.0321013173396
0.0340176125076
0.0388539750624
0.0454751434525
0.0478418775653
0.0525047638825
0.0542461361499
0.0547275030957
0.0300384097488
0.0295133536496
0.0300079751845
0.0327952497613
0.0381658154815
0.0437305595235
0.0476172824297
0.0522052379239
0.0527854329548
0.0536472676452
0.0294438851738
0.0303292680818
0.0333578034003
0.0390221660443
0.0414187581979
0.044861452138
0.0486593149955
0.0495673286919
0.0516105157075
0.0347331910156
0.0387306851939
0.0400623453041
0.043716326312
0.0464862359971
0.0473079324258
0.0489928335465
0.0465960771616
0.0471793668881
0.0472012089031
1.52352524798e-05
1.63115963313e-06
2.59441455819e-06
6.59085113352e-06
2.18450858726e-05
5.35068259689e-05
2.60081817564e-05
-2.74082514078e-28
-4.06791824165e-25
8.21306254755e-05
1.16173862411e-05
3.07824807486e-06
8.17664755704e-07
3.76794386655e-06
2.55839818398e-05
5.62090912861e-05
8.87005935357e-05
-1.63007930861e-26
-6.77578728482e-26
9.75108757838e-05
2.17779530183e-05
2.53710594645e-06
4.71002226852e-07
1.600287795e-06
7.57396432649e-06
3.22212055467e-06
4.98634650785e-05
0
-6.02115877061e-28
6.38159923859e-05
2.86862460644e-07
1.75284241899e-06
5.74370872661e-06
4.7863152697e-06
1.22415850894e-06
4.38876388227e-05
0
-2.49427602943e-26
5.15119414969e-05
1.84186417251e-05
2.98616400725e-05
4.52247304553e-05
4.80649692141e-05
-5.27228001737e-28
-2.97745382641e-27
6.39527426733e-05
-1.18358993208e-26
-4.31842284225e-26
7.47176927034e-05
1.00001148216
1.00000393163
1.00000328616
1.00003080014
1.00005087234
1.0000176783
1.00002828988
1.00001375324
1.00000074858
0.999997640858
1.00005846007
1.00005406477
1.00003193561
1.0000281659
1.00000166352
1.00000155612
1.0000005526
1.00000764027
1.00000617158
1.00000205299
1.00000047193
0.999998508625
0.999999542043
0.999998248894
1.00000236286
1
0.999999393333
0.999998278119
1.00006236715
1.00002332542
1.00005239932
1.00003263747
1.00006483833
1.00002962371
1.00006266478
1.00004945984
1.00006341305
1.00004685189
1.00007746772
1.00005878226
1.00007214399
1.00005199279
1.00002626478
1.00000623967
1.00000438362
1.00001510771
1.00003556647
1.00000696066
1.00001109604
1.00002707167
1.00000133222
0.999999552305
1.00004640556
1.00004418718
1.00001404513
1.00001499235
1.00006993614
1.00003242059
1.00006054269
1.00002403895
1.00006728011
1.00002380236
1.00006865541
1.00006516466
1.00007060944
1.00005606927
1.00008421753
1.00006850633
1.00008972111
1.0000755485
1.00004061902
1.0000126763
1.00002032989
1.00002862372
1.00004380165
1.00001567933
1.00001580259
1.00006029239
1.00002535404
1.00002748314
1.00005406734
1.00005565089
1.00001498035
1.00001459303
0.99998014446
1.00000599459
0.913716453262
0.91571497623
1.00006185887
1.00002839988
1.00004769905
0.913810487581
0.917177255022
0.915578389962
0.917755206306
1.00008870858
1.00006068864
1.00006356013
0.918663883376
0.920183759248
0.919086380433
0.919593015772
1.00005843286
1.00006498456
1.00005105464
0.921230044734
0.908435826445
0.916500023885
0.892669162047
0.999968915936
1.00001897151
0.999999627015
0.895483717818
0.863943661549
0.88175406773
0.861689708965
0.999933964191
0.999986056159
0.999980045013
0.866292505972
0.876623950294
0.863701979182
0.873896255528
0.999993729485
0.999983921661
0.999987994838
0.878373234751
0.884061388341
0.876022101497
0.881454275827
0.999997929149
0.999992293644
0.999995108532
0.884041129274
0.883379197942
0.881329896207
0.877389032056
0.999998257758
0.999998765052
1.00000390359
0.881980131683
0.855374396878
0.87565809907
0.85388614114
1.00000568907
1.00000918063
0.938302835446
0.929516105937
0.934088548006
0.931674907407
1.00001606941
1.00001322947
1.00001503245
0.926459424692
0.917291998808
0.930284898278
0.925670875029
1.00001746684
1.00001687686
1.00001682195
0.91704379669
0.918626330303
0.924746297891
0.923996145864
1.00001707067
1.00001764401
1.00001583388
0.919986581961
0.921205702241
0.924309850087
0.925566824864
1
1.00001231141
1.00000117779
0.917614721455
0.892938474402
0.921957153772
0.894769758466
0.999991386048
0.999997498292
0.999987164452
0.882121461859
0.863137250032
0.884731180652
0.86832348898
0.999997015882
0.999992022836
0.999998120401
0.864721148844
0.87356585976
0.868602513657
0.874753720726
1.00000032453
1.0000024636
1.00000437238
0.875670577494
0.880577989446
0.876440092656
0.881374088549
0.999997220524
1.00000311484
1.00000154241
0.880577722042
0.875827870972
0.881547613875
0.876012211066
1.00000280074
0.999999919088
1.00000094461
0.874316171841
0.855136973261
0.874255670757
0.856197385551
1.00000587273
1.00000593705
1.00000527465
0.932405246776
0.9313195132
0.931927270773
0.931509903475
1.00000737477
1.00000515574
1.00000625212
0.930547142213
0.927957344339
0.931060840376
0.930862597181
1.00000944064
1.00000812288
1.00000853867
0.927151737886
0.925478055923
0.930518035907
0.928521182103
1.00001023611
1.00000887576
1.00000870633
0.925499568165
0.925945856056
0.928102931151
0.923951884245
1.0000002732
1.00000538156
0.999999966586
0.922592909021
0.895000931186
0.9185945757
0.893695645494
0.999995907174
0.999999659702
0.999995967523
0.885090154027
0.869444866174
0.885174282911
0.875830092564
0.999997994113
1.00000197828
1.00000312231
0.869578493677
0.875347419974
0.876401863536
0.882701773441
1.00000177503
1.00000552733
1.00000696591
0.877070079497
0.882191127798
0.884092585335
0.887561011406
1.00000118866
1.00000562521
1.00000507911
0.88232766851
0.878301887242
0.887459782997
0.884066348158
1.00000097091
1.00000202689
1.00000153528
0.876124766692
0.85595600063
0.881480631673
0.859058289587
0.932307264354
0.932095211026
1.00000361666
1.00000745503
0.93187424069
0.931351237387
0.932471369284
1.00000551331
1.00000700028
1.00000731858
0.931104100009
0.929264567643
0.932039314538
0.92695880317
1.00000547135
1.00000570796
1.00000410488
0.928625417934
0.920264770043
0.924075055325
0.913951882167
0.999999821325
1.00000033756
0.999999001703
0.915124017916
0.893252291872
0.909593456206
0.893357259081
1.00000074776
1.00000008786
1.00000037898
0.886431237151
0.878907565775
0.888995602281
0.884759771659
1.00000331225
1.00000626625
1.00000563378
0.879475743163
0.884873017765
0.885204499605
0.889780085352
1.00000291193
1.00000578892
1.00000671667
0.886050466717
0.889100466688
0.89080520437
0.893250904486
1.00000182692
1.00000571091
1.00000546267
0.889001266601
0.886417428517
0.892969191067
0.88801355796
1.00000037718
1.00000349241
1.00000168753
0.883690763508
0.861072236467
0.885787273661
0.866130230742
1.00000067119
1.00000457643
0.92361236359
0.913495017037
0.913720134541
0.999999807643
1.0000031781
1.00000081246
0.909099447526
0.89285641715
0.908937676229
0.894854995779
1.0000012514
1.00000200288
1.00000353354
0.889085819207
0.885615085931
0.891072978473
0.886250971203
1.00000148788
1.00000454341
1.00000281122
0.886006883635
0.89037038729
0.886336171455
0.890053367964
1.0000007435
1.00000254106
1.0000040329
0.891408246625
0.893705906997
0.891026111901
0.89368583476
1.00000025007
1.00000380384
1.00000334417
0.893380360815
0.888699652787
0.893128591806
0.88900955662
1.00000053986
1.0000031941
1.00000171566
0.887587221639
0.86940324866
0.889528666149
0.876934058777
0.999999260008
0.889245107211
1
0.890460411856
0.89351566282
1.00000057521
0.892942364944
0.889477507971
1.00000049179
0.89071919973
0.878862579612
0.000382437792757
0.000298161463903
0.0003894587649
0.00027751479325
0.0315194416497
0.0312637005979
0.000141434452533
2.65557259629e-05
0.000108639339804
4.15041413464e-05
0.0335886648417
0.0327157222997
0.0336955534061
4.58572839545e-05
0.000139994986558
3.86798819064e-05
0.000111491727983
0.0357236414116
0.0343678144244
0.036235160294
0.000195941638077
0.000211657498436
0.000214570326607
0.000285356014179
0.0416986646393
0.0397524109038
0.0428798707902
0.000312870127337
0.000562252077839
0.000443717068695
0.000643681998441
0.0457970996522
0.0453048953728
0.0466331849379
0.000803077676465
0.000947411552671
0.000870677178273
0.00107233786544
0.0489587234583
0.047640085043
0.049748126625
0.000729203946928
0.00029210609304
0.000951225653833
0.000358111951519
0.0524017768767
0.052399535095
0.0530196521118
8.13935119847e-05
5.99207855986e-05
8.57339432862e-05
6.77069529859e-05
0.0539945164881
0.0541497495309
0.0547305422429
7.39558134428e-05
8.73162097395e-05
8.76212752489e-05
0.000106363419165
0.0535922384225
0.0548924469611
0.0536036225508
0.000247461412404
0.00158936368061
0.000300493706002
0.00179015294619
0.0287510408863
0.0290520167477
0.0290117205971
0.000311225042556
0.000222072333496
0.000278087061314
0.000242589187454
0.0308319409055
0.0292454905645
0.030019982303
0.00011867184266
7.45888936153e-05
0.00016988961767
0.000102612027156
0.0330490490919
0.0309471005428
0.0318969479523
2.69452186305e-05
2.49282041905e-05
4.87054288114e-05
2.28376721231e-05
0.0356718822682
0.0332228070675
0.034972117231
8.01635017158e-05
0.000271800852578
3.3938971301e-05
0.000132229556128
0.0422984748382
0.0382652415807
0.0416965340518
0.000475195498991
0.000655277167519
0.000447112895152
0.000644680462016
0.0471028686266
0.0446667933566
0.0464119972112
0.000894723743042
0.00110424040022
0.000805905620681
0.000947198283733
0.050133950773
0.0479318524045
0.0501914189754
0.00129770153426
0.000469274776321
0.00126425692755
0.000471966253011
0.0532093152896
0.0525636699897
0.0530009948942
8.99920150734e-05
7.30562263226e-05
8.80545283611e-05
7.21671080837e-05
0.0548265275302
0.0538041146088
0.0543098432058
9.57603024747e-05
0.000122022508246
9.63875438919e-05
0.000119457808671
0.0531735828777
0.0542538448182
0.0527689511998
0.000362482743594
0.00200259380544
0.00036597783348
0.00205558381853
0.0297167595297
0.0300671412948
0.0298776750208
0.000220711020874
0.00030097298397
0.000153254522479
0.000250535006293
0.0294645634686
0.0296567466816
0.0295624587808
0.000223512603936
0.000118166657189
0.000212960769868
0.000126433236679
0.0313155669697
0.030024937988
0.0312304727809
4.88866678134e-05
2.64667353792e-05
6.29713347493e-05
3.99964648128e-05
0.0348059367411
0.0328872516981
0.0353721687331
2.47462721671e-05
8.3634797059e-05
3.6108068519e-05
0.000165962818897
0.0409792205173
0.0386207839203
0.0405114385625
0.000349802290112
0.000529784651967
0.000325800841167
0.000490638228877
0.0455614866525
0.0425591063625
0.0441387565799
0.000546189335823
0.00058297358179
0.000507953208978
0.000505120373068
0.0497693754155
0.0463250496662
0.0482726388358
0.000905074004431
0.000364856798876
0.000749863254818
0.000294949438512
0.0522219467332
0.0506098632037
0.0506684921628
7.13492170388e-05
5.62203274446e-05
5.45906408973e-05
4.31432060552e-05
0.0533743486898
0.0512046432658
0.0520556403272
7.74580994727e-05
9.31523652762e-05
5.87115943575e-05
7.05158452504e-05
0.0531884554605
0.0526832224648
0.0526228652901
0.000273590881239
0.00152264894526
0.000224520027266
0.00134935513299
0.0296600828707
0.0298554742581
0.000175322942877
0.000101583041824
0.00012210901174
0.0314086362697
0.0306805115742
0.0321860968239
7.01324064125e-05
6.28669764357e-05
0.000143722584195
0.000199829372633
0.0363671695867
0.0342784913758
0.0369883963299
0.000169266905192
0.00028994010617
0.0002766816061
0.000345541817401
0.0402956421059
0.0390825433498
0.0398717234154
0.000358801486962
0.000468250089367
0.000391142107885
0.00045539705261
0.0428079666046
0.0405334058273
0.041962927386
0.000456952703677
0.000449836125228
0.000417091640481
0.000427830611837
0.0466156839155
0.0439078427363
0.045648471941
0.000710520525489
0.000285421767092
0.000739251683651
0.000309453260405
0.0489261504132
0.0471819504773
0.0474564478974
4.86919183701e-05
3.84337937956e-05
5.9494317646e-05
4.64684158056e-05
0.0505864592287
0.0481046889549
0.0493806241578
4.81627147974e-05
5.75901773749e-05
5.84267813663e-05
7.87378455566e-05
0.0523545055147
0.0503100441179
0.0514474112444
0.000188749996785
0.00116734847475
0.000194769870651
0.0010990893624
0.0369852217434
0.0366673519607
0.000333370126776
0.000396401160937
0.000347434751181
0.000415626850246
0.0395526729831
0.0381321320732
0.0390600894718
0.00045772106195
0.000568534188285
0.000517126542066
0.000597516267116
0.041572656521
0.0397926928838
0.0415647664311
0.000628906807111
0.000713356093815
0.000696264169859
0.000807351522102
0.0452136554059
0.0440119494356
0.0451565191364
0.000860367027679
0.000384188700976
0.000782071620649
0.000403722559691
0.046726984573
0.0463174551599
0.0464602082675
8.17518291684e-05
5.75262939871e-05
0.000113744207383
7.82876954115e-05
0.0483748662163
0.0470102972178
0.047670868458
7.29224759016e-05
9.49343073871e-05
0.000109297727487
0.000124738404975
0.0496591786397
0.0478783539504
0.0480137300207
0.00020515306954
0.00125666963419
0.000267641238624
0.00136955176305
0.0455372441684
0.000190217025455
0.0467044741429
0.000120222317715
9.03364529707e-05
0.000101793961304
8.4870180848e-05
0.0475697745544
0.000120907544681
0.000139536674264
0.00012699658129
0.000175612793002
0.047038942279
0.000279820654652
0.00160042189031
0.000367490829685
0.00163225716207
0.999989014454
0.999940452001
0.913644275136
0.913622728219
0.999959714819
0.914206828103
0.99996888938
0.999957283453
0.999943965511
0.914382406515
0.918166008272
0.999928100639
0.999990121197
0.915863947969
0.999887123891
0.999909985254
0.914209250025
0.913861515247
0.999922889953
0.914630112227
0.999889384928
0.999883012192
0.999882429895
0.915349646359
0.916875860982
0.999886152985
0.915544544583
0.999883835128
0.999859120878
0.9998910088
0.914464926135
0.915859966447
0.999886984353
0.999874463358
0.915092733469
0.999857920412
0.999848660872
0.917261166442
0.91647957168
0.99985968793
0.999862596332
0.915925885295
0.999849572578
0.99987977041
0.918610052609
0.918115119669
0.99988256599
0.917987752128
0.999846661786
0.999769968873
0.999682410289
0.919383140304
0.919609498392
0.999675398511
0.918997609862
0.999743506944
0.99987635398
0.999854616869
0.918385229496
0.919968879244
0.999869932949
0.999861220465
0.918580096636
0.999834048587
0.999760779642
0.919139714232
0.920607191426
0.999757833142
0.999844483312
0.919048695447
0.99966110073
0.999695623255
0.922364012805
0.920072158582
0.999633662857
0.918581113567
0.999749620612
0.999618695542
0.999667559394
0.917614115208
0.902857035419
0.999480490738
0.912223033299
0.999744682643
0.999510769845
0.999639469771
0.917401409263
0.911043602593
0.99964393949
0.999447411396
0.913592578752
0.999451553252
0.999058794858
0.896596441463
0.902878240442
0.999316774587
0.999254506112
0.906451591276
0.999116555485
0.99946692848
0.88103280806
0.890113679397
0.999313116714
0.877080092503
0.999219063705
0.998914111136
0.998936594144
0.871138163774
0.861589559593
0.998877207543
0.86800362201
0.998956250927
0.998932917225
0.99887717354
0.884927907378
0.871282472906
0.999138446951
0.998684161995
0.873628685846
0.998707528354
0.998591611282
0.86163126846
0.865016038775
0.998632616976
0.99852718988
0.866500190171
0.998921200807
0.998889421245
0.870524588846
0.863916057298
0.998875787445
0.868438923489
0.998944189859
0.999018211878
0.999167328901
0.873898129919
0.875266034409
0.999114888997
0.872308878852
0.999088520263
0.998758798142
0.998617333448
0.863670661255
0.867538986013
0.998663636561
0.998688811751
0.867676619472
0.998919436037
0.998974052614
0.874298794785
0.870927767508
0.999075407117
0.998844417667
0.871285312371
0.999057457633
0.999141438751
0.880679119123
0.877112355935
0.999096120172
0.87953684808
0.999086331196
0.999017393114
0.999065032095
0.882737748056
0.882889756922
0.998988177394
0.881691981913
0.999070784168
0.999061240783
0.998984309851
0.876304052148
0.878677815961
0.999076027959
0.998984712454
0.878842580656
0.999041215129
0.999013024348
0.882026952638
0.880719756799
0.999024356452
0.999007969761
0.880976715277
0.998771846517
0.999016051141
0.884495470335
0.882969184634
0.998908847744
0.883371203307
0.998901944602
0.998674609033
0.99886082677
0.884371287287
0.88217003998
0.998604235818
0.883179277468
0.998861228509
0.998852361481
0.998983278477
0.881995004458
0.881664664218
0.998964900696
0.998896552245
0.882444113435
0.998811215934
0.998762755238
0.879324890774
0.880022518555
0.99874879237
0.998843841784
0.881350535405
0.998271809162
0.998815948736
0.875319723483
0.880839469159
0.99851791532
0.874223025273
0.998600313969
0.997615015591
0.998245723715
0.850329707178
0.854641831626
0.8496209592
0.997989891283
0.997946379431
0.998398873446
0.998655587252
0.877768936583
0.869265475383
0.998656066416
0.998380116385
0.871154067729
0.997828406978
0.998154972688
0.855567600987
0.845325262361
0.997785497147
0.847079301909
0.998170815042
0.999923509544
0.999963336539
0.936715852611
0.937734555929
0.999976487849
0.936069248279
0.999921265329
0.999926320921
0.999980519107
0.933467979976
0.931366228695
0.999996473036
0.999941009425
0.934267633414
0.999897590405
0.999845838006
0.936322348054
0.933440137444
0.999834812763
0.935322607479
0.999896432271
0.999902525348
0.99985678363
0.931480378492
0.932731701968
0.9998923241
0.999840453512
0.933953410458
0.999924611954
0.999961999807
0.923421768771
0.928061488575
0.999964623523
0.999938790352
0.925237567803
0.999906414341
0.999880744901
0.919938497811
0.920005316516
0.999954873685
0.999851231765
0.922639780478
0.999894617697
0.999858536376
0.928779025542
0.928364136254
0.999892742397
0.999859328328
0.926659076892
0.999868322276
0.999867029805
0.922637048447
0.926663089282
0.999827275467
0.999871827312
0.924885783103
0.999803324678
0.999810861827
0.917225269722
0.919271665371
0.999803657485
0.999804365013
0.919393772142
0.999806260171
0.999815587402
0.917653902283
0.920219507376
0.999807286128
0.999808556088
0.919740040559
0.999802613911
0.999855294002
0.921809705149
0.923900341308
0.999801486734
0.999850773049
0.921848590659
0.999801890383
0.99985610843
0.922280302226
0.9238491081
0.999803706072
0.99985621472
0.92201971471
0.999810001806
0.999824006777
0.921728168796
0.920946386578
0.999849016474
0.999811052826
0.922014064631
0.999800591838
0.999808222148
0.922342476305
0.923067093831
0.999844918044
0.999778388995
0.92353588306
0.999796405887
0.999845407755
0.922667854657
0.924671335908
0.999802164219
0.999829013139
0.923367261162
0.999793419938
0.999826362885
0.924825031417
0.925110852777
0.999789680835
0.999838302163
0.924371786102
0.999533404839
0.999700290762
0.911848071497
0.91928915196
0.999482186208
0.999710366255
0.912533970897
0.999260749754
0.998870570594
0.903171787802
0.892913807762
0.999213234918
0.998912384755
0.903535749154
0.999616512153
0.999783134618
0.92104823032
0.915237622855
0.999745090187
0.999674671659
0.913678890267
0.999419859471
0.999262727906
0.893888168304
0.905510321783
0.999127043087
0.999504811834
0.90426701978
0.99830108222
0.998572477658
0.872108148655
0.882794448908
0.998340587217
0.998571703035
0.873247192986
0.998115539971
0.99828291353
0.866243334503
0.864213761375
0.99820706246
0.998167534839
0.867541152469
0.998578291964
0.99899982249
0.884162080474
0.876084693695
0.998835036147
0.99873031323
0.875339241081
0.998346527915
0.998458256421
0.866455176512
0.871390577256
0.998367964533
0.998494711638
0.869897550032
0.998380116806
0.998382002065
0.867912300408
0.865454683268
0.998515456247
0.9982442901
0.868471141446
0.998516398757
0.998787303008
0.870900147555
0.873775137466
0.99865558979
0.998669751322
0.87130142864
0.998420489482
0.998422411187
0.867165204389
0.870258052702
0.998377722062
0.998438549125
0.86948784564
0.998510001422
0.998613305091
0.874056824448
0.872490420838
0.998635509153
0.998504281405
0.871915516289
0.998839371771
0.998856079283
0.878304935344
0.875639493183
0.998909336286
0.998763553732
0.878175123947
0.998905672853
0.998976212511
0.880072960351
0.880631152722
0.998969438214
0.998973265974
0.879938801169
0.998829605751
0.998714358079
0.875815400128