/*--------------------------------*- C++ -*----------------------------------*\
| =========                 |                                                 |
| \\      /  F ield         | OpenFOAM: The Open Source CFD Toolbox           |
|  \\    /   O peration     | Version:  v1906                                 |
|   \\  /    A nd           | Web:      www.OpenFOAM.com                      |
|    \\/     M anipulation  |                                                 |
\*---------------------------------------------------------------------------*/
FoamFile
{
    version     2.0;
    format      ascii;
    class       volVectorField;
    location    "6";
    object      force.turbine;
}
// * * * * * * * * * * * * * * * * * * * * * * * * * * * * * * * * * * * * * //

dimensions      [1 -2 -2 0 0 0 0];


internalField   nonuniform List<vector> 
28582
(
(0 0 0)
(0 0 0)
(0 0 0)
(0 0 0)
(0 0 0)
(0 0 0)
(0 0 0)
(0 0 0)
(0 0 0)
(0 0 0)
(0 0 0)
(0 0 0)
(0 0 0)
(0 0 0)
(0 0 0)
(0 0 0)
(0 0 0)
(0 0 0)
(0 0 0)
(0 0 0)
(0 0 0)
(0 0 0)
(0 0 0)
(0 0 0)
(0 0 0)
(0 0 0)
(0 0 0)
(0 0 0)
(0 0 0)
(0 0 0)
(0 0 0)
(0 0 0)
(0 0 0)
(0 0 0)
(0 0 0)
(0 0 0)
(0 0 0)
(0 0 0)
(0 0 0)
(0 0 0)
(0 0 0)
(0 0 0)
(0 0 0)
(0 0 0)
(0 0 0)
(0 0 0)
(0 0 0)
(0 0 0)
(0 0 0)
(0 0 0)
(0 0 0)
(0 0 0)
(0 0 0)
(0 0 0)
(0 0 0)
(0 0 0)
(0 0 0)
(0 0 0)
(0 0 0)
(0 0 0)
(0 0 0)
(0 0 0)
(0 0 0)
(0 0 0)
(0 0 0)
(0 0 0)
(0 0 0)
(0 0 0)
(0 0 0)
(0 0 0)
(0 0 0)
(0 0 0)
(0 0 0)
(0 0 0)
(0 0 0)
(0 0 0)
(0 0 0)
(0 0 0)
(0 0 0)
(0 0 0)
(0 0 0)
(0 0 0)
(0 0 0)
(0 0 0)
(0 0 0)
(0 0 0)
(0 0 0)
(0 0 0)
(0 0 0)
(0 0 0)
(0 0 0)
(0 0 0)
(0 0 0)
(0 0 0)
(0 0 0)
(0 0 0)
(0 0 0)
(0 0 0)
(0 0 0)
(0 0 0)
(0 0 0)
(0 0 0)
(0 0 0)
(0 0 0)
(0 0 0)
(0 0 0)
(0 0 0)
(0 0 0)
(0 0 0)
(0 0 0)
(0 0 0)
(0 0 0)
(0 0 0)
(0 0 0)
(0 0 0)
(0 0 0)
(0 0 0)
(0 0 0)
(0 0 0)
(0 0 0)
(0 0 0)
(0 0 0)
(0 0 0)
(0 0 0)
(0 0 0)
(0 0 0)
(0 0 0)
(0 0 0)
(0 0 0)
(0 0 0)
(0 0 0)
(0 0 0)
(0 0 0)
(0 0 0)
(0 0 0)
(0 0 0)
(0 0 0)
(0 0 0)
(0 0 0)
(0 0 0)
(0 0 0)
(0 0 0)
(0 0 0)
(0 0 0)
(0 0 0)
(0 0 0)
(0 0 0)
(0 0 0)
(0 0 0)
(0 0 0)
(0 0 0)
(0 0 0)
(0 0 0)
(0 0 0)
(0 0 0)
(0 0 0)
(0 0 0)
(0 0 0)
(0 0 0)
(0 0 0)
(0 0 0)
(0 0 0)
(0 0 0)
(0 0 0)
(0 0 0)
(0 0 0)
(0 0 0)
(0 0 0)
(0 0 0)
(0 0 0)
(0 0 0)
(0 0 0)
(0 0 0)
(0 0 0)
(0 0 0)
(0 0 0)
(0 0 0)
(0 0 0)
(0 0 0)
(0 0 0)
(0 0 0)
(0 0 0)
(0 0 0)
(0 0 0)
(0 0 0)
(0 0 0)
(0 0 0)
(0 0 0)
(0 0 0)
(0 0 0)
(0 0 0)
(0 0 0)
(0 0 0)
(0 0 0)
(0 0 0)
(0 0 0)
(0 0 0)
(0 0 0)
(0 0 0)
(0 0 0)
(0 0 0)
(0 0 0)
(0 0 0)
(0 0 0)
(0 0 0)
(0 0 0)
(0 0 0)
(0 0 0)
(0 0 0)
(0 0 0)
(0 0 0)
(0 0 0)
(0 0 0)
(0 0 0)
(0 0 0)
(0 0 0)
(0 0 0)
(-0.0018843033647 3.2698776669e-05 0)
(0 0 0)
(0 0 0)
(0 0 0)
(0 0 0)
(-2.60768155245e-05 2.69021746641e-07 0)
(0 0 0)
(-2.64381712652e-06 2.70261196442e-08 0)
(0 0 0)
(0 0 0)
(0 0 0)
(0 0 0)
(0 0 0)
(0 0 0)
(0 0 0)
(0 0 0)
(0 0 0)
(0 0 0)
(0 0 0)
(0 0 0)
(-0.0208342747471 -5.62436173462e-05 0.000652920464953)
(0 0 0)
(0 0 0)
(0 0 0)
(-0.0299487822215 0.000618727036865 0)
(0 0 0)
(0 0 0)
(-0.264317089201 -0.0310835344381 0.0407690065776)
(-2.16582698115 -0.281466869325 0.364571177362)
(-0.0813787372483 0.00168124448563 0)
(-1.25671457871 -0.0502990541195 0.0849333861327)
(-0.00604672538064 6.29526820825e-05 0)
(-0.0805245211592 0.00166359680348 0)
(0 0 0)
(0 0 0)
(0 0 0)
(0 0 0)
(0 0 0)
(-0.0161284888316 0.000454152941422 0)
(0 0 0)
(0 0 0)
(0 0 0)
(-0.0295659457916 0.00061081782546 0)
(0 0 0)
(0 0 0)
(0 0 0)
(0 0 0)
(0 0 0)
(0 0 0)
(0 0 0)
(0 0 0)
(-1.55287604444e-05 1.60823164147e-07 0)
(0 0 0)
(-9.56881946338e-06 9.90992055526e-08 0)
(-0.000137679981979 1.97069495307e-06 0)
(-0.00076447924546 1.09424432593e-05 0)
(-8.61992158497e-05 1.23382032152e-06 0)
(-0.000468279169744 6.70275651677e-06 0)
(0 0 0)
(0 0 0)
(-0.000203082270545 2.1094179578e-06 0)
(0 0 0)
(0 0 0)
(0 0 0)
(0 0 0)
(0 0 0)
(0 0 0)
(-0.00853578114233 0.000148123495663 0)
(-0.000418501165831 6.13850595779e-06 0)
(-0.00200458345894 3.47860265318e-05 0)
(-3.05697722103e-05 3.98462300119e-07 0)
(-0.000159101158982 2.27730891975e-06 0)
(-3.95939418626e-06 4.04744563923e-08 0)
(-3.19667455467e-05 4.16671176686e-07 0)
(0 0 0)
(0 0 0)
(0 0 0)
(0 0 0)
(0 0 0)
(-0.000224752687035 2.33450883143e-06 0)
(0 0 0)
(0 0 0)
(0 0 0)
(0 0 0)
(0 0 0)
(0 0 0)
(0 0 0)
(0 0 0)
(0 0 0)
(0 0 0)
(0 0 0)
(0 0 0)
(0 0 0)
(0 0 0)
(0 0 0)
(0 0 0)
(0 0 0)
(0 0 0)
(0 0 0)
(0 0 0)
(-0.00525531790341 5.47982107362e-05 0)
(0 0 0)
(0 0 0)
(0 0 0)
(0 0 0)
(0 0 0)
(-0.00478568891918 4.98239847373e-05 0)
(0 0 0)
(0 0 0)
(0 0 0)
(0 0 0)
(0 0 0)
(0 0 0)
(0 0 0)
(0 0 0)
(0 0 0)
(0 0 0)
(0 0 0)
(0 0 0)
(0 0 0)
(0 0 0)
(0 0 0)
(0 0 0)
(0 0 0)
(0 0 0)
(0 0 0)
(0 0 0)
(0 0 0)
(0 0 0)
(-0.0364472091713 0.000852298653956 0)
(-0.00884121726215 0.000143814555116 0)
(-0.0145271464472 0.000236304011254 0)
(-0.010366823758 0.000181402936013 0)
(-0.0195085939092 0.000456198120718 0)
(0 0 0)
(0 0 0)
(0 0 0)
(0 0 0)
(0 0 0)
(0 0 0)
(0 0 0)
(0 0 0)
(0 0 0)
(0 0 0)
(-0.00535608058464 5.576235351e-05 0)
(0 0 0)
(-0.00807312408087 0.000141266837872 0)
(0 0 0)
(0 0 0)
(-0.574641925087 -0.0586108683869 0.0788738183753)
(-0.313911252553 -0.0270735087174 0.037667977316)
(-0.259163714461 -0.00380764041392 0.0100973355268)
(-0.0434071763835 0.0008967708077 0)
(-1.31657503638 -0.147560543279 0.196044876066)
(-0.110792440543 -0.00622038491259 0.0095437987676)
(-0.109054943723 0.00161542829436 0.000685132784547)
(-1.53218274869 -0.16996564891 0.225675651897)
(-5.86992656638 -0.682396058791 0.901739617778)
(-0.693672017568 -0.0293052216141 0.0485309511884)
(-0.607111212438 -0.0169323147171 0.0326763791823)
(-3.48576042776 -0.414285005268 0.545380924982)
(-0.325380312696 -0.00884480807589 0.0172176738014)
(-2.59983852533 -0.281093674469 0.374996449714)
(-0.137825278729 -0.00833157542769 0.0124985539744)
(-0.00914819791205 0.000160078920913 0)
(-0.0204484938049 0.000422455774217 0)
(-0.0203721264051 0.000420878061486 0)
(-0.025049250909 0.000585763445757 0)
(-0.0250490644165 0.000585759084728 0)
(-0.049047902015 0.00101330541101 0)
(-0.424914998789 -0.0364802264904 0.0505632516992)
(-0.16273487643 -0.00540729204615 0.00995148143857)
(-0.221637911204 0.000977384659394 0.00393846801817)
(-0.0431242287767 0.000890925250006 0)
(-0.0770139243439 -0.00171640107449 0.00378203045052)
(-0.107989734654 0.00168297197113 0.00058890541038)
(-0.762899125788 -0.0648653609014 0.090257408932)
(0 0 0)
(0 0 0)
(0 0 0)
(0 0 0)
(0 0 0)
(0 0 0)
(0 0 0)
(0 0 0)
(0 0 0)
(0 0 0)
(0 0 0)
(0 0 0)
(0 0 0)
(0 0 0)
(0 0 0)
(0 0 0)
(0 0 0)
(0 0 0)
(0 0 0)
(0 0 0)
(0 0 0)
(0 0 0)
(0 0 0)
(-0.00532674047665 5.54568925582e-05 0)
(0 0 0)
(-0.00807337058297 0.000141271151267 0)
(0 0 0)
(0 0 0)
(0 0 0)
(-0.0364457910786 0.000852265492612 0)
(-0.0144055470475 0.000234326029823 0)
(-0.00872725474232 0.000141960798037 0)
(-0.019508114914 0.000456186919671 0)
(0 0 0)
(-0.0103663032595 0.000181393828117 0)
(0 0 0)
(0 0 0)
(0 0 0)
(0 0 0)
(0 0 0)
(0 0 0)
(0 0 0)
(0 0 0)
(0 0 0)
(0 0 0)
(0 0 0)
(0 0 0)
(0 0 0)
(0 0 0)
(0 0 0)
(0 0 0)
(0 0 0)
(0 0 0)
(0 0 0)
(0 0 0)
(0 0 0)
(0 0 0)
(0 0 0)
(0 0 0)
(0 0 0)
(0 0 0)
(0 0 0)
(0 0 0)
(0 0 0)
(0 0 0)
(0 0 0)
(0 0 0)
(0 0 0)
(0 0 0)
(0 0 0)
(0 0 0)
(-0.0150293272458 0.000276090150457 0)
(0 0 0)
(0 0 0)
(0 0 0)
(0 0 0)
(0 0 0)
(0 0 0)
(0 0 0)
(-0.00335348043178 6.160374991e-05 0)
(0 0 0)
(0 0 0)
(0 0 0)
(0 0 0)
(0 0 0)
(0 0 0)
(0 0 0)
(0 0 0)
(0 0 0)
(0 0 0)
(0 0 0)
(0 0 0)
(0 0 0)
(0 0 0)
(0 0 0)
(0 0 0)
(0 0 0)
(0 0 0)
(0 0 0)
(0 0 0)
(0 0 0)
(0 0 0)
(0 0 0)
(0 0 0)
(0 0 0)
(0 0 0)
(0 0 0)
(-0.321364957481 0.00823329374369 0)
(-0.00771678694361 0.000141758099579 0)
(0 0 0)
(0 0 0)
(0 0 0)
(0 0 0)
(0 0 0)
(0 0 0)
(-0.070566193433 0.00182497621588 0)
(0 0 0)
(0 0 0)
(0 0 0)
(0 0 0)
(0 0 0)
(0 0 0)
(0 0 0)
(0 0 0)
(0 0 0)
(0 0 0)
(0 0 0)
(0 0 0)
(0 0 0)
(0 0 0)
(0 0 0)
(0 0 0)
(0 0 0)
(0 0 0)
(0 0 0)
(0 0 0)
(0 0 0)
(0 0 0)
(0 0 0)
(0 0 0)
(0 0 0)
(0 0 0)
(0 0 0)
(-1.51167444942 0.0502110297132 0)
(-0.0430527764486 0.00145541705857 0)
(0 0 0)
(0 0 0)
(0 0 0)
(0 0 0)
(0 0 0)
(0 0 0)
(-0.331582550793 0.0108912579883 0)
(-0.00654805041668 0.000240923912139 0)
(0 0 0)
(0 0 0)
(0 0 0)
(0 0 0)
(0 0 0)
(0 0 0)
(0 0 0)
(0 0 0)
(0 0 0)
(0 0 0)
(0 0 0)
(0 0 0)
(0 0 0)
(0 0 0)
(0 0 0)
(0 0 0)
(0 0 0)
(0 0 0)
(0 0 0)
(0 0 0)
(0 0 0)
(0 0 0)
(0 0 0)
(0 0 0)
(0 0 0)
(0 0 0)
(0 0 0)
(0 0 0)
(0 0 0)
(0 0 0)
(0 0 0)
(0 0 0)
(0 0 0)
(-2.57681344872 0.0707668078973 0)
(-0.0778179958382 0.00213710898054 0)
(0 0 0)
(0 0 0)
(0 0 0)
(0 0 0)
(0 0 0)
(0 0 0)
(-2.58150052471 0.0702558923832 0.000652925698781)
(-0.574961949859 0.0157901309752 0)
(-0.0161286600653 0.000454157763094 0)
(0 0 0)
(0 0 0)
(0 0 0)
(0 0 0)
(0 0 0)
(0 0 0)
(-0.047195272119 0.00129611973167 0)
(-0.0778118652102 0.00213694061563 0)
(-0.0161285085466 0.000454153496564 0)
(0 0 0)
(0 0 0)
(0 0 0)
(0 0 0)
(0 0 0)
(0 0 0)
(0 0 0)
(0 0 0)
(0 0 0)
(0 0 0)
(0 0 0)
(0 0 0)
(0 0 0)
(0 0 0)
(0 0 0)
(0 0 0)
(0 0 0)
(0 0 0)
(0 0 0)
(0 0 0)
(0 0 0)
(0 0 0)
(0 0 0)
(0 0 0)
(0 0 0)
(0 0 0)
(-0.0461127455436 0.000800470447767 0)
(-0.00144285787764 2.50382652762e-05 0)
(0 0 0)
(0 0 0)
(0 0 0)
(0 0 0)
(0 0 0)
(0 0 0)
(-0.0238005478029 0.000413153346917 0)
(-0.040909036972 0.000710139349906 0)
(-0.0100290263615 0.000174036144788 0)
(-0.000255176558017 2.65052194092e-06 0)
(0 0 0)
(0 0 0)
(0 0 0)
(0 0 0)
(0 0 0)
(0 0 0)
(-0.000730759765799 1.07186635124e-05 0)
(-0.00125117248242 2.17119017794e-05 0)
(-0.000225959995021 2.34704915384e-06 0)
(0 0 0)
(0 0 0)
(0 0 0)
(0 0 0)
(0 0 0)
(0 0 0)
(0 0 0)
(0 0 0)
(0 0 0)
(0 0 0)
(0 0 0)
(0 0 0)
(0 0 0)
(0 0 0)
(0 0 0)
(0 0 0)
(0 0 0)
(0 0 0)
(0 0 0)
(0 0 0)
(0 0 0)
(0 0 0)
(0 0 0)
(0 0 0)
(0 0 0)
(0 0 0)
(-0.000199516626536 2.29989983803e-06 0)
(-0.000196849514813 2.26915508294e-06 0)
(-2.54727291211e-05 2.6278968279e-07 0)
(0 0 0)
(0 0 0)
(0 0 0)
(0 0 0)
(0 0 0)
(0 0 0)
(0 0 0)
(-2.5701418451e-05 2.65148958711e-07 0)
(-2.54849919949e-05 2.62916192859e-07 0)
(-2.60651110083e-06 2.6644763043e-08 0)
(0 0 0)
(0 0 0)
(0 0 0)
(0 0 0)
(0 0 0)
(0 0 0)
(0 0 0)
(0 0 0)
(0 0 0)
(0 0 0)
(0 0 0)
(0 0 0)
(0 0 0)
(0 0 0)
(0 0 0)
(0 0 0)
(0 0 0)
(0 0 0)
(0 0 0)
(0 0 0)
(0 0 0)
(0 0 0)
(0 0 0)
(0 0 0)
(0 0 0)
(0 0 0)
(0 0 0)
(0 0 0)
(0 0 0)
(0 0 0)
(0 0 0)
(0 0 0)
(0 0 0)
(0 0 0)
(0 0 0)
(0 0 0)
(-0.00335350707197 6.16042392928e-05 0)
(-0.0091157085761 0.000167456421112 0)
(-0.0020339882029 3.73645539672e-05 0)
(-0.086604175155 0.00191883989201 0)
(-0.0177558084952 0.000326175866607 0)
(-0.0525273989371 0.00116381996969 0)
(-0.0107691992957 0.000197831200641 0)
(0 0 0)
(0 0 0)
(0 0 0)
(-0.00240300558581 4.41434378856e-05 0)
(0 0 0)
(0 0 0)
(0 0 0)
(0 0 0)
(0 0 0)
(0 0 0)
(-0.0177550416825 0.000326161780186 0)
(-0.00396167948144 7.27764234691e-05 0)
(-0.00396166318134 7.27761240346e-05 0)
(0 0 0)
(0 0 0)
(0 0 0)
(0 0 0)
(0 0 0)
(0 0 0)
(0 0 0)
(0 0 0)
(-0.0705693486129 0.00182505781485 0)
(-0.194914494928 0.00499366298125 0)
(-0.042802047376 0.00110694249827 0)
(-0.800596591544 0.0238021462767 0)
(-0.176486827428 0.00528910640474 0)
(-0.485584916905 0.0144366880199 0)
(-0.107044439452 0.00320799823166 0)
(0 0 0)
(-0.00468043893773 8.59801020625e-05 0)
(0 0 0)
(-0.0227466954572 0.000703731780829 0)
(0 0 0)
(-0.0121715761124 0.000366109315261 0)
(0 0 0)
(-0.0149113593354 0.000376035795132 0)
(-0.0149110610407 0.000376028272711 0)
(-0.00283866232057 5.21464929445e-05 0)
(-0.176478059988 0.00528884365467 0)
(-0.0375013909128 0.00116020899213 0)
(-0.0375003192675 0.00116017583782 0)
(-0.0073819838905 0.000222042982967 0)
(0 0 0)
(0 0 0)
(0 0 0)
(-0.00335362406915 6.1606388542e-05 0)
(0 0 0)
(0 0 0)
(0 0 0)
(-0.331601174319 0.0108918697022 0)
(-0.901351666704 0.02960606195 0)
(-0.201124391777 0.00660619092697 0)
(-2.22598510709 0.0719169268509 0)
(-0.490994468193 0.0157353912078 0)
(-1.33460337471 0.0427713702876 0)
(-0.297803607839 0.00954401032195 0)
(0 0 0)
(-0.0261124820555 0.000882743343404 0)
(0 0 0)
(-0.0664499996906 0.00212958965656 0)
(0 0 0)
(-0.0403041837257 0.00129166852036 0)
(0 0 0)
(-0.0739880562746 0.00243023345775 0)
(-0.0739859910017 0.00243016562119 0)
(-0.0139602623899 0.000515468655815 0)
(-0.490975508402 0.0157347835844 0)
(-0.10955310487 0.00351095801448 0)
(-0.109550027203 0.0035108593814 0)
(-0.0244439181239 0.000783378712486 0)
(0 0 0)
(0 0 0)
(0 0 0)
(-0.0132816097109 0.000459368368007 0)
(0 0 0)
(0 0 0)
(0 0 0)
(-7.19333604578 0.20269188157 0)
(-4.27397716283 0.118071769655 0)
(-4.36466512699 0.0900162521296 0)
(-2.06622637148 0.04261356796 0)
(-0.574988069632 0.0157908483003 0)
(-1.56292738114 0.0429225413248 0)
(-0.348742960244 0.00957749816363 0)
(-2.64757536519 0.0546032294967 0)
(-0.280079381311 0.00577631856531 0)
(-1.25304291931 0.025842584499 0)
(-0.132383408605 0.00273025717668 0)
(0 0 0)
(-0.0471978397307 0.00129619024577 0)
(0 0 0)
(-0.101595531439 0.00209891346035 0)
(0 0 0)
(-0.0480123778403 0.000991911993424 0)
(0 0 0)
(0 0 0)
(0 0 0)
(0 0 0)
(0 0 0)
(0 0 0)
(0 0 0)
(0 0 0)
(0 0 0)
(0 0 0)
(0 0 0)
(0 0 0)
(0 0 0)
(0 0 0)
(0 0 0)
(0 0 0)
(0 0 0)
(0 0 0)
(0 0 0)
(0 0 0)
(0 0 0)
(0 0 0)
(0 0 0)
(0 0 0)
(0 0 0)
(0 0 0)
(0 0 0)
(0 0 0)
(0 0 0)
(0 0 0)
(0 0 0)
(0 0 0)
(0 0 0)
(0 0 0)
(0 0 0)
(0 0 0)
(0 0 0)
(0 0 0)
(0 0 0)
(0 0 0)
(0 0 0)
(0 0 0)
(0 0 0)
(-2.38626575789 -0.275413046187 0.364571250266)
(-0.810650895707 -0.016079827215 0.0407692314559)
(-1.75950754489 -0.039780047249 0.0847668186431)
(-2.69302925766 0.0555406643114 0)
(-0.134736873054 0.00277879470317 0)
(-0.284501711221 0.00586752408799 0)
(-1.56290812936 0.0429220126146 0)
(-0.574960138034 0.0157900812172 0)
(-0.348731579947 0.00957718562753 0)
(-2.6841828654 0.0553582175365 0)
(-1.25538556643 0.0258908989304 0)
(-0.284077706094 0.00585877946467 0)
(-0.133523974037 0.00275378004098 0)
(-0.128291490743 0.0035232582649 0)
(-0.12829141513 0.00352325618834 0)
(-0.0286256824337 0.000786144674432 0)
(-0.761224031988 0.0156993795393 0)
(-0.0791194485957 0.00163456869885 0)
(-0.0796459746013 0.00164544646586 0)
(-0.00597433738972 6.21990480257e-05 0)
(0 0 0)
(0 0 0)
(0 0 0)
(-0.0291494707488 0.000602213656941 0)
(0 0 0)
(0 0 0)
(0 0 0)
(0 0 0)
(0 0 0)
(0 0 0)
(0 0 0)
(0 0 0)
(0 0 0)
(0 0 0)
(0 0 0)
(0 0 0)
(0 0 0)
(0 0 0)
(0 0 0)
(0 0 0)
(0 0 0)
(0 0 0)
(0 0 0)
(0 0 0)
(0 0 0)
(0 0 0)
(0 0 0)
(0 0 0)
(0 0 0)
(0 0 0)
(0 0 0)
(0 0 0)
(0 0 0)
(0 0 0)
(0 0 0)
(0 0 0)
(0 0 0)
(0 0 0)
(0 0 0)
(0 0 0)
(0 0 0)
(0 0 0)
(0 0 0)
(0 0 0)
(0 0 0)
(0 0 0)
(0 0 0)
(0 0 0)
(0 0 0)
(-0.0778118212655 0.00213693940878 0)
(0 0 0)
(0 0 0)
(-0.0487073873132 0.00100627054559 0)
(-0.102993598771 0.00212779684036 0)
(0 0 0)
(0 0 0)
(-0.0471953261037 0.00129612121424 0)
(0 0 0)
(0 0 0)
(-0.102908274954 0.00212603409248 0)
(-0.0484752854024 0.00100147543484 0)
(0 0 0)
(0 0 0)
(0 0 0)
(0 0 0)
(0 0 0)
(-0.0293762492434 0.000606898788543 0)
(0 0 0)
(0 0 0)
(0 0 0)
(0 0 0)
(0 0 0)
(0 0 0)
(0 0 0)
(0 0 0)
(0 0 0)
(0 0 0)
(0 0 0)
(0 0 0)
(0 0 0)
(0 0 0)
(0 0 0)
(0 0 0)
(0 0 0)
(0 0 0)
(0 0 0)
(0 0 0)
(0 0 0)
(0 0 0)
(0 0 0)
(0 0 0)
(0 0 0)
(0 0 0)
(0 0 0)
(0 0 0)
(0 0 0)
(0 0 0)
(0 0 0)
(0 0 0)
(0 0 0)
(0 0 0)
(0 0 0)
(0 0 0)
(0 0 0)
(0 0 0)
(0 0 0)
(0 0 0)
(0 0 0)
(0 0 0)
(0 0 0)
(0 0 0)
(0 0 0)
(0 0 0)
(0 0 0)
(0 0 0)
(0 0 0)
(0 0 0)
(0 0 0)
(0 0 0)
(0 0 0)
(0 0 0)
(0 0 0)
(0 0 0)
(0 0 0)
(0 0 0)
(0 0 0)
(0 0 0)
(0 0 0)
(0 0 0)
(0 0 0)
(0 0 0)
(0 0 0)
(0 0 0)
(0 0 0)
(0 0 0)
(0 0 0)
(0 0 0)
(0 0 0)
(0 0 0)
(0 0 0)
(0 0 0)
(0 0 0)
(0 0 0)
(0 0 0)
(0 0 0)
(0 0 0)
(0 0 0)
(0 0 0)
(0 0 0)
(0 0 0)
(0 0 0)
(0 0 0)
(0 0 0)
(0 0 0)
(0 0 0)
(0 0 0)
(0 0 0)
(0 0 0)
(0 0 0)
(0 0 0)
(0 0 0)
(0 0 0)
(0 0 0)
(0 0 0)
(0 0 0)
(0 0 0)
(0 0 0)
(0 0 0)
(0 0 0)
(0 0 0)
(0 0 0)
(0 0 0)
(0 0 0)
(0 0 0)
(0 0 0)
(0 0 0)
(0 0 0)
(0 0 0)
(0 0 0)
(0 0 0)
(0 0 0)
(0 0 0)
(0 0 0)
(0 0 0)
(0 0 0)
(0 0 0)
(0 0 0)
(0 0 0)
(0 0 0)
(0 0 0)
(0 0 0)
(0 0 0)
(0 0 0)
(0 0 0)
(0 0 0)
(0 0 0)
(0 0 0)
(0 0 0)
(0 0 0)
(0 0 0)
(0 0 0)
(0 0 0)
(0 0 0)
(0 0 0)
(0 0 0)
(0 0 0)
(0 0 0)
(0 0 0)
(0 0 0)
(0 0 0)
(0 0 0)
(0 0 0)
(0 0 0)
(0 0 0)
(0 0 0)
(0 0 0)
(0 0 0)
(0 0 0)
(0 0 0)
(0 0 0)
(0 0 0)
(0 0 0)
(0 0 0)
(0 0 0)
(0 0 0)
(0 0 0)
(0 0 0)
(0 0 0)
(0 0 0)
(0 0 0)
(0 0 0)
(0 0 0)
(0 0 0)
(0 0 0)
(0 0 0)
(0 0 0)
(0 0 0)
(0 0 0)
(0 0 0)
(0 0 0)
(-0.002095405307 3.00041895207e-05 0)
(-0.00324450154162 4.64581428853e-05 0)
(-0.00127565543405 1.82592101596e-05 0)
(-0.00193664988541 2.77309645075e-05 0)
(-0.120712441401 0.00209544543229 0)
(-0.0726400524423 0.00126095756431 0)
(-0.00285352656614 4.08597571109e-05 0)
(-0.00155693225711 2.22937731222e-05 0)
(-0.00168113018113 2.40721679931e-05 0)
(-0.000956759032342 1.36946574893e-05 0)
(-0.0104796292642 0.000181855567051 0)
(-0.0279253448162 0.000484755635466 0)
(-0.00637585753908 0.000110641813654 0)
(-0.000582723504839 8.34086592335e-06 0)
(-0.000141699392004 2.02822714428e-06 0)
(-0.000351019758558 5.02435326235e-06 0)
(-8.3800726851e-05 1.19948933094e-06 0)
(0 0 0)
(-0.000832682077473 1.22136431409e-05 0)
(0 0 0)
(-1.76758995745e-05 1.83059949241e-07 0)
(0 0 0)
(-1.08876317763e-05 1.12757447615e-07 0)
(0 0 0)
(0 0 0)
(0 0 0)
(0 0 0)
(0 0 0)
(0 0 0)
(0 0 0)
(0 0 0)
(0 0 0)
(0 0 0)
(0 0 0)
(0 0 0)
(0 0 0)
(0 0 0)
(0 0 0)
(0 0 0)
(0 0 0)
(0 0 0)
(0 0 0)
(0 0 0)
(0 0 0)
(0 0 0)
(0 0 0)
(0 0 0)
(0 0 0)
(0 0 0)
(0 0 0)
(0 0 0)
(0 0 0)
(0 0 0)
(0 0 0)
(0 0 0)
(0 0 0)
(0 0 0)
(0 0 0)
(0 0 0)
(0 0 0)
(0 0 0)
(0 0 0)
(0 0 0)
(0 0 0)
(0 0 0)
(0 0 0)
(-0.0406274592253 0.000705251446088 0)
(-0.00552259402764 9.58349234665e-05 0)
(-0.00909301022661 0.000157793228107 0)
(-0.000442910340161 6.33963746558e-06 0)
(-0.000680677637286 9.74294131348e-06 0)
(-9.63336862918e-05 1.37888098659e-06 0)
(-0.000154424481824 2.2103688756e-06 0)
(-0.0263651989551 0.000457673087218 0)
(-0.00916383256348 0.000159022225423 0)
(-0.00570046054393 9.89214845809e-05 0)
(-0.000623199542193 8.92022336796e-06 0)
(-0.000363126742821 5.19764768351e-06 0)
(-0.000145407319574 2.08130090303e-06 0)
(-8.31327073568e-05 1.18992757311e-06 0)
(-0.00230184390939 3.99444597564e-05 0)
(-0.00215975443916 3.74787464636e-05 0)
(-0.000469766028411 6.89045049239e-06 0)
(-0.000127677464463 1.82752300822e-06 0)
(-2.77332506855e-05 3.61489604237e-07 0)
(-2.83751065922e-05 3.6985588774e-07 0)
(-3.6408740518e-06 3.72184205732e-08 0)
(0 0 0)
(0 0 0)
(0 0 0)
(0 0 0)
(0 0 0)
(0 0 0)
(0 0 0)
(0 0 0)
(0 0 0)
(0 0 0)
(0 0 0)
(0 0 0)
(0 0 0)
(0 0 0)
(0 0 0)
(0 0 0)
(0 0 0)
(0 0 0)
(0 0 0)
(0 0 0)
(0 0 0)
(0 0 0)
(0 0 0)
(0 0 0)
(0 0 0)
(0 0 0)
(0 0 0)
(0 0 0)
(0 0 0)
(0 0 0)
(0 0 0)
(0 0 0)
(0 0 0)
(0 0 0)
(0 0 0)
(0 0 0)
(0 0 0)
(0 0 0)
(0 0 0)
(0 0 0)
(0 0 0)
(0 0 0)
(0 0 0)
(0 0 0)
(0 0 0)
(0 0 0)
(0 0 0)
(0 0 0)
(0 0 0)
(-0.00125951229087 2.18566245132e-05 0)
(0 0 0)
(0 0 0)
(-1.09425679101e-05 1.13326392116e-07 0)
(-1.92250970797e-05 1.99104168969e-07 0)
(0 0 0)
(0 0 0)
(-0.000717250347345 1.05205095944e-05 0)
(0 0 0)
(0 0 0)
(-1.80825674236e-05 1.87271593209e-07 0)
(-1.00251812687e-05 1.03825503559e-07 0)
(0 0 0)
(0 0 0)
(0 0 0)
(0 0 0)
(0 0 0)
(0 0 0)
(0 0 0)
(0 0 0)
(0 0 0)
(0 0 0)
(0 0 0)
(0 0 0)
(0 0 0)
(0 0 0)
(0 0 0)
(0 0 0)
(0 0 0)
(0 0 0)
(0 0 0)
(0 0 0)
(0 0 0)
(0 0 0)
(0 0 0)
(0 0 0)
(0 0 0)
(0 0 0)
(0 0 0)
(0 0 0)
(0 0 0)
(0 0 0)
(0 0 0)
(0 0 0)
(0 0 0)
(0 0 0)
(0 0 0)
(0 0 0)
(0 0 0)
(0 0 0)
(0 0 0)
(0 0 0)
(0 0 0)
(0 0 0)
(0 0 0)
(0 0 0)
(0 0 0)
(0 0 0)
(0 0 0)
(0 0 0)
(0 0 0)
(0 0 0)
(0 0 0)
(0 0 0)
(0 0 0)
(0 0 0)
(0 0 0)
(0 0 0)
(0 0 0)
(0 0 0)
(0 0 0)
(0 0 0)
(0 0 0)
(0 0 0)
(0 0 0)
(0 0 0)
(0 0 0)
(0 0 0)
(0 0 0)
(0 0 0)
(0 0 0)
(0 0 0)
(0 0 0)
(0 0 0)
(0 0 0)
(0 0 0)
(0 0 0)
(0 0 0)
(0 0 0)
(0 0 0)
(0 0 0)
(0 0 0)
(0 0 0)
(0 0 0)
(0 0 0)
(0 0 0)
(0 0 0)
(0 0 0)
(0 0 0)
(0 0 0)
(0 0 0)
(0 0 0)
(0 0 0)
(0 0 0)
(0 0 0)
(0 0 0)
(0 0 0)
(0 0 0)
(0 0 0)
(0 0 0)
(0 0 0)
(0 0 0)
(0 0 0)
(0 0 0)
(0 0 0)
(0 0 0)
(0 0 0)
(0 0 0)
(0 0 0)
(0 0 0)
(0 0 0)
(0 0 0)
(0 0 0)
(0 0 0)
(0 0 0)
(0 0 0)
(0 0 0)
(0 0 0)
(0 0 0)
(0 0 0)
(0 0 0)
(0 0 0)
(0 0 0)
(0 0 0)
(0 0 0)
(0 0 0)
(0 0 0)
(0 0 0)
(0 0 0)
(0 0 0)
(0 0 0)
(0 0 0)
(0 0 0)
(0 0 0)
(0 0 0)
(0 0 0)
(0 0 0)
(0 0 0)
(0 0 0)
(0 0 0)
(0 0 0)
(0 0 0)
(0 0 0)
(0 0 0)
(0 0 0)
(0 0 0)
(0 0 0)
(0 0 0)
(0 0 0)
(0 0 0)
(0 0 0)
(0 0 0)
(0 0 0)
(0 0 0)
(0 0 0)
(0 0 0)
(0 0 0)
(0 0 0)
(0 0 0)
(0 0 0)
(0 0 0)
(0 0 0)
(0 0 0)
(0 0 0)
(0 0 0)
(0 0 0)
(0 0 0)
(0 0 0)
(0 0 0)
(0 0 0)
(0 0 0)
(0 0 0)
(0 0 0)
(0 0 0)
(0 0 0)
(0 0 0)
(0 0 0)
(0 0 0)
(0 0 0)
(0 0 0)
(0 0 0)
(0 0 0)
(0 0 0)
(0 0 0)
(0 0 0)
(0 0 0)
(-7.17329736189 0.167203737097 0)
(-5.57342936493 0.129508760618 0)
(-6.35004918178 0.13096253929 0)
(-3.8514087872 0.0794309241044 0)
(-4.9186288069 0.114293279597 0)
(-5.60734540909 0.115645119027 0)
(-8.13676715521 0.189928466091 0)
(-5.57352308546 0.129510938385 0)
(-2.63271085736 0.0611758215414 0)
(-3.00197151692 0.0619122468944 0)
(-3.01437970218 0.0621681515973 0)
(-3.83051098057 0.0890088843231 0)
(-3.83074833014 0.0890143995717 0)
(-4.37491209507 0.0902275841872 0)
(-1.59672917314 0.0371029042832 0)
(-3.3803528951 0.0785486430759 0)
(-1.41776269859 0.0292397425285 0)
(-2.3366073863 0.0481898687513 0)
(-2.98318942114 0.0693198279413 0)
(-1.25174654406 0.0258158482345 0)
(-1.80933527984 0.0420431935693 0)
(-0.754238356721 0.0175260989946 0)
(-0.356276765234 0.00827873814867 0)
(-0.670538160475 0.0138290866217 0)
(-0.24708805278 0.00509590995189 0)
(-0.314414311335 0.00730598795021 0)
(-0.591873708082 0.0122067217955 0)
(-0.854664729874 0.0198596882928 0)
(-1.24349913865 0.0288949624605 0)
(-1.59673537078 0.0371030482965 0)
(-1.82095190399 0.0375550611414 0)
(-0.67091158582 0.0138367880946 0)
(-2.3232269145 0.0539843996632 0)
(-0.854656727244 0.0198595023372 0)
(-0.975353735098 0.0201155610292 0)
(-0.587386696928 0.013648997438 0)
(-0.168287549342 0.00391046705997 0)
(-0.19251314794 0.00397036463487 0)
(-0.317130361364 0.00654045287231 0)
(-0.244859637235 0.00568975868666 0)
(-0.403706465371 0.00938085343157 0)
(-0.461143491995 0.00951055983348 0)
(-0.0364443716516 0.000852232300065 0)
(-0.131066549034 0.00304556947123 0)
(-0.0329813093484 0.000681377548313 0)
(-0.0896042431523 0.0018511793717 0)
(-0.115666146623 0.00268771313204 0)
(-0.0290862074192 0.000600906667824 0)
(-0.0412967632558 0.000965702903897 0)
(-0.00914737461577 0.000160064514536 0)
(0 0 0)
(-0.00860500500241 0.000139972237928 0)
(0 0 0)
(0 0 0)
(-0.00594205308019 6.18629348825e-05 0)
(-0.0103650593205 0.000181372061161 0)
(-0.0283836646678 0.000663736942848 0)
(-0.0619098980273 0.00143858899764 0)
(-0.0698043627794 0.00144212363038 0)
(-0.0141962836366 0.000230922072715 0)
(-0.0900797485758 0.00209316667189 0)
(-0.0195074934567 0.000456172387222 0)
(-0.0226669619253 0.000468288228985 0)
(-0.00525461350703 5.47908658596e-05 0)
(0 0 0)
(0 0 0)
(0 0 0)
(0 0 0)
(0 0 0)
(-0.00462793255658 4.81815773983e-05 0)
(0 0 0)
(0 0 0)
(0 0 0)
(0 0 0)
(0 0 0)
(0 0 0)
(0 0 0)
(0 0 0)
(0 0 0)
(0 0 0)
(0 0 0)
(0 0 0)
(0 0 0)
(0 0 0)
(0 0 0)
(0 0 0)
(0 0 0)
(0 0 0)
(0 0 0)
(0 0 0)
(0 0 0)
(0 0 0)
(0 0 0)
(0 0 0)
(0 0 0)
(0 0 0)
(0 0 0)
(0 0 0)
(0 0 0)
(0 0 0)
(0 0 0)
(0 0 0)
(0 0 0)
(0 0 0)
(0 0 0)
(0 0 0)
(0 0 0)
(0 0 0)
(0 0 0)
(0 0 0)
(0 0 0)
(0 0 0)
(0 0 0)
(0 0 0)
(0 0 0)
(0 0 0)
(0 0 0)
(0 0 0)
(0 0 0)
(0 0 0)
(0 0 0)
(0 0 0)
(0 0 0)
(0 0 0)
(0 0 0)
(0 0 0)
(0 0 0)
(0 0 0)
(0 0 0)
(0 0 0)
(0 0 0)
(0 0 0)
(0 0 0)
(0 0 0)
(0 0 0)
(0 0 0)
(0 0 0)
(0 0 0)
(0 0 0)
(0 0 0)
(0 0 0)
(0 0 0)
(0 0 0)
(0 0 0)
(0 0 0)
(0 0 0)
(0 0 0)
(0 0 0)
(0 0 0)
(0 0 0)
(0 0 0)
(0 0 0)
(0 0 0)
(0 0 0)
(0 0 0)
(0 0 0)
(0 0 0)
(0 0 0)
(0 0 0)
(0 0 0)
(0 0 0)
(0 0 0)
(0 0 0)
(0 0 0)
(0 0 0)
(0 0 0)
(0 0 0)
(0 0 0)
(0 0 0)
(0 0 0)
(0 0 0)
(0 0 0)
(0 0 0)
(0 0 0)
(0 0 0)
(0 0 0)
(0 0 0)
(0 0 0)
(0 0 0)
(0 0 0)
(0 0 0)
(0 0 0)
(0 0 0)
(0 0 0)
(0 0 0)
(0 0 0)
(0 0 0)
(0 0 0)
(0 0 0)
(0 0 0)
(0 0 0)
(0 0 0)
(0 0 0)
(0 0 0)
(0 0 0)
(0 0 0)
(0 0 0)
(0 0 0)
(0 0 0)
(0 0 0)
(0 0 0)
(0 0 0)
(0 0 0)
(0 0 0)
(0 0 0)
(0 0 0)
(0 0 0)
(0 0 0)
(0 0 0)
(0 0 0)
(0 0 0)
(0 0 0)
(0 0 0)
(0 0 0)
(0 0 0)
(0 0 0)
(0 0 0)
(0 0 0)
(0 0 0)
(0 0 0)
(0 0 0)
(0 0 0)
(0 0 0)
(0 0 0)
(0 0 0)
(0 0 0)
(0 0 0)
(0 0 0)
(0 0 0)
(0 0 0)
(0 0 0)
(0 0 0)
(0 0 0)
(0 0 0)
(0 0 0)
(0 0 0)
(0 0 0)
(0 0 0)
(-2.49822848997 -0.147510658046 0.225667788995)
(-6.4982643022 -0.66779910544 0.901743599976)
(-2.13878296255 0.000744704904931 0.0482570261596)
(-0.876082765949 -0.0113215429165 0.0326058864774)
(-5.29082068033 -0.372348813242 0.545389363663)
(-1.09880958142 0.00718487442821 0.0171306924055)
(-2.93613046136 -0.273278662388 0.374995727449)
(-2.04033797962 -0.0245498757703 0.0788706607491)
(-3.59242872882 0.0491075579521 0.037669342274)
(-2.44707265765 0.0414166164796 0.00998577304927)
(-1.44434072939 0.0297878841733 0)
(-4.05514177418 -0.0839318838129 0.196052486442)
(-1.86718779133 0.0345849944651 0.00954361273983)
(-1.28349280149 0.025838045452 0.000679883489364)
(-0.881240909109 -0.0258750080264 0.0505614446684)
(-0.228943789976 -0.0038684185296 0.00995106006118)
(-0.34893429634 0.00360570113831 0.00393520933923)
(-0.195905054828 0.00404031885513 0)
(-0.268836452292 0.00273336767166 0.003781757519)
(-0.475130281749 0.00925276469208 0.000587148538214)
(-0.921740494763 -0.0611732976527 0.0902562119243)
(-0.830160614014 0.00775650145439 0.0124981128428)
(-0.356267636143 0.00827852601766 0)
(-0.682341780133 0.014072522847 0)
(-0.25135636252 0.00518393898378 0)
(-0.854671978674 0.0198598567319 0)
(-0.314399955523 0.00730565436683 0)
(-0.603761504276 0.0124518940661 0)
(-1.59678897823 0.037104293963 0)
(-3.38052856236 0.078552725024 0)
(-2.36102474253 0.0486934489416 0)
(-1.43922132659 0.0296823023154 0)
(-2.98331380519 0.0693227182307 0)
(-1.80942459117 0.0420452688803 0)
(-1.26624782614 0.0261149206777 0)
(-1.24355789741 0.028896327827 0)
(-1.59671899668 0.0371026678145 0)
(-1.83183936015 0.0377796025368 0)
(-0.673944934534 0.0138993474604 0)
(-2.32338449667 0.0539880613713 0)
(-0.854636889603 0.0198590413736 0)
(-0.983388970667 0.0202812786204 0)
(-0.754247102294 0.0175263022139 0)
(-0.356268260054 0.00827854051536 0)
(-0.68036507241 0.0140317554993 0)
(-0.250180636597 0.00515969097437 0)
(-0.854672335861 0.0198598650318 0)
(-0.314405884767 0.00730579214358 0)
(-0.599051080972 0.0123547469449 0)
(-0.587392801592 0.0136491392909 0)
(-0.168290637976 0.00391053883 0)
(-0.319258711365 0.00658434766946 0)
(-0.194484252706 0.00401101642794 0)
(-0.403692218433 0.00938052237808 0)
(-0.244862607119 0.00568982769732 0)
(-0.465649622373 0.00960349364546 0)
(-0.277446693943 0.00644697817401 0)
(-0.968391407256 0.0225023343322 0)
(-0.407534405447 0.00840493341984 0)
(-0.40844265144 0.00842366496004 0)
(-0.518338836731 0.0120445449165 0)
(-0.518339203174 0.0120445534315 0)
(-0.218652605198 0.00450946119935 0)
(-0.131056922793 0.00304534578802 0)
(-0.102068185334 0.00237173978812 0)
(-0.19259548466 0.00397206273603 0)
(-0.0424229560688 0.000876437302504 0)
(-0.244846817201 0.00568946078988 0)
(-0.0530240747652 0.00123993986309 0)
(-0.101714414515 0.00210136952594 0)
(-0.131056445312 0.00304533469288 0)
(-0.102072234802 0.00237183388487 0)
(-0.193466745037 0.00399003148998 0)
(-0.0425924612107 0.000879939194947 0)
(-0.244845398387 0.00568942782115 0)
(-0.0530263114666 0.00123999216716 0)
(-0.101947346029 0.00210618177587 0)
(-0.0619066365312 0.00143851321085 0)
(-0.00914816195842 0.000160078291781 0)
(-0.020084013638 0.000414925794134 0)
(-0.0201181396075 0.000415630819795 0)
(-0.0250466780302 0.00058570328035 0)
(-0.025047992138 0.000585734010065 0)
(-0.0481654460563 0.000995074307104 0)
(0 0 0)
(-0.0364434407152 0.000852210530611 0)
(-0.00862692948974 0.00014032886986 0)
(-0.0142113513929 0.000231167170489 0)
(-0.0103661521178 0.000181391183378 0)
(-0.0195065156563 0.000456149521878 0)
(0 0 0)
(0 0 0)
(0 0 0)
(0 0 0)
(0 0 0)
(0 0 0)
(0 0 0)
(0 0 0)
(0 0 0)
(0 0 0)
(-0.00526476320796 5.48116449164e-05 0)
(0 0 0)
(-0.0080727894625 0.000141260982582 0)
(0 0 0)
(0 0 0)
(0 0 0)
(0 0 0)
(0 0 0)
(0 0 0)
(0 0 0)
(0 0 0)
(0 0 0)
(0 0 0)
(0 0 0)
(0 0 0)
(0 0 0)
(0 0 0)
(0 0 0)
(0 0 0)
(0 0 0)
(0 0 0)
(0 0 0)
(0 0 0)
(0 0 0)
(0 0 0)
(0 0 0)
(0 0 0)
(0 0 0)
(0 0 0)
(0 0 0)
(0 0 0)
(0 0 0)
(0 0 0)
(0 0 0)
(0 0 0)
(0 0 0)
(0 0 0)
(0 0 0)
(0 0 0)
(0 0 0)
(0 0 0)
(0 0 0)
(0 0 0)
(0 0 0)
(0 0 0)
(0 0 0)
(0 0 0)
(0 0 0)
(0 0 0)
(0 0 0)
(0 0 0)
(0 0 0)
(0 0 0)
(0 0 0)
(0 0 0)
(0 0 0)
(0 0 0)
(0 0 0)
(0 0 0)
(0 0 0)
(0 0 0)
(0 0 0)
(0 0 0)
(0 0 0)
(0 0 0)
(0 0 0)
(0 0 0)
(0 0 0)
(0 0 0)
(0 0 0)
(0 0 0)
(0 0 0)
(0 0 0)
(0 0 0)
(0 0 0)
(0 0 0)
(0 0 0)
(0 0 0)
(0 0 0)
(0 0 0)
(0 0 0)
(0 0 0)
(0 0 0)
(0 0 0)
(0 0 0)
(0 0 0)
(0 0 0)
(0 0 0)
(0 0 0)
(0 0 0)
(0 0 0)
(0 0 0)
(0 0 0)
(0 0 0)
(0 0 0)
(0 0 0)
(0 0 0)
(0 0 0)
(0 0 0)
(0 0 0)
(0 0 0)
(0 0 0)
(0 0 0)
(0 0 0)
(0 0 0)
(0 0 0)
(0 0 0)
(0 0 0)
(0 0 0)
(0 0 0)
(0 0 0)
(0 0 0)
(0 0 0)
(0 0 0)
(0 0 0)
(0 0 0)
(0 0 0)
(0 0 0)
(0 0 0)
(0 0 0)
(0 0 0)
(0 0 0)
(0 0 0)
(0 0 0)
(0 0 0)
(0 0 0)
(0 0 0)
(0 0 0)
(0 0 0)
(0 0 0)
(0 0 0)
(0 0 0)
(0 0 0)
(0 0 0)
(0 0 0)
(0 0 0)
(0 0 0)
(0 0 0)
(0 0 0)
(0 0 0)
(0 0 0)
(0 0 0)
(0 0 0)
(0 0 0)
(0 0 0)
(0 0 0)
(0 0 0)
(0 0 0)
(0 0 0)
(0 0 0)
(0 0 0)
(0 0 0)
(0 0 0)
(0 0 0)
(0 0 0)
(0 0 0)
(0 0 0)
(0 0 0)
(0 0 0)
(0 0 0)
(0 0 0)
(0 0 0)
(0 0 0)
(0 0 0)
(0 0 0)
(0 0 0)
(0 0 0)
(0 0 0)
(0 0 0)
(0 0 0)
(0 0 0)
(0 0 0)
(0 0 0)
(0 0 0)
(0 0 0)
(0 0 0)
(0 0 0)
(0 0 0)
(0 0 0)
(0 0 0)
(-0.028382273128 0.000663704402428 0)
(-0.0619104456965 0.00143860172373 0)
(-0.0708405518176 0.00146353078371 0)
(-0.0143850501225 0.000233992619156 0)
(-0.0900755594003 0.00209306932879 0)
(-0.0229933801879 0.00047503186894 0)
(-0.0195073335959 0.000456168648961 0)
(-0.0364429620714 0.000852199337779 0)
(-0.131057436484 0.00304535772456 0)
(-0.09093188758 0.00187860784932 0)
(-0.0334316413893 0.000690681185676 0)
(-0.115657743338 0.00268751786643 0)
(-0.0412949687181 0.000965660939586 0)
(-0.0295113883859 0.000609690696426 0)
(-0.00525452362372 5.47899286291e-05 0)
(0 0 0)
(0 0 0)
(0 0 0)
(0 0 0)
(-0.00469184497967 4.88469720043e-05 0)
(0 0 0)
(-0.00914766303998 0.000160069561502 0)
(0 0 0)
(-0.00871678148051 0.000141790436033 0)
(0 0 0)
(-0.0103656367588 0.000181382165414 0)
(0 0 0)
(-0.00602198621355 6.26951216969e-05 0)
(-0.0364429300098 0.000852198588035 0)
(-0.131058086122 0.00304537282008 0)
(-0.0906646091527 0.00187308600913 0)