/*--------------------------------*- C++ -*----------------------------------*\
| =========                 |                                                 |
| \\      /  F ield         | OpenFOAM: The Open Source CFD Toolbox           |
|  \\    /   O peration     | Version:  v1906                                 |
|   \\  /    A nd           | Web:      www.OpenFOAM.com                      |
|    \\/     M anipulation  |                                                 |
\*---------------------------------------------------------------------------*/
FoamFile
{
    version     2.0;
    format      ascii;
    class       volScalarField;
    location    "6";
    object      p;
}
// * * * * * * * * * * * * * * * * * * * * * * * * * * * * * * * * * * * * * //

dimensions      [1 -1 -2 0 0 0 0];


internalField   nonuniform List<scalar> 
28582
(
17104.985292
17102.3036404
12207.4551864
12204.205067
7310.50133424
7305.2552789
3641.21021503
3632.96389214
21.5781945244
27.6116806191
-27.4618459375
3637.60211754
631.041665033
630.845979311
3628.31286033
3628.07214782
629.816992228
1786.70979193
1785.77706865
17106.9635292
17100.392028
17099.5971046
12209.488587
12201.9232177
12201.2170823
7312.95543143
7301.3978989
3642.34120681
3625.66961199
29.1657789399
-27.2470110578
-27.1133420899
3641.3253446
3642.10808145
626.15828497
628.902017854
1808.13473075
3624.9378822
3624.89266905
3623.97479962
1784.32977702
627.782493594
1783.28754313
1782.47337381
23.971351579
27.5284135445
-23.0679581127
-23.0910976069
26.0214471122
-23.1144420624
1807.81559094
1807.61077415
631.490023129
631.238607535
1809.0053745
631.899019826
1806.28572824
1805.24245893
1801.02506599
631.426632459
631.191348331
1801.99258826
631.938591969
1803.97559857
1794.25196828
1797.74711384
628.529139943
629.946312045
1798.33062389
628.518214985
1794.1282217
1787.212521
625.527323626
625.185740677
1790.31461672
626.967337821
626.700435351
1790.58579613
1784.40442872
624.41176182
623.63137607
1789.76919277
625.850816776
1789.0354069
626.178467684
19.7166632574
-23.2017406651
17.5255158437
19.6784601919
-23.2075119842
-23.1874291953
29.3760686113
-23.0113683615
-23.0288272601
31.7695439591
-23.0369466782
31.4107992057
-23.038678068
1807.66429486
1807.43405066
627.102285686
626.45746944
1807.29810514
1807.77085026
627.435127931
1807.33218535
1806.35859893
628.055575139
629.407814582
1806.92158888
1806.78911755
628.447478463
628.610444654
629.699397307
1807.78433111
1807.78037098
629.736111403
1807.26634886
628.79281555
1784.9105577
624.411526665
624.138594459
1783.71000035
624.364418224
1784.29141069
624.089570588
1784.16861128
1785.77921704
625.293739726
627.677684226
1784.72364387
1785.22926121
625.049055799
1781.50207522
1781.73027338
623.332565915
622.220959102
622.393237957
1782.79522587
623.390269806
624.100426019
627.088162933
1783.72546753
1783.45096695
627.465652749
1784.58545067
624.658888603
7301.39157552
3625.71901498
34.0754755955
-27.3426777204
3640.20496737
630.798045407
3624.89735911
3627.38144634
630.77790791
630.274473594
637.56939119
3629.66368071
3631.51832012
639.931719816
643.095973039
22.1778025718
34.4800645644
35.7788313743
-23.0878344895
-23.0972128593
-23.1195124177
37.2107575288
37.5350842604
1804.91688243
1807.02043463
630.569732683
631.271960534
1806.36775505
631.167151216
1805.50423655
1788.75495639
1787.30030479
633.100680336
630.733899955
1789.15796555
1786.80571949
633.034579674
1788.30269086
1785.50489896
630.562546521
632.899500459
1786.24343044
632.943906416
1787.7036441
1790.55000423
1792.71931498
637.237156094
635.198161701
1792.87922898
635.033576338
1790.14661183
1796.22636583
1794.74510121
639.434717988
641.482976731
1794.78191134
640.991414194
1796.21234136
1797.296304
1797.56025322
642.494721202
642.377268306
1797.85922347
641.977228509
1797.07985095
3652.83741071
3645.76338878
3645.5600248
3643.61179072
11.0688769503
12.3074755121
14.7869329893
15.5538231903
14.875957096
-27.0010800992
-27.2165109395
-27.0335020661
-27.1822412607
-27.1138024923
-27.1947603736
3657.02627514
3655.8371908
622.68072583
622.111375625
3656.69910938
621.865782751
3652.40547211
3648.8590926
621.017904054
619.682077381
3653.84443532
3648.66224229
3649.01719916
620.972205998
624.051913447
620.958079782
624.057107122
3648.82417502
3646.94227436
624.152818972
623.28786518
623.836109519
624.299400956
3645.85999817
3644.33505661
621.396708114
624.031316164
623.128447006
3644.84604435
3644.26084344
3644.05064073
624.042032147
624.58945817
623.526749346
624.371643748
622.929925194
623.867436015
7.11336291281
7.79042966913
9.30076917951
-23.2530313154
-23.2599977709
-23.252159975
-23.2627167793
-23.2871997864
-23.2303863673
-23.2834553316
-23.2214928853
9.92117798065
11.6602545951
12.14040548
13.2654925112
14.1631611494
-23.2428071205
-23.2626894138
-23.2435704392
-23.2606129831
12.9535772884
13.95929234
14.4724524502
-23.2742103403
-23.2273420634
-23.2721875611
-23.233883862
15.5677300278
15.5001094975
-23.22866044
-23.2467889987
-23.2457998761
15.7250030588
15.7343239718
15.8390336555
-23.2759693888
-23.2424683279
-23.2826748888
-23.2522708201
1819.41242002
1818.73105981
622.075733979
623.129907089
1819.0088293
622.65103647
1818.95228153
1818.69226461
1816.29551108
622.897124414
622.131531034
1818.19597608
1816.91263908
622.726622764
1817.56426358
1815.94717796
622.696123423
622.126804412
1817.69927819
1816.15033593
622.70001592
1812.1004989
1813.92872555
621.280469366
620.398862915
1814.58628423
1811.6743859
620.57053201
1809.99260569
1808.75789854
620.036145903
619.145653375
1810.05249933
1808.61657607
619.669297834
1812.93950815
1813.89124782
621.881617028
621.018914492
1814.54294062
1812.13125386
622.087586148
1813.69749241
1816.13626052
623.168586464
623.956315555
1815.43287273
1814.23906874
623.286243788
1811.37970789
1809.31577756
621.053151727
622.418953964
1810.68320662
1809.706542
622.347512571
1811.8963069
1810.42497493
623.996534548
623.70964996
1812.24193196
1810.13449827
623.577565898
1813.8931966
1816.29977117
623.933597195
623.934312765
1815.7743291
1814.32734423
623.922388444
1813.07160128
1812.75375225
623.587267828
623.570259866
1814.64385433
623.939622585
1811.65886102
1811.94670205
1810.49296716
623.860664156
624.016037405
1812.29276339
1810.35478521
623.986840223
1811.23853226
1809.19358362
623.871296134
624.30003162
1809.91774004
624.079717747
1810.18774015
1807.26767872
1807.68517409
622.707435493
621.258913311
1808.25671598
1806.75532125
622.660252957
1807.70145809
1809.0018928
623.675038209
623.852431777
1808.70113859
1808.03645226
623.489914397
1807.01465017
1806.84876253
623.582704814
622.662744436
1807.3493255
1806.50545418
623.186110204
1808.4196552
1809.13579753
624.314636099
624.084229382
1809.21029412
1808.26532108
624.46158515
1808.36721144
1808.47496267
624.560525365
624.810439248
1808.99571347
624.699775605
1808.09229532
1807.86628281
1807.17476285
623.948436519
623.9483223
1807.65034579
1807.44919588
624.335895981
1807.92516891
1807.45662007
624.73893083
624.201618331
1807.54800937
624.589002197
1807.80134924
1806.69347068
1806.78400711
623.334786929
622.20753939
1807.03661139
1806.47669919
622.599098014
1807.14997535
623.668382916
1807.16704677
17104.1070569
17101.7586555
17100.4379263
17099.3641336
17099.3330214
17101.95381
12206.4904921
12203.7155691
12202.1127064
12201.4672786
12201.8316155
12204.3344242
18321.314117
18324.1672048
17094.295601
17097.4144382
17099.718885
17101.6252559
17104.8530021
17099.6875127
18322.9036598
18325.0543451
17100.0764705
17099.9167191
17100.3496979
17100.746948
17100.9020091
17101.1097103
17103.0906086
17101.0637039
17100.1260449
17100.0165241
17099.6865244
17099.5581307
17099.5996537
17101.0142992
17105.566766
17102.8092274
17101.2721327
17100.5530961
17100.2267151
17099.9397587
17099.8536645
17101.8388788
17099.8923941
17099.5544073
17099.3538134
17101.7997477
13421.6754277
13424.4394566
12200.1795626
12199.2095191
12199.4012061
12203.0402341
12208.0950956
12188.3727818
13425.4737611
13426.8698667
12204.2351992
12202.4559822
12201.2976499
12201.8272513
12202.206783
12196.6324435
12205.0659186
12204.0294025
12203.1110899
12201.8198746
12200.8001771
12200.8923663
12200.7321575
12200.3314876
12207.9925785
12205.4697735
12203.5169233
12202.4241673
12201.8417562
12201.7653202
12201.7946881
12203.2032182
12201.5327
12201.594512
12201.7158545
12203.9977252
8522.59870411
8526.34658857
7304.57326989
7300.15319896
7299.23114589
7303.84104372
7309.72998573
7286.56938525
8527.02190679
8530.28225671
7302.95393741
7299.65649253
7299.97368763
7302.54249377
7303.06136877
7294.63290108
7308.59045416
7307.51488823
7305.2165064
7301.47432097
7300.82550802
7302.23854413
7301.45255774
7300.31032578
7314.1008575
7311.50680327
7308.44364169
7304.81474728
7301.90129131
7301.71500638
7302.8504698
7302.70768333
7303.42692682
7309.2457017
7304.90542598
7301.88885517
7301.93011836
7303.00949728
7302.98482541
7304.73002006
7302.74411236
7303.07379232
7305.35273898
3628.05885369
3633.24052397
3636.18494853
3629.29395059
3622.3903322
3628.73343005
3635.30243044
3638.71912695
3630.17127875
3630.86111188
3635.4954983
3634.41954102
3625.22421393
3621.71234907
3628.0215408
3632.59096092
3629.89588297
3643.07697476
3638.47717528
3636.43423508
3637.76644608
3635.67860414
3625.82515936
3622.39405181
3628.48548242
3631.84665808
3630.04926715
3641.61995519
3640.32240812
3639.28859273
3634.02172
3625.81810518
3624.68432424
3629.7940577
3632.75242503
3631.70991329
3639.52580699
3632.53652449
3625.97864523
3626.05700223
3630.52915402
3633.01087816
3632.31692767
3630.0623161
3632.65031898
3632.7755357
19.1274426907
21.2484442731
26.9281765401
34.707224202
37.5014258273
42.839652957
44.9657980452
46.1888226212
13.7239420326
14.9858096011
18.3196437671
20.9225656747
27.5729213426
36.1042895152
39.2740012387
43.5490961129
45.6797642937
46.6529393015
16.1459701596
15.6519443925
16.0849007052
19.4323444963
26.5622372008
33.7421974637
38.2419203178
43.1148452021
43.8679998308
45.1305156754
15.5823049082
16.473338411
20.4681579538
27.5397053945
30.8359940399
34.7708868531
38.7926866393
39.940462225
42.475091585
22.1915697814
27.2502310028
29.3666250414
33.7019177615
36.156255765
37.2365035014
39.3266567474
36.5369130335
37.1859904124
37.4300626062
-27.1156769978
-27.1493978881
-27.2243747608
-27.1971304506
-27.4106772615
-27.5382245605
-27.47278462
-27.168000221
-27.3496333674
-27.8282440535
-27.132796135
-27.127511969
-27.1811211321
-27.1213871334
-27.4412740444
-27.635103964
-27.8696588275
-27.1982760598
-27.4012050703
-27.8949839711
-27.2302100315
-27.0699537151
-27.1330460613
-27.0950778396
-27.1718148759
-27.2512070764
-27.7519326413
-27.1356394884
-27.3828056879
-27.7364974457
-27.0603465062
-27.1122800586
-27.072824134
-27.1749075465
-27.1883281533
-27.6860811865
-27.1083986622
-27.348273524
-27.6541934112
-27.3060559335
-27.4624231434
-27.5609133863
-27.6424133448
-27.1399358953
-27.3094510435
-27.6870934009
-27.0821570292
-27.237428352
-27.6742781288
18323.0965624
18321.3518437
18323.2710742
15871.8041851
15873.9136767
15872.3732357
15874.1166864
18324.4400591
18324.6637477
18325.1033679
15875.2703218
15870.9386658
15875.0108516
15873.3146374
18323.8703047
18325.2043262
18324.8058888
15873.9651839
15875.2667237
15876.0089348
15876.1591082
18325.176379
18325.3126949
18325.5224356
15876.1034606
15875.4695762
15876.760596
15877.2096428
13423.4269121
13423.103417
13424.3160197
10971.6486845
10973.7315867
10973.285694
10974.9946583
13424.4058534
13424.6920962
13425.481364
10974.8895002
10974.7920552
10975.8799099
10975.4892453
13426.4611012
13427.1014541
13427.41834
10976.1283331
10977.5643452
10978.1406438
10978.3200518
13426.3991629
13427.8495073
13430.6764439
10978.3904491
10974.26966
10978.4488994
10980.7201237
8524.92285611
8524.38025409
8526.38478332
6074.79692131
6077.38294529
6076.42958187
6078.50750826
8526.8597257
8527.82821264
8528.40303901
6079.21808731
6080.49114092
6080.17418653
6082.41993318
8528.89843862
8529.28389545
8529.81938563
6078.62748053
6080.74503874
6080.83418096
6082.01281769
8526.80635344
8530.20765624
8531.57125208
6082.19022919
6081.79835187
6082.93584109
6084.24144157
3625.75095866
3627.60490262
617.652402686
618.567448893
3630.69661834
3629.50581802
3631.86345373
619.302635806
624.124281626
620.077229805
625.072741922
3635.53555252
3634.06248068
3635.57972059
625.555702709
632.23547186
626.68985024
633.688727446
3634.08547286
3634.30439567
3631.14235846
635.906131145
639.300746981
636.324486078
634.952636107
3624.10754005
3626.69177245
3622.51435156
635.235544222
624.756038842
631.889320496
626.031801301
3625.1652946
3621.35817321
3624.36268002
626.484871523
638.773309723
627.765819314
639.712110657
3632.31694906
3627.98909143
3631.53406033
643.318269206
649.703396639
644.038259291
650.403149746
3637.30129203
3633.79189013
3634.54884447
651.469211655
652.694850881
651.896107748
651.701591905
3621.17856914
3632.74183235
3622.65622415
652.694703078
612.84128531
650.801152884
615.65545819
3642.83964024
3638.41662616
622.631782009
620.419173242
624.374335123
622.429766466
3629.60483614
3635.15517976
3633.44296598
618.577045316
619.102722534
621.62268297
620.703287128
3633.23966232
3633.41411585
3634.92803791
620.308285466
624.861575442
621.177784921
624.51461548
3636.42149963
3636.83883553
3637.62101307
626.679670621
633.707186262
626.372140628
633.754493068
3630.01114164
3635.90436758
3631.62660799
635.82347746
634.293025173
636.04899425
632.83716134
3622.1270603
3626.43383726
3622.84029082
631.802491056
627.205374218
630.408620774
627.951896915
3624.5356274
3622.11363504
3625.06681761
628.764982683
640.042001589
630.294242531
640.790126411
3631.08021448
3628.35281695
3630.82124837
644.05939618
650.331484931
644.536838698
649.653270669
3632.36123763
3632.00986627
3631.69919086
651.821869776
651.023275265
650.780251945
649.543882155
3625.04507713
3629.38270324
3627.84250426
649.9085075
615.790467331
648.389899423
616.424432082
3640.74840244
3643.15311346
3641.83446506
624.589693123
623.045793516
624.480975438
623.87256175
3636.99737909
3640.32976914
3639.2952329
622.413765257
621.237904531
623.492964188
623.061991859
3636.7877863
3638.66040225
3638.48624806
621.563110375
624.792887978
623.37615074
626.292853621
3637.9093719
3638.60132516
3637.80695968
626.570789524
633.919479465
628.090924144
634.546345275
3630.92427206
3635.19614035
3630.50599586
636.251108123
632.093920056
635.590930866
629.123405747
3622.60450681
3625.86205976
3623.34746314
629.403482128
627.559623313
626.184924725
626.525208077
3625.41480085
3623.61997964
3626.39623085
630.201420019
640.726462799
629.533633754
639.565959486
3630.66697979
3629.25521169
3631.19032659
644.592857471
649.146523052
642.982078882
646.668546951
3631.81315394
3632.28846346
3632.41597304
650.028159434
649.37062147
647.480788189
648.199512429
3629.62504053
3630.94032382
3630.85790335
648.380377829
616.329538382
647.524256568
617.017789584
623.95099018
623.584667729
3640.94525181
3642.03592692
623.455990705
623.554175284
625.005924232
3639.89840868
3641.54513137
3640.80411424
624.062112841
627.17153506
625.81493286
628.509821501
3637.35817006
3639.37629301
3636.66144877
629.002939897
633.888754146
629.465467288
632.351635389
3629.45267661
3632.92099001
3628.75511811
634.403178215
628.300217192
632.231567341
626.50071773
3624.11799139
3625.94172447
3624.83805266
625.479333741
626.429059382
624.503408194
626.884184242
3627.21820578
3625.60484995
3627.96344288
629.456720256
638.826783181
629.679177628
637.598907335
3631.73772906
3630.35999395
3632.17428672
641.974603267
645.638867789
639.84087446
643.011621417
3632.82533261
3633.19609144
3633.0182051
646.478806742
647.636303399
643.629518266
644.723772475
3632.11602258
3632.06379605
3633.27371937
647.167258532
617.504465964
644.569274953
618.854161811
3636.51485342
3636.87730702
629.787947089
631.955275395
630.903573587
3628.40248746
3632.63142754
3628.38836864
631.569595532
625.949306288
629.95740363
625.587283506
3625.20348086
3625.97975402
3625.32972547
624.193603448
627.192070485
624.288679773
627.820740913
3628.2622012
3626.11036753
3628.27756415
630.044425401
637.450429681
630.755809132
636.966783387
3632.35297127
3630.43267212
3632.20904416
639.495890981
642.423931081
638.911907277
641.506329934
3632.86684167
3632.79226197
3632.74540663
642.966562862
643.731092605
641.961218546
641.772727369
3634.28903249
3632.52808108
3635.22311687
643.710232564
618.486298094
642.00252666
619.306949577
3627.90188982
636.868659708
3631.95409225
638.958396915
641.733029811
3632.70421521
642.133818144
641.618571627
3635.67569128
641.770957136
618.648761375
-23.1818565961
-23.1879812849
-23.1777968159
-23.1894669156
17.604569639
17.332509489
-23.1700135686
-23.1839199963
-23.1631926683
-23.1736517279
20.2158543441
19.0521586055
20.3637910733
-23.204560907
-23.2064589688
-23.1916727737
-23.1909266537
23.2602966174
21.5275104441
24.0240390235
-23.2232932114
-23.2097052591
-23.199433553
-23.1784081529
31.2789859957
28.4274823731
32.5985307134
-23.1533346075
-23.0599161093
-23.1411220387
-23.0608695068
36.6774652357
35.9847643527
37.6931790706
-23.0200136606
-23.0530319287
-23.0457660937
-23.0759528804
39.5612921601
38.5621604274
40.5213255666
-23.0735953179
-23.0793013296
-23.0796259508
-23.0998551876
43.6282731527
43.456867137
44.3959101283
-23.0804003258
-23.1469973788
-23.0971285887
-23.1704694696
45.2483898694
45.5827256515
46.1118125096
-23.2006811963
-23.1956625825
-23.2172176847
-23.2008614558
47.4094402847
46.7156079823
47.6951490237
-23.2339158506
-23.1517795191
-23.2441889892
-23.1629624682
14.7202380379
15.0508996288
15.1249012617
-23.2010865781
-23.2021916936
-23.2180701006
-23.2078769699
16.8803883134
15.2911180532
16.0611691418
-23.1650876009
-23.1766963279
-23.1714604263
-23.174542035
19.5059736292
17.0276402602
18.2322186415
-23.1856559349
-23.1856855927
-23.1796916437
-23.1753872178
23.3376425253
19.957896863
22.3724378558
-23.1783090047
-23.1566733378
-23.1534138792
-23.1499440548
31.9870373633
26.8347191691
31.2426588192
-23.1020770536
-23.0510136477
-23.1031426051
-23.0551769279
38.1466981315
35.1275425228
37.205617961
-23.0694455194
-23.0842417307
-23.1055701832
-23.0818887936
41.1543289703
39.2308475791
41.1818845537
-23.1530643367
-23.184571217
-23.1439773085
-23.2116572325
44.6338419533
43.5683634683
44.3607600107
-23.1321316837
-23.1979015327
-23.156185523
-23.2256623821
46.2289118538
45.1146601888
45.6147864124
-23.2388773591
-23.2041084429
-23.2570127195
-23.2108076519
47.6461158632
46.1050910425
47.241127719
-23.2569662149
-23.1718168082
-23.2626209593
-23.1784329595
15.9122797336
16.1419625486
16.0858805069
-23.2318905497
-23.2098945059
-23.2335555804
-23.1920738459
15.5714205804
15.8444077811
15.6953053788
-23.1506922164
-23.1554230941
-23.1315448293
-23.1494353131
17.588039553
16.1165395471
17.5053715078
-23.1551622009
-23.1570186293
-23.1574779514
-23.1554876541
22.086303897
19.5526633183
22.829860377
-23.1402221938
-23.1452476817
-23.1338366442
-23.1370056108
30.326335777
27.031846471
29.7867539713
-23.0548015845
-23.017097489
-23.0400499675
-23.0093574946
35.6201071509
32.2700615692
33.9109254299
-23.0043031113
-23.0058070765
-23.0176988663
-23.0385965514
40.4296059432
36.5428037766
38.6111701385
-23.1088963109
-23.1829482424
-23.1226151535
-23.194086412
43.3783822732
41.151263068
41.4635280259
-23.1569337103
-23.2287624421
-23.168087412
-23.2398320431
44.4532677193
41.9652592083
42.8208052658
-23.2632033347
-23.2155715544
-23.2691708523
-23.2192979966
46.6089599956
43.8744701853
45.7372562283
-23.2512252866
-23.1870270178
-23.2499494783
-23.1848162291
15.7516169427
15.9367702912
-23.1127742605
-23.1604756043
-23.19221559
17.88516728
17.0006754201
18.8987701705
-23.1728574737
-23.1563772826
-23.1907741231
-23.1618488357
24.1886393726
21.6423602383
24.98893705
-23.1107496007
-23.0883517848
-23.1104649398
-23.086258851
29.4256482062
27.6378215933
28.8930681411
-23.0313538679
-23.011248422
-23.0401934346
-23.0262308144
32.2513290463
29.730729206
31.1800165557
-23.0282583756
-23.0551107949
-23.0369994847
-23.0504800786
36.6221039735
33.731735293
35.4312763974
-23.1178707441
-23.1891016915
-23.1103267763
-23.1931039501
39.292179115
37.0004580921
37.5262134803
-23.1710019677
-23.2451442264
-23.1688713778
-23.2377715829
41.0443118278
38.1379695635
39.5666956509
-23.2690081449
-23.2220870952
-23.2589686606
-23.2186633678
44.952067986
40.8951630453
43.6766888093
-23.2489176174
-23.1850399129
-23.251145284
-23.1810878102
25.0045915405
24.6696449444
-23.1575151585
-23.1339134934
-23.1780541246
-23.1467786564
28.5418276931
26.6598148919
27.9930632617
-23.1024724661
-23.0816838276
-23.1058138563
-23.0813094489
31.108642659
29.1744467399
31.2892567157
-23.0956072845
-23.101784289
-23.0837918665
-23.1050099521
35.080231915
33.9193016197
35.0964004064
-23.1166880213
-23.1885924183
-23.1506522367
-23.1872646975
36.6141489012
36.0623129786
36.3407442169
-23.1650202796
-23.2283674868
-23.1561728983
-23.2074878781
38.3786452468
36.8999196559
37.6025749494
-23.2482613797
-23.2149774366
-23.2315887007
-23.2072413192
41.9177138312
38.0937879832
40.2477473576
-23.2608281695
-23.176808365
-23.2613771889
-23.1802071657
35.2497085605
-23.1182001238
36.7105681902
-23.1353369388
-23.1740086684
-23.1245951367
-23.1640661674
37.571825426
-23.2057953002
-23.2001336303
-23.187125041
-23.1785065871
39.6430038452
-23.2511336063
-23.1765922794
-23.236843898
-23.1675079646
1789.75691257
1790.14412171
615.974838408
617.857040693
1790.39493844
616.163100776
1789.20777889
1790.65122605
1792.28931842
618.141175481
617.456525639
1791.13971638
1792.00206097
616.825119229
1793.52240555
1791.55348487
620.986042246
619.539528646
1791.77186982
621.310533485
1793.18172554
1795.36563512
1796.93253795
622.612734053
624.496217802
1797.13333815
623.051663501
1795.0089629
1794.25377985
1793.54902751
619.777825042
621.839608403
1792.50060481
1795.190567
621.622495593
1796.07392537
1798.51364715
624.836497224
623.509008465
1797.71912846
1796.88088093
623.386767399
1800.40213962
1798.66775782
626.8876932
625.868350867
1798.69629568
627.395817892
1800.40120205
1802.29770166
1804.43589337
629.168645086
632.920817266
1804.18832742
629.880296947
1802.30189729
1800.75770103
1800.03082175
626.278466788
628.493101154
1799.16030833
1801.71681243
628.01791112
1802.54181592
1804.13009284
633.440501981
631.033416021
1804.04138131
1803.2352214
630.476257502
1804.42205415
1805.93187969
639.12762291
636.486167121
1805.17839113
639.169954034
1806.03809926
1801.0189625
1797.75249345
640.851770916
638.291315002
1795.52550156
640.019183612
1803.19560669
1802.67374855
1803.67488796
636.679529506
637.396832039
1804.32530106
1801.31045232
638.412074987
1798.82255315
1791.46250024
636.489643789
636.869767082
1793.20572841
1797.05708925
638.374534746
1781.82248471
1790.73159949
630.543313555
634.263246746
1788.75861568
629.749227714
1783.36180373
1777.9149344
1778.5156106
626.020159518
624.779231695
1777.73239785
625.886698046
1779.0293149
1780.52686395
1785.51904898
632.797520217
629.290765376
1786.73413934
1779.88278054
629.086438303
1777.24932086
1777.23598588
625.273547447
626.634294928
1777.29199075
1777.05615599
626.022175238
1781.74441567
1780.13453569
630.277104431
626.471653266
1779.59160056
630.335496544
1782.40385112
1785.22892975
1789.35915166
634.563535212
639.02823294
1788.9037338
634.808522365
1785.75706507
1781.44147347
1779.11964196
627.069652468
631.372424306
1779.27151625
1781.47395356
630.807697605
1784.99240274
1788.63906606
639.328367968
635.67322028
1788.68748533
1785.00467534
635.178221508
1795.92696714
1792.97132839
646.371995409
643.635125617
1792.59141105
646.810423308
1796.20017543
1798.34785986
1800.51197736
648.084947823
650.135983926
1800.21367632
648.571170387
1798.61039206
1795.65595556
1792.22453975
643.785421894
647.093268376
1792.32841645
1795.48703924
647.012599926
1798.11903227
1799.42298064
650.367181847
648.941740102
1799.88433575
1797.85585281
648.87996864
1801.27029455
1801.54345042
652.330881292
651.846207934
1801.12199762
652.706286542
1801.88670882
1800.69236319
1799.96061542
652.722825646
652.79274062
1798.97906891
652.984720823
1801.48989012
1800.58384598
1800.04177143
651.909590188
652.612070187
1800.6575124
1799.81966995
652.751748143
1799.77943796
1796.2677707
652.306674934
652.396162548
1797.6781257
1798.78570204
652.815225322
1788.94175427
1796.45212694
653.522507601
652.554831771
1795.36770666
653.169466885
1790.37253508
1780.72239239
1779.79950211
655.324104643
613.73091672
654.97135165
1780.07997967
1782.31919643
1787.01228047
1791.91702801
651.593910108
650.763071369
1793.55881218
1785.35825107
651.629297009
1778.12626619
1781.41003521
614.774790195
651.361233607
1774.970789
652.523257138
1780.64075273
1806.50704323
1809.49296619
621.863418392
623.103214419
1806.01242865
622.68704154
1809.21077613
1803.66644809
1799.07703913
621.740078893
621.095938385
1802.48877021
1800.83538758
622.350677768
1806.80644201
1808.14651763
623.872732428
623.975887022
1806.86155788
623.550873254
1808.68189843
1804.54477276
1803.44728683
621.682563952
623.253398905
1802.25105874
1805.22032728
622.849202034
1796.53426768
1796.16814956
617.77291733
619.43863228
1794.35449359
1798.29624716
618.932040963
1795.63445623
1793.64438379
618.271593438
619.652835854
1793.57654755
1795.36160909
619.28175146
1798.54801585
1801.75856911
620.575677141
620.95572681
1800.06980738
1800.37077153
619.952245014
1797.59647377
1798.92429139
620.238656635
620.654292946
1797.12084055
1799.39392563
620.018702126
1797.10139474
1794.62517443
621.813321103
620.48327819
1796.02653678
1795.94460227
621.747992541
1798.51728677
1799.20940021
623.267995264
624.691846911
1797.57192733
1800.06403996
623.136926477
1798.25395738
1798.96742393
620.774507566
621.950913872
1797.37252562
1799.52425449
621.784695188
1799.48826733
1801.84730853
624.530570095
623.043141274
1800.89719387
1800.56807986
623.000220826
1803.19021085
1800.88700216
628.797934209
626.563006097
1802.47879767
1801.67968584
628.847806016
1804.58492647
1804.46636199
631.345548987
633.81198872
1803.88228585
1805.00642989
631.519672424
1803.83536111
1803.21365181
626.331167561
628.567955747
1802.35826377
1804.56062607
628.602153277
1805.15546758
1806.13849165
633.797713996
631.317048567
1805.64284969
1805.52658107
631.322680395
1800.83687438
1803.58121458
636.589364436
635.73539336
1800.82189353
1803.88709251
636.00498249
1796.18572068
1790.85730245
635.928816634
633.731188024
1796.36001649
1790.74182995
635.160898378
1801.18077593
1804.77464396
635.966570199
636.200561789
1804.35790463
1801.46498335
636.030255725
1796.41168849
1790.81429422
633.351350278
634.771394345
1790.89614914
1796.51731474
634.891535979
1780.49033412
1785.16174325
629.641893416
631.566609254
1779.98920908
1785.31647349
629.775450407
1778.24890085
1777.59713484
627.613254429
627.880948326
1777.47237776
1778.34740637
628.0023779
1781.15062467
1785.54959627
631.192840776
628.763219064
1785.62412116
1781.31554995
629.529243118
1779.15932239
1780.19331099
628.180655136
627.41760027
1779.36116489
1779.6966789
628.006736728
1782.20020981
1779.13507134
632.07913516
629.407987347
1781.76821264
1779.73419833
632.656220856
1785.50643745
1788.7246089
636.231863587
640.374477514
1785.21955248
1788.9352318
636.70812545
1782.761281
1781.53730825
630.063546196
633.540859468
1780.79655409
1783.27807635
633.319004259
1785.87683467
1789.59036436
640.656244628
637.2165878
1789.24798544
1786.26847662
637.092506833
1795.29951954
1792.21959657
647.108869386
644.191462284
1795.36671245
1792.29574197
647.148840901
1797.39711562
1799.00026469
648.958922932
650.200943833
1797.60723613
1798.64252439
648.912085442
1795.36881378
1792.76438094
644.424606234
647.232131869
1792.49295039
1795.53509521
647.256315275
1797.34119919
1798.4091147
650.017184832
648.632715708
1798.45258512
1797.39928979
648.851308854
1798.67266017
1799.47987742
652.431461738
651.621405456
1799.16241293
1799.05650099
652.124538098
1797.29825035
1795.12430109
651.977585526
650.421670461
1797.96262249
1794.25719028
651.502782231
1798.44391707
1798.74528349
651.319911722
651.187778571
1798.8601207
1798.25645082
651.702778561
1796.99884316
1793.879482
649.867425582
650.599026571
1793.88872906
1796.92401188
651.010025981
1783.34109782
1790.77440976
649.762924158
649.218255346
1784.26632363
1789.83368065
648.9155584
1772.85746554
1781.8589305
650.473567749
616.255980967
1773.76332171
649.357664706
1782.59495079
1783.11777866
1789.46935103
648.668274881
648.112455927
1789.43050306
1783.15698692
648.459479138
1772.97099043
1783.83043211
616.413125539
648.56729968
1773.19194874
649.182807628
1783.44135603
1806.90052272
1807.75642621
624.307824098
624.924730449
1806.87821736
624.659012742
1807.60046977
1806.08541809
1804.45629496
623.731447635
623.581251455
1805.74043099
1805.17044424
624.143078047
1806.95177526
1807.26438981
624.853473382
624.431538481
1806.91438355
624.683412339
1807.47715259
1806.34443489
1806.00920842
623.849214154
624.229638066
1805.68147681
1806.46767833
624.291084291
1803.26298493
1803.11833025
621.702019064
623.003562103
1801.90082855
1804.18461398
622.342636397
1802.51867263
1800.56783674
621.268359529
621.812996737
1801.02508164
1802.01470056
621.894920371
1804.22647612
1805.41347669
623.389691729
623.142603543
1804.93682747
1804.87970751
622.827143894
1803.64751507
1804.32607828
622.440868931
622.907679221
1803.22251493
1804.51948199
622.497636687
1802.15303883
1800.51224582
622.259060705
621.932246243
1800.86531805
1801.87996851
622.684554181
1802.76619518
1802.82195074
623.353214198
625.20720185
1801.67432877
1803.77718702
623.799401872
1803.31653437
1804.2431148
622.557298789
623.992325075
1803.06134253
1804.38709068
623.249417927
1803.8343369
1805.41961526
625.690686228
624.917383612
1804.63777374
1804.76343919
624.343444854
1805.9208893
1804.14273959
628.660175375
626.903303586
1805.32177503
1804.92307918
628.974362023
1806.33237805
1806.48758297
631.290245032
634.233508533
1805.94082031
1806.65074805
631.669009837
1806.19526389
1806.05339595
627.40202039
630.285163951