/*--------------------------------*- C++ -*----------------------------------*\
| =========                 |                                                 |
| \\      /  F ield         | OpenFOAM: The Open Source CFD Toolbox           |
|  \\    /   O peration     | Version:  v1906                                 |
|   \\  /    A nd           | Web:      www.OpenFOAM.com                      |
|    \\/     M anipulation  |                                                 |
\*---------------------------------------------------------------------------*/
FoamFile
{
    version     2.0;
    format      ascii;
    class       volScalarField;
    location    "6";
    object      p_rgh;
}
// * * * * * * * * * * * * * * * * * * * * * * * * * * * * * * * * * * * * * //

dimensions      [1 -1 -2 0 0 0 0];


internalField   nonuniform List<scalar> 
28582
(
19553.9750385
19551.2913141
19554.4270173
19551.1691394
19555.4732589
19550.2265584
19559.7432908
19551.4397698
754.764219138
855.133032179
0.335993684142
19556.1235736
18218.1464841
17996.6368819
19546.7651329
19546.5456534
17901.5420882
19530.6912259
19528.1442716
19555.9555265
19549.3755334
19548.5810517
19556.4660415
19548.8807772
19548.1727277
19557.9363654
19546.3803731
19560.8578465
19544.1236245
885.790896987
0.0848100355287
-0.0908084669879
19559.831999
19560.678385
18312.4031842
18211.3980617
19559.4081414
19543.3662684
19543.3466816
19542.522257
19527.6008128
17434.275246
19524.133573
19522.128784
794.109670281
853.371291566
12.446752321
12.6935049762
827.910934541
11.9158011684
19559.410811
19558.4733529
18163.031685
18265.4105348
19560.7795525
18212.3933722
19557.0948829
19554.8322203
19548.8215738
18085.6275843
18040.3477741
19550.1500355
18139.5205368
19553.5307448
19539.9136186
19544.3371591
17808.4138013
17934.0953551
19545.1768488
17821.2217423
19539.7759981
19531.5288183
17615.4468775
17605.0869145
19535.1904039
17713.6369851
17713.3644905
19535.5731954
19526.8735608
17578.3570555
17539.7334237
19533.7225039
17693.0051244
19533.6888652
17700.9142518
723.112997327
6.94150362914
685.173162483
722.34367859
4.99819602051
6.39424959204
888.069924694
9.24224389288
9.50987467571
933.561519162
8.95521706382
927.20087992
9.37888429283
19558.9012276
19559.3070868
18289.0419604
18313.2948754
19558.6336591
19559.2986318
18290.0362722
19558.0389992
19556.1217732
18255.0359416
18216.6103639
19557.4930779
19556.7213264
18256.1158731
18262.713298
18232.6976426
19558.7576493
19558.9055488
18228.8928061
19558.1654497
18269.3248777
19528.5858637
17534.328851
17521.9695102
19526.654365
17474.3059766
19527.7725046
17456.8707157
19526.6855184
19529.5881135
17447.7588028
17415.3293588
19528.2772696
19528.2511003
17423.3003019
19521.6507519
19522.3197076
17493.0564404
17442.1128194
17376.3384971
19523.4566173
17429.1214487
17363.1696567
17366.4841099
19524.2717757
19523.7656294
17399.2322094
19525.3356084
17402.5769265
19546.3791857
19544.1720445
984.023132635
-0.365177720437
19558.7498689
18193.6232269
19543.4548983
19545.948913
17438.9389376
17376.0611043
17482.0635987
19548.242848
19550.0857193
17512.5900643
17568.5899537
765.523997104
990.440129701
1012.44210008
7.92722038546
6.97657070718
3.8513486384
1038.30510754
1043.71345602
19554.5997634
19557.6607756
18178.1515543
18138.5621337
19556.7229215
18118.9231227
19555.4751017
19531.2045067
19530.831896
17452.1068981
17422.0935311
19531.7191516
19529.7281604
17440.0781496
19528.888314
19526.4246864
17407.1702433
17397.5021158
19526.9052383
17426.1551723
19528.4588899
19531.1871664
19534.0697153
17496.0235717
17436.6828324
19533.8961519
17460.3485093
19530.9011862
19537.9667649
19536.5591236
17520.1907828
17536.4401445
19536.2042691
17547.011689
19537.9149752
19539.1675342
19539.5739979
17584.2323942
17551.3897639
19539.9693238
17576.4414436
19538.8296463
19571.3666885
19564.2321754
19564.1010472
19562.1217452
569.766431338
591.979487106
642.202443396
654.813844037
641.782324839
-0.0157776684528
0.472237684285
-0.0560020661342
0.203697578408
-0.136302492289
0.0523368958032
19575.5936274
19574.4382378
18785.4590735
18701.5767722
19575.3004591
18644.1132135
19570.9134573
19567.2549849
18589.6603659
18344.4413283
19572.3944037
19567.1356763
19567.5140943
18556.5871238
18565.4814633
18346.439779
18368.9019821
19567.3363775
19565.4835741
18558.8620931
18468.1588767
18374.9522565
18370.7516717
19564.3770027
19562.8487712
18315.134855
18324.7618364
18296.251002
19563.3974803
19562.8036828
19562.6053949
18332.1090976
18336.6730271
18302.1106843
18317.1354915
18311.6375273
18321.8413503
497.969484202
510.011696721
538.112815765
0.915034488629
1.20949311498
1.29285509176
1.59686080771
2.51214987143
8.7336734425
3.34760841079
9.05960642087
550.871572621
582.675881946
591.728291135
613.15881843
630.913784932
2.16965430923
2.21693991779
2.87871903178
2.39310186412
598.866472673
623.459912129
631.146469927
3.04614949548
6.58604382273
2.64207519227
4.28926023547
655.712882334
653.817297638
3.03489781979
2.256321976
2.11281292746
657.159306133
658.463692231
659.397447197
2.31163743248
2.86362612431
2.14955727732
2.34418844743
19574.5589894
19573.4839201
18808.8954112
18812.8352503
19573.9713322
18837.8472491
19574.1473013
19573.8526683
19570.5616716
18785.3356263
18750.2952044
19573.1125583
19571.8252916
18820.8040485
19572.1991622
19570.1657851
18726.6771536
18605.217259
19572.1144011
19570.0535121
18662.1588964
19564.9225371
19567.398708
18643.9544056
18494.1147164
19568.1712225
19564.0878408
18545.6329254
19561.1136841
19560.0611919
18425.2559333
18388.9293203
19561.4358175
19559.714718
18456.5206635
19565.7692148
19566.860427
18544.6729931
18473.5855442
19567.6601553
19564.4789883
18476.3272198
19566.9324514
19570.0489656
18553.356392
18493.1867452
19569.1037363
19567.9776479
18482.6511445
19562.9173177
19560.4727028
18417.6688022
18357.623601
19562.4408228
19561.0476083
18420.7469293
19563.6613341
19562.4917771
18441.1915434
18365.3560587
19564.6673525
19561.8121175
18429.6916909
19568.4958121
19570.5095851
18540.08615
18496.1740623
19570.2212563
19568.8257808
18494.2037257
19567.5321583
19567.2237374
18504.2961855
18461.1507383
19569.1508002
18481.6786558
19565.4952124
19566.0430836
19563.209179
18447.6332067
18381.2235226
19565.8332381
19563.7630842
18445.7665383
19565.2552502
19562.4095818
18410.9113091
18380.0404397
19563.4676422
18430.5688236
19563.7848733
19558.7583777
19558.9314691
18318.9693284
18291.0024835
19559.3771739
19558.416667
18289.1871643
19559.1151392
19560.634123
18323.345311
18300.2689818
19559.9649318
19559.5738466
18294.7600496
19558.6623238
19558.9733071
18295.5736082
18294.7824267
19559.2904919
19558.4779808
18292.9104586
19560.8437459
19561.4414
18343.9087188
18306.1890346
19562.1777614
19560.1329058
18315.7715273
19561.0209759
19561.6968963
18344.2166596
18323.879687
19562.2983845
18322.8578292
19560.8717809
19560.5621988
19559.5289458
18299.7091414
18312.9374981
19559.9988516
19559.9319866
18307.9205768
19560.7442129
19560.2466374
18321.2785632
18317.3146138
19560.2657535
18318.0931355
19560.5902754
19559.6717085
19559.327859
18317.3106605
18326.8375884
19559.6828003
19559.2042121
18331.1272615
19559.8505846
18320.8645653
19559.8438341
19553.0970374
19550.7429543
19549.4190093
19548.348716
19548.3096956
19550.9274565
19553.4633047
19550.6776817
19549.0740203
19548.4197146
19548.7799106
19551.2710717
19545.8206537
19548.6815159
19543.3151014
19546.395996
19548.5504976
19550.3726783
19553.7242166
19548.6597755
19547.4044407
19549.5511376
19549.0560594
19548.8630662
19549.3060304
19549.7122322
19549.8601687
19550.0702883
19552.0838174
19550.0539146
19549.1068366
19548.9957686
19548.6686573
19548.5443275
19548.5872187
19550.0015841
19554.5594168
19551.7962799
19550.2523109
19549.5329736
19549.2134602
19548.9309723
19548.8454053
19550.8289031
19548.8786302
19548.5442289
19548.3430004
19550.7852105
19544.4010736
19547.3474818
19547.2087983
19544.783337
19544.4827534
19548.8470654
19554.8646203
19535.3283954
19548.0637776
19549.5407854
19551.276603
19549.2645201
19547.4938212
19548.1126888
19548.9515937
19543.5897469
19552.0575842
19551.0201022
19550.0923903
19548.7659102
19547.6934151
19547.7869857
19547.6561249
19547.2965957
19554.9719193
19552.443837
19550.4858087
19549.3946167
19548.8164385
19548.7422528
19548.7699845
19550.1735911
19548.5005455
19548.5691294
19548.6912844
19550.9721929
19543.4307584
19547.7385137
19549.6987392
19543.2364019
19541.9034316
19547.8833991
19554.6155847
19531.5305036
19547.641047
19551.3757502
19548.1972865
19544.6422801
19544.5843606
19547.1434909
19547.8778358
19539.5814365
19553.6361868
19552.5593231
19550.2437345
19546.4711896
19545.7971532
19547.1992525
19546.4131586
19545.2793065
19559.0794242
19556.4844888
19553.4207459
19549.7896286
19546.8797381
19546.6982267
19547.833842
19547.6859986
19548.4049041
19554.2271055
19549.8879496
19546.8757234
19546.9192943
19547.9979507
19547.9696544
19549.7163625
19547.7301734
19548.0563749
19550.3355909
19546.8522522
19553.0511062
19555.8025378
19548.0662418
19539.5265294
19546.7161614
19553.7228535
19557.1353457
19548.8488506
19549.5756694
19554.215939
19553.0913756
19543.6069586
19540.0231339
19546.453887
19551.0411457
19548.3397537
19561.6300561
19557.033569
19555.0051293
19556.3343816
19554.203947
19544.2455677
19540.7383662
19546.9363249
19550.3332804
19548.5028271
19560.1282984
19558.8283725
19557.8044784
19552.5270576
19544.2677505
19543.1386972
19548.2856551
19551.2401628
19550.1639258
19557.9845439
19551.0098701
19544.4304207
19544.5160488
19548.9988352
19551.4738627
19550.7708834
19548.5051692
19551.1040406
19551.2187249
721.40754142
753.065124384
847.741526416
972.512904282
1035.17891914
1143.31613045
1181.14608342
1201.17374654
611.341811268
638.015346988
706.731843588
749.185261049
856.41064697
1002.63314222
1055.02049475
1156.26307853
1194.60661672
1205.59010311
661.658782061
650.245903032
660.964807776
722.275280952
841.089275843
963.991391762
1049.31782466
1149.60000751
1162.41866222
1181.60354205
648.731625355
668.034722004
735.009731271
859.875062332
913.009907457
988.537664382
1071.53827675
1091.56873616
1136.59265237
765.335145007
853.52407063
883.33312715
963.655123977
1023.71137813
1041.87929088
1079.00796311
1026.37624762
1039.15518111
1039.85347097
0.271833274072
-0.128000210336
-0.177054019709
-0.0422578295378
0.154716480932
0.879248179686
0.204646128528
-0.19050022097
-0.372133367447
1.35955079544
0.157350320789
-0.0671703271242
-0.18161618347
-0.0424844365047
0.224740659462
0.855091990932
1.49494663842
-0.220776059813
-0.423705070331
1.70672332316
0.333377035285
-0.0241752601868
-0.142870475429
-0.0745109829804
0.00951523307138
-0.186993546318
0.567490172165
-0.158139488374
-0.405305687897
0.95841501073
-0.0751264795553
-0.0876076603952
0.0592502374741
-0.0685984948074
-0.177883667239
0.472520521389
-0.130898662161
-0.370773523996
0.709593108479
0.167125533627
0.318711662169
0.633672057627
0.628608447464
-0.162435895298
-0.331951043501
1.01149927178
-0.104657029153
-0.25992835204
1.31402028351
19547.6070707
19545.8531157
19547.7715565
19545.4066033
19547.5897561
19545.9274992
19547.7098924
19548.9533455
19549.161126
19549.5969446
19548.9742467
19544.6264608
19548.6174367
19546.9073884
19548.3688022
19549.7026922
19549.3030273
19547.4826097
19548.7787597
19549.5058563
19549.6502276
19549.6710172
19549.8085972
19550.016756
19549.6015193
19548.9589637
19550.2477571
19550.6927114
19546.290684
19545.728396
19547.1188249
19543.4033932
19545.7620278
19545.0145961
19547.0064876
19547.1906797
19547.5622651
19548.2502391
19547.0280854
19546.7706388
19547.9729086
19547.4096914
19549.1040584
19549.6219306
19549.9274643
19547.7329363
19549.3441345
19549.6754847
19549.8903035
19549.0470553
19550.3399681
19553.1560182
19550.2630524
19546.1232675
19550.0444039
19552.3237391
19546.1609758
19545.2053489
19547.5194865
19544.5814762
19547.7493521
19546.2109533
19548.892421
19548.0453141
19549.0737449
19549.4884923
19549.8124036
19550.8740477
19550.8425589
19552.8975992
19549.8137934
19549.8916169
19550.5113687
19548.473728
19550.7955201
19550.5062492
19551.6865444
19547.9383009
19550.9549523
19552.3419883
19552.3788454
19552.0082762
19552.5985037
19553.8988925
19543.8892182
19546.1542441
17961.3521368
18000.1605541
19550.1343423
19548.41146
19551.076001
17964.7853254
18033.4431992
17999.0805654
18045.3500137
19555.4002543
19553.481595
19555.0444989
18063.0621171
18098.5597789
18072.2070997
18088.8121316
19553.4687146
19553.791826
19550.4082681
18122.0687312
17882.8761621
18032.8026352
17579.5812421
19542.0672378
19545.4474796
19540.9624327
17633.2300649
17024.7293838
17369.5602255
16983.2686539
19542.5691718
19539.5904436
19542.4993581
17070.9939235
17279.1736571
17023.1567003
17228.3934878
19550.6712446
19546.1874179
19549.7971606
17316.8862539
17431.1226885
17273.0271392
17382.3897939
19555.7223728
19552.1233522
19552.9250703
17432.5043777
17421.1793432
17381.5244287
17306.6084161
19539.6048756
19551.1762061
19541.1723135
17394.6519362
16850.335474
17272.8882962
16824.9312937
19561.3841232
19557.0166337
18432.506245
18263.6911969
18354.3430076
18306.6341519
19548.3143927
19553.8195741
19552.1360322
18203.8922887
18030.5972613
18279.4715386
18191.0670862
19551.9714415
19552.1365128
19553.6495618
18027.0967412
18061.6559577
18174.010965
18163.1243968
19555.1469787
19555.5734321
19556.3268241
18089.2653606
18119.4082359
18170.92997
18202.1454294
19548.4651541
19554.5541624
19550.0993504
18053.4370597
17584.0279788
18135.9980821
17617.2945213
19540.4440893
19544.8480663
19541.0901859
17376.4394416
17011.8886018
17424.5276359
17110.9697846
19542.9421849
19540.4407906
19543.4909398
17043.4800219
17222.4588476
17118.6026301
17245.7296339
19549.5393878
19546.8460069
19549.3447927
17266.383139
17365.7031362
17281.4511187
17380.1195088
19550.7710495
19550.5134125
19550.1777315
17367.1884508
17276.3294107
17384.5366497
17278.3452327
19543.5436284
19547.835429
19546.3115385
17246.551787
16848.7829408
17243.8860367
16869.5230524
19559.2958061
19561.70154
19560.3723577
18322.6418157
18300.5116602
18313.470344
18304.9483591
19555.568669
19558.8657708
19557.8486698
18285.2349464
18234.9547354
18296.0542161
18291.8644163
19555.3919287
19557.2435889
19557.0760469
18220.0050884
18191.500704
18285.6454563
18250.7004366
19556.5261642
19557.1964846
19556.3994248
18193.6864925
18209.497108
18244.5681812
18172.3168959
19549.3826291
19553.7357331
19548.959477
18148.2545531
17620.9344739
18071.783224
17593.2148444
19540.9934331
19544.3106607
19541.7373491
17430.3288795
17131.8395944
17428.7054636
17251.8734665
19543.8369147
19542.1054517
19544.8998959
17137.0150606
17256.9229167
17265.7230633
17395.206017
19549.1492197
19547.7971226
19549.7551145
17293.4521216
17395.1043877
17424.9928872
17494.4431009
19550.2860691
19550.831931
19550.9507561
17398.57493
17321.5858083
17493.3359818
17429.7128459
19548.0944929
19549.426569
19549.3363306
17279.3158605
16864.8513345
17380.0106257
16924.3611196
18320.1452986
18315.7582991
19559.4567784
19560.6084932
18311.4398724
18301.6215544
18324.3117751
19558.4400967
19560.1104658
19559.3745106
18297.4435971
18265.6742196
18316.9287283
18223.2936246
19555.8991908
19557.9210764
19555.1807392
18255.386906
18101.7490817
18169.5714263
17980.5152636
19547.9038477
19551.3803706
19547.1932552
18004.7913071
17583.9853661
17897.7564395
17584.1761171
19542.5838951
19544.3971341
19543.2980919
17451.8325902
17310.1283281
17499.4787926
17421.5453045
19545.7248913
19544.1585116
19546.5070466
17323.9290233
17435.6351276
17432.7726459
17527.4486307
19550.2380485
19548.9060648
19550.7351111
17461.1081902
17522.6025535
17549.12756
17598.6704645
19551.3083977
19551.7409217
19551.5590878
17521.5615905
17473.7277387
17593.946881
17501.0789206
19550.5760332
19550.5733467
19551.7545678
17421.5592485
16963.033615
17458.7125404
17060.2863637
19554.9795396
19555.4040962
18161.1209524
17971.4564263
17974.6731073
19546.853441
19551.1359798
19546.8553013
17887.7277231
17574.1283979
17883.0482361
17611.6608016
19543.6773937
19544.4656173
19543.8399301
17500.8795628
17438.0705381
17538.6525466
17450.7560309
19546.7398747
19544.6366317
19546.7762821
17448.3516471
17538.4926841
17455.3065546
17531.9981332
19550.8188073
19548.9270939
19550.72719
17560.2166727
17606.7099349
17552.3871516
17605.4117504
19551.3248309
19551.3067651
19551.2525998
17601.079987
17513.0950709
17595.300929
17517.0126956
19552.7516301
19551.0328877
19553.7044126
17491.9817506
17121.9771725
17527.0851689
17265.5871672
19546.3441346
17516.5748293
19550.4081048
17541.707579
17602.4118731
19551.167375
17591.9425391
17525.7312196
19554.1375244
17549.4269355
17301.4950614
9.0055638442
7.04067742391
9.17280600001
6.55931910654
693.916319079
688.325971945
3.4159749347
0.732041745954
2.66056742913
1.08974308843
739.558328379
720.241274289
741.929076255
1.16001023324
3.3460732734
1.00608022614
2.69912903212
787.000875772
757.072862564
798.40195698
4.62955860433
5.00841668959
5.08638873841
6.75262457706
919.273720019
875.948714646
945.157147822
7.41718482839
13.3067720467
10.4705595467
15.1984237785
1009.90158823
998.973207183
1028.3041919
18.9439753383
22.2655843671
20.4893795871
25.1462175218
1078.53325898
1050.11225865
1095.90939984
17.1734105573
7.00861763803
22.3276381955
8.52218079009
1154.20057965
1153.98255446
1167.81729892
2.11010858954
1.54443955171
2.19426121277
1.70193460696
1188.94266206
1192.50516111
1205.11217719
1.81695973261
2.13250246786
2.11803773921
2.57000138912
1182.7381013
1209.08287738
1183.26054975
5.8163654656
37.0871741798
7.03867600314
41.7427622547
633.461450246
640.051083537
639.287102799
7.3311975768
5.25799324748
6.54401665253
5.72916344097
678.89515167
644.31470483
661.19077137
2.89184927264
1.85565873521
4.07588683921
2.50913045398
727.626817825
681.437216633
702.394435737
0.739358448192
0.6924490704
1.25107646113
0.654159018788
786.001859567
731.692141306
770.48462556
1.98361184714
6.45930850935
0.934150240838
3.22210301246
932.455180526
843.429382566
919.193086011
11.241230428
15.4777761115
10.5874652339
15.2273227816
1038.52506207
984.846275139
1023.21690071
21.024593643
25.8794116608
18.9241462742
22.231770677
1104.56584544
1056.84842128
1105.7884864
30.3070386631
11.0211260347
29.5388016595
11.0565956811
1171.99938911
1157.50733336
1167.39416089
2.25822479298
1.7988310718
2.18913962778
1.75040521704
1207.22534756
1184.84941227
1195.86646488
2.28554642648
2.93070504933
2.28198949514
2.86439674906
1174.26858631
1195.1922498
1165.44904223
8.46665629802
46.6714868405
8.54223490116
47.8964716762
654.736184394
662.252264005
658.256118325
5.19665458097
7.08410992915
3.62715657294
5.92964435142
649.150758444
653.420309641
651.31043437
5.34296768333
2.88977219108
5.11686792872
3.0878929206
689.660094
661.349198185
687.807841786
1.27981828507
0.756874781885
1.60486025133
1.07286554207
766.742669668
724.308834664
779.261356544
0.733683980863
2.0973534817
1.00414192418
4.01907447121
903.359802212
851.020223874
893.092416975
8.37410012889
12.594978403
7.83100685244
11.6928719848
1003.94451796
938.158191995
972.648819827
12.9890526417
13.8424930518
12.0869677016
12.0002288645
1096.25956143
1020.74596071
1063.31559997
21.2257050139
8.59585238161
17.6045571248
6.95991797218
1150.21101419
1114.45966104
1115.99115
1.80012435562
1.37666794396
1.39946558091
1.0616581348
1175.2507824
1127.64246164
1146.19499675
1.83583819552
2.24823820522
1.39416189332
1.71839073045
1173.54071463
1160.29960476
1160.90722753
6.40636064654
35.5013338599
5.26712508952
31.475826636
653.396896835
657.645330071
4.26085507774
2.49928106971
2.94460842801
691.892653068
675.86637594
709.074009693
1.75591931654
1.60353541022
3.44839544302
4.78136222767
801.311768934
755.330186539
815.030845505
4.12212449791
6.94922502571
6.61895603491
8.24362038463
888.243695796
861.228760439
878.895474917
8.60670838496
11.1706329182
9.34953386456
10.8569185227
943.314655933
893.493214521
924.670251266
10.8910476121
10.6987907226
9.95585032931
10.1919663471
1026.86917265
967.667639239
1005.56459791
16.6948925457
6.74345927652
17.3702099426
7.29800020656
1077.58677013
1039.02337606
1045.25746825
1.25945212558
0.946889160593
1.51265352743
1.14100356575
1113.86601024
1059.34978193
1087.31233797
1.149146128
1.4151815266
1.39774442326
1.91012219244
1154.54133845
1107.96864515
1134.40239546
4.4367851074
27.2453798058
4.57447215614
25.6628444699
814.980482584
808.035245166
7.88946801211
9.37804542175
8.19582093162
9.8120263066
871.909391338
840.486387064
861.117060386
10.8346918075
13.4310139814
12.2120605487
14.104993721
916.482963063
877.533366698
916.499498014
14.8202790235
16.7768836599
16.3976232949
18.95831234
996.171285472
970.020166177
994.999271321
20.1788277575
9.0395228655
18.3251111974
9.49485914881
1029.17578082
1020.10753765
1023.3546045
2.03381669178
1.40741634877
2.7862352157
1.91083523212
1065.20895414
1035.3532062
1049.79283256
1.74536257957
2.29024846044
2.60747373154
2.99069540883
1095.45606195
1054.59882957
1059.56801469
4.8061169709
29.3296257138
6.25792635313
31.9498484824
1003.06998252
4.60159947809
1028.80408235
2.95763628383
2.22435328005
2.54006375619
2.10724795169
1047.6597753
2.90310405945
3.34174645606
3.06329652368
4.20185948659
1038.69198144
6.55124555559
37.3193778118
8.60317722312
38.06838178
19544.7607636
19544.2866002
17958.3060256
17959.7796835
19544.8790896
17969.1606795
19543.8546631
19545.092251
19546.4941175
17974.4678417
18045.5228854
19545.0631136
19547.0255428
18001.2428312
19546.7189811
19545.1555619
17974.0295422
17965.9897379
19545.6028429
17982.3338705
19546.418406
19548.4892797
19550.0458541
17997.2789335
18028.1004969
19550.3126923
18001.4132674
19548.1472043
19546.9536542
19546.8145113
17977.6691201
18006.1818279
19545.6947053
19548.1625773
17991.4174498
19548.7525066
19551.027988
18035.7464331
18019.5993697
19550.4290609
19549.6424009
18008.9788537
19552.9326518
19551.7339016
18063.3734392
18052.9698277
19551.8120258
18052.0823185
19552.8800843
19553.4162496
19554.0013781
18080.3126659
18088.3567433
19553.6294413
18073.7143952
19552.951079
19553.7632461
19552.6508066
18058.5014119
18090.7431355
19552.0519609
19554.453928
18063.9356713
19554.7969726
19555.0856476
18079.9689969
18105.3862886
19554.9446728
19555.6754631
18075.2789736
19553.6095624
19555.7317284
18146.7910381
18100.6944488
19553.8792223
18075.1069959
19556.7957216
19549.4543122
19547.0545617
18058.4538583
17776.0890124
19541.5094548
17955.4026474
19553.8656422
19549.194775
19552.4787188
18050.2485658
17930.4174778
19553.2084132
19546.7076635
17979.7630632
19544.2932301
19529.9666574
17655.5821707
17775.0695263
19536.2857799
19539.0326587
17844.3274853
19521.3511662
19536.4749933
17354.5386387
17530.4381428
19531.7737859
17278.7983453
19524.7087164
19513.8527759
19514.8522426
17162.4062186
16980.1171833
19513.0156649
17102.8396878
19515.7146075
19516.7982769
19520.8017129
17430.6466094
17168.413025
19526.651119
19511.741918
17212.6945101
19509.5229172
19507.4535126
16981.4023279
17046.9406502
19508.2368526
19506.1310134
17074.4690625
19517.8080096
19515.6344422
17155.0293606
17025.9216027
19514.8496787
17115.542102
19518.8752115
19523.0132496
19529.7884225
17223.2804521
17253.6815605
19528.4028561
17193.3921452
19524.7884741
19514.6244634
19509.7934135
17021.866724
17099.5155958
19510.7665855
19513.4155656
17101.5604942
19521.0246942
19525.6401146
17235.6421665
17168.0700214
19527.4863011
19519.7063346
17174.3543193
19534.4074054
19532.9413748
17363.6611349
17293.2959801
19531.7576229
17342.4413176
19535.1927561
19536.117657
19539.126767
17404.4071088
17409.3403377
19537.465262
17385.0648855
19537.3272086
19534.2034971
19529.4075252
17278.1202802
17326.4363225
19531.1382443
19532.6771658
17329.479706
19536.3113704
19537.1152871
17393.2121725
17367.0013979
19537.7776445
19535.458504
17371.8117361
19534.684729
19539.2894444
17441.9806665
17412.5565658
19536.9664801
17421.0391951
19537.6087474
19532.3820557
19534.9533298
17440.0180148
17398.3507658
19529.4205223
17417.6785834
19536.4897303
19535.426408
19537.206463
17394.1488214
17388.587823
19537.4962295
19535.446062
17403.5063946
19533.8921842
19529.5209493
17343.9187128
17357.2357033
19530.6836391
19533.4771466
17382.8348797
19513.4868171
19530.6488209
17269.1938169
17372.8843183
19524.2780573
17248.0466233
19520.744425
19493.6176331
19503.8818765
16797.1675044
16837.335164
16783.3764019
19499.6245472
19501.0919761
19513.8111356
19523.2693233
17313.7039856
17151.6416696
19524.9196066
19511.8244044
17188.3169061
19494.8065191
19503.8827207
16855.9322617
16698.3169151
19490.8899323
16732.7367357
19503.3944406
19560.3490063
19564.0413573
18401.6475946
18422.2027067
19560.79409
18390.2111545
19563.0129326
19557.5582777
19553.9302046
18339.9423544
18299.447563
19557.6249172
19554.9877533
18355.7149329
19560.1886665
19560.6107881
18396.1957914
18341.650249
19559.130269
18376.9181628
19562.0435806
19558.0145304
19556.1057045
18302.1985473
18327.4953366
19555.5398725
19557.5890908
18350.2555736
19550.3957846
19550.6928305
18145.4921137
18235.1301096
19548.9257125
19552.4092523
18181.0800367
19549.1731945
19546.7278125
18079.9455749
18082.5937459
19547.9748295
19547.921551
18132.1739115
19551.8775121
19554.4480759
18249.8721492
18242.3856124
19553.3660407
19553.0743255
18209.0530315
19550.4595572
19551.7644497
18133.0790155
18209.8311572
19549.2558595
19552.3191793
18175.4966179
19548.8115886
19546.4690578
18032.0426304
18069.5136576
19547.7426338
19547.673249
18073.0936003
19550.2795487
19551.1371031
18041.624473
18091.6939631
19549.3523871
19551.8670255
18081.0480218
19549.951544
19551.5994194
18117.9278681
18158.7441749
19549.0501191
19552.0760599
18119.6753517
19551.1730205
19554.4937498
18130.6067751
18158.8649854
19552.6141527
19553.2164065
18124.1355071
19555.0188397
19552.964043
18124.4053093
18107.3472523
19554.999446
19553.5269571
18129.8759629
19556.2466468
19556.2634243
18138.6006173
18154.8063041
19556.3302386
19556.2743291
18161.4025542
19555.4228335
19555.6702908
18139.7556334
18179.9798051
19554.0478741
19556.7264669
18155.2878478
19556.6899769
19558.2573238
18188.1237359
18191.0624402
19557.111037
19557.8571852
18177.0548592
19547.7593872
19553.4638528
17944.8632943
18085.0973305
19546.8359201
19553.9484439
17957.2840371
19538.2720363
19526.0228471
17779.6944359
17582.9984452
19537.6035415
19526.6490499
17785.8274753
19549.5773979
19556.1267183
18118.6818438
18008.7427185
19555.035169
19550.8932048
17979.0177697
19541.3201996
19532.9356971
17601.093154
17822.8772275
19530.6108537
19542.9326615
17799.4235073
19505.5546254
19515.0398889
17184.4195335
17388.9638574
19505.754217
19515.1808793
17206.150155
19500.0221517
19502.3391605
17071.1899815
17032.9755719
19500.8690013
19501.0429119
17096.1866269
19511.1319011
19523.0077359
17414.5213248
17258.9388901
19520.1593765
19513.9932911
17245.5706195
19505.029703
19508.0454668
17075.7740525
17168.5895927
19505.6117757
19508.1954561
17140.8699054
19508.6663706
19505.6346718
17107.3006045
17058.0313442
19510.6349457
19503.7911441
17118.4737009
19514.3898882
19522.4132016
17168.1049714
17226.7593728
19516.5718928
19520.5387611
17176.1897988
19509.9435488
19508.7536622
17091.1195608
17153.2394069
19507.2202383
19510.7806756
17138.4138957
19514.6468132
19520.1926833
17232.382119
17199.2423716
19520.2441471
19514.9369968
17188.2177047
19529.9116777
19527.1281028
17319.3818503
17265.9258252
19531.2198604
19525.5630838
17316.9605084
19533.1852838
19536.0396242
17354.7548749
17366.5806074
19534.5264371
19535.62962
17352.164287
19529.8077479
19525.1591189
17269.4942859
17327.497323
19525.2355531
19529.6110492
17317.3461952
19533.6405746
19536.396177
17368.2473075
17362.3735633
19535.7568441
19533.6638903
17351.7929911
19535.5646099
19536.1483669
17377.278868
17368.5301113
19534.7757931
19536.1107139
17373.0667841
19533.4940788
19528.211948
17336.5163744
17256.9780504
19532.5547112
19529.1815391
17328.2362147
19535.562349
19536.9182067
17372.7725202
17387.6040667
19536.1588556
19536.332425
17378.4795983
19533.3270099
19530.0198884
17262.4226307
17345.1813033
19528.8987931
19534.3352229
17333.3399881
19511.90128
19521.8759083
17133.4523624
17221.9165635
19510.6294268
19522.7545548
17112.8604353
19490.936648
19503.8516263
16710.5563721
16837.7794946
19489.2044317
16700.9099547
19506.0483456
19511.3982586
19523.4904069
17228.8809653
17132.2058963
19522.3133473
19512.3557922
17121.9658224
19490.3842255
19507.5057487
16854.0597941
16722.96369
19491.8196832
16722.5025701
19506.181939
19559.0357076
19560.5334549
18315.2979523
18319.3684614
19558.9442684
18311.6647661
19560.1921045
19557.9293053
19556.2881366
18309.0460777
18298.1475457
19557.5663758
19556.8778982
18303.542919
19558.903269
19559.9764409
18317.6341091
18311.57175
19559.372208
18310.4013964
19559.9896715
19558.0226902
19558.0151643
18301.678451
18309.8683373
19557.3195487
19558.5826186
18302.781504
19555.0912545
19555.0381659
18255.0337506
18292.6097995
19554.0793875
19555.8894409
18285.0578134
19554.6171964
19553.3877344
18241.7442356
18262.2358764
19553.5702488
19554.4467685
18274.158612
19555.9734305
19557.3710379
18300.1806754
18290.2824433
19556.619792
19556.8529638
18295.390411
19555.5747479
19556.7031507
18271.9968265
18290.74499
19555.5922705
19556.5918161
18284.806621
19555.1741961
19553.4266504
18200.4187887
18252.5007151
19554.0475887
19554.9188372
18242.1258004
19555.7488487
19555.4796413
18190.8656268
18213.7238532
19554.7752281
19556.4880289
18223.9403076
19556.220613
19556.9014816
18263.6770953
18267.9356667
19555.9502968
19557.2922834
18257.1712231
19556.6104402
19558.0458474
18229.3640244
18254.8395136
19557.2016489
19557.6623152
18242.8096392
19557.7804577
19556.225744
18196.5689193
18214.3309636
19557.397243
19557.2722293
18216.2876051
19557.5423958
19558.1915745
18200.6824299
18214.6555391
19558.030016
19557.9835324
18217.2770329
19557.8646336
19557.9929305
18224.7578415
18235.6494904
19557.8338842
19558.3251357
18223.4377199
19558.2071226
19556.7848142
18203.8377253
18216.1323365
19557.7219613
19558.2421518
18222.2289559
19550.0744155
19555.9775276