/*--------------------------------*- C++ -*----------------------------------*\
| =========                 |                                                 |
| \\      /  F ield         | OpenFOAM: The Open Source CFD Toolbox           |
|  \\    /   O peration     | Version:  v1906                                 |
|   \\  /    A nd           | Web:      www.OpenFOAM.com                      |
|    \\/     M anipulation  |                                                 |
\*---------------------------------------------------------------------------*/
FoamFile
{
    version     2.0;
    format      ascii;
    class       surfaceScalarField;
    location    "6";
    object      phi;
}
// * * * * * * * * * * * * * * * * * * * * * * * * * * * * * * * * * * * * * //

dimensions      [0 3 -1 0 0 0 0];
oriented        oriented;


internalField   nonuniform List<scalar> 
92311
(
0.203060516294
-0.000349314227803
-0.000397148113987
-0.202658532974
0.000344479426879
-0.00037891739348
0.203345012404
0.000156725090036
-6.21807094617e-05
0.203057676871
-0.000813760489116
-0.000370074382576
-0.202558816379
0.000335814679259
-0.000892585125623
0.203512954379
0.000141762424431
-8.31813591574e-05
0.203110767246
-0.000355302895968
-0.000460364324337
-0.000181432024479
-0.20230023308
0.000215561004618
-0.000360119124047
-0.000482595572331
-0.000436601464169
-0.000440954359652
-0.000472628421238
0.203977611512
0.000205029687138
-0.000151540223753
-0.000462715491304
0.0505982196862
-0.000102645193022
-0.000125576196299
-0.000103483939368
-0.000126394359159
-6.67927696914e-05
-0.0504823256147
5.37012038351e-05
-0.0507765512829
0.0510241757708
-0.000178278793333
-0.000155921794355
-0.000161340538553
-0.000167484771634
5.27749169384e-05
-7.39827837573e-05
9.87472673306e-05
0.0124877640486
0.000125862818962
8.61310337371e-05
0.000121725284018
-0.00840563955744
-0.0195071407233
0.00624926769679
0.00874317999291
-0.00916760320243
0.00417798393573
0.0044394223937
0.00359775106889
0.000142264200118
0.000151380968352
0.000156736767886
0.000166622465781
-0.00366463126714
-0.0139119290361
-0.0088966201554
-0.00924904049679
-0.0112795553125
-0.00248609567733
-0.0154172904568
-0.00421877919074
-0.0114739193067
-0.00014240221646
-0.00017050079034
-0.000176373931727
-0.00014320514423
1.08996256029e-05
-1.71529541172e-05
0.000102028422987
0.0123684395839
5.52899770484e-05
-5.13186673029e-05
-0.0123757211866
0.0123198720901
-0.000159810004574
0.00019102734357
-0.0123411662983
2.98336223318e-05
-3.97509959746e-05
-0.000126435662356
-0.000143671780677
0.0511673755205
-0.00013365519599
-0.000150922141675
-0.000141427756393
0.000111997181802
-0.000152672697105
0.0511570773233
-0.000163531668446
-0.000166215204163
-0.000178634893393
-0.050999861282
-9.52541023724e-05
-0.000168322212321
0.000183655452189
0.0123162088585
2.71683184362e-05
-3.88172676586e-05
-4.40301632863e-05
0.0128337551029
3.81902031621e-05
-0.000161941088366
-0.0128096520806
0.0128375985598
-3.99092371652e-05
-0.000181446571232
-0.0128129429955
-0.000249788574835
0.203106036209
-0.00108355879423
0.000929275958578
-0.202701964354
0.203374652732
-0.000245104166835
0.000640235855116
-0.00042429956789
-6.12566298574e-05
0.203155711075
0.000928378672598
-0.000647768171872
-0.000413279885063
0.203015353258
-0.00111653977975
0.000902438817198
-0.202637629419
0.203547464747
-0.000451760424353
0.000587275307086
-0.000414883399902
-5.00620420318e-05
0.203238485177
0.000888572330431
-0.000590524932614
-0.000149665953112
-0.000201473051339
-0.000190562563129
-0.000905486048685
0.202761096077
0.000764343672398
-0.202349704405
-0.000141769879143
-0.000282474428344
-0.000122913566078
-0.000269356214945
-7.42981910046e-05
0.204053806691
0.000648867738646
-0.000428166309916
0.050522904402
-4.7098870031e-05
-3.07982150139e-05
-3.97560778044e-05
-4.14405333003e-05
-0.000202899155642
-0.0505013685485
0.000190813369267
0.0512278086048
-0.000106973775178
-0.000104661141328
-9.5701205372e-05
-7.13637359092e-05
-6.56166684313e-05
0.000101302737804
0.00498854560677
0.00316867906018
-0.0118715906363
0.000101181960642
0.000105090893091
6.42277539317e-05
6.51501923334e-05
-0.00578890145814
-0.0095918852512
-0.00755380796834
-0.0092234574702
-0.00676779794665
0.0357583107107
-0.0138690674982
-0.0180459677049
-0.00834952326699
0.00825615447341
0.00620005264359
0.0107974435449
0.00883675430067
0.0123149079523
0.00562566413681
0.0512051676525
0.000105244858704
-7.34988365233e-05
-7.85825083418e-05
-6.55372436135e-05
-8.59961679756e-05
0.0506045379321
-8.47249378708e-05
-7.02500128895e-05
-8.00199559761e-05
-6.58867557882e-05
-7.8763071685e-05
0.0505454141488
0.000125229701573
-0.0504610055271
-2.19751331145e-05
3.00923390889e-05
0.012442143026
0.000108973840078
-0.000114684903013
-0.0124445850902
-7.85079716774e-05
9.80207192776e-05
-0.0124325024072
7.40363084504e-05
-8.28376834818e-05
0.0124217836797
-7.12974910773e-05
0.0125891097419
-3.57588933462e-05
4.08746757479e-05
-0.01259314995
-0.000114483552362
-4.81262129996e-05
8.64506365424e-06
-4.27154225579e-05
6.41149790319e-06
0.0511564212683
0.000138738122983
0.0512154280713
-0.0001051697397
-7.25008226738e-05
-0.000117060477583
-6.69059067402e-05
-7.31832451369e-05
-4.44921449199e-05
1.86336763246e-05
-4.09368379588e-05
1.45832241802e-05
0.0511433613439
-6.50206783118e-05
-3.76428857414e-05
3.43566279395e-05
-0.000117874781286
0.0128501712478
2.80606998627e-05
-3.0012357338e-05
-0.012259815143
2.19317032357e-06
0.0122468964494
1.27506742039e-05
-3.00812423081e-05
-0.000129062687676
0.012853949665
-0.0128436130927
-3.20946119633e-05
0.0128226556674
1.42183905664e-05
-5.68779346909e-06
0.00419101319813
0.000148038407196
0.000174671093524
0.000149611043397
-0.00511535458628
0.0064353643022
0.00634435280731
0.00422825027593
0.000160121709223
0.000193798604165
0.00022691978542
0.000189321010272
-0.0104721639563
0.00396177144289
0.00568995467069
-0.00334223328366
-0.00760706654864
0.00272544232202
0.00355798196095
0.00136273871075
-0.00807287240316
-0.00144266360864
0.00590272038501
0.000166500771072
0.000176606657238
0.000181262980057
-0.00320821582056
0.00440150885135
-0.00125302909886
-0.00545588761235
0.00269351102786
1.1785862052e-05
0.0125967512956
-1.95739088961e-05
-0.0125896177961
-0.0125821869069
-0.000145961620662
-5.29749314949e-07
0.0126079854194
-4.87186698478e-06
4.99526664064e-05
0.000144036986006
0.0123461451802
-4.58209167599e-05
0.00010144230912
0.012357347305
-0.0123704054884
5.31096511436e-05
-0.0125780401565
5.65548330032e-06
0.0123338979289
4.91778783514e-05
0.0126239192453
-1.00834799563e-05
0.0126363796687
-0.000165364915364
1.67609036457e-05
-2.21301857511e-05
-2.71613730051e-05
-0.0126507805439
0.0126842504305
1.4232439537e-05
3.54268997968e-05
0.00015782047893
-4.01395399157e-05
0.000206314020234
-0.012328583783
0.0123074188223
1.94231860941e-05
0.0126747798321
-3.56751978838e-05
2.51579306843e-05
4.56804334824e-06
-0.0127244854705
-0.000207916277573
4.30344676717e-05
0.0127645631233
-5.34701009128e-05
-3.82012821241e-05
0.0127275160565
2.26894999671e-05
1.73578199119e-05
0.000189569327901
0.0123060211285
-3.02184163848e-05
0.000201090460266
0.0123016501032
8.510099857e-06
-4.80925918778e-05
0.0122931256335
-7.8418177805e-07
0.0127638814617
2.87691996122e-05
-0.000149438990786
-0.0128048868519
0.0128297337104
2.9104469399e-05
1.3884843772e-05
-0.0123033957267
0.0122994880022
-1.70877156935e-05
-0.012289058905
4.23266971962e-06
0.0122882046218
-0.000186403076778
4.15298815618e-05
-5.1204899332e-05
1.71608492145e-05
0.000169245048546
-2.69962190721e-05
1.50283834653e-06
2.83271252555e-05
-0.000197976000999
-0.0128227711511
0.0128488802612
-3.15428532685e-05
-1.73205169655e-05
-0.0122872802664
0.0122875271598
-0.0122874357676
0.01229116882
-2.50997399421e-05
-5.07781438605e-05
-0.000214264922228
-0.0127652634925
0.000240101595209
2.16460388756e-05
-0.0122904719651
-3.16628360845e-05
-0.0127701013206
-4.18383363482e-05
-0.0122889351183
0.00436032970124
-0.0107837796431
6.36333715598e-05
7.86179522677e-05
8.66249519981e-05
6.37845585155e-05
0.0203648458895
-0.0243082687651
0.0100745369838
-0.0070767017821
0.00890335968531
0.00348490922989
-0.0105348707826
0.0224944611746
0.00290029374057
3.87253990362e-05
2.72016057151e-05
3.92596916049e-05
-0.0112832175894
0.0113945401981
-0.0256331171711
0.00430518557286
6.22324772604e-05
7.72316367031e-05
5.58337464693e-05
0.0175889896985
-0.0104559704289
0.00785435132909
-0.00853275510439
-0.0110384672261
0.00706451256176
-0.0083976250275
0.00425993521216
0.00279548889853
-0.0124426329295
0.000100560726191
0.00011740021076
6.19611823511e-05
5.41272404729e-05
0.00382987443684
-0.00319562721723
-0.00286907431632
0.00951204209843
-0.00358167436031
0.00168572030391
0.000884107563815
-0.00458898841687
-7.29153470813e-06
-5.23853199809e-05
-3.88868930457e-05
-4.47247448776e-06
-0.0117607082795
0.00312432104142
-0.00386974530597
0.00184997849158
0.0108315368384
0.00147781285457
1.5342619476e-05
-3.1135929739e-05
1.07807427498e-05
-0.0119193258294
-0.00598735335416
0.00162281290795
0.00123169418338
-2.94987189505e-05
-0.0126019988502
-5.63406212252e-05
0.0126070032864
3.37419227976e-05
0.0126099381847
4.01243176329e-05
-3.96600263296e-05
-0.0126110884343
4.93229181275e-05
9.93936878089e-05
0.0124369062844
-0.000104747503707
4.18905102673e-05
0.0124306027172
-0.0124311146566
9.47929674434e-05
0.0126159517499
-2.58949076626e-05
-0.0126048093237
4.3421016555e-05
0.0124272441889
8.57847445892e-05
-2.30216703234e-05
0.0126058621442
-7.81790378869e-05
2.88949905774e-05
-0.012617092786
9.7421730763e-06
-2.69615184269e-06
0.0126295695433
7.3187240818e-05
8.47014370838e-05
-9.12624329012e-05
0.000105244105547
-0.0124186903839
5.89529927258e-05
0.0124057634053
-1.64126225212e-05
1.75087364562e-05
0.012617386894
7.10650618345e-05
0.012396872345
-7.1165626736e-05
7.03041589455e-05
-0.0124037296607
9.35543959917e-05
-6.20803461954e-05
0.0123823329287
6.15888477979e-05
-2.45888215985e-05
0.0125988912481
2.84463703863e-05
0.0125992563582
-7.09978414509e-05
-0.0126008620547
9.63053815353e-05
-0.0124073582435
0.0123945092474
0.0126098243775
-0.012414633436
-0.000108801068342
0.0128475486315
2.95816477776e-05
1.05926091398e-05
0.0122873285542
-6.0566386545e-06
0.0122765283512
9.440930048e-06
2.96258013402e-05
-5.5791409372e-05
0.0128379254893
-3.29055416669e-05
5.22661996103e-05
8.15346166957e-06
0.0122892275845
1.96168971776e-06
0.0128370084649
2.66931508649e-05
0.012280119765
1.39204525396e-05
2.91128442004e-05
0.0128181160006
-2.91441103022e-05
-2.84599044502e-05
-0.0128208191786
-3.02431691138e-05
0.0127960070876
3.35014240272e-05
2.84297767111e-05
5.66053836511e-06
1.04991591815e-05
-2.96393785496e-05
-0.0122501761302
1.40737083699e-05
0.0122367236995
3.06251372883e-05
-2.7839924024e-05
0.0127921655499
1.70866739205e-05
-0.0128627146334
-6.27469440658e-05
2.30350561978e-05
-1.38450571889e-05
-0.000140151067109
-2.09790142137e-05
-5.48085535742e-06
0.0122740001678
0.0122730643029
-1.00935767216e-05
-4.03594123117e-06
0.0122764315792
-5.83546237944e-08
-6.1498442634e-05
0.0128385623062
0.0122764553035
0.0122368794975
-1.19517438398e-05
1.18777812163e-05
-3.7483024709e-05
-1.2011207446e-05
0.0122217815301
1.20157827353e-05
1.06567857212e-05
0.0127936263531
-9.07486752489e-07
0.0128177372834
-3.46767780218e-05
-2.24521407612e-05
-0.0122423326677
0.0122278635371
0.0127924566829
-6.09746543047e-06
3.96589151362e-05
0.000106036544746
0.000959759264192
0.203412343383
3.25259796772e-05
-0.000540709764583
-0.000113115415372
3.31854317461e-05
2.01870512265e-05
3.59859975418e-05
1.56542907431e-05
0.000154485921499
0.0510037438644
-5.67531341176e-05
0.00334295266103
-0.000511258985942
-5.55115905159e-05
-4.79775019755e-05
-5.24594353456e-05
-0.0054873765579
-0.00905080429873
0.00883785781997
0.0106681806823
0.0121084371939
0.0453212074804
0.00656175770451
0.0105587472466
0.0660862964156
-0.000119013833753
-0.000100575460584
-0.000103274229665
-0.000118227054353
0.000302017107693
-4.08265817304e-05
0.0506586777495
-0.000103879514997
0.000112799389878
-5.09128094586e-05
0.0123729141916
0.0509737383788
4.60040698681e-05
3.03213137787e-05
2.57702116445e-05
5.3470570647e-05
-5.9574322167e-05
0.0508336132847
4.14614202432e-05
5.42547882432e-05
4.7368816167e-05
4.617643839e-05
0.000134820348616
-7.79286684676e-05
-4.87820148233e-05
0.0122269510067
-1.40534305415e-06
1.32647364837e-05
8.14015806023e-05
-5.54484944584e-05
-1.0410794755e-05
0.0121995601903
6.13799970506e-06
0.0121490465034
0.000101131417707
-7.0438793337e-05
8.67760156573e-06
-0.0121721350818
-1.62069604283e-05
0.0507145787983
1.74094390276e-05
3.55746209097e-05
2.84101672125e-05
2.79086534308e-05
-5.2730305629e-05
0.000166866425486
-0.000104340526625
8.81234682438e-06
4.69870950153e-06
-4.4802250586e-06
2.03257207521e-05
-2.81949750158e-05
0.000185728587077
0.0506583781968
-0.000130566887685
8.72180009575e-05
-5.04980898173e-05
1.74221346221e-05
0.0121255252192
-3.08493628315e-05
1.38217180689e-05
5.35611714044e-06
3.0115859785e-05
-0.012089253658
0.012074242687
-3.42170025971e-05
0.00010830499341
0.000127302432116
0.000133611961984
-0.00835520327918
0.0141443927702
0.00569753698523
-0.00753827008492
-0.00198905337704
-5.61219515695e-05
-8.27536416645e-05
-6.18782849368e-05
0.00139167031207
-0.00273419967895
-0.00296068489781
-8.00220379296e-05
-0.000101973658121
-8.40923662855e-05
-0.00234221030504
0.000866613699431
0.0026646590751
0.00528464322428
0.00199898614545
0.00212905762246
0.0110923325037
-0.000495113083245
0.00251415034412
0.00953745520138
-0.000497032627003
-6.32264366458e-05
-6.82707716629e-05
-5.11424879054e-05
-0.00207743820091
-0.00165646452886
0.00154042070779
-3.50749060329e-06
-3.1130681368e-05
-7.72963985463e-06
-0.00315390234644
0.00104252085816
-0.00160087137667
0.00327124724575
-0.0126190121369
-0.000150146581094
7.81228488482e-06
-1.26241797694e-06
0.0126436078012
-1.62024491828e-05
0.0126078271416
0.000118246052242
0.0123801989157
-4.65442220115e-05
-4.29700663967e-05
0.000146771465023
0.0123505875206
-1.01390391511e-05
-3.63383730307e-05
0.0123569787302
0.0126343427052
3.18397201828e-05
-0.0127618103938
6.27573328282e-05
-2.68645605398e-05
0.0127272540167
0.0127640143212
-3.14470285575e-05
3.47126692272e-05
-6.39061022835e-05
-2.48564858603e-06
1.341888689e-05
0.0122243067873
-4.14674015642e-05
0.0122189735862
9.70390553225e-06
3.7461638719e-05
0.0127304651489
-2.69530110532e-05
7.22880845646e-06
0.012219539747
-0.0127611196802
6.29317796963e-05
-8.58503887908e-06
0.0127259180007
8.14975907109e-06
0.0127582439798
1.97655290432e-06
-3.83398859576e-05
0.0122092054763
-7.57828562069e-06
-8.10041039529e-05
0.0122002839991
5.10078360145e-06
0.0122098517562
0.0127216787959
5.40504391494e-07
0.0126945836919
5.51002238608e-05
-9.69750344142e-06
2.74005891734e-05
1.4487979412e-05
-0.0126903178212
0.012666259617
-6.59596105497e-06
-5.39909553475e-05
-0.012183169604
0.0121591656742
6.63200201284e-06
1.47204190193e-06
-6.87770127286e-05
-6.26983502022e-06
0.012670372555
3.2112773503e-05
-8.83236067791e-07
-7.75049831811e-07
-0.0126481465889
8.54422634146e-06
-2.03418721671e-05
0.0126405566479
3.679390249e-05
1.90257166877e-05
0.012643064966
-1.08169514604e-05
-3.42705015954e-05
0.0121331983316
1.44723577251e-05
2.68641224884e-05
-2.79683815138e-05
0.012093579
-3.53680482406e-05
3.54755036144e-05
0.0120964089217
2.0983504947e-05
0.012635013088
-1.22406086078e-05
0.012635324587
-3.22658453953e-06
-2.53157847111e-05
4.2641787111e-05
2.88602049037e-05
-0.0126288081491
0.0126291742399
-1.91762936803e-05
2.0469973336e-05
-0.0120902043015
2.46104588275e-05
0.0120717581783
2.88333161295e-05
-1.80633396881e-05
-3.7510619088e-05
4.49562741157e-05
0.0126351767472
2.39555985797e-05
-1.67773409282e-05
-0.00062805004043
-0.0495636359844
0.0494863251044
0.000810421618222
-1.63358031924e-05
-4.002567841e-05
-1.96728570789e-05
-4.24206274386e-05
1.32138527681e-05
-0.000860366278219
0.0499951468639
4.60308702311e-05
1.97808032399e-05
2.98024526203e-05
3.51376703264e-05
-5.61030957171e-05
-0.0499276260261
0.000718079103509
-0.00117414340408
-0.0500743053051
0.0501933948598
0.000919144775005
7.34527742495e-05
5.50675112116e-05
5.88636369493e-05
7.00712256828e-05
-0.000121542908619
-0.00067406172676
5.37965912994e-05
6.30305476829e-05
6.42393280076e-05
4.94110250024e-05
-8.73238214047e-05
0.0502962107307
0.000473716867011
-0.050239018979
4.63076123383e-05
0.00432100670859
-0.0258488817425
0.0231075375445
-0.00596036013136
0.0043133338159
9.81710175785e-06
7.85835373474e-06
-7.33227646654e-06
5.26545569751e-06
-0.0223802394855
0.0238547528219
-0.00633504567219
-0.000644927732322
-1.54913821332e-06
-1.23205518984e-05
-2.58370826893e-05
0.00552904946799
-4.9987583895e-05
0.0042346367444
0.0197945348378
-0.00582094382132
-6.386458057e-05
-9.61030958176e-05
-8.42579419731e-05
-0.0185185094244
0.00060467360316
-7.37665796787e-05
0.00352572788518
-0.023282778929
0.0273129746969
0.00204196570599
-0.00920427769322
-8.5223685115e-05
-0.000115781079883
-0.000118741207148
-8.55780534914e-05
-0.00782900462734
-8.78297125669e-05
-5.96334806839e-05
-5.86967250206e-05
0.0258737227854
0.0117820777091
-0.00661582284441
-0.0229192425262
0.0973137033927
-0.00510211064432
-0.00177156278037
-0.00143418699762
-0.00220360526695
-0.00123087652282
0.00703550290772
-0.043843481521
-0.0138661730753
-0.0129548963236
-0.0105110443211
-0.0122378944457
-0.0104402812094
0.00853104234045
-0.00105363355364
0.0867203789479
0.00391828003836
0.0038543093542
0.00507974508207
0.00787910462775
0.00954537153472
-0.0360142077575
-0.00955366308202
-0.00355281938573
-0.00478771092392
0.00235437554529
0.00300683539833
0.0153786815539
0.0986480234393
0.0120764520461
0.0152176111389
0.0156058006337
-0.0438886187775
-0.0065473128337
0.0138464829956
0.00586629278851
0.00544006571558
0.00603399227095
0.0055494035367
0.0507795515726
-0.0258592722642
0.000188075877157
-3.59954458378e-05
-3.58052888922e-05
-3.98269575129e-05
-3.37146266169e-05
0.0491514949561
0.000181558438118
4.02730879487e-05
-0.0494159668612
0.0492329457591
0.00042310143085
-4.60280407015e-05
-5.3692473883e-05
-4.95342335726e-05
-5.95544829454e-05
0.000197942018381
-0.0494570679642
-6.4227812052e-05
5.53886296447e-05
-0.0122111591909
1.05906545823e-05
0.0121919665743
1.89561093612e-05
0.0122201563256
9.10822166765e-05
-0.000104441233981
8.80443207399e-05
-6.84025486913e-05
-0.0122248845414
-1.76952810076e-05
-3.54096590152e-05
-2.74568415149e-05
-1.45431370065e-05
-0.000306119915377
0.0123163364872
0.0122733922415
0.0121899440745
0.0122227155523
3.63457497578e-06
0.000113999715826
-9.89137707905e-05
7.5680590883e-05
-8.6313212732e-05
0.0122152785819
0.000600115797684
-6.91654953664e-05
-5.5814157938e-05
-6.26112963594e-05
-5.67904692485e-05
0.000118618802786
-0.0496148396399
0.0497325369268
-4.77377358875e-05
-2.21484690273e-05
-3.37010793782e-05
-4.16429128733e-05
6.76354438717e-05
-0.0497425870191
0.000687868594082
0.0122442609418
-8.68686989333e-05
8.92028725553e-05
-0.0122472561768
9.1260973306e-05
0.0122894091405
1.77202498868e-05
1.0708122914e-05
-5.69822245207e-05
-0.0123018040341
4.10765219427e-05
0.00106240736721
8.3763660086e-06
1.74632987096e-05
5.72574895133e-06
1.57932322322e-05
0.0493905678361
-0.00023200971117
-0.000191775566184
-0.000231052807972
-0.00018370816278
-6.05894071087e-05
-3.23345961595e-05
-4.78775721441e-05
-3.48009525266e-05
0.049741723272
2.62070507252e-06
-9.75408928899e-06
-2.63610046778e-05
9.1114318094e-06
-3.50386276091e-05
0.0498583663329
0.000993283452222
1.44659267739e-05
3.30981733814e-05
1.51556656185e-05
2.54475029154e-05
-0.000135958191818
6.76282090615e-05
0.0122292141543
0.00010920632946
0.0121902424661
3.22439151323e-07
6.73223916573e-06
-0.01219889721
0.000152638674459
-0.000150984753281
5.22335011064e-05
3.73843512769e-05
9.99318928329e-06
-7.3146773554e-05
0.0122626251285
0.0122311243584
9.72481311529e-05
6.89484754018e-05
-4.10849406582e-05
-0.000124354603568
-0.0122319559643
0.0500008379317
4.8679464432e-05
5.14460996327e-05
3.8495489212e-05
6.05304158541e-05
-0.00128706040193
-0.00022902960112
0.00132415847734
6.40186869511e-05
8.80957058912e-05
7.60119493606e-05
7.59944176881e-05
0.050437212334
-0.000400229172567
-0.00166482046261
-1.8528106259e-05
0.0122057072823
0.000169776429646
-0.000161488478075
-8.59753164584e-06
-4.65808120939e-05
-0.0122697462304
0.000183738592645
0.0123260565803
-0.000185080517304
0.000116876238299
8.06842395602e-05
-6.18165774856e-05
-0.000145419312198
0.0122408395167
0.000154842159786
8.0345335103e-05
-9.70285356471e-05
-0.000172330199321
-0.0122800542286
0.01231432434
0.000815557043417
5.49184843664e-05
4.88403049303e-05
4.60010418878e-05
6.35569992416e-05
-0.000114777185737
0.0501715857579
6.29904997075e-05
6.96274594915e-05
6.98395199278e-05
6.43801867612e-05
-0.000107703154476
-0.0501288780181
0.000613703515556
-3.34762393601e-05
0.0122761537931
5.91488140536e-05
-0.0123001498978
0.0122518980081
6.28336233447e-05
-6.87631244265e-05
-0.0122476656444
9.89833737985e-05
0.0122957558337
7.69215796662e-05
-0.000101543379391
-0.00010669667702
-0.0122876923402
0.000123257296384
0.000993095786099
8.30591196957e-05
8.31598291803e-05
7.14554497345e-05
9.37057071857e-05
0.0504028004501
-0.000209804527607
0.0502655936312
7.77797397134e-05
7.4299440379e-05
7.62093408843e-05
7.39651893811e-05
-0.000151246764102
8.65258666612e-05
8.8632949972e-05
8.06274658728e-05
9.54436111268e-05
0.0503832656762
0.000716356100116
-0.000192206080925
-7.8433501826e-05
0.0122586399688
0.000114738429475
9.0062473515e-05
-0.000110814152708
-0.0122862504181
0.000147579527467
0.0123143167089
0.000129179628556
9.15456250915e-05
-0.000107528145277
-0.000114650478726
0.0122971681989
0.000160781196303
9.27843429235e-05
-0.000118140165546
-0.000152471207462
-0.0123130227534
0.0123300696571
-9.79378637219e-05
0.0123032634911
0.000140368892379
-0.0123020912008
-9.81674952619e-05
-0.0123237226469
0.0123401537435
7.88795587544e-05
0.000163617067608
0.000406418151925
4.95756456381e-05
7.86482781322e-05
5.71579451389e-05
0.0295696661124
-0.00353573271473
-0.0318796163647
0.00519022665778
0.0287405481273
-0.0037032594876
9.3503954427e-05
8.73226328495e-05
7.10888721969e-05
-0.0314691354224
0.00648302893322
0.00616890818774
0.000104766479209
5.31746940284e-05
9.44842945831e-05
0.000412803094084
0.0261278990568
0.0168057512811
-0.00270315363394
-0.00567864491648
0.000425622748084
-0.0106466130798
-0.00135210134026
0.0226076644743
-0.00466999230136
-0.00121042821299
0.0183396180625
-0.00512326263938
-0.0120063216723
0.0244855004553
-0.00400545807957
-0.00472509251977
0.0150714243622
-0.000449324503236
-0.00292789806669
-0.00204580057372
-0.000314088346226
0.00901008142952
-0.00187166708801
-0.00225840601401
0.0171140686627
-0.00257296388256
-0.00276517983215
-0.00174651395414
0.0104809877532
-0.00239906793164
-0.00569404516742
9.57933387991e-05
5.49857897405e-05
0.00010047079926
0.00441216397326
-0.0286085660959
0.0212444894355
9.10800716997e-06
7.0209426008e-06
5.00253208728e-05
-0.0234858419095
0.000521275898617
-0.00402483416022
-0.00655327312742
0.00242312215958
4.72474311619e-07
-2.34163098244e-05
-2.14283204543e-05
0.00490180597376
0.019941608061
-0.000272687238963
-2.28021550742e-05
-5.39462253858e-05
-3.48260998825e-05
-0.00367167377879
0.0215725814357
-0.00433725688917
-1.772533269e-05
-6.75562515285e-05
-2.12864348964e-05
0.018466795734
-0.00406420296685
-0.0113874617401
-0.00288203379926
0.0248353156144
0.0197987035856
-0.00275666850684
-0.0134976540562
0.0246882618103
-0.00190465636304
-0.00658022170533
0.000806385319506
1.44815887976e-06
-7.66126607771e-06
-7.37121596961e-06
0.0244344656584
0.00519406418427
0.0250846398243
-0.00607378258958
-2.79708116234e-05
-9.35896056756e-05
-4.19848295545e-05
-0.00625445763545
-0.0031127218489
-3.61981808908e-05
-7.52499723538e-05
-3.34192771027e-05
0.0280971503069
0.0192973098978
-0.00118282737491
0.00012639672374
0.0134685321431
0.019441062001
0.000340056249509
0.00192409610547
0.0143815701146
0.00137260795615
-0.0088776490992
-7.58403028133e-05
-9.26440724667e-05
-8.8233270306e-05
-0.00898206182875
0.0243067084344
-8.71042676744e-05
-8.60823143126e-05
-8.32458644056e-05
-0.0205050757408
0.00688608653834
0.0197102040433
-0.0147213884983
-0.00149592941597
-0.000967468728251
0.025121433717
0.0260927938457
-0.019968036648
-0.000470469515691
0.00276756391099
-0.00937576058684
-8.12364544445e-05
-0.000107110845565
-9.85627930652e-05
0.0311852596402
0.0283979213916
-0.00947305733969
-0.000111079712852
-9.18327066048e-05
-0.000110605010631
-0.0093345016275
-0.000106307878827
-8.63298012598e-05
-9.46257846258e-05
0.032076473473
0.00880306668403
0.0215749075019
0.00055865355061
0.00135397557209
0.0182080728629
0.0237284065377
-0.000514314031933
0.0220876901927
-0.000793547626844
0.0123802549593
-5.04017224824e-05
-1.48229988838e-06
3.11049821558e-05
-0.0123954748827
7.36545206671e-06
-0.0123771356674
0.0123602170083
2.95027285089e-05
1.0434177457e-05
4.37806499001e-05
1.31727355807e-05
-0.0122291505704
6.48976297335e-05
-0.0122080830725
4.31149654655e-05
0.0121903207459
4.66728757416e-05
0.0123663177627
3.58689742623e-05
-0.0122267797285
2.68872194481e-05
-0.0123954931507
0.0123916741964
6.58152043622e-05
-6.95536115707e-05
-0.0124028787869
-8.66968454242e-05
-0.0124118743936
0.0124100355943
0.000123375987646
8.18772870673e-05
-0.0122133276633
0.0121998273433
8.87292296431e-05
-5.33935955934e-05
6.41525396541e-05
-0.0122372078592
0.0123843509292
9.9189258171e-05
-0.0124158891319
-0.0122294857984
-0.0123780284286
0.000135588982255
-4.96076742081e-05
-8.23083558072e-05
0.0123566760232
-0.000109169039076
0.0124058297204
0.000153943234264
7.26202834912e-05
0.0121993667332
-5.30574849972e-05
3.75931922995e-05
-0.000112707766397
0.000133978631574
0.0122084754633
-5.7048821119e-05
0.000178815496724
0.0123859505256
-6.68743358729e-05
0.0121982957178
-0.000136457612674
0.0124722569891
-0.000106724194777
0.000167148570396
-0.012465377308
-0.0124432101789
0.000160806071376
0.0124392715114
0.000102411447832
6.07812363603e-05
-0.0122505150337
7.50731137966e-05
-0.0122693796718
7.79984780723e-05
0.0122624437033
-0.0124400834328
0.000183839936073
0.0124679396847
5.47752767977e-05
-0.0122703229745
0.0124963602734
0.00018849041769
-7.24218751432e-05
-0.0124926477276
-0.000197541635579
-0.0125117985939
0.0125019261898
0.000195751709913
3.83385343737e-05
-0.0122914291751
0.0122838658686
4.06830658383e-05
-4.06322062442e-05
-0.0123235225159
2.87215217721e-05
0.0124872962208
-0.012511631887
0.000187123228686
-0.0122999519349
-0.000207141634148
-0.0124558480592
-1.85571714977e-05
0.0124428502988
0.000222300207376
0.0124337005117
0.000187237736051
2.87323229747e-05
0.00012779736385
0.012217046737
4.82426505941e-05
0.0122354812457
9.62250110252e-05
0.0124142150366
0.000205067676783
0.0122224078916
0.000114390887257
-0.000232870021943
0.0124429231512
-9.36125112055e-06
0.00025033647783
-0.012408538098
0.000263581515858
0.012403768982
-0.000234568976074
1.79822475073e-05
0.000137764627055
-0.000138384412986
3.22479389834e-06
-0.0122064006644
0.000137636806059
0.0121948367585
-0.000203765248975
0.000279522608803
0.012445983935
0.000122681942233
-0.0124770806438
0.000234922330138
-7.26975450736e-06
0.012474146141
-0.000218862513981
0.0124989647861
0.000221866228852
3.06025270441e-05
0.0122506475676
-2.33531354617e-06
-9.25140338258e-05
0.0122404813407
6.3137606938e-05
0.0125025220534
0.000238169203018
0.0122302675321
0.0124745663317
0.000264056879122
2.69393100583e-07
-0.000288693354013
-0.0125033504764
0.0125072296045
0.00027684711378
-5.1519927555e-07
-0.0122205592559
0.0122169882329
-2.97971286209e-05
-0.00011127930921
8.21360474322e-05
0.0124800648293
0.000258881548553
-0.000333988687456
-0.0124520363333
4.61216528475e-05
0.0124611406985
0.00034208620946
-6.33896971546e-05
0.0124070268003
0.000298248598224
-4.80426346609e-05
-0.000272034432874
-3.66320814159e-05
0.000178758127649
0.0122317209997
-0.000169532130071
-2.29303649861e-05
0.0122140267419
0.000161226861411
0.0124216164683
-6.75445522799e-05
-0.000317668910758
0.000312089358571
-4.28400491061e-05
0.0122368653091
0.000175999621523
-0.00036332431712
4.82358137781e-05
0.0125083119801
0.00037194999144
-0.000104161925846
-0.0124802643549
0.000384131246109
0.0125518165324
-0.000377494468376
-0.000124670185785
-3.84565176784e-05
0.000183034066453
-0.000181063142511
-0.0122769033567
-5.58504031255e-05
0.000187040763402
0.0123219177749
-0.000349980270382
-0.000110572608656
0.000183336815624
0.000396318800907
0.0125592676826
-0.000119047271798
-0.0124878746141
0.000337278350737
4.19725071467e-05
0.0124993389491
-0.000316235876064
0.012514431375
0.000298705221754
-2.65053178859e-05
0.0122314730899
-7.33435385158e-05
-0.000162191766206
0.0122484976186
0.000134326562552
0.0125253980646
0.000313476381221
0.0122454775445
0.000356336169408
5.13918575102e-05
0.0125275346963
-0.0125437657566
-0.000374771964852
0.000343298021322
0.0125662540271
-0.0122797470061
-6.23684656226e-05
0.0123202494467
-8.55750649796e-05
-0.000167296534671
0.000146061196089
0.000328222228589
0.0125624400924
-0.000220332680464
-0.012536277254
7.47213953903e-05
0.0125371932068
0.000190714370728
0.0125224573247
0.000207861691184
-0.012522363711
-4.75307123955e-05
6.65628444083e-05
0.0122564493313
-6.83381156847e-05
0.0122810222308
-0.0123106258977
5.97777673118e-05
0.0125226457736
-0.0125397573282
0.000177823844222
0.0122689443074
6.89008350857e-05
-0.000237773436607
0.0125399369106
8.4887005733e-05
0.000205111977703
-0.0125239503991
0.000253365823592
0.0125275226475
-6.58327240071e-05
8.09421130576e-05
-9.70632020709e-05
-0.0122647916683
9.65982535331e-05
0.0122716099779
0.000216625763086
0.0125432044419
8.16448480199e-05
0.0125529597155
0.00017282087425
9.47619234565e-05
-0.0125524352252
-0.000180442532967
-0.0125594553956
0.0125603443156
0.000147625779673
-0.000105125554359
-0.012279407099
0.0122874230256
-9.73250856099e-05
-9.71454275827e-05
-0.0122929649363
0.000113642550956
0.0125538893946
-0.012560776422