/*--------------------------------*- C++ -*----------------------------------*\
| =========                 |                                                 |
| \\      /  F ield         | OpenFOAM: The Open Source CFD Toolbox           |
|  \\    /   O peration     | Version:  v1906                                 |
|   \\  /    A nd           | Web:      www.OpenFOAM.com                      |
|    \\/     M anipulation  |                                                 |
\*---------------------------------------------------------------------------*/
FoamFile
{
    version     2.0;
    format      ascii;
    class       volVectorField;
    location    "6";
    object      U;
}
// * * * * * * * * * * * * * * * * * * * * * * * * * * * * * * * * * * * * * //

dimensions      [0 1 -1 0 0 0 0];


internalField   nonuniform List<vector> 
28582
(
(0.811813133828 0.00138006437196 -0.000701344804758)
(0.813626458947 -0.000423445122263 -0.000770843081839)
(0.811747024528 0.00136779373255 -0.00222495799215)
(0.813820073455 -0.000559925076437 -0.00210224061945)
(0.811345340482 0.000823587214349 -0.00497392836065)
(0.814597993575 -0.000783380622662 -0.00543654056438)
(0.808612308693 0.00100599760165 -0.00629625213278)
(0.813881065992 -0.00117082260327 -0.00805955048829)
(0.268371538375 0.13936386896 -0.00894155560126)
(-0.115712995873 0.0636640344575 -0.0140194479684)
(-0.0693488049905 -0.15061646009 0.290208412505)
(0.811371228138 -0.000295606407304 -0.00900286532054)
(0.791941108229 0.00340849792801 -0.00433437447415)
(0.789312148779 0.0022901049309 -0.00882078621481)
(0.818369600371 -0.00206973647411 -0.00695716484326)
(0.818097071131 -0.00176520678975 -0.0072734897138)
(0.788672120575 0.00238413344766 -0.00893236499469)
(0.82097647803 -0.00286177916689 -0.0118016808838)
(0.821190408117 -0.00279178039068 -0.0127981371151)
(0.811335650289 0.00410834166769 -0.00074162436862)
(0.813985734568 -0.00199825930357 -0.000572077225639)
(0.812872909023 -0.00297359857787 -0.000282044899822)
(0.811225309719 0.00380703686193 -0.00139978320368)
(0.814523784184 -0.00200917803674 -0.00111187715755)
(0.813345342448 -0.00274542482599 -9.09698615774e-05)
(0.810533586232 0.00321907787977 -0.00221504912862)
(0.816356805974 -0.00226004424289 -0.00236610170188)
(0.808402287688 0.00300811316432 -0.00252223582754)
(0.81857386135 -0.00183628754222 -0.00437167878056)
(-0.176059130181 0.0908503356647 -0.00418271493644)
(0.132974951344 0.03812275062 0.146839101094)
(0.00933340102051 -0.0581657780872 -0.467125805092)
(0.809177655949 0.00147285149806 -0.00393705880578)
(0.808205183015 0.00189443674437 -0.0037001541553)
(0.796273004797 0.0071338615376 -0.00142432541941)
(0.795574380926 0.00509557973898 -0.00494436165679)
(0.806054899585 0.00244061700512 -0.00461921576879)
(0.819125393858 -0.00220781674874 -0.00110612537736)
(0.818273616338 -0.00152287813259 -0.00386978743691)
(0.818875861218 -0.00150016287752 -1.27446366804e-05)
(0.821343299795 -0.00251784191597 -0.00920190136972)
(0.784097585269 -0.000525327423389 0.000752954094565)
(0.821525709503 -0.00231096055479 -0.00966291158449)
(0.821163169114 -0.000554206588272 -0.00318475014406)
(0.139771948292 0.0928572474469 -0.0134744086718)
(-0.141935741709 0.064373880659 -0.0155210455558)
(-0.107012581214 0.0701360831368 0.124703036259)
(-0.109629341207 0.0258555906224 0.130651724653)
(-0.000408634477658 0.0608656679941 -0.0161570652802)
(0.0587011060664 0.0373379055906 0.178355849821)
(0.806297095439 0.00110345049926 -0.00679584077124)
(0.805951240922 -0.000353821765765 -0.00965415961203)
(0.791193283732 0.0028661655094 -0.00634453656613)
(0.791397706045 0.00349243975383 -0.00405082625876)
(0.805490552394 0.000351907956488 -0.00684313845726)
(0.79046128756 0.00335554719247 -0.00624075988233)
(0.806973500193 0.000452881359418 -0.00960928147056)
(0.80805296749 -0.00146171667112 -0.0103803488051)
(0.811067987498 -0.00120956094266 -0.0129303130607)
(0.790319017229 0.00242662334588 -0.00731510380863)
(0.788609040874 0.00163923454125 -0.00931647986809)
(0.810349446518 -0.00223191062459 -0.0137730824115)
(0.789562074509 0.00200621287337 -0.00752924910178)
(0.808915894971 -0.000543713586918 -0.0101776858596)
(0.8160014707 -0.00331922498411 -0.0145014008153)
(0.812984060815 -0.00185828947128 -0.0120669785622)
(0.787637457378 0.00185680930774 -0.0090812789185)
(0.78784177155 0.00117993097696 -0.00971565163182)
(0.812535946529 -0.00299876798097 -0.0129300357261)
(0.786768890655 0.00051980512289 -0.00989333969376)
(0.816122043255 -0.00222039008003 -0.0132936964199)
(0.820682809599 -0.0020407547328 -0.0108037652782)
(0.787157620779 0.00132149219802 -0.00772971294469)
(0.786263697018 0.000563253932565 -0.00838008261993)
(0.817624493787 -0.00318242153287 -0.0127049235538)
(0.787547499311 0.00174514208024 -0.00865885991424)
(0.78657191787 0.000572948410782 -0.00947404116611)
(0.817481423978 -0.00215054735718 -0.0115790227427)
(0.821937275555 -0.00223471351906 -0.0139051558291)
(0.78610099478 -0.00010854090013 -0.00993387158875)
(0.786163701006 -0.00195134438711 -0.0110687599577)
(0.817583146086 -0.00336826116053 -0.0142217802604)
(0.786518802622 -0.00221848786985 -0.0125846453197)
(0.817798191184 -0.00288407092987 -0.0157783991869)
(0.78642407655 -0.000427179524919 -0.011398099988)
(0.369578604193 0.171615762013 -0.00561387490303)
(0.164356242996 0.0945277621815 0.154206337746)
(0.391810844122 0.196881625352 -0.00179623731006)
(0.328328088611 0.182686828194 -0.0040774820977)
(0.165749180624 0.14378644709 0.103390704308)
(0.100482904148 0.136068324011 0.144749593645)
(-0.19471685059 0.0674970035205 0.000151774696431)
(-0.108728845255 0.112413702713 0.0673553996489)
(-0.119637673452 -0.0241888855547 0.0928955928068)
(-0.210094269616 0.0571826588063 0.00909129788108)
(0.00665378854677 0.124729951573 0.00793489283864)
(-0.20408679159 0.0886090574054 0.00446838633308)
(-0.00234342276933 -0.0194712868558 0.034066757487)
(0.806642067471 0.00196618100096 -0.00333871217934)
(0.807027889434 0.00258555667748 -0.00167984874188)
(0.796182755349 0.00654595285456 -0.00238903133574)
(0.795587598296 0.00659831385273 -0.00198259630145)
(0.807229464276 0.00182305738685 -0.00280641436676)
(0.806643696163 0.00251391779142 -0.00258134734929)
(0.795340230305 0.00602203359625 -0.00274080112663)
(0.807003318282 0.00163330020315 -0.00498878936913)
(0.8077718466 0.000549186628716 -0.00592811321414)
(0.795925183729 0.0057052563259 -0.00334436021978)
(0.794507567889 0.00427543398733 -0.00504881287966)
(0.807700046918 0.00140296982155 -0.00456635794094)
(0.807033077039 0.000859356486113 -0.00656857832104)
(0.795122692132 0.00504277849029 -0.0035953259931)
(0.793664684141 0.00435083440891 -0.00337692136412)
(0.792961632013 0.00396042427228 -0.00457059955941)
(0.805907056642 0.00172454017792 -0.00580639880716)
(0.806569674934 0.00208623210118 -0.00446362622909)
(0.793786422568 0.00362704499644 -0.00450314941484)
(0.80660447428 0.00135915824863 -0.00595348812317)
(0.794232182373 0.00445478827745 -0.00313460098053)
(0.821162307414 -0.00188873044842 -0.00828467981812)
(0.786652337136 0.000748281271575 -0.00653997800987)
(0.785985059102 0.000673558876736 -0.00700423111962)
(0.822243854843 -0.00217912309252 -0.005215470552)
(0.785934477386 0.000259523955534 -0.00407358550315)
(0.822085256955 -0.00164919115975 -0.00470584461545)
(0.7853241407 0.000792348015271 -0.00416343441854)
(0.820734066348 -0.00207034343079 -0.00329522168503)
(0.819853238898 -0.00184595167293 0.00164104886053)
(0.785364728864 -0.000235773501824 -0.00248210277747)
(0.783594750447 0.000823547572704 0.00097582287622)
(0.820783786163 -0.00173532605385 -0.00293733676032)
(0.819609691674 -0.00210706433072 0.00137708865746)
(0.784665759834 0.000905402692888 -0.00234418931025)
(0.822819015243 -0.00115401409925 -0.00533167216477)
(0.822159101967 -0.00160006208288 -0.0107927867689)
(0.785873543461 0.000416426448507 -0.00841485369721)
(0.785990172494 -0.0010329817855 -0.00929940546921)
(0.784885996464 -0.000322761401379 -0.00566929333513)
(0.822435796588 -0.00199331796976 -0.00511764913042)
(0.785091205796 0.000876813907179 -0.00527925526545)
(0.784358632325 0.000432167676452 -0.00317413730714)
(0.78259664701 0.000559810176494 0.000825003135647)
(0.819736593798 -0.000248514717202 0.00221282384966)
(0.82071798039 -0.00148981196702 -0.00317050316573)
(0.783019986164 0.00100675148267 -6.40216870446e-05)
(0.819569381041 -0.00133534525738 0.00171296537542)
(0.784340428128 0.00118963712424 -0.00342049943965)
(0.814726930738 -0.00288559657605 -0.000429897805496)
(0.817322355025 -0.00225200725311 0.000146283260032)
(-0.180698631617 0.0725934850599 0.0059400826662)
(0.0398762374683 -0.013650312423 -0.572373103194)
(0.809664707689 0.000882177714725 -0.00522104971554)
(0.792299892141 0.00321983541961 -0.00517509344878)
(0.817051937164 -0.00148596257947 0.0013106210912)
(0.814236019624 -0.00178533970139 0.00245916788615)
(0.783355413136 -0.000663608643874 0.00235559547717)
(0.781571235526 0.00035179567963 0.0023435771384)
(0.778683791577 -0.0010852092923 0.00335847157286)
(0.812846566649 -0.00229869295732 0.000835212891533)
(0.810756251312 -0.00268273129863 0.000354350898974)
(0.777339388943 -0.00187908069253 0.00261731678517)
(0.772975322512 -0.0024144918123 -0.000100710012769)
(0.285706020264 0.140756990759 -0.00945957194208)
(-0.168914415679 0.0329705896162 0.00990594294068)
(-0.0759171803211 0.021992520719 0.0136069410367)
(0.044801793361 -0.0574417168283 -0.00128106915803)
(0.0412811807682 0.126608600938 -0.0440010917841)
(0.0319099161573 0.109128002863 -0.0738582542684)
(-0.0112986135794 0.027359306961 0.0113705138509)
(-0.00454132447685 0.0496010044514 0.0034551524102)
(0.8083024695 0.000336100743843 -0.00959963315182)
(0.806888407094 0.00113463193993 -0.00720769000714)
(0.792845183252 0.00298135322542 -0.00528302288398)
(0.791432894213 0.00296584849451 -0.00679570562901)
(0.807562504736 0.000876775003527 -0.00767300744241)
(0.791905278274 0.00226010677986 -0.00705662697448)
(0.807663418915 0.000615467728107 -0.00946022823773)
(0.815839511483 -0.00216041269927 0.00361171533736)
(0.817923479846 -0.00192685373715 0.00230378507774)
(0.78256694707 -0.00061571883813 0.00277873259817)
(0.782628309226 0.000526811046887 0.0020278313236)
(0.815958092186 -0.00200613994981 0.00390392421706)
(0.817711670845 -0.00215078128392 0.00181003180115)
(0.782244058309 0.000299807306504 0.00288922787739)
(0.815716962396 -0.00117506777529 0.00434636814262)
(0.817744461912 -4.96836777811e-05 0.00287230899848)
(0.781968493374 0.000801527123776 0.00119788279636)
(0.781086043439 0.000219689815354 0.00334630415093)
(0.817699313819 -0.00120768011394 0.00229623565728)
(0.781623539439 0.000667330821246 0.00216030560744)
(0.81536685199 -0.000140563025502 0.00514785541123)
(0.8135652677 -0.0012121548012 0.00343378482419)
(0.811176662128 -0.000580124530363 0.0046978081854)
(0.77922144618 -0.000188353608746 0.0020973108925)
(0.780112371113 -0.000456491049403 0.00338118721551)
(0.81148219274 -0.0014690955003 0.00399325184961)
(0.780906567603 0.000198727185243 0.00236934789228)
(0.813327350406 -0.000240763618451 0.00395388201467)
(0.809438471439 -0.00177627649586 0.00149161291661)
(0.809993889161 -0.000878222676895 0.00354692391537)
(0.777884455625 -0.000538229201194 0.00130812037582)
(0.775523673463 -0.00235970619347 0.00184543665147)
(0.810255110352 -0.00171814081493 0.00281368499959)
(0.775863373375 -0.00108506469273 0.000155529789904)
(0.809166889086 -0.000955985386416 0.00259843367088)
(0.80900856147 -0.00210633660963 0.000540411175891)
(0.808414651269 -0.00145603086046 -6.1228302746e-05)
(0.773082743741 -0.00133646733848 -0.00105661009185)
(0.774076263371 -0.00257637736054 0.00144272332987)
(0.80883587277 -0.0022913503423 -0.000706813841137)
(0.774163384733 -0.0011467738562 -0.000558932925349)
(0.808666809254 -0.00127612284222 0.00186189918673)
(0.794884256439 0.0111167300246 3.73163166373e-05)
(0.799995344838 0.0131228239011 0.00132191386653)
(0.802076714787 0.0175781129975 0.00281966721236)
(0.803819338118 0.00909594231242 0.00182577540388)
(0.394915879365 -0.0867724881062 0.00425123023036)
(0.368240462105 -0.102267766162 -0.000119373055686)
(0.305368671543 -0.0317069924044 0.0079572822978)
(0.397060455666 -0.0146399884885 0.00681046792036)
(0.390059167312 0.163471897123 0.0036586310929)
(0.338742421252 -0.0409291469523 -0.194462039426)
(0.353429173626 -0.0523004762984 0.573597277668)
(0.274506975321 0.00274694319787 -0.345468812503)
(0.351001082488 -0.0473104177547 0.270318744777)
(0.278059651817 0.0186634001093 -0.399080346234)
(0.471862904981 -0.0409702440399 0.166257096854)
(0.789980239875 0.00135556222846 -0.00260948070758)
(0.791487239921 0.00470694073754 -0.00290505025922)
(0.781165510955 2.31784988432e-05 -0.00213915091537)
(0.782433685498 0.0048334834587 -0.00422785271847)
(0.789879229304 0.00750409917257 0.000434576507997)
(0.782124765386 0.00601686897296 -0.00385026649057)
(0.793690302068 0.00780056845601 -0.00163379155178)
(0.797054069882 0.0104954181432 -0.000419252543889)
(0.783444214282 0.00629961686686 -0.00472917473999)
(0.786427845719 0.00254879163667 -0.00145079939469)
(0.792565725202 0.015944136741 0.00336713797795)
(0.797635917158 0.0136264657528 0.00156565035675)
(0.797884881636 0.0164955745789 0.0024701784743)
(0.783400555755 0.00767662386166 -0.00425183892072)
(0.78085617397 0.0100709750631 -0.00123256110251)
(0.785681698574 0.00359917227537 -0.00141253927478)
(0.783200638141 0.00694159208366 0.00155878102024)
(0.799623004455 0.0209828233001 0.00428967872304)
(0.801939207591 0.0247394520556 0.00607640163779)
(0.781226513192 0.0109390293602 0.000169116232621)
(0.786237286134 0.0119320327009 0.000851612400844)
(0.783158195328 0.00829239529275 0.00277818618773)
(0.786786993824 0.0106590669299 0.00539010093731)
(0.800790875769 0.0151199435194 0.00243719485744)
(0.8023674626 0.0118335351565 0.0023491418984)
(0.786392172497 0.00365742362273 0.00125878588779)
(0.784097502492 0.0061847135371 0.00304461420034)
(0.786572797591 0.00728463488026 0.0049012842094)
(0.803684687532 0.0189712830414 0.00381681575017)
(0.803129834288 0.0129417793387 0.00296638523996)
(0.804294497756 0.0136288045919 0.00375267389219)
(0.784380128289 0.00734333443907 0.00361735020973)
(0.787086572485 0.00948644517047 0.00612722267501)
(0.786996945812 0.00778593345497 0.00537947608498)
(0.78852935145 0.00997130548475 0.00654276408001)
(0.787321316243 0.00858487215494 0.00504854553951)
(0.789217040492 0.010150365107 0.00551668653129)
(0.491785290711 0.0352465365355 -0.00538738976654)
(0.484985292663 -0.0254470983812 -0.00701567502432)
(0.442435561423 -0.0395768459167 -0.00857388667554)
(0.21166581291 -0.0285438228839 0.155587205747)
(0.346512771569 0.00221951537392 0.139249298892)
(0.231440101889 -0.0633755009413 0.168420021213)
(0.374613717674 -0.0492698579629 0.13497480221)
(0.328626337906 0.0186230918513 0.0815848193506)
(0.195417389671 0.021804871807 0.0393226716988)
(0.36053374093 -0.0351549970213 0.0712301052937)
(0.230591936465 -0.0296453469147 0.0479419988724)
(0.444660098941 -0.0759878119867 -0.00631422531906)
(0.363251949677 -0.0925632982072 0.0035709429837)
(0.365158931747 -0.0953869103065 0.00457998698594)
(0.326804205861 -0.0911228456735 0.0102027845678)
(0.331930440615 -0.098259543274 0.00663307804551)
(0.220591526442 -0.0870122455069 0.105800050906)
(0.378203089174 -0.070325874591 0.0637508433781)
(0.242544081484 -0.0511234812933 -0.0109319510239)
(0.377060600487 -0.0301421106831 -0.09445119731)
(0.378294849805 -0.104637385274 -0.00252418635338)
(0.362638683579 -0.0862961753853 0.00636110129051)
(0.431165294485 -0.0876053639296 0.00241077508143)
(0.369308405103 -0.0441491885786 -0.0250861941762)
(0.292016275913 -0.0289286316684 0.016732142979)
(0.369565513184 0.00683953587408 -0.180845044702)
(0.294944494329 0.0338646185958 -0.191981054415)
(0.343461516151 -0.0279702646959 0.00623712189839)
(0.355378750948 0.0655963919758 0.00470937866645)
(0.255341139197 -0.0356342483468 -0.148387148246)
(0.375049851606 -0.0239088719923 -0.23377425627)
(0.375498239803 -0.004498592591 -0.23993357593)
(0.469237256599 -0.0031400910619 0.00290851769682)
(0.419078208172 0.074066542222 0.0059204805306)
(0.482675684364 0.0875686518959 0.00281565933132)
(0.384541596947 0.00525161213459 -0.254175160293)
(0.347326907721 0.0266431577935 -0.249768207983)
(0.413295251124 0.00999603324177 -0.260248720853)
(0.385719705406 0.0135592783029 -0.251029326605)
(0.793003673367 0.00108015830893 -0.00319545879526)
(0.792134517294 -0.000584264112429 -0.0031625738056)
(0.782039724411 0.000154592451648 -0.00125818006736)
(0.781063035079 0.00155727212045 -0.00242581364868)
(0.792549078663 0.00174604357956 -0.00367978344464)
(0.781964668527 0.00130276011422 -0.00136395260715)
(0.792957208829 -0.000732906074926 -0.00283632424023)
(0.793874997054 0.00295310881647 -0.00423463336982)
(0.794827119571 0.00646275117312 -0.00494420018404)
(0.781589294008 0.00399213222719 -0.00332284857454)
(0.78303544534 0.00356114599404 -0.00330519653224)
(0.79337938765 0.00424644409656 -0.00464900466249)
(0.795030753131 0.00523847773063 -0.00563588289294)
(0.782280039447 0.0033131044682 -0.00229693843941)
(0.792263388024 0.00679993643916 -0.0024958284515)
(0.794466702468 0.00831552292043 -0.00447057848617)
(0.781116089521 0.00477838458953 -0.00345825432555)
(0.781400819248 0.00782200607659 -0.00275111218923)
(0.79305840908 0.00508826018132 -0.0038024109408)
(0.793999753233 0.00983930123812 -0.00201388559035)
(0.780731617905 0.00586279870811 -0.00292704032017)
(0.798157973307 0.00951629111122 -0.00689025475399)
(0.796380737654 0.00883800644068 -0.00549094557129)
(0.784153684912 0.00470358918587 -0.00477626009233)
(0.784691779612 0.0051148916383 -0.00484718672989)
(0.796636897056 0.00730388330758 -0.00637251442091)
(0.79810869422 0.0108657945822 -0.00523641064347)
(0.785348246162 0.00316953866673 -0.0054576409189)
(0.799525174892 0.0113275532681 -0.00502086288898)
(0.80033653717 0.0125912364492 -0.00114920205522)
(0.785860691443 0.0047275110419 -0.00341143258909)
(0.788250370974 0.00152658659198 -0.00342338770619)
(0.799421811273 0.0121600058724 -0.00313375108985)
(0.800590459223 0.0121379351417 -0.00365692688922)
(0.787074186581 0.00350163822098 -0.0046468195787)
(0.797027129275 0.0136682012058 -0.00143449065532)
(0.796123859614 0.0106737778619 -0.00448520365263)
(0.782087221612 0.00875172928999 -0.00253596629048)
(0.784268652205 0.00622617062367 -0.00365659912204)
(0.795583015024 0.0121142746806 -0.00212820542828)
(0.797669336138 0.0123664914746 -0.00413360197822)
(0.78237571212 0.00753771002514 -0.00192073757395)
(0.796533733949 0.0153580748622 -0.000684955152236)
(0.794363444672 0.0158241538649 6.62794524086e-05)
(0.781177181031 0.00909924619106 -0.00197443052769)
(0.781560588018 0.00929568573017 -0.000805622846246)
(0.794708133778 0.0137882738148 -0.00106787038252)
(0.796439075163 0.0172437639034 8.40385271278e-05)
(0.781621202368 0.00826997293932 -0.00116176009803)
(0.798515567957 0.0145116606594 -0.000378344363391)
(0.800066991316 0.0141890976845 -0.00104172058716)
(0.78520076072 0.00578888032123 -0.00284814783552)
(0.784319427014 0.00451913425132 -0.000656346037353)
(0.798861350497 0.0135162204501 -0.00264643424076)
(0.799998221719 0.0151455082661 0.00044922688328)
(0.783446624731 0.00699489203653 -0.00121934985641)
(0.798306412213 0.01631128574 0.000472501422884)
(0.800119480358 0.0182135051533 0.00252349558872)
(0.782394927373 0.00867931206112 -0.000646380078633)
(0.783083772287 0.00595474019989 0.00104864353129)
(0.798441847076 0.0180761376168 0.000500591432602)
(0.800058132615 0.016822699447 0.00172198862081)
(0.782285772349 0.00786499349767 -0.000726029235745)
(0.798034775888 0.0215994216637 0.0035689220375)
(0.794625906986 0.0181434659428 0.00184012274408)
(0.782492364266 0.0113714689322 0.000834269584588)
(0.78131808557 0.010681499356 0.000678563578474)
(0.795619793088 0.0208455910448 0.00353219289619)
(0.796830562026 0.0194927123512 0.00169232090381)
(0.782886094138 0.0116048711984 0.00199321764762)
(0.799287836049 0.0235872644876 0.00389310235922)
(0.799293746215 0.0249122078823 0.00517226916225)
(0.784258439574 0.0119086381015 0.000940950541642)
(0.786572321848 0.0121368557333 0.00252285163109)
(0.79707212107 0.0232238041179 0.00359517953052)
(0.784503548423 0.011904622323 0.0024605316085)
(0.801230133237 0.0252058191415 0.00522418866692)
(0.799893005048 0.0217768627546 0.00299981695556)
(0.800452949791 0.0198499399441 0.00363923678961)
(0.782657982066 0.00999930649495 0.000542194357336)
(0.783704972869 0.0094418500122 0.00361901262705)
(0.798933442828 0.0200789053939 0.00205749475039)
(0.801318751395 0.0210689934524 0.00444978601394)
(0.78335919389 0.0109655937674 0.00166202109182)
(0.800990673859 0.0232970140725 0.00357368899066)
(0.803523337864 0.0232472138388 0.00610538692029)
(0.78685217112 0.0116821465284 0.0030265426191)
(0.784950372481 0.0101327481464 0.00471219623551)
(0.802246076036 0.0221552970417 0.00504974177856)
(0.784707983979 0.0112947995679 0.00233795089023)
(0.802567760068 0.0247339370104 0.00462023355627)
(0.80214812195 0.0132439951001 0.00450043354545)
(0.801474870884 0.0139993620017 0.00170754169472)
(0.785278963743 0.00424563622757 0.00176884654002)
(0.786909895249 0.00349174717071 0.00325626990696)
(0.801267418929 0.0149170497992 0.00278353938725)
(0.802518788239 0.01241593706 0.00343863249164)
(0.785897336457 0.00404082831446 0.00314504887235)
(0.80234765177 0.0142056066415 0.00487437300189)
(0.801222890668 0.017209391871 0.00419364370354)
(0.784153622 0.00520962911065 0.00291442939293)
(0.785409632482 0.00613980202334 0.00468675231002)
(0.801394271919 0.0161497741923 0.00390865837918)
(0.802300376187 0.0151389670279 0.00577932279127)
(0.784903616073 0.00487182791287 0.00410058805437)
(0.803298363838 0.0123014668645 0.00565877864954)
(0.803577090087 0.0106298147197 0.00631367343265)
(0.786228043664 0.00647818573288 0.00518960442466)
(0.786536336593 0.00659567564763 0.00485352204503)
(0.803092264021 0.0129067205272 0.00637342685704)
(0.803705215919 0.0101979184513 0.00578298590991)
(0.785897654756 0.00586392717548 0.00462328530255)
(0.80282825485 0.016525465592 0.00659839323784)
(0.801648740036 0.01839349464 0.00473081484435)
(0.784727010766 0.0083644861879 0.00423441794276)
(0.785415895953 0.00714799740232 0.00570447538135)
(0.802230037713 0.0192271766358 0.00507094621553)
(0.802500015644 0.0161218317007 0.00636392423204)
(0.785343985324 0.00811196061363 0.00609531815448)
(0.803443838319 0.0172349588504 0.0069809462343)
(0.804079839659 0.0207274126669 0.00681597926219)
(0.785554410619 0.00896120819817 0.00511714594631)
(0.787585204366 0.00950400381382 0.00750125840326)
(0.80289239028 0.0199834978047 0.00577728094023)
(0.786162511895 0.00888828326601 0.00672362229023)
(0.804354545969 0.017586313508 0.00789686025524)
(0.803422295265 0.0139624258089 0.00689865865591)
(0.803528589184 0.0111124780174 0.00658077495433)
(0.786323715912 0.0070015688026 0.00592740193229)
(0.787069420734 0.00849853026533 0.00537203787014)
(0.80316940125 0.0135556046228 0.00684713241333)
(0.803820215815 0.0115951595922 0.00646161802598)
(0.786284616693 0.00792955229402 0.00603867803163)
(0.803919398006 0.0143087833215 0.00727030086628)
(0.804637515414 0.0119881979463 0.00736436613937)
(0.788177579585 0.00958387380131 0.00739252227489)
(0.787621590546 0.00921493014762 0.00593220020807)
(0.804113022609 0.0118542125124 0.00670555890398)
(0.787006862523 0.00877635796728 0.00671936795835)
(0.804562547472 0.0145858723484 0.00808552220608)
(0.804542572434 0.00748740713104 0.00481798854889)
(0.804026555452 0.00892151763424 0.00588140678962)
(0.787554997956 0.00902508397437 0.00521333903753)
(0.787672462837 0.00941218799732 0.00363265631505)
(0.804176651852 0.00945047314541 0.00593498883466)
(0.804440954113 0.00709735238382 0.00443301016429)
(0.787990333787 0.00987950436872 0.00392988131409)
(0.804823439294 0.00980290243324 0.00609744589)
(0.788278498004 0.00955156642759 0.00535852859655)
(0.804395015207 0.00974439883738 0.00596862711742)
(0.813960665389 0.00179118234475 -0.000742292510197)
(0.815533481857 -0.000725968761861 -0.000562090709499)
(0.815161991725 -0.00299410969044 -0.000588077671467)
(0.811842835121 -0.00394724065554 -4.24594368569e-05)
(0.807930093117 -0.00425661861412 -9.12516169116e-05)
(0.814054124946 -0.0299632858239 -0.000101011629097)
(0.814223031207 0.00171368838474 -0.00196663165371)
(0.815670615404 -0.000417994233141 -0.00177246525426)
(0.815560581237 -0.00252352580439 -0.00110011423858)
(0.812214129013 -0.00375370490689 0.000702299704967)
(0.807901706156 -0.00431988430421 0.00161762183884)
(0.814379941575 -0.0306887864511 0.00214866747793)
(0.814170832671 0.0058732245828 -0.000512393185675)
(0.8123139339 0.00585742529826 -0.00063068295909)
(0.79353691711 0.00774072245239 0.0026010150291)
(0.791248649246 0.00708387809413 0.00387206545304)
(0.788795901891 0.00430080163673 0.00879556035454)
(0.785768088689 -0.00148450604583 0.0127567943467)
(0.788646601119 -0.00227777781389 0.0124394025349)
(0.763684918315 -0.0212974718805 0.0155806944644)
(0.824570938253 0.00479322925795 0.000243132659093)
(0.822406470268 0.00228399244025 2.89542303002e-05)
(0.820349206599 -0.00183064122794 -0.00140616401641)
(0.819155864775 -0.00933627601283 -0.00180880216546)
(0.817998100751 -0.0141900207161 0.000581809559555)
(0.812025984993 -0.0171221496451 0.00354131526159)
(0.807531102093 -0.0121321292472 0.00356833388338)
(0.800708105404 -0.0467029504954 0.0053068523632)
(0.818331405771 0.00404961467361 -0.000644699515046)
(0.820388507538 0.00287398644956 -0.00113331202694)
(0.821048869432 0.000170806085465 -0.0016465872526)
(0.819950454217 -0.0049036739521 -0.0015171634646)
(0.817891819997 -0.00716579504522 -0.000160114763125)
(0.814755072159 -0.00946035260996 0.0011284357032)
(0.80812259969 -0.0077119622834 0.00186476900269)
(0.80658014936 -0.0394009564003 0.00263323651121)
(0.813836209299 0.00437574640135 -0.000200070239986)
(0.81662076285 0.00116104464935 -0.000729398500866)
(0.81839048611 -0.00142874601117 -0.00108148852436)
(0.817495343281 -0.00413311710125 -0.00101504190683)
(0.815383636807 -0.00621945681234 -0.000504007398693)
(0.813388121204 -0.00865313267607 0.000171743015103)
(0.808186959752 -0.00821721103467 0.000526058691616)
(0.810638100972 -0.042850029757 0.000800608874726)
(0.813745915621 -0.00428140946846 -0.000391751396286)
(0.812583258593 -0.00553901217335 -0.000231705086356)
(0.808386672652 -0.00552676069207 -0.000178054137872)
(0.813569209153 -0.0346124562711 -0.000128288784599)
(0.63667113447 0.0413611225708 0.00967657663313)
(0.635933099747 0.0401191661991 0.011520383939)
(0.651243927988 0.0227938249471 0.016696082069)
(0.653521187722 0.0189866098509 0.0218242093369)
(0.667505226798 0.0139228692552 0.0282199980932)
(0.682779161718 0.00034124914285 0.0288000476544)
(0.736668450575 -0.00266343040931 0.0199856912437)
(0.689936315623 -0.0352535345705 0.0209892182827)
(0.771883818712 0.0129242919895 0.0072678276855)
(0.769095024223 0.00765422252389 0.00669881266928)
(0.778428193338 0.000259809380099 0.00927425916928)
(0.779515655207 -0.00534018472902 0.0127995920865)
(0.787239541914 -0.0155048500505 0.0166309774575)
(0.791888101844 -0.0207872911818 0.0150684315811)
(0.79664269657 -0.0177253759832 0.0126622399007)
(0.787756178011 -0.0725677865598 0.0135554140619)
(0.81915710508 0.00408226055379 0.000130410327388)
(0.819553926459 0.00348566092078 -0.000947694875142)
(0.82017191092 0.00236584419283 -0.00167655788526)
(0.820615002786 -0.00151667957326 -0.00138968132016)
(0.819859331858 -0.00611216474683 0.00102497068993)
(0.816256785153 -0.0109827317267 0.00202015992954)
(0.810154949236 -0.00965090750078 0.00402222370861)
(0.810153055505 -0.0488897598476 0.00554503847498)
(0.813952018268 0.00472667424323 -0.000504407450163)
(0.816313652407 0.00100810927339 -0.00145066949002)
(0.817999508839 -0.00183469912912 -0.00187811735862)
(0.818100024678 -0.00405706727618 -0.00143753397973)
(0.816296300954 -0.00615340659249 0.000676128290838)
(0.814396493895 -0.00818137799172 0.00146857180957)
(0.808849869858 -0.00825984607798 0.00282671272911)
(0.812100075098 -0.0456448542076 0.00375499926755)
(0.814067373929 -0.00414963035214 0.000117921207761)
(0.81286363403 -0.00580148688245 0.000793321165936)
(0.808419046269 -0.00610893927137 0.0018109549315)
(0.814594610846 -0.037476218442 0.00249119567871)
(0.632618897254 -0.0154901076121 0.0184218245227)
(0.62670680466 -0.0164633340209 0.0164817541554)
(0.638135640575 -0.0222234052072 0.017282941384)
(0.64461489356 -0.0248757109365 0.021942053415)
(0.660919288563 -0.0282280360738 0.0247365753459)
(0.675642638335 -0.0321274745248 0.0137163107812)
(0.732516489205 -0.0200594626258 0.00566336327344)
(0.691370985596 -0.0572117479097 -0.00462683267633)
(0.732910154277 0.00426721421561 0.022377158223)
(0.731403289016 -0.00177096626913 0.0195963211446)
(0.784393190821 -0.000759476711635 0.00316008454932)
(0.787506962918 -0.00638178309738 0.00520622242855)
(0.792552687543 -0.0156887994652 0.00862947334747)
(0.793325569525 -0.020015956663 0.00664684657669)
(0.797196303818 -0.0173266227117 0.0037438700321)
(0.793066125244 -0.0759985864043 -0.000194322349457)
(0.818758174129 0.0028608398827 0.000162968766653)
(0.818538047181 0.00206266402 -0.00338266524814)
(0.820189110329 1.4301431167e-06 -0.00519585546809)
(0.823073424795 -0.00535135495809 -0.00309338379558)
(0.821898151359 -0.0106187982205 0.000474736423678)
(0.81773760617 -0.0145739894076 -0.000235207236745)
(0.811721076862 -0.0119902039001 -0.00222358948343)
(0.817481613871 -0.0561848938576 -0.0031629246313)
(0.809471839852 0.00782165643086 0.000288149589225)
(0.813192886501 0.00360246867376 -0.00112477091073)
(0.815592920781 -1.04333012689e-05 -0.00323809215017)
(0.818600726582 -0.00134411859337 -0.00476775112341)
(0.819869566919 -0.00446529713378 -0.00286922763419)
(0.818075783773 -0.0069500917869 5.56706482628e-05)
(0.815789335247 -0.00944731269476 0.000542810901585)