/*--------------------------------*- C++ -*----------------------------------*\
| =========                 |                                                 |
| \\      /  F ield         | OpenFOAM: The Open Source CFD Toolbox           |
|  \\    /   O peration     | Version:  v1906                                 |
|   \\  /    A nd           | Web:      www.OpenFOAM.com                      |
|    \\/     M anipulation  |                                                 |
\*---------------------------------------------------------------------------*/
FoamFile
{
    version     2.0;
    format      ascii;
    class       volScalarField;
    location    "6.1";
    object      p_rgh;
}
// * * * * * * * * * * * * * * * * * * * * * * * * * * * * * * * * * * * * * //

dimensions      [1 -1 -2 0 0 0 0];


internalField   nonuniform List<scalar> 
28582
(
19553.6591192
19550.9620014
19554.0178786
19550.7359417
19554.7361375
19549.4024905
19558.6326923
19549.8201469
776.257275825
874.713265825
0.402232971488
19554.6120026
18162.6406983
17917.0422208
19545.6278207
19545.1986853
17816.5104643
19527.349261
19524.8160011
19555.7104749
19549.1561633
19548.5218296
19556.2153288
19548.6634418
19548.2267552
19557.6417706
19546.1379793
19560.7801415
19543.8006546
902.87278199
0.104222183024
-0.109731132334
19559.3192546
19560.0289573
18311.2061323
18174.9220765
19558.4841792
19543.6744549
19542.9345907
19542.7926222
19525.5075187
17444.6814197
19522.0852549
19522.8447944
818.742397885
870.95377309
13.2252457933
13.5176886228
852.331308968
13.0350479126
19557.6961065
19556.5361905
18095.2311613
18213.4360295
19559.3373533
18146.0413758
19554.9535233
19552.3693834
19546.0281097
18011.8322233
17955.006712
19547.0692046
18060.563359
19551.1110351
19535.8548741
19540.8501444
17722.2167745
17847.3795992
19541.5468596
17734.46781
19535.8491529
19528.3603911
17551.6979749
17538.2826665
19531.1804599
17636.5278336
17635.0901659
19531.7376256
19523.2912733
17508.1254139
17458.2836619
19529.440331
17591.0434489
19528.9663545
17614.8150217
733.987234428
7.47368656958
690.627414539
733.047486909
5.22427315673
6.90067034907
904.071700696
9.15585522612
9.59210247092
954.62898413
8.45220353925
946.050355004
9.06847818812
19558.4750412
19559.4942591
18276.0961942
18303.4459691
19558.5998261
19559.2214833
18273.2575516
19557.3191393
19555.2408558
18229.1100081
18178.3268569
19557.0739775
19555.6200193
18231.6353698
18233.0841027
18189.2200844
19557.3064282
19557.836959
18184.6348037
19556.5557891
18238.0129594
19526.6661223
17491.3359083
17474.7467979
19526.109132
17447.961273
19527.322727
17431.9722433
19527.5155857
19530.9575379
17446.5297813
17424.8619708
19529.0185421
19529.5871951
17425.2029026
19521.3283605
19520.3796573
17446.6058493
17388.377396
17347.5900838
19522.9470964
17409.5533325
17359.6100031
17375.6019823
19525.2569012
19524.6787262
17408.9348446
19526.7150275
17405.0836057
19546.668078
19544.9472731
999.244706567
-0.373084250449
19557.5662041
18134.2609249
19544.3127826
19546.7518436
17449.6903476
17388.9645093
17479.2991007
19548.9314382
19550.4953243
17515.9130769
17566.3466508
782.818406303
1005.56549151
1032.9849947
7.39754844988
6.3756044336
3.51831963128
1053.02822165
1055.98348599
19552.0288607
19555.6332573
18122.6914115
18068.9524997
19554.6178951
18047.6101041
19552.8597513
19533.047753
19532.5812142
17458.2484835
17429.835112
19533.9071211
19531.323148
17442.0701349
19530.5247521
19528.0592945
17415.0464237
17404.7313815
19528.5291201
17428.9249149
19530.2544322
19532.7055517
19535.0912728
17495.0490325
17434.0866695
19535.0497367
17457.0882594
19532.4241352
19538.7376402
19537.6976936
17521.1850061
17538.9043258
19537.1219531
17541.495941
19538.798506
19539.7040973
19540.0941141
17580.5769138
17551.5795523
19540.2354369
17565.228902
19539.5443329
19571.0487482
19564.7877069
19565.0777072
19562.8569373
584.876583894
599.546919259
647.582713986
662.140717636
648.770317993
-0.0209943673001
0.46429214572
-0.0696696391165
0.192993786182
-0.140319006876
0.0303478038161
19574.9735595
19573.679506
18745.2211621
18643.5723717
19574.6373796
18590.8923645
19570.3781886
19567.1005894
18548.0590135
18364.1480369
19571.8041248
19567.3830994
19567.9445703
18528.50548
18559.9077258
18350.4504626
18375.2941985
19567.9921459
19567.1717666
18563.2013163
18497.8493329
18382.1596978
18391.1010192
19565.0800829
19563.5770061
18324.8448886
18334.3735164
18309.0835807
19564.8333536
19563.7044317
19563.6883998
18339.0603438
18357.3498353
18312.9838202
18333.2794953
18322.6595774
18335.1226234
509.717998004
525.629661471
553.751501842
1.26416049788
1.51232636688
1.68943483538
1.90251807244
2.61843214051
8.65583447574
3.35077060363
9.00886550601
561.851360267
586.323207063
604.965169293
625.4963667
636.382466897
2.40539401998
2.28937560321
2.72298611475
2.19101862037
606.205788969
632.581838567
634.232703586
2.89042481816
6.32891057939
2.39848532354
3.73242343169
655.974948661
654.331157934
2.68264425716
1.90442963143
1.7754652843
661.440136934
664.517433195
663.841781389
1.99626338295
2.43166045533
1.85775823831
2.04260299712
19573.1794939
19572.4976797
18772.1930176
18760.2809511
19572.5927731
18791.5708807
19573.0523139
19572.2783226
19569.254551
18726.4393119
18696.4924628
19571.5991908
19570.218857
18767.1155544
19571.1930789
19569.0393477
18672.0487126
18574.6169776
19570.6109178
19569.4682362
18613.7832172
19563.6495742
19566.4172361
18594.2676616
18467.4171245
19566.6216385
19563.6471227
18496.6904559
19560.8365228
19560.9138964
18428.3669833
18405.4878711
19561.5661406
19560.0925166
18443.8735413
19565.7710913
19566.6253644
18537.6083449
18468.5370866
19567.7474411
19564.5736975
18474.4289927
19567.0221097
19569.8374274
18547.7133155
18490.4827329
19569.0388629
19567.8697811
18481.6100714
19563.6438909
19561.075868
18422.5005572
18356.1689278
19563.1860312
19561.4416955
18423.1422794
19564.0182585
19562.8950897
18436.3770484
18368.2502623
19564.6503374
19562.1210791
18427.2124451
19568.9643447
19570.304732
18557.5441886
18498.9886405
19570.308031
19568.6353012
18502.1506437
19568.5377311
19568.3696241
18534.0563393
18483.3865213
19569.9515656
18497.194879
19567.3153946
19566.7819207
19563.6804583
18449.8036889
18392.3002285
19565.8094947
19564.5257347
18454.1394531
19566.6526536
19564.2666673
18433.4912846
18393.6337714
19564.9158808
18448.7979973
19565.8362066
19559.82136
19560.0622666
18326.0655736
18320.8446594
19560.1690646
19559.677092
18302.7656816
19559.9525251
19561.1904524
18332.0196806
18310.6351021
19560.6031647
19560.3685053
18304.5608775
19559.401488
19559.8148321
18307.8004062
18308.2286093
19559.9820934
19559.3780059
18304.4859837
19561.7385138
19562.0264221
18351.4550429
18319.0742209
19562.9468888
19560.9764065
18328.3388693
19562.1961699
19563.2990153
18358.3366555
18341.721593
19563.6157323
18336.4145076
19562.3057427
19561.5124616
19560.4370936
18313.616406
18321.7231198
19560.8030446
19560.9572575
18320.1162198
19561.9595532
19561.4562272
18338.02834
18330.5047383
19561.355227
18328.880117
19561.9295887
19560.489487
19560.2966783
18328.3488339
18334.6521916
19560.6799336
19560.0060297
18339.7764451
19560.9113112
18332.7413531
19560.9089308
19552.761423
19550.3555607
19549.1253121
19548.3522833
19548.2882844
19550.9637397
19553.0282711
19550.1836161
19548.7624782
19548.5281152
19548.7738685
19551.2485703
19546.3530514
19548.70415
19543.0139025
19545.8980378
19548.0149278
19549.9307695
19553.4158764
19548.0347738
19547.5941069
19549.4901482
19548.8260683
19548.513072
19548.9546229
19549.2552385
19549.3303069
19549.6723045
19551.9101109
19549.7991314
19548.7065547
19548.6272533
19548.3676566
19548.1446191
19548.102782
19549.6752058
19554.345665
19551.4933964
19549.8744574
19549.215221
19548.9616264
19548.6537521
19548.4805707
19550.5649482
19548.7098792
19548.3886633
19548.1197564
19550.6360549
19544.7205722
19547.3139924
19546.8408216
19544.4580277
19543.5875316
19548.3491251
19554.8825758
19533.3243332
19548.0283436
19549.4245486
19550.9440027
19549.0789978
19547.5017387
19547.6331625
19548.1747201
19542.5840502
19551.8594773
19550.7602864
19549.6878326
19548.366733
19547.4795686
19547.3839617
19547.0281192
19546.7104366
19554.7647938
19552.0796792
19549.9815954
19549.0242557
19548.637964
19548.493546
19548.3335928
19549.76447
19548.4173688
19548.4829922
19548.4477494
19550.7151479
19543.6894725
19547.6197714
19549.0982017
19542.6236065
19541.2842987
19547.4723909
19554.5387937
19528.8514648
19547.6563475
19551.2209244
19547.6332986
19544.0776872
19544.4016855
19546.8658546
19546.9970877
19538.0160478
19553.6570378
19552.3602489
19549.729203
19545.9814759
19545.7091182
19546.9493961
19545.7189265
19544.4355818
19559.2469622
19556.3644145
19552.9194244
19548.9445543
19546.3627016
19546.6778575
19547.6380808
19547.213978
19547.8226481
19553.5106414
19549.0457857
19546.5293887
19547.0333627
19548.0374346
19547.7146862
19549.3946489
19547.9920787
19548.0881823
19550.3001847
19547.3056488
19553.0230383
19554.3158206
19545.8933539
19539.0854858
19546.726791
19553.2566185
19556.6828644
19551.1645254
19550.1600235
19554.2787835
19552.1525694
19542.5541702
19539.6761083
19546.5744694
19550.3272773
19546.7507125
19563.2435097
19557.9993191
19555.5061724
19556.628836
19553.4428006
19543.3464693
19541.2085829
19547.107049
19549.6795384
19547.1454039
19560.75778
19559.2143821
19557.5593865
19551.0923157
19543.4855461
19543.5922609
19548.612145
19550.8532776
19548.9424522
19556.9776014
19549.3384302
19543.8920115
19545.1120435
19549.3243768
19551.1515978
19549.8193232
19549.1034296
19551.0841602
19550.6653161
722.442756179
769.333799018
909.115581472
1012.22547451
1061.96272603
1145.18445399
1163.54677224
1190.71254799
616.026279591
635.430529966
704.926299893
761.656444437
882.1951583
1022.48434244
1081.38051699
1170.72601266
1181.08079297
1197.41647758
661.807783468
652.448183567
661.572146631
727.712434965
858.886440739
981.652862089
1060.8404626
1152.87521467
1152.22183844
1170.78866137
651.759543388
670.436121729
747.182970515
880.068263582
934.060089508
998.673410557
1068.56802088
1086.46255818
1126.59252403
782.196116593
876.016761515
906.365534541
974.430733098
1033.59935508
1047.19429796
1078.93867945
1043.20284632
1048.51472755
1047.26508284
0.293476040116
-0.114016016594
-0.197775378901
-0.0159365604845
0.262775706433
0.971899283216
0.0725712310215
-0.189115181408
-0.367163093599
1.34129470643
0.170405439062
-0.0473871432746
-0.187117118094
-0.0387785731626
0.259191708472
0.924801112757
1.45592127684
-0.215359235283
-0.422530828201
1.68754660073
0.322671950831
-0.0254861982607
-0.147193366465
-0.0555238705783
-0.00117927794101
-0.219129657034
0.525463129055
-0.152147294234
-0.398672042735
0.947154841319
-0.0790961893144
-0.0883665559501
0.0665089982027
-0.0815296632125
-0.189901509593
0.445330367554
-0.122207644779
-0.363850030627
0.698335697313
0.207369761876
0.375043322808
0.695030148956
0.60872900094
-0.155765699559
-0.327399259887
0.985455750035
-0.0966615434056
-0.255827603933
1.28628691919
19547.8173059
19546.3012655
19547.9334271
19545.854163
19547.7689231
19546.2812203
19547.8463855
19548.8300122
19549.1597266
19549.4679959
19548.9774584
19544.4861124
19548.6086343
19546.7328513
19548.4044747
19549.6898848
19549.2402419
19547.5953554
19548.7957262
19549.430222
19549.5562975
19549.5301133
19549.6728777
19549.8438484
19549.5207094
19548.7727234
19550.0954971
19550.4947243
19546.3830164
19545.8995253
19547.1639865
19543.6176407
19545.8113081
19545.0504487
19546.9842865
19547.0424253
19547.5184014
19548.0732817
19546.9505119
19546.6047071
19547.8652212
19547.210414
19549.0589726
19549.4615731
19549.818641
19547.6018677
19549.2407602
19549.4909027
19549.7530756
19548.8294119
19550.1675596
19552.916492
19550.1253364
19545.9170689
19549.858093
19552.0196682
19546.2201458
19545.3580638
19547.5323397
19544.8566692
19547.8576842
19546.4525299
19548.9155187
19547.7894873
19548.9349878
19549.1919971
19549.7013849
19550.5117118
19550.6663159
19552.5866576
19549.7313201
19549.8662863
19550.4454168
19548.7922869
19550.8703219
19550.8045321
19551.773088
19547.6162357
19550.7941315
19552.0270588
19552.3016935
19551.6658653
19552.5427396
19553.6579759
19544.7472499
19547.333542
17972.138906
18029.4787225
19550.3503401
19548.9559321
19551.3237957
17976.3978989
18019.1136071
18009.9319608
18038.7135807
19554.8223973
19553.4399871
19554.4138996
18042.6928571
18045.5928485
18055.6768434
18033.1201873
19551.2509683
19552.4584773
19548.4406699
18018.5886859
17672.5285477
17957.9906384
17444.1180231
19540.9817056
19543.5056204
19539.7458266
17435.7554305
16983.2497887
17248.0671016
16961.0921381
19542.4461565
19539.2865496
19542.5530923
17030.5712543
17306.8950257
16994.2759345
17245.4768408
19550.197792
19546.3348152
19549.4395993
17347.6089872
17450.0587754
17292.1405502
17398.3667911
19555.1410139
19551.4903651
19551.8518625
17448.9413337
17399.4736977
17393.8701742
17275.9092102
19538.0989121
19549.63331
19539.873512
17380.2176886
16856.5073572
17243.4717217
16825.6554533
19564.0161796
19559.2464862
18440.0426631
18281.9567978
18377.2571162
18312.0594321
19549.5535269
19555.3407317
19553.0614713
18218.7957757
18059.4772125
18281.5539618
18195.7662324
19552.2834475
19552.6538254
19553.9844649
18035.3437172
18058.4202463
18184.7692858
18165.9763145
19554.6544947
19555.698652
19556.0327467
18077.7503675
18070.6455806
18172.334998
18188.7323613
19547.2333813
19553.8712936
19549.1315574
17988.3909607
17488.1081997
18101.8524141
17537.8902137
19539.6776706
19543.8979922
19540.6915168
17287.9615239
16994.174626
17356.2549457
17114.699657
19543.1162051
19540.6205243
19543.7737252
17019.3060146
17232.8912215
17126.5036288
17260.8603472
19549.2636863
19547.0278805
19549.065139
17280.015774
17380.5786705
17299.0792224
17389.4393503
19549.5054589
19549.7437872
19548.8973796
17377.439954
17246.111333
17387.6118759
17247.1807845
19542.5163965
19546.3568685
19545.3788587
17217.1017723
16845.975674
17216.3358607
16869.377727
19560.610334
19562.8158885
19561.3198154
18345.885217
18311.7773246
18330.5213369
18319.4962034
19556.2331089
19559.6287344
19558.4008359
18293.6078068
18233.0221848
18311.6841832
18297.3539958
19555.840522
19557.7254395
19557.5005538
18229.7055974
18197.902138
18296.9421296
18261.4101409
19556.2344759
19557.331365
19555.8389824
18200.1462626
18200.3169676
18255.225715
18128.7084954
19548.2259541
19552.6564456
19547.5930896
18110.3676617
17538.0220282
17991.9140192
17478.2921401
19540.6924093
19543.4893467
19541.6898864
17359.1523503
17136.8203812
17342.4460669
17256.0520016
19544.1864252
19542.599379
19545.2865829
17148.376694
17274.4719481
17279.6506823
17405.9924504
19548.9418099
19548.0059736
19549.633545
17312.0881872
17405.7746494
17441.3136634
17501.0996742
19549.0956477
19550.3461244
19549.9331392
17405.3064261
17287.1775946
17501.3124692
17397.0998799
19547.2432994
19548.1703779
19548.58537
17249.0681166
16862.0931398
17349.5699292
16911.3464443
18333.8596472
18326.4221443
19559.939938
19560.9765692
18323.3871666
18308.9244373
18331.8090916
19558.5998754
19560.2521437
19559.1518136
18307.8826038
18276.218441
18317.4568989
18197.8506776
19554.9628767
19557.1942602
19553.903245
18252.8637299
18046.1918723
18138.7632013
17910.3109828
19546.4384075
19549.7840932
19545.7773267
17922.5432232
17473.2658605
17805.3380788
17482.5963168
19542.476685
19543.7083091
19543.390046
17369.6710357
17306.1003006
17424.2903998
17421.4708861
19546.1247181
19544.6788652
19546.9291901
17332.1231135
17445.867399
17440.2721339
17527.9298004
19550.229525
19549.1579264
19550.7676123
17476.2906018
17528.9973613
17551.8332555
17597.8971221
19550.4007146
19551.246513
19550.7416546
17530.6341035
17440.911646
17588.4821121
17464.8099398
19549.7821613
19549.4387449
19550.9573454
17388.8676281
16940.2793208
17424.4114494
17041.057632
19553.4530866
19553.7831802
18118.8058623
17890.754663
17889.8806707
19545.5293737
19549.4848814
19545.6696211
17786.9052109
17479.7776649
17789.982677
17539.6236461
19543.8860801
19544.0701324
19544.1005868
17434.0147171
17440.9510289
17492.8823906
17463.2540761
19547.2278092
19545.3607448
19547.3829402
17456.7036575
17534.2522585
17467.4282855
17525.5259474
19550.8503584
19549.3036934
19550.8062937
17560.4929741
17602.4643287
17550.3581639
17598.5608449
19550.6442719
19551.1417254
19550.7534217
17589.4799727
17479.3747855
17582.3740218
17493.4758595
19552.0453426
19550.2628962
19553.067262
17461.2839093
17100.7206072
17504.5245217
17250.3591991
19547.0817437
17512.11648
19550.7027971
17540.6105239
17595.5034247
19550.8085505
17578.4242119
17498.1446829
19553.6537209
17524.0021812
17288.8603607
9.20437612494
7.41055273817
9.42910456179
6.88490240749
690.712780529
677.149846944
3.57617809635
0.750394436469
2.84522185013
1.07399187059
749.121910117
717.691175942
746.217815379
1.06120460015
3.27765465557
0.93878237512
2.47283853412
822.184756734
772.487835156
830.630502263
5.3011263144
6.5100034274
5.57178214154
8.11810668124
972.723502977
912.157405586
978.241254046
10.0906287902
16.0892376219
12.3722651826
17.2961140819
1033.1317892
1030.09905981
1048.8049674
21.163669226
23.0674170666
22.68889267
26.3415902056
1087.10117076
1078.44585484
1109.86552497
15.3802892104
5.80950117551
20.4471363694
7.09667824653
1146.50607125
1164.01262901
1161.58675375
1.79400794117
1.32068683333
1.86439125242
1.46921622591
1183.40069226
1176.27198126
1196.99243959
1.57938071826
1.94864990267
1.85757672318
2.33750610511
1173.25400954
1199.83205646
1176.45621388
5.31551925124
36.6096075262
6.46765711811
41.3046103728
630.862773157
642.645889075
643.101033125
7.53361709549
5.49319914928
6.31651284375
5.90560764156
664.37644688
645.230162105
656.825512184
2.95496048303
1.84229636723
4.27742096224
2.58964405622
732.462611358
681.518693904
706.376172147
0.760666723667
0.676454297129
1.28399756288
0.651035911407
810.5425124
739.603527893
785.559788571
2.07640909756
7.31188493724
0.919547814795
3.77361658917
954.115595944
862.050408894
939.262051875
12.4800811978
16.7926458044
11.5523415513
16.2828881348
1052.56231101
1002.24827241
1030.93412333
22.648903906
27.1942229359
19.8850730957
22.6673465973
1122.47276555
1072.46917151
1120.44284369
29.6581719232
9.41866604792
28.6446734742
9.57713026285
1167.29155911
1169.89324467
1164.55947289
1.93276763145
1.56821759993
1.8734553774
1.53592337316
1198.01098804
1173.62586645
1186.9604792
2.0394722651
2.64923779786
2.06133305729
2.60897444904
1169.78166912
1187.02133592
1160.85097011
7.83484419349
46.2075331844
7.92596525721
47.3306931884
657.698818993
663.017213517
660.162857831
4.61019946315
6.91331900765
3.13510406569
5.49681543281
653.444712449
655.867926223
654.160956117
5.44691391973
3.0732737588
4.93501340872
3.11234602763
691.097321712
661.959567149
689.268863094
1.29693572663
0.74443323564
1.58795241359
1.04262384998
777.972981355
730.524218595
795.704982605
0.732754535174
2.76452227492
1.09736212974
5.06838314614
925.775546868
870.884687724
919.368123707
9.3475060768
13.3502813004
8.89504472495
12.5899939989
1015.34024138
957.534524854
987.195420471
13.002775653
13.1169399617
12.1112754292
11.3524633971
1106.69687838
1031.84972837
1075.38431147
19.4836917629
7.34474790642
15.9776436272
6.03216649294
1149.34307931
1111.19517987
1115.18795304
1.51716430369
1.19107894324
1.1796739402
0.905889216283
1168.01271965
1119.02966819
1141.36201407
1.65994640613
2.08685592953
1.24750353045
1.59582155514
1170.69471592
1148.43785236
1157.00893445
5.95183601707
35.0125544176
4.87285616233
31.0023072393
656.636178288
660.786954742
4.06654258938
2.3773225171
2.83790788845
697.569105061
682.271968996
718.132215198
1.69898923821
1.7141031456
3.52350966085
5.04236074439
817.839091321
768.558727329
832.194529504
4.66853110579
7.73064790853
7.07688541827
8.88350340143
916.010281666
882.952310319
906.928965551
9.47545243001
12.0656181296
10.1332250534
11.6898578636
959.346134554
917.741666832
941.050575787
11.0905317805
10.2604059813
10.2993932061
9.94785832349
1041.07813472
978.236459978
1019.86193299
15.4329381006
6.03929350685
16.3528883716
6.7351610223
1078.55608641
1041.55862675
1050.72738349
1.09015023453
0.826409291467
1.36277992919
1.03935347553
1112.86981667
1060.63934253
1088.57118837
1.03763038459
1.40935319188
1.35042572239
1.96917763604
1152.46209058
1103.8440314
1133.81812503
4.145705194
26.8773903586
4.50401142771
24.8475335282
834.22439257
830.507956629
8.60653827164
10.2816483612
8.95592230211
10.7595862222
898.118925576
863.972414278
884.537028923
12.0098068927
14.5441083129
13.3293087861
15.2354396034
934.483873896
895.870237063
932.8139549
15.5694894991
16.8679786589
17.350378578
19.4608380889
1013.20847728
982.768791368
1013.9196516
19.4566272104
8.51829129422
17.8427761327
9.01288718176
1035.80365153
1034.4407483
1032.12301542
1.91442571278
1.49108280449
2.80163242868
2.15381600812
1069.14639678
1042.54672994
1055.51285733
1.93823297499
2.41055097059
2.8180214141
3.14550121467
1098.73484029
1057.58904014
1062.88025931
4.80761922019
28.4249995456
6.20911836006
31.1480779803
1022.54635372
4.26521430877
1039.88703167
2.82632902185
2.52085583104
2.38262330982
2.37744820098
1056.49693818
3.16730872454
3.63385473101
3.38000025934
4.46189067963
1041.54692229
6.70235959004
36.21430945
8.75732192078
37.4525872133
19546.1370058
19545.4602215
17978.4594637
17973.1103317
19546.126262
18001.6111766
19545.3781962
19546.768827
19548.1025265
17992.2757773
18082.5364733
19546.4036914
19548.5263154
18033.4046413
19547.6405263
19546.176593
17982.8554534
17974.6816359
19546.7137859
17985.5026647
19547.3058137
19549.093074
19550.532097
17992.6415276
18022.1322046
19550.8254981
18000.4148965
19548.7348153
19547.7642566
19547.9603785
17988.5364504
18015.0118233
19546.8155764
19548.8172087
17996.8407038
19549.2471541
19551.5541515
18029.9286059
18022.4971484
19550.9101945
19550.2771521
18009.4946346
19553.6754275
19552.2637627
18045.3044413
18040.4057346
19552.3508661
18032.2539896
19553.8123855
19553.9572651
19553.3666938
18053.2651623
18023.7441097
19553.1108401
18032.3524631
19554.1564301
19554.1144841
19553.0060881
18048.6864396
18069.6108951
19552.4181176
19554.5445819
18041.79596
19555.0099402
19554.4059799
18015.7320947
18061.3984822
19554.4165792
19555.3151394
18031.9369086
19547.6337172
19552.5327737
17980.7216552
17996.2946725
19550.3418803
17927.6438968
19550.4966614
19541.809603
19537.629831
17862.2420269
17563.189979
19531.9811757
17768.5285348
19545.6286136
19544.6021013
19550.9680013
17959.4628289
17824.2342422
19551.2752177
19543.4397833
17854.2566879
19537.0156841
19523.3260869
17488.4016653
17647.2751527
19527.4216603
19533.9932781
17694.8741709
19513.3267627
19527.3086394
17183.5283755
17326.0661366
19521.6816824
17109.1915858
19517.1133395
19508.5619103
19512.7925165
17046.8707112
16948.2878112
19510.8878461
16995.5542736
19510.5515535
19509.651523
19513.5137691
17264.7536147
17060.3611982
19517.8858128
19505.3729849
17070.7076359
19505.3057919
19505.1740428
16956.2064597
16968.1040488
19506.7507492
19502.1056902
16983.1356395
19517.4021646
19514.598986
17128.4694435
16990.8056694
19513.1672686
17087.8096516
19518.4085873
19522.6759352
19530.8122277
17226.0909778
17279.6012513
19529.2063127
17191.949027
19524.1289363
19513.6442792
19508.9900488
16990.8115996
17077.1195053
19509.0053391
19513.1044273
17076.6699456
19520.1462698
19526.0679023
17257.0014117
17166.3131353
19527.8052342
19519.1495233
17172.5678037
19535.7194109
19534.5586377
17380.6443358
17323.5666926
19533.1962753
17358.7225602
19536.6368025
19536.82734
19539.0617622
17414.199925
17428.8934624
19537.6629341
17394.6925748
19537.6872906
19535.1876443
19530.7437444
17304.3423323
17334.4149545
19532.353406
19533.5174846
17343.1270645
19536.8134242
19536.7493586
17410.8998746
17373.2440952
19537.8429537
19535.4631669
17379.6209092
19535.2948909
19539.3867308
17447.9723797
17428.2957787
19537.3674737
17427.1529937
19538.0723639
19532.2447719
19533.0885782
17430.1547284
17374.4172222
19527.953754
17408.8177601
19535.6406451
19535.6302095
19536.8980141
17408.4372183
17386.8423709
19537.6140723
19535.354928
17406.957295
19533.0014387
19527.3381353
17317.8691464
17341.5066732
19528.7809543
19532.338185
17371.4669194
19511.0950255
19528.5145081
17260.6124221
17353.7941301
19522.1317284
17233.3812716
19518.7588583
19490.9287578
19501.942306
16783.0607658
16844.3345108
16763.7565441
19497.2652084
19499.1810083
19511.0324166
19520.4841553
17289.9513496
17125.6850041
19522.4155057
19508.8425058
17166.9207688
19491.5114342
19501.5003428
16856.0702654
16672.1104365
19487.3670694
16708.8487418
19501.0566793
19562.2617365
19566.0078798
18401.7684271
18447.6583214
19562.9264944
18398.1686507
19564.9460501
19559.0253039
19555.8568844
18359.0494146
18302.755309
19559.4415029
19556.532575
18349.076622
19561.5761386
19562.8499484
18412.3177763
18359.5791047
19560.8566623
18379.2031709
19563.9401766
19559.3542785
19557.125759
18310.2269583
18341.9211129
19557.0543358
19558.9195254
18347.3392362
19551.9110616
19552.60647
18169.9737463
18262.4567688
19550.564769
19554.1354064
18205.6379046
19550.3895004
19548.6599505
18122.1544916
18112.5280947
19549.5828474
19549.4625216
18160.9274723
19552.9265165
19555.4061118
18270.555881
18250.1874234
19554.8235256
19553.8219818
18221.0516155
19551.568931
19552.3333621
18158.4111604
18218.2990123
19550.4884738
19552.8302542
18191.3520005
19549.3354306
19547.8226395
18038.7782918
18077.7521428
19548.2932646
19548.6457306
18076.7625885
19550.6963221
19551.5248867
18045.6069419
18091.5443312
19549.834835
19552.3223811
18081.9532671
19550.4355683
19552.3308556
18126.072182
18169.168887
19549.8214998
19552.6930144
18121.9788889
19551.700599
19555.0428834
18132.4562502
18163.1513539
19553.136361
19553.7190137
18125.6613901
19555.4147009
19553.2652757
18114.2691815
18104.3624848
19555.1837239
19554.0101723
18121.847512
19556.189508
19555.1945622
18104.796512
18115.0464527
19555.9574365
19555.3249859
18133.3978307
19555.9569134
19556.2169982
18140.4281296
18180.8749536
19554.5140743
19557.2433434
18151.8084996
19556.8659434
19558.0104904
18161.2951534
18192.7678947
19556.5067058
19558.496051
18173.0289236
19545.9968147
19552.067124
17858.4053364
18025.1217277
19544.975624
19552.2184079
17883.1061826
19536.5946581
19522.9032714
17681.3288322
17512.6626542
19535.1406997
19524.6548035
17708.2062129
19547.7178427
19554.9651424
18068.9656468
17946.5387926
19553.6299106
19549.0420922
17913.3228839
19539.4634635
19530.4128295
17523.3198524
17744.3697626
19528.5995742
19540.7157247
17723.580309
19502.9761832
19510.8166629
17105.4266636
17326.3786902
19501.3409961
19512.7153982
17150.8921251
19497.5120378
19499.6098692
17012.5837005
17027.2974599
19497.2760231
19499.2156085
17066.2594813
19509.6019881
19520.7337044
17344.2041301
17204.1770694
19517.8843425
19513.1252291
17187.8559318
19503.983667
19508.4029733
17076.377913
17139.9630372
19505.3228559
19508.131832
17112.0338364
19508.0373462
19504.0965788
17085.8679724
17043.9774369
19509.6908439
19502.8543301
17099.9429213
19513.8156271
19522.5273388
17162.4533865
17238.6043579
19515.9459264
19520.4184253
17171.1726553
19510.3512057
19509.2307297
17086.9542087
17157.042522
19507.5065567
19511.6655482
17128.1380548
19514.8014886
19520.5509782
17245.1850903
17203.9128112
19520.4178801
19515.4607542
17187.027165
19529.9137033
19527.7155411
17325.0351678
17280.234473
19531.4273822
19525.8179244
17321.7470093
19532.581454
19535.5378377
17362.0195197
17377.7743305
19534.2265766
19534.5962355
17355.4326493
19529.4862619
19525.3859236
17283.3643702
17336.1754774
19525.4082866
19529.3408507
17322.4022546
19532.6860444
19535.1658951
17377.2060128
17366.220561
19534.9177345
19532.4716695
17354.5774476
19534.3295712
19535.6434834
17370.918815
17375.1424627
19534.2137315
19535.1069227
17360.9425375
19531.6472517
19525.8351739
17319.7182411
17227.446682
19531.013988
19526.8361484
17305.1758146
19534.2340773
19536.0057174
17375.3245115
17372.9780294
19535.1006037
19535.1056911
17363.0835253
19531.406846
19527.5913694
17233.3314157
17319.486712
19526.5097501
19532.3338308
17309.8602037
19508.8148933
19519.0001997
17106.1049945
17193.6176502
19507.4887349
19520.0342127
17084.4796946
19487.9352709
19501.7664611
16683.5085041
16838.3283651
19485.9162769
16672.1591715
19504.2554934
19508.4925254
19520.8417979
17200.8396519
17107.5280678
19519.6246145
19509.6711294
17093.7830014
19487.7847373
19506.0596237
16856.0590383
16699.1127826
19489.453757
16694.2864341
19504.6153793
19560.7183825
19562.4076809
18331.4297212
18339.1545198
19560.9166344
18332.3758533
19561.8116872
19559.4199502
19557.4519553
18320.830307
18311.3250445
19559.0650833
19558.1257187
18321.527219
19560.5594019
19561.1714114
18337.1442225
18326.5983877
19560.7148102
18332.1699408
19561.5209089
19559.4111698
19559.0546316
18314.0013505
18323.5805501
19558.4642065
19559.9039213
18320.9771608
19555.8315671
19555.9153445
18262.7985987
18302.1226853
19554.6881479
19556.8665546
18291.8491943
19555.1579868
19553.7419705
18243.5740695
18270.131403
19553.9363724
19554.8253972
18283.0801478
19556.7978789
19558.3116927
18309.829138
18299.8587648
19557.58972
19557.7155742
18305.3249406
19556.2180352
19557.2272556
18284.3639972
18296.1607724
19556.0380411
19557.3120164
18297.6554409
19555.8917836
19553.8883704
18216.6773241
18260.1860062
19554.6962653
19555.2916143
18253.4547188
19556.5982159
19556.4214139
18200.2679864
18227.8417589
19555.5717222
19557.3907107
18242.9397666
19557.002565
19557.4486174
18271.9883278
18288.6579825
19556.4362594
19558.0144648
18266.995061
19557.5238243
19558.9919488
18247.4237878
18271.3194399
19558.2056166
19558.5612294
18260.2721645
19558.2497886
19556.8866364
18202.7437889
18221.9281201
19557.7308587
19557.9988829
18222.9391644
19558.142366
19558.1197503
18206.4676156
18207.5583508
19558.6397487
19557.5463028
18224.8802628
19558.4724453
19558.7588362
18235.9491084
18248.2536645
19558.7230626
19559.0886671
18232.148573
19558.5704202
19555.2272545
18177.2550178
18205.3620318
19556.7869196
19558.0118707
18215.7988746
19547.3449809