/*--------------------------------*- C++ -*----------------------------------*\
| =========                 |                                                 |
| \\      /  F ield         | OpenFOAM: The Open Source CFD Toolbox           |
|  \\    /   O peration     | Version:  v1906                                 |
|   \\  /    A nd           | Web:      www.OpenFOAM.com                      |
|    \\/     M anipulation  |                                                 |
\*---------------------------------------------------------------------------*/
FoamFile
{
    version     2.0;
    format      ascii;
    class       volVectorField;
    location    "6.1";
    object      U;
}
// * * * * * * * * * * * * * * * * * * * * * * * * * * * * * * * * * * * * * //

dimensions      [0 1 -1 0 0 0 0];


internalField   nonuniform List<vector> 
28582
(
(0.812017648459 0.00153748491013 -0.000735970101677)
(0.813897395847 -0.000232813983538 -0.000765013375241)
(0.812009590668 0.00151724415696 -0.00231465525289)
(0.81413533532 -0.000351327352775 -0.00206640797434)
(0.811756296542 0.00088599429968 -0.00530322518606)
(0.815088026071 -0.000590571361219 -0.00533173255794)
(0.809114982178 0.000734095466637 -0.00678875555284)
(0.814585177 -0.00112236401762 -0.00816034298463)
(0.250846467246 0.151776107607 -0.011548719427)
(-0.132900212806 0.0678822473983 -0.0111608024092)
(-0.0813028301491 -0.172064404241 0.339566583983)
(0.812206558356 -0.000455712834297 -0.00953780583068)
(0.791341431323 0.00341397256132 -0.00468763980682)
(0.789757229623 0.00219376926249 -0.00914237475191)
(0.818939308338 -0.00190058331661 -0.00637053088369)
(0.818873552598 -0.00148848216129 -0.00654308691656)
(0.789290738352 0.00244245805715 -0.00926490620274)
(0.821780944182 -0.00246650686583 -0.0109707491439)
(0.822083013675 -0.00217446199348 -0.0116332630057)
(0.811439205658 0.00423403365239 -0.000780582131363)
(0.814297860594 -0.0017795609193 -0.000560493421675)
(0.813137020313 -0.00275087312631 -0.000289021030589)
(0.811298354122 0.00391627676708 -0.00151236332379)
(0.814818481394 -0.00179354898653 -0.000956386389298)
(0.813575032727 -0.00251794339468 -3.51849070772e-05)
(0.810654482816 0.00334058912152 -0.00245328960024)
(0.816676339811 -0.00192720817287 -0.00212243270362)
(0.808505452959 0.00309545319076 -0.00279103849428)
(0.818999979511 -0.00161032857405 -0.00356836877596)
(-0.196284966153 0.0911438371134 -0.000254715851952)
(0.151498368733 0.0470034046123 0.161226888764)
(-0.00354304246679 -0.0828179143202 -0.475326023249)
(0.809455541882 0.00167054739007 -0.0043886883893)
(0.808515284654 0.00188263911143 -0.00418004703043)
(0.795528066027 0.00740206455855 -0.00145379443566)
(0.794944966118 0.00528079244488 -0.00495443533354)
(0.806327335106 0.00231197728227 -0.00482615497088)
(0.819216139372 -0.00187433056443 -0.000572523330912)
(0.818846213588 -0.00118309241344 -0.00290447689939)
(0.818971756869 -0.00101826732585 0.000585965658413)
(0.82174011118 -0.00207380390393 -0.00858691957108)
(0.782457065462 -0.000322895499296 0.000918889865902)
(0.821893064907 -0.00152633751198 -0.00877301993356)
(0.820917119938 -9.43060483008e-06 -0.00171151779333)
(0.123840894848 0.102446583298 -0.0147074388246)
(-0.164149135906 0.0619927369836 -0.0107436151156)
(-0.119423479619 0.0567038880386 0.129932538042)
(-0.120698883742 0.0263326714369 0.136511404026)
(-0.0165326936017 0.0666406904921 -0.0156240410366)
(0.0494527749781 0.0405659147406 0.179467995528)
(0.806764499756 0.000622969491625 -0.00718491057555)
(0.80671898769 -0.000976752265172 -0.0107326645904)
(0.79097802048 0.00287865186846 -0.00662966300224)
(0.790794871876 0.00356016991008 -0.00470688636467)
(0.805940886433 -0.000321732643387 -0.00751387747183)
(0.790275810423 0.00338778154483 -0.00677386605327)
(0.807715974711 5.23564079696e-05 -0.0103306406859)
(0.808952176802 -0.0019722825612 -0.0111313269253)
(0.812202841278 -0.00143456908507 -0.0133435561187)
(0.790561566223 0.00235231431544 -0.00764146486547)
(0.789202290664 0.00157511504055 -0.00982784451079)
(0.811581670283 -0.00257226672482 -0.0143297141713)
(0.789843292868 0.00204762729119 -0.008154256982)
(0.809700123334 -0.00084711785995 -0.0106321917518)
(0.817283551038 -0.00321060761674 -0.0144576746715)
(0.814047403071 -0.00193363473858 -0.0123049783698)
(0.788321715213 0.00216795017595 -0.00925769360429)
(0.788684094628 0.00141636018166 -0.0102594086001)
(0.813738665247 -0.00309948473231 -0.0133187262074)
(0.787627021626 0.000921184707462 -0.0102201112323)
(0.81726671746 -0.00224904133223 -0.0131776900417)
(0.821393189577 -0.00191165020724 -0.0100476935835)
(0.787560023231 0.00192321447137 -0.00748673595833)
(0.786522514912 0.0012020025014 -0.00809106958023)
(0.818718150774 -0.00294474514546 -0.0124532943738)
(0.788074931526 0.00216829906838 -0.00868515435646)
(0.787211407823 0.00110583334191 -0.00952484686724)
(0.818467872875 -0.0021405481131 -0.0113314991822)
(0.822934200449 -0.0014599622252 -0.0125136417487)
(0.786405004224 0.000456267530477 -0.00948325686902)
(0.786512993438 -0.00142243849296 -0.0104735998939)
(0.81892481187 -0.00296612872824 -0.0138138411176)
(0.787305680469 -0.00185469624709 -0.0127243532318)
(0.819431314515 -0.00238648479845 -0.0154838204515)
(0.787148142454 -5.83796136182e-05 -0.0113369372198)
(0.345512269051 0.176926565334 -0.00646009083524)
(0.163579501007 0.102685211052 0.144194300257)
(0.374323719319 0.194190034624 -0.00254360866893)
(0.305877463014 0.179967304888 -0.0054423508425)
(0.168581020287 0.145684268695 0.0973114707273)
(0.0972333108262 0.143704734196 0.138062095362)
(-0.216368331376 0.0636603367256 0.00536548418641)
(-0.111973836002 0.0915846680284 0.0692563242169)
(-0.125982522399 -0.0316210435852 0.101628334157)
(-0.218184854084 0.0505432190267 0.010850933233)
(0.0148185549743 0.10433569275 -0.0111381570846)
(-0.217713540418 0.085485616549 0.00583577878202)
(0.00352529124248 -0.0286962885706 0.0210655648787)
(0.806760310622 0.00201912246163 -0.00375194604212)
(0.807010735453 0.00276096029584 -0.00192352689068)
(0.795443209926 0.00681237298422 -0.002540931329)
(0.794768749967 0.00681954703246 -0.0021308348263)
(0.807287443704 0.00203789931975 -0.00305111476833)
(0.806673654158 0.002579819873 -0.00297054519018)
(0.794531593923 0.00629886363519 -0.00298040574654)
(0.8073151163 0.00170185370189 -0.00526406454209)
(0.808054458622 0.000890333519677 -0.00615506057675)
(0.795229949762 0.00592224765981 -0.00333583464562)
(0.79400883784 0.00460894351462 -0.00515426589932)
(0.807979266121 0.00165004864864 -0.00477071454277)
(0.807374881073 0.00100700591988 -0.00684493595747)
(0.794405995261 0.00533468398395 -0.00375407574598)
(0.792968574616 0.00471214188719 -0.00348647772778)
(0.792293910165 0.00423667336581 -0.00469847354902)
(0.806215092005 0.00161088632442 -0.00621566539136)
(0.806863939766 0.00209197374629 -0.00481588448702)
(0.793237505486 0.00406997971109 -0.00480220423453)
(0.806960409131 0.00139075505029 -0.00635668473316)
(0.793571292036 0.00496477939625 -0.00340375809989)
(0.821510372081 -0.00173113043511 -0.00765089333193)
(0.786790234142 0.00127621744569 -0.00615673399955)
(0.785880843384 0.00125637864737 -0.00661266755212)
(0.822124619414 -0.00174332669284 -0.00394353035017)
(0.785349911545 0.000673316180976 -0.00315365231479)
(0.821945597497 -0.00141860139982 -0.0033658186738)
(0.784632444778 0.00124445995543 -0.00339931912134)
(0.82067005941 -0.00161233364806 -0.00236258229019)
(0.819690525069 -0.0014597364749 0.00195689096319)
(0.78422898911 0.000119217642953 -0.00184093957691)
(0.781909341949 0.0010481491031 0.00138554503617)
(0.820606057164 -0.0013829572987 -0.00196061566719)
(0.819504074368 -0.00162664125659 0.00189109314835)
(0.783423561211 0.00114843138716 -0.00165856433913)
(0.822493799725 -0.000388865762963 -0.00329919643735)
(0.822584857898 -0.000666300632336 -0.00953957036981)
(0.785741003515 0.00111064380395 -0.007816948684)
(0.785939747685 -0.000319656518035 -0.00828030359847)
(0.78383367233 0.000376591745413 -0.00409977191194)
(0.822238000306 -0.0013279078015 -0.00352164401001)
(0.784290403493 0.0015044992458 -0.00429317430472)
(0.782694611297 0.000831582307781 -0.00214674950388)
(0.78092742067 0.000910522112359 0.00124036796268)
(0.819567740051 0.000285168332935 0.00283835762041)
(0.82060609995 -0.000991782415227 -0.00200686998463)
(0.781368271889 0.00137795698462 0.000364817084506)
(0.819399757441 -0.000829717896111 0.00228504596721)
(0.782993569006 0.00158551972167 -0.00255560206173)
(0.814813359895 -0.00261881081162 -0.000296088530372)
(0.817410359194 -0.00195941963391 0.000339256292786)
(-0.173998159695 0.0678534353677 0.00450643031846)
(0.0317041032984 -0.0268145107894 -0.570371424679)
(0.810095874799 0.000884196129632 -0.00549841924325)
(0.791808072058 0.00330718733005 -0.00541582155076)
(0.817095425448 -0.00107879151595 0.00152922425493)
(0.813982577837 -0.00143988602492 0.00243991321991)
(0.781611482515 -0.000633964957123 0.00253447879318)
(0.77974097627 0.000624632780482 0.00285064403015)
(0.77763286964 -0.00108463198204 0.00359247856695)
(0.812639665711 -0.00199359099123 0.000427039637242)
(0.810666834331 -0.00239682340258 -0.000308301777626)
(0.77671417992 -0.00193284798078 0.00242920626554)
(0.773010351102 -0.00294478194779 -0.000943093547388)
(0.264762978316 0.148195874795 -0.0106690010072)
(-0.155321538816 0.0263816000453 0.00951565234275)
(-0.0543324117697 0.0142821426335 0.012973612752)
(0.0553389262152 -0.0631084675062 -0.0344460683484)
(0.0521562698031 0.112148590555 -0.0695313202799)
(0.0417712578106 0.100644281795 -0.0624515151184)
(0.000459335989175 0.0205625564719 0.00920383250077)
(-0.00531849312151 0.0414246010769 0.00179934078242)
(0.808952507104 0.000343392056196 -0.0101375244663)
(0.807302949724 0.000887645430409 -0.00743576427923)
(0.79253364153 0.00325933962543 -0.00543155308895)
(0.791279707643 0.00303897474474 -0.00711227893914)
(0.808040462297 0.000816058226869 -0.0078508581201)
(0.791710112206 0.00254097169441 -0.00723084058534)
(0.80832126882 0.000410672259258 -0.0100299788366)
(0.815563202857 -0.00181768857056 0.0040980993889)
(0.81783802591 -0.00155794552827 0.00260023609098)
(0.781230649654 -0.000668103088036 0.00322731470831)
(0.780813290196 0.0007768162663 0.00241648843804)
(0.815775013438 -0.00170331465412 0.00437904738401)
(0.817564520346 -0.00170554300509 0.00226028668193)
(0.78074695052 0.000535427295433 0.00325935680842)
(0.81532117362 -0.000779070673394 0.00488208238121)
(0.817600493067 0.000464457791397 0.0034199378264)
(0.780161526956 0.00111704053971 0.00161138825113)
(0.779440343929 0.000378282529194 0.00396098371641)
(0.817511648544 -0.000741249289548 0.00277945491762)
(0.78004212029 0.000931723092439 0.00255270815201)
(0.814916606097 0.000274725697835 0.00580118191184)
(0.813248012379 -0.000843983491739 0.00387888207505)
(0.810531722495 -0.000294914495005 0.00464328948356)
(0.778420325102 -0.000181761971782 0.00234619127977)
(0.778948986705 -0.000313134405321 0.00395689609223)
(0.810972912601 -0.00115402544754 0.0039268053186)
(0.779689382153 0.000337025628964 0.00274355579524)
(0.81289668463 0.000116518038989 0.00458335021179)
(0.808910031885 -0.00163804324288 0.000910915885889)
(0.809328570574 -0.000742297603667 0.00311729632101)
(0.777344099985 -0.000608781624053 0.00134791738572)
(0.775537408686 -0.00249885136304 0.00107769820196)
(0.809685733153 -0.0015619318293 0.00259619468435)
(0.775977556532 -0.00123330977953 -0.000126087525107)
(0.808716744926 -0.000825672599022 0.00163361406828)
(0.808508001159 -0.00183173909575 -0.000332726336221)
(0.808215439641 -0.00103535453488 -0.00111743903529)
(0.773196706272 -0.00170735869883 -0.00224523454514)
(0.77431485232 -0.00290200823479 0.000741313250352)
(0.808577190925 -0.00195246888465 -0.00205352689762)
(0.774430857936 -0.00146022525336 -0.00132263661623)
(0.80832019301 -0.00101735215704 0.000844335140646)
(0.794749111866 0.0114003263149 0.000422827963577)
(0.799782506192 0.0132560869869 0.00166115821426)
(0.801690686488 0.0178786576714 0.00289975749903)
(0.803569265884 0.00912163616929 0.00184222683716)
(0.382178064247 -0.114229148951 0.00579831480619)
(0.367190283185 -0.115755326706 0.00198664970232)
(0.311203357216 -0.0362232329525 0.00752808442123)
(0.411098304537 -0.0253325734291 0.00701258251329)
(0.399832835149 0.1630382021 0.00347122027533)
(0.340412531982 -0.0390473115723 -0.191034794316)
(0.359773390789 -0.0557402887031 0.571366494478)
(0.267698976991 0.0119172298744 -0.346944234957)
(0.355088674775 -0.0461372846691 0.264082831176)
(0.266717079879 0.0201607476166 -0.397835220044)
(0.473314389097 -0.0410564112167 0.144780630053)
(0.790217160317 0.00123580378706 -0.0025817310084)
(0.79163269402 0.0048667897542 -0.00283949399925)
(0.781331299414 -0.000319452173632 -0.00261598429652)
(0.782753627159 0.00479865393048 -0.00446684266041)
(0.790019057475 0.00757082685638 0.000632322445842)
(0.782207635034 0.00563162844343 -0.00386979515798)
(0.793652800314 0.00822944416631 -0.00120164383472)
(0.796958815797 0.0108036843002 4.67662034914e-05)
(0.783626406908 0.00592139794644 -0.00424211680063)
(0.786622889361 0.00191157076521 -2.97006966602e-05)
(0.792272712312 0.0158767724991 0.0036549186533)
(0.797401995236 0.0139864909122 0.00192977877481)
(0.797442387824 0.0167813398941 0.00282184380377)
(0.783172158931 0.00710787280478 -0.00390289456711)
(0.780502553948 0.00943279040846 -0.00163092067447)
(0.785183384611 0.00291345402507 0.000351201522703)
(0.78311166021 0.00633596282095 0.00183227150993)
(0.799139597466 0.0212273224212 0.00452552122147)
(0.801702556708 0.0254423052662 0.00631544060561)
(0.780770841158 0.0106471791339 -0.000303634664207)
(0.78528879685 0.0120715005652 0.00168873927493)
(0.783108408854 0.00754235036363 0.00301713172484)
(0.785611172078 0.010280168442 0.00539664720232)
(0.800430491548 0.0153173043865 0.0027219717964)
(0.802126547875 0.0119032274926 0.00259304673464)
(0.785919764907 0.0030027618671 0.00261377771267)
(0.783952192681 0.0057451666854 0.00367806002394)
(0.78616377812 0.00734543601767 0.00539801512756)
(0.803457253066 0.0194026014592 0.00374884177256)
(0.802826649161 0.0130977572339 0.00295462739012)
(0.804037488726 0.0138527214814 0.00359240872504)
(0.784108912658 0.00666039070408 0.00413130057411)
(0.786219558765 0.00909673562588 0.0059583804465)
(0.786546849802 0.00785324290542 0.00579590704151)
(0.787967847127 0.00989934400266 0.00642086497088)
(0.786918138685 0.00890942617239 0.00531032744169)
(0.788623866376 0.0102947474649 0.00564059293162)
(0.475566542346 0.0338807619779 -0.00618528571932)
(0.468911714635 -0.0467247524733 -0.00782073638241)
(0.424636308951 -0.0577521144204 -0.00638954813699)
(0.210870739711 -0.029090517472 0.179557314741)
(0.347719836358 0.00189466075506 0.15658493347)
(0.230099024154 -0.0644941103406 0.189464156383)
(0.373727629914 -0.0492583713966 0.149637733338)
(0.331557047163 0.0175232253947 0.0831617368963)
(0.193662728676 0.0207668795599 0.0279071604324)
(0.360415548224 -0.0381199879035 0.0840575823771)
(0.231314856107 -0.0325462562005 0.0535159967343)
(0.430499804958 -0.101464221937 -0.00272182447942)
(0.346128983347 -0.108835630776 0.00664795887573)
(0.361581699388 -0.117601176462 0.003797203977)
(0.323799877344 -0.110407310299 0.00990320718769)
(0.340011861232 -0.113574151945 0.0068335662485)
(0.222209290658 -0.0862458714291 0.103286313563)
(0.372988634663 -0.0734058616044 0.048819230478)
(0.243324449242 -0.0528974390828 -0.0632833335052)
(0.371708432233 -0.0358758744054 -0.126280429341)
(0.372507189774 -0.114804398108 -0.000863071324294)
(0.372637287681 -0.103137318175 0.00771877954707)
(0.43447564172 -0.0996252675122 0.00391835982531)
(0.364118312301 -0.0476534172856 0.0091217592593)
(0.294989980496 -0.0332458523024 0.0337488666796)
(0.368581335039 0.0020568910431 -0.170205407363)
(0.294423943431 0.0303256096143 -0.181905286431)
(0.353945609812 -0.0337141190696 0.00690224972716)
(0.364261129245 0.0645056205685 0.00504561929766)
(0.252564789526 -0.039767045312 -0.195980706349)
(0.37325750084 -0.0281230031963 -0.251514353718)
(0.374599283372 -0.00498924234849 -0.253265774644)
(0.475975194547 -0.0109751624191 0.00305466925671)
(0.4305217174 0.0695343650825 0.00545942884418)
(0.490188766069 0.0810971253093 0.0024921524647)
(0.384585576448 0.00290999949329 -0.260939088072)
(0.350727914073 0.0228519319992 -0.246051834199)
(0.412206713707 0.00954432542974 -0.267323641411)
(0.386739036331 0.0125759175289 -0.24400973654)
(0.793720145694 0.000909487581404 -0.00425209747344)
(0.792639788826 -0.000946484115824 -0.00356482191446)
(0.782257340678 -0.000203773396601 -0.00187341897546)
(0.781334189723 0.00124775933889 -0.00328640622618)
(0.793061376869 0.0017638703543 -0.00440000896017)
(0.782178966187 0.000893897298481 -0.00228530115204)
(0.793624840126 -0.0012098262405 -0.00355872538376)
(0.794550952287 0.0032986322887 -0.00523146473744)
(0.795289940573 0.00711917650467 -0.0051545581111)
(0.781899101689 0.0039096527535 -0.00410741742807)
(0.783460240441 0.00337747393354 -0.00389461384563)
(0.793938370605 0.00465450690781 -0.00536265792671)
(0.795586746996 0.00604478920988 -0.00619037160548)
(0.782590494688 0.00308592807309 -0.00329432195873)
(0.79263465294 0.00676761237721 -0.00220598478118)
(0.794649894344 0.00865241423624 -0.004239471204)
(0.78138936082 0.00464418769684 -0.00405224367696)
(0.781138777846 0.00727648611766 -0.00267797359872)
(0.793544308586 0.00534288419806 -0.00414021563681)
(0.794042092146 0.00994225531043 -0.00165144541721)
(0.780643658872 0.00563095402554 -0.00298105290781)
(0.798453123617 0.0103259446804 -0.00619005694553)
(0.796679937402 0.00946691607491 -0.00482730749365)
(0.784789857922 0.00447313249384 -0.00482424498303)
(0.784526990432 0.00450368339067 -0.00403256258068)
(0.797106517485 0.00822853847367 -0.00619201809654)
(0.798062240982 0.011336351776 -0.00424913693033)
(0.785867625795 0.00273863885973 -0.00492237633999)
(0.799654610088 0.0118119159668 -0.00399006936126)
(0.800223039197 0.012893741608 0.000384216976933)
(0.785709077603 0.00433132759597 -0.00239481453225)
(0.78865375812 0.00116201216753 -0.00228820774014)
(0.799232618386 0.0124342181526 -0.00183200718255)
(0.800639588482 0.0123538995204 -0.00241096497329)
(0.78754873149 0.0029626569757 -0.00381263219935)
(0.796745426683 0.0139039858035 -0.000969570654986)
(0.796004163369 0.0109760543012 -0.00388038678378)
(0.781854154251 0.008206785788 -0.00246623599395)
(0.784097438467 0.00541405572155 -0.00317950731722)
(0.795343267935 0.012270650168 -0.00174141223055)
(0.797413382064 0.0125877125981 -0.00344779153836)
(0.782265089723 0.00663048008056 -0.00163410300598)
(0.796218651187 0.0155681988279 -2.615898053e-05)
(0.7940647134 0.0156828158467 -1.88434949614e-05)
(0.780688522809 0.00851781421085 -0.00183603064819)
(0.781417564763 0.00866571398914 -0.00064175482858)
(0.794484451869 0.0137985947411 -0.000728043663284)
(0.796088975444 0.0173773640067 0.000426526942328)
(0.781122015995 0.00759868026928 -0.000729370375826)
(0.79826474739 0.0148560817597 -8.415395542e-05)
(0.799893831536 0.0144627873756 0.00064738732624)
(0.784784735825 0.00518293167668 -0.00208914966626)
(0.784037192321 0.00374712190942 0.000137036945403)
(0.798598300943 0.0138379817317 -0.00167138377266)
(0.799688338412 0.0154802919424 0.00132424277915)
(0.783360241775 0.00621558385929 -0.000886636467038)
(0.797978369922 0.0165498779625 0.00112196926854)
(0.799748627833 0.0184596350911 0.00292069439176)
(0.782170845906 0.00816154207925 -0.000332584536911)
(0.782886258745 0.00525679245366 0.00133635006511)
(0.7979999993 0.0182830036948 0.000949945271899)
(0.799663736924 0.017056499025 0.00221681388443)
(0.78207106211 0.00726772030921 -0.000200995158011)
(0.797536013647 0.0216228100156 0.0037255411552)
(0.794279008212 0.0178344414076 0.00156337437679)
(0.78167945817 0.0113360595982 0.000697441496308)
(0.781110428452 0.00999501093767 0.000430211359093)
(0.795237868666 0.0204912503592 0.00372525717313)
(0.796373077759 0.0195215080322 0.00163444323802)
(0.782063044992 0.011210824529 0.00184055456923)
(0.798721651917 0.0236032006864 0.00415942186393)
(0.799382635883 0.0250471569581 0.00615106157894)
(0.783313303626 0.0120107328324 0.00120142327325)
(0.785469269511 0.0119719869814 0.00295688032883)
(0.796610333679 0.0229582496264 0.00411322925182)
(0.783479243001 0.011712723486 0.00237253090071)
(0.80125414347 0.0254909643152 0.00575371247547)
(0.799446671888 0.0220023185698 0.00304192196996)
(0.799980142337 0.0201232792398 0.00394565445815)
(0.782396221704 0.00927094155099 0.000331999625798)
(0.783274049803 0.00876817078435 0.00371930490539)
(0.798425902322 0.0202648146938 0.00201358645608)
(0.800820376622 0.0214122626021 0.00474750536473)
(0.782817921948 0.0104448962648 0.00142859523075)
(0.800546476567 0.0234929355697 0.00339441217088)
(0.803414262223 0.0235245642087 0.00613188224702)
(0.785691512173 0.0114584596966 0.00319594561567)
(0.78418594556 0.00957223265289 0.00453106492993)
(0.801797220751 0.0224074583235 0.00495652597693)
(0.783823516254 0.0109498623378 0.00202581062738)
(0.80258055478 0.0251217013877 0.00472433101188)
(0.801933497414 0.0132661383399 0.0054045781912)
(0.801297489674 0.0140039043841 0.00315415419227)
(0.785135930315 0.00373535324864 0.00247511966101)
(0.786648149865 0.00313792771163 0.00417912029171)
(0.800934155839 0.0150953157564 0.00358030252853)
(0.802459202244 0.0122033420809 0.00433544130568)
(0.785879990007 0.00385150464086 0.00405774800653)
(0.801986373994 0.014280220628 0.00562235427221)
(0.800907552952 0.0174276150111 0.00489454330156)
(0.784178286483 0.0048047198354 0.00340384248598)
(0.785037150671 0.00569009048531 0.00509782081238)
(0.801067055793 0.016355746406 0.00448407200271)
(0.801943089995 0.0151826665569 0.00631013294378)
(0.784823769679 0.00456438410212 0.00470847941616)
(0.802984156538 0.0122746196647 0.00619762484213)
(0.803330220467 0.010687599745 0.00680364235519)
(0.785813342182 0.00645234597065 0.00549422085991)
(0.786448470075 0.00666459853016 0.00532301596379)
(0.80281371292 0.0129708814805 0.00681055511601)
(0.803485841925 0.010164326547 0.00629425681421)
(0.785736505169 0.00582394893328 0.00502018168868)
(0.802418188337 0.0167541345983 0.00690447265437)
(0.801158410455 0.0186244483144 0.00528914681356)
(0.784329463352 0.00770834039734 0.00441563405102)
(0.785211479855 0.00662736150108 0.00600155578243)
(0.801770593329 0.0195286128393 0.00536021323385)
(0.802093052607 0.0162675921835 0.00676892998796)
(0.785114601482 0.00760840257402 0.00634023185875)
(0.803019397932 0.017432547502 0.00682258561518)
(0.803891669181 0.0209423020961 0.00661443421542)
(0.784948942596 0.00842291893538 0.00488903144282)
(0.786740639915 0.00918365574183 0.00729675983761)
(0.802457398963 0.0202129637293 0.00551536618933)
(0.785648817615 0.00847779350593 0.00663850043776)
(0.804094433981 0.0177612842222 0.00763822225146)
(0.803034050135 0.0141542658938 0.00717170834897)
(0.803189572871 0.0111916726555 0.00701384599184)
(0.786024828846 0.0068701872424 0.0062308851197)
(0.786733167409 0.0085060190589 0.00560982543101)
(0.802808168838 0.013670471439 0.00718650755974)
(0.803425961366 0.0117051505156 0.00677320369082)
(0.786027026335 0.00766760885039 0.00628286583758)
(0.803530650188 0.0145078319457 0.00709306115182)
(0.804405814269 0.0122360801589 0.00709785078039)
(0.787441615174 0.00936484246217 0.00709127341767)
(0.787203443933 0.0091565729973 0.00578367656549)
(0.803833307656 0.0120779557899 0.00659409967822)
(0.786523544626 0.00848585716226 0.0065968425407)
(0.804313750458 0.0147938977545 0.00767627964597)
(0.804302324567 0.00752675831436 0.00493747451778)
(0.803712996181 0.00893209465204 0.00614379670606)
(0.787123685086 0.00930237421853 0.00544028050837)
(0.787237489619 0.00986094379222 0.00387966794407)
(0.803873780704 0.00950015034037 0.00617709583973)
(0.80414560486 0.00708218784405 0.00473020141911)
(0.787474133979 0.0103263026557 0.00403096635347)
(0.804648370199 0.0100675866159 0.00613156915569)
(0.787734033185 0.00974751546054 0.00544456762834)
(0.804116086997 0.00993804166438 0.00602902829625)
(0.814141310278 0.00195939791621 -0.000789388274731)
(0.815792180602 -0.000448731480688 -0.000564562901307)
(0.815476802076 -0.00269251153148 -0.00056518682434)
(0.812126641899 -0.00380396640603 -7.19733755014e-05)
(0.808131171184 -0.00419801837633 -0.000131801488419)
(0.814694283497 -0.0305894159896 -0.00013219052006)
(0.81444309444 0.00185299309479 -0.00203225591868)
(0.815986805928 -0.000155796858706 -0.00173508244418)
(0.815886171752 -0.0021803424402 -0.000990500511974)
(0.812463593728 -0.0035877447096 0.000649336145592)
(0.808107518922 -0.00423745055615 0.00154447267539)
(0.815029258806 -0.0313213264526 0.00212613925849)
(0.813986988032 0.00582208792808 -0.000470942179206)
(0.81212339083 0.00592795318717 -0.000669511750748)
(0.793422144691 0.00803575835505 0.00230523697548)
(0.79119835416 0.00740296729389 0.00347178551408)
(0.788890273783 0.00501444329942 0.00830463374321)
(0.785545250053 -0.000947684895837 0.0125405586291)
(0.788428514927 -0.00183813141232 0.012342407626)
(0.762158600917 -0.0220756835941 0.0163881749708)
(0.824561120957 0.00484751996348 0.000255284812817)
(0.822330198337 0.00234505726148 -1.89842019423e-05)
(0.820376012375 -0.00146860013697 -0.00144143207205)
(0.819309829692 -0.00856779630185 -0.00200426465563)
(0.818476733943 -0.0135250196348 0.000262589021688)
(0.812668987057 -0.0168507095907 0.00339836028535)
(0.808030424393 -0.012149731871 0.00364099568495)
(0.801616068897 -0.0487209982142 0.00567825480659)
(0.818308722903 0.00414295170107 -0.000644127792364)
(0.820467659407 0.00302731249702 -0.00114369311765)
(0.821177999339 0.000645514516874 -0.00170612992641)
(0.820235104028 -0.00432960868487 -0.00160982040116)
(0.818342254897 -0.00676376684873 -0.00028790815072)
(0.815415604581 -0.0092837053333 0.00104397232527)
(0.808662663682 -0.00778142625843 0.00187868653967)
(0.807439950607 -0.0407169955186 0.00277130409067)
(0.813897915341 0.00453827137371 -0.000228172845458)
(0.816686454667 0.00132991562738 -0.000720244171322)
(0.818530703273 -0.00116892340036 -0.00107016683222)
(0.817822108355 -0.00379170871815 -0.00103888672555)
(0.815765222815 -0.00586923098421 -0.000562504442812)
(0.813882028445 -0.00847510108252 0.000111985710732)
(0.808556055591 -0.00823938721174 0.000497265587603)
(0.811410389604 -0.0441838617675 0.00082230494039)
(0.814032026609 -0.00401373435795 -0.000384929401702)
(0.812918738143 -0.00538485655041 -0.000251926378566)
(0.80865939087 -0.00548651295994 -0.000216756144224)
(0.814316840404 -0.0354351976473 -0.000153605985818)
(0.636540664069 0.0413919514625 0.00974950831752)
(0.635696131652 0.0401059914453 0.0114573023533)
(0.651135035109 0.0227787122634 0.0161273521623)
(0.653145948936 0.0194334005803 0.0209310109112)
(0.665453568245 0.015125199379 0.0279380440423)
(0.679394079222 0.00162671293151 0.0291938916254)
(0.733064128073 -0.00170623190934 0.0207264911901)
(0.681711239794 -0.037339955141 0.0225617005622)
(0.771886923813 0.0129945796539 0.0073070670841)
(0.76888786228 0.0078609680955 0.00662508446307)
(0.778369610451 0.000482562150277 0.00909315644106)
(0.779109841232 -0.00439273598969 0.0126212683276)
(0.786381412428 -0.0143153942724 0.0168162136826)
(0.791391995396 -0.0202206728281 0.0154842843414)
(0.796684722717 -0.0172649919269 0.013127350631)
(0.787829860651 -0.0764555223615 0.0144189570978)
(0.81913946851 0.00418100997381 -4.34629136878e-05)
(0.819667327523 0.00355579169298 -0.00105466528938)
(0.820320513378 0.00268707599693 -0.00173373914948)
(0.820828497062 -0.000702230210627 -0.00136004910298)
(0.820279840038 -0.00536314078716 0.00103391862354)
(0.816969964793 -0.0106373405118 0.0019365461104)
(0.810813379947 -0.00972784688018 0.00405496185134)
(0.811544102694 -0.051010738028 0.00577368701373)
(0.814022898968 0.00488313864761 -0.00063114064239)
(0.816447592604 0.00129759931738 -0.001497559935)
(0.818152200046 -0.00147568696269 -0.00180810953311)
(0.818362105481 -0.00375006306514 -0.0013445117228)
(0.816654376842 -0.00587152389963 0.000670414521363)
(0.814884042766 -0.00808031482961 0.00143137819347)
(0.809296245017 -0.00835749716869 0.00280525743857)
(0.81305404684 -0.0472579370582 0.00384662429019)
(0.814323397544 -0.00382418377027 0.00015507027373)
(0.81317415427 -0.00562835843098 0.000737169526341)
(0.808687391402 -0.00609140740221 0.00173900871953)
(0.815363437573 -0.0384850384957 0.00248796115356)
(0.632475336296 -0.0154304188637 0.0185461033252)
(0.62683901061 -0.0163661069771 0.016337681467)
(0.638183520916 -0.0219691525678 0.0165590850116)
(0.643963984142 -0.0240742178914 0.0216780184429)
(0.65893859173 -0.0274887595314 0.025910541729)
(0.672195473623 -0.0319612221101 0.0149617297614)
(0.728676613328 -0.0204857867622 0.00672907881867)
(0.682870494459 -0.0619440415014 -0.00472128600973)
(0.732704647148 0.00433389577746 0.0224221303542)
(0.731350347626 -0.00165395023965 0.0195211758356)
(0.784639042184 -0.000623105273816 0.00293213064252)
(0.787288466317 -0.00528721107847 0.00550761956125)
(0.791966534946 -0.0147420721213 0.00932146754957)
(0.79317179857 -0.0194633217855 0.0068669674816)
(0.79750559671 -0.0168569944722 0.00398585477594)
(0.793723125875 -0.0800618826206 -1.24172393279e-05)
(0.818760811881 0.00295147238356 -7.69929693413e-05)
(0.818772755663 0.00219564558583 -0.00368812199927)
(0.820540206794 0.000227587281532 -0.00533852217845)
(0.823248315246 -0.00454530080503 -0.00288067819345)
(0.822214727009 -0.0100136843038 0.000811637271319)
(0.81836491684 -0.0143886550332 -0.000169556716024)
(0.812575133932 -0.0122218637451 -0.0024192773419)
(0.819235353636 -0.0588656245773 -0.00323189408095)
(0.80937721112 0.00790323280771 0.000119753652212)
(0.813287267478 0.00381367815069 -0.00137873454129)
(0.815854686863 0.000244662089819 -0.00348988214147)
(0.818937540238 -0.00101487807164 -0.00460893286357)
(0.820145626947 -0.00397668476606 -0.00259018019632)
(0.818278571675 -0.00664350150353 0.00021945307037)
(0.816241707362 -0.00929834155449 0.000394963742429)