/*--------------------------------*- C++ -*----------------------------------*\
| =========                 |                                                 |
| \\      /  F ield         | OpenFOAM: The Open Source CFD Toolbox           |
|  \\    /   O peration     | Version:  v1906                                 |
|   \\  /    A nd           | Web:      www.OpenFOAM.com                      |
|    \\/     M anipulation  |                                                 |
\*---------------------------------------------------------------------------*/
FoamFile
{
    version     2.0;
    format      ascii;
    class       surfaceScalarField;
    location    "4.15";
    object      alphaPhi0.water;
}
// * * * * * * * * * * * * * * * * * * * * * * * * * * * * * * * * * * * * * //

dimensions      [0 3 -1 0 0 0 0];
oriented        oriented;


internalField   nonuniform List<scalar> 
92311
(
0.201635771431
-0.000144422592608
0.000376356142267
-0.201612402817
-0.000254982267487
-0.000192348637456
0.201510423267
0.00103442743429
-0.000716424247081
0.201609587843
-0.000296086159484
0.000386736786351
-0.201581341705
-0.000262980941767
-0.000406937462067
0.201490043289
0.00105766914372
-0.000723137594249
0.201493743324
-0.000114533568632
-0.000116310991748
0.000369530511155
-0.201504081726
-0.000279743152877
-8.01858080908e-05
-6.43717379697e-05
-0.000148222269707
-0.000167210418058
-9.46964299479e-05
0.201311758332
0.00106960383122
-0.000798412944255
-8.58582307079e-05
0.0504010621006
-1.73542967461e-05
-2.7335757467e-05
-2.72081934764e-05
-2.16222191171e-05
8.56856999478e-06
-0.05038927832
-4.14157418469e-05
-0.0503949369834
0.0503493778325
-2.28779209504e-05
-2.6302501172e-05
-2.55425132139e-05
-2.49481007071e-05
0.000152487195865
-0.000155551855932
2.92547762891e-06
0.000763389359177
2.60751110048e-06
2.90306072897e-06
2.19921347175e-06
-1.9491500259e-05
-0.000811263868092
-2.36494487292e-07
9.61288532301e-05
0.000717184211776
0.000207610151525
2.3690552847e-07
-0.000727155103113
1.25620388881e-06
5.15299124057e-07
4.93629186208e-07
-1.21521057009e-07
-0.000161576308934
-4.77180862788e-08
-2.2749347079e-08
-5.48520143779e-08
2.81995382701e-09
3.60996344729e-09
2.75171189084e-08
-2.08764421324e-09
9.93618577982e-09
-2.5332758526e-05
-2.206549779e-05
-2.28786899789e-05
-2.20083283486e-05
7.88520521785e-05
-9.68387709434e-05
1.33425160572e-05
0.0117146434533
2.28238522128e-05
2.61043827988e-07
-0.0117300130726
0.0116554052805
-1.05063080249e-06
9.22598690709e-06
-0.0116739194529
1.78901551317e-05
-6.75644639621e-06
-0.00020748934097
-3.3845484075e-05
0.0503030986094
-3.49212427382e-05
-3.09825052638e-05
-3.15488417088e-05
0.000217781422719
-1.55652293622e-05
0.0502526685944
-1.81994487854e-05
-1.33093691897e-05
-1.52524572548e-05
-0.0502892521322
-0.000203445364338
-6.27627467061e-07
1.14807398408e-05
0.0116338532527
1.98170350699e-05
-1.07400853005e-05
-5.40261437183e-05
0.0125514480668
4.48013142233e-05
-1.8209778879e-05
-0.0125582598256
0.0125472718909
-5.18936623183e-05
-1.21218967827e-05
-0.0125535046132
-8.85274198508e-05
0.202147568698
-0.000491145933047
0.000391397763834
-0.201959101198
0.201436928979
-0.000243187580663
0.00129210551824
-0.000975175330543
-0.000268234271019
0.201386276567
0.00136099712016
-0.0010418284418
-0.000137328001254
0.202089023886
-0.000421765921713
0.000403185567582
-0.202021424726
0.201420894767
-0.000546198445162
0.00132930173011
-0.00095679703992
-0.000635726667621
0.201437251791
0.00140098836395
-0.00104939523001
-5.76690844796e-05
-6.04085819109e-05
-1.07056429755e-05
-0.000534196387476
0.202003397611
0.000431353312883
-0.201903812597
-5.28154229996e-06
-0.00023288596096
-0.000297276031291
-0.00016154107925
-0.000211391047484
0.201346343434
0.00137834096529
-0.00105582039237
0.0504989412662
4.50717763225e-06
-7.85669906373e-06
-1.37871592071e-05
1.08456840835e-05
-0.000295068641638
-0.0504817988289
0.000226456859419
0.0502700707901
-0.000255956641067
-5.01813689756e-05
-5.08840402681e-05
-5.83547819024e-05
-6.23450096582e-05
0.000277794103381
0.000240174028613
1.73625698733e-06
0.000662171500765
2.30560521626e-06
1.686750009e-06
4.1128206296e-06
2.68976131496e-06
-0.000211523082292
2.1577526425e-09
1.95434478275e-09
-4.85185476735e-09
-5.83666366266e-09
-4.07500631221e-09
-1.32776570343e-08
6.81594212866e-09
2.88170331568e-08
-3.83397462203e-08
-8.99189622421e-08
-2.07380964269e-07
-2.28223797563e-07
2.35190656893e-08
-1.33186051584e-08
4.45452926481e-08
0.000127384081041
-9.07391310339e-06
-2.55617858907e-05
-2.41655553692e-05
-1.99715229161e-05
0.0505315702793
-0.000141687096801
1.9995441958e-05
3.76154237849e-06
1.40291870828e-05
2.94800673465e-07
0.0504206806946
5.07453941938e-05
-0.0503928990979
-1.35521559278e-06
-8.0341284146e-07
0.0117266625233
-1.41122014128e-05
1.87477986314e-05
-0.0117288079576
-1.40602422641e-06
2.57498301323e-05
-0.0117278569356
-4.6055589972e-05
4.05439708365e-05
0.0117277163316
2.58998930481e-05
0.0125885147438
-2.47379569031e-05
1.50334078578e-05
-0.0125848753721
-0.00029498529211
-7.70906629603e-05
-9.67318339702e-05
-7.85113065205e-05
-9.16012030758e-05
0.0503000999236
0.000311626815295
0.0502326030195
-3.21257541864e-05
-4.08869937992e-05
-3.50803924724e-05
-3.99518071448e-05
-0.000249435591939
-6.37044974226e-05
-7.16211855305e-05
-6.09656299737e-05
-7.37332139804e-05
0.050275860912
-0.000279490037015
-5.82249005225e-05
4.89941746039e-05
-3.13173811335e-05
0.0125416337036
-8.66595049027e-06
0.000101792124243
-0.0113634309518
2.72289282845e-05
0.01129233721
-1.60214620372e-05
-5.47252116104e-05
-2.58437473275e-05
0.012537416755
-0.0125349739243
-5.46372483777e-05
0.0125286473451
6.22630770336e-05
-6.48381322089e-05
0.000731606855436
1.39038393541e-06
7.16983485635e-07
1.54136083824e-06
-5.61033698062e-05
0.000127983601336
-3.37677164901e-07
3.08503118971e-08
1.02811182526e-07
2.11005826906e-07
3.63030759122e-08
-6.03189865819e-06
0.000724973231853
0.000249696609407
-0.000733266833291
-1.81087757135e-07
2.80451915133e-07
-4.24463254618e-07
2.00294027445e-07
-6.0313482753e-07
2.50286929455e-07
1.55783379253e-08
-3.13432868651e-07
5.15722638988e-07
-5.76245692416e-06
-4.76636508715e-06
-0.000104646480975
0.000167584195564
9.48785220391e-08
-9.69655631341e-07
1.91855571003e-07
-2.10096872922e-06
0.0125964051909
-6.6203355037e-06
-0.0125915739882
-0.0125952193489
-1.63590073561e-05
3.98903329473e-06
0.0125948224144
-1.4419757479e-05
2.00776570992e-05
1.63604495934e-05
0.0116955012337
8.83779243457e-07
2.21461511624e-05
0.0116809529671
-0.0116991728792
3.91359710276e-05
-0.0125918638543
-1.02999275785e-05
0.0116681543776
3.33721136487e-05
0.0126001829374
-4.84174922131e-06
0.0125933040732
-1.214580563e-05
9.52298424994e-06
-2.11231746652e-05
-1.47406607252e-05
-0.0126003414051
0.0125972809559
4.91107441034e-06
1.67025823647e-05
1.23547263798e-05
-2.04025384982e-06
5.09068385339e-06
-0.0116579773812
0.0116450526798
2.68694973595e-05
0.0125887957052
-2.81329379341e-05
2.95532076077e-05
-1.56558491555e-07
-0.0125792921226
-1.88070510959e-06
2.86657327775e-05
0.0125705277286
-4.15320327289e-05
-2.05118988893e-05
0.0125896324945
1.30029900972e-05
2.01894423149e-05
1.10315938687e-05
0.0116099676232
-1.38458877561e-05
2.65427835923e-06
0.0116205166129
2.31943028777e-05
-3.43264885303e-05
0.0115935352664
2.30430145131e-05
0.0125796904697
2.41985732173e-05
-2.44564640989e-05
-0.0125662483611
0.0125575413279
4.26032614062e-05
2.08378275833e-05
-0.0115727398125
0.0115291928868
-1.12573924737e-05
-0.0115638861448
2.7096436677e-05
0.0115310791572
-8.32072038442e-06
3.70796296392e-05
-4.80470482651e-05
2.03479461633e-05
1.52546195125e-05
-1.19658411492e-05
2.62276801284e-05
3.35534208712e-05
-1.43891896419e-05
-0.0125491691072
0.0125444412933
-5.15446509688e-05
3.13677073495e-05
-0.011565427359
0.0115388390568
-0.0115751140289
0.0115466250918
3.35951674424e-05
-4.68498165535e-05
-3.9424025995e-06
-0.0125645859398
8.17921541247e-06
-2.842904634e-05
-0.011593315408
2.92768121408e-05
-0.0125567040368
-4.68897792567e-05
-0.0115891912783
-1.40267073448e-07
4.44702409826e-05
1.67567016654e-07
1.39938897899e-06
1.47230579803e-06
6.97561861684e-07
0.00082034178091
-0.000852438244716
2.15396323836e-05
-7.90942687104e-08
3.37889077371e-07
8.39630116381e-08
-2.6361520583e-07
0.000773011149106
-1.66634621775e-07
1.36092666708e-06
1.29332874694e-07
8.21884191734e-07
0.000102936433253
-6.36569834448e-05
-0.000758219739191
-5.24864291396e-08
1.34549568294e-06
1.88024006824e-06
9.94626203018e-07
0.000772345621428
6.02849786195e-05
1.62706528398e-07
-1.64234575167e-07
-2.1017240674e-07
1.03043413706e-07
-5.35787516634e-08
9.97062738335e-08
1.67721937023e-06
0.000657944285785
6.78184494555e-07
4.68224249179e-07
8.21724587531e-07
1.70058894863e-06
0.000274304648792
-4.52519466894e-07
4.37149104917e-07
7.12364184962e-07
-5.28701039178e-10
-5.48556726604e-08
3.64165297277e-06
-0.000256976333602
2.55136508693e-06
4.60500895506e-06
5.76831853018e-06
4.06689718745e-06
0.000500996770329
0.00029783224008
-7.94799006118e-07
6.43327682875e-07
1.26691447178e-06
3.53574892837e-06
5.71821806092e-06
6.37699018461e-06
4.90091051783e-06
0.000529907024403
-0.000230002728487
-4.76818920166e-07
-1.34209611798e-07
-5.86352276649e-05
-0.0126062586502
1.74432568311e-05
0.0126055902166
4.6306227026e-05
0.0126265675876
7.81454817338e-05
-8.67282138305e-05
-0.0126270075003
4.82533117613e-06
-2.78170607195e-05
0.0117266565151
2.77430779061e-05
-2.88522336497e-05
0.0117449839847
-0.0117329075922
-4.00767078795e-06
0.0126244585275
-6.56616244542e-05
-0.0126079847266
6.15330614968e-05
0.0117496823085
-1.55549792725e-05
-4.16026045325e-05
0.0126062943423
-4.36098858952e-07
3.22193818145e-05
-0.012623167281
2.53311996312e-05
-2.7220606926e-05
0.012625377208
1.92047106345e-05
-3.82945446055e-05
3.45816628698e-05
2.04930464073e-05
-0.0117481063486
-4.02918609441e-05
0.0117482132417
-4.52608814979e-05
2.17477579909e-05
0.0126104514684
-2.91317482161e-05
0.0117597141744
7.70302482182e-06
1.17884446624e-05
-0.0117554347199
-6.33756869747e-06
1.95464302676e-05
0.0117507598171
3.1809213963e-06
-1.61440380355e-05
0.0125921627222
9.86476208471e-06
0.0125963537504
1.85799898427e-05
-0.0125934861787
-2.77004878365e-06
-0.0117576040068
0.011756894736
0.0125995831889
-0.0117564083784
-4.1242023743e-05
0.0125475333444
4.91927696789e-05
2.25082946501e-05
0.0114799224269
-1.09226183621e-05
0.0114910198994
3.11353251124e-05
5.52882229844e-05
-5.19260396511e-05
0.0125427639378
-6.27051245104e-05
6.18937573506e-05
2.47728951802e-05
0.011422043476
-1.15109998772e-05
0.0125469430281
5.5650371269e-05
0.0114403072572
3.28430630046e-05
5.98690570996e-05
0.0125410198479
-6.75016457979e-05
-6.73115690084e-05
-0.012545805806
-6.73918542541e-05
0.0125537532991
6.49913537662e-05
7.56005138557e-05
2.42235224895e-05
-1.43924783515e-05
9.29073455311e-05
-0.0113912167085
3.03110102643e-05
0.0113306820462
5.85026960479e-05
-7.51019506835e-05
0.0125505826043
3.07878177443e-05
-0.0125360897215
-3.85798089826e-05
5.88159240058e-05
-5.99941707157e-05
-2.6461900697e-05
-5.52139153283e-05
3.51533288064e-05
0.0115029433878
0.0115103192188
3.75467013798e-05
-3.85091542474e-05
0.0114668609736
4.02406090987e-05
-4.29457769734e-05
0.0125366501809
0.0114576364176
0.0114185186722
-3.55790316607e-05
3.62020472247e-05
8.13144560178e-05
-3.42879797824e-05
0.0113649133872
3.56816925593e-05
7.09327238753e-05
0.0125379734409
-7.00305919702e-05
0.0125347294734
-6.37932059386e-05
8.58275721158e-05
-0.0114100668459
0.0113524419369
0.0125430874702
-0.000346270759219
-0.000256781166063
-0.000309203192624
0.00144324199032
0.201708957357
-0.000389531856705
-0.0011395267704
-0.000317848686729
-0.000115644577626
-0.000105780616516
-0.000124097515013
-0.000101014124412
0.000332697254661
0.05038551743
1.05232397284e-05
0.000254509522385
4.61138399367e-06
1.23383112215e-05
7.80384161905e-06
1.03931909126e-05
-0.000226931454423
0.000341217445827
-2.74395190482e-08
-5.50901141904e-08
-3.27019813545e-08
6.84744678554e-08
1.76277948608e-07
4.28920324159e-09
8.86519432517e-08
-2.12384844921e-05
-9.23624867334e-06
-1.45825298701e-05
-1.39773601565e-05
6.82584474097e-05
-1.72121864617e-05
0.0504372291389
-2.38281996426e-06
8.88735799967e-06
2.80661670683e-05
0.0117341008305
0.0503776157576
-0.000102736013265
-8.54238104594e-05
-8.50943119656e-05
-0.000104049632932
-0.000298860931164
0.0504787570232
-0.000104064634254
-0.000116626578146
-0.000115419702464
-0.000104775672309
0.000327745601869
-0.000296972316769
0.000113002588669
0.0112307677039
2.37032201423e-05
-1.74274872988e-05
-8.07843339658e-06
0.00010089588305
-2.23832742459e-05
0.0113151366891
2.638616553e-05
0.0110997392956
-1.6017787831e-05
0.000150723903599
-1.45422857032e-05
-0.011176914882
2.43853109653e-05
0.0505467914261
-9.29793659148e-05
-0.000101797911697
-9.97950121824e-05
-9.20074580592e-05
0.000276379198077
0.000325752405004
-0.000283446093588
-7.2626684658e-05
-4.87524910785e-05
-5.03190838641e-05
-6.98508810065e-05
0.000199723403405
0.000325922699694
0.0505407186048
-0.000277995096602
-1.48118524106e-05
0.000140456285089
-1.7804087062e-05
0.0110300858745
2.5542711161e-05
-6.61879194303e-06
4.40144536403e-05
-1.74132877761e-05
-0.0109043999505
0.0108877428462
2.92661732894e-05
2.20608884445e-06
3.69068368759e-06
2.80743050919e-06
2.6072362483e-05
0.000775716661072
-3.02754688048e-10
0.000277597962296
4.91108132691e-06
7.42599914766e-06
1.11768712915e-05
1.11052136352e-05
0.000295706139573
5.29718951604e-06
3.29503789543e-05
1.53269546863e-05
1.37110532504e-05
1.30915785257e-05
-0.000244857736632
0.000283256767356
4.06431770225e-07
7.70474949869e-07
-3.75927309507e-07
1.08500073696e-06
1.64249340114e-06
1.81759704453e-07
1.1425421599e-06
1.79523082504e-06
-0.000171344515404
1.50395033768e-05
1.40607724162e-05
1.49961531589e-05
-0.000265328730774
4.39066573661e-06
0.000293613398732
7.55808535511e-06
1.03998141856e-05
1.20095129434e-05
-0.000293052970935
1.66415165659e-06
-0.000253802340512
0.000296511403979
-0.0126026257506
-3.03299353302e-05
4.32168356895e-06
-8.58056661681e-07
0.0126084970988
-9.90497480619e-06
0.0125952235259
1.57876899728e-05
0.0117470638966
5.01581981205e-05
3.16831403868e-05
2.08498512428e-05
0.0117141692438
-1.12187404059e-05
5.40692918427e-05
0.0117283137021
0.0126020457873
8.06978294538e-05
-0.0125609020006
-0.000124577152854
-8.74952917275e-05
0.0125772894311
0.0125666812958
-7.31571165692e-05
6.80831486155e-05
0.000131100294044
2.12170579249e-05
-1.86913164846e-05
0.0111625528243
0.000101681357182
0.0112713136986
2.16407968487e-05
7.2717972769e-05
0.0125824465715
-8.2219257756e-05
1.96059109854e-05
0.011198761382
-0.0125528602829
-0.000126758735056
-8.16646024795e-05
0.0125716735565
7.84681921345e-05
0.0125496805165
-7.38174994241e-05
9.81896389951e-05
0.0112937883959
-2.2786639876e-05
0.000132795043288
0.0112483600933
2.67355351013e-05
0.0112199268876
0.0125720179838
-7.42537371646e-05
0.0125950541908
-0.000134488621409
-8.41322500801e-05
9.20839650651e-05
8.15053894106e-05
-0.012599420547
0.0126218565454
-6.86165317538e-05
0.000146818932363
-0.01115072367
0.0110746668229
-8.74327290313e-06
-1.66845441646e-05
0.000141114048062
2.40451486072e-05
0.0126164544168
9.26365177258e-05
-1.32586754257e-05
-7.4133385382e-05
-0.0126413683976
-0.000123714538376
-7.40263839742e-05
0.0126563028567
9.08419579562e-05
7.86643670935e-05
0.0126477688188
-6.48333105196e-05
0.000137022509752
0.0110061099412
-1.05467937648e-05
-1.49757339311e-05
0.00011963051447
0.0109604813778
2.57467477044e-05
9.22730568299e-05
0.0109456980349
-4.50835893429e-06
0.0126617883286
-5.96891830229e-05
0.0126608542973
-9.55316393837e-05
-6.60054020666e-05
8.50952157871e-05
6.52672430576e-05
-0.0126633940439
0.0126448697146
-5.09763017737e-05
4.94669847342e-05
-0.0108969861607
-5.3420425738e-06
0.0108679679474
-1.89602119146e-05
8.4525673909e-05
3.02126717388e-05
8.10497899611e-05
0.0126446679462
-8.13548989919e-06
-5.24295979838e-05
-0.000471839932185
-0.0490401662526
0.0490052882639
0.000583993453824
-2.29545167926e-05
4.66772112073e-06
-1.69346144855e-05
-4.43431025909e-06
-3.7458112145e-05
-0.000648277002612
0.0495032122531
-4.60279510925e-05
-2.70468449725e-05
-4.97491585597e-05
-2.60041476096e-05
9.79900622982e-05
-0.0494362173219
0.000632122995532
-0.000986747264619
-0.0496721085725
0.0499448312619
0.000866070877111
-7.65442806739e-05
-8.058998341e-05
-7.52774393795e-05
-8.56913787768e-05
0.000166064659232
-0.000776388207969
-4.81388158177e-05
-5.68385723398e-05
-5.21678026085e-05
-5.72041858764e-05
0.00014730297991
0.0500414724321
0.000694768986106
-0.0498927846133
1.08799236199e-06
-0.000198303290862
-0.000962297770846
0.000862098934351
0.000185270338216
2.87999597584e-06
2.23547518119e-06
1.35521258978e-06
3.04304271266e-06
-3.65121054343e-06
-0.000739767262325
0.000628686908029
0.00019853066549
2.61549657668e-06
4.43601900872e-07
3.41022500472e-06
6.29996600737e-07
-0.000187772819136
1.39379703863e-06
-0.000113797568881
0.000810991196137
3.67015419956e-06
3.37085317637e-06
8.21349797989e-07
2.37262661927e-06
-0.000877600325812
1.27978173796e-05
6.68015720892e-06
-0.000126503933514
-0.000718864876463
0.000645770283992
-2.24393138791e-05
5.09213039854e-06
8.01575207193e-06
9.21121418754e-06
7.87985101353e-06
2.32948691789e-06
0.00016936811826
3.98497120837e-06
4.10482493837e-06
2.04122139975e-06
0.000627056626736
-0.000261755704155
3.29368599008e-06
-0.000677213627272
7.47282551875e-07
-1.59576899043e-07
6.38099257753e-08
-2.68643664297e-07
-1.36955519351e-07
-4.04164938876e-07
2.84201632625e-08
-1.90833273551e-27
-4.40311901913e-07
-1.06938493123e-06
-5.82655443667e-07
-1.16629275438e-06
-5.34250736314e-07
2.49533491566e-07
-9.43949654797e-09
5.26495810186e-07
-1.31016026735e-08
-1.35047276903e-07
-2.62411491158e-07
-1.78239159555e-07
-3.86458582885e-07
-7.12004013884e-09
-4.95028139395e-08
-8.47698230398e-07
-4.70899556101e-07
-9.93421212028e-07
-7.25381189601e-07
2.74591979407e-07
3.14511656158e-07
-1.21062527614e-07
-4.27391852517e-07
-3.36904263331e-07
-4.7047442062e-10
2.75034679693e-08
-8.46139829134e-08
-1.13943870384e-06
-9.29417417102e-07
-8.79565930674e-07
-8.40263341161e-07
5.21536099891e-07
2.31615757274e-07
0.00013064816314
6.76259347167e-05
6.76800273098e-05
6.55831520213e-05
7.25080519037e-05
0.0487646990479
-0.000113992927762
-6.67444807287e-06
-0.0490481448447
0.0488098061292
0.000282914740143
6.57401373524e-05
4.69549459878e-05
6.1082782683e-05
5.75556328848e-05
-0.000112578659897
-0.0490808769534
6.6202992645e-05
-8.6334407116e-05
-0.011832177368
1.94472572977e-05
0.0118291204327
5.54647385307e-06
0.0118338438089
7.53789351754e-05
3.00553313124e-05
-3.78800079583e-05
-5.92684348399e-05
-0.0118314021307
3.43659168781e-05
3.7484592263e-05
5.73785172477e-05
9.87694850497e-06
-0.000233245876269
0.0121927198105
0.0121576237768
0.0120847433527
0.0121521591346
-0.000155175194082
8.45226997182e-05
-3.68041411198e-07
-1.55289762045e-05
-6.43604337117e-05
0.011837542215
0.000400157987435
2.91629757201e-05
1.97009921101e-05
3.9102132303e-05
6.09440482065e-06
-7.86181039546e-05
-0.0491728946646
0.0492386281262
1.36050742092e-05
-9.30242390626e-06
-6.06424011667e-06
5.90980584538e-06
-4.70285702842e-05
-0.0493001211371
0.000504550507676
0.0118450262513
7.16082407643e-06
-1.09875550887e-05
-0.0118433100901
8.62416749037e-05
0.0118764349422
-6.57072754947e-07
2.72985865639e-05
-9.17258051946e-05
-0.0118888289329
8.93966351034e-05
0.000855319736989
-8.35057004304e-06
-2.55158913766e-06
-2.74090497319e-06
-1.43782430941e-05
0.0490495798802
-0.00019041257203
-0.000157115572007
-0.000193021350868
-0.000156142981881
-5.32707105538e-05
-3.96714025617e-05
-4.60376150547e-05
-3.59637899069e-05
0.0492504159471
-3.90424826886e-05
-2.02465032867e-05
-1.7089411464e-05
-4.10997641394e-05
4.15191109265e-05
0.049474046673
0.000799976496103
-4.12199155928e-05
-5.80519037844e-05
-5.50043455474e-05
-4.56501707127e-05
3.1648532452e-05
7.34690561449e-06
0.0118310061953
9.50341243962e-05
0.0117226546816
-1.94657121942e-06
2.16465784601e-05
-0.0117675688258
0.000117331506653
-0.000114160605235
9.7222952139e-05
-2.01097445465e-06
4.0862437655e-05
-9.97127178163e-05
0.0118562930158
0.0117315832829
0.000112121448529
-7.21009666194e-06
9.82281591836e-05
-0.000115162025916
-0.011784681276
0.0497580461798
-3.04062547331e-05
-5.10388120885e-05
-4.27710718792e-05
-4.15092961591e-05
-0.00109002689137
-1.48443058784e-05
0.00113667166824
-1.65180582606e-05
-1.10818706214e-05
-3.35699231175e-05
2.84715210637e-06
0.0503070856914
-0.000158050621481
-0.00146948614615
4.63869368183e-06
0.0116839236277
0.000125331118998
-0.000135144193064
3.0147322257e-05
-5.53766712515e-05
-0.0116971206118
0.000175460075303
0.011703277937
-0.000188079662745
0.000117218455542
-4.91883494843e-06
7.8354090095e-05
-0.000131064373902
0.0116747521832
0.00013815265054
-2.71333274697e-06
3.0436820698e-05
-0.000152358219915
-0.0117057116677
0.0117141057654
0.000753316002309
-5.94103227586e-05
-7.97687082246e-05
-6.13462741458e-05
-7.86498671166e-05
0.000157105893936
0.0498074099729
-5.58877476708e-05
-7.32664222671e-05
-7.44692106209e-05
-5.78057400376e-05
0.000166720090224
-0.0496487079602
0.000689344649925
3.68817089489e-05
0.0118886556574
9.07256854049e-05
-0.0118991319335
0.0117605433615
-8.00961378195e-06
0.000115078161025
-0.011818225091
0.000106195954452
0.0118015956507
-6.31809957066e-06
9.9954485875e-05
-9.17368845209e-05
-0.0118483600177
8.13157937193e-05
0.000962299665596
-6.43460515238e-05
-4.49402732796e-05
-6.63341316511e-05
-4.8503208462e-05
0.0502352989171
0.000108069626019
0.0500079730673
-7.11083668825e-05
-7.3591233045e-05
-7.77987362852e-05
-6.595081071e-05
0.000177700968398
-6.22560257765e-05
-4.8665416383e-05
-6.42546633745e-05
-4.91621756853e-05
0.0502080182012
0.000815787676094
0.000170846394437
0.000101492801035
0.0116961298941
0.000105811113773
-3.71470717163e-06
4.70284393892e-05
-0.0117118163401
0.000123908527951
0.0117175801269
8.67052733636e-05
-3.81652989668e-06
8.34241224176e-05
-0.000107143701981
0.0117409209838
9.02895905636e-05
-3.34473706709e-06
4.9661995828e-05
-0.000102037707078
-0.0117364478127
0.0117441861764
6.51620523213e-05
0.0117627255235
6.60757384788e-05
-0.0118096054361
4.36309027211e-05
-0.0117566842057
0.0117655262362
-2.61779511023e-06
7.52966084135e-05
0.000111665224618
-7.13130591724e-05
-7.31917266736e-05
-6.79746229466e-05
0.0010446678363
1.05300140712e-05
-0.000987396475835
-2.18011011664e-07
0.00104265332323
0.000201295722962
-5.79189478965e-05
-5.9364942064e-05
-6.20696671054e-05
-0.00102597791564
-2.89467458434e-07
2.10526842256e-06
-1.48008098145e-05
2.12730958071e-06
3.61372352033e-07
-0.000163956239291
0.000908534978514
1.1777132701e-06
6.1157893225e-08
7.44548744935e-08
-4.64524476794e-08
-2.25547601278e-07
7.33887388167e-09
4.17184520347e-06
-2.92933325247e-06
-2.02012237088e-07
2.95648202266e-06
-1.39412317571e-09
-8.47291673766e-07
5.02816238746e-06
-8.69784532569e-08
-3.35683222131e-06
3.97894139203e-06
1.3770171535e-08
-2.13638794337e-06
-2.38366143411e-07
5.987848614e-08
1.92810786851e-06
8.71819301258e-07
-2.45306555758e-07
4.12143300118e-06
-2.2778830811e-07
-1.9878547217e-06
-4.14677412925e-08
1.61468800263e-06
9.97746873745e-07
0.000186610350148
-4.51327437654e-05
1.08520237288e-07
-2.22735419293e-05
9.32772494829e-07
-0.00098975370784
0.000909436549988
5.57474000281e-07
-1.10760453709e-05
-1.21348775262e-05
-0.000923491223713
1.86115367623e-06
0.000112111223476
0.000200605460501
3.48577186236e-06
3.21647271917e-06
3.56491566661e-06
3.37059817469e-06
-0.000193363993658
0.000835112459768
3.6875566314e-06
2.29243591275e-06
3.62941346567e-06
4.15556302056e-06
4.58682707097e-06
0.000728237407533
0.000132512221543
5.83423205164e-06
5.9661535935e-06
5.28570416678e-06
3.17254879973e-06
1.34985176107e-07
-1.5453505424e-06
2.59772661801e-07
4.78186048874e-06
2.58327960318e-06
1.3998457319e-07
-1.05459522053e-06
4.57773325044e-06
3.47605947018e-07
0.00019361501856
7.64639243837e-07
-2.24279185359e-05
2.96174760103e-07
-1.3985258161e-05
0.000601749147266
-0.000197994456074
0.000642426344111
3.74719230113e-06
6.26169748681e-06
5.93276024547e-06
3.02706562623e-06
2.6213445527e-06
7.98465045609e-05
1.81878712996e-06
5.67903510486e-06
-2.05995503972e-06
0.000628892355184
4.0055189047e-06
3.07689123858e-07
4.74851269074e-07
1.99601441285e-06
4.16470259041e-06
5.92765585772e-07
8.32681245145e-07
2.58773714323e-06
-2.21234049575e-06
5.56048784641e-06
6.50181585626e-06
7.2175011067e-06
5.32132155974e-06
5.25979353792e-06
0.000697043870364
6.93524300009e-06
5.57612742196e-06
4.92915758129e-06
-0.000782284465469
-0.000134370788466
1.64543442507e-06
-4.53570644109e-07
6.26219031169e-08
1.89036428782e-07
4.0230699482e-06
3.81935255789e-06
-1.42068675696e-06
-7.21664542298e-08
-7.94584378536e-05
3.58996191358e-06
7.90784549376e-06
5.33686546231e-06
2.43333779518e-06
0.000629077063208
0.000634952216251
4.8300361365e-06
8.62405359006e-06
5.42777394732e-06
7.04769699177e-06
3.33414168914e-06
4.82364291888e-06
6.40396304761e-06
2.07234451409e-06
0.000602701547314
-0.000209297455325
4.52118824435e-06
3.95231195264e-07
6.86735520795e-07
3.49837530088e-06
5.08185968044e-06
-8.43625718776e-08
5.0187971753e-06
-3.42825915641e-08
0.0122330508272
9.11406105825e-05
-1.31569155353e-05
2.16887116587e-05
-0.0122651463193
1.20570377013e-05
-0.012235925979
0.0122038903691
1.277608051e-06
1.32680823168e-05
-9.6437972534e-05
9.70587253196e-06
-0.0118307895325
-8.1290678816e-05
-0.0118314948004
3.92396368346e-05
0.0118221242716
2.75137221478e-05
0.0122018506855
3.43809681544e-05
-0.0118279441971
-4.08709195817e-06
-0.0122689581772
0.0122340975928
3.38169494641e-05
8.5529874958e-05
-0.0122660493622
-4.48174537039e-05
-0.0122427523053
0.0122321402464
6.45772241139e-05
-6.58961951324e-05
-0.0118299907886
0.011823893408
-7.03880983639e-05
-5.72477661962e-05
7.25287916431e-05
-0.011833023998
0.0122120334287
5.01643491765e-05
-0.0122719434332
-0.0118254063584
-0.0122044367043
8.39186615945e-05
9.52499280354e-06
-5.18514911779e-05
0.012197383521
-5.64908383945e-05
0.012226826574
8.39424809788e-05
-4.1651729309e-05
0.0118327013316
-3.9310261497e-05
2.35533952809e-05
-7.69350373195e-05
9.47978635375e-05
0.0118096966447
-3.29107179361e-05
0.000115369040963
0.0122290999327
-5.21387814056e-05
0.0118204844816
-6.15033172507e-05
0.0122792947431
2.49649890117e-05
7.85840087331e-05
-0.0122920242513
-0.0122608092902
7.70448426323e-05
0.0122571956103
-4.75343891843e-05
8.08503787706e-05
-0.011843455244
7.88821260537e-06
-0.011862579769
9.06229667415e-05
0.0118577059674
-0.0122804014594
9.29164839728e-05
0.0122776584478
8.6405886889e-05
-0.0118522229747
0.0122988942732
9.50147854288e-05
9.3672472654e-06
-0.0123109113394
-0.000110321965426
-0.0123162673772
0.0123172253131
0.000127552748663
2.29154490503e-05
-0.0118787832895
0.011868291171
-1.45555955717e-06
-8.66772025822e-05
-0.0118885303613
8.28399174045e-05
0.0122986445351
-0.0123290320947
0.000112417155037
-0.0118702956448
-0.000127751656039
-0.0122800635338
-5.25239852614e-05
0.0122983587023
0.000138582639565
0.0122556404828
9.7624440095e-05
4.17594880377e-05
0.000101173391659
0.0117936734011
2.42781482791e-05
0.0118422880137
9.74095251955e-05
0.0122682777942
0.000115061859442
0.0117930721366
0.000103332486892
-0.000150588078723
0.0123232863089
-4.39390037107e-05
0.000161092088291
-0.0122919920699
0.000184509991063
0.0123104757848
-0.000184524458781
3.72144200453e-05
0.00010944093925
-0.000102550087127
4.77608330142e-05
-0.0117401506457
0.000118024339135
0.0117122541951
-0.000140056090073
0.000191796176725
0.0123497014008
0.000109224066471
-0.0123050633188
0.00014896865783
-7.13131418185e-05
0.0123268253815
-0.000131246878096
0.0123231072032
0.000146202787326
3.9693434221e-05
0.0118491384266
7.70240266814e-05
-0.000107457223854
0.0118164463812
0.000103184861778
0.0123454437313
0.000162552018186
0.011797824497
0.0123525394653
0.000164952694298
-7.11239444645e-05
-0.00018869663397
-0.0123756054619
0.0124098596191
0.000194923894752
8.29630325575e-05
-0.0117421014979
0.0117096346886
8.87441117618e-05
-0.00010963011945
0.000107761432896
0.0123839028146
0.000177896337124
-0.000254621847033
-0.0123818918439
6.2520317283e-07
0.0124081991606
0.000256246224466
-2.94407412879e-05
0.0123389461849
0.000217234263043
-1.90413018884e-05
-0.00022217156746
-1.13281685062e-05
0.000148260697364
0.0116967037776
-0.000151842764748
3.43957080571e-05
0.0117121276789
0.000124817334704
0.0123741054242
-3.87513047958e-05
-0.000263125520722
0.00022177103635
-2.55529725448e-06
0.0116915637894
0.000139368044729
-0.000284792867033
8.63595297497e-06
0.0124616565319
0.000287170077002
-6.53380239768e-05
-0.0124379758735
0.000302002613506
0.0125150183858
-0.000322928572566
-0.000111327465838
-3.52796106891e-05
0.000168180584648
-0.000170941413823
-0.0116744932889
-2.10185655084e-05
0.000171185882811
0.0117076309707
-0.00029732378271
-8.71690305221e-05
0.000156239717295
0.000307315412716
0.0125228849281
-8.75204742737e-05
-0.0124173934283
0.000232201896768
-3.2889865008e-05
0.0124434436562
-0.000213390513286
0.012439024402
0.000212142975457
6.78633422077e-05
0.0117023314783
6.56061937752e-05
-0.000128579786499
0.0116839551043
0.000123469045161
0.0124660616435
0.000229319088852
0.0116799860796
0.000254742134184
-2.00419748903e-05
0.0124788012288
-0.0125004855121
-0.000277077924767
0.000262841920321
0.0125344556229
-0.0116612242359
1.65764504418e-05
0.0116920653698
6.22055058101e-05
-0.000132716430458
0.000130512055965
0.000248899161153
0.0125284148775
-0.00016755138699
-0.0123589135967
-6.72806523529e-05
0.0123790847535
0.000168701723953
0.0123420461235
0.00015220602616
-0.0123381428002
7.68608416244e-05
9.82344783698e-05
0.0118537293334
3.24453519889e-05
0.0119032058013
-0.011910091278
8.15299194127e-05
0.0123643139164
-0.012354742632
0.000154476265922
0.0118707971766
8.69020883055e-05
-0.000182702920392
0.0124064875553
-8.66980843587e-05
0.000182729825842
-0.0123939736827
0.000194258944918
0.0124302142366
9.57403910059e-05
0.00010510073434