/*--------------------------------*- C++ -*----------------------------------*\
| =========                 |                                                 |
| \\      /  F ield         | OpenFOAM: The Open Source CFD Toolbox           |
|  \\    /   O peration     | Version:  v1906                                 |
|   \\  /    A nd           | Web:      www.OpenFOAM.com                      |
|    \\/     M anipulation  |                                                 |
\*---------------------------------------------------------------------------*/
FoamFile
{
    version     2.0;
    format      ascii;
    class       surfaceScalarField;
    location    "10.4";
    object      phi;
}
// * * * * * * * * * * * * * * * * * * * * * * * * * * * * * * * * * * * * * //

dimensions      [0 3 -1 0 0 0 0];
oriented        oriented;


internalField   nonuniform List<scalar> 
92311
(
0.203911186618
-0.000136784720222
-0.00108458633647
-0.203651803273
0.000961988073586
-0.000169289701767
0.204087764678
-0.000743933420963
0.000736656031559
0.203920740215
-0.000286289424073
-0.00112171242524
-0.203661917237
0.00101241568829
-0.000379122823941
0.204149502847
-0.000688428980949
0.000669598908062
0.20392264254
-0.000152983631055
-0.000244703719255
-0.000968946713807
-0.203414576894
0.000990682510574
-0.000152034091343
-0.000266364496771
-0.000239344981103
-0.00019091299619
-0.00025072505569
0.204365302602
-0.000464121458916
0.000589788645882
-0.000266411792103
0.0510864082708
-5.57793190612e-05
-7.31503997422e-05
-5.54559655149e-05
-6.97370572603e-05
-0.000256882811964
-0.0509986190445
0.000270278987023
-0.0511766530072
0.0512552568481
-8.14952046298e-05
-8.30571750516e-05
-8.54814353317e-05
-7.32022972288e-05
-0.000132206616568
0.000137524539808
2.85565415465e-05
0.00038412327862
3.89895934211e-05
3.45415806479e-05
5.0725751816e-05
-0.00317705611684
-0.0025192530462
0.00172664204433
0.00343269737186
-0.0153721548428
0.00556118869274
0.000870634230312
0.0110275326322
3.05262061305e-05
5.75750054757e-05
3.77100070262e-05
6.42196575398e-05
-0.00227719766161
-0.0404824664429
0.00282344538939
0.00371584524169
0.00459205863087
-0.031822520507
0.0733137256023
0.0667479564707
0.0017048058309
-8.20984832143e-05
-8.91531239589e-05
-9.60460603844e-05
-7.8404979516e-05
-0.00016430556892
0.000175098715289
5.64064888788e-05
0.0117806890654
-8.75465985938e-05
6.75582681522e-05
-0.0117885826536
0.0117776318182
-8.69348333778e-05
9.90393080943e-05
-0.011772872871
-5.88987890269e-05
4.20426593387e-05
8.99091127581e-05
-5.47955341103e-05
0.0512903225685
-4.40158771434e-05
-6.65122815528e-05
-5.85683634433e-05
-9.19384974334e-05
-6.40972380622e-05
0.0512562629296
-7.67496575156e-05
-8.4645124228e-05
-9.18632144335e-05
-0.0512106968678
0.000110991090249
-8.69124211878e-05
8.98092914041e-05
0.0117856131201
-4.51026982305e-05
3.423570233e-05
7.62274197873e-07
0.0128259067461
-1.70844105971e-06
-4.85525437849e-05
-0.0128312025112
0.0128251550283
1.59040069397e-07
-5.63990238169e-05
-0.0128321833399
-0.000104241559568
0.204125212835
-0.00187676530975
0.00166037229148
-0.203804578167
0.204171144771
-7.83563648803e-05
-0.00026295614075
0.000258186310579
-7.39429440225e-05
0.204302785248
-0.000115047469759
5.76790968664e-05
-0.000121442142538
0.204130225314
-0.00187165062698
0.00164580758629
-0.203887161203
0.20431911097
-0.000194664767675
-0.000367960083418
0.000314882053182
-9.34710114865e-05
0.204434965907
-0.000142662229389
4.66362971829e-05
-8.36209795338e-05
-6.3479597648e-05
-6.29179277956e-05
-0.00170256430495
0.204009532537
0.00154039829918
-0.20368271074
-7.60583360037e-05
-0.000113068333552
-9.75507447544e-05
-0.000151149131765
-0.000110703929744
0.204569276115
-0.000133092309801
0.000206829810645
0.0511058425562
-3.59878308393e-05
-2.77762896218e-05
-3.58810174838e-05
-2.89538229234e-05
-0.000437941319254
-0.0510415000518
0.00041859639686
0.0513007019952
5.87267818033e-05
-4.58549664308e-05
-3.62904835171e-05
-3.41036660146e-05
-2.63555735607e-05
-3.95376386413e-05
0.004589336994
0.000548814027542
-0.0169840829611
2.61840725929e-05
4.65466770911e-05
2.38497633167e-05
3.79334949746e-05
-0.00366055787783
0.0049094685086
0.00723595190342
0.00665132968017
-0.0365367810753
0.0154251379959
0.0707517708514
0.0171555466598
0.00508061516065
0.00279043949679
0.00211756336761
0.00308264266304
0.00234847333551
-0.0147787651099
0.0330700085284
-0.0071850094788
0.000336313361023
-3.04927396689e-05
-2.82237554458e-05
-2.8149068822e-05
-2.93858612195e-05
0.051186209712
-0.000363877320578
-3.21149805126e-05
-3.44955490654e-05
-3.06945060264e-05
-3.17127211025e-05
0.0510914854138
0.000323408735995
-0.0510125042367
1.82898074381e-05
4.12022951261e-05
0.0118396079046
2.95724333356e-05
-7.45334610423e-05
-0.0118541299366
3.54447282487e-05
3.97681426068e-05
-0.0117907134409
2.4876347515e-05
-7.07398971708e-05
0.0117613631203
-4.54273291877e-05
0.0127588180319
-7.91725539558e-05
8.36301099507e-05
-0.0127499617442
2.25125485241e-05
-2.87947634201e-05
-2.11452555795e-05
-2.20725812769e-05
-2.08653361532e-05
0.0512847031231
-1.11380038713e-05
0.0512561877603
-4.58306503647e-05
-3.7404515198e-05
-5.650390029e-05
-3.053343085e-05
7.79703462471e-05
-3.49668926871e-05
-2.60704076734e-05
-2.60877205638e-05
-2.33675026314e-05
0.0512253813373
5.30294881827e-05
5.82578439987e-06
-8.53307686793e-06
-3.7010974985e-05
0.0128197908226
-5.51064318652e-05
1.39686688457e-05
-0.0117618673974
7.66765680766e-05
0.0117732343008
-4.69416211339e-05
7.75308424947e-06
-4.24493285518e-05
0.0128199567905
-0.0128133366481
-2.36613642045e-05
0.0127983542969
-1.30592459497e-05
1.68066105093e-05
-0.00474605628176
7.89219958021e-05
9.59605293626e-05
8.57169192953e-05
-0.00237779692814
0.00474900057789
0.00241144962411
0.00159499868036
6.4066207887e-05
9.06341553878e-05
0.00011322999976
8.16975358508e-05
-0.0098344911639
0.00743231164133
0.00601896795169
-0.00305162880359
-0.0169471601313
0.0189964536731
0.00542193087695
0.014835616873
-0.0129139915398
-0.000390633557495
0.00177376641878
6.63095809718e-05
0.000102249851155
8.7464304685e-05
-0.00161471309753
0.00577930072794
0.000271696785293
0.0153151456134
0.00561476194495
5.95639546038e-05
0.0127643912072
-6.35501876506e-05
-0.012759803171
-0.0127510853836
-8.82137524064e-05
-4.94085826462e-05
0.012765657236
4.98942121642e-05
-8.09503916241e-05
7.83439095005e-05
0.0117618619968
6.03796876439e-05
6.19591125125e-05
0.0117967442757
-0.0118022809539
-0.000109386681159
-0.0127457152713
6.07567397745e-05
0.0117793784276
-0.000101119700783
0.0127794156285
-5.58187973403e-05
0.0127821454418
-9.80562713184e-05
-3.95440326496e-05
3.90547901735e-05
2.48879385573e-05
-0.0127955567273
0.0128151495125
-3.45565356424e-05
-7.0200458779e-05
8.73983868369e-05
5.07318048203e-05
0.000112117479013
-0.011789629978
0.011791549559
-7.69969859944e-05
0.012800373928
2.27251625136e-05
-9.2736633116e-05
-4.65966936558e-05
-0.0128191169961
-8.69080277173e-05
-7.3755176451e-06
0.0128261864811
5.71758473032e-06
1.18799437181e-05
0.0128313323065
-2.12851022392e-05
-3.9099405286e-05
6.53342069833e-05
0.0117931000479
3.25919354942e-05
0.000104197426066
0.0118034605987
-5.89249512737e-05
1.19134918101e-05
0.0118105839966
-4.56117703483e-05
0.0128327927302
-1.66137992167e-05
-3.13813734736e-05
-0.012828202944
0.0128216324509
-7.70067884516e-06
-1.30753114508e-05
-0.0117874869345
0.0117815532521
1.81891832036e-05
-0.0118016527557
-2.15835960585e-06
0.0117997537732
-7.04680460916e-05
-5.67388485362e-07
-4.55238319984e-07
-2.53453872071e-05
4.60985448117e-05
2.25434314928e-05
-2.25731548087e-05
-8.43745971741e-06
-7.76195959983e-05
-0.0128292201756
0.0128257141601
4.6149158332e-06
8.78211823428e-07
-0.011835414613
0.0118400537839
-0.0118616485209
0.0118713355184
4.30357739091e-06
-2.26100293521e-06
-9.20336038786e-05
-0.0128228762327
0.000112624823847
2.53129961268e-05
-0.0118603134056
-2.60143971838e-05
-0.0128142824936
3.75289391511e-06
-0.0118428431029
-0.00035848181788
-0.00295242165658
-5.40183790523e-06
-6.5764032203e-06
-1.79835487882e-05
-1.29954253043e-05
0.00251175858717
-0.00212830213136
0.00297034981417
-0.0137641298243
-0.00616217513312
0.021536625202
0.00294026167206
-0.000227005968563
-0.00150178175933
-2.01302610692e-05
-1.26535910771e-05
-1.73333078654e-05
-0.00282911308457
0.00287909335123
0.00174716332858
-0.00179806138651
-3.10311705165e-05
-3.265860002e-05
-2.82317978383e-05
-0.000140479582009
-0.00111380038083
-0.00406620870302
-0.00894103642101
0.00600868638693
0.0127322414134
-0.00687257661536
-0.0061058667937
0.000751920313661
-0.0111831937387
4.33792314799e-05
5.42228443618e-05
3.09098117718e-05
3.04852630755e-05
0.0050274138494
0.0027848716447
-0.012774341357
-0.00341347629824
-0.0106291138346
0.00316833474364
0.000986869058955
-0.00118274810368
1.56689629773e-05
1.2934829846e-05
2.48206074038e-05
2.22141072195e-05
-0.0115909477199
0.000527048315884
0.00480563115369
-0.00904426660981
-0.00446354513968
0.000627740393976
4.20339259197e-05
3.55343048447e-05
3.80333730977e-05
-0.0164981736753
-0.00246685611927
-0.00827130580635
0.00542025937025
-8.78197080204e-05
-0.0127604071474
-5.09474948243e-05
0.0127725458605
9.06449121616e-05
0.0127723246617
9.89138903321e-05
-9.94389820241e-05
-0.0127583664684
5.01075839893e-05
2.77924618661e-05
0.0118179393436
-7.63407502388e-05
4.21272585581e-05
0.0118441642683
-0.0118576607582
-1.16832732807e-05
0.0127846982223
-8.59608423736e-05
-0.0127470658121
9.87629843634e-05
0.0118194972663
-1.58403202592e-05
-7.42070204014e-05
0.0127823526813
-4.49330960366e-05
7.88357958534e-05
-0.0127964494937
6.50005924986e-05
-5.99110158036e-05
0.0128028528582
4.21744044651e-05
2.94825248881e-05
-7.55113233434e-05
4.2881656956e-05
-0.0117910541425
-1.93064276188e-05
0.0117596707672
-7.19819632525e-05
7.22864060714e-05
0.0127884870046
-1.53124245392e-05
0.0118000701537
4.30917468078e-05
-7.18985827008e-05
-0.0118220642276
4.82737412451e-05
4.48968735111e-05
0.0117721282557
-7.18023636004e-05
-7.17773120089e-05
0.0127672852023
7.70436419151e-05
0.0127719318748
-4.1113363656e-05
-0.0127618588355
3.96510714871e-05
-0.0117943236111
0.0117622740793
0.0127803615133
-0.0118206930623
-2.47353489821e-05
0.0128141765307
-1.25986890846e-05
9.58209238536e-06
0.0117706828065
2.77147354605e-06
0.0117908208442
2.80007150262e-05
-1.2041184104e-05
-2.39190030809e-05
0.012814320266
7.3604110772e-06
1.99266278631e-05
2.97840476193e-05
0.0117524699448
-7.70495925396e-06
0.0128105634505
-1.49413588869e-05
0.0117785142144
5.61342690653e-05
-1.27685151516e-05
0.0128059486316
-1.47213480869e-05
7.03847932532e-06
-0.0128084098433
1.08457499894e-05
0.012807964317
-1.75342043164e-05
1.49126131021e-05
5.2585352154e-05
-3.48239044549e-05
9.9523592692e-06
-0.0117727717717
0.000103734773447
0.0117713270654
-1.77152166561e-05
4.96990685208e-06
0.0128009621406
8.1675540843e-05
-0.0128242877643
-2.66251327751e-05
-9.4610133462e-06
9.62692020312e-06
-5.77313745495e-05
1.04369446518e-05
3.41497990057e-05
0.0118348941524
0.0118607050172
4.12953205495e-05
-6.70719496769e-05
0.011856548678
7.55067062992e-05
-2.42014133013e-05
0.0128115505383
0.0118302342839
0.0118357369324
-9.43437039496e-05
0.000107260314986
2.03140089755e-05
-0.00011904416611
0.0118173162405
0.000130298025056
-1.40757116165e-05
0.0127861626201
2.05102183845e-05
0.0128014407895
-2.20087670454e-05
2.36249487708e-05
-0.0118177932255
0.0118036385005
0.012792577186
-0.0001044658372
-0.000114347254187
-0.000110309281143
8.72270532924e-05
0.204803482555
-0.000107848844035
2.20171105967e-05
-1.47870979939e-05
-2.51762935586e-05
-2.49968707782e-05
-2.5209870027e-05
-2.51497650034e-05
2.20305917248e-05
0.0512735429101
6.36619287351e-05
-0.00242231181074
0.000871403319333
5.9782884965e-05
5.21518964927e-05
5.4472758436e-05
-0.000286324787102
-0.0148907889917
0.00445066743665
0.00471688712925
0.00516739727725
0.0375394184401
0.0126073996034
0.0051807515941
0.00350322663984
-4.83589973617e-05
-4.16604892919e-05
-3.74319427577e-05
-5.35723335035e-05
0.000107976901793
-0.000252335739211
0.0511599949304
-1.53018678133e-05
5.18567020622e-05
4.05742806477e-05
0.0117625469261
0.0512060742837
-3.62898951983e-05
-3.54347032327e-05
-3.12591916193e-05
-3.65463289895e-05
2.97183917651e-05
0.0512034820409
-4.02504810302e-05
-4.48331391873e-05
-4.28964646522e-05
-4.25703717943e-05
8.03149741667e-05
-1.73951082862e-05
1.42947812692e-05
0.0117860455735
7.84159594517e-05
-4.18674677813e-05
-2.75884226437e-05
2.99031126406e-05
-0.000129001354657
0.0118070878019
0.000136716398131
0.0117828676784
-5.25577646593e-05
5.45350645025e-05
-9.27390255282e-05
-0.0117891597611
9.70931198675e-05
0.051198645608
-3.73992610377e-05
-4.28984297184e-05
-3.91673079159e-05
-4.43861915895e-05
0.000106926338029
0.000132116932987
-7.0331002995e-05
-2.97145720776e-05
-3.80563542044e-05
-2.86516933486e-05
-3.73007109484e-05
9.08013368114e-05
0.000188249582553
0.0511805721792
-0.000127197359723
-6.39314857327e-05
5.31769373295e-05
-6.36455392787e-05
0.0117872334413
7.0162427283e-05
-6.99610501085e-05
4.74077808245e-05
6.64929180844e-06
-0.0118062282051
0.011819564353
2.64791002898e-06
5.37617809346e-06
3.18120466443e-05
1.48360553338e-05
-0.0018602883531
0.000133814031161
0.000993455122029
-0.0113380953012
0.00100296221884
5.20950135003e-05
3.14174241315e-05
5.92169203817e-05
-0.0038479428084
0.000810839203933
-0.0103045782972
6.68611245464e-05
4.51310851885e-05
6.66891365597e-05
0.00386346317015
-0.00593846148024
-0.00323515767544
0.00550513069775
-0.00521713477841
-0.00447669951607
-0.00206084514406
0.00307986315717
-0.00119635435061
-0.000348711528051
-0.00951148586743
6.15816926919e-05
7.10991681453e-05
5.55942293708e-05
0.00364569841332
0.000747314719745
-0.00543795671216
5.26887987225e-05
7.31068424026e-05
5.64748385786e-05
0.000794119633461
0.000797996590635
-0.00881217293767
-0.00254340029892
-0.0127829576035
-6.00476043185e-05
4.92130559832e-05
-4.98025855955e-05
0.0127952321086
-5.68979252829e-05
0.0127707908397
3.94370944652e-05
0.0117508961266
1.78635502204e-05
3.9905708284e-05
7.44930481876e-05
0.0117403259658
-5.76013433506e-05
1.9074216395e-05
0.0117264957105
0.0127849768529
2.15215913471e-06
-0.0127951823171
-1.16635578975e-05
-8.24228225256e-06
0.012787762345
0.0128054075555
6.20706732163e-06
-1.42896936875e-05
5.87415280895e-06
6.93417410044e-05
-3.01460935726e-05
0.0118008043196
1.21110753676e-05
0.0117808312475
0.000108987934335
-6.97951551853e-06
0.0127953495984
-9.20790281122e-07
0.000104813076666
0.0117881658876
-0.0127835442967
-4.27608579316e-05
5.25634969544e-06
0.0127765784337
-1.11045400812e-05
0.0127733101831
1.84496618567e-05
3.41911076651e-05
0.0118014990685
-0.000125577975136
3.76689238892e-05
0.0117936156912
0.00013273804625
0.0117971763838
0.0127658772117
1.39869652672e-05
0.0127717213602
-4.83272993556e-05
-3.24584457252e-06
1.62233801541e-05
1.29243981915e-05
-0.0127585032468
0.0127542213732
1.17465077919e-06
5.02649151645e-05
-0.0117953395034
0.0117936348319
-7.44174331226e-05
-0.000114023270613
4.6384656567e-05
0.000117280885984
0.0127680760744
2.4025860693e-05
-9.3854655534e-05
8.11896742723e-06
-0.0127646435026
-3.8942610356e-05
-3.01486108756e-05
0.0127611481535
3.5196644851e-05
2.24729965511e-05
0.0127524134882
-1.02825811368e-05
4.35335485745e-05
0.0117988203514
-5.07120899072e-05
-3.72299860578e-05
5.42882842346e-05
0.0117936268692
4.774877696e-05
3.0352800149e-05
0.0118061687692
-2.78576250904e-05
0.0127529896343
-2.06578534203e-05
0.0127618680092
-3.28492237456e-05
-3.91519437352e-05
4.16137100213e-05
4.3295506043e-05
-0.0127558646174
0.0127588073298
-3.67903160681e-05
3.11580566804e-05
-0.0118188033498
1.72074365737e-05
0.0118298445759
-1.13332119864e-05
4.94976417268e-05
2.26639374618e-05
4.46033577456e-05
0.0127631318183
-3.47470346083e-07
-2.97291227522e-05
-0.000546481675401
-0.0494258377733
0.0496157828465
0.000811950450481
-0.00031697085723
-0.000240413201396
-0.000304275212482
-0.000253253371412
0.000659960663781
-0.00092555413647
0.0504047017501
-0.000249853442207
-0.000234168459392
-0.000261971054126
-0.000230003081752
0.000588448417833
-0.0500226306627
0.000930965647211
-0.00135412060601
-0.0507845007528
0.0511808070857
0.0012009157541
-0.000107757778822
-0.000162201771753
-0.000130219206986
-0.000147349974881
0.000304470841668
-0.00102562139475
-4.28574840741e-05
-9.11644589439e-05
-5.13283271325e-05
-8.48622123678e-05
0.000219321438762
0.0511606396454
0.000850470614472
-0.050934632853
0.000296067603835
0.00212464054284
0.011188020233
-0.0145062089627
-0.00363420964958
0.00340847931467
0.000367443276122
0.00034513825543
0.000394501451514
0.000407611877758
0.02188379512
-0.0303353440839
0.00531568285789
0.00243879927777
0.000337326692977
0.000325441286483
0.000257719582164
-0.000636546527557
0.000253830953707
0.0030016537684
-0.0275624787971
0.00118961695704
0.000253668753361
0.000216374220983
0.000216653461396
0.0245949880598
-0.00216441449359
0.000169677569379
-0.00729234596702
0.0285455445983
-0.0270553751024
0.00517401152152
0.000134158493745
0.000116609426622
0.000124721494935
8.33048107577e-05
6.4074870421e-05
-0.00254327723095
2.00391268143e-05
4.1643456122e-05
1.86121214962e-06
-0.0253254346826
9.9278692075e-06
3.21145405993e-05
0.0276989091498
0.115992657011
-0.0133554039875
-0.00716052103527
-0.00692286324594
-0.00736644826506
-0.00708934869803
0.00813889621453
-0.0558783796615
-0.041995278595
-0.00933484850116
-0.00454365190283
-0.00980049189953
-0.00431306383575
0.0473516009142
0.0415865072973
0.101944429933
-0.018666627301
-0.00577707638335
-0.00571823744083
-0.00469268950698
-0.00394312881857
-0.0494190439788
-0.0314380466531
0.00147860524174
0.00561453950767
0.00411535178075
0.00771829345647
0.164630489688
0.0865716530261
0.00234312041059
0.00302283808411
0.00391400393526
-0.0396384123878
-0.0113255997021
0.00344646127939
0.00621387844289
0.0071569567805
0.0067129620798
0.00771341755764
0.128470921602
-0.00855930798433
7.18688371565e-05
-0.000138719371579
-0.00015594171475
-0.000156246729865
-0.000135194561248
0.0491472878397
0.000494519598974
8.95810833015e-05
-0.0492168438975
0.0491457295378
0.000311838226859
-0.00015439089372
-0.000184125042245
-0.000174890468606
-0.000162528502091
0.000517486063324
-0.0492272328013
-0.000118401468466
0.000164870274555
-0.0121305606385
3.86467508763e-05
0.0120866193303
-4.05986754302e-05
0.0120682499836
3.54070763941e-05
-0.000170366296274
0.00022285988996
-3.48470781741e-05
-0.0121208980968
-0.000259779565006
-0.00022991366568
-0.00021827283855
-0.00026767637557
-0.000220567768877
0.0123419959053
0.0122584718747
0.0123272646066
0.0122936206094
0.000574307565327
5.05309469523e-05
-0.000273608062469
0.000287699890919
-3.90859951131e-05
0.0120415519864
0.000556916893063
-0.000200842431511
-0.000220165672839
-0.000194965528982
-0.000241379612194
0.000585466256389
-0.0493989921027
0.0497586928304
-0.000215936232389
-0.000267837696093
-0.000252874597653
-0.000223566609888
0.000625401412311
-0.0495811633954
0.000713945711187
0.0120775619904
-0.000221391935056
0.000271386580988
-0.0121242011119
3.15535719217e-05
0.0121304460804
-0.000296503483783
0.000333647051948
-3.66400223221e-05
-0.0121670097251
3.65505963987e-05
0.00122236214725
-0.000279526388705
-0.0003160990482
-0.000270126755824
-0.000312026756358
0.0499868201995
-0.000240190925386
-0.000195790803816
-0.000262447006101
-0.000204487825312
0.000118686775177
0.000129697532605
0.000125018678675
0.000113645119514
0.0500346334172
-0.000303824989684
-0.000261282550729
-0.000251344370734
-0.000301405286153
0.000728706154766
0.0505540620021
0.0012167688356
-0.000261545912579
-0.000269817483386
-0.000287381689349
-0.000256792769165
0.000562255252003
0.000308513579689
0.0120591787045
5.72083509213e-05
0.0119678884765
-0.000445421544097
0.000453493528172
-0.0119969465876
0.000151118692413
-0.000130472128989
7.92128549488e-05
-0.000309044183461
0.000326125774999
-8.06007915702e-05
0.0121153003256
0.0120076999489
0.000148851203173
-0.0002764013588
0.0003332123799
-0.000168783128139
-0.0120446372837
0.0510022221002
-0.00017454223575
-0.000189670047064
-0.000205241605355
-0.000152354115724
-0.00146860645782
0.00038827515938
0.0014652735079
-9.74608158452e-05
2.45051596299e-05
-8.02421362857e-05
1.81732733946e-05
0.0515941472309
-0.000103228624632
-0.00181880851578
0.00039144762156
0.0119550839915
0.000179863951305
-0.000150611611176
-2.45846297625e-06
6.68411345515e-06
-0.0119306659274
0.000221363929165
0.0119183706902
-0.00021255839737
0.000152886179188
-0.000200482214915
0.000261433195943
-0.000178243600571
0.0119722984856
0.000191488148257
8.51486798475e-05
-3.71217375301e-05
-0.000209277186199
-0.0119280685867
0.0118980614455
0.00108053033801
-0.000214705093315
-0.000239405378763
-0.000227480101929
-0.000219296808827
0.000657183597612
0.0508839114259
-0.000181540894787
-0.000169734924243
-0.000183805616627
-0.000172021781271
0.000588309877855
-0.0506026560707
0.000918131078272
0.000292315401634
0.012131654155
5.66604783298e-05
-0.0121470640978
0.0120277530538
-0.000227513740759
0.000287133507463
-0.0120628309692
0.000124396694389
0.0120813111525
-0.000143955355956
0.000180263406094
-7.87937830389e-05
-0.0121080602864
6.91845637638e-05
0.0012001168699
-6.20355520787e-05
1.76818169229e-05
-7.98315057093e-05
2.24641899098e-05
0.0514540698808
9.33548087529e-05
0.0512022193986
-8.58168305905e-05
-0.000112509941392
-0.000121628569373
-6.8529411414e-05
0.000245103402886
-4.73634437914e-05
3.84578580434e-05
-3.28141295687e-05
2.96719977571e-05
0.0513882906191
0.00100994919648
1.60030700724e-05
0.000228602940865
0.0119870215819
0.000134555005804
0.00010197212439
-4.37180372236e-05
-0.011940088801
0.000171203029424
0.0119022161845
8.67786356909e-05
-7.32669457584e-05
0.000128542114812
-9.60604215249e-05
0.0120353833835
0.000119829058278
0.00012593882469
-7.67630275363e-05
-0.000137403774008
-0.011970838006
0.0119394799084
0.000105819584424
0.0120592595841
9.00581202958e-05
-0.0121042703567
-7.00184540144e-05
-0.0119854239649
0.0119521602523
0.000101959688153
0.000121087485918
0.00265110092031
7.78416115811e-05
0.000116868123189
7.23068803871e-05
-0.00713142615402
-0.00637743029858
0.00464622483958
0.00582521107876
-0.00891028353283
-0.00168349397309
0.000137517602735
0.00011491955311
9.17049695043e-05
0.00551083777117
0.00721766946113
0.00400261622104
0.00023447601681
0.000364734518778
0.000325164542257
-0.00085132177689
-0.0111344400705
-0.00105171090371
-0.00462464791255
-0.00389156387348
0.00156839078798
0.000853497583588
-0.00300611008203
-0.00266227050031
-0.00273229355609
0.000421721412758
-0.00206737466096
-0.00776629277829
0.00181880293344
-0.00364011270205
-0.00543888037592
-0.00307669536691
-0.00859722541286
-0.00228640842837
-0.00395626450742
0.00284778175099
-0.00112287859224
-0.0134992000694
-0.0012983064342
0.00277206673185
-0.00655261752716
-0.00498377041284
-0.00420201366442
-0.00246968275414
-0.00899578138749
-0.000506502935783
-0.00571950906875
0.000162664700394
0.000274470990146
0.000214257649974
0.00611916189425
0.00823276119492
-0.015318682625
0.000286078686217
0.000261181790905
0.000233384260608
0.0122790990552
0.00378579183194
-0.00753996268947
0.000553243186886
0.00353360472256
0.000407552167149
0.000413224784932
0.00040959975932
0.00162178840787
-0.0202818451197
0.00304941394057
0.000313129762944
0.000307028737545
0.00035307758625
0.0022350730223
-0.0266661716747
0.00344432607686
0.000342355777696
0.000291111000418
0.000349153196372
-0.00510723074055
-0.00871148629935
0.00368625381809
-0.00559050894513
-0.00712470545264
-0.00697197575788
-0.009547261175
0.00620430729999
-0.00857537141926
-0.00569766132195
0.00517095866299
-0.000657613758219
0.000159630229409
-2.7575599406e-05
0.000103386820442
-0.0333718462825
-0.00171324790926
-0.0303282301171
0.000878319205777
0.000272198734979
0.000141662450262
0.000195085225013
-0.00196724158359
0.00650752954121
-6.64371771579e-05
1.94918242199e-05
6.24241555651e-05
-0.0296294805477
-0.00589279318298
-0.00229159689652
0.00100677000055
-0.00441887338326
-0.00523091434126
-0.000642306456216
0.00239894685918
-0.000876771749025
0.00280785606644
0.000762772835858
0.000241055206406
0.000187317970851
0.00020225152269
0.00055090013051
-0.0265495885846
0.000160239917964
0.000168480718855
0.000181938591515
0.0282688043666
-0.000116493446037
-0.00964874310455
0.0106726898909
-0.00702915701593
-0.0045894421179
-0.00696263710896
-0.00430748310236
0.00895867606897
-0.0047725452547
0.00481372052896
-0.00176559462751
8.56229262836e-06
-0.00011223681461
-1.21492061447e-05
-0.0233802078056
-0.0243096524586
0.000133795353046
9.41688968485e-05
3.38991898553e-05
5.63800097912e-05
-0.0021378701435
-0.000105874210856
-3.89730741179e-05
-2.45393658254e-05
-0.019967702618
0.00290262519789
0.000404532410441
-0.00165603609297
0.00023248388835
0.00796006434729
0.00335951018243
-0.00248157346297
0.0113452098405
-0.00218487024976
0.012282861571
-0.000115930419416
1.65456307407e-05
-2.94227290666e-06
-0.0123192329372
-1.75330112044e-05
-0.012286964889
0.0122744614206
3.87960594754e-05
4.42007789937e-05
0.000112733760984
-4.61039378585e-05
-0.012163407378
0.00017049536016
-0.0121257475346
3.59205869447e-05
0.0120744826076
7.17303839155e-06
0.0122715671859
3.89798029523e-05
-0.0121641389238
2.75606309671e-05
-0.0123206989429
0.0122890662425
9.01943656615e-06
-0.000134202116858
-0.0123214115661
-3.23357645044e-05
-0.0123067058166
0.012310684967
6.68860239151e-05
0.000194284389481
-0.0121221182009
0.0120660656936
0.000160239033993
-3.40440583869e-05
2.62287393478e-05
-0.0121580786741
0.012282440501
3.01911797885e-05
-0.0123304182148
-0.0121599408796
-0.0122801134442
9.61181243342e-05
-0.000357459653082
-4.17265477156e-05
0.0123234554192
-5.41821435694e-05
0.0123215942727
0.00010132053192
0.000250792053165
0.0120414101989
-3.14568875763e-05
0.000378462165079
-5.09065236556e-05
7.63962410762e-05
0.0120035654044
-1.8600921147e-05
0.000154142462322
0.0123750806492
-3.55133219882e-05
0.0119939731458
-5.48758366462e-05
0.0123684396195
-0.000238482927466
9.56051612592e-05
-0.0123715011972
-0.0123319645362
9.78210114684e-05
0.0123522001208
0.000202955150889
1.74639694534e-05
-0.0121557865198
0.000310899350737
-0.0121338879437
3.97496675828e-05
0.0120889403259
-0.0123483075774
0.000139229096429
0.0123967475757
1.79533498612e-05
-0.0121584852264
0.0124084953601
0.000133683395074
-0.000261078349384
-0.0124012152237
-0.000176019838256
-0.0124530179953
0.0124893395759
0.000205837613989
0.000324998577428
-0.0121498123424
0.0121140383608
0.000279208647463
-1.39166302241e-05
-0.0121854949593
1.44384604472e-05
0.0124439762667
-0.0124322414294
0.000168913032107
-0.012172821378
-0.000198871830416
-0.0124361738887
-0.000416427572804
0.0124927958342
0.000242284318432
0.0123776508869
0.000144312386129
0.000406757382724
8.02652033336e-05
0.012016366338
0.000338909377066
0.0120716944061
8.08856841175e-05
0.0124364231109
0.000190984206348
0.0120323950219
0.000101194682643
-0.000248660562795
0.0125893718115
-0.000409059829197
0.000282255495991
-0.0125318764048
0.000324474190544
0.0126260879933
-0.000280961166001
0.000408560569738
0.000118527565137
-9.84705386519e-05
0.00042509478464
-0.0120083553978
0.000170757026277
0.0119777397859
-0.000204333407887
0.000345272672141
0.012682833998
0.000144587396808
-0.012491275947
0.000273937184411
-0.000391766724847
0.0125477458001
-0.000227102463736
0.0125395280844
0.000242258209316
0.000333209123011
0.0120971626032
0.000364107960229
-0.000103343314741
0.0120701057767
9.16125597905e-05
0.0125954565444
0.000281206798803
0.0120564799823
0.0126367597364
0.000307308398038
-0.000375122079427
-0.000355626254046
-0.0126733310893
0.0127482315206
0.000344240398559
0.000382493158797
-0.0120378551635
0.01200034553
0.000335719268129
-0.00013908878829
0.0001203114147
0.0127220420742
0.000308753805712
-0.000398494340592
-0.012792109089
-0.000246178681171
0.0128528155061
0.000401058137753
0.000182861543343
0.0127474391132
0.000352390848007
0.000228802423653
-0.000310602687637
0.000309744832886
0.000208750730225
0.01196061401
-0.000186299233037
0.000348200107334
0.0119496095993
0.000186151768663
0.0128324570355
0.000203409895059
-0.000376510942701
0.000370828032655
0.000221207166927
0.0119550041677
0.000214954560855
-0.000418834451378
-0.000132619743532
0.0129152154736
0.000414418583181
7.50216354371e-05
-0.0129041471402
0.000428218903937
0.0129485681942
-0.000424937035677
-4.10529401607e-05
0.000173401541045
0.000219502239988
-0.000203245831433
-0.0119240786364
-2.06147829427e-05
0.000226587482398
0.0119107191968
-0.000407624895494
9.02495090178e-05
0.000221660905383
0.000429500952645
0.0129452281895
-5.22622533335e-05
-0.0128227027412
0.000388846637579
-0.000209896515309
0.0128701770484
-0.000373810697733
0.012838892276
0.000355088617287
0.000308743359582
0.011972778584
0.000165545242138
-0.000199510273704
0.011974202671
0.000173963736418
0.0128760697246
0.000365065535289
0.0119742499575
0.000387112643139
-0.000114240073934
0.0129140682959
-0.0129119644405
-0.000398141293528
0.000370948319381
0.0129262232799
-0.0119358892152
-2.21819203226e-05
0.0119076131703
9.1003259307e-05
-0.000207270724514
0.000181703885547
0.000361762977776
0.012940791789
-0.000280831373361
-0.0126075780075
-0.000284091451395
0.0126586738352
0.000263948369549
0.0125762603167
0.00024924784167
-0.0125249811461
0.000317116351008
7.08799914751e-05
0.0120891402284
0.000266245594077
0.0121403093768
-0.0121606439327
2.69300668953e-05
0.0126316298547
-0.0125583120967
0.000236152227333
0.0120988120018
4.49075008759e-05
-0.000302021583281
0.0127240679374
-0.000257555451623
0.000279365337142
-0.0127044360283
0.000330989676139
0.0127655116319
0.000293584324633
9.41715227849e-05
0.000247012612666
-0.0120697477799
9.7118315934e-05
0.0120374419269
0.000305400759661
0.0127775485558
6.79319348939e-05
0.0127432467521
0.000261043742466
-0.000223869348956
-0.0126826602856
-0.000282621471742
-0.0127578358602
0.0127969419437
0.000254089088724
0.00020589869908
-0.0120925541901
0.0120652692559
0.000202396952561
-5.45745668753e-05
-0.0121371786918