/*--------------------------------*- C++ -*----------------------------------*\
| =========                 |                                                 |
| \\      /  F ield         | OpenFOAM: The Open Source CFD Toolbox           |
|  \\    /   O peration     | Version:  v1906                                 |
|   \\  /    A nd           | Web:      www.OpenFOAM.com                      |
|    \\/     M anipulation  |                                                 |
\*---------------------------------------------------------------------------*/
FoamFile
{
    version     2.0;
    format      ascii;
    class       volScalarField;
    location    "2.85";
    object      p_rgh;
}
// * * * * * * * * * * * * * * * * * * * * * * * * * * * * * * * * * * * * * //

dimensions      [1 -1 -2 0 0 0 0];


internalField   nonuniform List<scalar> 
28582
(
19560.8848516
19562.5099146
19561.360733
19563.2832701
19562.3802207
19565.1515999
19562.1052459
19566.2108041
497.449895076
548.095518576
0.011409346984
19564.285699
18566.2852972
18616.8753019
19567.9363694
19568.0944524
18628.2054302
19569.7545008
19569.6438006
19558.2821597
19563.6273131
19563.8054344
19558.1928439
19564.5955649
19564.7320521
19558.088179
19566.9811305
19556.4626407
19569.3386793
565.727397846
-0.0133425874213
0.0221221487942
19558.2867186
19559.1448712
18482.1788504
18475.340281
19557.7821002
19570.5267795
19569.4391093
19570.479686
19570.4719681
18656.2992752
19570.3485238
19571.8372172
509.7982865
554.816517542
0.611840487414
0.370728246555
527.797608068
0.625218174981
19560.7985411
19562.6015907
18597.2315094
18600.7961325
19561.1622269
18611.6088559
19562.5958065
19564.088988
19565.5431901
18608.0263432
18636.4870675
19565.4460934
18628.3388948
19564.0976781
19567.8457783
19566.8564048
18635.9001341
18638.9275661
19566.7136996
18641.9154319
19568.0351907
19569.8795122
18643.7133971
18649.4015135
19568.8620651
18639.7183506
18645.7467009
19569.0547174
19569.884923
18638.8494173
18624.5233775
19568.834865
18622.681377
19569.1050913
18637.8005011
508.234226953
1.59743947082
498.829643965
513.5826852
1.20604964039
1.3789966191
573.9362151
1.41496706652
0.331802760873
590.9334848
2.6740535724
577.736533307
0.656262968501
19554.6301875
19554.4581123
18482.2775717
18455.7590558
19555.256085
19554.1959313
18438.3479435
19555.8095531
19557.2564645
18472.6929358
18500.2370975
19556.1210302
19557.4180223
18459.8730155
18510.4017514
18516.8505532
19559.130349
19556.3943494
18513.4768742
19558.1747339
18466.2177491
19570.5757749
18648.3983114
18650.5675537
19571.3130099
18654.343948
19571.3786717
18651.5759145
19572.0608764
19572.7324422
18655.7510935
18660.7465271
19572.1430365
19572.6683783
18654.2980737
19571.2566173
19570.5634022
18640.1573481
18626.9195202
18632.2196767
19571.1697247
18644.1215717
18628.9756975
18614.2321132
19572.0121138
19571.7203
18629.9172026
19572.1133089
18636.951364
19567.1164152
19571.2067072
592.333210421
0.0895213100433
19561.3636382
18545.0056746
19570.9467968
19570.7104009
18657.432351
18588.1977978
18526.0048691
19569.2945913
19565.9584309
18505.3582641
18283.5260761
510.936376081
611.841267699
638.940203011
1.92600512475
3.91035965292
4.72838987473
683.799463357
743.55237448
19561.2928816
19560.7413153
18534.9299717
18578.7783427
19559.7514362
18549.0168034
19562.4699251
19573.0422866
19573.176084
18656.655035
18655.5992855
19573.5164661
19572.9730283
18635.6983774
19572.1534245
19571.7906787
18616.8773692
18560.8697282
19572.200877
18595.232509
19571.5717804
19572.1061118
19571.6487213
18544.147433
18538.4503311
19571.8964384
18576.1175139
19571.5142748
19569.755665
19571.4806441
18498.9253349
18466.4862152
19571.3029456
18450.9224312
19570.4201304
19566.9252883
19563.8660882
18251.2514494
18385.4129168
19562.4560718
18368.593938
19567.9790619
19568.4833604
19561.9520948
19559.9627066
19557.0076759
286.044217879
348.248415957
286.997643902
342.174517471
355.719580915
0.0509288356
0.0743670355849
0.0613764967301
0.0444634490412
0.0549135414212
0.0831684666279
19569.2465292
19568.3980385
19010.601761
19042.6656603
19571.849813
19075.1783775
19566.4126731
19563.8558404
19033.036394
18969.8111561
19569.7697443
19564.8870325
19564.8461307
19061.6817124
19037.8495771
18988.0982649
18942.9834964
19562.7396362
19558.123675
18980.4707951
18613.4628896
18858.2088049
18577.9480893
19561.5983159
19559.4216012
18960.4172666
18915.9384121
18845.5245045
19556.9588883
19558.2575695
19556.3513497
18835.8846334
18587.0949315
18762.6081136
18622.7887919
18742.5640208
18618.6456813
307.461982332
286.757415469
293.165886236
0.403749006724
1.0615859051
0.340635194461
0.993222432046
1.92138073846
2.17772715781
1.74465722563
1.75966907864
278.290001576
278.043586825
308.804638895
283.921221638
305.6244391
0.310850303537
0.976137664852
0.252717865788
0.898854402316
375.873938388
342.418931411
376.429347161
1.6233462427
1.44544315921
1.5562311833
1.44725935038
306.409989
312.176833305
0.198869260773
0.797931677125
0.756186592469
371.479432317
343.548932665
372.743762643
1.51048537096
1.68392653261
1.42411651395
1.94390849451
19567.6437279
19570.061417
18990.0798663
19043.3684221
19570.1440021
18978.2369566
19568.0957745
19567.5507448
19569.0494028
19053.2756569
19026.033306
19569.9409217
19567.4629696
18997.4422628
19573.4959207
19570.9007601
19080.9703362
19115.5151787
19571.9787993
19572.381529
19108.5301839
19565.3376972
19567.9056525
19018.3238207
19026.02942
19566.6414527
19566.8162377
18992.7884537
19564.2095213
19564.1175211
19004.3858372
18964.2649065
19565.5263067
19563.3190621
18972.7850214
19568.5414922
19569.2938324
19094.5480802
19038.6356743
19570.5646536
19567.9252356
19043.1053891
19568.508127
19570.694143
19084.8389163
19022.6836552
19571.1536084
19568.1519253
19032.6650389
19566.7361845
19564.8216163
19016.2028663
19010.6005685
19566.5189941
19565.2724075
19020.9463229
19566.6382246
19564.1614863
18996.8209395
19001.1520926
19566.0933141
19565.3563199
19004.3020268
19563.8803117
19569.1538328
18933.8121633
18949.5030889
19566.6580905
19567.0028361
18829.3039059
19559.98965
19557.0432436
18792.8893262
18747.0133493
19563.3591918
18752.3958466
19556.0775598
19561.7132313
19562.0094359
18930.6343744
18833.8057878
19564.8107134
19560.0182316
18793.2659142
19558.2478899
19553.6654151
18728.032132
18726.1930272
19557.7262285
18720.9003143
19555.3165845
19562.268694
19563.2884765
18979.4330795
18935.5828328
19563.8679213
19562.1122963
18936.2281268
19562.031098
19562.6652389
18972.8238373
18910.1493111
19563.8099293
19561.6497156
18911.7478221
19560.8890639
19559.3830404
18894.8690082
18892.9273999
19560.7412924
19560.1830947
18890.0388653
19557.9360456
19560.4543596
18823.755451
18870.2238508
19559.0475977
19560.5963019
18753.2168175
19555.4981237
19553.4693875
18737.2388311
18695.6056019
19557.23975
18665.7512456
19554.264391
19557.5863394
19557.8579669
18867.4082176
18778.9481427
19560.0113864
19557.3395052
18746.8385103
19555.416569
19553.8659324
18695.986705
18739.8917277
19556.2759247
18662.7588903
19554.5798731
19555.2728498
19556.8302782
18763.135785
18795.6552753
19556.7327764
19557.2137942
18690.2451777
19553.5677797
18738.6490585
19555.9309002
19559.9087592
19561.8868166
19563.2660918
19563.0506412
19561.6245867
19559.9807018
19560.3039723
19562.6184299
19564.2180783
19563.7305804
19561.6022283
19559.4833072
19544.6447561
19552.6079842
19557.3820223
19561.3203623
19562.6786265
19562.1736267
19561.0290914
19558.7879175
19547.6980082
19554.9125855
19560.1552486
19562.4724663
19562.9618118
19562.3284094
19561.17242
19558.8364136
19554.0170381
19556.8723591
19560.1061626
19562.2416004
19562.8921155
19562.4170784
19561.2581789
19558.9815822
19556.4477967
19558.5271857
19561.1604555
19562.8966021
19563.287826
19562.7049828
19561.3786032
19559.3249519
19563.5312134
19562.8905662
19561.5047806
19559.6610013
19540.844098
19548.7774142
19556.1279268
19561.3006959
19563.3529305
19562.8072223
19560.9802662
19558.3519914
19545.6995937
19552.2438971
19561.759934
19563.7177874
19563.9031867
19562.9912048
19561.1231428
19558.3187123
19553.6831044
19557.2549333
19560.4537057
19562.7791904
19563.6305646
19563.0628327
19561.2922445
19558.3589076
19556.4011715
19558.8661412
19561.8716798
19563.8127547
19564.2501644
19563.4645454
19561.4846515
19558.6800582
19564.5181554
19563.6320718
19561.5327816
19559.0804424
19534.5488184
19549.3161229
19559.3875118
19564.5482972
19565.982802
19564.4771813
19561.0319246
19555.8611076
19542.1205167
19552.4346625
19562.0772748
19565.2384051
19565.9300706
19564.5157509
19561.107756
19555.8091573
19553.6190824
19557.9112405
19562.0674834
19564.8982741
19565.9774253
19564.8552909
19561.5239903
19555.8668977
19555.0579491
19556.3743797
19559.674704
19563.5419087
19566.03486
19566.6671005
19565.3360977
19561.7635211
19556.1979396
19561.1502113
19564.3722063
19566.5814203
19567.0166991
19565.3603198
19561.41917
19556.7857148
19565.2077166
19561.2158631
19557.4262811
19538.9958369
19550.6027749
19560.182165
19566.0932868
19568.9866376
19568.9780401
19563.8875026
19557.2014342
19539.1781782
19545.1305038
19553.8949424
19561.5902027
19566.2719169
19568.5625032
19568.7292014
19563.1760215
19556.6853604
19553.7330239
19549.3720278
19551.0402891
19557.1608093
19562.6335324
19566.5471718
19568.7903998
19569.1097267
19563.6112173
19556.1395242
19553.7385583
19554.9623872
19559.1293385
19564.0727078
19567.5822875
19569.7020159
19570.0845452
19564.537142
19556.1475429
19560.5151237
19565.0202975
19568.4081858
19570.6765243
19570.2793132
19563.377257
19556.4729381
19569.4034075
19561.7072746
19556.5532099
530.634714581
552.640013289
581.809154273
614.46818091
616.424014658
656.179987371
796.265059454
948.848604121
392.964934544
437.65538745
503.591084504
538.057303819
573.286489656
607.958076456
614.97402157
655.600794623
803.208124653
960.706407583
391.347298058
416.363855717
461.561255344
510.367228067
550.392303
582.992052339
602.520082328
657.251942536
801.810340418
952.829515736
405.550396273
458.241538972
512.14591739
548.439390479
580.262771634
592.101813846
643.356272777
793.092360734
936.105847901
521.937035876
551.954973085
578.525066481
588.570998327
649.468694052
794.498181957
907.842322448
683.861542984
797.002607746
871.959312855
0.00716204958161
-0.0345262599181
-0.0322836788353
-0.0268822540406
-0.0413157116827
-0.0199318357097
-0.0293430734256
-0.0449308526202
0.153224430792
1.24748819135
-0.00748467369746
-0.0137744513167
-0.0246958255852
-0.0309962820838
-0.0423374966816
-0.0423873692286
-0.0493754179687
-0.055362398191
0.28572381598
1.23410753467
0.0260822428356
-0.00414405470186
-0.0176831305062
-0.0226524942116
0.00305655514453
-0.00258738098015
-0.024444523047
-0.0235270498737
0.0902626344723
0.858772576752
-0.011125095887
-0.0253602085591
-0.00706096257438
0.0119791279885
0.00510469578736
-0.0115199756545
-0.017673984795
0.0161926750549
0.718485428399
-0.0125156094206
-0.0197115507801
-0.0251754595098
-0.0240135961556
0.0130803951216
0.161255827614
0.782614392604
0.0609502023001
0.152586834093
0.924025307827
19548.4713105
19545.3993387
19550.0893335
19543.0824246
19546.6786293
19543.8346326
19548.0410128
19554.8365681
19553.8368045
19556.5095903
19550.6508486
19552.885298
19551.8750635
19554.9647271
19551.7382334
19550.0934593
19552.7870444
19546.9190494
19550.7485087
19549.515852
19552.4004421
19556.8877004
19555.4201866
19557.4533504
19554.0613448
19556.2082874
19555.109323
19557.4477065
19544.21594
19541.6182019
19545.1827256
19536.3387612
19543.0059058
19538.7114692
19543.741841
19552.4415955
19549.1576022
19553.9938865
19549.0604791
19552.2469129
19549.2563222
19553.768316
19549.107205
19549.2005131
19551.9754956
19542.1329962
19546.321854
19548.3826425
19551.1203235
19555.3732295
19554.557891
19557.6924312
19551.5834657
19555.3636668
19554.3128891
19557.1849338
19543.0221742
19538.5202362
19544.6620652
19536.681591
19544.2457656
19539.0371803
19545.6755139
19552.9798514
19550.0586891
19554.6846625
19550.3874261
19554.167645
19551.1406509
19556.3047039
19547.0093831
19547.7910671
19551.0516207
19543.8324327
19548.6749717
19547.7345139
19551.7417906
19555.8413383
19554.7554445
19557.4661341
19553.2474525
19557.2166727
19555.3391684
19558.69896
19533.9522209
19538.0302164
18124.3600292
18219.0621699
19545.3247783
19542.2142347
19547.2107797
18192.3741349
18270.6245217
18261.1067252
18316.4778801
19555.7161607
19551.9762964
19556.5454997
18313.8797296
18411.6545826
18351.9889738
18427.1592447
19563.5351213
19560.6851529
19563.9670074
18440.7518525
18468.0207175
18447.2639323
18482.8472381
19568.0176134
19566.0332031
19567.6439149
18484.1498808
18532.4798303
18490.2751304
18524.7494821
19569.3136496
19568.6238248
19569.0551197
18538.1360368
18520.3728837
18537.1768367
18529.6158922
19567.1865617
19568.7502532
19566.775501
18508.7775482
18413.6964768
18526.2054533
18369.8073264
19559.9395834
19563.376331
19559.6635488
18284.3048278
17695.0321262
18212.1709224
17662.6823514
19555.7269246
19556.9686502
19555.9963268
17628.7433501
17406.3817183
17601.8585005
17353.9711014
19552.2296527
19547.6178621
18583.926739
18242.7209861
18549.78715
18423.4704633
19541.1102569
19544.9042107
19545.0142701
18278.5883533
18264.6016501
18446.077754
18410.7571803
19549.6883952
19547.9939657
19551.9956353
18292.6590868
18334.0459993
18414.9434409
18428.2252899
19557.9482191
19555.7862524
19559.0789943
18364.8751315
18440.9811666
18444.0287668
18497.4935288
19564.5211211
19562.1695959
19564.631375
18456.3241968
18490.2366406
18499.2133403
18526.0402384
19567.6239834
19566.3495995
19567.4902332
18496.6329239
18526.5373676
18528.091478
18534.3543655
19569.0781253
19568.5404779
19569.1316815
18537.0165533
18529.9338311
18536.0219777
18527.8784967
19566.6889367
19568.8047184
19566.7884069
18528.9733142
18363.5315575
18522.1345669
18355.6605258
19559.5096781
19563.2746647
19559.3472381
18201.851063
17668.4014203
18206.9640815
17664.9796564
19556.0993022
19556.393405
19555.9152682
17614.5763338
17344.7813149
17607.6761648
17340.409592
19551.0918496
19554.36745
19552.9094104
18562.7900663
18467.9927312
18584.2241493
18577.4666358
19549.22909
19552.1955723
19552.2843923
18487.9780111
18453.4115998
18581.6926454
18547.5526317
19554.0352205
19553.4165046
19555.6683049
18454.3543096
18461.3847044
18534.6942952
18529.2370848
19560.0991379
19558.2801775
19560.9996591
18472.2939229
18513.8230292
18529.9236059
18556.1747785
19564.9114413
19563.4049603
19565.5372523
18515.1875022
18536.6546689
18564.9331964
18561.3200316
19567.8467065
19567.0510545
19568.2827107
18538.6527061
18545.963531
18555.7247882
18561.8269139
19569.3848292
19569.2338554
19569.8366906
18545.570724
18537.2970092
18561.444875
18554.1380072
19567.1627824
19569.6677967
19567.7949135
18533.9640483
18378.9205836
18547.868567
18440.9181025
19559.4043657
19564.2979911
19559.6806548
18230.6488304
17661.9091998
18317.6365997
17707.4103405
19555.4238187
19556.2353282
19555.4218257
17594.3025856
17350.1553445
17614.3473384
17322.8820611
18577.5529497
18584.0650344
19554.1027944
19554.992177
18589.1662836
18557.8690245
18510.5725685
19556.8379611
19556.039306
19557.6817049
18545.8865922
18526.3836135
18509.4322446
18480.9370577
19561.7522522
19559.8914686
19562.3921984
18531.928353
18553.094428
18506.6769685
18538.6141677
19566.0656751
19564.6011843
19566.5178921
18565.2295854
18569.128769
18555.6159478
18579.9019046
19568.7946368
19567.994643
19569.2495958
18569.9510402
18580.0379948
18588.8072896
18607.3949258
19570.308717
19570.2615119
19570.8245162
18581.5702179
18574.8559924
18613.8228788
18611.5532063
19568.1926408
19570.4040728
19568.1254291
18570.7399888
18468.4716119
18607.1280697
18442.0202383
19559.7737829
19564.2526306
19559.6131367
18339.3450817
17706.2408918
18285.0510142
17686.3463427
19555.4499194
19556.4148615
19556.3647118
17609.2124543
17328.3581237
17639.0609584
17429.1031827
19562.9171421
19563.686691
18502.0600837
18543.5918259
18600.2331522
19566.87602
19565.7042559
19567.4875059
18559.5911595
18580.4613546
18613.3657739
18629.1381303
19569.6874675
19568.9391219
19570.2052071
18590.3348336
18609.9514717
18638.9901872
18652.2190575
19571.1476254
19571.1523671
19571.254984
18619.7033576
18624.8721867
18654.755785
18626.1692304
19567.551831
19569.8758637
19566.7410644
18617.5380776
18404.3460938
18580.796238
18251.1555464
19559.1133806
19562.4227244
19558.5465493
18240.8781137
17702.6081546
18095.0911009
17721.1088529
19557.0075828
19556.5942997
19557.4976621
17680.8557228
17473.1759042
17743.3985955
17576.3515816
19571.0595018
18608.9710838
19566.0763875
18556.0761306
18223.9976283
19558.26942
18081.0784645
17725.4362161
19557.3567043
17756.686695
17633.2062207
1.70757808504
0.381393046144
1.0014345899
0.112178252468
504.901919136
487.535764611
0.0721497399074
0.0776488170922
0.0587423198475
0.0815625228746
542.817264361
518.533064696
535.506295024
0.0987219890218
0.0830287637141
0.104120062017
0.171585291845
562.227569814
544.785182119
559.692592221
0.0417891476015
0.0337633424743
0.161738847634
0.109883325119
608.943341825
578.857656263
600.773196345
0.0746891711635
0.431538072273
0.121290117613
0.11176151175
613.849898719
613.63630131
614.745196658
0.637884485107
0.297739196554
0.106292090997
0.0855273194147
628.133093902
616.831226458
626.346103041
0.343100153836
0.479518118253
0.120826889812
0.203160181627
717.626578181
654.529507168
720.774388161
0.621542219076
2.59796623299
0.538711522354
3.3237882365
883.30325786
799.385177737
889.427853828
6.09290694126
10.3626818133
7.53202612914
11.649346036
984.250705152
959.269028935
992.901721271
17.8099492347
23.7766684523
18.5622168835
23.788547567
415.230135189
394.427798717
411.681013195
0.544013179027
0.106768413853
0.739216559267
0.289141606771
471.539972998
428.726568095
453.388350908
0.089706464689
0.0855260401026
0.117377547359
0.0705743380334
522.072725406
480.114227698
503.516931829
0.0877296814237
0.138467290834
0.0715848996182
0.0585543062614
553.402863959
524.347614116
541.696609784
0.168054558326
0.160320478337
0.128982203204
0.17098815957
594.295505476
563.073996734
580.311689489
0.148790856707
0.145611706649
0.296186833355
0.218274725846
611.924030359
595.063755749
603.442531879
0.0788190085954
0.0741840976561
0.196650668042
0.0917140067409
626.484387558
610.722511998
625.498022658
0.0724052795091
0.160416129237
0.116210985566
0.206890704891
724.159192633
658.709956616
728.424962014
0.516371310847
3.7479771166
1.0094240629
4.290978174
893.033212114
804.6385196
891.535607463
8.44273959853
12.6489658461
8.56584142696
12.7624701506
992.914314947
957.781821008
987.695876153
18.8539499756
23.3192672445
18.8818861928
22.9105391178
402.572365023
385.118468046
393.576701781
1.23752440147
0.63771728036
1.66643200218
0.83174933017
438.020809616
405.427278725
425.126487322
0.183385970086
0.0678729114591
0.201388806241
0.0750950540665
487.574339352
451.956055513
478.986316222
0.0555470835184
0.042375348374
0.0562477646266
0.0335479453127
532.099588264
504.610552711
525.278172202
0.032950738378
0.116917612115
0.0234428292396
0.885818281429
568.278121471
541.82521741
562.948161076
0.429155124374
0.896572604177
1.94176093316
2.5250587602
592.745549968
582.701881579
590.947580075
0.688354514071
0.504631583071
2.41929456333
1.66193715045
620.955361675
599.04290106
617.017090744
0.325040243871
0.418844314652
1.14011017816
0.926519631636
727.82099276
653.071173599
721.459662105
1.23010979768
4.2265801007
1.69837367179
4.05291229424
885.087502468
796.317665659
877.488979052
7.76048447777
11.6733195317
7.32585151409
11.1519260421
985.477556335
943.94486545
977.82511269
17.1704866587
20.6984108221
16.6057029095
20.3028552713
425.414989033
445.075068835
0.116063358717
0.0656273986046
0.388670774264
483.367294527
472.094778353
504.217405069
0.0415211338542
0.0478093525293
0.477682810293
0.816158411191
529.942787955
519.210021374
537.383663695
0.674619123174
1.57394550012
1.13316616493
1.18182891894
566.42003798
554.520961947
569.043749979
2.05800599272
2.27456902721
1.23058621956
1.05735639111
585.543467847
579.107127496
584.055281004
1.84991155783
1.24511654037
0.91380681524
0.71655016992
607.790215095
589.658560906
604.941064028
0.591102410195
0.533411145574
0.630985787941
0.605515834848
714.796898783
641.945553454
717.791096544
1.11642090689
3.62362188512
1.59047695856
4.40864056746
872.315901129
792.656876672
866.401453483
7.03126261096
10.8220557461
7.56654318325
10.8599054793
968.833419717
924.628399698
952.961055965
15.9814713371
19.4608433139
15.5359991277
18.7526431769
535.019438413
521.155762537
1.03520699398
0.487146594764
1.24866442863
0.509539854559
567.61878992
537.713030454
555.340693875
0.072748660109
0.0345722132871
0.187918907591
0.175005953041
583.329261927
568.032665025
575.892053356
0.0361889752869
0.0839422372347
0.141976634661
0.0837618521032
605.057717761
587.335384592
613.416006194
0.153035471031
0.623420965182
0.386192425053
2.00083265345
726.511041836
668.988836376
739.417858361
2.18064046759
5.38169823343
4.38168460812
6.85512238454
860.213651853
796.729250596
852.353329547
8.74849509294
11.8693693626
9.4478512563
11.7421677529
928.842945521
888.901163525
898.977546605
15.6567484805
18.4664344532
14.9540517671
17.3829284456
627.179410558
3.98313722288
747.005134515
5.49409085588
7.00589345892
5.3548679252
6.1426879252
846.077870158
9.1657900939
11.3518033426
7.73267974557
10.1952058681
873.877103442
15.3246027367
18.146768888
14.5953110055
17.9164939899
19535.4548869
19536.578519
18090.2238533
18181.5632672
19537.5422502
18163.0165146
19534.3137725
19536.5668928
19540.1506811
18208.2373031
18209.0774445
19538.8017814
19538.0101234
18186.728052
19542.2376341
19539.3923035
18211.4010238
18186.6988738
19539.8166242
18220.8418247
19541.8500746
19544.7691922
19546.8398766
18228.7646254
18279.5913349
19547.195658
18261.3086546
19544.3069025
19543.175172
19542.654797
18211.7279684
18273.8113056
19540.842237
19544.3922509
18242.5347684
19545.6550167
19548.5731556
18302.3151639
18285.235422
19547.8553432
19546.3052914
18283.2751343
19552.3455358
19549.5355408
18344.0901959
18302.8000447
19549.786926
18341.6619198
19551.8785153
19554.6308922
19556.8316851
18374.898247
18416.8219121
19556.5325956
18383.4041502
19554.211085
19552.6285126
19550.9192742
18324.1449858
18379.4484725
19550.1292482
19553.32511
18357.638218
19554.961281
19558.1447975
18421.3670792
18404.2640041
19557.1261326
19555.7118655
18390.8037789
19559.1135755
19559.063285
18454.3120493
18434.5712849
19557.6749089
18442.6090865
19561.2215764
19560.6902992
19564.4330453
18461.1220675
18458.7597833
19562.2047612
18448.6266361
19562.9485522
19560.6540908
19560.2328561
18443.5308362
18465.6470512
19558.8830172
19562.2852994
18456.2360651
19562.3829154
19565.1471339
18473.2527893
18476.9312291
19563.7429643
19563.9153789
18464.3893773
19565.2858779
19565.6853372
18506.6963597
18476.1365585
19563.5476075
18503.1470046
19566.9441512
19567.3880913
19569.3603751
18520.43694
18537.2809483
19569.0202542
18528.8442773
19568.1683927
19566.3158019
19566.1626667
18484.8832115
18500.3006449
19564.9470077
19567.0559326
18504.2723591
19567.6962442
19568.446089
18531.2119495
18510.0407919
19568.6773405
19567.8531696
18525.8386514
19569.9689213
19570.1683345
18543.0885544
18535.8726171
19569.7902252
18531.1002553
19570.5550117
19570.2424816
19571.2955681
18537.215546
18524.5039912
19570.470037
18527.2847746
19570.9149842
19570.0232421
19568.9467801
18530.228325
18538.8758623
19569.4374167
19569.3784746
18530.5030996
19570.5051869
19570.4687662
18531.2317919
18536.099074
19571.0108385
19569.9562311
18531.5139189
19571.1317885
19571.7742005
18502.2513626
18518.7756556
19570.9311941
18512.4978362
19571.9667258
19570.4219005
19569.0260905
18473.0486758
18403.6149197
19568.0244526
18476.0360521
19571.3623149
19571.5658477
19571.0585153
18525.3618313
18514.5128929
19571.5144986
19571.1015632
18513.6206153
19570.333954
19566.9369858
18379.5239875
18466.9479041
19567.3296373
19569.935811
18465.6984117
19557.3410472
19564.7242289
18092.6229193
18265.583586
19563.5598175
18068.5973376
19558.5044155
19550.8976958
19546.0887975
17871.1341652
17654.844264
19545.2634257
17854.7267776
19551.9202739
19556.5778436
19562.0749434
18236.5352721
18013.2810216
19562.6562353
19555.8701809
18045.4566756
19550.7189277
19545.9899406
17654.1412675
17816.4922617
19545.8524478
19550.0748384
17843.7598115
19539.517749
19542.2479481
17566.4469072
17596.8533841
19542.1100779
17579.2626851
19538.7046258
19535.1022702
19537.3888221
17403.3575367
17394.2764382
17447.9738528
19537.8133122
19533.6917246
19540.5843728
19544.0031084
17596.6127737
17571.1537669
19542.8835355
19541.5398131
17584.4333972
19536.1588428
19538.7296682
17350.8623308
17483.9501458
19536.892453
17494.4937308
19537.8390125
19546.3468993
19550.7694519
18622.5790702
18579.2483749
19546.7306371
18411.9319743
19551.7427154
19542.8719461
19538.3766275
18402.453993
18460.6800265
19542.2573845
19541.8867037
18418.1290834
19547.5127984
19550.8938392
18578.2438845
18596.8384078
19549.7781777
18434.0394627
19551.9664569
19544.9656645
19545.4620396
18487.7361612
18487.3428331
19544.2506388
19547.653372
18446.8781068
19540.5265403
19537.2242091
18309.0683801
18333.6464631
19538.9137668
19540.7082021
18300.205795
19541.8662972
19541.8464856
18262.4061938
18327.8205314
19539.9510544
19543.5101197
18330.3527475
19542.8528077
19544.8893504
18384.4751437
18449.4039055
19543.0678891
19545.3653393
18356.0331517
19543.7787043
19546.4047406
18371.2149896
18414.7101918
19545.0217591
19545.5378269
18376.9749565
19546.7463909
19543.9578386
18300.0521403
18316.2182835
19545.5241175
19545.0507331
18327.1422857
19548.657925
19549.2490489
18307.6747777
18364.7592928
19547.2003793
19550.7013448
18349.4085413
19547.9959913
19547.687193
18358.5565861
18412.3179144
19546.3925347
19549.0909258
18367.4006543
19549.7543716
19552.559839
18395.0575902
18415.1567074
19551.5245865
19550.7185258
18383.4558698
19555.1728292
19551.4771301
18390.9539373
18383.2249775
19553.7567571
19552.9426035
18408.757561
19557.1518979
19558.3152381
18417.3664259
18459.9622128
19556.0018048
19559.0223195
18432.8697689
19555.478735
19554.6061982
18412.8377358
18461.7444208
19553.4504757
19556.7403991
18438.531802
19557.3598552
19560.6146202
18473.3093789
18485.5250578
19559.1901954
19558.8595014
18456.2208897
19562.3437611
19560.3264891
18471.5867262
18480.0962535
19562.1595936
19560.7522595
18485.7024858
19563.8140582
19564.8542676
18482.9354372
18495.655523
19563.693904
19565.0307859
18488.9942295
19562.589957
19562.0982389
18491.3030012
18504.8315755
19560.9293893
19563.5377753
18500.0299682
19564.0355117
19565.9037895
18509.2323551
18518.0323277
19565.1938273
19564.8429633
18503.1394661
19566.9069823
19565.8239351
18504.7763959
18504.8618388
19566.6633791
19566.0402336
18513.6319937
19567.7113088
19568.1367974
18513.7839995
18530.5400652
19567.4238119
19568.3415968
18524.2377844
19566.9178988
19566.726572
18516.9293981
18531.7696495
19566.1144022
19567.4623409
18522.5402735
19567.5913439
19568.6631358
18533.2852655
18533.573244
19568.1419975
19568.11858
18527.9993175
19569.4365996
19568.8312747
18537.7296593
18529.8669786
19569.5665754
19568.9504776
18530.3465338
19569.9684238
19570.8065683
18534.9536727
18532.5696653
19570.2268501
19570.6482949
18532.1578245
19569.1408972
19569.1670089
18533.1593246
18536.8113331
19568.6552533
19569.6640045
18532.6167154
19569.7254458
19570.9380867
18532.9464644
18534.6849386
19570.4749435
19570.3085164
18532.9542551
19571.0408454
19571.4315963
18518.7322708
18529.5546952
19571.261693
19571.2574978
18512.958223
19569.5099339
19566.5046992
18466.144827
18351.0903116
19569.7918818
19566.2880236
18450.5543452
19570.8438436
19571.398607
18530.524112
18506.7107583
19571.0378606
19571.2589228
18514.3358337
19569.3328361
19566.6739591
18349.5873504
18451.8082385
19566.1001395
19569.874274
18450.4047291
19555.3241639
19561.5465224
18004.4661753
18198.0102146
19555.1079175
19561.4324785
18010.8362994
19549.7078992
19545.5728895
17810.9825967
17641.226383
19549.3808611
19545.1871029
17827.204783
19555.1727538
19561.9031786
18196.161164
18011.9487498
19561.2763722
19555.6046736
18008.6357158
19549.5580459
19545.3426463
17638.1685689
17814.2943612
19545.1089147
19549.6690219
17824.8214347
19540.7759155
19543.3840699
17579.4762072
17580.4279539
19540.9738832
19542.6721236
17592.5181655
19536.8931649
19538.0675799
17500.3847912
17332.0718388
19536.5022511
17535.7948405
19537.9196786
19540.6358865
19542.9391154
17578.6842826
17574.2581725
19542.4737849
19540.5711074
17590.5343194
19536.8919649
19538.1940678
17334.8060179
17500.1900688
19536.3251329
17534.2759658
19538.0160237
19551.0790744
19550.9460374
18606.094368
18620.3235876
19550.5653849
18529.295067
19552.8853227
19549.7317015
19547.3689316
18519.4307772
18557.4267221
19549.2490654
19549.3805169
18536.5600071
19552.0701224
19552.4067155
18644.4278832
18628.9595733
19552.648923
18555.6310935
19553.6938892
19551.0640636
19551.6000372
18580.395292
18604.1246962
19551.0371019
19552.3065356
18560.3066243
19548.9312514
19546.9907866
18485.3457848
18519.6436117
19547.5319301
19548.9243165
18504.5157987
19549.3207344
19548.3859572
18456.1637594
18498.1377938
19547.6665452
19549.9283779
18506.7267556
19550.7033136
19551.5153551
18553.5945691
18577.1334203
19550.6884934
19551.8908928
18540.0700896
19551.0710251
19552.5013093
18525.5314435
18558.9349157
19551.5115184
19552.0520718
18538.5149827
19551.9832066
19549.5538106
18448.857946
18486.361317
19550.8128384
19550.8129293
18485.2942067
19553.2793635
19553.9910042
18450.6158393
18486.8821713
19552.2636457
19554.7446904
18484.7493088
19553.2033873
19553.2191512
18513.3736538
18520.8310446
19552.1957941
19554.0879401
18513.3256385
19554.3888592
19556.6772183
18511.3114508
18522.6342683
19555.6428099
19555.2464075
18512.0808608
19558.1120579
19555.8561698
18483.1552219
18497.6185132
19557.6536433
19556.3616907
18513.3891678
19559.7211879
19560.9483973
18501.1759351
18521.8938959
19559.3883149
19561.0884093
18517.7278328
19558.5763219
19558.1397846
18516.5729186