/*--------------------------------*- C++ -*----------------------------------*\
| =========                 |                                                 |
| \\      /  F ield         | OpenFOAM: The Open Source CFD Toolbox           |
|  \\    /   O peration     | Version:  v1906                                 |
|   \\  /    A nd           | Web:      www.OpenFOAM.com                      |
|    \\/     M anipulation  |                                                 |
\*---------------------------------------------------------------------------*/
FoamFile
{
    version     2.0;
    format      ascii;
    class       volVectorField;
    location    "4.2";
    object      force.turbine;
}
// * * * * * * * * * * * * * * * * * * * * * * * * * * * * * * * * * * * * * //

dimensions      [1 -2 -2 0 0 0 0];


internalField   nonuniform List<vector> 
28582
(
(0 0 0)
(0 0 0)
(0 0 0)
(0 0 0)
(0 0 0)
(0 0 0)
(0 0 0)
(0 0 0)
(0 0 0)
(0 0 0)
(0 0 0)
(0 0 0)
(0 0 0)
(0 0 0)
(0 0 0)
(0 0 0)
(0 0 0)
(0 0 0)
(0 0 0)
(0 0 0)
(0 0 0)
(0 0 0)
(0 0 0)
(0 0 0)
(0 0 0)
(0 0 0)
(0 0 0)
(0 0 0)
(0 0 0)
(0 0 0)
(0 0 0)
(0 0 0)
(0 0 0)
(0 0 0)
(0 0 0)
(0 0 0)
(0 0 0)
(0 0 0)
(0 0 0)
(0 0 0)
(0 0 0)
(0 0 0)
(0 0 0)
(0 0 0)
(0 0 0)
(0 0 0)
(0 0 0)
(0 0 0)
(0 0 0)
(0 0 0)
(0 0 0)
(0 0 0)
(0 0 0)
(0 0 0)
(0 0 0)
(0 0 0)
(0 0 0)
(0 0 0)
(0 0 0)
(0 0 0)
(0 0 0)
(0 0 0)
(0 0 0)
(0 0 0)
(0 0 0)
(0 0 0)
(0 0 0)
(0 0 0)
(0 0 0)
(0 0 0)
(0 0 0)
(0 0 0)
(0 0 0)
(0 0 0)
(0 0 0)
(0 0 0)
(0 0 0)
(0 0 0)
(0 0 0)
(0 0 0)
(0 0 0)
(0 0 0)
(0 0 0)
(0 0 0)
(0 0 0)
(0 0 0)
(0 0 0)
(0 0 0)
(0 0 0)
(0 0 0)
(0 0 0)
(0 0 0)
(0 0 0)
(0 0 0)
(0 0 0)
(0 0 0)
(0 0 0)
(0 0 0)
(0 0 0)
(0 0 0)
(0 0 0)
(0 0 0)
(0 0 0)
(0 0 0)
(0 0 0)
(0 0 0)
(0 0 0)
(0 0 0)
(0 0 0)
(0 0 0)
(0 0 0)
(0 0 0)
(0 0 0)
(0 0 0)
(0 0 0)
(0 0 0)
(0 0 0)
(0 0 0)
(0 0 0)
(0 0 0)
(0 0 0)
(0 0 0)
(0 0 0)
(0 0 0)
(0 0 0)
(0 0 0)
(0 0 0)
(0 0 0)
(0 0 0)
(0 0 0)
(0 0 0)
(0 0 0)
(0 0 0)
(0 0 0)
(0 0 0)
(0 0 0)
(0 0 0)
(0 0 0)
(0 0 0)
(0 0 0)
(0 0 0)
(0 0 0)
(0 0 0)
(0 0 0)
(0 0 0)
(0 0 0)
(0 0 0)
(0 0 0)
(0 0 0)
(0 0 0)
(0 0 0)
(0 0 0)
(0 0 0)
(0 0 0)
(0 0 0)
(0 0 0)
(0 0 0)
(0 0 0)
(0 0 0)
(0 0 0)
(0 0 0)
(0 0 0)
(0 0 0)
(0 0 0)
(0 0 0)
(0 0 0)
(0 0 0)
(0 0 0)
(0 0 0)
(0 0 0)
(0 0 0)
(0 0 0)
(0 0 0)
(0 0 0)
(0 0 0)
(0 0 0)
(0 0 0)
(0 0 0)
(0 0 0)
(0 0 0)
(0 0 0)
(0 0 0)
(0 0 0)
(0 0 0)
(0 0 0)
(0 0 0)
(0 0 0)
(0 0 0)
(0 0 0)
(0 0 0)
(0 0 0)
(0 0 0)
(0 0 0)
(0 0 0)
(0 0 0)
(0 0 0)
(0 0 0)
(0 0 0)
(0 0 0)
(0 0 0)
(0 0 0)
(0 0 0)
(0 0 0)
(0 0 0)
(0 0 0)
(0 0 0)
(0 0 0)
(0 0 0)
(0 0 0)
(0 0 0)
(0 0 0)
(0 0 0)
(0 0 0)
(0 0 0)
(0 0 0)
(0 0 0)
(0 0 0)
(-0.00188477490387 2.42481122502e-05 0)
(0 0 0)
(0 0 0)
(0 0 0)
(0 0 0)
(-2.55408367835e-05 3.75465545517e-08 0)
(0 0 0)
(-2.58169980925e-06 -5.10448764769e-09 0)
(0 0 0)
(0 0 0)
(0 0 0)
(0 0 0)
(0 0 0)
(0 0 0)
(0 0 0)
(0 0 0)
(0 0 0)
(0 0 0)
(0 0 0)
(0 0 0)
(-0.0160984787591 0.000437095656211 0)
(0 0 0)
(0 0 0)
(0 0 0)
(-0.029992926903 0.000525438065999 0)
(0 0 0)
(0 0 0)
(-0.0285768491198 0.000759355056072 0)
(-0.128072791122 0.00340319959966 0)
(-0.0812258697136 0.00142297429089 0)
(-0.779655307523 0.0136769357298 0)
(-0.00603968711672 2.94698826265e-05 0)
(-0.0804905038568 0.00141009161309 0)
(0 0 0)
(0 0 0)
(0 0 0)
(0 0 0)
(0 0 0)
(-0.0160982891609 0.000437090508361 0)
(0 0 0)
(0 0 0)
(0 0 0)
(-0.0295909008813 0.000518395079631 0)
(0 0 0)
(0 0 0)
(0 0 0)
(0 0 0)
(0 0 0)
(0 0 0)
(0 0 0)
(0 0 0)
(-1.65646259017e-05 4.83306711745e-08 0)
(0 0 0)
(-1.04581071486e-05 3.05136584855e-08 0)
(-0.000157938415081 1.28568494881e-06 0)
(-0.000710815809352 5.78633885236e-06 0)
(-9.71235791256e-05 7.90626674281e-07 0)
(-0.000425456170365 3.46339169186e-06 0)
(0 0 0)
(0 0 0)
(-0.000190033530639 7.63513345256e-07 0)
(0 0 0)
(0 0 0)
(0 0 0)
(0 0 0)
(0 0 0)
(0 0 0)
(-0.00860820106279 0.000110746713156 0)
(-0.000401154497589 3.90044171825e-06 0)
(-0.00193522215252 2.48971290349e-05 0)
(-3.41913473592e-05 2.25894429908e-07 0)
(-0.000155156954288 1.26304269123e-06 0)
(-4.44043019596e-06 -8.77953393517e-09 0)
(-3.40835659836e-05 2.25182342954e-07 0)
(0 0 0)
(0 0 0)
(0 0 0)
(0 0 0)
(0 0 0)
(-0.00020734468763 8.33065804449e-07 0)
(0 0 0)
(0 0 0)
(0 0 0)
(0 0 0)
(0 0 0)
(0 0 0)
(0 0 0)
(0 0 0)
(0 0 0)
(0 0 0)
(0 0 0)
(0 0 0)
(0 0 0)
(0 0 0)
(0 0 0)
(0 0 0)
(0 0 0)
(0 0 0)
(0 0 0)
(0 0 0)
(-0.00519598890688 2.8353779309e-05 0)
(0 0 0)
(0 0 0)
(0 0 0)
(0 0 0)
(0 0 0)
(-0.00477997474178 2.33232768313e-05 0)
(0 0 0)
(0 0 0)
(0 0 0)
(0 0 0)
(0 0 0)
(0 0 0)
(0 0 0)
(0 0 0)
(0 0 0)
(0 0 0)
(0 0 0)
(0 0 0)
(0 0 0)
(0 0 0)
(0 0 0)
(0 0 0)
(0 0 0)
(0 0 0)
(0 0 0)
(0 0 0)
(0 0 0)
(0 0 0)
(-0.0362705671398 0.000766504937766 0)
(-0.00886919584076 0.000110673345402 0)
(-0.0145388285527 0.000181421272352 0)
(-0.0102997498884 0.000149025663016 0)
(-0.0194131709699 0.000410258029568 0)
(0 0 0)
(0 0 0)
(0 0 0)
(0 0 0)
(0 0 0)
(0 0 0)
(0 0 0)
(0 0 0)
(0 0 0)
(0 0 0)
(-0.00534540961127 2.60822441279e-05 0)
(0 0 0)
(-0.00802079366765 0.000116051759236 0)
(0 0 0)
(0 0 0)
(-0.130450841963 0.0027486577334 0)
(-0.101597023599 0.00214069484261 0)
(-0.197488014247 0.0034643910613 0)
(-0.0433843025677 0.000760037995277 0)
(-0.243719885964 0.00513528727955 0)
(-0.0527711226774 0.0011152107423 0)
(-0.103972271618 0.00182146242322 0)
(-0.27616359049 0.00581889068143 0)
(-0.963902733892 0.0203098628103 0)
(-0.417826206384 0.00732962645904 0)
(-0.416229269321 0.00730161253371 0)
(-0.515948233462 0.0108712606266 0)
(-0.222971640246 0.00391143209543 0)
(-0.51593009451 0.0108708784307 0)
(-0.061619418398 0.00129834877536 0)
(-0.00908880321915 0.000131504642388 0)
(-0.0204422477997 0.000358122272738 0)
(-0.0203512950138 0.000356528895203 0)
(-0.0249263962618 0.000526768874104 0)
(-0.0249269575859 0.000526780736551 0)
(-0.0489771674295 0.000858017899202 0)
(-0.130446878385 0.00274857421902 0)
(-0.101594007693 0.00214063129612 0)
(-0.196015747837 0.00343856414409 0)
(-0.0430506625417 0.000754193044881 0)
(-0.0527699629632 0.00111518623409 0)
(-0.103420825947 0.00181180179398 0)
(-0.243703210839 0.00513493592717 0)
(0 0 0)
(0 0 0)
(0 0 0)
(0 0 0)
(0 0 0)
(0 0 0)
(0 0 0)
(0 0 0)
(0 0 0)
(0 0 0)
(0 0 0)
(0 0 0)
(0 0 0)
(0 0 0)
(0 0 0)
(0 0 0)
(0 0 0)
(0 0 0)
(0 0 0)
(0 0 0)
(0 0 0)
(0 0 0)
(0 0 0)
(-0.00530360032636 2.58782410571e-05 0)
(0 0 0)
(-0.00802091236848 0.000116053476702 0)
(0 0 0)
(0 0 0)
(0 0 0)
(-0.0362671262797 0.000766432222159 0)
(-0.0143770233033 0.000179402202238 0)
(-0.00871400210333 0.000108736776359 0)
(-0.0194131713282 0.000410258037141 0)
(0 0 0)
(-0.0102988955103 0.000149013301138 0)
(0 0 0)
(0 0 0)
(0 0 0)
(0 0 0)
(0 0 0)
(0 0 0)
(0 0 0)
(0 0 0)
(0 0 0)
(0 0 0)
(0 0 0)
(0 0 0)
(0 0 0)
(0 0 0)
(0 0 0)
(0 0 0)
(0 0 0)
(0 0 0)
(0 0 0)
(0 0 0)
(0 0 0)
(0 0 0)
(0 0 0)
(0 0 0)
(0 0 0)
(0 0 0)
(0 0 0)
(0 0 0)
(0 0 0)
(0 0 0)
(0 0 0)
(0 0 0)
(0 0 0)
(0 0 0)
(0 0 0)
(0 0 0)
(-0.0150357271627 0.000285986953726 0)
(0 0 0)
(0 0 0)
(0 0 0)
(0 0 0)
(0 0 0)
(0 0 0)
(0 0 0)
(-0.00335485085701 6.38109195796e-05 0)
(0 0 0)
(0 0 0)
(0 0 0)
(0 0 0)
(0 0 0)
(0 0 0)
(0 0 0)
(0 0 0)
(0 0 0)
(0 0 0)
(0 0 0)
(0 0 0)
(0 0 0)
(0 0 0)
(0 0 0)
(0 0 0)
(0 0 0)
(0 0 0)
(0 0 0)
(0 0 0)
(0 0 0)
(0 0 0)
(0 0 0)
(0 0 0)
(0 0 0)
(0 0 0)
(0 0 0)
(-0.321900534202 0.00858148429881 0)
(-0.00771908454751 0.000146820798981 0)
(0 0 0)
(0 0 0)
(0 0 0)
(0 0 0)
(0 0 0)
(0 0 0)
(-0.0706827014489 0.00190117047744 0)
(0 0 0)
(0 0 0)
(0 0 0)
(0 0 0)
(0 0 0)
(0 0 0)
(0 0 0)
(0 0 0)
(0 0 0)
(0 0 0)
(0 0 0)
(0 0 0)
(0 0 0)
(0 0 0)
(0 0 0)
(0 0 0)
(0 0 0)
(0 0 0)
(0 0 0)
(0 0 0)
(0 0 0)
(0 0 0)
(0 0 0)
(0 0 0)
(0 0 0)
(0 0 0)
(0 0 0)
(-1.51539160754 0.0519686044083 0)
(-0.0431955233192 0.00152824575697 0)
(0 0 0)
(0 0 0)
(0 0 0)
(0 0 0)
(0 0 0)
(0 0 0)
(-0.332417780225 0.011270967214 0)
(-0.00656675758858 0.000251492454727 0)
(0 0 0)
(0 0 0)
(0 0 0)
(0 0 0)
(0 0 0)
(0 0 0)
(0 0 0)
(0 0 0)
(0 0 0)
(0 0 0)
(0 0 0)
(0 0 0)
(0 0 0)
(0 0 0)
(0 0 0)
(0 0 0)
(0 0 0)
(0 0 0)
(0 0 0)
(0 0 0)
(0 0 0)
(0 0 0)
(0 0 0)
(0 0 0)
(0 0 0)
(0 0 0)
(0 0 0)
(0 0 0)
(0 0 0)
(0 0 0)
(0 0 0)
(0 0 0)
(0 0 0)
(-2.57247501589 0.0683567982512 0)
(-0.0776692957046 0.00206385848026 0)
(0 0 0)
(0 0 0)
(0 0 0)
(0 0 0)
(0 0 0)
(0 0 0)
(-2.57238524943 0.0683544129422 0)
(-0.573975093958 0.0152518875622 0)
(-0.0160982953908 0.000437090677513 0)
(0 0 0)
(0 0 0)
(0 0 0)
(0 0 0)
(0 0 0)
(0 0 0)
(-0.0471145532988 0.00125194608097 0)
(-0.0776786759551 0.00206410773589 0)
(-0.0160982345914 0.000437089026726 0)
(0 0 0)
(0 0 0)
(0 0 0)
(0 0 0)
(0 0 0)
(0 0 0)
(0 0 0)
(0 0 0)
(0 0 0)
(0 0 0)
(0 0 0)
(0 0 0)
(0 0 0)
(0 0 0)
(0 0 0)
(0 0 0)
(0 0 0)
(0 0 0)
(0 0 0)
(0 0 0)
(0 0 0)
(0 0 0)
(0 0 0)
(0 0 0)
(0 0 0)
(0 0 0)
(-0.0346409926066 0.000446881752963 0)
(-0.00103824681725 1.33573114309e-05 0)
(0 0 0)
(0 0 0)
(0 0 0)
(0 0 0)
(0 0 0)
(0 0 0)
(-0.0227250756038 0.000293161969617 0)
(-0.0357384803467 0.000461039755036 0)
(-0.00727344715892 9.35747620542e-05 0)
(-0.000174702260483 7.01915640241e-07 0)
(0 0 0)
(0 0 0)
(0 0 0)
(0 0 0)
(0 0 0)
(0 0 0)
(-0.000666749610668 6.48283395227e-06 0)
(-0.00111828694303 1.43870481652e-05 0)
(-0.000189290521184 7.6052809506e-07 0)
(0 0 0)
(0 0 0)
(0 0 0)
(0 0 0)
(0 0 0)
(0 0 0)
(0 0 0)
(0 0 0)
(0 0 0)
(0 0 0)
(0 0 0)
(0 0 0)
(0 0 0)
(0 0 0)
(0 0 0)
(0 0 0)
(0 0 0)
(0 0 0)
(0 0 0)
(0 0 0)
(0 0 0)
(0 0 0)
(0 0 0)
(0 0 0)
(0 0 0)
(0 0 0)
(-0.000194180997143 6.23205938591e-07 0)
(-0.000192845392366 6.18919438672e-07 0)
(-2.48961830905e-05 3.65988751449e-08 0)
(0 0 0)
(0 0 0)
(0 0 0)
(0 0 0)
(0 0 0)
(0 0 0)
(0 0 0)
(-2.50280793084e-05 3.67927704579e-08 0)
(-2.49135348681e-05 3.66243832937e-08 0)
(-2.53255785315e-06 -5.00732510889e-09 0)
(0 0 0)
(0 0 0)
(0 0 0)
(0 0 0)
(0 0 0)
(0 0 0)
(0 0 0)
(0 0 0)
(0 0 0)
(0 0 0)
(0 0 0)
(0 0 0)
(0 0 0)
(0 0 0)
(0 0 0)
(0 0 0)
(0 0 0)
(0 0 0)
(0 0 0)
(0 0 0)
(0 0 0)
(0 0 0)
(0 0 0)
(0 0 0)
(0 0 0)
(0 0 0)
(0 0 0)
(0 0 0)
(0 0 0)
(0 0 0)
(0 0 0)
(0 0 0)
(0 0 0)
(0 0 0)
(0 0 0)
(0 0 0)
(-0.00335489069145 6.38116772502e-05 0)
(-0.00911948012358 0.000173457014209 0)
(-0.0020348150819 3.87031874394e-05 0)
(-0.0866850537905 0.00199292294623 0)
(-0.0177622287564 0.000337846360102 0)
(-0.0525766989728 0.00120875866413 0)
(-0.0107732699631 0.000204912913427 0)
(0 0 0)
(0 0 0)
(0 0 0)
(-0.00240365471764 4.57186994061e-05 0)
(0 0 0)
(0 0 0)
(0 0 0)
(0 0 0)
(0 0 0)
(0 0 0)
(-0.0177622282705 0.00033784635086 0)
(-0.00396324812485 7.53829359777e-05 0)
(-0.00396331686902 7.53842435257e-05 0)
(0 0 0)
(0 0 0)
(0 0 0)
(0 0 0)
(0 0 0)
(0 0 0)
(0 0 0)
(0 0 0)
(-0.0706817935567 0.00190114605764 0)
(-0.19524343537 0.00520495711267 0)
(-0.0428706811437 0.00115310354114 0)
(-0.802417980993 0.024776442238 0)
(-0.176940076001 0.00553229886211 0)
(-0.486684470967 0.015027466942 0)
(-0.107311447576 0.00335525457394 0)
(0 0 0)
(-0.0046814369622 8.90432422316e-05 0)
(0 0 0)
(-0.0227985655253 0.000734942681531 0)
(0 0 0)
(-0.0121900054975 0.000381347928177 0)
(0 0 0)
(-0.0149312615915 0.000391160469107 0)
(-0.0149311783444 0.000391158288248 0)
(-0.00283981371137 5.40146587972e-05 0)
(-0.176944745335 0.00553244485588 0)
(-0.0375977463399 0.0012120143473 0)
(-0.0375979814998 0.001212021928 0)
(-0.00739696195486 0.000231404006903 0)
(0 0 0)
(0 0 0)
(0 0 0)
(-0.00335466522355 6.38073887394e-05 0)
(0 0 0)
(0 0 0)
(0 0 0)
(-0.332395315648 0.0112702055294 0)
(-0.903599400785 0.0306374683506 0)
(-0.201612017044 0.00683586308924 0)
(-2.22881708296 0.0729737904479 0)
(-0.49156062847 0.0159564371889 0)
(-1.3363392967 0.0433786044199 0)
(-0.298160612546 0.00967852348364 0)
(0 0 0)
(-0.026202173212 0.000927025695201 0)
(0 0 0)
(-0.0665002058532 0.0021586479801 0)
(0 0 0)
(-0.0403446807609 0.00130961945929 0)
(0 0 0)
(-0.074170387542 0.0025148233818 0)
(-0.0741710433299 0.00251484561696 0)
(-0.0140136576547 0.000540009031339 0)
(-0.491604916407 0.0159578748095 0)
(-0.109689479292 0.00356060511202 0)
(-0.109689857213 0.00356061737963 0)
(-0.0244750580985 0.00079447926588 0)
(0 0 0)
(0 0 0)
(0 0 0)
(-0.0133421012362 0.000484826750004 0)
(0 0 0)
(0 0 0)
(0 0 0)
(-7.18216396259 0.196576697073 0)
(-4.26693794584 0.114158089485 0)
(-4.4033245708 0.077244375266 0)
(-2.09000188528 0.0366634090532 0)
(-0.573972299281 0.015251813301 0)
(-1.56026253192 0.0414598977461 0)
(-0.348133199165 0.00925072963309 0)
(-2.6710348137 0.0468560543699 0)
(-0.282130389113 0.00494921173768 0)
(-1.26793177676 0.0222424207893 0)
(-0.133781783476 0.00234683819473 0)
(0 0 0)
(-0.047113254261 0.00125191156244 0)
(0 0 0)
(-0.10225367171 0.00179135473101 0)
(0 0 0)
(-0.0484508076302 0.000848796742632 0)
(0 0 0)
(0 0 0)
(0 0 0)
(0 0 0)
(0 0 0)
(0 0 0)
(0 0 0)
(0 0 0)
(0 0 0)
(0 0 0)
(0 0 0)
(0 0 0)
(0 0 0)
(0 0 0)
(0 0 0)
(0 0 0)
(0 0 0)
(0 0 0)
(0 0 0)
(0 0 0)
(0 0 0)
(0 0 0)
(0 0 0)
(0 0 0)
(0 0 0)
(0 0 0)
(0 0 0)
(0 0 0)
(0 0 0)
(0 0 0)
(0 0 0)
(0 0 0)
(0 0 0)
(0 0 0)
(0 0 0)
(0 0 0)
(0 0 0)
(0 0 0)
(0 0 0)
(0 0 0)
(0 0 0)
(0 0 0)
(0 0 0)
(-0.348137606904 0.00925084675722 0)
(-0.573980341036 0.0152520269896 0)
(-1.28268408969 0.0225012100695 0)
(-2.69598308017 0.0472937039746 0)
(-0.134765505142 0.00236409492072 0)
(-0.284455738456 0.00499000367894 0)
(-1.56022837397 0.041458990088 0)
(-0.573978239304 0.0152519711415 0)
(-0.34813458863 0.00925076655449 0)
(-2.68720176467 0.0471396596341 0)
(-1.26833365754 0.0222494706966 0)
(-0.284135234744 0.00498438131143 0)
(-0.133706615881 0.00234551958334 0)
(-0.128070972548 0.00340315127579 0)
(-0.128070928287 0.00340315009968 0)
(-0.0285764635378 0.000759344810238 0)
(-0.770154323013 0.0135102667503 0)
(-0.080018241102 0.00140181816817 0)
(-0.0798844727579 0.00139947471632 0)
(-0.0059843480307 2.91998626175e-05 0)
(0 0 0)
(0 0 0)
(0 0 0)
(-0.0294353901729 0.000515670729116 0)
(0 0 0)
(0 0 0)
(0 0 0)
(0 0 0)
(0 0 0)
(0 0 0)
(0 0 0)
(0 0 0)
(0 0 0)
(0 0 0)
(0 0 0)
(0 0 0)
(0 0 0)
(0 0 0)
(0 0 0)
(0 0 0)
(0 0 0)
(0 0 0)
(0 0 0)
(0 0 0)
(0 0 0)
(0 0 0)
(0 0 0)
(0 0 0)
(0 0 0)
(0 0 0)
(0 0 0)
(0 0 0)
(0 0 0)
(0 0 0)
(0 0 0)
(0 0 0)
(0 0 0)
(0 0 0)
(0 0 0)
(0 0 0)
(0 0 0)
(0 0 0)
(0 0 0)
(0 0 0)
(0 0 0)
(0 0 0)
(0 0 0)
(0 0 0)
(0 0 0)
(-0.0776786082837 0.0020641059377 0)
(0 0 0)
(0 0 0)
(-0.0487787051687 0.000854541091926 0)
(-0.103072329331 0.00180569657495 0)
(0 0 0)
(0 0 0)
(-0.0471143643734 0.00125194106077 0)
(0 0 0)
(0 0 0)
(-0.10298455788 0.00180415893038 0)
(-0.0484110027592 0.000848099411742 0)
(0 0 0)
(0 0 0)
(0 0 0)
(0 0 0)
(0 0 0)
(-0.0293642344667 0.000514424171326 0)
(0 0 0)
(0 0 0)
(0 0 0)
(0 0 0)
(0 0 0)
(0 0 0)
(0 0 0)
(0 0 0)
(0 0 0)
(0 0 0)
(0 0 0)
(0 0 0)
(0 0 0)
(0 0 0)
(0 0 0)
(0 0 0)
(0 0 0)
(0 0 0)
(0 0 0)
(0 0 0)
(0 0 0)
(0 0 0)
(0 0 0)
(0 0 0)
(0 0 0)
(0 0 0)
(0 0 0)
(0 0 0)
(0 0 0)
(0 0 0)
(0 0 0)
(0 0 0)
(0 0 0)
(0 0 0)
(0 0 0)
(0 0 0)
(0 0 0)
(0 0 0)
(0 0 0)
(0 0 0)
(0 0 0)
(0 0 0)
(0 0 0)
(0 0 0)
(0 0 0)
(0 0 0)
(0 0 0)
(0 0 0)
(0 0 0)
(0 0 0)
(0 0 0)
(0 0 0)
(0 0 0)
(0 0 0)
(0 0 0)
(0 0 0)
(0 0 0)
(0 0 0)
(0 0 0)
(0 0 0)
(0 0 0)
(0 0 0)
(0 0 0)
(0 0 0)
(0 0 0)
(0 0 0)
(0 0 0)
(0 0 0)
(0 0 0)
(0 0 0)
(0 0 0)
(0 0 0)
(0 0 0)
(0 0 0)
(0 0 0)
(0 0 0)
(0 0 0)
(0 0 0)
(0 0 0)
(0 0 0)
(0 0 0)
(0 0 0)
(0 0 0)
(0 0 0)
(0 0 0)
(0 0 0)
(0 0 0)
(0 0 0)
(0 0 0)
(0 0 0)
(0 0 0)
(0 0 0)
(0 0 0)
(0 0 0)
(0 0 0)
(0 0 0)
(0 0 0)
(0 0 0)
(0 0 0)
(0 0 0)
(0 0 0)
(0 0 0)
(0 0 0)
(0 0 0)
(0 0 0)
(0 0 0)
(0 0 0)
(0 0 0)
(0 0 0)
(0 0 0)
(0 0 0)
(0 0 0)
(0 0 0)
(0 0 0)
(0 0 0)
(0 0 0)
(0 0 0)
(0 0 0)
(0 0 0)
(0 0 0)
(0 0 0)
(0 0 0)
(0 0 0)
(0 0 0)
(0 0 0)
(0 0 0)
(0 0 0)
(0 0 0)
(0 0 0)
(0 0 0)
(0 0 0)
(0 0 0)
(0 0 0)
(0 0 0)
(0 0 0)
(0 0 0)
(0 0 0)
(0 0 0)
(0 0 0)
(0 0 0)
(0 0 0)
(0 0 0)
(0 0 0)
(0 0 0)
(0 0 0)
(0 0 0)
(0 0 0)
(0 0 0)
(0 0 0)
(0 0 0)
(0 0 0)
(0 0 0)
(0 0 0)
(0 0 0)
(0 0 0)
(0 0 0)
(0 0 0)
(0 0 0)
(0 0 0)
(0 0 0)
(0 0 0)
(0 0 0)
(0 0 0)
(0 0 0)
(0 0 0)
(0 0 0)
(0 0 0)
(0 0 0)
(0 0 0)
(0 0 0)
(0 0 0)
(0 0 0)
(0 0 0)
(-0.00180630209878 1.47308356867e-05 0)
(-0.0026306968901 2.14539769709e-05 0)
(-0.00105976516398 8.62693297197e-06 0)
(-0.00156444256593 1.2758412004e-05 0)
(-0.0930142482536 0.00119991856995 0)
(-0.0554356543507 0.000715140662226 0)
(-0.00247319697041 2.01695265795e-05 0)
(-0.0014957193638 1.21979574715e-05 0)
(-0.00149885806747 1.22235543681e-05 0)
(-0.000905974865625 7.37501543333e-06 0)
(-0.00771052886089 9.91979301843e-05 0)
(-0.0203314179527 0.0002622828912 0)
(-0.00453020936021 5.82823046178e-05 0)
(-0.000549492352191 4.4730982411e-06 0)
(-0.000122627744525 9.98241278801e-07 0)
(-0.000333296876803 2.71317638443e-06 0)
(-7.44120616854e-05 6.05745395571e-07 0)
(0 0 0)
(-0.000581109256687 5.65014925986e-06 0)
(0 0 0)
(-1.4539323219e-05 4.24214379345e-08 0)
(0 0 0)
(-8.82944540119e-06 2.57617059914e-08 0)
(0 0 0)
(0 0 0)
(0 0 0)
(0 0 0)
(0 0 0)
(0 0 0)
(0 0 0)
(0 0 0)
(0 0 0)
(0 0 0)
(0 0 0)
(0 0 0)
(0 0 0)
(0 0 0)
(0 0 0)
(0 0 0)
(0 0 0)
(0 0 0)
(0 0 0)
(0 0 0)
(0 0 0)
(0 0 0)
(0 0 0)
(0 0 0)
(0 0 0)
(0 0 0)
(0 0 0)
(0 0 0)
(0 0 0)
(0 0 0)
(0 0 0)
(0 0 0)
(0 0 0)
(0 0 0)
(0 0 0)
(0 0 0)
(0 0 0)
(0 0 0)
(0 0 0)
(0 0 0)
(0 0 0)
(0 0 0)
(0 0 0)
(-0.0366798611233 0.000473183918929 0)
(-0.0051970132371 6.68609074113e-05 0)
(-0.00838499442253 0.000107875102516 0)
(-0.000388883366552 3.16567372772e-06 0)
(-0.000592530860862 4.82344975494e-06 0)
(-8.94909366396e-05 7.28493762798e-07 0)
(-0.000137362673172 1.11818977882e-06 0)
(-0.0208563940913 0.000269055279617 0)
(-0.00818216071152 0.000105265594833 0)
(-0.00479959003071 6.17479559923e-05 0)
(-0.000573630049647 4.66958922337e-06 0)
(-0.000336015834873 2.73530984363e-06 0)
(-0.000132748635066 1.08062957319e-06 0)
(-7.78198626364e-05 6.33486324775e-07 0)
(-0.00161316781534 2.0753817437e-05 0)
(-0.00169112677294 2.17567794093e-05 0)
(-0.000343322751153 3.33814126345e-06 0)
(-0.000122631765772 9.98274013443e-07 0)
(-2.66819763998e-05 1.76281729536e-07 0)
(-2.70841991324e-05 1.78939123348e-07 0)
(-3.46688224672e-06 -6.85465348874e-09 0)
(0 0 0)
(0 0 0)
(0 0 0)
(0 0 0)
(0 0 0)
(0 0 0)
(0 0 0)
(0 0 0)
(0 0 0)
(0 0 0)
(0 0 0)
(0 0 0)
(0 0 0)
(0 0 0)
(0 0 0)
(0 0 0)
(0 0 0)
(0 0 0)
(0 0 0)
(0 0 0)
(0 0 0)
(0 0 0)
(0 0 0)
(0 0 0)
(0 0 0)
(0 0 0)
(0 0 0)
(0 0 0)
(0 0 0)
(0 0 0)
(0 0 0)
(0 0 0)
(0 0 0)
(0 0 0)
(0 0 0)
(0 0 0)
(0 0 0)
(0 0 0)
(0 0 0)
(0 0 0)
(0 0 0)
(0 0 0)
(0 0 0)
(0 0 0)
(0 0 0)
(0 0 0)
(0 0 0)
(0 0 0)
(0 0 0)
(-0.00113856381591 1.46479153323e-05 0)
(0 0 0)
(0 0 0)
(-1.09542272282e-05 3.19611899041e-08 0)
(-1.69474523875e-05 4.9447645449e-08 0)
(0 0 0)
(0 0 0)
(-0.000628514092688 6.11106843463e-06 0)
(0 0 0)
(0 0 0)
(-1.61224763947e-05 4.7040609898e-08 0)
(-9.49030203595e-06 2.76898898754e-08 0)
(0 0 0)
(0 0 0)
(0 0 0)
(0 0 0)
(0 0 0)
(0 0 0)
(0 0 0)
(0 0 0)
(0 0 0)
(0 0 0)
(0 0 0)
(0 0 0)
(0 0 0)
(0 0 0)
(0 0 0)
(0 0 0)
(0 0 0)
(0 0 0)
(0 0 0)
(0 0 0)
(0 0 0)
(0 0 0)
(0 0 0)
(0 0 0)
(0 0 0)
(0 0 0)
(0 0 0)
(0 0 0)
(0 0 0)
(0 0 0)
(0 0 0)
(0 0 0)
(0 0 0)
(0 0 0)
(0 0 0)
(0 0 0)
(0 0 0)
(0 0 0)
(0 0 0)
(0 0 0)
(0 0 0)
(0 0 0)
(0 0 0)
(0 0 0)
(0 0 0)
(0 0 0)
(0 0 0)
(0 0 0)
(0 0 0)
(0 0 0)
(0 0 0)
(0 0 0)
(0 0 0)
(0 0 0)
(0 0 0)
(0 0 0)
(0 0 0)
(0 0 0)
(0 0 0)
(0 0 0)
(0 0 0)
(0 0 0)
(0 0 0)
(0 0 0)
(0 0 0)
(0 0 0)
(0 0 0)
(0 0 0)
(0 0 0)
(0 0 0)
(0 0 0)
(0 0 0)
(0 0 0)
(0 0 0)
(0 0 0)
(0 0 0)
(0 0 0)
(0 0 0)
(0 0 0)
(0 0 0)
(0 0 0)
(0 0 0)
(0 0 0)
(0 0 0)
(0 0 0)
(0 0 0)
(0 0 0)
(0 0 0)
(0 0 0)
(0 0 0)
(0 0 0)
(0 0 0)
(0 0 0)
(0 0 0)
(0 0 0)
(0 0 0)
(0 0 0)
(0 0 0)
(0 0 0)
(0 0 0)
(0 0 0)
(0 0 0)
(0 0 0)
(0 0 0)
(0 0 0)
(0 0 0)
(0 0 0)
(0 0 0)
(0 0 0)
(0 0 0)
(0 0 0)
(0 0 0)
(0 0 0)
(0 0 0)
(0 0 0)
(0 0 0)
(0 0 0)
(0 0 0)
(0 0 0)
(0 0 0)
(0 0 0)
(0 0 0)
(0 0 0)
(0 0 0)
(0 0 0)
(0 0 0)
(0 0 0)
(0 0 0)
(0 0 0)
(0 0 0)
(0 0 0)
(0 0 0)
(0 0 0)
(0 0 0)
(0 0 0)
(0 0 0)
(0 0 0)
(0 0 0)
(0 0 0)
(0 0 0)
(0 0 0)
(0 0 0)
(0 0 0)
(0 0 0)
(0 0 0)
(0 0 0)
(0 0 0)
(0 0 0)
(0 0 0)
(0 0 0)
(0 0 0)
(0 0 0)
(0 0 0)
(0 0 0)
(0 0 0)
(0 0 0)
(0 0 0)
(0 0 0)
(0 0 0)
(0 0 0)
(0 0 0)
(0 0 0)
(0 0 0)
(0 0 0)
(0 0 0)
(0 0 0)
(0 0 0)
(0 0 0)
(0 0 0)
(0 0 0)
(0 0 0)
(0 0 0)
(0 0 0)
(0 0 0)
(0 0 0)
(0 0 0)
(0 0 0)
(0 0 0)
(0 0 0)
(0 0 0)
(0 0 0)
(0 0 0)
(0 0 0)
(0 0 0)
(-7.13951334788 0.151024225394 0)
(-5.54739283715 0.116886054491 0)
(-6.40954381919 0.112438045412 0)
(-3.89365929382 0.0683036816418 0)
(-4.89552865198 0.103150983818 0)
(-5.66682756319 0.099409105057 0)
(-8.09882728303 0.171621126225 0)
(-5.54739823267 0.116886168177 0)
(-2.62020990189 0.0552089975165 0)
(-3.0369903014 0.0532757498905 0)
(-3.04047089389 0.0533368074364 0)
(-3.81267913318 0.0803348589146 0)
(-3.81248143604 0.0803306933473 0)
(-4.41851033237 0.0775107682257 0)
(-1.58933157707 0.033487928974 0)
(-3.36460380594 0.0708937108559 0)
(-1.43046362667 0.0250936008478 0)
(-2.3614436257 0.0414251174675 0)
(-2.96924980907 0.0625634248679 0)
(-1.26419604908 0.0221768875891 0)
(-1.80092992953 0.0379464011395 0)
(-0.75075172668 0.0158186755129 0)
(-0.354620169548 0.00747200598155 0)
(-0.676147957246 0.0118611802753 0)
(-0.249204115123 0.00437160965014 0)
(-0.312959253131 0.0065941917922 0)
(-0.597430774951 0.0104803010166 0)
(-0.850694586475 0.0179245163825 0)
(-1.23779471744 0.0260808897149 0)
(-1.58925014096 0.0334862130787 0)
(-1.84212976516 0.0323151656392 0)
(-0.679000238887 0.0119112158132 0)
(-2.31249130319 0.0487252286631 0)
(-0.85068659229 0.0179243479414 0)
(-0.986278532237 0.0173015792581 0)
(-0.584693830794 0.0123197611874 0)
(-0.16751591183 0.00352963537521 0)
(-0.194427087265 0.00341069540732 0)
(-0.320835291445 0.00562818417141 0)
(-0.243736964488 0.00513564713169 0)
(-0.4018498119 0.00846715572336 0)
(-0.46612216245 0.00817684789235 0)
(-0.0362705734004 0.000766505070071 0)
(-0.130454889548 0.00274874301782 0)
(-0.0332202189053 0.000581976131577 0)
(-0.0902822061952 0.00158162982795 0)
(-0.115130775166 0.00242585705658 0)
(-0.0293236568841 0.000513713303507 0)
(-0.0410981705509 0.000868526553196 0)
(-0.00908911734967 0.000131509187499 0)
(0 0 0)
(-0.00865266766171 0.000107971420856 0)
(0 0 0)
(0 0 0)
(-0.00595320667827 2.90479123619e-05 0)
(-0.0102990270865 0.000149015204895 0)
(-0.0282485176418 0.000596975177519 0)
(-0.0616249083402 0.0012984644509 0)
(-0.0704256653151 0.00123376839811 0)
(-0.0142945423913 0.000178372972685 0)
(-0.0896659291612 0.001889301333 0)
(-0.0194144171367 0.000410284364778 0)
(-0.0228692014086 0.00040063942402 0)
(-0.0051960270743 2.83539875832e-05 0)
(0 0 0)
(0 0 0)
(0 0 0)
(0 0 0)
(0 0 0)
(-0.00464157584465 2.26479770724e-05 0)
(0 0 0)
(0 0 0)
(0 0 0)
(0 0 0)
(0 0 0)
(0 0 0)
(0 0 0)
(0 0 0)
(0 0 0)
(0 0 0)
(0 0 0)
(0 0 0)
(0 0 0)
(0 0 0)
(0 0 0)
(0 0 0)
(0 0 0)
(0 0 0)
(0 0 0)
(0 0 0)
(0 0 0)
(0 0 0)
(0 0 0)
(0 0 0)
(0 0 0)
(0 0 0)
(0 0 0)
(0 0 0)
(0 0 0)
(0 0 0)
(0 0 0)
(0 0 0)
(0 0 0)
(0 0 0)
(0 0 0)
(0 0 0)
(0 0 0)
(0 0 0)
(0 0 0)
(0 0 0)
(0 0 0)
(0 0 0)
(0 0 0)
(0 0 0)
(0 0 0)
(0 0 0)
(0 0 0)
(0 0 0)
(0 0 0)
(0 0 0)
(0 0 0)
(0 0 0)
(0 0 0)
(0 0 0)
(0 0 0)
(0 0 0)
(0 0 0)
(0 0 0)
(0 0 0)
(0 0 0)
(0 0 0)
(0 0 0)
(0 0 0)
(0 0 0)
(0 0 0)
(0 0 0)
(0 0 0)
(0 0 0)
(0 0 0)
(0 0 0)
(0 0 0)
(0 0 0)
(0 0 0)
(0 0 0)
(0 0 0)
(0 0 0)
(0 0 0)
(0 0 0)
(0 0 0)
(0 0 0)
(0 0 0)
(0 0 0)
(0 0 0)
(0 0 0)
(0 0 0)
(0 0 0)
(0 0 0)
(0 0 0)
(0 0 0)
(0 0 0)
(0 0 0)
(0 0 0)
(0 0 0)
(0 0 0)
(0 0 0)
(0 0 0)
(0 0 0)
(0 0 0)
(0 0 0)
(0 0 0)
(0 0 0)
(0 0 0)
(0 0 0)
(0 0 0)
(0 0 0)
(0 0 0)
(0 0 0)
(0 0 0)
(0 0 0)
(0 0 0)
(0 0 0)
(0 0 0)
(0 0 0)
(0 0 0)
(0 0 0)
(0 0 0)
(0 0 0)
(0 0 0)
(0 0 0)
(0 0 0)
(0 0 0)
(0 0 0)
(0 0 0)
(0 0 0)
(0 0 0)
(0 0 0)
(0 0 0)
(0 0 0)
(0 0 0)
(0 0 0)
(0 0 0)
(0 0 0)
(0 0 0)
(0 0 0)
(0 0 0)
(0 0 0)
(0 0 0)
(0 0 0)
(0 0 0)
(0 0 0)
(0 0 0)
(0 0 0)
(0 0 0)
(0 0 0)
(0 0 0)
(0 0 0)
(0 0 0)
(0 0 0)
(0 0 0)
(0 0 0)
(0 0 0)
(0 0 0)
(0 0 0)
(0 0 0)
(0 0 0)
(0 0 0)
(0 0 0)
(0 0 0)
(0 0 0)
(0 0 0)
(0 0 0)
(0 0 0)
(0 0 0)
(0 0 0)
(0 0 0)
(0 0 0)
(0 0 0)
(0 0 0)
(-1.2377048251 0.026078995643 0)
(-1.58923123566 0.0334858147355 0)
(-1.86319345241 0.0326846708474 0)
(-0.68571146322 0.0120289460242 0)
(-2.31239145065 0.0487231247253 0)
(-0.996882722792 0.0174876009927 0)
(-0.850639445937 0.0179233545466 0)
(-1.58924776417 0.0334861629985 0)
(-3.36442736458 0.0708899931572 0)
(-2.38624844889 0.0418602507492 0)
(-1.44245504654 0.0253039577545 0)
(-2.9691302887 0.0625609065199 0)
(-1.80080757867 0.037943823152 0)
(-1.27696825175 0.0224009412104 0)
(-0.584619788745 0.0123182010882 0)
(-0.167500340537 0.00352930728108 0)
(-0.323106726656 0.0056680303356 0)
(-0.19572965022 0.00343354533811 0)
(-0.243712702666 0.00513513592424 0)
(-0.470391856609 0.00825174808483 0)
(-0.401798400275 0.00846607245737 0)
(-0.750661680912 0.0158167782082 0)
(-0.354593111457 0.00747143585545 0)
(-0.681843830343 0.0119610989054 0)
(-0.25107272471 0.00440438933235 0)
(-0.850602026064 0.0179225660931 0)
(-0.312931675443 0.00659361071794 0)
(-0.603434909677 0.0105856272601 0)
(-1.5891778197 0.0334846892373 0)
(-3.36441144936 0.0708896578164 0)
(-2.3661881402 0.0415083470939 0)
(-1.43971975472 0.0252559744856 0)
(-2.96906348609 0.062559498959 0)
(-1.80079513266 0.0379435609091 0)
(-1.26856195813 0.0222534756106 0)
(-1.23761636795 0.0260771318111 0)
(-1.5891463894 0.0334840269867 0)
(-1.84424679287 0.032352303143 0)
(-0.678972718092 0.0119107330355 0)
(-2.31225267184 0.0487202005934 0)
(-0.850597490875 0.0179224705347 0)
(-0.987777708581 0.017327878237 0)
(-0.750641253151 0.0158163477861 0)
(-0.354592130748 0.00747141519148 0)
(-0.680366242738 0.0119351786423 0)
(-0.250151210685 0.00438822387056 0)
(-0.850597596433 0.0179224727588 0)
(-0.312926735813 0.00659350663772 0)
(-0.599714334823 0.0105203598751 0)
(-0.584600459339 0.012317793809 0)
(-0.167494422179 0.00352918257864 0)
(-0.320670637626 0.00562529576717 0)
(-0.194602614161 0.00341377455019 0)
(-0.401786898048 0.00846583010028 0)
(-0.243701996671 0.00513491034413 0)
(-0.466592474364 0.00818509823807 0)
(-0.276163431712 0.00581888733592 0)
(-0.963865850294 0.0203090856563 0)
(-0.412752094964 0.00724061494959 0)
(-0.41227617213 0.00723226617552 0)
(-0.51594171302 0.010871123238 0)
(-0.515921763541 0.0108707028935 0)
(-0.221070168195 0.0038780759305 0)
(-0.130453835343 0.00274872080527 0)
(-0.101603959611 0.00214084098751 0)
(-0.195003435602 0.00342080587421 0)
(-0.0429160644336 0.000751835056619 0)
(-0.243730044335 0.00513550132097 0)
(-0.0527736404275 0.00111526394985 0)
(-0.10288770368 0.00180246216754 0)
(-0.13045050109 0.00274865055106 0)
(-0.101591516706 0.00214057880991 0)
(-0.194691048167 0.00341532588474 0)
(-0.0428006680928 0.000749813458982 0)
(-0.243701230909 0.00513489420917 0)
(-0.0527689359907 0.00111516453111 0)
(-0.102741717327 0.00179990467167 0)
(-0.0616215502939 0.00129839369536 0)
(-0.00908873726935 0.000131503688169 0)
(-0.0202884059468 0.000355427158455 0)
(-0.0202462978582 0.000354689478112 0)
(-0.0249276314058 0.000526794976371 0)
(-0.0249266904191 0.000526775090523 0)
(-0.0486047415985 0.00085149347066 0)
(0 0 0)
(-0.0362717285715 0.000766529482272 0)
(-0.00868316359847 0.000108351961257 0)
(-0.0143416114901 0.00017896031958 0)
(-0.0102998242825 0.000149026739414 0)
(-0.0194146564829 0.000410289422876 0)
(0 0 0)
(0 0 0)
(0 0 0)
(0 0 0)
(0 0 0)
(0 0 0)
(0 0 0)
(0 0 0)
(0 0 0)
(0 0 0)
(-0.00528925891688 2.58082639794e-05 0)
(0 0 0)
(-0.0080211814553 0.000116057370082 0)
(0 0 0)
(0 0 0)
(0 0 0)
(0 0 0)
(0 0 0)
(0 0 0)
(0 0 0)
(0 0 0)
(0 0 0)
(0 0 0)
(0 0 0)
(0 0 0)
(0 0 0)
(0 0 0)
(0 0 0)
(0 0 0)
(0 0 0)
(0 0 0)
(0 0 0)
(0 0 0)
(0 0 0)
(0 0 0)
(0 0 0)
(0 0 0)
(0 0 0)
(0 0 0)
(0 0 0)
(0 0 0)
(0 0 0)
(0 0 0)
(0 0 0)
(0 0 0)
(0 0 0)
(0 0 0)
(0 0 0)
(0 0 0)
(0 0 0)
(0 0 0)
(0 0 0)
(0 0 0)
(0 0 0)
(0 0 0)
(0 0 0)
(0 0 0)
(0 0 0)
(0 0 0)
(0 0 0)
(0 0 0)
(0 0 0)
(0 0 0)
(0 0 0)
(0 0 0)
(0 0 0)
(0 0 0)
(0 0 0)
(0 0 0)
(0 0 0)
(0 0 0)
(0 0 0)
(0 0 0)
(0 0 0)
(0 0 0)
(0 0 0)
(0 0 0)
(0 0 0)
(0 0 0)
(0 0 0)
(0 0 0)
(0 0 0)
(0 0 0)
(0 0 0)
(0 0 0)
(0 0 0)
(0 0 0)
(0 0 0)
(0 0 0)
(0 0 0)
(0 0 0)
(0 0 0)
(0 0 0)
(0 0 0)
(0 0 0)
(0 0 0)
(0 0 0)
(0 0 0)
(0 0 0)
(0 0 0)
(0 0 0)
(0 0 0)
(0 0 0)
(0 0 0)
(0 0 0)
(0 0 0)
(0 0 0)
(0 0 0)
(0 0 0)
(0 0 0)
(0 0 0)
(0 0 0)
(0 0 0)
(0 0 0)
(0 0 0)
(0 0 0)
(0 0 0)
(0 0 0)
(0 0 0)
(0 0 0)
(0 0 0)
(0 0 0)
(0 0 0)
(0 0 0)
(0 0 0)
(0 0 0)
(0 0 0)
(0 0 0)
(0 0 0)
(0 0 0)
(0 0 0)
(0 0 0)
(0 0 0)
(0 0 0)
(0 0 0)
(0 0 0)
(0 0 0)
(0 0 0)
(0 0 0)
(0 0 0)
(0 0 0)
(0 0 0)
(0 0 0)
(0 0 0)
(0 0 0)
(0 0 0)
(0 0 0)
(0 0 0)
(0 0 0)
(0 0 0)
(0 0 0)
(0 0 0)
(0 0 0)
(0 0 0)
(0 0 0)
(0 0 0)
(0 0 0)
(0 0 0)
(0 0 0)
(0 0 0)
(0 0 0)
(0 0 0)
(0 0 0)
(0 0 0)
(0 0 0)
(0 0 0)
(0 0 0)
(0 0 0)
(0 0 0)
(0 0 0)
(0 0 0)
(0 0 0)
(0 0 0)
(0 0 0)
(0 0 0)
(0 0 0)
(0 0 0)
(0 0 0)
(0 0 0)
(0 0 0)
(0 0 0)
(0 0 0)
(0 0 0)
(0 0 0)
(0 0 0)
(0 0 0)
(0 0 0)
(0 0 0)
(0 0 0)
(0 0 0)
(-0.028245366639 0.000596908587459 0)
(-0.0616177365688 0.00129831333846 0)
(-0.0708659441957 0.00124148152609 0)
(-0.0143647774566 0.000179249393703 0)
(-0.089655475401 0.00188908106758 0)
(-0.0230330395532 0.000403509660662 0)
(-0.0194126418677 0.000410246848066 0)
(-0.0362679268744 0.000766449141107 0)
(-0.130444253354 0.00274851890844 0)
(-0.0909415838197 0.00159318128823 0)
(-0.0334875693136 0.000586659771887 0)
(-0.115119462226 0.00242561868786 0)
(-0.0410965789829 0.000868492918632 0)
(-0.0295926851297 0.000518426337401 0)
(-0.00519557951522 2.83515453164e-05 0)
(0 0 0)
(0 0 0)
(0 0 0)
(0 0 0)
(-0.00467860111606 2.28286371598e-05 0)
(0 0 0)
(-0.00908869525643 0.00013150308029 0)
(0 0 0)
(-0.00872808855817 0.000108912552733 0)
(0 0 0)
(-0.0102988757592 0.000149013015361 0)
(0 0 0)
(-0.00601097528703 2.93297869171e-05 0)
(-0.0362668800622 0.000766427018852 0)
(-0.130443519523 0.0027485034463 0)
(-0.090689720869 0.00158876896855 0)
(-0.0334224366391 0.00058551872998 0)
(-0.115115638787 0.00242553812628 0)
(-0.0410953630466 0.000868467222282 0)
(-0.0294563379915 0.000516037708347 0)
(-0.0282445772528 0.000596891905383 0)
(-0.0616170400952 0.00129829866345 0)
(-0.0704907420175 0.00123490845946 0)
(-0.0142833352723 0.000178233125807 0)
(-0.0896520483838 0.00188900885879 0)
(-0.0194119722048 0.000410232696098 0)
(-0.0229086552611 0.000401330605511 0)
(-0.00908852603313 0.000131500631822 0)
(0 0 0)
(-0.00870813616532 0.000108663578856 0)
(0 0 0)
(-0.0102987982969 0.00014901189457 0)
(0 0 0)
(-0.00598189810654 2.91879085251e-05 0)
(-0.00519540725443 2.83506053135e-05 0)
(0 0 0)
(0 0 0)
(0 0 0)
(0 0 0)
(0 0 0)