/*--------------------------------*- C++ -*----------------------------------*\
| =========                 |                                                 |
| \\      /  F ield         | OpenFOAM: The Open Source CFD Toolbox           |
|  \\    /   O peration     | Version:  v1906                                 |
|   \\  /    A nd           | Web:      www.OpenFOAM.com                      |
|    \\/     M anipulation  |                                                 |
\*---------------------------------------------------------------------------*/
FoamFile
{
    version     2.0;
    format      ascii;
    class       volVectorField;
    location    "10.9";
    object      force.turbine;
}
// * * * * * * * * * * * * * * * * * * * * * * * * * * * * * * * * * * * * * //

dimensions      [1 -2 -2 0 0 0 0];


internalField   nonuniform List<vector> 
28582
(
(0 0 0)
(0 0 0)
(0 0 0)
(0 0 0)
(0 0 0)
(0 0 0)
(0 0 0)
(0 0 0)
(0 0 0)
(0 0 0)
(0 0 0)
(0 0 0)
(0 0 0)
(0 0 0)
(0 0 0)
(0 0 0)
(0 0 0)
(0 0 0)
(0 0 0)
(0 0 0)
(0 0 0)
(0 0 0)
(0 0 0)
(0 0 0)
(0 0 0)
(0 0 0)
(0 0 0)
(0 0 0)
(0 0 0)
(0 0 0)
(0 0 0)
(0 0 0)
(0 0 0)
(0 0 0)
(0 0 0)
(0 0 0)
(0 0 0)
(0 0 0)
(0 0 0)
(0 0 0)
(0 0 0)
(0 0 0)
(0 0 0)
(0 0 0)
(0 0 0)
(0 0 0)
(0 0 0)
(0 0 0)
(0 0 0)
(0 0 0)
(0 0 0)
(0 0 0)
(0 0 0)
(0 0 0)
(0 0 0)
(0 0 0)
(0 0 0)
(0 0 0)
(0 0 0)
(0 0 0)
(0 0 0)
(0 0 0)
(0 0 0)
(0 0 0)
(0 0 0)
(0 0 0)
(0 0 0)
(0 0 0)
(0 0 0)
(0 0 0)
(0 0 0)
(0 0 0)
(0 0 0)
(0 0 0)
(0 0 0)
(0 0 0)
(0 0 0)
(0 0 0)
(0 0 0)
(0 0 0)
(0 0 0)
(0 0 0)
(0 0 0)
(0 0 0)
(0 0 0)
(0 0 0)
(0 0 0)
(0 0 0)
(0 0 0)
(0 0 0)
(0 0 0)
(0 0 0)
(0 0 0)
(0 0 0)
(0 0 0)
(0 0 0)
(0 0 0)
(0 0 0)
(0 0 0)
(0 0 0)
(0 0 0)
(0 0 0)
(0 0 0)
(0 0 0)
(0 0 0)
(0 0 0)
(0 0 0)
(0 0 0)
(0 0 0)
(0 0 0)
(0 0 0)
(0 0 0)
(0 0 0)
(0 0 0)
(0 0 0)
(0 0 0)
(0 0 0)
(0 0 0)
(0 0 0)
(0 0 0)
(0 0 0)
(0 0 0)
(0 0 0)
(0 0 0)
(0 0 0)
(0 0 0)
(0 0 0)
(0 0 0)
(0 0 0)
(0 0 0)
(0 0 0)
(0 0 0)
(0 0 0)
(0 0 0)
(0 0 0)
(0 0 0)
(0 0 0)
(0 0 0)
(0 0 0)
(0 0 0)
(0 0 0)
(0 0 0)
(0 0 0)
(0 0 0)
(0 0 0)
(0 0 0)
(0 0 0)
(0 0 0)
(0 0 0)
(0 0 0)
(0 0 0)
(0 0 0)
(0 0 0)
(0 0 0)
(0 0 0)
(0 0 0)
(0 0 0)
(0 0 0)
(0 0 0)
(0 0 0)
(0 0 0)
(0 0 0)
(0 0 0)
(0 0 0)
(0 0 0)
(0 0 0)
(0 0 0)
(0 0 0)
(0 0 0)
(0 0 0)
(0 0 0)
(0 0 0)
(0 0 0)
(0 0 0)
(0 0 0)
(0 0 0)
(0 0 0)
(0 0 0)
(0 0 0)
(0 0 0)
(0 0 0)
(0 0 0)
(0 0 0)
(0 0 0)
(0 0 0)
(0 0 0)
(0 0 0)
(0 0 0)
(0 0 0)
(0 0 0)
(0 0 0)
(0 0 0)
(0 0 0)
(0 0 0)
(0 0 0)
(0 0 0)
(0 0 0)
(0 0 0)
(0 0 0)
(0 0 0)
(0 0 0)
(0 0 0)
(0 0 0)
(0 0 0)
(0 0 0)
(0 0 0)
(0 0 0)
(0 0 0)
(0 0 0)
(0 0 0)
(0 0 0)
(0 0 0)
(0 0 0)
(0 0 0)
(0 0 0)
(0 0 0)
(0 0 0)
(-0.00296711720613 7.74004870904e-05 0)
(0 0 0)
(0 0 0)
(0 0 0)
(0 0 0)
(-2.27059211197e-05 5.86609248414e-07 0)
(0 0 0)
(-2.14070763505e-06 7.08382133518e-08 0)
(0 0 0)
(0 0 0)
(0 0 0)
(0 0 0)
(0 0 0)
(0 0 0)
(0 0 0)
(0 0 0)
(0 0 0)
(0 0 0)
(0 0 0)
(0 0 0)
(-0.015754430297 0.000505578198516 0)
(0 0 0)
(0 0 0)
(0 0 0)
(-0.0259802350748 0.000713377618126 0)
(0 0 0)
(0 0 0)
(-0.0280264017419 0.00086960334425 0)
(-0.125605497802 0.00389728806256 0)
(-0.0705976406984 0.00193850350552 0)
(-0.881750764228 -0.0274536665352 0.00357160945629)
(-0.0051800526893 0.000100137774669 0)
(-0.0710303586214 0.0019503852795 0)
(0 0 0)
(0 0 0)
(0 0 0)
(0 0 0)
(0 0 0)
(-0.0157543266548 0.000505574872515 0)
(0 0 0)
(0 0 0)
(0 0 0)
(-0.0261849123586 0.000718997744072 0)
(0 0 0)
(0 0 0)
(0 0 0)
(0 0 0)
(0 0 0)
(0 0 0)
(0 0 0)
(0 0 0)
(-1.96197399463e-05 4.51204054868e-07 0)
(0 0 0)
(-1.22241092638e-05 2.81123382984e-07 0)
(-0.000207521974332 5.31941427332e-06 0)
(-0.000924945042374 2.37091318945e-05 0)
(-0.000116506012308 2.98640058139e-06 0)
(-0.000512593479345 1.31393173143e-05 0)
(0 0 0)
(0 0 0)
(-0.000287648470314 6.01676963171e-06 0)
(0 0 0)
(0 0 0)
(0 0 0)
(0 0 0)
(0 0 0)
(0 0 0)
(-0.0149010485245 0.000388710095972 0)
(-0.000625271448058 1.47585429988e-05 0)
(-0.00327192066123 8.53516175151e-05 0)
(-3.42579714603e-05 8.3871623484e-07 0)
(-0.000158564968675 4.06449852039e-06 0)
(-3.96426361569e-06 1.31181552863e-07 0)
(-3.24948198354e-05 7.95550109432e-07 0)
(0 0 0)
(0 0 0)
(0 0 0)
(0 0 0)
(0 0 0)
(-0.000340215987467 7.11632924513e-06 0)
(0 0 0)
(0 0 0)
(0 0 0)
(0 0 0)
(0 0 0)
(0 0 0)
(0 0 0)
(0 0 0)
(0 0 0)
(0 0 0)
(0 0 0)
(0 0 0)
(0 0 0)
(0 0 0)
(0 0 0)
(0 0 0)
(0 0 0)
(0 0 0)
(0 0 0)
(0 0 0)
(-0.00486981011977 8.9065669979e-05 0)
(0 0 0)
(0 0 0)
(0 0 0)
(0 0 0)
(0 0 0)
(-0.00409506917516 7.91635025576e-05 0)
(0 0 0)
(0 0 0)
(0 0 0)
(0 0 0)
(0 0 0)
(0 0 0)
(0 0 0)
(0 0 0)
(0 0 0)
(0 0 0)
(0 0 0)
(0 0 0)
(0 0 0)
(0 0 0)
(0 0 0)
(0 0 0)
(0 0 0)
(0 0 0)
(0 0 0)
(0 0 0)
(0 0 0)
(0 0 0)
(-0.034944900191 0.00101204689224 0)
(-0.00768195020797 0.000179128033283 0)
(-0.0125842112753 0.000293439159997 0)
(-0.00985916777049 0.000230162971191 0)
(-0.0187066091029 0.000541766194884 0)
(0 0 0)
(0 0 0)
(0 0 0)
(0 0 0)
(0 0 0)
(0 0 0)
(0 0 0)
(0 0 0)
(0 0 0)
(0 0 0)
(-0.00456425941737 8.82336162359e-05 0)
(0 0 0)
(-0.00767727399841 0.000179226506258 0)
(0 0 0)
(0 0 0)
(-0.12582327663 0.00359971641084 0)
(-0.0979960496723 0.0028035988066 0)
(-0.17581133461 0.00398815922016 5.46075785091e-05)
(-0.0378078320464 0.00103814538606 0)
(-0.440649992498 -0.0406944118895 0.00368125136248)
(-0.0508379919093 0.00147233019521 0)
(-0.09065836605 0.00248934041781 0)
(-0.266355705327 0.00762025142935 0)
(-2.02904476806 -0.236744233669 0.0204436117874)
(-0.457854205465 -0.0108899437622 0.00161503175954)
(-0.364717731613 0.00995490350141 0)
(-1.15397927704 -0.142423211693 0.012161730296)
(-0.194924015405 0.00532041520132 0)
(-0.54450790333 0.00419510025468 0.000779543100399)
(-0.0594398456824 0.00170053263348 0)
(-0.00869778696973 0.000203050453987 0)
(-0.0179368840841 0.000492519471348 0)
(-0.0179872549231 0.000493902577737 0)
(-0.0240144769564 0.000695488515915 0)
(-0.0240124250136 0.00069542908915 0)
(-0.0429897894237 0.00118043402973 0)
(-0.125826242212 0.00359980125407 0)
(-0.0979966898322 0.00280361712113 0)
(-0.172663370584 0.00471281498924 0)
(-0.0380108109824 0.00104371887797 0)
(-0.0508332608576 0.00147219317819 0)
(-0.0908285907524 0.00249401452844 0)
(-0.235075047043 0.00672533355736 0)
(0 0 0)
(0 0 0)
(0 0 0)
(0 0 0)
(0 0 0)
(0 0 0)
(0 0 0)
(0 0 0)
(0 0 0)
(0 0 0)
(0 0 0)
(0 0 0)
(0 0 0)
(0 0 0)
(0 0 0)
(0 0 0)
(0 0 0)
(0 0 0)
(0 0 0)
(0 0 0)
(0 0 0)
(0 0 0)
(0 0 0)
(-0.00458021000323 8.85419637119e-05 0)
(0 0 0)
(-0.00767570803451 0.00017918994872 0)
(0 0 0)
(0 0 0)
(0 0 0)
(-0.0349389564748 0.00101187475498 0)
(-0.0126625235999 0.000295265250028 0)
(-0.00770262281434 0.000179610077975 0)
(-0.0187014349931 0.000541616346357 0)
(0 0 0)
(-0.00985545873256 0.000230076383437 0)
(0 0 0)
(0 0 0)
(0 0 0)
(0 0 0)
(0 0 0)
(0 0 0)
(0 0 0)
(0 0 0)
(0 0 0)
(0 0 0)
(0 0 0)
(0 0 0)
(0 0 0)
(0 0 0)
(0 0 0)
(0 0 0)
(0 0 0)
(0 0 0)
(0 0 0)
(0 0 0)
(0 0 0)
(0 0 0)
(0 0 0)
(0 0 0)
(0 0 0)
(0 0 0)
(0 0 0)
(0 0 0)
(0 0 0)
(0 0 0)
(0 0 0)
(0 0 0)
(0 0 0)
(0 0 0)
(0 0 0)
(0 0 0)
(-0.0151633316589 0.000266441671627 0)
(0 0 0)
(0 0 0)
(0 0 0)
(0 0 0)
(0 0 0)
(0 0 0)
(0 0 0)
(-0.0033835053911 5.94530841006e-05 0)
(0 0 0)
(0 0 0)
(0 0 0)
(0 0 0)
(0 0 0)
(0 0 0)
(0 0 0)
(0 0 0)
(0 0 0)
(0 0 0)
(0 0 0)
(0 0 0)
(0 0 0)
(0 0 0)
(0 0 0)
(0 0 0)
(0 0 0)
(0 0 0)
(0 0 0)
(0 0 0)
(0 0 0)
(0 0 0)
(0 0 0)
(0 0 0)
(0 0 0)
(0 0 0)
(0 0 0)
(-0.32482307677 0.00814734754559 0)
(-0.00778536342933 0.0001368000973 0)
(0 0 0)
(0 0 0)
(0 0 0)
(0 0 0)
(0 0 0)
(0 0 0)
(-0.0713146879705 0.0018090203346 0)
(0 0 0)
(0 0 0)
(0 0 0)
(0 0 0)
(0 0 0)
(0 0 0)
(0 0 0)
(0 0 0)
(0 0 0)
(0 0 0)
(0 0 0)
(0 0 0)
(0 0 0)
(0 0 0)
(0 0 0)
(0 0 0)
(0 0 0)
(0 0 0)
(0 0 0)
(0 0 0)
(0 0 0)
(0 0 0)
(0 0 0)
(0 0 0)
(0 0 0)
(0 0 0)
(0 0 0)
(-1.52252013248 0.0511739136548 0)
(-0.0437057095184 0.00145293657284 0)
(0 0 0)
(0 0 0)
(0 0 0)
(0 0 0)
(0 0 0)
(0 0 0)
(-0.333911713409 0.0110987511459 0)
(-0.00662586336392 0.000244172944094 0)
(0 0 0)
(0 0 0)
(0 0 0)
(0 0 0)
(0 0 0)
(0 0 0)
(0 0 0)
(0 0 0)
(0 0 0)
(0 0 0)
(0 0 0)
(0 0 0)
(0 0 0)
(0 0 0)
(0 0 0)
(0 0 0)
(0 0 0)
(0 0 0)
(0 0 0)
(0 0 0)
(0 0 0)
(0 0 0)
(0 0 0)
(0 0 0)
(0 0 0)
(0 0 0)
(0 0 0)
(0 0 0)
(0 0 0)
(0 0 0)
(0 0 0)
(0 0 0)
(0 0 0)
(-2.52245439106 0.0782667284364 0)
(-0.076181940836 0.00236377367072 0)
(0 0 0)
(0 0 0)
(0 0 0)
(0 0 0)
(0 0 0)
(0 0 0)
(-2.52287108608 0.0782796576519 0)
(-0.56292720169 0.017466508247 0)
(-0.0157542103681 0.000505571140738 0)
(0 0 0)
(0 0 0)
(0 0 0)
(0 0 0)
(0 0 0)
(0 0 0)
(-0.046208230482 0.00143374922436 0)
(-0.0761844093681 0.00236385026435 0)
(-0.0157543344503 0.000505575122683 0)
(0 0 0)
(0 0 0)
(0 0 0)
(0 0 0)
(0 0 0)
(0 0 0)
(0 0 0)
(0 0 0)
(0 0 0)
(0 0 0)
(0 0 0)
(0 0 0)
(0 0 0)
(0 0 0)
(0 0 0)
(0 0 0)
(0 0 0)
(0 0 0)
(0 0 0)
(0 0 0)
(0 0 0)
(0 0 0)
(0 0 0)
(0 0 0)
(0 0 0)
(0 0 0)
(-0.0685684664767 0.00178510741273 0)
(-0.00211176567226 5.50877098203e-05 0)
(0 0 0)
(0 0 0)
(0 0 0)
(0 0 0)
(0 0 0)
(0 0 0)
(-0.0433578742179 0.00112877634055 0)
(-0.0707041764104 0.0018407083592 0)
(-0.0155927611 0.000406754172614 0)
(-0.000375733022332 7.85924234512e-06 0)
(0 0 0)
(0 0 0)
(0 0 0)
(0 0 0)
(0 0 0)
(0 0 0)
(-0.00119591713782 2.82277314218e-05 0)
(-0.00212530048117 5.54407800662e-05 0)
(-0.000363977575612 7.6133525799e-06 0)
(0 0 0)
(0 0 0)
(0 0 0)
(0 0 0)
(0 0 0)
(0 0 0)
(0 0 0)
(0 0 0)
(0 0 0)
(0 0 0)
(0 0 0)
(0 0 0)
(0 0 0)
(0 0 0)
(0 0 0)
(0 0 0)
(0 0 0)
(0 0 0)
(0 0 0)
(0 0 0)
(0 0 0)
(0 0 0)
(0 0 0)
(0 0 0)
(0 0 0)
(0 0 0)
(-0.000173428647938 4.57472555385e-06 0)
(-0.000172208885509 4.54255048694e-06 0)
(-2.20896377135e-05 5.70687518403e-07 0)
(0 0 0)
(0 0 0)
(0 0 0)
(0 0 0)
(0 0 0)
(0 0 0)
(0 0 0)
(-2.30368077332e-05 5.95157729957e-07 0)
(-2.26833463138e-05 5.86026026535e-07 0)
(-2.13991820847e-06 7.08120904159e-08 0)
(0 0 0)
(0 0 0)
(0 0 0)
(0 0 0)
(0 0 0)
(0 0 0)
(0 0 0)
(0 0 0)
(0 0 0)
(0 0 0)
(0 0 0)
(0 0 0)
(0 0 0)
(0 0 0)
(0 0 0)
(0 0 0)
(0 0 0)
(0 0 0)
(0 0 0)
(0 0 0)
(0 0 0)
(0 0 0)
(0 0 0)
(0 0 0)
(0 0 0)
(0 0 0)
(0 0 0)
(0 0 0)
(0 0 0)
(0 0 0)
(0 0 0)
(0 0 0)
(0 0 0)
(0 0 0)
(0 0 0)
(0 0 0)
(-0.00338344514466 5.94520254836e-05 0)
(-0.00919729414382 0.000161609762369 0)
(-0.00205219147005 3.60599727077e-05 0)
(-0.08742503481 0.00188342179846 0)
(-0.0179137026849 0.000314769669077 0)
(-0.0530267769318 0.00114237057832 0)
(-0.0108651478022 0.000190916363766 0)
(0 0 0)
(0 0 0)
(0 0 0)
(-0.00242438831311 4.26000096382e-05 0)
(0 0 0)
(0 0 0)
(0 0 0)
(0 0 0)
(0 0 0)
(0 0 0)
(-0.0179138586485 0.000314772409584 0)
(-0.00399712082992 7.02351949805e-05 0)
(-0.00399713629887 7.02354667924e-05 0)
(0 0 0)
(0 0 0)
(0 0 0)
(0 0 0)
(0 0 0)
(0 0 0)
(0 0 0)
(0 0 0)
(-0.0713181150101 0.00180910726739 0)
(-0.197014991772 0.00494161198648 0)
(-0.0432562487254 0.00109726952147 0)
(-0.808773224097 0.0238835967864 0)
(-0.178707640099 0.00527105675797 0)
(-0.490540372921 0.0144859747149 0)
(-0.108391878799 0.00319706390245 0)
(0 0 0)
(-0.00472206107752 8.29734437866e-05 0)
(0 0 0)
(-0.0230211179275 0.0007044354381 0)
(0 0 0)
(-0.0123029674302 0.000367099503836 0)
(0 0 0)
(-0.0150607041639 0.000372772762759 0)
(-0.0150610049584 0.00037278020783 0)
(-0.00286398771302 5.03244069931e-05 0)
(-0.178682669075 0.00527032022716 0)
(-0.0379531074848 0.00116134733259 0)
(-0.037950831893 0.00116127770054 0)
(-0.00746164666995 0.000222642773451 0)
(0 0 0)
(0 0 0)
(0 0 0)
(-0.00338345860574 5.94522620142e-05 0)
(0 0 0)
(0 0 0)
(0 0 0)
(-0.333990681796 0.0111013759429 0)
(-0.907772269216 0.0301730610474 0)
(-0.202577192556 0.00673337818866 0)
(-2.2194128026 0.0752680108354 0)
(-0.48958969572 0.0164809537318 0)
(-1.33051897525 0.0447889771009 0)
(-0.296960021956 0.00999650201961 0)
(0 0 0)
(-0.026508865821 0.000881251009996 0)
(0 0 0)
(-0.0662672359954 0.00223073986222 0)
(0 0 0)
(-0.0401932639428 0.00135301729012 0)
(0 0 0)
(-0.0745197286939 0.00247692995189 0)
(-0.0745210411661 0.0024769735766 0)
(-0.0141570362737 0.000519734942676 0)
(-0.489594266443 0.0164811075951 0)
(-0.109248802699 0.00367761919478 0)
(-0.109257521011 0.00367791267743 0)
(-0.0243785848706 0.000820651114212 0)
(0 0 0)
(0 0 0)
(0 0 0)
(-0.0135190803086 0.000455814337521 0)
(0 0 0)
(0 0 0)
(0 0 0)
(-7.04764793741 0.223290046938 0)
(-4.1850079908 0.1304771672 0)
(-3.93035920377 0.107278432629 0)
(-1.85461323534 0.0506213276459 0)
(-0.562862221964 0.0174644920557 0)
(-1.53008969683 0.0474756313572 0)
(-0.341417778595 0.0105935126738 0)
(-2.38418329643 0.0650758452041 0)
(-0.251740556663 0.0068712122602 0)
(-1.12476048826 0.0307001309568 0)
(-0.118638652333 0.00323822022662 0)
(0 0 0)
(-0.0462076999433 0.0014337327628 0)
(0 0 0)
(-0.0911591475755 0.00250309111448 0)
(0 0 0)
(-0.0429598729878 0.00117961257005 0)
(0 0 0)
(0 0 0)
(0 0 0)
(0 0 0)
(0 0 0)
(0 0 0)
(0 0 0)
(0 0 0)
(0 0 0)
(0 0 0)
(0 0 0)
(0 0 0)
(0 0 0)
(0 0 0)
(0 0 0)
(0 0 0)
(0 0 0)
(0 0 0)
(0 0 0)
(0 0 0)
(0 0 0)
(0 0 0)
(0 0 0)
(0 0 0)
(0 0 0)
(0 0 0)
(0 0 0)
(0 0 0)
(0 0 0)
(0 0 0)
(0 0 0)
(0 0 0)
(0 0 0)
(0 0 0)
(0 0 0)
(0 0 0)
(0 0 0)
(0 0 0)
(0 0 0)
(0 0 0)
(0 0 0)
(0 0 0)
(0 0 0)
(-0.341431882876 0.0105939503015 0)
(-0.562930400825 0.0174666075098 0)
(-1.32606728481 -0.0154564951436 0.00358064691622)
(-2.38753422475 0.0651673081771 0)
(-0.119168370899 0.00325267879759 0)
(-0.252801282549 0.00690016457843 0)
(-1.5302026384 0.0474791357088 0)
(-0.562934315475 0.0174667289736 0)
(-0.341436622847 0.0105940973733 0)
(-2.38766632867 0.0651709139294 0)
(-1.12508426026 0.0307089682543 0)
(-0.252957379311 0.00690442521089 0)
(-0.119235471745 0.00325451030285 0)
(-0.125605906236 0.00389730073545 0)
(-0.125607521061 0.00389735084024 0)
(-0.0280267682615 0.000869614716624 0)
(-0.681894185032 0.0186121765458 0)
(-0.0707333446404 0.00194222972873 0)
(-0.0710247365175 0.00195023090511 0)
(-0.00515153152548 9.95864200697e-05 0)
(0 0 0)
(0 0 0)
(0 0 0)
(-0.0260404171503 0.000715030126103 0)
(0 0 0)
(0 0 0)
(0 0 0)
(0 0 0)
(0 0 0)
(0 0 0)
(0 0 0)
(0 0 0)
(0 0 0)
(0 0 0)
(0 0 0)
(0 0 0)
(0 0 0)
(0 0 0)
(0 0 0)
(0 0 0)
(0 0 0)
(0 0 0)
(0 0 0)
(0 0 0)
(0 0 0)
(0 0 0)
(0 0 0)
(0 0 0)
(0 0 0)
(0 0 0)
(0 0 0)
(0 0 0)
(0 0 0)
(0 0 0)
(0 0 0)
(0 0 0)
(0 0 0)
(0 0 0)
(0 0 0)
(0 0 0)
(0 0 0)
(0 0 0)
(0 0 0)
(0 0 0)
(0 0 0)
(0 0 0)
(0 0 0)
(0 0 0)
(0 0 0)
(-0.0761843982358 0.00236384991894 0)
(0 0 0)
(0 0 0)
(-0.0431908711901 0.00118595542826 0)
(-0.0915971955895 0.00251511924463 0)
(0 0 0)
(0 0 0)
(-0.0462082272189 0.00143374912311 0)
(0 0 0)
(0 0 0)
(-0.0916928662777 0.00251774621577 0)
(-0.0432285998368 0.00118699139934 0)
(0 0 0)
(0 0 0)
(0 0 0)
(0 0 0)
(0 0 0)
(-0.0261780401256 0.000718809043036 0)
(0 0 0)
(0 0 0)
(0 0 0)
(0 0 0)
(0 0 0)
(0 0 0)
(0 0 0)
(0 0 0)
(0 0 0)
(0 0 0)
(0 0 0)
(0 0 0)
(0 0 0)
(0 0 0)
(0 0 0)
(0 0 0)
(0 0 0)
(0 0 0)
(0 0 0)
(0 0 0)
(0 0 0)
(0 0 0)
(0 0 0)
(0 0 0)
(0 0 0)
(0 0 0)
(0 0 0)
(0 0 0)
(0 0 0)
(0 0 0)
(0 0 0)
(0 0 0)
(0 0 0)
(0 0 0)
(0 0 0)
(0 0 0)
(0 0 0)
(0 0 0)
(0 0 0)
(0 0 0)
(0 0 0)
(0 0 0)
(0 0 0)
(0 0 0)
(0 0 0)
(0 0 0)
(0 0 0)
(0 0 0)
(0 0 0)
(0 0 0)
(0 0 0)
(0 0 0)
(0 0 0)
(0 0 0)
(0 0 0)
(0 0 0)
(0 0 0)
(0 0 0)
(0 0 0)
(0 0 0)
(0 0 0)
(0 0 0)
(0 0 0)
(0 0 0)
(0 0 0)
(0 0 0)
(0 0 0)
(0 0 0)
(0 0 0)
(0 0 0)
(0 0 0)
(0 0 0)
(0 0 0)
(0 0 0)
(0 0 0)
(0 0 0)
(0 0 0)
(0 0 0)
(0 0 0)
(0 0 0)
(0 0 0)
(0 0 0)
(0 0 0)
(0 0 0)
(0 0 0)
(0 0 0)
(0 0 0)
(0 0 0)
(0 0 0)
(0 0 0)
(0 0 0)
(0 0 0)
(0 0 0)
(0 0 0)
(0 0 0)
(0 0 0)
(0 0 0)
(0 0 0)
(0 0 0)
(0 0 0)
(0 0 0)
(0 0 0)
(0 0 0)
(0 0 0)
(0 0 0)
(0 0 0)
(0 0 0)
(0 0 0)
(0 0 0)
(0 0 0)
(0 0 0)
(0 0 0)
(0 0 0)
(0 0 0)
(0 0 0)
(0 0 0)
(0 0 0)
(0 0 0)
(0 0 0)
(0 0 0)
(0 0 0)
(0 0 0)
(0 0 0)
(0 0 0)
(0 0 0)
(0 0 0)
(0 0 0)
(0 0 0)
(0 0 0)
(0 0 0)
(0 0 0)
(0 0 0)
(0 0 0)
(0 0 0)
(0 0 0)
(0 0 0)
(0 0 0)
(0 0 0)
(0 0 0)
(0 0 0)
(0 0 0)
(0 0 0)
(0 0 0)
(0 0 0)
(0 0 0)
(0 0 0)
(0 0 0)
(0 0 0)
(0 0 0)
(0 0 0)
(0 0 0)
(0 0 0)
(0 0 0)
(0 0 0)
(0 0 0)
(0 0 0)
(0 0 0)
(0 0 0)
(0 0 0)
(0 0 0)
(0 0 0)
(0 0 0)
(0 0 0)
(0 0 0)
(0 0 0)
(0 0 0)
(0 0 0)
(0 0 0)
(0 0 0)
(0 0 0)
(0 0 0)
(0 0 0)
(0 0 0)
(-0.001859250888 4.76358008918e-05 0)
(-0.00252339665791 6.46518560477e-05 0)
(-0.00116427476965 2.98438748363e-05 0)
(-0.001559994141 3.99685544177e-05 0)
(-0.184360782816 0.00479963774795 0)
(-0.11431371185 0.00297603643314 0)
(-0.00232217562843 5.94963792062e-05 0)
(-0.00140700327031 3.60487807597e-05 0)
(-0.00141661362818 3.62950073968e-05 0)
(-0.000857626604109 2.19835572294e-05 0)
(-0.0155494216645 0.00040562361619 0)
(-0.0423973458539 0.00110377000176 0)
(-0.00956361922384 0.000249477433767 0)
(-0.000523860591008 1.34281273779e-05 0)
(-0.00011796855203 3.02388988681e-06 0)
(-0.000324073933848 8.30699262029e-06 0)
(-7.21629452411e-05 1.84975399428e-06 0)
(0 0 0)
(-0.0012231942264 2.88715639298e-05 0)
(0 0 0)
(-1.38224653397e-05 3.17881502336e-07 0)
(0 0 0)
(-8.41811920919e-06 1.93595304115e-07 0)
(0 0 0)
(0 0 0)
(0 0 0)
(0 0 0)
(0 0 0)
(0 0 0)
(0 0 0)
(0 0 0)
(0 0 0)
(0 0 0)
(0 0 0)
(0 0 0)
(0 0 0)
(0 0 0)
(0 0 0)
(0 0 0)
(0 0 0)
(0 0 0)
(0 0 0)
(0 0 0)
(0 0 0)
(0 0 0)
(0 0 0)
(0 0 0)
(0 0 0)
(0 0 0)
(0 0 0)
(0 0 0)
(0 0 0)
(0 0 0)
(0 0 0)
(0 0 0)
(0 0 0)
(0 0 0)
(0 0 0)
(0 0 0)
(0 0 0)
(0 0 0)
(0 0 0)
(0 0 0)
(0 0 0)
(0 0 0)
(0 0 0)
(-0.0731512469253 0.00190441524868 0)
(-0.00951419324906 0.000248188103331 0)
(-0.0162515663485 0.000423939825754 0)
(-0.000523807613236 1.34267693978e-05 0)
(-0.000739821117478 1.89638472007e-05 0)
(-0.000118210690137 3.030096617e-06 0)
(-0.000167274804922 4.28775790002e-06 0)
(-0.0423516804748 0.00110258115198 0)
(-0.0157985611966 0.000412122692497 0)
(-0.00944590558825 0.000246406745251 0)
(-0.000662451994604 1.69806431672e-05 0)
(-0.000391118456351 1.00255459981e-05 0)
(-0.000129261582061 3.31336431634e-06 0)
(-7.60241689258e-05 1.94872880621e-06 0)
(-0.00353338167672 9.21721131505e-05 0)
(-0.00347223454251 9.05770234917e-05 0)
(-0.000740319551413 1.74740714074e-05 0)
(-0.000130494583326 3.34496985859e-06 0)
(-2.65114728228e-05 6.49063611129e-07 0)
(-2.65218392384e-05 6.49317405522e-07 0)
(-3.09263612306e-06 1.02338504296e-07 0)
(0 0 0)
(0 0 0)
(0 0 0)
(0 0 0)
(0 0 0)
(0 0 0)
(0 0 0)
(0 0 0)
(0 0 0)
(0 0 0)
(0 0 0)
(0 0 0)
(0 0 0)
(0 0 0)
(0 0 0)
(0 0 0)
(0 0 0)
(0 0 0)
(0 0 0)
(0 0 0)
(0 0 0)
(0 0 0)
(0 0 0)
(0 0 0)
(0 0 0)
(0 0 0)
(0 0 0)
(0 0 0)
(0 0 0)
(0 0 0)
(0 0 0)
(0 0 0)
(0 0 0)
(0 0 0)
(0 0 0)
(0 0 0)
(0 0 0)
(0 0 0)
(0 0 0)
(0 0 0)
(0 0 0)
(0 0 0)
(0 0 0)
(0 0 0)
(0 0 0)
(0 0 0)
(0 0 0)
(0 0 0)
(0 0 0)
(-0.00217950256353 5.68547004762e-05 0)
(0 0 0)
(0 0 0)
(-1.24925412254e-05 2.8729663451e-07 0)
(-1.62548215657e-05 3.73819501261e-07 0)
(0 0 0)
(0 0 0)
(-0.00119989867381 2.83217092778e-05 0)
(0 0 0)
(0 0 0)
(-1.33800906887e-05 3.07708011918e-07 0)
(-8.13229576397e-06 1.87022092756e-07 0)
(0 0 0)
(0 0 0)
(0 0 0)
(0 0 0)
(0 0 0)
(0 0 0)
(0 0 0)
(0 0 0)
(0 0 0)
(0 0 0)
(0 0 0)
(0 0 0)
(0 0 0)
(0 0 0)
(0 0 0)
(0 0 0)
(0 0 0)
(0 0 0)
(0 0 0)
(0 0 0)
(0 0 0)
(0 0 0)
(0 0 0)
(0 0 0)
(0 0 0)
(0 0 0)
(0 0 0)
(0 0 0)
(0 0 0)
(0 0 0)
(0 0 0)
(0 0 0)
(0 0 0)
(0 0 0)
(0 0 0)
(0 0 0)
(0 0 0)
(0 0 0)
(0 0 0)
(0 0 0)
(0 0 0)
(0 0 0)
(0 0 0)
(0 0 0)
(0 0 0)
(0 0 0)
(0 0 0)
(0 0 0)
(0 0 0)
(0 0 0)
(0 0 0)
(0 0 0)
(0 0 0)
(0 0 0)
(0 0 0)
(0 0 0)
(0 0 0)
(0 0 0)
(0 0 0)
(0 0 0)
(0 0 0)
(0 0 0)
(0 0 0)
(0 0 0)
(0 0 0)
(0 0 0)
(0 0 0)
(0 0 0)
(0 0 0)
(0 0 0)
(0 0 0)
(0 0 0)
(0 0 0)
(0 0 0)
(0 0 0)
(0 0 0)
(0 0 0)
(0 0 0)
(0 0 0)
(0 0 0)
(0 0 0)
(0 0 0)
(0 0 0)
(0 0 0)
(0 0 0)
(0 0 0)
(0 0 0)
(0 0 0)
(0 0 0)
(0 0 0)
(0 0 0)
(0 0 0)
(0 0 0)
(0 0 0)
(0 0 0)
(0 0 0)
(0 0 0)
(0 0 0)
(0 0 0)
(0 0 0)
(0 0 0)
(0 0 0)
(0 0 0)
(0 0 0)
(0 0 0)
(0 0 0)
(0 0 0)
(0 0 0)
(0 0 0)
(0 0 0)
(0 0 0)
(0 0 0)
(0 0 0)
(0 0 0)
(0 0 0)
(0 0 0)
(0 0 0)
(0 0 0)
(0 0 0)
(0 0 0)
(0 0 0)
(0 0 0)
(0 0 0)
(0 0 0)
(0 0 0)
(0 0 0)
(0 0 0)
(0 0 0)
(0 0 0)
(0 0 0)
(0 0 0)
(0 0 0)
(0 0 0)
(0 0 0)
(0 0 0)
(0 0 0)
(0 0 0)
(0 0 0)
(0 0 0)
(0 0 0)
(0 0 0)
(0 0 0)
(0 0 0)
(0 0 0)
(0 0 0)
(0 0 0)
(0 0 0)
(0 0 0)
(0 0 0)
(0 0 0)
(0 0 0)
(0 0 0)
(0 0 0)
(0 0 0)
(0 0 0)
(0 0 0)
(0 0 0)
(0 0 0)
(0 0 0)
(0 0 0)
(0 0 0)
(0 0 0)
(0 0 0)
(0 0 0)
(0 0 0)
(0 0 0)
(0 0 0)
(0 0 0)
(0 0 0)
(0 0 0)
(0 0 0)
(0 0 0)
(0 0 0)
(0 0 0)
(0 0 0)
(0 0 0)
(0 0 0)
(0 0 0)
(0 0 0)
(0 0 0)
(0 0 0)
(0 0 0)
(0 0 0)
(0 0 0)
(-6.89266972344 0.197637898528 0)
(-5.35518549523 0.153208131488 0)
(-5.72143978801 0.156165648231 0)
(-3.46514969638 0.0945806245637 0)
(-4.72573659195 0.135200036265 0)
(-5.04470977099 0.137694426703 0)
(-7.81930151372 0.224435866975 0)
(-5.35469798054 0.153194184032 0)
(-2.52913148153 0.0723566922039 0)
(-2.69689078117 0.0736111385692 0)
(-2.7010227269 0.073723919269 0)
(-3.68020599165 0.105288133152 0)
(-3.67990311049 0.105279467932 0)
(-3.926006813 0.107159634922 0)
(-1.5340313355 0.0438875693037 0)
(-3.24801323704 0.0929233991129 0)
(-1.27655915048 0.0348434475634 0)
(-2.10198453791 0.057373281918 0)
(-2.86621734125 0.0820004841444 0)
(-1.12558259891 0.0307225703162 0)
(-1.73840671831 0.0497346068248 0)
(-0.724537816098 0.0207285228674 0)
(-0.34223050192 0.00979097657478 0)
(-0.603373141268 0.0164689590772 0)
(-0.221983021458 0.00605898580196 0)
(-0.302004909778 0.00864015036803 0)
(-0.532005181015 0.0145209837093 0)
(-0.821051068739 0.0234896998825 0)
(-1.19465730136 0.034178314285 0)
(-1.53396991653 0.0438858121499 0)
(-1.63595189076 0.0446530064042 0)
(-0.602036638763 0.0164324794868 0)
(-2.232095221 0.0638586914344 0)
(-0.821047037284 0.0234895845454 0)
(-0.875988337316 0.0239099407856 0)
(-0.56425016037 0.016142804547 0)
(-0.161652511041 0.00462476588142 0)
(-0.172813025697 0.00471689979807 0)
(-0.284431613807 0.00776350866101 0)
(-0.235194319989 0.00672874587338 0)
(-0.387809592138 0.0110949626372 0)
(-0.414095371769 0.0113026571209 0)
(-0.0349542691033 0.00101231822736 0)
(-0.125897285102 0.00360183374172 0)
(-0.0296277083752 0.000813531670147 0)
(-0.0804073148838 0.00220786219242 0)
(-0.11109864933 0.0031784550675 0)
(-0.0261322545001 0.000717551839614 0)
(-0.0396100766966 0.00114715608868 0)
(-0.00870128870343 0.000203132202209 0)
(0 0 0)
(-0.00768023545716 0.000179088048653 0)
(0 0 0)
(0 0 0)
(-0.0051742505109 0.000100025610321 0)
(-0.00986010749054 0.000230184909022 0)
(-0.0272217175089 0.000788374110552 0)
(-0.0594674917708 0.00170132356883 0)
(-0.0625860875157 0.00171851847804 0)
(-0.0126064438349 0.000293957579744 0)
(-0.0865216014267 0.00247532282491 0)
(-0.0187097219777 0.000541856347531 0)
(-0.0203363401749 0.000558404874844 0)
(-0.00486798204065 8.90322355972e-05 0)
(0 0 0)
(0 0 0)
(0 0 0)
(0 0 0)
(0 0 0)
(-0.00402597031853 7.78277235317e-05 0)
(0 0 0)
(0 0 0)
(0 0 0)
(0 0 0)
(0 0 0)
(0 0 0)
(0 0 0)
(0 0 0)
(0 0 0)
(0 0 0)
(0 0 0)
(0 0 0)
(0 0 0)
(0 0 0)
(0 0 0)
(0 0 0)
(0 0 0)
(0 0 0)
(0 0 0)
(0 0 0)
(0 0 0)
(0 0 0)
(0 0 0)
(0 0 0)
(0 0 0)
(0 0 0)
(0 0 0)
(0 0 0)
(0 0 0)
(0 0 0)
(0 0 0)
(0 0 0)
(0 0 0)
(0 0 0)
(0 0 0)
(0 0 0)
(0 0 0)
(0 0 0)
(0 0 0)
(0 0 0)
(0 0 0)
(0 0 0)
(0 0 0)
(0 0 0)
(0 0 0)
(0 0 0)
(0 0 0)
(0 0 0)
(0 0 0)
(0 0 0)
(0 0 0)
(0 0 0)
(0 0 0)
(0 0 0)
(0 0 0)
(0 0 0)
(0 0 0)
(0 0 0)
(0 0 0)
(0 0 0)
(0 0 0)
(0 0 0)
(0 0 0)
(0 0 0)
(0 0 0)
(0 0 0)
(0 0 0)
(0 0 0)
(0 0 0)
(0 0 0)
(0 0 0)
(0 0 0)
(0 0 0)
(0 0 0)
(0 0 0)
(0 0 0)
(0 0 0)
(0 0 0)
(0 0 0)
(0 0 0)
(0 0 0)
(0 0 0)
(0 0 0)
(0 0 0)
(0 0 0)
(0 0 0)
(0 0 0)
(0 0 0)
(0 0 0)
(0 0 0)
(0 0 0)
(0 0 0)
(0 0 0)
(0 0 0)
(0 0 0)
(0 0 0)
(0 0 0)
(0 0 0)
(0 0 0)
(0 0 0)
(0 0 0)
(0 0 0)
(0 0 0)
(0 0 0)
(0 0 0)
(0 0 0)
(0 0 0)
(0 0 0)
(0 0 0)
(0 0 0)
(0 0 0)
(0 0 0)
(0 0 0)
(0 0 0)
(0 0 0)
(0 0 0)
(0 0 0)
(0 0 0)
(0 0 0)
(0 0 0)
(0 0 0)
(0 0 0)
(0 0 0)
(0 0 0)
(0 0 0)
(0 0 0)
(0 0 0)
(0 0 0)
(0 0 0)
(0 0 0)
(0 0 0)
(0 0 0)
(0 0 0)
(0 0 0)
(0 0 0)
(0 0 0)
(0 0 0)
(0 0 0)
(0 0 0)
(0 0 0)
(0 0 0)
(0 0 0)
(0 0 0)
(0 0 0)
(0 0 0)
(0 0 0)
(0 0 0)
(0 0 0)
(0 0 0)
(0 0 0)
(0 0 0)
(0 0 0)
(0 0 0)
(0 0 0)
(0 0 0)
(0 0 0)
(0 0 0)
(0 0 0)
(0 0 0)
(0 0 0)
(0 0 0)
(0 0 0)
(0 0 0)
(0 0 0)
(0 0 0)
(0 0 0)
(0 0 0)
(0 0 0)
(-1.19391290256 0.0341570175532 0)
(-2.63229177269 -0.219499710868 0.0204445795042)
(-1.73272293663 0.0237680632308 0.0016246514392)
(-0.602657743106 0.0164494324158 0)
(-2.88707778378 -0.0928697567356 0.0121637605786)
(-0.878300069145 0.0239730390813 0)
(-0.867368413377 0.0134313853679 0.000779579360456)
(-1.53322868919 0.0438646061513 0)
(-3.24626418948 0.092873360079 0)
(-2.10775315834 0.0567163569856 5.48635454744e-05)
(-1.28077453181 0.0349585056226 0)
(-3.07018176617 0.0345204459172 0.00368223325613)
(-1.73754328988 0.0497099047382 0)
(-1.12828155283 0.0307962377675 0)
(-0.563958833455 0.0161344698866 0)
(-0.161571551765 0.00462244969285 0)
(-0.285092830617 0.00778155645239 0)
(-0.173654718992 0.00473987366198 0)
(-0.23510115076 0.00672608036655 0)
(-0.41544983157 0.0113396268524 0)
(-0.387581516824 0.0110884375611 0)
(-0.724201122736 0.0207188903045 0)
(-0.342137731215 0.00978832246948 0)
(-0.60518703837 0.0165184690655 0)
(-0.222972778094 0.00608600102756 0)
(-0.820694984869 0.0234795125707 0)
(-0.30190763483 0.00863736739944 0)
(-0.53354355541 0.0145629733559 0)
(-1.53363881855 0.043876339667 0)
(-3.24651350529 0.0928804928306 0)
(-2.10601570275 0.057483311822 0)
(-1.28116460212 0.0349691525199 0)
(-2.86531034608 0.0819745356435 0)
(-1.73769658836 0.049714290501 0)
(-1.13000011935 0.0308431457252 0)
(-1.19441461842 0.0341713712948 0)
(-1.53372284516 0.0438787436098 0)
(-1.63872821197 0.0447287855816 0)
(-0.60336660714 0.0164687807294 0)
(-2.23157352565 0.0638437660933 0)
(-0.820906597242 0.0234855666535 0)
(-0.879139496675 0.0239959511016 0)
(-0.72438413857 0.0207241262602 0)
(-0.342168844904 0.00978921261046 0)
(-0.605518786738 0.0165275240762 0)
(-0.223182672016 0.00609173004362 0)
(-0.820764437013 0.0234814995482 0)
(-0.301987567748 0.00863965422459 0)
(-0.534130571029 0.0145789958394 0)
(-0.56416716361 0.0161404300674 0)
(-0.1616450313 0.00462455189123 0)
(-0.285402508657 0.00779000905761 0)
(-0.173710669818 0.00474140082951 0)
(-0.387746951657 0.0110931705366 0)
(-0.235193754235 0.00672872968754 0)
(-0.415692508353 0.0113462506707 0)
(-0.266499944191 0.0076243780029 0)
(-0.930235128762 0.0266133798819 0)
(-0.364927024526 0.00996061611303 0)
(-0.365498857416 0.00997622418673 0)
(-0.497901231526 0.0142446078508 0)
(-0.497900701894 0.0142445926984 0)
(-0.195351522852 0.00533208393858 0)
(-0.125880058637 0.00360134090455 0)
(-0.0980303208883 0.00280457928224 0)
(-0.17241521294 0.00470604157192 0)
(-0.0378321753982 0.00103881381736 0)
(-0.23517686285 0.00672824643677 0)
(-0.0508504651785 0.00147269143628 0)
(-0.0907370988043 0.00249150229913 0)
(-0.125878540957 0.00360129748478 0)
(-0.0980410262754 0.00280488555592 0)
(-0.172914490262 0.00471966925473 0)
(-0.0379649891663 0.00104246068081 0)
(-0.235179220921 0.00672831389954 0)
(-0.0508544511179 0.00147280687395 0)
(-0.0908828528084 0.00249550448171 0)
(-0.0594572791503 0.00170103139286 0)
(-0.00869913462141 0.000203081915012 0)
(-0.017879281609 0.000490937795264 0)
(-0.0179161158094 0.00049194920621 0)
(-0.0240176301557 0.000695579836409 0)
(-0.0240204433799 0.00069566131081 0)
(-0.0428895537763 0.00117768171178 0)
(0 0 0)
(-0.0349474594299 0.00101212101092 0)
(-0.00764050837919 0.000178161691003 0)
(-0.0125774016338 0.000293280372495 0)
(-0.00985729971738 0.000230119361358 0)
(-0.018705811598 0.000541743098168 0)
(0 0 0)
(0 0 0)
(0 0 0)
(0 0 0)
(0 0 0)
(0 0 0)
(0 0 0)
(0 0 0)
(0 0 0)
(0 0 0)
(-0.00454179557725 8.77993583054e-05 0)
(0 0 0)
(-0.00767608910893 0.000179198844929 0)
(0 0 0)
(0 0 0)
(0 0 0)
(0 0 0)
(0 0 0)
(0 0 0)
(0 0 0)
(0 0 0)
(0 0 0)
(0 0 0)
(0 0 0)
(0 0 0)
(0 0 0)
(0 0 0)
(0 0 0)
(0 0 0)
(0 0 0)
(0 0 0)
(0 0 0)
(0 0 0)
(0 0 0)
(0 0 0)
(0 0 0)
(0 0 0)
(0 0 0)
(0 0 0)
(0 0 0)
(0 0 0)
(0 0 0)
(0 0 0)
(0 0 0)
(0 0 0)
(0 0 0)
(0 0 0)
(0 0 0)
(0 0 0)
(0 0 0)
(0 0 0)
(0 0 0)
(0 0 0)
(0 0 0)
(0 0 0)
(0 0 0)
(0 0 0)
(0 0 0)
(0 0 0)
(0 0 0)
(0 0 0)
(0 0 0)
(0 0 0)
(0 0 0)
(0 0 0)
(0 0 0)
(0 0 0)
(0 0 0)
(0 0 0)
(0 0 0)
(0 0 0)
(0 0 0)
(0 0 0)
(0 0 0)
(0 0 0)
(0 0 0)
(0 0 0)
(0 0 0)
(0 0 0)
(0 0 0)
(0 0 0)
(0 0 0)
(0 0 0)
(0 0 0)
(0 0 0)
(0 0 0)
(0 0 0)
(0 0 0)
(0 0 0)
(0 0 0)
(0 0 0)
(0 0 0)
(0 0 0)
(0 0 0)
(0 0 0)
(0 0 0)
(0 0 0)
(0 0 0)
(0 0 0)
(0 0 0)
(0 0 0)
(0 0 0)
(0 0 0)
(0 0 0)
(0 0 0)
(0 0 0)
(0 0 0)
(0 0 0)
(0 0 0)
(0 0 0)
(0 0 0)
(0 0 0)
(0 0 0)
(0 0 0)
(0 0 0)
(0 0 0)
(0 0 0)
(0 0 0)
(0 0 0)
(0 0 0)
(0 0 0)
(0 0 0)
(0 0 0)
(0 0 0)
(0 0 0)
(0 0 0)
(0 0 0)
(0 0 0)
(0 0 0)
(0 0 0)
(0 0 0)
(0 0 0)
(0 0 0)
(0 0 0)
(0 0 0)
(0 0 0)
(0 0 0)
(0 0 0)
(0 0 0)
(0 0 0)
(0 0 0)
(0 0 0)
(0 0 0)
(0 0 0)
(0 0 0)
(0 0 0)
(0 0 0)
(0 0 0)
(0 0 0)
(0 0 0)
(0 0 0)
(0 0 0)
(0 0 0)
(0 0 0)
(0 0 0)
(0 0 0)
(0 0 0)
(0 0 0)
(0 0 0)
(0 0 0)
(0 0 0)
(0 0 0)
(0 0 0)
(0 0 0)
(0 0 0)
(0 0 0)
(0 0 0)
(0 0 0)
(0 0 0)
(0 0 0)
(0 0 0)
(0 0 0)
(0 0 0)
(0 0 0)
(0 0 0)
(0 0 0)
(0 0 0)
(0 0 0)
(0 0 0)
(0 0 0)
(0 0 0)
(0 0 0)
(0 0 0)
(0 0 0)
(0 0 0)
(0 0 0)
(0 0 0)
(0 0 0)
(0 0 0)
(0 0 0)
(-0.0272138587681 0.000788146511844 0)
(-0.0594424080143 0.00170060594001 0)
(-0.0629333075445 0.00172805261029 0)
(-0.0127024304179 0.000296195798862 0)
(-0.086494260695 0.00247454062559 0)
(-0.020483102408 0.000562434741856 0)
(-0.0187023867286 0.000541643909777 0)
(-0.0349470489787 0.00101210912376 0)
(-0.125875086079 0.00360119864312 0)
(-0.0808101306669 0.00221892289926 0)
(-0.0298117818437 0.00081858604676 0)
(-0.111072134549 0.00317769649805 0)
(-0.0396050142132 0.00114700947299 0)
(-0.0263037128639 0.000722259824698 0)
(-0.0048668858809 8.90121875459e-05 0)
(0 0 0)
(0 0 0)
(0 0 0)
(0 0 0)
(-0.0040580102778 7.84471014442e-05 0)
(0 0 0)
(-0.00870011730513 0.000203104855833 0)
(0 0 0)
(-0.00772701109002 0.000180178764798 0)
(0 0 0)
(-0.00985989390803 0.000230179922923 0)
(0 0 0)
(-0.0052112235947 0.000100740352536 0)
(-0.0349558611192 0.00101236433408 0)
(-0.125887781441 0.0036015618486 0)
(-0.0809156184212 0.00222181943205 0)
(-0.0298241671391 0.000818926128075 0)
(-0.111100298648 0.00317850225334 0)
(-0.0396085356908 0.00114711145927 0)
(-0.0263266596448 0.00072288990829 0)
(-0.0272236153467 0.000788429074248 0)
(-0.0594667869622 0.00170130340475 0)
(-0.0629806454465 0.00172935243685 0)
(-0.0127092187849 0.000296354090287 0)
(-0.0865250764331 0.00247542224243 0)
(-0.0187102777447 0.000541872443219 0)
(-0.0204986735351 0.000562862301251 0)
(-0.00870202277947 0.000203149339266 0)
(0 0 0)
(-0.00773145262987 0.000180282332809 0)
(0 0 0)