/*--------------------------------*- C++ -*----------------------------------*\
| =========                 |                                                 |
| \\      /  F ield         | OpenFOAM: The Open Source CFD Toolbox           |
|  \\    /   O peration     | Version:  v1906                                 |
|   \\  /    A nd           | Web:      www.OpenFOAM.com                      |
|    \\/     M anipulation  |                                                 |
\*---------------------------------------------------------------------------*/
FoamFile
{
    version     2.0;
    format      ascii;
    class       volVectorField;
    location    "10.9";
    object      U;
}
// * * * * * * * * * * * * * * * * * * * * * * * * * * * * * * * * * * * * * //

dimensions      [0 1 -1 0 0 0 0];


internalField   nonuniform List<vector> 
28582
(
(0.81504456522 0.00377458826614 -0.000730183338877)
(0.816460268144 0.00295815026312 -0.0007944800511)
(0.815456808992 0.00409255152324 -0.000919457014399)
(0.816933136606 0.0028721501908 -0.000796231133372)
(0.815620570563 0.00387422358776 -0.00291710374701)
(0.81770852562 0.00271522544791 -0.00239764453222)
(0.817429038412 0.00480469231745 -0.00477530959828)
(0.821238808706 0.00327522147242 -0.00363523908316)
(-0.0486799054704 0.0134442223377 -0.0102227424667)
(-0.293512713259 0.0131590584491 0.000237741746735)
(-0.147799048938 0.131439539104 -0.360894619326)
(0.82050089491 0.00375516615044 -0.00524041290944)
(0.753834204151 -0.00855154384253 -0.00612018726057)
(0.751853024117 -0.00826511537308 -0.00649940573668)
(0.821479523355 0.00317661412711 -0.00255392464145)
(0.82094709539 0.00377740316266 -0.00190636912235)
(0.751857287551 -0.00755231099086 -0.00522786160085)
(0.821449359622 0.00382195578079 -0.00269527724997)
(0.821426741125 0.00392152573221 -0.00127628812767)
(0.814288173849 0.00664129496769 -0.000846134781209)
(0.81795084777 0.00106919097933 -0.000504238421286)
(0.817576307416 0.000388722543977 -0.000579663962053)
(0.814231822619 0.00636646458316 -0.000747978467597)
(0.818451780876 0.00148261462274 -6.86130498687e-05)
(0.817915677257 0.000449498574941 0.000142130819664)
(0.813476603069 0.00606859280352 -0.00237567987134)
(0.819136689345 0.00122889758673 -0.00167232027099)
(0.815459713458 0.00617233686881 -0.00415807620249)
(0.821527807957 0.00307173345604 -0.00201030632754)
(-0.315919744332 0.00953541273656 -0.00443765806626)
(0.19138270042 0.285015087808 -0.25970711191)
(-0.107337732047 -0.187584208556 -0.268792577514)
(0.817621713271 0.00465440985443 -0.00495365358626)
(0.816284856084 0.0047347020047 -0.00483942552749)
(0.762829318858 0.00243213266784 -0.00403581601921)
(0.757180687099 0.00177577543287 -0.00654547306104)
(0.814085424948 0.00486133240754 -0.00565292571683)
(0.821361734999 0.00215570455537 -0.00152492851414)
(0.820902654667 0.00335888413988 -0.00106212223565)
(0.820166986147 0.00261696173294 -0.00109591518271)
(0.820866844075 0.0039929562627 -0.00247575410273)
(0.746158111744 -0.00113694952014 -0.00161761018176)
(0.820743955136 0.00401675721172 -0.001286045374)
(0.818492626031 0.00341800167933 -0.00031619935564)
(-0.108042200791 0.00449603439887 -0.0122680001302)
(-0.216336950187 0.0385905862634 0.00333297053646)
(-0.255112990129 0.0612730580604 0.0181152103004)
(-0.217422333564 0.0587401125664 0.0335919305496)
(-0.213928564795 0.00370432421718 -0.00193923362492)
(-0.290771127789 0.0291061842518 0.0333270206402)
(0.816596509369 0.00435624928813 -0.00798260682787)
(0.818521183098 0.00430359883911 -0.0107499571935)
(0.752787713167 -0.0086348873708 -0.00731029158053)
(0.753981530307 -0.00924463491175 -0.00692851095586)
(0.816319398096 0.00468974828768 -0.00827124449424)
(0.752736720665 -0.00938357697299 -0.0079322126131)
(0.818962948061 0.00394237156298 -0.0104464562439)
(0.820585478263 0.00390723815733 -0.0099179467214)
(0.822843517391 0.00363168883299 -0.0092850297475)
(0.75224319253 -0.00848453927271 -0.00726045272189)
(0.752373937692 -0.00912423870649 -0.00724828539589)
(0.822502524619 0.00384694932912 -0.00948579860916)
(0.75263685434 -0.00926116216109 -0.00790773351155)
(0.821031255813 0.00355478143628 -0.010094276937)
(0.823275990667 0.00342579299929 -0.00543168043404)
(0.823476480886 0.00344678054252 -0.00788226992261)
(0.75122973098 -0.007156876237 -0.00325284674155)
(0.752557332791 -0.00850187381942 -0.00609392601514)
(0.82324860037 0.00349113418675 -0.00817994535891)
(0.751691924741 -0.00796273458645 -0.00415195228206)
(0.823277629514 0.00353590831428 -0.00527744720211)
(0.82148536094 0.00395373561858 -0.00315938115339)
(0.749991314121 -0.00505225477847 -0.00127198556846)
(0.750521351636 -0.00502788479954 -0.00158704832222)
(0.822452821385 0.00374308258823 -0.00449906786834)
(0.750314553429 -0.00602388794474 -0.00179755379494)
(0.750948562501 -0.00666029367384 -0.00251666024448)
(0.8224912334 0.00382003888101 -0.00435360508808)
(0.821440583612 0.00353488043693 -0.000207866272344)
(0.753298242905 -0.00431411965433 -0.000603816837259)
(0.754391713915 -0.00548582040048 0.000231108548848)
(0.822461287643 0.00384796453715 -0.00385354517861)
(0.754886092383 -0.00725244583717 -0.0022079966548)
(0.822293573092 0.00366412414937 -0.00326628227348)
(0.753471282847 -0.0063140592607 -0.00220416050833)
(0.00680545966041 0.0210058398541 0.00359752884231)
(-0.146462040715 0.245046466717 0.117464662274)
(-0.0186650319438 0.0619662518105 0.00460257270521)
(-0.0195939158283 0.036593187831 0.00735700396261)
(-0.106486407712 0.134549518069 0.109704457264)
(-0.164506264411 0.0992537982708 0.0962897463457)
(-0.231494711151 -0.00605362698699 0.00336131046051)
(-0.195160344633 -0.0694017204172 -0.00156561295668)
(-0.162584226497 -0.0694345280871 0.0447911171342)
(-0.217634285424 -0.0846545495115 -0.00162651014964)
(-0.131045039861 -0.0840362173712 -0.000788024000484)
(-0.317687909886 -0.0367293149749 -0.00838373092271)
(-0.128067799475 -0.100328061986 0.0263306762295)
(0.814532471671 0.00554904949421 -0.00544596113075)
(0.814558132661 0.00625522551212 -0.00439708236385)
(0.761804265276 0.00238381218899 -0.00487206858034)
(0.762687136137 0.000221724923812 -0.00388578754933)
(0.815523918421 0.00529192976573 -0.00577225300539)
(0.81379914821 0.00623278676227 -0.00413392493709)
(0.761641015715 -0.00047374176959 -0.00477345326491)
(0.815595017163 0.00432360699878 -0.00640700646924)
(0.817339801571 0.00283778464118 -0.00841679527156)
(0.75964754528 0.00197954634633 -0.00559942448073)
(0.75696094738 -0.00153656909476 -0.00655429908428)
(0.816525611313 0.00392095836978 -0.00657978489566)
(0.81641026422 0.00349094883865 -0.00852177237099)
(0.759303734713 -0.00100171012454 -0.00551023482393)
(0.757960818655 -0.00580081911797 -0.00477755407429)
(0.75582603679 -0.00658950258375 -0.00654692599873)
(0.814877206643 0.00449933968531 -0.00823190180677)
(0.81465733232 0.00478870826126 -0.00555794304017)
(0.756329674349 -0.00501379100796 -0.00612989872575)
(0.815516064532 0.0041503610443 -0.00804059975006)
(0.758615309238 -0.00420553440705 -0.00454104527067)
(0.820818225533 0.00438189605668 -0.00280621686346)
(0.748548338678 -0.00406438048128 -0.000882844884261)
(0.749225373645 -0.00356365022743 -0.000645697432959)
(0.820339243518 0.00400506954508 -0.00212848267778)
(0.74834137424 -0.00299898416327 -0.00123008389612)
(0.820402391717 0.00467557144398 -0.00325725393163)
(0.748939958148 -0.00175250054072 -0.000621799193991)
(0.819884485541 0.00358520676415 -0.00210979504385)
(0.820733254222 0.00399061740877 -0.00360023436666)
(0.747388696914 -0.00239235489982 -0.00160840571121)
(0.747477988722 0.000361806282316 3.26220024215e-05)
(0.820449716332 0.00449219608899 -0.00345941247829)
(0.819868861042 0.00272089763195 -0.00214719397616)
(0.748023515726 -0.000893811708524 -0.000320107231214)
(0.819159277421 0.00356410356176 0.000399930925846)
(0.820539379793 0.00361772586985 -0.000246549032487)
(0.752413604536 -0.00263956402723 5.43007890006e-05)
(0.75360954006 -0.00380537781544 0.00125464564069)
(0.753328619862 -0.0017832783113 0.00128075276772)
(0.819834590051 0.0039202277335 -0.000899260573636)
(0.752078319487 -0.000602855640867 -0.000146019189222)
(0.752085731971 -0.000211809826281 0.00133073761237)
(0.75248102838 0.00120257243614 0.000308459575333)
(0.817917790132 0.00272416319901 -0.00118678475086)
(0.819030800298 0.00357527133897 -0.00138222446984)
(0.75087282263 0.00152349339907 -0.00122660420796)
(0.818683158004 0.00273740734053 -0.0022325940472)
(0.750718274378 0.000399750730258 -0.00041581514397)
(0.819360481742 0.000189174637597 -0.00124580834731)
(0.821609874638 0.00123624605326 -0.00187446631873)
(-0.27885686967 -0.074280375842 -0.00993958830368)
(0.0177544920562 -0.0412104168044 -0.347212840354)
(0.81845503842 0.00417366875692 -0.00505384586883)
(0.753336903163 -0.00677039232969 -0.00705977785405)
(0.819996626606 0.00165145581985 -0.00197460227558)
(0.819915300645 0.000152841726969 -0.00207694813054)
(0.746295976444 -0.000445159002007 -0.0012920633901)
(0.751400897606 0.00237835428416 -0.000559942754213)
(0.750803786014 0.00317837173959 -0.00222555098104)
(0.820275683434 -0.00111849680235 -0.0020098971935)
(0.820513359216 -0.00225196533319 -0.000890194477625)
(0.751001405885 0.00288473714305 -0.0021296456396)
(0.751162741094 0.000932356352882 0.00018440990734)
(-0.0440181074802 0.00323786222473 -0.00818225328401)
(-0.207160848656 -0.120996598601 -0.00559778607148)
(-0.190402160915 -0.126633502364 -0.0055307553895)
(-0.0803470405387 -0.061001885201 0.0254990569401)
(-0.0633630016297 -0.0454517969232 0.0117944223515)
(-0.0535442579712 -0.0275851253738 0.0121491436751)
(-0.173235318107 -0.105985455876 -0.00365374067112)
(-0.163784000001 -0.0465967380222 -0.00181910207363)
(0.819656880263 0.00317851249408 -0.0102228755271)
(0.817062672692 0.0039732011096 -0.00858674394625)
(0.753421201672 -0.00515851782975 -0.00639095499147)
(0.752142643205 -0.00709822663566 -0.00811351099609)
(0.817572625931 0.00354171234277 -0.00827395833723)
(0.752131985291 -0.00551205723748 -0.00738439898588)
(0.81911604418 0.00367368572944 -0.0104467663048)
(0.820050590407 0.000563937225831 -0.00232779551399)
(0.820940781044 0.00307856997012 -0.00326074963464)
(0.746393509866 -2.12970912644e-05 -0.000365914876263)
(0.747177597239 0.00129461163134 -7.38345320815e-05)
(0.820918612323 0.00211613304743 -0.00262456840766)
(0.819956612983 0.00158006245206 -0.00214564546487)
(0.747315489555 0.00191598295359 8.31088629042e-06)
(0.818835529256 0.0006734013277 -0.00372097149175)
(0.817585327983 0.00187846487238 -0.00215631253676)
(0.750026945297 0.00228806759914 -0.00185550003696)
(0.751351869442 0.00308690977824 -0.00153746189727)
(0.818692797655 0.00167818734096 -0.00294044511194)
(0.749591324515 0.00283710375935 -0.00232490944649)
(0.817826352987 0.000919081210455 -0.00348035165038)
(0.819015653246 5.17976666301e-05 -0.00345735007155)
(0.818251621769 -0.00108627435248 -0.00410062517811)
(0.749820645424 0.00318023690847 -0.00199285584864)
(0.750777259161 0.00321207634545 -0.00202744762644)
(0.819150417749 -0.000699825300812 -0.00351301359603)
(0.749623214082 0.00308335623646 -0.00222543095427)
(0.818011072798 -2.04904145677e-05 -0.00354878119276)
(0.819056110774 -0.00133035326151 -0.00227654752661)
(0.818401153946 -0.00159418940072 -0.00359170743096)
(0.75021077992 0.0030025727103 -0.00163016149412)
(0.750681634498 0.00229494626287 -0.00161297344805)
(0.819171421251 -0.0012648550956 -0.00279237929167)
(0.750598577691 0.00237392857576 -0.000987236219006)
(0.818697942963 -0.00201262186965 -0.00302993871736)
(0.818773118556 -0.00136439050549 -0.00135054396368)
(0.818699334822 -0.00185260576521 -0.00104367508238)
(0.751489005689 0.000603582757507 4.97420983209e-05)
(0.751061315946 0.00180032975468 -0.00102633477155)
(0.818660211558 -0.00113502166949 -0.000803647367035)
(0.750937755436 0.00184419672126 -0.000703201671225)
(0.818537237438 -0.00201857007629 -0.00193085788021)
(0.805125836378 0.0135440735262 -0.00810478177305)
(0.80783857932 0.0155131592793 -0.00496285563549)
(0.812743170272 0.0191920476668 0.00231267651148)
(0.812602738911 0.0138361791296 0.0018390337691)
(-0.370558028001 -0.0441198098004 -0.0205789346416)
(-0.529512554414 0.0366574344991 0.028526283397)
(-0.550628932545 0.064865265336 0.00349481615137)
(-0.447662746769 0.0930571794648 0.02429025125)
(-0.356284695136 0.0245574908497 0.0201218772522)
(0.326694618181 -0.0237189971335 -0.191391595649)
(0.469119874516 -0.24814563775 0.183563656931)
(0.176449139382 -0.110493320251 -0.227315619422)
(0.478508694684 -0.164700076631 -0.4390211572)
(0.157477936484 -0.072105711145 -0.34151742473)
(0.477158868961 -0.0772044200442 -0.379319123979)
(0.797280750212 0.00133097792916 -0.0133078785096)
(0.798832660618 0.0063230406234 -0.0133199742456)
(0.776480730418 -0.000285528328334 -0.0158291205285)
(0.777117834586 0.00561011821811 -0.017902904833)
(0.800455992119 0.00919246510621 -0.00890620209181)
(0.776841145703 0.00638463557898 -0.0168463203604)
(0.800770498068 0.0109323886401 -0.0114829299154)
(0.803971352804 0.0136616943707 -0.00930497676959)
(0.778131357542 0.00631604509691 -0.017416384595)
(0.781815622883 0.00326432816425 -0.0119955069462)
(0.804454534789 0.0180015832148 -0.000977624271501)
(0.806814450469 0.015633125542 -0.00668969368461)
(0.809409846813 0.0187546913515 -0.000709902104187)
(0.778034781628 0.00749864359092 -0.0164789557885)
(0.7730933473 0.0105713189836 -0.00758763807306)
(0.781171396386 0.0047689780014 -0.0111460869429)
(0.774518057486 0.00622358804381 -0.0035795363657)
(0.811913033874 0.0215076331903 0.00459027811473)
(0.813844481108 0.0243001974827 0.0107945234412)
(0.771421699581 0.0104001370071 -0.00337907228043)
(0.755460433052 0.0107202953276 0.00977578608551)
(0.771878206863 0.00560706140867 -0.000667578611248)
(0.756353691657 0.00657432120021 0.00799970104371)
(0.811561559051 0.0173359871934 -0.00199307697499)
(0.812791019735 0.0149608308063 -0.00137826089539)
(0.782015427843 0.00252016114205 -0.0100620606874)
(0.774545705783 0.00437323520438 -0.00387475712019)
(0.775356883731 0.00126737267847 0.000347330855403)
(0.814620089816 0.0191529989508 0.00614899437536)
(0.8127954528 0.0164022524108 0.00198149991039)
(0.813963023714 0.0162063957522 0.00467074888397)
(0.7718382825 0.00396932774761 -0.00158159127517)
(0.75707857149 0.00532632751913 0.00652617400745)
(0.772595668454 0.00122702610241 0.00150179007167)
(0.760348263385 0.00275577044469 0.00605504371104)
(0.773096458931 0.00123835831011 0.00215192255755)
(0.761500344027 0.00235727798607 0.00558982927223)
(-0.277513632604 0.00269765839012 -0.0393389173152)
(-0.280743849127 -0.0507434864267 -0.0408712640719)
(-0.315645524975 -0.0552232610086 -0.0345267020882)
(-0.15678367851 -0.0820238307481 0.125490019245)
(-0.0686735437493 -0.0577114976521 0.0458650255593)
(-0.171192181622 -0.118247804701 0.139921308789)
(-0.0991651258151 -0.0699544207622 0.024715361837)
(-0.10316587128 -0.0903881816442 -0.153806179805)
(-0.147904540758 -0.120532865287 -0.388852978851)
(-0.13946837141 -0.062365392008 -0.188862441311)
(-0.077383992168 -0.0999165179802 -0.436613282766)
(-0.307029326836 -0.0836661105287 -0.0301997209082)
(-0.384865414591 -0.0875883127863 -0.0166450691655)
(-0.501140132471 0.0215706879938 0.0076856435075)
(-0.466695948162 0.0188890775567 -0.00280770955281)
(-0.540659696925 0.0952722445838 0.014624159106)
(-0.180110776175 -0.141147126339 0.086079791006)
(-0.132018587682 -0.0770084430821 -0.032817295557)
(-0.183433235939 -0.150789010395 0.0237061941397)
(-0.117175943427 -0.0800674578611 -0.0690843211768)
(-0.313756800448 0.00361534263996 0.0401310263847)
(-0.494829722385 0.0882466690057 0.0293311562998)
(-0.284736235806 0.0411567780731 0.0357390153108)
(-0.0853133940961 -0.0707623949521 -0.203740410932)
(0.110783081843 -0.0913631608756 -0.388823237232)
(-0.0471573799344 -0.0187202399036 -0.214069748612)
(0.146778164198 0.0288455788858 -0.355906944365)
(-0.546698499109 0.0972098512616 0.013557376329)
(-0.494438060235 0.0489662517436 0.0136131618484)
(-0.154633913487 -0.127887000106 0.00661407513591)
(-0.0758361120455 -0.0800104394443 -0.0685593471401)
(-0.0346961088795 -0.0738826581548 -0.0747214379194)
(-0.236492823977 0.0701949126581 0.0292435544683)
(-0.385765623303 0.043934160062 0.0206885109259)
(-0.207795961499 0.0394783648471 0.0235862223003)
(0.0161428888372 -0.0313716771246 -0.183641445633)
(0.203943659089 0.0399453562409 -0.282331372689)
(0.0743116505193 -0.0423814068419 -0.167608302713)
(0.243209953065 -0.0261802315943 -0.214903687185)
(0.80043931512 0.00148552708931 -0.0215683818246)
(0.802630816295 -0.000658354321807 -0.0221629839127)
(0.777950597528 -0.00121866597 -0.0141540538151)
(0.776483589083 0.00144218009443 -0.0173876551152)
(0.803523225397 0.00292992737228 -0.023757557098)
(0.778313227375 0.000213764385688 -0.0155869203399)
(0.799996089444 -0.00134274560758 -0.0202562395954)
(0.801309118286 0.00469571878811 -0.0218103109914)
(0.805635031631 0.0100341186708 -0.0237559473868)
(0.777021630757 0.00331194055897 -0.017763017551)
(0.77917065031 0.00407309531631 -0.0165270733415)
(0.804661221941 0.00676667399207 -0.0235889701535)
(0.802703298419 0.00783615309236 -0.022052081719)
(0.778903433879 0.00198569339006 -0.0160784881105)
(0.808013136858 0.00949663980146 -0.0192034200468)
(0.80735271748 0.0105853344445 -0.0212609411852)
(0.776794421285 0.00422978187678 -0.0168970909232)
(0.774835668027 0.00810297214948 -0.0155902349309)
(0.805661880016 0.00718955163229 -0.0212730942966)
(0.809994166879 0.013452664227 -0.018463910179)
(0.774958412584 0.00563979168298 -0.0159025152869)
(0.804859706112 0.0127224560505 -0.0193962360167)
(0.807684296375 0.0132260746053 -0.0221072875587)
(0.780400599334 0.00500720462687 -0.0159428298334)
(0.77877658535 0.00604058227516 -0.0157268820524)
(0.803619725922 0.0108018704005 -0.0205933938118)
(0.80906175379 0.0150508530711 -0.020519657122)
(0.781257867805 0.00494159891051 -0.0149796539422)
(0.806123223444 0.0139289826939 -0.0168388567975)
(0.810998127858 0.0160883707229 -0.0159106475602)
(0.780713997498 0.0049559129276 -0.0140475516795)
(0.783976256907 0.00243700157027 -0.0113886016389)
(0.810112921862 0.0158793613972 -0.0179303732177)
(0.807367165498 0.0143073670745 -0.0149166664241)
(0.782995787353 0.00423718483804 -0.0134479975391)
(0.813745593569 0.0172896312693 -0.0152642829429)
(0.808702912666 0.013775743184 -0.0195857393863)
(0.776011383014 0.00874434676141 -0.0150268655425)
(0.778657604382 0.00766871563044 -0.0146855339611)
(0.8124224445 0.0161320490581 -0.0174477141801)
(0.810131134217 0.0155704036167 -0.0178361190962)
(0.776198291017 0.00879306427218 -0.0126744328598)
(0.812877749174 0.0176397723685 -0.0111181561572)
(0.81394612018 0.0182750508696 -0.004824422404)
(0.775911752689 0.00994707893152 -0.0124514701458)
(0.772991034997 0.0098868670183 -0.00530321090816)
(0.812000489665 0.0167366024916 -0.0124896310977)
(0.814899602714 0.0184998760018 -0.00303390698692)
(0.776090405689 0.00949932886784 -0.0100006533172)
(0.814610982064 0.0176186269867 -0.0129033446664)
(0.811810445067 0.0164717158647 -0.0137905524389)
(0.780242388439 0.00678099368035 -0.013189450476)
(0.778614355691 0.00532093314109 -0.00939294110945)
(0.811103076707 0.0162933430557 -0.0154984657929)
(0.815130436216 0.017429094854 -0.0111108937071)
(0.777810354674 0.0075303439337 -0.011556746789)
(0.81349145456 0.0176566501564 -0.0095929237469)
(0.815831579516 0.0178420183636 -0.00237114542079)
(0.773905990783 0.00864865929925 -0.00536382828126)
(0.777681555018 0.00570119938854 -0.00727994422381)
(0.815611097078 0.0182489078218 -0.003252233192)
(0.814131324888 0.0173900945424 -0.0082137347691)
(0.777193338252 0.007992451022 -0.00903269581071)
(0.814524754318 0.020340462466 0.00846577122096)
(0.813305992926 0.0200523129742 -0.00141252377733)
(0.765205546301 0.0103757390648 0.00287534067326)
(0.771196174504 0.00927682185426 -0.000877896127979)
(0.813482249445 0.0205843346178 0.00785983922541)
(0.814299343838 0.0194850664983 0.000334225526992)
(0.764970545073 0.00957936588625 0.00457666430176)
(0.814332620831 0.0212369421979 0.0111303280149)
(0.813440788454 0.023199646154 0.0171523547433)
(0.760674157475 0.0100756295703 0.00576161682923)
(0.755521805797 0.00981380535031 0.0112521324805)
(0.813201094386 0.0221549160995 0.0110630240292)
(0.760364056258 0.0089164327496 0.00644426937431)
(0.81449047307 0.0222118977321 0.0170971781243)
(0.815329858477 0.0195668096983 0.00556683713126)
(0.815548589711 0.0181337153954 0.000112940677683)
(0.771829551953 0.00794974779682 -0.00168923468227)
(0.766667389471 0.00607977059211 0.00303440005298)
(0.814982859247 0.0187549211561 -0.000450316762304)
(0.815743775419 0.0189159792854 0.00519875845853)
(0.765988297987 0.00833117803674 0.0026827945269)
(0.815529095033 0.0199086643732 0.00763731454663)
(0.815583349837 0.018969817643 0.0110448801471)
(0.755892356484 0.00864690877577 0.00854113066452)
(0.761514697872 0.00563488317975 0.00485929248701)
(0.815904509697 0.0185628093799 0.0070038794492)
(0.76112474642 0.00778566902218 0.00487344383823)
(0.815254772501 0.0205100467893 0.0121686077702)
(0.815662162058 0.0165663285961 -0.00818057506371)
(0.812472374231 0.0162158466411 -0.0117034544964)
(0.779241571639 0.00359425615168 -0.00915581803315)
(0.782714130673 0.000845686261066 -0.00857505001644)
(0.81540027605 0.0170587134298 -0.00966607216021)
(0.813226705583 0.0156060921374 -0.0102249576276)
(0.779992854468 0.00150740980393 -0.00743445034873)
(0.814981753789 0.0166747780782 -0.00588429304345)
(0.81616865888 0.0173204089154 -0.00279033453177)
(0.778062554849 0.00382823408462 -0.00711812624599)
(0.774823595456 0.00254189477311 -0.00265169815876)
(0.814714888464 0.0169885637082 -0.00739196873968)
(0.816136375328 0.0168512266698 -0.0016265640671)
(0.77843131005 0.00205383591302 -0.00571344252714)
(0.815281384303 0.0160318037887 -0.00386461112998)
(0.816130512073 0.0151634434775 0.00136349884855)
(0.775289844929 0.00161929279691 -0.00116361256503)
(0.779070654452 0.00093833950782 -0.00260956833316)
(0.816283051044 0.0161972144483 -4.54686209767e-05)
(0.815546374191 0.0149081993644 -0.00266847290642)
(0.778842532507 0.00113870519012 -0.00405798571776)
(0.815694086945 0.0169737876716 0.00381282286062)
(0.81586116013 0.0172494178882 -0.000632711156713)
(0.767283994422 0.00458497030682 0.00152018840785)
(0.771920104467 0.00221545429404 -0.000909859656264)
(0.815891023262 0.0179232426955 0.00364646471575)
(0.815983339487 0.0164622824235 0.000120960799065)
(0.767648120553 0.00300153410474 0.00197615706608)
(0.815776615065 0.0162033353019 0.00524575442966)
(0.815547209082 0.0174849739423 0.00876482573739)
(0.76218043156 0.00399669131971 0.00357815224868)
(0.758249504465 0.00385427156761 0.0064880422059)
(0.816094624895 0.0173053292608 0.00529103357894)
(0.76276006771 0.00261025818791 0.00343150621606)
(0.815218520563 0.0160372015039 0.00847025848073)
(0.81548708053 0.0161551832207 0.00405012990536)
(0.816053537315 0.0148795964293 0.00255543580967)
(0.772284180836 0.00128549884545 0.000238661037186)
(0.768491558392 0.00202896539302 0.00324737147921)
(0.816088748986 0.0158681607019 0.0012776509446)
(0.815107246284 0.0151181645316 0.00492335692023)
(0.768248461853 0.00221632166322 0.00231285007677)
(0.815489720808 0.0153269332321 0.00495411831195)
(0.814152657177 0.0137162655588 0.00759400753882)
(0.759583534393 0.00287407788199 0.00549006945454)
(0.764995371645 0.00180413160589 0.00395863355086)
(0.814966559398 0.0143891617399 0.00554784255152)
(0.764024610688 0.00171122375027 0.00322830541824)
(0.814810694921 0.0148889229909 0.00728147324598)
(0.814467518989 0.0129837000038 0.00649470427807)
(0.815977927597 0.0138632204832 0.00359394570288)
(0.769140108629 0.00193793881346 0.00361564607912)
(0.77317283998 0.00197141500422 0.00323199794443)
(0.814844485675 0.0140975157662 0.00561894634535)
(0.815786635085 0.0127759286842 0.00452656456862)
(0.768924675105 0.00265665026137 0.00440353401238)
(0.81353818552 0.0126869512917 0.00711425475175)
(0.765838101977 0.00164113197582 0.00418289942131)
(0.814486398865 0.0134333941298 0.00584422423529)
(0.816894785751 0.00443894085384 -0.000856588271543)
(0.818621644425 0.00312546665958 -0.000847821409946)
(0.819515301353 0.00140733304179 -0.000723151317768)
(0.817190736427 -0.00123250057435 -0.000188718655775)
(0.810065613352 -0.00246770188231 0.000384490655984)
(0.834719015428 -0.0513667707191 0.000743155093393)
(0.817322582579 0.00460349844925 -0.000932397101897)
(0.818947910269 0.00302031346606 -0.000525664009241)
(0.819937763931 0.00210503678767 4.56693288054e-05)
(0.818194534164 -0.00138594926936 0.00172409212334)
(0.811094194604 -0.00330460240113 0.00459387859032)
(0.838789092272 -0.0574374939662 0.00601763281294)
(0.816384120983 0.0063316566575 0.000382947101311)
(0.812006334834 0.00655882080111 0.000695027383157)
(0.788212032494 0.0108080499491 0.00262738326193)
(0.783719600639 0.0114487709653 0.00227607576743)
(0.780456151804 0.0127191981917 0.00246922298717)
(0.772706917367 0.0164608772428 0.00030664252446)
(0.781612287115 0.0199348286604 -0.0220387454889)
(0.71527052885 -0.014764019173 0.0245300281896)
(0.827069473437 0.00547576240072 0.000288651731906)
(0.82399175723 0.00351615538947 0.000219257728074)
(0.819620921321 0.000585891369024 -0.00116668575972)
(0.817628773749 -0.00101772391107 -0.00315470345481)
(0.816385617191 0.000400056125748 -0.0034750507645)
(0.817764829006 0.00351350111458 -0.00270126567721)
(0.810659889397 0.0105513818389 0.000714943438822)
(0.840929157172 -0.0839631768911 0.0130668842297)
(0.820486011963 0.00598357909282 -0.000423085001871)
(0.822231699344 0.00454584544523 -0.000842472597466)
(0.822360537924 0.00351100270957 -0.00135461885661)
(0.821724377515 0.00309130099201 -0.00222830365475)
(0.820325896632 0.00293172634098 -0.00196409506076)
(0.820241860914 0.00235547734185 -0.000427834162074)
(0.812378228502 0.0010049135425 0.00171883121299)
(0.844044075535 -0.0670155717466 0.00477706979321)
(0.816564061897 0.00685544417179 -0.000748538148379)
(0.819340442858 0.00403573254068 -0.00059996502966)
(0.820392815851 0.00222455403728 -0.000906727311469)
(0.820543544331 0.00101550880922 -0.00105726597896)
(0.819563664332 0.000551688215838 -0.00111547892243)
(0.819510848429 -0.000548547212298 -0.000244801669005)
(0.81161160016 -0.00179684156744 0.00131326152793)
(0.839729431555 -0.0697631341129 0.00310031612762)
(0.818894565095 0.0010224635246 -0.000772642993351)
(0.818582388163 -0.000384047014445 -0.000223432758515)
(0.810827864836 -0.00202470350369 0.000763209355455)
(0.837717272443 -0.0548343257822 0.00150606917551)
(0.638913254843 0.0422838236617 0.013090644812)
(0.634652967426 0.0403209568633 0.0140729194926)
(0.644223662625 0.0253424429719 0.0201660522421)
(0.641919938222 0.0222448244334 0.0164626819285)
(0.639194810284 0.023251307051 0.0152209923956)
(0.607451897788 0.0262857314521 0.0178552001139)
(0.678936412301 0.0396501684644 0.0172962385189)
(0.244102075493 -0.0678965156872 0.0605020901371)
(0.774163840836 0.0131410427907 0.00905343695195)
(0.768805936717 0.00970987167129 0.00844526823916)
(0.774569654814 0.00291495718243 0.0115192286281)
(0.772216565075 0.00264264847594 0.0135060339836)
(0.771752868493 0.00479734203322 0.0144335013908)
(0.773472209308 0.00762903587147 0.0181417359482)
(0.775956321308 0.0415513301244 0.0288801379726)
(0.812159119638 -0.172548952844 0.0468428605023)
(0.821704380166 0.00639581851808 0.000471843360472)
(0.821489503747 0.00501204513666 0.000274514788211)
(0.821317738845 0.00538782607342 0.000212241634198)
(0.821303058812 0.00651018724284 0.000562235617716)
(0.821360416846 0.00690044720481 0.00188045182012)
(0.823482823424 0.00604117037267 0.00465003889884)
(0.817323896282 0.00321423480592 0.0118809148488)
(0.881708925753 -0.118081311167 0.0168545463742)
(0.817008189425 0.00645200258471 -0.000394545839845)
(0.819561799141 0.00432289601733 -0.00029903384875)
(0.820577362858 0.00271664153713 -9.55698851452e-05)
(0.820527906874 0.00218427085892 0.000194288050928)
(0.820176934717 0.00152567934225 0.00121391840066)
(0.821959427475 -0.000130965685896 0.00381696385148)
(0.815208234087 -0.00247608917246 0.00861309898801)
(0.854130589557 -0.0880543825351 0.0121553715417)
(0.819421909586 0.00140103246461 0.000665002239346)
(0.820064384048 -0.000370227443078 0.00242761746765)
(0.812688361648 -0.00298104582079 0.00572720653149)
(0.845215073108 -0.0665538369081 0.00762516982555)
(0.634010586758 -0.0147349290042 0.022629805245)
(0.626517429051 -0.0151755018476 0.0215164510362)
(0.632176102113 -0.0190815854241 0.0237956898262)
(0.632986603785 -0.0175022399988 0.0210673012187)
(0.635394628225 -0.0132075928603 0.0218089251529)
(0.626903148755 -0.00238029373449 0.0253758840664)
(0.684539353749 0.0487381161282 0.0641961306894)
(0.507113781102 -0.381140999825 0.0161391423153)
(0.735113989026 0.00506307874692 0.0261571397664)
(0.730789534973 0.000477949223802 0.0249109209466)
(0.781734609161 0.00110002938554 0.00904115847873)
(0.781676763171 0.00153107324702 0.0101520587461)
(0.783705916214 0.00348525375676 0.0118856306197)
(0.79291421087 0.00239007568227 0.0120978024252)
(0.805108209432 0.0190054949548 0.0134547429013)
(0.900388210047 -0.198077514683 0.0053990890068)
(0.821636184287 0.00469785081941 -0.0001353358328)
(0.822333328147 0.00428053249495 -0.00110524123367)
(0.822691527664 0.00283145223178 -0.00188897409986)
(0.823180407277 0.00210689057895 -0.0014543395358)
(0.824212286645 0.00148247109753 0.000276322640771)
(0.830347627517 -0.00176523372447 0.00121299316398)
(0.824420813194 -0.0069986691279 0.00121603807993)
(0.912234130903 -0.177476274902 0.00244163611668)
(0.812917587295 0.0100972084791 -0.000321743387315)
(0.816390565284 0.00557786769945 -0.00150230941946)
(0.820021339552 0.00333886055498 -0.00183150480721)
(0.821775670178 0.00205744130962 -0.00158336394167)
(0.82210821459 0.000981685272961 -0.00109843149628)
(0.822519126046 -0.000148641739682 0.000108214938427)
(0.82649579891 -0.00298844530099 0.00141305471076)
(0.820370224244 -0.0069950371084 0.00132334925729)