/*--------------------------------*- C++ -*----------------------------------*\
| =========                 |                                                 |
| \\      /  F ield         | OpenFOAM: The Open Source CFD Toolbox           |
|  \\    /   O peration     | Version:  v1906                                 |
|   \\  /    A nd           | Web:      www.OpenFOAM.com                      |
|    \\/     M anipulation  |                                                 |
\*---------------------------------------------------------------------------*/
FoamFile
{
    version     2.0;
    format      ascii;
    class       surfaceScalarField;
    location    "1";
    object      alphaPhi0.water;
}
// * * * * * * * * * * * * * * * * * * * * * * * * * * * * * * * * * * * * * //

dimensions      [0 3 -1 0 0 0 0];
oriented        oriented;


internalField   nonuniform List<scalar> 
92311
(
0.200663933911
-0.000132538420134
0.000396647214362
-0.200668038561
-0.000260175662429
-0.000136215089176
0.200697075027
0.000359525085809
-0.000256371681523
0.20064927057
-0.000300484052725
0.000422196635374
-0.200645667835
-0.000257791106099
-0.000279286522487
0.20068689563
0.000363611696717
-0.000258111539204
0.200667304625
-0.000174941750644
-0.000169155308466
0.000431217491291
-0.200629088044
-0.000256320977082
-8.60143680718e-05
-8.34790836853e-05
-0.000134521477516
-0.000121639317187
-5.91514983056e-05
0.200665402084
0.000371525453165
-0.000271561696975
-6.22083648232e-05
0.0501744560117
-5.67349723934e-05
-4.39198969162e-05
-6.15339809751e-05
-7.73291710737e-05
9.46142695802e-05
-0.050157570612
-4.7011615278e-05
-0.0501832007584
0.0501759555743
-2.05413969532e-05
-2.74165084951e-05
-5.27060275605e-05
-4.97684879208e-05
8.74218632979e-05
-6.43495900823e-05
-0.000148415420055
0.00033607453567
6.33937065468e-06
2.71609181684e-06
-4.51587640502e-05
-3.78249053141e-05
-0.000335353831635
2.92133940999e-07
9.77380180057e-06
0.000466059863216
3.08534433094e-05
-1.78960589625e-09
-0.000404412149746
-6.90792039655e-05
5.10082622866e-06
5.19104079282e-06
-0.00028372813161
-1.39982115131e-05
-4.3687302623e-10
1.12533523755e-10
2.5689334248e-12
2.44603118121e-11
-2.66208745821e-13
-3.22500154684e-11
-4.54852149824e-12
4.60926989107e-11
-4.17134796939e-05
-4.29252935023e-05
-6.08663031841e-05
-6.88449357021e-05
9.34014860471e-05
-5.69953893139e-05
9.85319852905e-07
0.0120104691449
-7.25557862054e-05
-1.19999200725e-06
-0.0122182734261
0.0121905528196
6.46100134768e-05
1.69100528771e-05
-0.0122592547228
-6.80811544798e-05
-3.75750731855e-06
-6.8119325328e-05
-3.20273758143e-05
0.0501601194928
-2.72127355342e-05
6.44614536525e-07
-5.33638553943e-05
7.419968781e-05
-1.90718242654e-05
0.0501565886626
5.47357703315e-07
1.52347064612e-05
-3.01616320741e-05
-0.0501769073093
-7.35543741295e-05
0.000255456041058
-4.25003736685e-05
0.0119264669091
-9.97299397225e-05
-5.93233245962e-06
-1.91073574031e-05
0.0125313613462
2.83016587631e-05
-4.94034660863e-05
-0.0125230765258
0.0125290676358
-8.63296934564e-06
-3.80015896866e-05
-0.0125204856571
-0.000155439187175
0.200743644521
0.000664661822247
-0.000362573726932
-0.200890450414
0.200770793183
-0.000145939718941
0.000304197184757
-0.000231688171154
-0.000157974173981
0.200874275743
0.000249742885341
-0.000195149646465
-0.000218777655308
0.200784156766
0.000585797125254
-0.00038991187556
-0.200916610516
0.200767093284
-0.000298996784964
0.000308446885191
-0.000235467089814
-0.000332164350243
0.200879589374
0.000256277730669
-0.000194613629361
-0.000155902947454
-0.000169762377031
-4.64999583642e-05
0.000720909294193
0.200708586029
-0.000419687484182
-0.200831554138
-2.48832451504e-05
-0.000127341094729
-0.000140670880294
-7.4773337934e-05
-0.000120391125288
0.200757640838
0.000324750749016
-0.0002532115541
0.0501647100075
-3.29143843767e-05
-2.26927287917e-05
-4.67253823344e-05
-3.83335650978e-05
0.000169525983035
-0.0501919694841
-0.00015757617596
0.0501464292508
-7.52491482374e-05
-4.03444019036e-05
-3.80628244544e-06
-2.25433448214e-05
-4.27102548776e-05
7.09262430382e-05
5.80422249282e-05
-1.40312923409e-09
0.000492840938121
-0.000274293106927
4.04725412426e-06
5.99798689171e-06
-6.71554527826e-05
-3.75262298668e-05
-2.18091844049e-08
2.1101745826e-12
-1.08174864966e-09
6.04198980773e-10
2.05801460581e-10
-2.5027807277e-10
5.81057410519e-10
-2.85209312817e-08
2.53546509998e-09
7.48251703175e-10
-2.41207522672e-08
-3.24901315231e-09
-3.62939506767e-10
1.49063800651e-10
-1.25109695177e-09
-0.000169453044466
-3.67276487432e-05
-4.29262368052e-05
-5.22086939695e-05
-5.81424049942e-05
0.0501608199432
0.000193512502981
-4.18968908257e-05
-3.00102714163e-05
-2.21716862079e-05
-4.44302731506e-05
0.0501713695108
-9.20749737017e-05
-0.0501567714034
0.000201574434715
-5.01737370778e-05
0.0121155510677
-6.51746846084e-05
-4.56178508658e-06
-0.0123158290502
4.77881685009e-05
1.27064574329e-05
-0.0122875140258
-4.71661105492e-05
-1.16712326695e-06
0.0122449116325
-0.000115655024444
0.0125521600556
7.07804626919e-05
-2.06892649174e-05
-0.012528456799
-8.15249781465e-05
-2.30825713001e-05
-4.0983517922e-05
-5.2395705913e-05
-5.37511315703e-05
0.0501740957581
8.3277361132e-05
0.050138374883
-2.91941440869e-05
-2.61282887408e-05
1.2099010739e-05
-8.24610863569e-06
-8.04006870114e-05
-4.38124620789e-05
-4.31751395644e-05
-1.9383131742e-05
-5.43803214227e-05
0.0501733709479
-7.62373446086e-05
-2.10856523936e-05
4.83532422692e-05
-8.61394787865e-05
0.0125501212104
4.21378629217e-05
1.75818522891e-05
-0.0121989863976
-4.37752333842e-05
0.0121745709643
-4.28150331829e-06
2.58974158571e-06
-6.99462084174e-05
0.0125463331895
-0.0125198277318
-0.000100474927169
0.0125425926328
5.69871959464e-05
-2.32559538984e-05
0.000354772242165
3.50718653526e-06
6.03240574129e-06
-0.000200145363833
-3.6481844994e-05
2.2396989744e-05
8.63485617317e-09
-3.83060673221e-10
4.61259282731e-06
-9.14956624284e-05
3.39043745057e-06
-0.000285723714616
0.000458444893456
4.62350916786e-05
-0.000403682964068
-2.26403169577e-10
2.17130082767e-10
-2.31997794418e-11
3.21084821707e-11
-9.43088301183e-12
2.38682446385e-10
-1.15015513572e-10
-4.11644006622e-11
6.31984367261e-06
3.52542385403e-06
-9.73215635569e-05
-2.38102419012e-05
2.91742052182e-05
-1.13869827348e-12
-1.17620052026e-11
7.63853339643e-13
-4.34745419199e-05
0.0125232564713
1.72624316334e-05
-0.0125528407113
-0.0125636369582
-2.16403250434e-05
-7.08086643974e-06
0.0125594174136
-1.09650283744e-05
5.87635293463e-05
0.000116666190846
0.0121266450919
1.13228467731e-06
0.000125291897914
0.0122795551536
-0.0121763758895
-4.52851654928e-06
-0.0125341709006
-8.98638791847e-06
0.0122029469926
-8.87199522617e-06
0.0125388967077
1.68381360068e-05
0.012527236922
2.30850963494e-05
-1.91750769382e-05
-1.33818128381e-05
-3.34809376475e-05
-0.0125719668431
0.0125618079579
1.76776152674e-05
8.39221036182e-05
0.000139296830235
-9.61591342716e-07
9.5024245893e-05
-0.0119783832406
0.0120919947173
-8.01522475826e-06
0.0125423284082
-1.41604271778e-05
-9.51393275967e-06
1.85285455391e-05
-0.0125705366594
8.3031286787e-06
-1.70350994882e-06
0.0125605260278
-1.71023268125e-05
-4.93290998875e-05
0.0125246982508
1.65432621818e-05
6.90495797129e-05
7.90521541575e-05
0.0120202019486
-6.87106857064e-06
0.000114972799188
0.0122383736525
-6.91641155367e-06
-1.50579660092e-05
0.0121949988722
-3.91900812193e-06
0.012537097696
1.53487238096e-05
3.14562746975e-06
-0.0125672157626
0.0125541837696
1.10655575906e-05
-5.04199284476e-05
-0.0122182133133
0.0121972864159
-1.57956693666e-06
-0.0119393790316
2.39409006312e-06
0.0120208907841
7.33344904704e-05
-1.71744111306e-05
-1.80642311747e-05
0.000114633004648
0.000115087836724
-5.3735060916e-06
1.38694651092e-06
1.44852563702e-05
2.55699691488e-05
-0.0125573929242
0.0125447863943
-2.09722628722e-05
5.62336022853e-05
-0.0119569940945
0.0120476461648
-0.0122346371838
0.0122106145854
7.05236288659e-06
-4.94297391449e-05
8.44679596032e-05
-0.0125583516424
8.14420966508e-05
0.00010053763021
-0.0120766744737
4.85562153874e-06
-0.0125383004157
-1.72941906855e-05
-0.0122061734438
4.63673004542e-07
-7.34553891244e-05
2.64615481192e-06
-1.06867865012e-05
4.73442662878e-06
-0.00015294569379
0.000356708219895
-0.00036603285284
3.81827636831e-05
1.18116576906e-09
2.3954899803e-08
5.27894468042e-09
-4.99577933535e-08
0.000375129166095
2.63228374699e-08
3.47821799764e-06
2.15890995644e-06
-4.81207673138e-05
-6.50746247912e-05
7.53848070787e-05
-0.000389613510608
2.00667466945e-07
2.67291522943e-06
4.0084974342e-06
-0.000169368143832
0.000352036973561
-6.66804833382e-05
-1.25464483213e-09
-6.24840717781e-12
-1.75558462751e-10
4.99863714897e-10
9.12869447314e-11
-9.38821845753e-12
-1.12569096292e-08
0.000489151742827
3.92988863363e-06
-0.000216174828324
4.58451347725e-06
-6.01338791185e-05
6.56812072169e-05
-4.78857842829e-10
2.07974273163e-08
4.40119651559e-09
1.19099610584e-10
-1.47688655157e-09
5.12032057996e-07
-8.07308741673e-05
2.93386494094e-06
2.11657823738e-07
5.14504633459e-06
-0.000177507685804
0.000442470385709
6.45606597973e-05
-7.66569225858e-09
7.11524962712e-08
-2.19438456667e-09
1.92238783796e-07
5.0194185116e-06
5.38089477974e-06
-0.000197308279916
0.000446371717131
-6.37818974437e-05
1.30993079226e-09
-7.05151978598e-12
3.37112938641e-05
-0.012548890649
-1.01781366959e-05
0.012546176812
-5.37223576711e-05
0.0125251724362
-6.66104067623e-05
2.46135061133e-05
-0.0125560233975
5.47765479581e-05
4.2247010533e-05
0.0121711877567
-7.79834133287e-07
6.86472847767e-05
0.0123025370914
-0.0121933608214
-6.78527476265e-06
0.0125341902816
3.27971626925e-05
-0.0125340184449
-5.1026649037e-05
0.0122802086142
-8.71300583589e-06
2.29012455119e-05
0.0125216429442
1.99475788544e-05
-5.50281293331e-05
-0.0125544973178
-6.55720856652e-05
4.13970784138e-05
0.0125484923002
8.89338204998e-05
7.15681591048e-05
2.03901949987e-06
7.95914043539e-05
-0.0120814815785
-6.98950890928e-06
0.0121600701417
3.94358599101e-05
-5.69204443632e-05
0.0125345137944
-5.20621088271e-06
0.0122956294017
6.97535460966e-05
5.56825816568e-06
-0.0121872933207
3.59169074688e-05
-4.51942591934e-05
0.0122234732337
1.01972326738e-06
2.38948093027e-05
0.0125524378071
-1.83617152948e-05
0.0125198049607
1.73247468054e-05
-0.0125436330373
9.13053066386e-05
-0.0120744229798
0.0121691453077
0.0125335930962
-0.0122694255743
7.46301599564e-05
0.0125124635878
1.16076909515e-05
-9.98517322657e-05
0.0119299430096
-3.18337646846e-06
0.0122077139269
-1.27560897398e-06
6.04319044403e-06
3.93665537946e-06
0.0125416506801
-2.40145844171e-05
5.91945369335e-05
5.47704229963e-05
0.0120072855033
-2.0765159837e-06
0.0125217430532
1.30749153137e-05
0.0121942344222
-1.09815863981e-06
-5.81648600518e-06
0.0125135380568
3.62202210593e-05
-2.55799010921e-05
-0.0125550572049
-4.06998021915e-05
0.0125519275482
2.05550674154e-05
0.000109933238005
9.54003933965e-05
1.76238748416e-06
8.58833751655e-05
-0.01197918293
-1.57422685228e-06
0.012081626855
1.86918481725e-05
-2.6732639187e-05
0.0125319168132
2.29471823791e-06
-0.0125091852456
-5.23794540265e-05
3.79694940059e-05
-2.22275260636e-05
7.18096562168e-05
-2.14838778976e-05
9.1946460644e-05
0.0122107016579
0.0120052091152
1.01045630847e-05
4.54051630898e-05
0.0120822852718
6.12841219954e-06
1.32889472272e-05
0.0125387716424
0.0122018982069
0.0122170381016
7.38264721511e-05
1.85615007813e-06
4.21612888755e-05
-3.68987328079e-05
0.0121547811994
2.55080428821e-06
1.29025567252e-05
0.0125513639237
-2.26734757987e-05
0.0125113577768
3.9296745168e-05
8.70050874627e-05
-0.0119941050312
0.0121087623608
0.0125302904914
-0.000146435955912
-0.000138922444501
-0.000138753144538
0.00028082896112
0.200900735349
-0.00013055307176
-0.000201857616817
-8.68205146302e-05
-3.59916236393e-05
-3.69689793488e-05
-5.70196417276e-05
-5.2611126957e-05
8.85330802862e-05
0.0502085316299
-0.000191367996577
7.61471604205e-05
7.00576919535e-08
5.92111580772e-06
2.67346006465e-06
-4.83278019918e-05
-7.06541355343e-05
0.000430458745252
-2.64951028487e-11
-3.08816218408e-08
-2.81324809144e-09
3.30814433213e-10
-3.55406881847e-10
-2.79761978579e-10
-1.60099602982e-10
-2.57019645943e-05
-3.34072917685e-05
-4.38234795684e-05
-5.42374672621e-05
6.51700575886e-05
0.000171686684011
0.0501862184068
0.000145722913752
-1.68859201445e-06
-6.66634247099e-05
0.012012475568
0.0502279689045
-3.43431313151e-05
-5.10183767328e-05
-5.06529683999e-05
-7.83838670425e-05
-6.60889316903e-05
0.0502501972316
-4.25295425939e-05
-2.74435946748e-05
-6.32700726507e-05
-5.45688765288e-05
7.48491228873e-05
-4.81737476662e-05
-2.82467451004e-05
0.0119300022524
-6.82242073965e-05
-9.65169180936e-06
8.56543521744e-05
9.0428848339e-06
-5.33771905005e-05
0.011975326208
3.61492194191e-06
0.012034769268
6.81007901289e-05
6.68648704456e-06
-7.2335826664e-05
-0.0121815787517
-7.15825423657e-06
0.0502547922055
-1.03635253811e-05
-3.52107605783e-05
-4.49525383831e-05
-6.41579744844e-05
0.000119251666015
6.60549867153e-05
-3.53459600661e-05
-1.54419994839e-05
-1.34296300174e-05
-4.39493920896e-05
-4.57030169831e-05
0.000102180615384
4.95224708321e-05
0.0502451263523
-2.37052547567e-05
0.000169315350343
-2.49840787872e-05
-7.8561789563e-05
0.0118309321643
-3.94174895528e-06
8.46996318789e-05
-1.44854080935e-05
-6.18837120373e-05
-0.0121140024386
0.0119958072463
-3.94127745343e-06
2.75387688169e-06
6.29137306673e-06
-5.02925295771e-05
-6.34673293034e-05
0.000341215673266
3.95194580049e-07
0.000415886500236
6.26452737632e-07
2.55565468097e-06
6.34631087377e-06
-3.65143525056e-05
4.47964593024e-05
2.60271915237e-07
0.000459632069176
7.25813419817e-06
2.57615602597e-06
-0.000146931759223
-5.32130152175e-05
1.13469916357e-05
-7.24694025941e-09
3.9527171333e-11
2.38376879433e-10
5.26587928293e-08
-6.75709017274e-09
1.41336018996e-09
1.83220565209e-08
-6.06163440857e-09
0.000496230625835
3.46350221849e-06
8.44158905425e-06
-8.42851495535e-05
-2.78952186124e-05
2.34871073028e-07
-5.28162085497e-06
7.17546665935e-06
3.79128382391e-06
-0.000171890567117
-1.60988244748e-05
3.96598263726e-07
0.000522409124267
-2.34880704797e-05
-0.0125603014841
-1.79281213821e-05
-5.8357513719e-05
5.58930157768e-05
0.0125550255405
1.14875650719e-05
0.0125231962148
0.000116199503995
0.0122714388444
1.02595016565e-05
6.83939646464e-05
0.00011427652323
0.0121217461565
5.74164349162e-05
7.35530542087e-06
0.0122012724984
0.012542071353
9.00357445047e-06
-0.0125615871542
-2.06657200007e-05
-2.76808171568e-05
0.0125649455132
0.0125242731675
-6.00819260423e-05
2.26186667731e-05
9.38288297807e-05
6.23201003639e-05
-7.42532022973e-06
0.012053155719
0.00011396977859
0.0121980233412
-5.08703678158e-06
2.49901061498e-05
0.0125453919739
-2.80161864225e-05
4.68767120492e-09
0.012116224976
-0.0125615351408
-1.9664618585e-05
-4.5641658314e-05
0.0125649352574
-1.22847159383e-06
0.0125312767133
-2.05047238075e-05
0.000111059805583
0.0121989834357
5.76222688291e-05
0.000132295862691
0.0121236901132
-2.18640185757e-06
0.0120906948685
0.0125561582897
-1.6315717777e-05
0.0125395119236
9.7723938594e-06
-5.27412245246e-05
2.57505841313e-05
-6.59581383054e-06
-0.0125845528448
0.0125808515433
-1.02223293682e-05
0.000116265517396
-0.0118937547022
0.0120565834658
-6.00599603129e-06
6.40193975259e-05
0.000121841428408
-6.51816679441e-06
0.0125617938276
2.43932447938e-05
-6.59326838319e-06
-1.35025581103e-05
-0.0125869162662
1.54984325319e-05
-3.40054590016e-05
0.0125761272526
1.89183453583e-05
-1.70223816637e-05
0.0125453132043
-7.68795211865e-06
0.000109681677622
0.0121534071771
3.24483161662e-06
6.90155670271e-05
0.000109338646501
0.0120054576874
-1.01919745627e-06
2.28254918061e-05
0.0120339516096
3.86440386435e-06
0.0125621891599
-5.43610925822e-06
0.012544364324
4.13857400242e-05
-4.22107808731e-05
1.69376986265e-05
-1.30956357282e-05
-0.0125845500983
0.0125726740838
-2.71444059997e-06
8.68473486325e-05
-0.0118496646912
7.72567434779e-07
0.0120104823662
7.84879937164e-05
0.000105137829871
-2.55363854708e-06
1.52816896629e-05
0.0125590588127
7.93310653424e-07
-4.72969951789e-06
-0.000328465249039
-0.0495997976965
0.0495311848941
0.000355100930275
8.49511096864e-06
4.48583545284e-05
4.03187521957e-05
1.21306758025e-05
-6.37895061536e-05
-0.00034622052588
0.0498593009547
-1.28339813302e-05
5.67896939364e-06
3.76533518462e-06
-6.73899482918e-06
4.66880102643e-05
-0.049830589064
0.000280937387577
-0.000547721181958
-0.0499786563214
0.0501812285984
0.000401726291972
-5.54964193091e-05
-4.85745842005e-05
-6.10836883681e-05
-5.54467305126e-05
0.000164004161996
-0.000308770619239
-5.48546263925e-05
-5.32066899851e-05
-6.26200295034e-05
-5.59884529198e-05
0.000160692063589
0.0501879203563
0.00024531219616
-0.0500585286328
-5.89094405876e-05
-9.45515800208e-05
-0.000390260399008
0.000408284792875
0.000169122810833
-1.3472800751e-08
-6.18029701755e-05
3.26770008554e-07
4.18258989371e-07
7.36319412996e-08
-0.00037951907543
0.000388379112575
0.000202992075813
-4.28957850891e-09
-2.72783290973e-05
-6.6480373943e-06
7.75246073036e-07
-0.000148377127967
-2.03345211943e-05
-0.00014062292195
0.000374449427491
-1.67237493728e-08
-1.15121745899e-05
1.06304000171e-07
-2.21147401147e-06
-0.00036327103562
0.000128170095118
9.84022458621e-07
-0.000196031654873
-0.000344123270826
0.000293048063309
0.000162720447205
1.86053316566e-07
1.65357922653e-07
-1.26940950597e-05
1.26496334536e-06
5.3292349615e-07
-9.58799551332e-05
4.45343177938e-07
1.62644177158e-07
9.07082588431e-07
0.000190578603164
2.99423112378e-05
5.85022723199e-07
-0.000264774053677
1.37976519201e-12
-5.23654697571e-11
4.86380084432e-12
1.44018490524e-09
7.06475660664e-10
6.12814786941e-11
8.77011788619e-13
-3.12168377478e-11
1.22288515648e-13
9.42970237812e-12
1.07643768498e-11
3.25535266605e-12
3.57013122431e-12
-2.81844141434e-12
-9.54204680324e-14
1.15676701392e-11
-1.1062847313e-09
4.32172393562e-09
1.33716043603e-09
-1.99898127475e-09
5.99708304498e-10
9.55553019053e-12
-1.45794685253e-09
9.49546567007e-10
8.42538936163e-10
0
-2.19887404234e-10
-1.02561287755e-10
1.69959606924e-10
2.82923839498e-09
-7.8190710469e-09
-2.57099533081e-08
1.94289889514e-10
-1.00738856307e-09
-2.31743523374e-08
-3.19137533507e-09
-6.18156345546e-09
-3.08347312376e-08
-1.5007136775e-08
1.47428271506e-10
-1.62983251242e-10
0.000131054156533
2.17319895772e-05
4.07108948223e-05
1.92447063621e-05
3.75957625423e-05
0.0494271117105
-8.92352810114e-05
-2.02053452575e-05
-0.0495680050734
0.0494993583348
0.000205269403741
3.8887356834e-05
3.89935744212e-05
4.10916972248e-05
3.82532920975e-05
-0.000126033986166
-0.0496047490024
5.29217379113e-05
-4.72198108273e-05
-0.0123347628303
-1.84578374546e-06
0.0123267786479
8.67198182898e-06
0.0123311332682
4.86231368683e-05
3.23292904663e-05
-3.92562898188e-05
-3.42993486976e-05
-0.0123359646661
4.45564518249e-05
4.4474217688e-05
4.27100326654e-05
4.42247194866e-05
-0.000193021809315
0.0123543901
0.0123314509012
0.0123122462736
0.0123510157077
-0.000161162540801
5.95581240569e-05
1.14763790914e-05
-3.71436611805e-05
-4.2959729254e-05
0.0123487394625
0.000228509401065
2.22427594836e-05
4.56564509674e-05
4.14167119168e-05
2.00574134499e-05
-7.62604501328e-05
-0.0496761494906
0.0497092759575
3.22728084117e-05
2.51673452033e-05
3.28299952306e-05
2.55436061057e-05
-0.000113886646404
-0.0497348442774
0.000252148353822
0.0123367614476
7.61208086356e-05
-6.73499600778e-05
-0.0123379765596
4.50499183417e-05
0.0123786225618
2.29894621722e-05
-1.99126070167e-05
-6.71474972849e-05
-0.0123799967109
6.83822863874e-05
0.000506012482018
1.67931532268e-05
3.98999789725e-05
3.78047802767e-05
1.30971607641e-05
0.0495797615973
-0.000138537766081
-0.000122639517801
-0.000141778576274
-0.000117206907213
-4.05212224764e-05
-3.75818521205e-05
-3.48025341625e-05
-2.91085271007e-05
0.0497152291694
1.90498375105e-05
1.98621513122e-05
2.41026921543e-05
1.69347325771e-05
-7.70187881774e-05
0.0498305839332
0.000449734543157
1.02209897585e-05
-4.80813108499e-06
-6.43565042615e-06
2.99615417682e-06
-6.10407795919e-05
-6.64270453319e-05
0.0123511734674
5.94670716106e-05
0.0123980714654
3.63128805064e-05
-4.55663504265e-05
-0.0123799609925
0.000100024914949
-9.83470560791e-05
7.76144666678e-05
-3.42642763081e-08
-1.20192965054e-05
-7.24897126742e-05
0.0123962031962
0.0124313253142
0.000104231594308
-7.14937878275e-07
3.28180835219e-05
-0.000103722689531
-0.0124279396306
0.0501294755181
-1.01351173983e-05
-6.01446216504e-06
-4.11648237129e-06
-1.0852770432e-05
-0.000716942156833
-9.85611565206e-05
0.000630447538058
-1.7403106551e-05
-1.93804367207e-05
-6.53433719709e-06
-4.07280863162e-05
0.0506525341537
-0.000142032741121
-0.000927468587636
-4.27829401664e-05
0.0124365130127
0.000126741291421
-0.000111928300346
-1.97224411554e-06
1.10959429716e-06
-0.0124396568771
0.00018916812141
0.012437274973
-0.00016077842825
0.000119318768816
-1.33327518095e-06
4.12226428861e-05
-0.000111935252086
0.0124494984245
0.00012306027725
-2.73909081526e-06
7.7139449191e-05
-0.000107386084834
-0.0124364773583
0.0123774314063
0.000340783091968
-2.99041341987e-05
-2.49862073644e-05
-1.11136692873e-05
-3.90892431377e-05
9.465634653e-05
0.0500147375281
-6.90548049298e-08
-1.87845883534e-05
-1.307052961e-05
-1.030506649e-05
-1.62375444878e-05
-0.049900664241
0.000285160160162
-1.94073572463e-05
0.0124054150059
6.84723893292e-05
-0.0123921065553
0.0124529309409
-5.27991297052e-07
2.05311128066e-05
-0.0124379055863
0.000105302633001
0.0124545704648
-6.4179592612e-07
4.7647765339e-05
-6.68528111854e-05
-0.0124577831926
6.61926475901e-05
0.000418842432356
-6.63556559871e-05
-6.71620974721e-05
-5.98594169575e-05
-7.32013281849e-05
0.0504709556332
0.000188364778071
0.0501720718081
-2.45447604527e-05
-2.35372590159e-05
-1.6113001312e-05
-2.39003322757e-05
2.36490221429e-05
-2.74104485209e-05
-1.91653300216e-05
-1.67243960187e-05
-3.04724410488e-05
0.0503481032337
0.000321334639875
1.51567138364e-05
4.34043935361e-05
0.0124722057515
0.000116742526215
-2.02395941792e-06
7.7014626017e-05
-0.0124609189136
0.00012029070521
0.0124040189841
7.51359633008e-05
-1.06483962375e-06
5.25310874006e-05
-7.02641188052e-05
0.0124496455501
7.2638908412e-05
-1.50374369549e-06
4.6020970344e-05
-7.06066552697e-05
-0.0124402884817
0.0123665804382
5.29538595963e-05
0.012443628661
5.40230933704e-05
-0.0124544470344
3.98878509033e-05
-0.0124434717318
0.0123742419828
-4.27930715885e-07
3.69040049121e-05
-1.11096944165e-06
-5.34001989483e-05
1.03956295693e-07
-3.24026528188e-06
0.000341687364337
4.96833129243e-05
-0.000342344456444
-9.86481912805e-09
0.000356779863183
5.91127607779e-05
-3.46069862449e-05
-3.636987379e-05
-2.01130635446e-05
-0.000334217375845
-2.43807202825e-09
-1.65663475386e-09
-1.57670771214e-05
-1.51119078819e-05
-6.03130082281e-06
-2.39704150772e-05
0.000380600255001
2.25685644156e-09
3.10141461182e-09
4.57194136272e-08
-6.07880911682e-11
-6.18283411592e-09
2.63563414388e-11
5.69996191932e-12
3.54887055249e-09
1.61659143922e-11
2.11118422988e-11
7.63152216173e-11
-1.62847700047e-10
1.32494976879e-12
4.79283486227e-13
1.13236396673e-10
2.03947773196e-13
-2.16177818684e-13
1.79979093656e-11
7.69844365206e-15
-5.70615895147e-13
4.98354279563e-13
1.80787905373e-11
2.27639786069e-13
1.88475357457e-12
-4.45725038045e-12
8.61769677526e-11
-8.88428473044e-12
1.4096263488e-11
2.13900676903e-10
0.000114925913286
-8.28972110675e-05
-1.41373649541e-06
-9.28538181029e-06
-1.60339207654e-10
-0.000353686041386
0.000386207360985
-2.79215512777e-05
-2.62187537259e-05
-1.8702898312e-05
-0.00034985306175
-8.22906575035e-09
0.000100988618366
0.00021722138243
-2.46826793395e-09
-4.11414880553e-05
2.72774605903e-07
4.03396821937e-07
-0.000133835462827
0.000396423513477
-6.29315090911e-09
-1.65936421311e-05
2.94036515961e-07
-5.15642875107e-07
-2.68310653819e-09
0.000357064932941
0.000186365303835
4.5014557455e-07
1.8798724313e-07
3.04721593302e-07
3.77693438626e-10
1.2548061998e-09
-2.132908046e-11
-2.08979279333e-10
4.97853916694e-11
2.43978585555e-08
1.21348153381e-08
-1.32039278011e-08
4.28483779136e-09
-6.83011697938e-10
0.000198258668658
-3.86622608967e-09
-8.0744732697e-05
5.42072408044e-07
2.04707378001e-06
0.000404742123379
-0.000147123240918
0.000339103975314
-9.9368294347e-09
1.4928994547e-07
2.25638344937e-07
1.38165767504e-06
1.66964103143e-08
0.00017930797981
6.71535108862e-07
-2.42376920351e-05
2.5167942277e-06
0.000341036480057
1.63167699196e-10
-2.203211092e-09
-5.98883579996e-10
4.03659771993e-10
7.26608252323e-09
-4.38882440434e-09
-8.63357784224e-09
7.43188965592e-09
0.000176412285072
6.96823872359e-08
-5.52713668952e-06
1.80413123451e-07
1.57024629479e-07
4.9524771936e-07
0.000284599524421
3.9656778559e-07
5.35731210832e-07
-3.45097468233e-06
-0.000358857310568
0.000101680316542
1.49550679926e-08
-9.9723177082e-09
3.59417363501e-09
-7.17322875148e-09
1.49762755927e-08
4.46366825247e-08
-5.25308154483e-08
-1.19295681208e-10
0.00013273161551
2.6491313749e-07
-1.28827303531e-05
4.21648001133e-07
1.97715547895e-06
0.000276606927189
0.000221835663252
5.09508207381e-07
2.17111885158e-07
3.87998916847e-07
1.00692301871e-06
3.51785923871e-07
7.8747747884e-07
1.91566663613e-08
1.31825118484e-06
0.000243409757593
6.4900554367e-05
9.43261144993e-09
-2.21250343746e-08
-2.0468371751e-08
2.03125490112e-08
5.08401790004e-08
-9.38025566008e-09
2.57859369525e-08
-1.025129877e-08
0.0123769990169
1.57995006526e-05
-1.45718151589e-05
3.12944249297e-05
-0.0123877922719
1.41637460269e-05
-0.0123773548595
0.012363550001
-6.85308770964e-06
-4.38732063413e-06
-4.62051850279e-05
1.00168397253e-05
-0.012343798527
-6.32972923269e-06
-0.0123333968818
1.86639731319e-05
0.012332651182
3.79051193534e-05
0.012366194128
9.81432896462e-06
-0.0123217474259
-9.5541692026e-06
-0.0123909769979
0.0123847516605
4.41754127169e-05
3.82742904519e-05
-0.0123970141452
-5.22353708283e-05
-0.0123924781961
0.0123822083648
6.22722748797e-05
-3.9900360774e-05
-0.0123357373925
0.0123312512394
-4.15454667484e-05
-2.90396655661e-05
4.03695857263e-05
-0.0123418682612
0.0123716421101
5.37169837923e-05
-0.0124053089061
-0.0123292072578
-0.0123640163863
7.30579568728e-05
3.34607784379e-05
-5.09439863052e-05
0.0123529969126
-6.10086474262e-05
0.0123754732092
7.50944676667e-05
-3.35088752999e-05
0.0123367029612
-2.60050119309e-05
-3.45442222933e-05
-5.4709827916e-05
7.3289810966e-05
0.0123603588247
-4.41659857165e-05
8.91032081243e-05
0.0123691482716
-3.24112077212e-05
0.0123496394589
-4.00903649354e-05
0.0124100717884
2.67031251759e-05
4.39746071187e-05
-0.0124184102089
-0.0124038732517
4.87790769941e-05
0.0123956892852
-6.67716064319e-05
3.40757239362e-05
-0.0123478497804
-1.5547289177e-05
-0.0123516091763
6.29807549438e-05
0.0123583584095
-0.012415595781
5.67461315265e-05
0.0124066233523
4.86823196522e-05
-0.0123400234506
0.0124209566096
4.93282348887e-05
3.29916119559e-05
-0.0124270273883
-6.07085391836e-05
-0.0124325709445
0.012430301578
6.82599762971e-05
-3.11099828895e-05
-0.0123691560872
0.0123751618428
-2.35490847449e-05
-5.93554004439e-05
-0.0123804630838
5.97441346683e-05
0.012418732567
-0.0124385503611
5.72986050857e-05
-0.0123577808174
-7.32163256543e-05
-0.0124048016062
4.34217958354e-06
0.0124030247449
7.91895935417e-05
0.0123882454196
6.10032063853e-05
-6.02740354469e-05
6.7421514103e-05
0.0123629820088
-8.71928657317e-06
0.0123707172281
7.32169760562e-05
0.0123842289905
6.62639580461e-05
0.0123823219282
8.35814504794e-05
-9.19899909209e-05
0.0124108861389
6.36141870472e-06
9.45719484162e-05
-0.0123904402783
0.000107695551919
0.0124005106616
-0.000123419374351
-4.51896138678e-05
8.3840842658e-05
-8.65757428997e-05
-7.30905330058e-07
-0.0124040845014
0.000110496942955
0.0124210371195
-0.000105541185272
0.0001110863706
0.0124198766072
9.90270833403e-05
-0.0124165539686
8.48193280866e-05
1.14005499798e-05
0.0124185899231
-7.12128560962e-05
0.0124280523634
8.13312180628e-05
-2.13693810501e-05
0.0123858896589
-3.38980854927e-06
-8.34919661191e-05
0.0124214219029
8.89243723549e-05
0.0124318474306
9.45843390998e-05
0.012405211691
0.0124276364626
9.82331616269e-05
-2.47153000998e-06
-0.000112862031322
-0.0124414117603
0.0124608339214
0.000121548420301
2.77420230923e-05
-0.0124276464409
0.0124443516893
1.68642455613e-05
-0.000100482490085
9.50401686465e-05
0.0124472283755
0.000108587127901
-0.000151130418033
-0.0124487337495
-1.90453910225e-06
0.0124853770312
0.000153345947678
-3.69865493356e-05
0.0124291184756
0.000132958517848
-6.00111947521e-05
-0.000144343557474
-3.74419247356e-05
0.000120072495493
0.0124606707283
-0.000129853836344
-1.99127052887e-06
0.012420442921
0.000124707301962
0.0124690479695
-5.66674761637e-05
-0.000171841096952
0.00013154782534
-2.94424705977e-05
0.0124200708138
0.000136219397832
-0.000168626988644
-2.25724498418e-05
0.0125573278979
0.000172003257164
-5.27726992236e-05
-0.0125527836126
0.000178614742777
0.0126541930263
-0.000205534454429
-7.34041230291e-05
-3.57715251509e-05
0.00012459806154
-0.000149721879792
-0.012441731154
4.58095460267e-05
0.000150744791764
0.0124961359972
-0.000189286216937
-9.88963721822e-05
0.000142389045771
0.000183716475231
0.0126394570687
-4.15770968979e-05
-0.012476966856
0.000144157268437
-4.01719915203e-05
0.0125162880357
-0.000125444627387
0.0124878692193
0.000133617510153
2.77042336372e-05
0.0124423889309
4.37691552814e-05
-0.000154250451231
0.0124671022302
0.000126033616972
0.012518234477
0.000146708395638
0.0124267092872
0.000149526398362
-5.03066488912e-05
0.0125716684368
-0.0125599376215
-0.00015683065527
0.000156215967814
0.0126183172553
-0.0124529380804
8.03413819668e-05
0.012497863094
4.83740448815e-05
-0.000162681402721
0.000124119377675
0.000149602635436
0.0126380508935
-7.81585771253e-05
-0.0124548803888
-4.19657260851e-06
0.0124599861028
6.44640482708e-05
0.0124440800532
6.864361097e-05
-0.012445080389
-1.4172069419e-05
8.05732899668e-05
0.0124255104612
1.69902838295e-06
0.0124141726598
-0.0123949303092
5.97139136288e-05
0.0124501519439
-0.0124521750241
6.09776749177e-05
0.0124237814231
6.46282443437e-05
-8.66954832839e-05
0.0124661284915
-1.85497262127e-05
6.91986865936e-05
-0.0124560272401
9.68557324114e-05
0.012476325939