/*--------------------------------*- C++ -*----------------------------------*\
| =========                 |                                                 |
| \\      /  F ield         | OpenFOAM: The Open Source CFD Toolbox           |
|  \\    /   O peration     | Version:  v1906                                 |
|   \\  /    A nd           | Web:      www.OpenFOAM.com                      |
|    \\/     M anipulation  |                                                 |
\*---------------------------------------------------------------------------*/
FoamFile
{
    version     2.0;
    format      ascii;
    class       volScalarField;
    location    "1";
    object      alpha.water;
}
// * * * * * * * * * * * * * * * * * * * * * * * * * * * * * * * * * * * * * //

dimensions      [0 0 0 0 0 0 0];


internalField   nonuniform List<scalar> 
28582
(
1.00000072419
1.00000078747
1.00000118628
1.00000142726
1.00000063911
1.00000080651
1.00000053439
1.00000087457
0.00943347299558
0.0101111526111
1.96262131309e-10
1.00000109479
0.965280627143
0.97454524685
1.00000100575
1.00000030425
0.961343033651
0.999982967527
0.999983636284
1.00000060976
1.00000215026
1.00000264594
1.00000072653
1.00000224286
1.00000243938
1.00000043365
1.00000091266
0.999999763785
1.00000047248
0.0103003857389
8.63997379645e-08
4.92031377922e-08
0.999999779318
0.99999958302
0.972476629176
0.97763204976
0.999991358866
1.00000069507
0.99999996698
0.999999847654
0.999989876579
0.969656613968
0.999990910744
0.999995539519
0.00972450891226
0.00971496458375
1.90978229688e-08
8.50474165297e-08
0.0100135270287
3.10570434432e-09
0.999990977054
0.999996134061
0.965554050577
0.977471595174
0.999994667153
0.976589196122
0.999987417751
0.99998820343
0.999993000463
0.974197036887
0.963288279499
0.999986296491
0.963421516421
0.999989779334
0.999990763293
0.999986759042
0.960161088687
0.972119546862
0.999985941666
0.973720128699
0.999982132645
0.99999144821
0.972334826505
0.960354225644
0.999985244751
0.968924842654
0.962022987667
0.999984117881
0.999989867635
0.96204069604
0.974557307709
0.999981580156
0.97207712966
0.999985906115
0.963053255623
0.00908427345408
7.36614703609e-06
0.00850774181832
0.00873036711665
9.55713491477e-08
1.41186004333e-06
0.00988260189098
1.43450661348e-06
1.26183558088e-07
0.0100327695069
8.71224597687e-06
0.0102541183174
3.52391311819e-06
0.99999397205
0.999992704278
0.971062941735
0.978332470183
0.999987555735
0.999992219531
0.979450564299
0.99998811919
0.999992126862
0.97676139612
0.969316896295
0.999988312008
0.999987533818
0.969914033424
0.978280509608
0.977673084497
0.99999420645
0.999991086168
0.969219815017
0.999991852125
0.96921484424
0.99998847933
0.96063643334
0.968783536612
0.999996608588
0.958386678295
0.999984471113
0.971866103542
0.999987440274
0.99998530178
0.967314518292
0.960727792195
0.999978258499
0.99997635218
0.96145637897
0.99998941735
0.999988537833
0.970341198136
0.964607535887
0.963214859285
0.999991744746
0.972516068915
0.971765562753
0.971357192717
0.999990409609
0.999985920625
0.962292103413
0.999981059748
0.962094393163
1.0000008356
0.999999929903
0.0102572133759
4.75133307366e-08
1.00000042647
0.965174646439
0.999999647181
0.999999319265
0.957947306019
0.958564338081
0.966136393302
0.999998745006
0.999998910744
0.949914487894
0.961956976347
0.00953084241562
0.010374063515
0.0111019824809
2.72000708852e-07
1.00110680028e-05
3.15162909878e-06
0.0118798177539
0.012561956452
0.999995014948
0.999993249719
0.976336201411
0.965349761825
0.999991119019
0.976065791523
0.999987127617
0.999984967249
0.999978341369
0.958538475631
0.969876308749
0.999976527849
0.999983156319
0.969184309569
0.999983936671
0.999982451304
0.970750859276
0.960805716134
0.999986107626
0.968308724013
0.999980908803
0.999975782751
0.999981688101
0.956765544141
0.970392086225
0.99997302481
0.954300349377
0.999985591723
0.999987948248
0.999966658469
0.967275730937
0.952186978138
0.999985364148
0.964923491336
0.999963774031
0.999979003269
0.999978397698
0.953092740587
0.964174916031
0.999974329892
0.950973262399
0.999977620328
1.00000185011
1.00000120576
1.00000096127
1.00000121595
0.0102028154493
0.00813351863543
0.00803105375547
0.00704888559753
0.006258884661
2.463360515e-10
9.66331671737e-11
1.80321122615e-08
5.87404762689e-26
1.00500319756e-07
6.35467569e-08
1.00000215636
1.00000149855
0.995123561735
0.994013390131
1.00000210297
0.994493965912
1.00000052066
1.00000106719
0.993437861133
0.994175085755
1.00000265319
1.00000197934
1.00000231436
0.993931353613
0.996232429394
0.99468756838
0.995902420792
1.0000020164
1.00000136956
0.996809773025
0.993343181697
0.994518194933
0.990845646126
1.00000135773
1.0000016399
0.994528983104
0.996045193764
0.995625622633
1.00000067825
1.00000173022
1.00000109232
0.995586357073
0.992657283763
0.994067887224
0.991321184285
0.993485182535
0.992054549803
0.0104999695676
0.0103811430093
0.010457699974
2.53027051152e-06
1.36992587261e-07
6.85450222622e-08
3.41800461285e-09
3.40700648542e-10
3.21527686444e-10
1.94375843142e-09
4.71386689627e-09
0.0101999903742
0.00894840815044
0.00935191853476
0.00910128236893
0.00834835795857
5.17756407892e-07
7.42489624043e-08
5.76746046818e-06
1.15736788541e-06
0.00757664744207
0.00754510778035
0.00731017582616
9.87079986194e-08
1.3032401158e-07
1.61436102704e-06
1.06109625422e-06
0.00779547589893
0.00700607745062
2.07876173619e-06
4.92831916858e-06
6.45369412273e-06
0.0068343201504
0.00646050537675
0.0068112663757
2.31416927835e-06
3.26716479849e-06
6.83266403494e-06
4.98852691144e-06
1.00000100337
1.00000411481
0.994730395652
0.995422932831
1.00000500751
0.994220805198
1.00000158949
0.999999972236
1.00000121699
0.994513657519
0.993862031412
1.00000311613
0.999998817566
0.993927898832
1.00000562539
1.00000367742
0.99492634054
0.995290381009
1.00000566895
1.00000873148
0.995459224452
0.999998980195
0.999998590567
0.99319681345
0.99428502282
0.999996028265
1.00000023174
0.993278572162
0.999999586458
1.00000118674
0.994210612602
0.993947150957
1.00000246969
0.999999448632
0.993561719479
1.00000970104
1.00000155342
0.994530643552
0.994471195909
1.00000661481
1.00000386996
0.994600502878
1.00001399645
1.00001070717
0.995287746929
0.996102547995
1.00000986786
1.00001423398
0.99515914792
1.00001149306
1.00000349994
0.994668191988
0.995308878891
1.00000764329
1.00000549094
0.995247966905
1.00001351446
1.00000185556
0.996653322553
0.996336908101
1.00000965769
1.00000413085
0.995862373887
1.00001225775
1.00000950162
0.997483195133
0.996775079452
1.00000758776
1.00001250602
0.995458840512
1.00000373292
1.00000153026
0.997563258139
0.993194747581
1.00000392945
0.991040990906
0.999998447239
1.00000503843
1
0.997338689322
0.99575539942
1.00000898761
1
0.995167513846
1
0.999997953931
0.993314413868
0.996569059107
0.999997768142
0.990468740258
0.999998507627
1.00000332113
1.00000119267
0.995114541041
0.994523190017
1.00000415012
1.00000117507
0.994714631013
1
1.00000501591
0.995974509022
0.994393712276
1.00000626484
0.999999187828
0.994327895709
1.00000360696
1
0.995881805108
0.99567943665
1.00000196791
1.00000078825
0.995189104801
0.99999995665
1.00000110987
0.997443393112
0.996119224926
1.00000116272
1
0.994605867831
1
0.999998293617
0.997791690467
0.993888158018
0.999999707036
0.990858109905
0.999998834455
1
1
0.997571667753
0.995864384946
1.00000202805
1
0.995527911981
1
0.999999097452
0.993416083521
0.996612489943
1
0.991307767595
0.999999603666
0.999999813459
1
0.995320384211
0.995639860972
1
1
0.993516559725
0.999999810223
0.996061510624
0.999998377977
1.00000111845
1.00000130521
1.0000012048
1.00000274025
1.00000260485
1.00000239016
1.00000098768
1.00000114519
1.00000113281
1.00000231376
1.00000201066
1.00000146491
0.999974374413
0.99999798881
1.00000008736
1.00000137745
1.00000207611
1.00000258634
1.00000285962
1.00000292104
0.999986371459
0.999987344593
0.999999921974
1.000000453
1.00000090354
1.00000117469
1.00000128818
1.00000105325
0.999999979782
0.999999836399
1.00000010569
1.00000055096
1.00000084748
1.00000102703
1.00000108941
1.00000089167
1.00000037149
1.00000048953
1.00000073821
1.00000097077
1.00000080222
1.00000092807
1.00000096851
1.00000078396
1.00000147744
1.00000140718
1.0000012297
1.00000077871
0.999972630346
0.999998528123
1.00000057772
1.00000138867
1.00000191491
1.00000231238
1.00000266916
1.00000244494
0.999980915294
0.99999716773
1.0000003735
1.0000006587
1.00000093262
1.00000110053
1.00000112326
1.000000792
0.999999881021
0.999999970029
1.00000036563
1.00000070688
1.00000092764
1.00000106103
1.00000106335
1.00000077304
1.00000039644
1.00000047939
1.00000064822
1.00000079593
1.0000009209
1.00000106456
1.00000103904
1.00000079856
1.00000112346
1.0000009549
1.00000077448
1.00000043226
0.999988437147
0.999999659698
0.999999684096
0.999999745854
1.0000001213
1.0000005665
1.0000012663
1.00000146409
0.999990717758
0.999999350382
0.99999977787
1.00000002284
1.00000027049
1.00000040787
1.0000006609
1.00000065712
1.00000007011
1.00000016284
1.00000033058
1.00000048168
1.00000058676
1.0000006604
1.00000066323
1.00000058722
1.00000019845
1.00000034737
1.00000042676
1.00000051893
1.00000060325
1.00000076541
1.00000082278
1.00000084069
1.00000078244
1.00000067589
1.00000082067
1.00000086942
1.00000081251
1.00000069525
1.0000006661
1.00000062025
1.00000071556
1.00000048517
1.00000020655
0.999999594604
0.999999980381
0.999999852198
0.999995768509
0.999996533489
0.999998957472
0.999997845129
0.999998480675
0.999999629865
0.999999859528
1.00000124701
1.00000117858
1.00000003369
0.999999541592
0.999999645277
1.00000011587
1.00000054437
1.00000043204
1.00000083071
1.00000107472
1.00000139167
1.00000109065
1.0000007132
1.00000043341
1.00000049201
1.00000094155
1.00000143703
1.0000011629
1.00000156767
1.00000157007
1.00000171596
1.00000174455
1.00000160789
1.0000014814
1.00000173389
1.00000233672
1.00000007601
1.00000078663
1.0000017191
1.00000172642
1.00000156943
1.00000151986
1.00000179963
0.999998697467
0.999998737367
0.999999952817
0.013197272303
0.0137485373232
0.0126354379053
0.0119553677268
0.01166751146
0.0125452622594
0.013965008057
0.0177437353572
0.00758114941166
0.0100481587906
0.0120003561845
0.0127121765592
0.0126563558535
0.0119683141846
0.0116552348026
0.0122239134515
0.0134970534957
0.0177969000897
0.00767942399901
0.00955707787791
0.011042067025
0.0110952565337
0.0110033963446
0.0110877413593
0.0115340810948
0.0121144718936
0.0134425167035
0.0174405394338
0.00919537587972
0.00981712522746
0.0102649476812
0.0105831481127
0.0108952577989
0.0114236660278
0.0120751521983
0.0135596439002
0.0175174797887
0.00925567248924
0.0104968963788
0.0106855642959
0.0109731053587
0.0117582913486
0.0132982918354
0.0174431525707
0.0114890464027
0.0129936353726
0.0176998779298
3.25594319451e-09
1.29436146457e-07
1.3220525607e-07
4.65432573439e-08
5.97628457634e-08
5.40568457896e-08
8.75239609559e-09
3.20983435926e-08
3.11733592827e-07
3.4288279071e-06
1.79735233101e-08
5.54845543561e-08
7.6600068949e-08
5.2053631608e-08
4.4502809302e-08
1.35052158316e-09
1.13128895013e-09
6.14544281401e-09
2.97551726058e-07
3.15132344959e-06
3.93442030324e-08
1.94897021412e-08
2.3180264541e-09
1.99615981349e-09
2.5538287389e-09
3.55544831588e-09
3.24646048169e-09
2.55675743005e-09
1.20119171198e-07
2.25790964922e-06
6.73879041169e-10
1.33994825034e-09
1.72237533809e-09
3.81515090552e-09
4.56196380217e-09
3.52775710389e-09
3.81086767135e-09
1.19506339905e-07
2.24315490921e-06
1.19278397766e-08
2.65698749938e-10
2.33004645398e-09
2.44135815042e-09
5.75039468319e-09
1.52930590477e-07
2.25968344663e-06
4.51786820185e-08
3.60726097493e-07
3.55973681497e-06
0.999990335845
0.999989390665
0.999984542085
0.999966362657
0.999991895404
0.999971483047
0.999987912482
0.99999825861
0.999985704018
0.999993952817
0.999994937102
0.999997861937
0.999994384623
0.999998033192
0.999984460037
0.999991871742
0.999993840945
0.999984393089
0.999984382469
0.999991633994
0.999993923651
0.999995023639
0.999996637154
0.999999355419
0.999988668319
0.999996895835
0.999998062982
0.999999891291
0.999993754298
0.999974323086
0.999993604768
0.999983353383
0.999996717648
0.999975414058
0.999996828559
0.999998802952
0.999996942452
0.999999232068
0.999998023274
0.999999451527
0.999999434626
1.00000022333
0.999992153782
0.999993900934
0.999995333108
0.999984129501
0.999996432715
0.999994630924
0.999997370721
0.999999205323
0.999998342454
0.999999962872
0.999998768292
1.00000006601
0.999999700269
1.00000032072
0.999997560941
0.999984110625
0.999997771797
0.999990449557
0.999998093975
0.999990481368
0.999996604717
0.999999552572
0.999999440999
0.999999472956
0.999999617685
0.999999730236
0.999999366127
0.999999672411
0.999997443946
0.999997262266
0.999998667604
0.999994316611
0.999996428627
0.99999941648
1
0.999999319429
0.999999920656
1.00000030599
0.999998607937
0.99999942946
1.00000034158
1.0000007345
0.999998296013
0.999996433442
0.955065132244
0.959960113078
0.999999659827
0.999997684907
0.999998226955
0.943615654627
0.954025527931
0.947068551353
0.958037342646
0.999999723281
0.999999038524
0.999999785072
0.942109507109
0.95895919204
0.944582005243
0.958490352819
0.999997057761
0.999998067864
0.999996292945
0.94593166863
0.962381832905
0.94297213673
0.960811173918
0.999995948172
0.999997220405
0.999996136034
0.948121728408
0.962432116795
0.945735959614
0.962689012833
0.999998622452
0.99999613152
0.999996272241
0.947340006373
0.961361924553
0.948010152451
0.962390884527
0.999997460889
0.999997181623
0.999996433168
0.945155542013
0.958092842567
0.947914062623
0.959793495307
0.999997805716
0.999996645195
0.999996364639
0.943536961572
0.956155010023
0.946737427849
0.9565063281
0.999999461318
0.999996367532
0.999997695545
0.947074839749
0.941846692585
0.94634535165
0.939751901038
1.0000010999
1.00000043155
0.980366550457
0.972517213154
0.980625205744
0.977396243611
0.999998472684
1.00000025268
1.00000103809
0.95035617276
0.963151846239
0.958784283994
0.969160297499
1.00000051687
1.00000080342
0.99999962151
0.949786813602
0.96073604747
0.954725783543
0.965896278693
1.00000161262
0.999999358967
0.999998758295
0.947162407199
0.960084878627
0.953135929449
0.965541327172
1.00000050449
0.999999002346
0.999997874626
0.944669941716
0.961407962671
0.952125440757
0.965611406242
0.999999237305
0.999998443152
0.99999729976
0.946507143735
0.9637845478
0.951630120515
0.964630053694
0.999999336527
0.999998094089
0.999996970002
0.949356261941
0.962891407468
0.950594827305
0.962473723982
1.00000085997
0.999998487868
0.999997486508
0.949076996462
0.960800203883
0.949091180299
0.959964967116
1.00000024596
0.999998950479
0.999998236906
0.948412776373
0.957127481917
0.948195448217
0.957319371328
1.00000091495
0.999998341357
0.999997806032
0.947002628062
0.939881755531
0.948402811159
0.94239422439
1.00000072266
1.00000057445
1.00000056841
0.983504402366
0.980849269669
0.983588879486
0.984414928651
1.00000104026
1.00000115074
1.0000003006
0.964013114014
0.972235479048
0.970246620001
0.975277717119
1.00000173531
1.00000176067
1.00000014029
0.958193248465
0.968099837365
0.962257061588
0.970758916527
1.00000163445
1.00000146996
0.999999745414
0.956001600362
0.967269140247
0.958729229284
0.969010384491
1.00000100694
1.00000111802
0.999999320497
0.954796571586
0.966856074356
0.9572686189
0.967933862231
1.00000048017
1.00000075295
0.999998949585
0.953815254273
0.965421753958
0.955633338535
0.965967045799
1.00000069415
1.00000054594
0.999998664473
0.952175286191
0.963113428462
0.953083579578
0.963428013332
1.00000142905
1.00000062035
0.999998741363
0.950105374885
0.960214235661
0.950528525755
0.960126622709
1.00000165306
1.00000084862
0.999999402113
0.948480624548
0.957726327075
0.947680653457
0.956698277835
1.00000051026
1.0000006041
1.0000000683
0.948778496943
0.942436881209
0.946889303415
0.941420965856
0.983578886544
0.984387265563
1.00000190431
1.0000000543
0.972078638368
0.976930398329
0.979980840641
1.0000023357
1.00000047455
0.999999284643
0.965305798477
0.972569160151
0.971268212401
0.976792519104
1.00000247477
1.00000029184
0.999999339129
0.96136305229
0.970397899827
0.965732394039
0.972841739322
1.00000258537
1.00000174514
1.00000009462
0.959156191165
0.968897513149
0.960739693761
0.970120621375
1.00000260962
1.00000223235
1.00000015931
0.957222148594
0.966724193955
0.958510836075
0.967839687402
1.00000261208
1.00000214352
0.999999910981
0.954120546691
0.963977823906
0.955402169138
0.964761228833
1.00000285307
1.00000179175
0.999999713145
0.95115322176
0.96043825178
0.951687110454
0.961146334831
1.00000289763
1.00000160219
1.00000003857
0.948144639109
0.957121239742
0.948694639468
0.957522531464
1.000001467
1.00000118668
1.00000068681
0.947228910354
0.941133445875
0.947629457493
0.942135306178
1.00000092192
0.999999971475
0.966700504451
0.973477431792
0.974169642013
1.00000253296
1.00000054862
0.999999496998
0.960797455467
0.970699964195
0.960659025714
0.971796785105
1.00000290037
1.00000005948
0.999998191473
0.959274384231
0.96836102895
0.959894241718
0.969161584037
1.00000275798
0.999999257638
0.999998707637
0.956102855017
0.965240541286
0.957179519016
0.966811044957
1.0000025668
1.00000015974
0.999998814619
0.952374112771
0.96159952115
0.953713197926
0.963213197899
1.00000227575
1.00000012352
0.999999062375
0.949260885588
0.957987026173
0.950823140462
0.95917288166
1.00000076064
0.999999775139
0.999999695273
0.948246267122
0.94286429993
0.949492392518
0.943099210176
0.999999113645
0.966962497756
0.999998537962
0.953511849958
0.963707133051
0.999999328401
0.951568167927
0.959462662545
0.999999017669
0.949976695607
0.942043943613
1.11576168676e-08
7.4837199573e-07
4.08230412909e-08
4.76700153562e-07
0.0127080461604
0.0119985151906
2.25500693267e-06
1.27690682773e-05
4.2236590326e-06
1.0930261752e-05
0.0138444688481
0.012707433785
0.0129915256499
7.27534710587e-06
1.64567058063e-06
1.66051733095e-05
7.66332598182e-06
0.0131901661721
0.013493390208
0.0133786192503
2.19124776596e-08
2.89556710714e-07
5.31870945007e-06
6.07791919832e-06
0.0120266987116
0.0131350136974
0.0126383066437
5.1565685157e-07
4.38175444911e-06
9.54148482605e-06
4.79744043724e-06
0.0116038542715
0.0121098351593
0.0117002418822
8.20925633225e-06
6.17847103626e-06
4.91838553166e-06
3.33031793291e-08
0.0120068295483
0.0116832047797
0.0117850992807
2.41018217842e-06
3.39137887335e-06
2.38057686194e-07
1.32620270859e-08
0.0132775307876
0.0123880418388
0.0128651930102
1.39342895578e-06
5.76264699957e-06
2.20941321011e-06
4.06894665662e-06
0.0154362962846
0.0137978851439
0.015382097913
6.80147588215e-06
2.18194408409e-05
1.35448516581e-05
2.90049227344e-05
0.0218035993392
0.0178188802406
0.0220399062924
4.87381531007e-05
0.000124202358639
5.43420015912e-05
0.000129914146993
0.00827754555036
0.0076677750159
0.00869548281094
2.68626094207e-07
7.84776251705e-07
4.73881908158e-06
3.6597541266e-06
0.0112367570174
0.0100828714742
0.0107828056121
2.02497532353e-06
7.92684082017e-06
4.00485506173e-06
1.52484564774e-07
0.012401815785
0.0115188657052
0.0115679194969
8.93501813996e-06
1.05921294359e-05
3.27117121878e-06
4.8866122593e-08
0.0128267699512
0.01189681095
0.01157720756
5.78564571079e-06
8.1406329689e-06
3.1355211314e-06
5.55660694297e-08
0.0123675789922
0.0116918771261
0.0113323930023
7.48610002073e-06
7.23764309008e-06
2.99041444409e-06
1.28792883547e-08
0.0116655468713
0.0115052284578
0.0113941577323
9.60072148729e-07
7.2705392981e-07
1.11333908832e-06
1.0910563929e-08
0.0119098565751
0.0118016573315
0.0118597393537
5.99484048215e-09
2.27342989267e-07
2.15095257712e-07
8.17929588398e-09
0.0126666844027
0.0123375650228
0.0126037208035
1.12652221087e-08
4.23534820073e-06
1.63731914854e-07
1.82928864326e-08
0.0152032128444
0.0135103025605
0.0151451891724
1.08482126245e-05
2.86952336168e-05
8.10207657315e-06
1.92358550182e-05
0.0218685988768
0.0175429716045
0.0214161989905
5.41115095433e-05
0.000127005895995
4.57737525643e-05
0.000114175309019
0.0087185992753
0.00758471530535
0.00821692867752
3.50168542409e-06
6.48750000885e-06
3.58837085891e-06
7.00864507755e-07
0.0105609268729
0.00960384247241
0.0100050512445
3.61215679832e-07
4.98556607682e-07
3.63905693561e-06
1.31044988796e-07
0.0112125926397
0.010661071974
0.0106302962901
1.68922717685e-08
1.73711378048e-07
6.41843111657e-07
2.22583204843e-08
0.0110830430058
0.0108955360572
0.010768704561
6.39057658416e-09
5.42461391622e-07
3.67604490876e-07
1.70583841784e-08
0.0110739620154
0.0109359587062
0.0108529060155
4.70319539669e-09
7.45848644167e-07
5.82642738866e-07
2.42903092854e-08
0.0113737289405
0.0111670714732
0.0112396678803
8.85487076386e-09
4.73501706222e-07
1.00955833731e-06
2.29912358997e-08
0.0118493248068
0.0116408226906
0.011757782914
1.25294346345e-08
5.01015370251e-07
7.36963673863e-07
1.44574261608e-08
0.0126376139662
0.0121897130344
0.0126329688706
8.53795549053e-09
8.35669885426e-07
5.1181379315e-07
1.98023111507e-08
0.0150782968676
0.0136547068518
0.0152523551148
3.06069010236e-07
1.70922043303e-05
4.93435187554e-06
1.36299204555e-05
0.0210802696232
0.017557638804
0.0210898785449
3.5006765796e-05
0.000104581633787
3.82371230843e-05
0.000103051572688
0.00966070349044
0.0087899302102
5.3666202085e-08
6.19994176637e-07
4.16118411825e-09
0.0100515209046
0.00905114021264
0.00908172748563
1.9901210819e-08
3.8584572888e-07
3.91259740074e-09
2.20899792013e-09
0.010459699483
0.00951694428857
0.010096883075
1.30128563776e-08
4.27941223384e-07
2.39917569536e-07
1.38286842368e-08
0.0107365402832
0.0106211591932
0.0106450749265
1.7524531543e-08
8.86367681552e-07
4.46213166476e-07
1.62519191594e-08
0.0111992599848
0.010838123632
0.0109553459794
2.91055589743e-08
1.21841625519e-06
6.75410898085e-07
2.40500631272e-09
0.011711183917
0.0113038029047
0.0115792851109
3.20769150828e-08
1.01899317446e-06
3.43187184862e-07
4.93253383992e-09
0.0126560108873
0.012059708109
0.0125365250232
1.92179208105e-08
1.45638400537e-06
3.73332963639e-07
1.06493537043e-08
0.0152088724165
0.0135416939457
0.0152145110952
3.70952258895e-07
1.68346861909e-05
4.8567279326e-06
1.3304828298e-05
0.0210745361568
0.0174716570001
0.0209995645487
3.46343845707e-05
0.000104223147741
3.74300363984e-05
0.000100987239124
0.00984981375233
0.00982966681836
2.48137794744e-08
5.38075110163e-07
5.33842271266e-06
6.37876935258e-08
0.0106698357812
0.0102289503252
0.0104945962117
2.25993210834e-08
5.35403042421e-07
1.10938892318e-08
6.89708139283e-08
0.0107616506065
0.0107115450111
0.0105365572562
2.19783310012e-08
3.97777707033e-07
4.63824761788e-07
4.81819263395e-09
0.0112569884808
0.0106932836464
0.0110755381571
1.05120344299e-08
6.53101477329e-07
9.52102410644e-08
5.71011809152e-09
0.012297089802
0.0116044799862
0.012012473036
1.46936722057e-08
1.32609622329e-06
1.98028450491e-06
1.13705662926e-06
0.0150339224002
0.0131126547768
0.0148567486219
7.14364691872e-07
1.77919103606e-05
9.35790551354e-06
1.74759228294e-05
0.0210246040393
0.0174495584936
0.0213304661999
3.36639514487e-05
0.00010257455992
4.02913737667e-05
0.000106661339663
0.0108008155666
1.19714633957e-06
0.0120691911868
4.60365439725e-07
7.54811347269e-06
5.37308033254e-06
7.14956748004e-06
0.0149378219091
6.88635707926e-06
2.56480916573e-05
1.60837473316e-05
2.75250788422e-05
0.0219269128186
4.66211993201e-05
0.000125042969875
5.25946446357e-05
0.000133670152692
0.999917019112
0.999970265935
0.959950348978
0.947966021411
0.999923347278
0.941690105339
0.99993878124
0.999946440361
0.999985550063
0.949329651668
0.963568631053
0.999939347996
0.999976299362
0.94385106975
0.999959589914
0.999962998931
0.95007922659
0.95989952177
0.99995347456
0.955227203945
0.999963008389
0.999950875973
0.999978648866
0.959282687591
0.950205079972
0.999955346464
0.944171126698
0.999978805647
0.99996916494
0.999972668383
0.961471289735
0.952942887512
0.999959416179
0.999963817782
0.957553147079
0.99996265703
0.999980756027
0.951752734805
0.963197450052
0.999963136687
0.999976010564
0.94577317177
0.99998075309
0.999966511044
0.947444095517
0.960794208744
0.999978312273
0.956135908663
0.999964243772
0.99996629411
0.999983809279
0.960708551565
0.947302349891
0.999962489759
0.943121916918
0.999979393283
0.999983907743
0.999969666136
0.961428461059
0.949710967356
0.99998398931
0.999961783082
0.956423222119
0.999968655093
0.999985754073
0.947373010212
0.961980137327
0.99996108103
0.99998107615
0.942663459408
0.99998048567
0.999972830642
0.948783037505
0.961705891826
0.999972570794
0.960938620084
0.999963567269
0.999964593664
0.999973478097
0.962191385555
0.94934961735
0.999950471813
0.947056650186
0.999983418946
0.999986493308
0.999978237098
0.961266468293
0.946397304373
0.999984834234
0.999953791374
0.959560623672
0.999966690792
0.999983350773
0.948778458257
0.961518121212
0.999970819164
0.999967645767
0.945328176237
0.999978595534
0.999966525544
0.949747099246
0.963006913487
0.99995996792
0.962673015286
0.999968883679
0.999968936366
0.99998318325
0.96315832977
0.950035529123
0.999963041324
0.947648374611
0.999976040909
0.999979325363
0.999973509168
0.963067988716
0.948360348586
0.999974930013
0.999963110674
0.962632085288
0.999964948274
0.99998265614
0.94995209348
0.962541773121
0.999957982959
0.999975943663
0.947901755019
0.999978757657
0.999969149546
0.94970889393
0.963387325551
0.999974950807
0.962515492294
0.999958394208
0.999966088569
0.999969873709
0.962722252444
0.949049472442
0.99996035463
0.947398120494
0.999968752543
0.999978158108
0.999969323898
0.963395401572
0.949240466185
0.999973118792
0.999961648524
0.963195648294
0.99996469779
0.999976638212
0.949463579922
0.96174550989
0.999956816666
0.999970176142
0.948614899461
0.999978599372
0.999961502973
0.946512045392
0.961087497185
0.999979643813
0.960274417152
0.999940626621
0.999956681608
0.99998132091
0.958878373916
0.945976412466
0.999974603987
0.9450289544
0.999959523746
0.999983052772
0.999966918489
0.961245267803
0.94803766439
0.999974665343
0.999961326792
0.96098902686
0.999965247337
0.999972813004
0.94735713987
0.959593771403
0.999942988013
0.999979582502
0.946459029242
0.999975922399
0.999972007212
0.945135702688
0.958242013973
0.999978445917
0.957211931888
0.999958914994
0.999953168726
0.999975884108
0.957325392732
0.947092218855
0.999946133102
0.945076870537
0.999967561457
0.999979863873
0.999968872134
0.958973493856
0.947890335214
0.999964898029
0.999978049121
0.957941786906
0.999966417994
0.999980900978
0.94769555073
0.958433016842
0.999955394245
0.999981236097
0.945693094397
0.99995962067
0.999962327037
0.949284189969
0.95783166554
0.999959590681
0.956573123814
0.999947633766
0.999920890474
0.999951808017
0.951958612952
0.935471284819
0.942018740405
0.999924754456
0.999947866457
0.999967307484
0.999960978053
0.957949405236
0.948589567808
0.999971523593
0.999940056646
0.956319086948
0.999928574327
0.999941228386
0.935278557772
0.951630353951
0.999942864624
0.941232016544
0.999933875314
1
0.99999976545
0.983643150456
0.993746328801
0.999999422727
0.982252484635
1
0.999998471993
0.999989552841
0.984958488912
0.968397510341
0.999999523427
0.999988011473
0.963882601926
0.999999682506
0.999997778895
0.993958294256
0.985423691164
0.999998629442
0.983385576781
0.999999449957
0.999999253412
0.999996263017
0.96999289083
0.987273943889
0.999986726657
1
0.966647553166
0.999974064337
0.999967936923
0.953483021556
0.975124510988
0.999961754975
0.999977791132
0.968202645389
0.999971286413
0.999974887258
0.965911104065
0.953281881236
0.99997485324
0.999959302572
0.949828468022
0.999983022401
0.999987805251
0.977275719966
0.960238649916
0.999977437074
0.999982978407
0.971904041209
0.999977119821
0.999995361337
0.955877343733
0.970034996777
0.999967872881
0.999991857407
0.954670763562
0.999972862514
0.999959565486
0.953569184154
0.96523906418
0.999956116209
0.999962782187
0.963439520875
0.999969583956
0.999970329972
0.964585285658
0.954838322092
0.999968984407
0.999969799023
0.951080568703
0.999983568532
0.999984557349
0.967170869741
0.95605078714
0.999978967528
0.99997965402
0.966805194666
0.999975643
0.999987730221
0.956349258123
0.966434862933
0.999972421787
0.999982705745
0.954848808284
0.999987822517
0.999955151632
0.951306824476
0.964812687456
0.999954381426
0.999983784283
0.961526101183
0.999975824352
0.999981013171
0.963189392546
0.950765377959
0.999979483111
0.999971761056
0.947472179719
0.999985272551
0.99998152106
0.966384044128
0.954695325885
0.999983283393
0.999976668721
0.964592097136
0.999973045657
0.999985734473
0.953188836815
0.965485209278
0.999967962103
0.999980760557
0.951341581865
0.999983387022
0.999965321734
0.947766704554
0.963353464754
0.999966210747
0.999981393523
0.96225716419
0.999970165584
0.99998341942
0.961955409248
0.9490881124
0.999981740045
0.999962497228
0.947180236343
0.99998285673
0.999977889788
0.964829956173
0.952825528659
0.999979385357
0.999971173013
0.964794123784
0.99996558587
0.999982805756
0.951317691519
0.964217173183
0.99995939696
0.999976189782
0.950697253117
0.999979277658
0.999958313898
0.948624678676
0.962646849789
0.999946163981
0.99996873755
0.963510386992
0.99996444752
0.999967136778
0.96271021668
0.949509779362
0.999958173184
0.999956443057
0.949048166514
0.999977819492
0.999973979436
0.963544360878
0.950991249918
0.999972328852
0.99996574818
0.96491468117
0.999963803235
0.999979518886
0.950047312536
0.962092286793
0.999954951777
0.999971530952
0.950772032184
0.999975014943
0.999956819361
0.949331401696
0.961559256349
0.999942713229
0.999961935314
0.963191964079
0.999962448827
0.999963934328
0.9613224966
0.948535533251
0.999952495395
0.999954372888
0.949299076638
0.999973393419
0.999969275754
0.961342035064
0.948656900141
0.999966729125
0.999960132646
0.963734394067
0.99996100761
0.999977165768
0.948700205804
0.959354702327
0.999953688169
0.999967832807
0.950230912282
0.999975539816
0.999955715734
0.948622934198
0.9596185287
0.999945689603
0.999962924241
0.961149198248
0.99996336762
0.999966139372
0.959898661773
0.949111222538
0.999952238449
0.999953943146
0.949099029593
0.999973965941
0.99996630716
0.959372960632
0.947296261458
0.99996725927
0.999959091004
0.96150524869
0.999962906744
0.999977689143
0.948782143428
0.957916347433