/*--------------------------------*- C++ -*----------------------------------*\
| =========                 |                                                 |
| \\      /  F ield         | OpenFOAM: The Open Source CFD Toolbox           |
|  \\    /   O peration     | Version:  v1906                                 |
|   \\  /    A nd           | Web:      www.OpenFOAM.com                      |
|    \\/     M anipulation  |                                                 |
\*---------------------------------------------------------------------------*/
FoamFile
{
    version     2.0;
    format      ascii;
    class       volVectorField;
    location    "1";
    object      force.turbine;
}
// * * * * * * * * * * * * * * * * * * * * * * * * * * * * * * * * * * * * * //

dimensions      [1 -2 -2 0 0 0 0];


internalField   nonuniform List<vector> 
28582
(
(0 0 0)
(0 0 0)
(0 0 0)
(0 0 0)
(0 0 0)
(0 0 0)
(0 0 0)
(0 0 0)
(0 0 0)
(0 0 0)
(0 0 0)
(0 0 0)
(0 0 0)
(0 0 0)
(0 0 0)
(0 0 0)
(0 0 0)
(0 0 0)
(0 0 0)
(0 0 0)
(0 0 0)
(0 0 0)
(0 0 0)
(0 0 0)
(0 0 0)
(0 0 0)
(0 0 0)
(0 0 0)
(0 0 0)
(0 0 0)
(0 0 0)
(0 0 0)
(0 0 0)
(0 0 0)
(0 0 0)
(0 0 0)
(0 0 0)
(0 0 0)
(0 0 0)
(0 0 0)
(0 0 0)
(0 0 0)
(0 0 0)
(0 0 0)
(0 0 0)
(0 0 0)
(0 0 0)
(0 0 0)
(0 0 0)
(0 0 0)
(0 0 0)
(0 0 0)
(0 0 0)
(0 0 0)
(0 0 0)
(0 0 0)
(0 0 0)
(0 0 0)
(0 0 0)
(0 0 0)
(0 0 0)
(0 0 0)
(0 0 0)
(0 0 0)
(0 0 0)
(0 0 0)
(0 0 0)
(0 0 0)
(0 0 0)
(0 0 0)
(0 0 0)
(0 0 0)
(0 0 0)
(0 0 0)
(0 0 0)
(0 0 0)
(0 0 0)
(0 0 0)
(0 0 0)
(0 0 0)
(0 0 0)
(0 0 0)
(0 0 0)
(0 0 0)
(0 0 0)
(0 0 0)
(0 0 0)
(0 0 0)
(0 0 0)
(0 0 0)
(0 0 0)
(0 0 0)
(0 0 0)
(0 0 0)
(0 0 0)
(0 0 0)
(0 0 0)
(0 0 0)
(0 0 0)
(0 0 0)
(0 0 0)
(0 0 0)
(0 0 0)
(0 0 0)
(0 0 0)
(0 0 0)
(0 0 0)
(0 0 0)
(0 0 0)
(0 0 0)
(0 0 0)
(0 0 0)
(0 0 0)
(0 0 0)
(0 0 0)
(0 0 0)
(0 0 0)
(0 0 0)
(0 0 0)
(0 0 0)
(0 0 0)
(0 0 0)
(0 0 0)
(0 0 0)
(0 0 0)
(0 0 0)
(0 0 0)
(0 0 0)
(0 0 0)
(0 0 0)
(0 0 0)
(0 0 0)
(0 0 0)
(0 0 0)
(0 0 0)
(0 0 0)
(0 0 0)
(0 0 0)
(0 0 0)
(0 0 0)
(0 0 0)
(0 0 0)
(0 0 0)
(0 0 0)
(0 0 0)
(0 0 0)
(0 0 0)
(0 0 0)
(0 0 0)
(0 0 0)
(0 0 0)
(0 0 0)
(0 0 0)
(0 0 0)
(0 0 0)
(0 0 0)
(0 0 0)
(0 0 0)
(0 0 0)
(0 0 0)
(0 0 0)
(0 0 0)
(0 0 0)
(0 0 0)
(0 0 0)
(0 0 0)
(0 0 0)
(0 0 0)
(0 0 0)
(0 0 0)
(0 0 0)
(0 0 0)
(0 0 0)
(0 0 0)
(0 0 0)
(0 0 0)
(0 0 0)
(0 0 0)
(0 0 0)
(0 0 0)
(0 0 0)
(0 0 0)
(0 0 0)
(0 0 0)
(0 0 0)
(0 0 0)
(0 0 0)
(0 0 0)
(0 0 0)
(0 0 0)
(0 0 0)
(0 0 0)
(0 0 0)
(0 0 0)
(0 0 0)
(0 0 0)
(0 0 0)
(0 0 0)
(0 0 0)
(0 0 0)
(0 0 0)
(0 0 0)
(0 0 0)
(0 0 0)
(0 0 0)
(0 0 0)
(0 0 0)
(0 0 0)
(0 0 0)
(0 0 0)
(0 0 0)
(0 0 0)
(0 0 0)
(0 0 0)
(0 0 0)
(0 0 0)
(0 0 0)
(-0.000701479050112 1.02258614013e-05 0)
(0 0 0)
(0 0 0)
(0 0 0)
(0 0 0)
(-2.95188595258e-05 1.82880686702e-07 0)
(0 0 0)
(-3.11466055195e-06 1.47470581311e-08 0)
(0 0 0)
(0 0 0)
(0 0 0)
(0 0 0)
(0 0 0)
(0 0 0)
(0 0 0)
(0 0 0)
(0 0 0)
(0 0 0)
(0 0 0)
(0 0 0)
(-0.0181763759533 0.000483853481327 0)
(0 0 0)
(0 0 0)
(0 0 0)
(-0.0356772977582 0.000655050543885 0)
(0 0 0)
(0 0 0)
(-0.150379663047 -0.00871144027647 0.0244637182233)
(-1.34130517741 -0.0986036921337 0.262124574243)
(-0.0970370967713 0.00178164286566 0)
(-0.931962530595 0.0171383166471 0)
(-0.00725031475272 5.61983445388e-05 0)
(-0.0964570862706 0.00177099362321 0)
(0 0 0)
(0 0 0)
(0 0 0)
(0 0 0)
(0 0 0)
(-0.0181763400923 0.00048385252671 0)
(0 0 0)
(0 0 0)
(0 0 0)
(-0.0355493925478 0.000652702149167 0)
(0 0 0)
(0 0 0)
(0 0 0)
(0 0 0)
(0 0 0)
(0 0 0)
(0 0 0)
(0 0 0)
(-1.69670689467e-05 1.16084546609e-07 0)
(0 0 0)
(-1.02896764269e-05 7.03994559417e-08 0)
(-0.000142403066023 1.56037112686e-06 0)
(-0.000638206252373 6.99309809115e-06 0)
(-8.63719637027e-05 9.46414442436e-07 0)
(-0.00038709335539 4.24154698361e-06 0)
(0 0 0)
(0 0 0)
(-8.57320547409e-05 6.29860768776e-07 0)
(0 0 0)
(0 0 0)
(0 0 0)
(0 0 0)
(0 0 0)
(0 0 0)
(-0.00295218374947 4.3035671341e-05 0)
(-0.000138331197469 1.62062139275e-06 0)
(-0.000638260945391 9.30429492424e-06 0)
(-3.0972447127e-05 2.97156410598e-07 0)
(-0.00014242153106 1.56057345613e-06 0)
(-4.26409223178e-06 2.01892999155e-08 0)
(-3.10021792865e-05 2.97441667418e-07 0)
(0 0 0)
(0 0 0)
(0 0 0)
(0 0 0)
(0 0 0)
(-6.48868264399e-05 4.76713949157e-07 0)
(0 0 0)
(0 0 0)
(0 0 0)
(0 0 0)
(0 0 0)
(0 0 0)
(0 0 0)
(0 0 0)
(0 0 0)
(0 0 0)
(0 0 0)
(0 0 0)
(0 0 0)
(0 0 0)
(0 0 0)
(0 0 0)
(0 0 0)
(0 0 0)
(0 0 0)
(0 0 0)
(-0.0058954081552 4.73198162279e-05 0)
(0 0 0)
(0 0 0)
(0 0 0)
(0 0 0)
(0 0 0)
(-0.00565188828646 4.38086863882e-05 0)
(0 0 0)
(0 0 0)
(0 0 0)
(0 0 0)
(0 0 0)
(0 0 0)
(0 0 0)
(0 0 0)
(0 0 0)
(0 0 0)
(0 0 0)
(0 0 0)
(0 0 0)
(0 0 0)
(0 0 0)
(0 0 0)
(0 0 0)
(0 0 0)
(0 0 0)
(0 0 0)
(0 0 0)
(0 0 0)
(-0.0411164577682 0.00088007955461 0)
(-0.0104838582401 0.000143488708434 0)
(-0.0172990963263 0.000236766363306 0)
(-0.0116199620239 0.000176125410679 0)
(-0.0220081314603 0.000471074299313 0)
(0 0 0)
(0 0 0)
(0 0 0)
(0 0 0)
(0 0 0)
(0 0 0)
(0 0 0)
(0 0 0)
(0 0 0)
(0 0 0)
(-0.00641210314018 4.97012328127e-05 0)
(0 0 0)
(-0.0090496336235 0.000137166578957 0)
(0 0 0)
(0 0 0)
(-0.170480162187 0.00145739197261 0.00435883498257)
(-0.115161348883 0.00246098419938 0)
(-0.236618117456 0.00435128676129 0)
(-0.0519384090945 0.000953611547502 0)
(-0.35840171794 -0.0008262912728 0.0172293574992)
(-0.059824200558 0.00128051049725 0)
(-0.124429405929 0.00228457745263 0)
(-0.481590561527 -0.00733176255074 0.0358965465287)
(-1.71416688579 -0.0320143748475 0.14173742966)
(-0.500960724616 0.00921241277883 0)
(-0.498769128983 0.00917211045048 0)
(-0.948540373585 -0.0195797988455 0.0821229465684)
(-0.266393527969 0.00489884140746 0)
(-0.91504418429 -0.0158247964232 0.0725094743536)
(-0.0698485774778 0.00149265571469 0)
(-0.0102544794059 0.000155428597179 0)
(-0.024547825645 0.000450708645282 0)
(-0.024508894739 0.000449993857092 0)
(-0.0282588520624 0.000604868203313 0)
(-0.0282585983395 0.000604862772486 0)
(-0.0587591056288 0.00107884247179 0)
(-0.173823951036 0.00120970037526 0.00499285878117)
(-0.11516002038 0.00246095580943 0)
(-0.235630212228 0.00433311968691 0)
(-0.0519276848912 0.000953414646512 0)
(-0.0598233197703 0.00128049164438 0)
(-0.123806285669 0.00227313669643 0)
(-0.367264383569 -0.00145504025685 0.018838899978)
(0 0 0)
(0 0 0)
(0 0 0)
(0 0 0)
(0 0 0)
(0 0 0)
(0 0 0)
(0 0 0)
(0 0 0)
(0 0 0)
(0 0 0)
(0 0 0)
(0 0 0)
(0 0 0)
(0 0 0)
(0 0 0)
(0 0 0)
(0 0 0)
(0 0 0)
(0 0 0)
(0 0 0)
(0 0 0)
(0 0 0)
(-0.00641718105796 4.97405925623e-05 0)
(0 0 0)
(-0.00904955682486 0.000137165414909 0)
(0 0 0)
(0 0 0)
(0 0 0)
(-0.0411159478837 0.000880068640756 0)
(-0.0173284018045 0.000237167456598 0)
(-0.0104691305112 0.00014328713543 0)
(-0.0220078120742 0.000471067462995 0)
(0 0 0)
(-0.0116198339459 0.000176123469382 0)
(0 0 0)
(0 0 0)
(0 0 0)
(0 0 0)
(0 0 0)
(0 0 0)
(0 0 0)
(0 0 0)
(0 0 0)
(0 0 0)
(0 0 0)
(0 0 0)
(0 0 0)
(0 0 0)
(0 0 0)
(0 0 0)
(0 0 0)
(0 0 0)
(0 0 0)
(0 0 0)
(0 0 0)
(0 0 0)
(0 0 0)
(0 0 0)
(0 0 0)
(0 0 0)
(0 0 0)
(0 0 0)
(0 0 0)
(0 0 0)
(0 0 0)
(0 0 0)
(0 0 0)
(0 0 0)
(0 0 0)
(0 0 0)
(-0.0169751536941 0.000343380443461 0)
(0 0 0)
(0 0 0)
(0 0 0)
(0 0 0)
(0 0 0)
(0 0 0)
(0 0 0)
(-0.0037877141588 7.66194516404e-05 0)
(0 0 0)
(0 0 0)
(0 0 0)
(0 0 0)
(0 0 0)
(0 0 0)
(0 0 0)
(0 0 0)
(0 0 0)
(0 0 0)
(0 0 0)
(0 0 0)
(0 0 0)
(0 0 0)
(0 0 0)
(0 0 0)
(0 0 0)
(0 0 0)
(0 0 0)
(0 0 0)
(0 0 0)
(0 0 0)
(0 0 0)
(0 0 0)
(0 0 0)
(0 0 0)
(0 0 0)
(-0.364575936422 0.00984708869058 0)
(-0.00871554480689 0.000176301652092 0)
(0 0 0)
(0 0 0)
(0 0 0)
(0 0 0)
(0 0 0)
(0 0 0)
(-0.0801471006581 0.00218354779097 0)
(0 0 0)
(0 0 0)
(0 0 0)
(0 0 0)
(0 0 0)
(0 0 0)
(0 0 0)
(0 0 0)
(0 0 0)
(0 0 0)
(0 0 0)
(0 0 0)
(0 0 0)
(0 0 0)
(0 0 0)
(0 0 0)
(0 0 0)
(0 0 0)
(0 0 0)
(0 0 0)
(0 0 0)
(0 0 0)
(0 0 0)
(0 0 0)
(0 0 0)
(0 0 0)
(0 0 0)
(-1.7154251744 0.057400078756 0)
(-0.0487238299495 0.0016725196907 0)
(0 0 0)
(0 0 0)
(0 0 0)
(0 0 0)
(0 0 0)
(0 0 0)
(-0.3761471923 0.0124345897177 0)
(-0.00752428695311 0.000283862806519 0)
(0 0 0)
(0 0 0)
(0 0 0)
(0 0 0)
(0 0 0)
(0 0 0)
(0 0 0)
(0 0 0)
(0 0 0)
(0 0 0)
(0 0 0)
(0 0 0)
(0 0 0)
(0 0 0)
(0 0 0)
(0 0 0)
(0 0 0)
(0 0 0)
(0 0 0)
(0 0 0)
(0 0 0)
(0 0 0)
(0 0 0)
(0 0 0)
(0 0 0)
(0 0 0)
(0 0 0)
(0 0 0)
(0 0 0)
(0 0 0)
(0 0 0)
(0 0 0)
(0 0 0)
(-2.90441005147 0.0759933398671 0)
(-0.0877056177408 0.00229480090591 0)
(0 0 0)
(0 0 0)
(0 0 0)
(0 0 0)
(0 0 0)
(0 0 0)
(-2.90441015378 0.075993342544 0)
(-0.648061651436 0.0169564105824 0)
(-0.0181763504198 0.000483852801627 0)
(0 0 0)
(0 0 0)
(0 0 0)
(0 0 0)
(0 0 0)
(0 0 0)
(-0.0531961701913 0.00139186773539 0)
(-0.0877056922448 0.00229480285529 0)
(-0.0181763472914 0.00048385271835 0)
(0 0 0)
(0 0 0)
(0 0 0)
(0 0 0)
(0 0 0)
(0 0 0)
(0 0 0)
(0 0 0)
(0 0 0)
(0 0 0)
(0 0 0)
(0 0 0)
(0 0 0)
(0 0 0)
(0 0 0)
(0 0 0)
(0 0 0)
(0 0 0)
(0 0 0)
(0 0 0)
(0 0 0)
(0 0 0)
(0 0 0)
(0 0 0)
(0 0 0)
(0 0 0)
(-0.0220226020312 0.000321734706775 0)
(-0.000686964364186 1.00142725213e-05 0)
(0 0 0)
(0 0 0)
(0 0 0)
(0 0 0)
(0 0 0)
(0 0 0)
(-0.00807440814206 0.000117961416743 0)
(-0.0171385809972 0.000250382598926 0)
(-0.00447444440504 6.5226535741e-05 0)
(-0.000113554342086 8.34267012735e-07 0)
(0 0 0)
(0 0 0)
(0 0 0)
(0 0 0)
(0 0 0)
(0 0 0)
(-0.000231653476291 2.71394006739e-06 0)
(-0.000491764818669 7.1687370805e-06 0)
(-9.97261577559e-05 7.32673380815e-07 0)
(0 0 0)
(0 0 0)
(0 0 0)
(0 0 0)
(0 0 0)
(0 0 0)
(0 0 0)
(0 0 0)
(0 0 0)
(0 0 0)
(0 0 0)
(0 0 0)
(0 0 0)
(0 0 0)
(0 0 0)
(0 0 0)
(0 0 0)
(0 0 0)
(0 0 0)
(0 0 0)
(0 0 0)
(0 0 0)
(0 0 0)
(0 0 0)
(0 0 0)
(0 0 0)
(-0.000227951398873 1.69810208522e-06 0)
(-0.00022798009184 1.69831583072e-06 0)
(-2.95227497451e-05 1.82904788106e-07 0)
(0 0 0)
(0 0 0)
(0 0 0)
(0 0 0)
(0 0 0)
(0 0 0)
(0 0 0)
(-2.95193859489e-05 1.82883948095e-07 0)
(-2.95204905409e-05 1.82890791468e-07 0)
(-3.11489855541e-06 1.47481850118e-08 0)
(0 0 0)
(0 0 0)
(0 0 0)
(0 0 0)
(0 0 0)
(0 0 0)
(0 0 0)
(0 0 0)
(0 0 0)
(0 0 0)
(0 0 0)
(0 0 0)
(0 0 0)
(0 0 0)
(0 0 0)
(0 0 0)
(0 0 0)
(0 0 0)
(0 0 0)
(0 0 0)
(0 0 0)
(0 0 0)
(0 0 0)
(0 0 0)
(0 0 0)
(0 0 0)
(0 0 0)
(0 0 0)
(0 0 0)
(0 0 0)
(0 0 0)
(0 0 0)
(0 0 0)
(0 0 0)
(0 0 0)
(0 0 0)
(-0.00378772915993 7.66197550894e-05 0)
(-0.0102961056245 0.000208273891299 0)
(-0.00229736056895 4.64719616195e-05 0)
(-0.0981633896858 0.00234356260044 0)
(-0.0200541255955 0.000405663163015 0)
(-0.0595394100742 0.00142144984142 0)
(-0.0121633936295 0.000246046166871 0)
(0 0 0)
(0 0 0)
(0 0 0)
(-0.00271403901459 5.49007058902e-05 0)
(0 0 0)
(0 0 0)
(0 0 0)
(0 0 0)
(0 0 0)
(0 0 0)
(-0.0200539752926 0.000405660122625 0)
(-0.00447464667118 9.05150071669e-05 0)
(-0.0044746790872 9.05156628916e-05 0)
(0 0 0)
(0 0 0)
(0 0 0)
(0 0 0)
(0 0 0)
(0 0 0)
(0 0 0)
(0 0 0)
(-0.0801481286561 0.00218357579801 0)
(-0.221126857178 0.00597257129989 0)
(-0.0486122900868 0.00132440547146 0)
(-0.909360082389 0.0278460978078 0)
(-0.200329926461 0.00620117900007 0)
(-0.551550396028 0.0168893781145 0)
(-0.12150625592 0.00376120560665 0)
(0 0 0)
(-0.00528623676761 0.000106932187962 0)
(0 0 0)
(-0.0259102624379 0.000825586306305 0)
(0 0 0)
(-0.0138988544964 0.000436687837456 0)
(0 0 0)
(-0.0169508021736 0.000454333489223 0)
(-0.0169508317598 0.000454334282225 0)
(-0.00320625951922 6.48575462351e-05 0)
(-0.200327407196 0.00620110101663 0)
(-0.042718732932 0.00136115954116 0)
(-0.0427186560385 0.00136115709108 0)
(-0.0084300640055 0.000264864016032 0)
(0 0 0)
(0 0 0)
(0 0 0)
(-0.00378776106801 7.66204005392e-05 0)
(0 0 0)
(0 0 0)
(0 0 0)
(-0.376149763791 0.0124346747255 0)
(-1.02246732874 0.0338004961698 0)
(-0.228146412441 0.00754201305326 0)
(-2.5163847933 0.080025840178 0)
(-0.554868807451 0.017483183922 0)
(-1.50827832593 0.0475238597373 0)
(-0.336544443136 0.0106040713017 0)
(0 0 0)
(-0.0295524902663 0.00101443424975 0)
(0 0 0)
(-0.0750934415216 0.0023660952496 0)
(0 0 0)
(-0.0455464631801 0.00143510895203 0)
(0 0 0)
(-0.0839303472248 0.00277455063861 0)
(-0.0839303319916 0.00277455013503 0)
(-0.0159435702278 0.00059277482072 0)
(-0.554866713604 0.0174831179477 0)
(-0.123807759891 0.00390101913836 0)
(-0.123808129441 0.0039010307824 0)
(-0.0276253438536 0.00087043813063 0)
(0 0 0)
(0 0 0)
(0 0 0)
(-0.0149080558351 0.000519199092622 0)
(0 0 0)
(0 0 0)
(0 0 0)
(-8.1141139322 0.218927450318 0)
(-4.81820199993 0.126963694449 0)
(-5.1566186802 0.0948275932439 0)
(-2.44828534157 0.0450227214602 0)
(-0.648061522147 0.0169564071996 0)
(-1.76161038381 0.0460922026292 0)
(-0.393068619909 0.0102845661234 0)
(-3.09019189348 0.0568270562734 0)
(-0.329293148254 0.00605553341388 0)
(-1.46503899835 0.0269413215981 0)
(-0.156200480538 0.00287244734419 0)
(0 0 0)
(-0.0531960961359 0.00139186579774 0)
(0 0 0)
(-0.117767605798 0.0021622639347 0)
(0 0 0)
(-0.0557753183303 0.00102405885264 0)
(0 0 0)
(0 0 0)
(0 0 0)
(0 0 0)
(0 0 0)
(0 0 0)
(0 0 0)
(0 0 0)
(0 0 0)
(0 0 0)
(0 0 0)
(0 0 0)
(0 0 0)
(0 0 0)
(0 0 0)
(0 0 0)
(0 0 0)
(0 0 0)
(0 0 0)
(0 0 0)
(0 0 0)
(0 0 0)
(0 0 0)
(0 0 0)
(0 0 0)
(0 0 0)
(0 0 0)
(0 0 0)
(0 0 0)
(0 0 0)
(0 0 0)
(0 0 0)
(0 0 0)
(0 0 0)
(0 0 0)
(0 0 0)
(0 0 0)
(0 0 0)
(0 0 0)
(0 0 0)
(0 0 0)
(0 0 0)
(0 0 0)
(-1.58977228487 -0.092102561227 0.262124503629)
(-0.766176338541 0.00740078333277 0.0244636794908)
(-1.51649386609 0.0278875504296 0)
(-3.1847394813 0.0585657382966 0)
(-0.159879405176 0.00294010089602 0)
(-0.337351358939 0.00620371980744 0)
(-1.76161177018 0.0460922389033 0)
(-0.648061905968 0.0169564172422 0)
(-0.393069723771 0.0102845950058 0)
(-3.1122425981 0.0572325575094 0)
(-1.48989225781 0.0273983603913 0)
(-0.330933964885 0.00608570719669 0)
(-0.158012095585 0.00290576202294 0)
(-0.14460219503 0.00378348909337 0)
(-0.144602236422 0.00378349017641 0)
(-0.0322650820747 0.000844209772205 0)
(-0.891138794548 0.0163875889171 0)
(-0.0935289320424 0.00171723145118 0)
(-0.092944434722 0.00170649982878 0)
(-0.00704186311934 5.45826027246e-05 0)
(0 0 0)
(0 0 0)
(0 0 0)
(-0.0339217576605 0.000622818072032 0)
(0 0 0)
(0 0 0)
(0 0 0)
(0 0 0)
(0 0 0)
(0 0 0)
(0 0 0)
(0 0 0)
(0 0 0)
(0 0 0)
(0 0 0)
(0 0 0)
(0 0 0)
(0 0 0)
(0 0 0)
(0 0 0)
(0 0 0)
(0 0 0)
(0 0 0)
(0 0 0)
(0 0 0)
(0 0 0)
(0 0 0)
(0 0 0)
(0 0 0)
(0 0 0)
(0 0 0)
(0 0 0)
(0 0 0)
(0 0 0)
(0 0 0)
(0 0 0)
(0 0 0)
(0 0 0)
(0 0 0)
(0 0 0)
(0 0 0)
(0 0 0)
(0 0 0)
(0 0 0)
(0 0 0)
(0 0 0)
(0 0 0)
(0 0 0)
(0 0 0)
(-0.0877056827778 0.00229480260759 0)
(0 0 0)
(0 0 0)
(-0.0580711567506 0.00106621143427 0)
(-0.122605089958 0.00225108222614 0)
(0 0 0)
(0 0 0)
(-0.0531962025136 0.00139186858109 0)
(0 0 0)
(0 0 0)
(-0.120502737468 0.00221248212947 0)
(-0.0574064590695 0.00105400729873 0)
(0 0 0)
(0 0 0)
(0 0 0)
(0 0 0)
(0 0 0)
(-0.0343163995067 0.000630063866199 0)
(0 0 0)
(0 0 0)
(0 0 0)
(0 0 0)
(0 0 0)
(0 0 0)
(0 0 0)
(0 0 0)
(0 0 0)
(0 0 0)
(0 0 0)
(0 0 0)
(0 0 0)
(0 0 0)
(0 0 0)
(0 0 0)
(0 0 0)
(0 0 0)
(0 0 0)
(0 0 0)
(0 0 0)
(0 0 0)
(0 0 0)
(0 0 0)
(0 0 0)
(0 0 0)
(0 0 0)
(0 0 0)
(0 0 0)
(0 0 0)
(0 0 0)
(0 0 0)
(0 0 0)
(0 0 0)
(0 0 0)
(0 0 0)
(0 0 0)
(0 0 0)
(0 0 0)
(0 0 0)
(0 0 0)
(0 0 0)
(0 0 0)
(0 0 0)
(0 0 0)
(0 0 0)
(0 0 0)
(0 0 0)
(0 0 0)
(0 0 0)
(0 0 0)
(0 0 0)
(0 0 0)
(0 0 0)
(0 0 0)
(0 0 0)
(0 0 0)
(0 0 0)
(0 0 0)
(0 0 0)
(0 0 0)
(0 0 0)
(0 0 0)
(0 0 0)
(0 0 0)
(0 0 0)
(0 0 0)
(0 0 0)
(0 0 0)
(0 0 0)
(0 0 0)
(0 0 0)
(0 0 0)
(0 0 0)
(0 0 0)
(0 0 0)
(0 0 0)
(0 0 0)
(0 0 0)
(0 0 0)
(0 0 0)
(0 0 0)
(0 0 0)
(0 0 0)
(0 0 0)
(0 0 0)
(0 0 0)
(0 0 0)
(0 0 0)
(0 0 0)
(0 0 0)
(0 0 0)
(0 0 0)
(0 0 0)
(0 0 0)
(0 0 0)
(0 0 0)
(0 0 0)
(0 0 0)
(0 0 0)
(0 0 0)
(0 0 0)
(0 0 0)
(0 0 0)
(0 0 0)
(0 0 0)
(0 0 0)
(0 0 0)
(0 0 0)
(0 0 0)
(0 0 0)
(0 0 0)
(0 0 0)
(0 0 0)
(0 0 0)
(0 0 0)
(0 0 0)
(0 0 0)
(0 0 0)
(0 0 0)
(0 0 0)
(0 0 0)
(0 0 0)
(0 0 0)
(0 0 0)
(0 0 0)
(0 0 0)
(0 0 0)
(0 0 0)
(0 0 0)
(0 0 0)
(0 0 0)
(0 0 0)
(0 0 0)
(0 0 0)
(0 0 0)
(0 0 0)
(0 0 0)
(0 0 0)
(0 0 0)
(0 0 0)
(0 0 0)
(0 0 0)
(0 0 0)
(0 0 0)
(0 0 0)
(0 0 0)
(0 0 0)
(0 0 0)
(0 0 0)
(0 0 0)
(0 0 0)
(0 0 0)
(0 0 0)
(0 0 0)
(0 0 0)
(0 0 0)
(0 0 0)
(0 0 0)
(0 0 0)
(0 0 0)
(0 0 0)
(0 0 0)
(0 0 0)
(0 0 0)
(0 0 0)
(0 0 0)
(0 0 0)
(0 0 0)
(0 0 0)
(0 0 0)
(0 0 0)
(0 0 0)
(-0.00173714392329 1.90559566991e-05 0)
(-0.00286617241312 3.14410663757e-05 0)
(-0.00105226673648 1.15301354052e-05 0)
(-0.00173795066353 1.90648064016e-05 0)
(-0.0578011418084 0.000844433976724 0)
(-0.0332438700748 0.000485669530578 0)
(-0.00287047698161 3.1488286223e-05 0)
(-0.00175925214974 1.92984774253e-05 0)
(-0.00174444378122 1.91360339884e-05 0)
(-0.00106369702075 1.16553819047e-05 0)
(-0.0051090296175 7.44772474036e-05 0)
(-0.0128966019791 0.000188410272785 0)
(-0.00292076041125 4.25775953637e-05 0)
(-0.000642837935288 7.04384941618e-06 0)
(-0.000142636796614 1.56293221262e-06 0)
(-0.000393503637789 4.31178718173e-06 0)
(-8.70320830495e-05 9.53647651647e-07 0)
(0 0 0)
(-0.00038678446159 4.53137964757e-06 0)
(0 0 0)
(-1.69651213854e-05 1.1607122187e-07 0)
(0 0 0)
(-1.03442359669e-05 7.07727390043e-08 0)
(0 0 0)
(0 0 0)
(0 0 0)
(0 0 0)
(0 0 0)
(0 0 0)
(0 0 0)
(0 0 0)
(0 0 0)
(0 0 0)
(0 0 0)
(0 0 0)
(0 0 0)
(0 0 0)
(0 0 0)
(0 0 0)
(0 0 0)
(0 0 0)
(0 0 0)
(0 0 0)
(0 0 0)
(0 0 0)
(0 0 0)
(0 0 0)
(0 0 0)
(0 0 0)
(0 0 0)
(0 0 0)
(0 0 0)
(0 0 0)
(0 0 0)
(0 0 0)
(0 0 0)
(0 0 0)
(0 0 0)
(0 0 0)
(0 0 0)
(0 0 0)
(0 0 0)
(0 0 0)
(0 0 0)
(0 0 0)
(0 0 0)
(-0.0143925026884 0.000210264328695 0)
(-0.00180960971856 2.63797160719e-05 0)
(-0.00333719080153 4.86481393858e-05 0)
(-0.000387195265335 4.24266365434e-06 0)
(-0.000638705679557 6.99857052781e-06 0)
(-8.67801019411e-05 9.50886587177e-07 0)
(-0.000142922911237 1.56606729257e-06 0)
(-0.0115131655701 0.000168199241103 0)
(-0.00381461083505 5.56077643272e-05 0)
(-0.00245976571621 3.58574119777e-05 0)
(-0.000639495258754 7.00722228381e-06 0)
(-0.000390152491864 4.27506724663e-06 0)
(-0.000142971935233 1.5666044694e-06 0)
(-8.63849345865e-05 9.46556569942e-07 0)
(-0.00102920846384 1.5003360546e-05 0)
(-0.000961413579399 1.40150757327e-05 0)
(-0.000203435323461 2.38334983918e-06 0)
(-0.000143672299302 1.5742786572e-06 0)
(-3.12966323789e-05 3.00266714586e-07 0)
(-3.10704576562e-05 2.98096744984e-07 0)
(-4.25744374535e-06 2.01578211671e-08 0)
(0 0 0)
(0 0 0)
(0 0 0)
(0 0 0)
(0 0 0)
(0 0 0)
(0 0 0)
(0 0 0)
(0 0 0)
(0 0 0)
(0 0 0)
(0 0 0)
(0 0 0)
(0 0 0)
(0 0 0)
(0 0 0)
(0 0 0)
(0 0 0)
(0 0 0)
(0 0 0)
(0 0 0)
(0 0 0)
(0 0 0)
(0 0 0)
(0 0 0)
(0 0 0)
(0 0 0)
(0 0 0)
(0 0 0)
(0 0 0)
(0 0 0)
(0 0 0)
(0 0 0)
(0 0 0)
(0 0 0)
(0 0 0)
(0 0 0)
(0 0 0)
(0 0 0)
(0 0 0)
(0 0 0)
(0 0 0)
(0 0 0)
(0 0 0)
(0 0 0)
(0 0 0)
(0 0 0)
(0 0 0)
(0 0 0)
(-0.00045271621417 6.5995032346e-06 0)
(0 0 0)
(0 0 0)
(-1.03255848739e-05 7.06451327761e-08 0)
(-1.70745419254e-05 1.16819850511e-07 0)
(0 0 0)
(0 0 0)
(-0.000308539093424 3.61469476482e-06 0)
(0 0 0)
(0 0 0)
(-1.6970863592e-05 1.16110508647e-07 0)
(-1.02947588452e-05 7.04342286077e-08 0)
(0 0 0)
(0 0 0)
(0 0 0)
(0 0 0)
(0 0 0)
(0 0 0)
(0 0 0)
(0 0 0)
(0 0 0)
(0 0 0)
(0 0 0)
(0 0 0)
(0 0 0)
(0 0 0)
(0 0 0)
(0 0 0)
(0 0 0)
(0 0 0)
(0 0 0)
(0 0 0)
(0 0 0)
(0 0 0)
(0 0 0)
(0 0 0)
(0 0 0)
(0 0 0)
(0 0 0)
(0 0 0)
(0 0 0)
(0 0 0)
(0 0 0)
(0 0 0)
(0 0 0)
(0 0 0)
(0 0 0)
(0 0 0)
(0 0 0)
(0 0 0)
(0 0 0)
(0 0 0)
(0 0 0)
(0 0 0)
(0 0 0)
(0 0 0)
(0 0 0)
(0 0 0)
(0 0 0)
(0 0 0)
(0 0 0)
(0 0 0)
(0 0 0)
(0 0 0)
(0 0 0)
(0 0 0)
(0 0 0)
(0 0 0)
(0 0 0)
(0 0 0)
(0 0 0)
(0 0 0)
(0 0 0)
(0 0 0)
(0 0 0)
(0 0 0)
(0 0 0)
(0 0 0)
(0 0 0)
(0 0 0)
(0 0 0)
(0 0 0)
(0 0 0)
(0 0 0)
(0 0 0)
(0 0 0)
(0 0 0)
(0 0 0)
(0 0 0)
(0 0 0)
(0 0 0)
(0 0 0)
(0 0 0)
(0 0 0)
(0 0 0)
(0 0 0)
(0 0 0)
(0 0 0)
(0 0 0)
(0 0 0)
(0 0 0)
(0 0 0)
(0 0 0)
(0 0 0)
(0 0 0)
(0 0 0)
(0 0 0)
(0 0 0)
(0 0 0)
(0 0 0)
(0 0 0)
(0 0 0)
(0 0 0)
(0 0 0)
(0 0 0)
(0 0 0)
(0 0 0)
(0 0 0)
(0 0 0)
(0 0 0)
(0 0 0)
(0 0 0)
(0 0 0)
(0 0 0)
(0 0 0)
(0 0 0)
(0 0 0)
(0 0 0)
(0 0 0)
(0 0 0)
(0 0 0)
(0 0 0)
(0 0 0)
(0 0 0)
(0 0 0)
(0 0 0)
(0 0 0)
(0 0 0)
(0 0 0)
(0 0 0)
(0 0 0)
(0 0 0)
(0 0 0)
(0 0 0)
(0 0 0)
(0 0 0)
(0 0 0)
(0 0 0)
(0 0 0)
(0 0 0)
(0 0 0)
(0 0 0)
(0 0 0)
(0 0 0)
(0 0 0)
(0 0 0)
(0 0 0)
(0 0 0)
(0 0 0)
(0 0 0)
(0 0 0)
(0 0 0)
(0 0 0)
(0 0 0)
(0 0 0)
(0 0 0)
(0 0 0)
(0 0 0)
(0 0 0)
(0 0 0)
(0 0 0)
(0 0 0)
(0 0 0)
(0 0 0)
(0 0 0)
(0 0 0)
(0 0 0)
(0 0 0)
(0 0 0)
(0 0 0)
(0 0 0)
(0 0 0)
(0 0 0)
(0 0 0)
(0 0 0)
(0 0 0)
(0 0 0)
(0 0 0)
(0 0 0)
(0 0 0)
(0 0 0)
(0 0 0)
(0 0 0)
(0 0 0)
(0 0 0)
(0 0 0)
(-8.09183281301 0.17359197519 0)
(-6.28735015558 0.134359917966 0)
(-7.5411731353 0.138678336136 0)
(-4.51690959404 0.0830636687075 0)
(-5.54830695943 0.118566653594 0)
(-6.52860093145 0.120057648621 0)
(-9.17931797748 0.197266380927 0)
(-6.28720050142 0.134356719875 0)
(-2.9699792676 0.0634681003735 0)
(-3.52282762962 0.0647830072858 0)
(-3.57561072581 0.0657536615626 0)
(-4.32109488029 0.0923412788018 0)
(-4.32125440041 0.0923446877277 0)
(-5.09613483359 0.0937153260859 0)
(-1.80133676649 0.0384943504316 0)
(-3.81344295213 0.0814928180456 0)
(-1.66537847617 0.0306254626393 0)
(-2.77409582213 0.0510142103876 0)
(-3.36531957149 0.0719164752031 0)
(-1.47764643428 0.0271731659286 0)
(-2.04118894142 0.0436199626133 0)
(-0.850883831221 0.0181832853162 0)
(-0.401940214238 0.00858941412139 0)
(-0.794281557343 0.0146064336171 0)
(-0.289437680372 0.00532261164261 0)
(-0.354702736573 0.007579954895 0)
(-0.689920473649 0.0126872863989 0)
(-0.964204600609 0.0206049365528 0)
(-1.40289590404 0.0299797170379 0)
(-1.80136030257 0.0384948533949 0)
(-2.16400192249 0.0397948940596 0)
(-0.789037712409 0.0145100019774 0)
(-2.62092907516 0.0560089396679 0)
(-0.964190163407 0.0206046280315 0)
(-1.15359139929 0.021213958752 0)
(-0.662676793564 0.0141613235176 0)
(-0.189863513088 0.0040573604797 0)
(-0.225781050705 0.0041519986189 0)
(-0.376721574078 0.0069277180277 0)
(-0.276244918934 0.00590332075169 0)
(-0.455456731532 0.00973305567076 0)
(-0.538221332901 0.00989761640267 0)
(-0.0411152274092 0.000880053219321 0)
(-0.147863748392 0.00315983055063 0)
(-0.0384498067987 0.000705955003275 0)
(-0.105988573948 0.00194599583972 0)
(-0.130490838404 0.00278857354998 0)
(-0.0342427956575 0.000628712467844 0)
(-0.0465888879283 0.000997214496658 0)
(-0.0102541341156 0.000155423363566 0)
(0 0 0)
(-0.0101199849545 0.000138508508722 0)
(0 0 0)
(0 0 0)
(-0.00687599886094 5.32969624375e-05 0)
(-0.0116196082686 0.00017612004876 0)
(-0.0320206722171 0.000685388296383 0)
(-0.0698461092601 0.00149260296917 0)
(-0.0825984176328 0.00151654250165 0)
(-0.0164942338142 0.000225750506387 0)
(-0.101626943504 0.00217175558136 0)
(-0.0220069782866 0.000471049616139 0)
(-0.0266763213585 0.000489788742778 0)
(-0.00589519041969 4.73180685619e-05 0)
(0 0 0)
(0 0 0)
(0 0 0)
(0 0 0)
(0 0 0)
(-0.00535243294574 4.14875603425e-05 0)
(0 0 0)
(0 0 0)
(0 0 0)
(0 0 0)
(0 0 0)
(0 0 0)
(0 0 0)
(0 0 0)
(0 0 0)
(0 0 0)
(0 0 0)
(0 0 0)
(0 0 0)
(0 0 0)
(0 0 0)
(0 0 0)
(0 0 0)
(0 0 0)
(0 0 0)
(0 0 0)
(0 0 0)
(0 0 0)
(0 0 0)
(0 0 0)
(0 0 0)
(0 0 0)
(0 0 0)
(0 0 0)
(0 0 0)
(0 0 0)
(0 0 0)
(0 0 0)
(0 0 0)
(0 0 0)
(0 0 0)
(0 0 0)
(0 0 0)
(0 0 0)
(0 0 0)
(0 0 0)
(0 0 0)
(0 0 0)
(0 0 0)
(0 0 0)
(0 0 0)
(0 0 0)
(0 0 0)
(0 0 0)
(0 0 0)
(0 0 0)
(0 0 0)
(0 0 0)
(0 0 0)
(0 0 0)
(0 0 0)
(0 0 0)
(0 0 0)
(0 0 0)
(0 0 0)
(0 0 0)
(0 0 0)
(0 0 0)
(0 0 0)
(0 0 0)
(0 0 0)
(0 0 0)
(0 0 0)
(0 0 0)
(0 0 0)
(0 0 0)
(0 0 0)
(0 0 0)
(0 0 0)
(0 0 0)
(0 0 0)
(0 0 0)
(0 0 0)
(0 0 0)
(0 0 0)
(0 0 0)
(0 0 0)
(0 0 0)
(0 0 0)
(0 0 0)
(0 0 0)
(0 0 0)
(0 0 0)
(0 0 0)
(0 0 0)
(0 0 0)
(0 0 0)
(0 0 0)
(0 0 0)
(0 0 0)
(0 0 0)
(0 0 0)
(0 0 0)
(0 0 0)
(0 0 0)
(0 0 0)
(0 0 0)
(0 0 0)
(0 0 0)
(0 0 0)
(0 0 0)
(0 0 0)
(0 0 0)
(0 0 0)
(0 0 0)
(0 0 0)
(0 0 0)
(0 0 0)
(0 0 0)
(0 0 0)
(0 0 0)
(0 0 0)
(0 0 0)
(0 0 0)
(0 0 0)
(0 0 0)
(0 0 0)
(0 0 0)
(0 0 0)
(0 0 0)
(0 0 0)
(0 0 0)
(0 0 0)
(0 0 0)
(0 0 0)
(0 0 0)
(0 0 0)
(0 0 0)
(0 0 0)
(0 0 0)
(0 0 0)
(0 0 0)
(0 0 0)
(0 0 0)
(0 0 0)
(0 0 0)
(0 0 0)
(0 0 0)
(0 0 0)
(0 0 0)
(0 0 0)
(0 0 0)
(0 0 0)
(0 0 0)
(0 0 0)
(0 0 0)
(0 0 0)
(0 0 0)
(0 0 0)
(0 0 0)
(0 0 0)
(0 0 0)
(0 0 0)
(0 0 0)
(0 0 0)
(0 0 0)
(0 0 0)
(0 0 0)
(0 0 0)
(0 0 0)
(0 0 0)
(0 0 0)
(0 0 0)
(0 0 0)
(-1.5714898554 0.0159593202266 0.0358964126643)
(-2.42296310066 -0.0168673638079 0.141737179771)
(-2.21385258121 0.0407116223037 0)
(-0.822787502027 0.0151306434327 0)
(-2.98473823384 0.023933684375 0.0821225768349)
(-1.18331627271 0.0217605840467 0)
(-1.29443858475 -0.0077172385158 0.0725095868309)
(-1.82401608358 0.0367932861911 0.00435877495366)
(-3.81354411628 0.0814949799114 0)
(-2.84644032669 0.0523445890091 0)
(-1.69745445522 0.03121532357 0)
(-3.44761826235 0.0651899637495 0.0172292186961)
(-2.04123992821 0.043621052195 0)
(-1.49102148294 0.0274191262667 0)
(-0.688656553234 0.012211612068 0.00499285719756)
(-0.189866741935 0.00405742947977 0)
(-0.388740112782 0.00714873283805 0)
(-0.233760292528 0.00429873281526 0)
(-0.276254714169 0.0059035300747 0)
(-0.559603166774 0.010290817446 0)
(-0.546477185419 0.00237470704429 0.0188389177127)
(-0.850924955597 0.0181841641392 0)
(-0.401947287135 0.00858956526834 0)
(-0.803140298043 0.0147693413502 0)
(-0.300717160198 0.00553003553631 0)
(-0.964212230597 0.0206050996047 0)
(-0.354718560148 0.00758029304292 0)
(-0.706326927879 0.0129889927427 0)
(-1.80136281474 0.0384949070796 0)
(-3.81346176472 0.0814932200684 0)
(-2.75557157385 0.050673558889 0)
(-1.70923367726 0.0314319374687 0)
(-3.36534741113 0.0719170701327 0)
(-2.04121908669 0.0436206068141 0)
(-1.4976971773 0.0275418888887 0)
(-1.40289887736 0.0299797805773 0)
(-1.80136429567 0.038494938727 0)
(-2.17398429031 0.0399784647236 0)
(-0.789318104614 0.0145151582473 0)
(-2.62096949573 0.0560098034505 0)
(-0.964185814088 0.0206045350871 0)
(-1.14429499178 0.0210430025489 0)
(-0.850911158046 0.0181838692872 0)
(-0.401943890951 0.00858949269229 0)
(-0.809164151508 0.0148801169498 0)
(-0.292490739943 0.00537875585438 0)
(-0.964203282318 0.020604908381 0)
(-0.35471252832 0.00758016414346 0)
(-0.710163851449 0.0130595518145 0)
(-0.662686368479 0.0141615281324 0)
(-0.189866283379 0.0040574196805 0)
(-0.373861542652 0.00687512350529 0)
(-0.230113526082 0.00423167063622 0)
(-0.455453028792 0.00973297654367 0)
(-0.276252845233 0.00590349013576 0)
(-0.543279420239 0.00999063205469 0)
(-0.313029544063 0.00668940377434 0)
(-1.09256595068 0.0233480031927 0)
(-0.478889764925 0.00880653906237 0)
(-0.484744313693 0.00891420123474 0)
(-0.584806396284 0.0124972424768 0)
(-0.584810290857 0.0124973257034 0)
(-0.258981702257 0.00476254170461 0)
(-0.147864202324 0.00315984025111 0)
(-0.115156842384 0.00246088789603 0)
(-0.228822069955 0.00420792141529 0)
(-0.0497554289949 0.000913531093225 0)
(-0.276246532779 0.00590335523936 0)
(-0.0598216482366 0.00128045586594 0)
(-0.11888783384 0.00218283180374 0)
(-0.147866268134 0.00315988439723 0)
(-0.115158479171 0.00246092287398 0)
(-0.229434793883 0.00421918909651 0)
(-0.04981854277 0.000914689889303 0)
(-0.276249287905 0.00590341411608 0)
(-0.0598222372062 0.00128046847258 0)
(-0.120851388183 0.00221888350668 0)
(-0.0698465263153 0.0014926118816 0)
(-0.0102543537117 0.000155426692014 0)
(-0.023539952299 0.000432203656817 0)
(-0.0237879433535 0.000436756879324 0)
(-0.0282578197982 0.000604846108156 0)
(-0.0282581101175 0.00060485232231 0)
(-0.0563809059255 0.00103517770156 0)
(0 0 0)
(-0.0411141758334 0.000880030710805 0)
(-0.0100210515557 0.000137154443711 0)
(-0.0167562384325 0.000229336467149 0)
(-0.0116193179257 0.000176115647991 0)
(-0.0220074620001 0.000471059969813 0)
(0 0 0)
(0 0 0)
(0 0 0)
(0 0 0)
(0 0 0)
(0 0 0)
(0 0 0)
(0 0 0)
(0 0 0)
(0 0 0)
(-0.00621755734261 4.81932773468e-05 0)
(0 0 0)
(-0.00904939518707 0.000137162964942 0)
(0 0 0)
(0 0 0)
(0 0 0)
(0 0 0)
(0 0 0)
(0 0 0)
(0 0 0)
(0 0 0)
(0 0 0)
(0 0 0)
(0 0 0)
(0 0 0)
(0 0 0)
(0 0 0)
(0 0 0)
(0 0 0)
(0 0 0)
(0 0 0)
(0 0 0)
(0 0 0)
(0 0 0)
(0 0 0)
(0 0 0)
(0 0 0)
(0 0 0)
(0 0 0)
(0 0 0)
(0 0 0)
(0 0 0)
(0 0 0)
(0 0 0)
(0 0 0)
(0 0 0)
(0 0 0)
(0 0 0)
(0 0 0)
(0 0 0)
(0 0 0)
(0 0 0)
(0 0 0)
(0 0 0)
(0 0 0)
(0 0 0)
(0 0 0)
(0 0 0)
(0 0 0)
(0 0 0)
(0 0 0)
(0 0 0)
(0 0 0)
(0 0 0)
(0 0 0)
(0 0 0)
(0 0 0)
(0 0 0)
(0 0 0)
(0 0 0)
(0 0 0)
(0 0 0)
(0 0 0)
(0 0 0)
(0 0 0)
(0 0 0)
(0 0 0)
(0 0 0)
(0 0 0)
(0 0 0)
(0 0 0)
(0 0 0)
(0 0 0)
(0 0 0)
(0 0 0)
(0 0 0)
(0 0 0)
(0 0 0)
(0 0 0)
(0 0 0)
(0 0 0)
(0 0 0)
(0 0 0)
(0 0 0)
(0 0 0)
(0 0 0)
(0 0 0)
(0 0 0)
(0 0 0)
(0 0 0)
(0 0 0)
(0 0 0)
(0 0 0)
(0 0 0)
(0 0 0)
(0 0 0)
(0 0 0)
(0 0 0)
(0 0 0)
(0 0 0)
(0 0 0)
(0 0 0)
(0 0 0)
(0 0 0)
(0 0 0)
(0 0 0)
(0 0 0)
(0 0 0)
(0 0 0)
(0 0 0)
(0 0 0)
(0 0 0)
(0 0 0)
(0 0 0)
(0 0 0)
(0 0 0)
(0 0 0)
(0 0 0)
(0 0 0)
(0 0 0)
(0 0 0)
(0 0 0)
(0 0 0)
(0 0 0)
(0 0 0)
(0 0 0)
(0 0 0)
(0 0 0)
(0 0 0)
(0 0 0)
(0 0 0)
(0 0 0)
(0 0 0)
(0 0 0)
(0 0 0)
(0 0 0)
(0 0 0)
(0 0 0)
(0 0 0)
(0 0 0)
(0 0 0)
(0 0 0)
(0 0 0)
(0 0 0)
(0 0 0)
(0 0 0)
(0 0 0)
(0 0 0)
(0 0 0)
(0 0 0)
(0 0 0)
(0 0 0)
(0 0 0)
(0 0 0)
(0 0 0)
(0 0 0)
(0 0 0)
(0 0 0)
(0 0 0)
(0 0 0)
(0 0 0)
(0 0 0)
(0 0 0)
(0 0 0)
(0 0 0)
(0 0 0)
(0 0 0)
(0 0 0)
(0 0 0)
(0 0 0)
(0 0 0)
(0 0 0)
(0 0 0)
(0 0 0)
(0 0 0)
(0 0 0)
(0 0 0)
(0 0 0)
(0 0 0)
(0 0 0)
(-0.0320211056996 0.000685397574885 0)
(-0.0698481341459 0.00149264624074 0)
(-0.084769698983 0.00155640816185 0)
(-0.0172623327374 0.000236263193598 0)
(-0.101628447569 0.00217178772306 0)
(-0.0274970742489 0.000504858119134 0)
(-0.0220077959484 0.000471067117829 0)
(-0.0411158063478 0.000880065611243 0)
(-0.147867707587 0.00315991515815 0)
(-0.109070365864 0.00200257886584 0)
(-0.0395864452344 0.000726824174214 0)
(-0.130493333098 0.00278862686129 0)
(-0.0465903783242 0.000997246397922 0)
(-0.0348716484939 0.000640258476606 0)
(-0.00589537175828 4.7319524086e-05 0)
(0 0 0)
(0 0 0)
(0 0 0)
(0 0 0)
(-0.00561277718434 4.35055300057e-05 0)
(0 0 0)
(-0.0102544687127 0.000155428435102 0)
(0 0 0)
(-0.0102979630347 0.000140944429189 0)
(0 0 0)
(-0.0116197900945 0.00017612280472 0)
(0 0 0)
(-0.00712695137004 5.52421353094e-05 0)
(-0.0411156277827 0.000880061789138 0)
(-0.147866735113 0.00315989437651 0)
(-0.106332489347 0.0019523102745 0)
(-0.0397784413367 0.000730349305295 0)
(-0.130491098662 0.00278857911166 0)
(-0.0465901077419 0.000997240606228 0)
(-0.0350073093016 0.000642749267429 0)
(-0.0320206295017 0.000685387382079 0)
(-0.0698472725626 0.00149262782881 0)
(-0.0835435889327 0.00153389625356 0)
(-0.0166902145483 0.000228432822551 0)
(-0.101627002321 0.00217175683827 0)
(-0.0220073829694 0.000471058278197 0)
(-0.0268243066347 0.00049250581615 0)