/*--------------------------------*- C++ -*----------------------------------*\
| =========                 |                                                 |
| \\      /  F ield         | OpenFOAM: The Open Source CFD Toolbox           |
|  \\    /   O peration     | Version:  v1906                                 |
|   \\  /    A nd           | Web:      www.OpenFOAM.com                      |
|    \\/     M anipulation  |                                                 |
\*---------------------------------------------------------------------------*/
FoamFile
{
    version     2.0;
    format      ascii;
    class       volScalarField;
    location    "1";
    object      p;
}
// * * * * * * * * * * * * * * * * * * * * * * * * * * * * * * * * * * * * * //

dimensions      [1 -1 -2 0 0 0 0];


internalField   nonuniform List<scalar> 
28582
(
17110.4625695
17108.7017584
12212.4547429
12210.5709736
7314.45876794
7312.22017903
3641.78727048
3638.36429084
-9.39778814156
-8.41106745885
-26.981990171
3639.93504116
588.209611736
592.022016729
3637.44697593
3638.37021442
588.711101308
1801.19502951
1801.82263825
17111.548694
17107.2803843
17106.3092012
12213.5999345
12209.050952
12208.0095913
7315.7137288
7310.52199971
3643.24149933
3636.48771829
-8.34254472811
-26.9667357793
-26.9885467315
3641.65569718
3642.60416009
592.347894021
592.847548679
1808.31247364
3635.83052064
3637.70152699
3637.01525857
1801.56539173
590.64218016
1802.45133139
1802.28881486
-8.96816791748
-8.90045914387
-23.2825582267
-23.2623547009
-8.52719920512
-23.2644655926
1804.19586052
1804.14762282
603.770690395
607.943573768
1807.37051568
592.213421781
1805.4118016
1803.3220664
1802.37152678
606.877946728
602.186709861
1803.76424713
588.203642389
1805.20610235
1802.07467779
1801.52715393
601.140515655
605.213231264
1803.89456103
592.658683087
1801.74771494
1800.65988573
592.213445714
600.62420204
1800.88529644
603.778210592
589.81226812
1801.86802603
1802.4246808
600.602278935
592.97815949
1801.45081824
603.858418789
1803.67045361
589.71906521
-9.84038124724
-23.3174375856
-10.3447904508
-9.99166587694
-23.3380296538
-23.3181292788
-8.83717643165
-23.3326503271
-23.3087165521
-8.72877097175
-23.3497219954
-8.37738222385
-23.3336481343
1806.49906359
1807.04214456
602.377569
604.955716509
1806.9339238
1808.7444663
593.772496197
1805.62122558
1804.47668232
604.962162767
603.389384718
1806.73883674
1806.2915868
590.570856688
607.496577674
592.434987078
1805.01823454
1806.34374374
603.994775598
1806.58827692
590.312299113
1799.62613517
589.475330693
603.287727649
1800.15471352
600.310471105
1799.68759748
592.305450145
1799.30245998
1798.12820819
603.234213043
601.370926436
1799.97001021
1800.15249328
589.409618775
1802.00219319
1801.47166464
603.706950397
590.773748286
601.399280708
1800.80412296
592.66954184
604.871595382
590.783628745
1799.25797115
1800.14573484
601.93926498
1800.92239455
589.525597888
7309.38928185
3635.23388708
-8.15185410501
-26.9432116749
3641.00771165
588.313082346
3636.71401783
3635.56326099
586.826289817
586.236541177
590.906251817
3634.32940125
3633.92342598
586.272571388
593.544459075
-9.25189100294
-8.18079436428
-7.23764225183
-23.3273828077
-23.3039569079
-23.2964197061
-6.3685791677
-5.52035370148
1803.50330102
1803.99851784
607.291739137
603.759886738
1806.49390494
592.479820798
1804.93212809
1797.60528764
1797.89043719
600.63320389
604.920872643
1798.68090136
1800.59674778
590.489913226
1798.14511054
1798.48246069
606.183004617
602.979668226
1801.46229968
590.58470587
1800.55555731
1797.17516891
1797.37581436
601.574844393
607.570631785
1798.56687415
585.85822984
1800.86960554
1796.85209401
1796.33432638
606.541152851
600.85311518
1799.26864003
592.302432469
1797.24861748
1796.13037793
1796.80010775
601.268335383
605.863484089
1797.54645051
588.762680835
1798.46811131
3669.28363279
3663.8960546
3661.88118767
3658.18700356
-8.74772589757
-10.9444846081
-11.1347356659
-12.1734735693
-12.6193339254
-27.0536068869
-27.0238679107
-27.0658608795
-27.0234748805
-27.013140066
-26.9291474318
3670.46784811
3669.47220491
615.578329719
614.431837964
3671.75535257
614.813455793
3667.76191234
3665.67438677
614.032042633
610.418528825
3670.35045258
3666.52090707
3666.60351713
614.344800373
613.030221987
610.87321284
609.834004501
3664.83419659
3660.35479688
611.99331001
606.063564585
608.335592798
604.167175988
3663.48861808
3661.19107998
609.514111716
609.259492396
605.843197144
3658.50264862
3659.94514077
3657.28317411
607.965989026
604.46887101
604.575413119
601.926772251
603.57085936
601.294929293
-8.17862053219
-8.30598180873
-8.18828170151
-23.2920318239
-23.2522554668
-23.2850935352
-23.2616882413
-23.2225306806
-23.2061274473
-23.2452043204
-23.2217272987
-8.71836236115
-10.0289104415
-9.67361552531
-10.1252734295
-10.8630417528
-23.3163937786
-23.2940810005
-23.3060102786
-23.3259461872
-11.631336492
-11.7186842716
-12.0122084558
-23.2641188725
-23.2662552983
-23.3172803719
-23.3132205204
-11.5875636087
-12.1975412022
-23.3584956731
-23.3937129289
-23.3632784948
-12.1588772495
-12.4592449688
-12.1304141174
-23.3541956477
-23.3015147821
-23.2816828637
-23.2275920329
1834.17051446
1835.68097217
614.447233021
615.489001212
1835.28191375
614.222450554
1834.56960573
1833.74701263
1834.1696069
614.904263674
613.702895246
1834.81756526
1833.23844134
613.943147818
1836.18088062
1834.89858316
615.455382459
614.921427691
1835.58011261
1835.44592904
615.487495494
1831.52599146
1833.32611259
613.150027009
613.078761426
1832.440615
1832.34130551
612.113430745
1830.53153964
1830.10192074
611.669331474
610.069457316
1831.27465421
1829.55540825
610.845154381
1832.9339061
1833.94772563
614.264025144
613.276021088
1834.32878853
1832.75083374
612.993328824
1832.96436541
1834.2871793
613.695977483
611.613051119
1834.44932764
1832.7017482
612.37890899
1831.68687776
1830.38817895
612.316524711
610.819671609
1831.63512847
1830.38289381
612.192276376
1831.54863348
1829.83570467
610.471796072
610.515430671
1831.17867497
1830.2734047
611.484228167
1829.9336138
1833.5148883
611.057022989
610.919028863
1832.00813687
1831.82487255
609.603625843
1827.07284054
1823.9377462
610.603424595
607.257866909
1829.29434673
606.202466538
1824.22504011
1828.24430384
1828.76075106
609.819811735
607.580468066
1830.23666677
1827.51991553
608.545454815
1825.49304544
1821.62716119
606.474178198
608.021549124
1825.45391552
605.250422379
1823.2596117
1828.07188578
1829.1859214
609.616454695
608.769769572
1829.18755612
1828.02422572
608.172963504
1827.95191554
1828.69009733
609.730770987
607.676066016
1829.10685242
1827.63505485
607.951861326
1826.9235188
1825.56955561
607.286327424
607.508594524
1826.77811601
1826.10869397
606.976529216
1825.49405137
1827.77667642
607.503639248
607.4415504
1826.8057542
1827.02000347
606.372460176
1823.57005345
1821.62443265
608.008473339
606.837240512
1825.07583178
603.930164751
1822.79955795
1824.86028905
1824.84673998
607.532805711
606.732711195
1826.29849929
1824.67675689
605.816625138
1823.12329965
1820.48315106
607.118884714
608.142541562
1823.48087679
603.674597364
1822.32414832
1821.65442624
1823.85655579
606.38652367
606.596627526
1823.77646865
1823.56685202
601.854506706
1820.05638556
607.816624148
1822.82867831
17109.3254904
17107.6000438
17106.2537763
17105.8484172
17105.8403006
17105.7673004
12211.2379508
12209.381357
12207.8905699
12207.4999794
12207.6413219
12207.7711946
18326.9949226
18327.3496672
17102.8840885
17102.591578
17102.4591055
17102.5800409
17102.977062
17103.1623333
18329.3748111
18328.5837613
17103.6336748
17103.0617085
17102.8033484
17102.8678261
17103.2317106
17103.3758359
17107.4859039
17106.1010319
17104.987352
17104.0591132
17103.5353699
17103.4332519
17103.6997269
17103.7817442
17109.894439
17107.8474184
17106.3451966
17105.1461259
17104.4158938
17104.1825364
17104.3500293
17104.3698984
17105.3792254
17105.0228294
17105.0970655
17105.0619052
13426.5519075
13428.3152984
12204.139656
12204.0599911
12203.9103571
12204.0511538
12204.6349016
12205.0826345
13429.9436282
13429.8089219
12205.2154908
12204.600553
12204.2417784
12204.3462256
12204.9188939
12205.2977841
12209.1655055
12207.7470804
12206.5039862
12205.5440645
12204.9589387
12204.9004574
12205.3601556
12205.6603374
12211.779593
12209.6265887
12207.9879764
12206.6926038
12205.8791037
12205.6715427
12206.0156003
12206.2433232
12206.9447372
12206.5877798
12206.8290257
12206.9968871
8526.57005975
8528.64055466
7304.20759051
7304.28223853
7304.45866389
7304.68635429
7305.74520289
7307.06652797
8530.53546114
8530.39700158
7305.27245913
7304.78000109
7304.72495207
7305.01645461
7306.10479806
7307.29299591
7310.3068957
7308.82553418
7307.30914995
7306.1297763
7305.48421408
7305.53608917
7306.46670203
7307.5381044
7317.4709271
7313.6659637
7311.1448825
7309.12126352
7307.53478505
7306.54903625
7306.35543454
7307.12018101
7308.08544728
7313.0117464
7310.74412916
7309.00271697
7307.87609305
7307.47194149
7308.12756581
7309.01325198
7308.60138223
7309.12120211
7309.97445511
3628.65982164
3628.74299885
3628.97396332
3629.54398849
3630.08075437
3629.47848983
3630.2575212
3634.4391712
3633.42239453
3632.73089163
3631.91492912
3630.30264227
3629.91206032
3629.5209613
3629.54762415
3631.33046302
3634.87261519
3653.2383382
3642.45488634
3636.97807792
3634.41917924
3632.63726097
3631.22908787
3630.18060554
3629.87033568
3631.15482935
3634.64353488
3645.61495159
3640.54503437
3637.26539295
3634.82387984
3632.92505285
3631.36526331
3630.61973098
3631.48754109
3634.46547892
3639.96544356
3636.72791348
3634.6308823
3632.93383428
3631.94796603
3632.68065283
3635.66477842
3633.6529768
3634.22384121
3637.48833423
-4.87541710677
-4.19296719599
-5.48165262193
-6.35641506916
-6.53540713176
-5.49415485958
-3.67118878997
1.07682628978
-11.5993637524
-8.78305870963
-6.35259718513
-5.4581959732
-5.58896514819
-6.24109618782
-6.45263681954
-5.82787707062
-4.22769531786
1.1326146873
-11.280278906
-9.12476821703
-7.40301757696
-7.206131902
-7.23585270626
-7.12294564177
-6.63781848677
-5.92065130977
-4.21764763144
0.72101009391
-9.71470052723
-8.83188618965
-8.28358618332
-7.83905757384
-7.45491912963
-6.83547666193
-6.01077197558
-4.12630886617
0.784339920247
-9.30869681771
-8.07109589452
-7.7345687911
-7.37184750631
-6.399669161
-4.43781784238
0.690979854289
-6.74089016614
-4.72885044366
0.996747266488
-27.0115339909
-27.0699982225
-27.0516173103
-27.0365777518
-26.9992820514
-26.9706742264
-26.9500074824
-26.9674373885
-26.9469549946
-26.980768673
-26.9865668226
-27.0412826053
-27.0043488237
-26.9879056844
-26.9647515787
-26.9485559061
-26.9566666908
-26.9417819145
-26.9408385845
-26.9728046203
-26.9559646662
-27.0046899378
-26.9959431173
-26.9805657344
-26.9706427477
-26.968933078
-26.9645071166
-26.9399993312
-26.9228673897
-26.9491810236
-26.9931048978
-26.9797336215
-26.9787032925
-26.9823202561
-26.969866623
-26.9628577237
-26.9414962787
-26.9245795984
-26.9517647499
-26.9701792876
-26.9875559434
-26.9756330087
-26.9552878757
-26.9379842685
-26.9218879759
-26.9439801422
-26.9407543053
-26.9356390492
-26.9839912715
18327.3471417
18328.0016907
18328.0512902
15877.4060013
15877.9163759
15878.4803032
15878.6010141
18327.3404388
18327.8424642
18327.7482138
15878.0982025
15878.1340578
15878.591386
15878.5494551
18329.0443749
18330.7163669
18330.0828956
15879.9547853
15879.7676086
15881.6124992
15880.9537797
18328.1709088
18329.5182717
18329.1724564
15879.4300898
15879.0299577
15880.3881443
15880.0028881
13427.7751192
13428.0155739
13428.6871008
10976.7705029
10978.1581068
10978.024929
10979.0370239
13428.5687118
13428.9548243
13429.1013285
10978.7751855
10978.9530358
10979.3841382
10979.4403725
13429.8932651
13431.8786392
13431.4702475
10980.4991725
10980.4905886
10982.4016567
10981.948496
13429.6298651
13431.0257072
13430.8055403
10980.4681635
10980.1658501
10981.5791727
10981.2816483
8528.09995228
8527.98318003
8529.12438236
6077.43118113
6079.05508606
6079.60099998
6080.39110022
8528.75176395
8529.38025408
8529.36646122
6079.58599242
6079.75782184
6080.44938203
6080.30853477
8530.67090174
8532.54338188
8532.37395501
6081.5623056
6081.65572779
6083.59919564
6083.20814678
8530.04555318
8531.88789384
8531.46828952
6081.43243528
6081.0035057
6082.5623664
6082.00854111
3627.26761023
3629.70914085
590.416989562
589.417013799
3629.18365281
3630.56583992
3630.83011761
587.371972665
593.69411061
585.880437156
592.448676811
3628.70452035
3630.23630679
3629.4737345
589.195855778
591.784811857
587.71473904
591.522472231
3629.22586186
3629.24555268
3629.32054979
587.182787259
589.863863512
586.04102874
589.401906123
3629.99928553
3629.52164032
3629.50982767
585.206502308
587.690382232
584.429598035
588.800633726
3629.79109673
3629.35563744
3629.3461839
582.759939342
588.962297018
584.689264651
590.126783818
3629.50103597
3629.48220883
3629.73290112
584.966363949
591.884892499
586.763353487
592.29821632
3632.11647659
3630.81914415
3632.54060954
588.800117825
599.987854788
589.969259715
599.88428174
3634.72397236
3634.59482848
3634.72440343
600.871234142
604.684739242
600.46211849
604.219133096
3652.53453044
3644.08631402
597.607873488
587.265521431
598.197906815
592.211137904
3632.2319735
3638.42354887
3635.88506429
579.075657893
589.373478089
585.07044216
591.313966119
3632.47961988
3634.61156153
3634.03790968
586.352808414
592.398164289
587.843461998
592.676877928
3630.79975913
3633.13167181
3632.03248636
588.205673003
591.680150516
588.755145971
591.330032005
3629.98268367
3631.59871765
3630.86183196
586.342787735
589.57945886
587.46342798
589.833555472
3629.5991337
3630.61778824
3630.08829408
584.636245269
589.423362269
586.160237526
589.660934013
3629.46386991
3629.91190653
3629.71557783
585.858559047
590.406861594
586.854683756
590.474099405
3630.25610737
3629.7034072
3630.18275851
587.492051575
592.783907514
588.249525606
592.635949357
3632.9625321
3631.11847715
3632.74903541
590.585743186
600.117306753
590.955532398
600.389541913
3634.7948716
3634.59873702
3634.88079805
600.837755772
604.068583127
601.306643286
603.803000751
3647.45004557
3653.40084481
3649.00340239
599.48691983
593.954323024
598.113065146
596.673916377
3638.89841406
3644.39947363
3640.83595302
587.502862264
592.704611776
592.480328059
593.808143502
3635.41048881
3638.93428442
3637.24450642
589.469813456
592.685349243
590.731823554
592.611542816
3633.33573986
3635.96606254
3634.74015397
589.492158874
591.329564314
589.770585981
591.28339995
3631.82176546
3633.93419378
3632.9629177
587.920611791
590.208931608
588.669612291
590.474144764
3630.60327372
3632.16278057
3631.42042704
586.895810242
590.060269986
588.125976273
590.187470804
3629.86668873
3630.83085573
3630.41493613
587.456989936
590.781154062
587.858818684
590.559719061
3630.32286172
3630.3145202
3630.55687745
588.443398001
592.555822647
588.471304175
592.419134147
3632.80328755
3631.18416069
3632.67049784
591.046274673
600.334419113
591.058074404
599.932942815
3634.90572351
3634.19642793
3634.79126941
601.371848343
603.451980186
600.834654466
602.47975808
597.575326587
596.763735237
3642.71775212
3644.39732182
593.279044945
594.486947217
594.986013582
3638.75179907
3642.34065848
3640.43483838
591.313298676
593.079837698
592.60706549
592.667619004
3635.85178123
3638.81374843
3637.29230936
590.368400986
591.747839059
589.890800003
591.960967997
3633.76723802
3636.02557308
3634.86563712
589.100404191
591.015995858
589.728717234
591.613133693
3632.07026752
3633.87833298
3632.98676239
588.646641612
590.516992602
589.39205134
590.765816084
3630.79681515
3632.23446588
3631.68206689
587.99466555
590.648120344
588.29477087
590.886694274
3630.87170603
3631.37951127
3631.38359881
588.417936692
592.532406157
588.580271189
592.75472769
3632.92037149
3631.9779729
3633.3438044
591.053456189
599.993606682
591.224399804
600.321789973
3634.92563522
3634.86422239
3635.46391747
600.879417609
602.251763364
601.130325484
602.9778023
3638.15848937
3639.07673024
589.49061752
592.173942717
591.911311591
3635.56174417
3637.64436473
3636.6117222
589.338260589
591.777793042
588.636450478
592.138598507
3633.71649509
3635.61191783
3634.73049452
589.309618882
590.786048863
589.722935409
590.667264755
3632.31021942
3633.95288131
3633.36020618
588.006595249
590.848706943
587.491925567
591.113182298
3632.14218846
3632.86302464
3632.95512912
588.350463312
592.924149462
588.353272356
593.084234497
3634.04860853
3633.51354838
3635.09480625
590.925286849
600.571965976
590.912433371
601.016596293
3636.11653047
3636.66181737
3636.84840872
601.250514255
603.393973359
601.76966352
604.818282065
3634.52253143
591.160857488
3633.66796092
587.48636901
593.490922454
3635.9123052
590.854012017
601.612260118
3637.32263534
602.207732321
605.089516352
-23.2460613622
-23.2713444044
-23.2436331921
-23.2805186177
-5.98425719955
-6.63045414446
-23.3266516897
-23.3989994425
-23.3274744042
-23.4075931182
-4.16265603596
-5.50702235464
-5.03783526608
-23.3329503518
-23.323115676
-23.3713350129
-23.3046853815
-4.82100290307
-4.63834025831
-4.83290126823
-23.3461556938
-23.3472359263
-23.2938672631
-23.3173639946
-6.14990768011
-5.13083375312
-5.58872456268
-23.3577212705
-23.3485933495
-23.340734158
-23.3456039241
-6.63069708222
-6.08398827892
-6.45724724502
-23.3425233783
-23.3062873143
-23.3282750892
-23.3085838646
-6.12929322155
-6.48313089685
-6.26769483994
-23.2868868531
-23.2867500286
-23.3130769991
-23.2979584063
-4.68444723577
-5.73082217529
-5.11220695161
-23.3061774834
-23.3370127312
-23.3183846219
-23.3373391674
-1.81791958413
-3.93049962854
-1.84461820254
-23.3665778277
-23.3572886459
-23.3685022319
-23.3377658183
6.08647554097
1.19828643737
6.33846901554
-23.3794526445
-23.3333290384
-23.3656398097
-23.3267718582
-10.6366766566
-11.4480544502
-10.2263096045
-23.290832051
-23.2944790243
-23.3027668581
-23.3009359684
-7.28682957587
-8.73588304694
-7.71330674823
-23.33427636
-23.3793643401
-23.3250244941
-23.3329423907
-5.78007800109
-6.93009414882
-6.6981077753
-23.3612526122
-23.3344423185
-23.3532870592
-23.3357940078
-5.39395654716
-6.41475558594
-6.58590567023
-23.3128393841
-23.3297817832
-23.3449604559
-23.3440257991
-5.878152382
-6.59164838289
-6.78531601812
-23.3370347385
-23.3382999303
-23.3424968917
-23.3265665993
-6.50223634293
-6.7315916581
-6.72948374537
-23.3243036255
-23.3158361586
-23.3160770553
-23.2710393206
-6.23360741082
-6.43181511398
-6.25630434279
-23.2886281036
-23.2951300253
-23.2895834434
-23.2813313528
-5.31754068779
-5.79338399895
-5.32163829877
-23.3173974558
-23.3502386761
-23.3146817877
-23.3516963703
-2.03787473671
-4.23172418112
-2.14681383927
-23.361271917
-23.3403498488
-23.3749858177
-23.3483770416
6.13059918532
0.847260209404
5.60365383518
-23.3597639568
-23.3264824041
-23.3747403678
-23.3330132282
-10.1783935071
-11.3356423205
-10.5712002926
-23.2732326439
-23.2807530794
-23.23924484
-23.2550389806
-8.05028195524
-9.40210121069
-8.64275711898
-23.2906123365
-23.3210140633
-23.2780213031
-23.2995787421
-7.22035786921
-7.98399862056
-7.81027136115
-23.3325594235
-23.3319444527
-23.3162508329
-23.2948754229
-7.24630771071
-7.61464504601
-7.63674866221
-23.3155122762
-23.3264719463
-23.3047782582
-23.2932703518
-7.21709792015
-7.50458882533
-7.48078068752
-23.3081496513
-23.3087585522
-23.3027246169
-23.2770623527
-6.88677904811
-7.22355092927
-7.03221659406
-23.2799407537
-23.2821344569
-23.2834328126
-23.2691408083
-6.32348550151
-6.64769078392
-6.39993189998
-23.2767175744
-23.2885700865
-23.2784453077
-23.2804066005
-5.32242486669
-5.92747087815
-5.26291612762
-23.3073391039
-23.3392332434
-23.3087630978
-23.3335944334
-2.20650969813
-4.06731311995
-2.04695314638
-23.3725172336
-23.357561869
-23.3590895537
-23.341052863
5.20822155184
0.813521073867
5.16602199936
-23.3651625263
-23.3302701253
-23.364352196
-23.3250300154
-9.1567473564
-10.0006578215
-23.2876433211
-23.3018203948
-23.2793426175
-8.57236897026
-9.73650132762
-9.53265402387
-23.3004169628
-23.293412397
-23.2987097413
-23.2635047658
-8.0467709183
-9.0674480609
-8.46096773129
-23.2871730495
-23.2845952337
-23.2690447025
-23.2738996248
-7.67764121218
-7.94762421729
-7.78566322812
-23.2786728659
-23.2772590425
-23.2790015292
-23.2777457083
-7.14076210168
-7.59812439922
-7.38413370485
-23.2759917451
-23.2786336077
-23.277559996
-23.2803567968
-6.48560691289
-7.03134355121
-6.65686997537
-23.2785833653
-23.2880419194
-23.288840421
-23.2880897991
-5.30664836133
-6.11277261285
-5.41859445239
-23.3004000603
-23.3283545075
-23.3107842484
-23.3368993916
-2.08004069233
-4.19731317652
-2.10092342713
-23.3585331031
-23.3513921063
-23.3585225711
-23.341630768
5.14161664513
0.725607665765
5.04737538137
-23.3558935289
-23.3224951126
-23.362004742
-23.3262563457
-8.70164805273
-8.77011181718
-23.2845096523
-23.2666069608
-23.3035154887
-23.2721611951
-7.83548146344
-8.29355031352
-8.03625845205
-23.2762161345
-23.2786642707
-23.265687501
-23.2722096377
-7.63013405679
-7.88486304552
-7.94357942331
-23.2817371275
-23.2859393739
-23.2980110186
-23.3166256556
-6.99748553767
-7.72865591436
-7.24984449832
-23.2811107736
-23.2873387494
-23.315468498
-23.3261149018
-5.71279297183
-6.6644533578
-6.02030389306
-23.309858328
-23.3287003728
-23.3380396935
-23.350091353
-2.28904981517
-4.69347143077
-2.42800114408
-23.3547739715
-23.3535256431
-23.3644182187
-23.3395256323
5.12293412507
0.720467127263
5.45575070733
-23.3644585951
-23.3293038653
-23.3699693932
-23.3410031828
-7.5061947264
-23.3143482557
-6.00088206736
-23.3482070899
-23.3549127541
-23.3221767856
-23.3410091732
-2.34844045077
-23.3622187341
-23.3513575438
-23.3627317924
-23.3272252164
6.1216484966
-23.3723455796
-23.3440316855
-23.372954005
-23.3402209449
1789.53051231
1791.75990018
603.142083089
597.703635076
1792.01452877
581.918972419
1793.68672953
1791.46875326
1793.75240315
598.691905222
604.441277295
1793.21644044
1795.94373733
582.347133859
1792.26656804
1791.26154191
599.568238289
604.023600197
1794.32424502
591.960743805
1792.75955764
1792.34896438
1792.61037415
605.000437689
599.892106027
1793.78159222
588.555234725
1794.67332998
1793.20790709
1793.61247049
604.59484343
600.559070388
1795.10303871
1795.0747885
592.014417445
1793.21501369
1793.92973294
600.63054718
606.047003325
1794.34946635
1796.79085007
588.524150156
1792.71557735
1792.46123273
598.865911946
605.25254744
1795.57986158
592.810771197
1792.90837133
1791.99561962
1792.72144642
604.744383493
599.52989694
1793.16486802
587.414413222
1794.73283096
1793.18858577
1793.31647152
605.781250654
600.418433416
1795.85921676
1794.39230611
592.727430885
1792.55639171
1793.24309164
600.025457652
606.045875816
1793.49926426
1795.81893132
587.442624921
1792.50105134
1791.90757315
598.873058767
604.967353478
1794.70180687
590.595880881
1792.91506291
1792.23979678
1792.88666981
603.792187221
600.016911279
1793.39687562
586.018172191
1794.50316105
1792.710173
1792.04407801
605.828413529
600.046878907
1795.13628573
1793.2585922
590.738961381
1792.29617629
1792.31131536
600.245152477
605.671569425
1793.46156551
1794.68763998
585.553764114
1792.17254484
1792.28975037
599.785393591
605.173854305
1794.55005293
588.687558145
1793.53829503
1791.68172099
1791.8495227
604.901382846
599.942599879
1793.44061332
583.446084951
1794.59226125
1792.49451612
1791.87868689
605.648872067
599.691844546
1794.75273643
1793.22793297
588.942319954
1791.87265865
1792.34815559
599.799494886
604.720112167
1793.39917574
1794.39943427
584.002503345
1792.16027674
1791.30666981
600.087147693
605.276545049
1794.5123374
588.711804555
1793.35659513
1791.53979726
1791.82355165
605.217408381
599.562795982
1792.92651014
584.588478095
1794.4002023
1792.40446235
1791.84484635
604.575891579
598.581377276
1794.54084275
1792.83862367
589.118857627
1791.88764017
1792.64628504
599.306385098
603.044667568
1793.00944789
1794.02697226
585.390817551
1792.15146979
1791.15545231
599.547964239
604.325133403
1793.93463275
590.552635078
1792.42320942
1791.74326583
1792.54248643
604.355120753
599.680083837
1792.90927389
587.138834953
1793.73649806
1792.52548842
1791.77792426
603.767935612
598.72020085
1794.11683833
1792.71978701
590.817454208
1792.06957625
1793.3176107
599.681282361
602.917290259
1793.27583953
1794.07266521
587.318985663
1794.31156874
1792.26018619
599.946765429
604.201856296
1794.64350374
594.750656386
1793.99405881
1795.13843566
1797.25921093
605.626386268
603.872309067
1797.21248016
593.763758535
1796.76351733
1794.78622157
1793.27145246
604.504134365
600.983421449
1795.05309233
1795.02751804
595.110864055
1795.36120909
1797.47706093
604.232147053
606.320497944
1797.49011133
1797.35490981
593.978665506
1799.63913235
1798.3686032
611.276953571
610.239004993
1799.92683745
607.036204252
1800.27320359
1798.27201961
1798.38605282
616.963501516
610.354282123
609.134324288
1797.18160041
1800.27831657
1799.64588211
1798.5945626
610.726749107
611.692600401
1800.06063965
1800.17710111
607.099830266
1798.17158374
1797.45187585
610.437524211
617.455619049
1799.93510009
609.1023607
1797.03599812
1811.30634196
1817.28209064
605.031916648
609.099711376
1813.09477835
596.077830336
1819.66643185
1803.8997898
1798.9585112
608.386622706
603.729181469
1807.52011162
1804.18872569
585.671890907
1812.21032827
1817.40693871
608.783361369
606.810632438
1816.17650013
596.925586057
1819.52846552
1806.01712717
1805.83296918
604.853739405
610.712905855
1806.45073249
1812.79662426
587.998141246
1797.60697753
1795.89474268
599.489995688
608.793133682
1796.41664477
1802.56333273
588.430296499
1795.85613906
1794.80862682
605.114736754
600.038486211
1797.48371685
1796.92667064
582.903919691
1799.80119519
1802.24024988
609.579770834
602.719083494
1805.57919868
1802.55547634
590.226600914
1797.70959095
1799.51100611
601.416894846
606.862731741
1798.60204977
1801.96740313
585.123934523
1796.29980712
1794.84067783
601.22255994
605.902689911
1796.09091513
1798.02071905
591.877600701
1795.69976124
1794.92583956
606.086729032
601.295370466
1797.36064148
1796.57245995
587.960327773
1797.29413145
1798.31059405
606.110684103
600.990772794
1799.43245863
1798.66084978
592.428180361
1796.60632841
1797.84453106
601.607414017
605.252398746
1797.62258677
1799.51056363
589.209958868
1795.57560267
1794.29305317
601.009162775
606.127872305
1795.2263979
1797.68739301
592.708487578
1794.35250202
1793.89208984
606.2345763
600.499399837
1796.36698538
1794.99634224
587.81059823
1796.37261463
1796.45731675
605.751146533
600.076489312
1798.34778833
1796.96555682
592.691489478
1795.34619471
1795.92518984
600.374232235
603.997191382
1795.8184731
1797.75647545
588.304615046
1793.85514603
1792.85474172
600.183951003
605.559757432
1793.76173472
1796.04220182
590.708105728
1792.93501091
1792.84867155
605.664576401
599.867736209
1795.30232618
1793.79231778
585.810569593
1794.87362679
1794.69169289
605.035815347
599.688319209
1796.94169921
1795.3674302
590.868432659
1793.8228781
1794.49468699
599.937246329
603.627668007
1794.50310992
1796.18517879
586.120814088
1793.02507197
1792.21795305
599.575362968
604.480362689
1793.51413931
1794.95749742
589.589383509
1792.43765433
1792.5893506
604.194591542
598.769250812
1794.71586726
1793.18354495
585.464185923
1793.79589146
1793.31327586
604.357488691
599.219815694
1795.5965234
1794.05689062
589.900593107
1792.95567808
1793.45628989
599.102081205
602.566114085
1793.65264364
1794.76861676
586.017913568
1792.80625797
1791.96747194
598.739682215
602.719476921
1793.05502231
1794.12805735
590.164228972
1792.17466237
1792.87203526
602.578467769
598.194910776
1794.11008574
1792.76999584
586.843734585
1793.26884899
1792.68748174
602.587392238
598.263647333
1794.43270499
1792.9110522
590.380538051
1792.37692088
1792.8301059
598.355941125
601.193052263
1793.00154887
1793.61080405
587.324029742
1792.88004366
1792.25679782
598.754473408
601.883039943
1792.98093368
1793.80224582
591.670717087
1792.66310363
1793.67054809
602.420834301
599.08167933
1794.30859723
1793.75967755
589.307160731
1793.16132429
1792.24553421
601.500600414
597.581877195
1793.88481287
1792.53436681
591.816235588
1792.68081272
1793.66974151
598.801121694
600.784719901
1793.74840394
1793.73093965
589.509118942
1795.35430335
1793.68542606
601.088597998
603.183976281
1795.40902539
1795.41077046
595.636597642
1795.88049771
1797.6822775
606.104291938
604.425452653
1797.60349181
1797.94109985
594.921693343
1795.6393641
1793.57892927
602.746777671
599.904843085
1795.44396791
1795.07261846
595.766729437
1796.26381256
1798.08554835
604.401241673
604.828921331
1798.10284789
1797.37875216
595.322131145
1799.71712995
1798.85945421
611.699459557
610.543772301
1800.29132832
1800.21992524
607.10442691
1798.08099499
1797.41319549
617.23289135
609.75379085
1799.94651641
608.757077178
1796.90113175
1799.86238026
1798.80612804
610.148530436
610.826406085
1800.27130526
1800.08688779
607.07580647
1798.39943831
1798.6582563
609.563925089
615.712796135
1799.86389663
608.917093985
1797.06728444
1815.87791583
1818.0665632
607.784705849
609.490793251
1817.27952465
599.080412234
1820.6179002
1812.5650582
1807.80739306
610.969368839
607.023339335
1814.5315414
1812.03046575
593.070731164
1816.31378256
1817.92101617
609.498580772
607.586322076
1817.74915434
599.642787535
1820.47676491
1813.54744334
1811.84207063
607.521615793
610.305050235
1812.67307934
1816.16764643
594.087058028
1805.08958865
1804.83971729
604.072013728
609.978215022
1804.63963471
1809.76929045
593.642641291
1802.56838334
1800.79059317
607.518797144
602.717813512
1803.95403567
1802.64569185
589.299526023
1806.47554765
1808.91848092
610.002483857
604.43699647
1810.75972296
1807.87513449
594.956363618
1803.9946207
1804.51828975
603.154698806
606.266014233
1803.72370215
1806.78678919
590.721631153
1800.63160375
1799.22115341
601.474361649
605.740143673
1799.77233658
1802.42092295
593.387926743
1799.50798821
1798.57016089
604.524459495
600.339409869
1800.35605415
1799.15376708
589.72342761
1801.75801455
1802.10229205
605.481228883
601.363504982
1803.49682337
1801.93194226
593.744397848
1799.73249542
1800.52417138
600.770319351
603.437464727
1799.62307846
1801.8434713
590.420992869