/*--------------------------------*- C++ -*----------------------------------*\
| =========                 |                                                 |
| \\      /  F ield         | OpenFOAM: The Open Source CFD Toolbox           |
|  \\    /   O peration     | Version:  v1906                                 |
|   \\  /    A nd           | Web:      www.OpenFOAM.com                      |
|    \\/     M anipulation  |                                                 |
\*---------------------------------------------------------------------------*/
FoamFile
{
    version     2.0;
    format      ascii;
    class       volScalarField;
    location    "1";
    object      p_rgh;
}
// * * * * * * * * * * * * * * * * * * * * * * * * * * * * * * * * * * * * * //

dimensions      [1 -1 -2 0 0 0 0];


internalField   nonuniform List<scalar> 
28582
(
19559.4572662
19557.69661
19559.4422248
19557.5602241
19559.431211
19557.1946698
19560.2497812
19556.8322112
207.623132629
222.702603196
-0.00448488921957
19558.4064636
18909.601574
19089.0775454
19555.9169824
19556.8290653
18835.4435807
19556.0916237
19556.7310944
19560.5431109
19556.27857
19555.3085996
19560.584042
19556.0461888
19555.0062704
19560.6836586
19555.497789
19561.6917554
19554.9492444
226.706341151
0.0130894057085
-0.00972257937215
19560.1062003
19561.0515416
19050.1810078
19148.4309852
19563.3579085
19554.2955865
19556.1550144
19555.4668484
19556.5845346
18995.0058646
19557.4888177
19557.4084037
214.105017503
213.9742463
0.0166356475007
0.0383719826012
220.556289512
0.0343565905833
19559.234523
19559.2777573
18930.3469492
19160.4846809
19562.474631
19128.0236355
19560.3873312
19558.311532
19557.4460793
19097.3311748
18885.8023895
19558.7198885
18874.3455857
19560.2235204
19557.1095487
19556.4909998
18825.462505
19056.2758186
19558.8439087
19074.0694037
19556.6295004
19555.7069053
19047.3578832
18828.6082011
19555.8222827
18994.2670072
18849.4371437
19556.7850245
19557.4436651
18860.5629175
19090.2623704
19556.322804
19054.1167468
19558.6191707
18868.8785304
199.918727769
0.152517391128
187.425000963
192.407750769
-0.0370583717026
0.0134353615695
217.523646327
-0.000559332096987
-0.0070337769667
220.754876501
0.151519193372
225.709345159
0.0470051267055
19561.5908496
19562.1114435
19033.4061958
19173.8196063
19561.9119009
19563.8051671
19183.83622
19560.6091969
19559.5357394
19144.037407
19001.3117882
19561.7302282
19561.2691752
18999.8153912
19175.3752592
19148.7964704
19560.1141782
19561.3843416
19000.0764513
19561.6424609
18986.2997254
19554.6204945
18822.8101819
18991.0972645
19555.2932649
18790.9884181
19554.6108614
19038.5625777
19554.2783891
19553.066206
18963.1901514
18836.4380044
19554.7830784
19554.9317483
18838.2912035
19557.0131906
19556.4670616
19021.0508218
18899.403437
18883.6228625
19555.8564023
19051.2504602
19049.2224003
19027.3914567
19554.2865686
19555.0947093
18866.6667603
19555.7851496
18850.5043708
19554.3641284
19553.6867849
225.999236857
0.0355670011872
19559.4685062
18907.6955775
19555.1624196
19554.0064481
18769.1734361
18780.28304
18928.5241295
19552.7634562
19552.3601166
18616.3119571
18851.9177146
209.793884657
228.400264604
244.480923714
-0.0223109307582
0.227471676451
0.0755808798591
261.525533034
276.559237652
19558.6135853
19559.0774915
19138.304999
18926.4626902
19561.5350855
19118.3659231
19559.9025115
19552.5373517
19552.7049753
18794.1893329
19013.4501213
19553.4632723
19555.4966906
18985.8983812
19553.0588948
19553.3698984
19031.2943332
18839.5242377
19556.4145911
18969.391469
19555.415635
19551.9443237
19552.2497148
18761.5149721
19025.8793764
19553.2871102
18699.056568
19555.8127462
19551.8370333
19550.94164
18965.7616562
18673.98048
19554.207744
18906.922854
19551.8047686
19550.9566564
19551.6156449
18691.5695797
18906.2904026
19552.2898353
18638.8771599
19553.26986
19587.7670667
19582.3692417
19580.3504868
19576.6603527
224.27212789
179.043113574
176.722044513
155.258536738
138.384137952
-0.0761002574956
-0.046365310078
-0.0878756002612
-0.0459748804712
-0.0329354069236
0.0500627350289
19588.9561521
19587.9500481
19502.8128725
19480.616763
19590.2428076
19490.1104285
19586.2242047
19584.1453702
19469.3045418
19479.6693142
19588.8466574
19585.006396
19585.0943338
19478.9742566
19521.2896589
19489.8410216
19511.8362511
19583.3202749
19578.8305889
19531.1995795
19459.5408765
19484.0919644
19410.2894944
19581.9642219
19579.671171
19485.4750345
19513.9688128
19502.5971602
19576.9674471
19578.4266681
19575.7545572
19503.97545
19444.941086
19471.7936406
19417.0656215
19459.7406049
19430.3388935
231.02072954
228.422299446
230.132047078
0.0655270624348
0.0496785332274
0.0152495974377
0.0371412004444
0.0762272380286
0.0926300256969
0.0535908567102
0.0771322616419
224.242742312
196.904798934
205.651331821
199.987546067
183.592267685
-0.00561001474996
0.0063947038758
0.126787810616
-0.00029648768612
166.775794658
166.032560891
160.853487261
0.0369253120504
0.0355237098889
0.0189908234526
0.0101916209451
171.370235202
154.344248279
-0.0114308141839
0.0195817257467
0.0854691290538
150.811117216
142.737049377
150.360163418
-0.00165941510011
0.0731711000938
0.175872829667
0.18710197826
19589.3870178
19590.9526646
19494.2270763
19508.3998261
19590.5694404
19484.3401081
19589.7965054
19588.9452264
19589.3898994
19490.5746028
19477.0179548
19590.0715437
19588.4161743
19478.507099
19591.4793668
19590.1625173
19498.9504757
19505.3189788
19590.8793714
19590.7995092
19509.0864345
19586.706609
19588.4998191
19463.8520962
19484.4140293
19587.5688729
19587.5441222
19464.3657014
19585.7229107
19585.3216767
19481.5937304
19474.9984421
19586.5171663
19584.7443346
19468.466093
19588.3046837
19589.1739855
19490.2564311
19488.1412588
19589.6448244
19588.0181831
19490.3103157
19588.4113326
19589.675803
19504.0435846
19517.4098473
19589.8230642
19588.1529284
19500.2881904
19587.0894413
19585.6489651
19490.9169437
19501.5679553
19586.9694069
19585.6789951
19501.7856268
19586.9870514
19585.0673237
19526.7116569
19520.7558557
19586.5486838
19585.5453815
19512.7271579
19585.3497408
19588.8821288
19543.0318392
19529.4674843
19587.3414304
19587.2454033
19503.195285
19582.3377592
19579.1635954
19544.0962905
19457.9207658
19584.5627513
19416.0286564
19579.3962044
19583.5323788
19583.9594573
19539.0546983
19506.7950883
19585.59479
19582.7186218
19496.6133599
19580.6917517
19576.7895755
19459.4060322
19522.663717
19580.6130344
19404.2263461
19578.4318471
19583.3295004
19584.4057825
19496.679959
19484.6208514
19584.4598748
19583.2437747
19487.6538984
19583.1506218
19583.9777728
19513.0998601
19481.0721607
19584.4166808
19582.8193553
19480.1000286
19582.1862033
19580.7682619
19508.8976865
19505.2829083
19582.0117279
19581.3213818
19495.4538137
19580.6919887
19582.9950688
19538.7237817
19513.5545526
19582.0250842
19582.2187097
19483.7911702
19578.7687597
19576.7928721
19545.8325734
19470.6476785
19580.2693416
19410.288805
19577.9775904
19580.0589953
19580.0454462
19541.1851236
19508.013772
19581.5331779
19579.8754631
19500.7179269
19578.3220059
19575.6658484
19461.9784654
19523.608188
19578.679583
19418.5590569
19577.5158246
19576.8498237
19579.055262
19497.3529561
19503.6205592
19578.9751749
19578.7655583
19458.6191853
19575.2517257
19512.8353235
19577.9986141
19558.3211517
19556.596162
19555.2496489
19554.8480463
19554.8395984
19554.766073
19558.223975
19556.3685372
19554.8776593
19554.4957365
19554.6348543
19554.7607215
19551.4600381
19551.8436695
19551.8772273
19551.5878729
19551.4571098
19551.5792935
19551.9769831
19552.1624048
19553.8546023
19553.0647428
19552.6264089
19552.0557418
19551.7984839
19551.8636251
19552.2277872
19552.3713378
19556.4787795
19555.0935566
19553.9805355
19553.0533861
19552.5303683
19552.4286896
19552.6953172
19552.7768507
19558.8882728
19556.841541
19555.3399277
19554.1414259
19553.4107815
19553.1777319
19553.3453238
19553.3647413
19554.375765
19554.0191971
19554.092999
19554.0567353
19548.8668176
19550.7886084
19551.1226712
19551.0489584
19550.9031868
19551.0469008
19551.6332672
19552.0793544
19552.309212
19552.2739112
19552.1970072
19551.5841626
19551.2273985
19551.3330781
19551.9059132
19552.282372
19556.1434072
19554.7256354
19553.4854447
19552.5280277
19551.9445223
19551.8870199
19552.3467352
19552.6447863
19558.7612777
19556.6088822
19554.971509
19553.6772207
19552.8646378
19552.6581311
19553.0020015
19553.2279593
19553.931758
19553.5735633
19553.8134851
19553.9788347
19546.9109218
19549.1049706
19549.1683512
19549.2437546
19549.4247727
19549.6579091
19550.7253182
19552.0490628
19550.9014314
19550.8580122
19550.2343669
19549.7449055
19549.6928859
19549.9860689
19551.0775076
19552.2656592
19555.2723783
19553.7921512
19552.2778189
19551.1002936
19550.4560168
19550.5087927
19551.4394401
19552.5099127
19562.4379797
19558.6348379
19556.114728
19554.0922364
19552.5067894
19551.5230243
19551.3301243
19552.09509
19553.0596436
19557.9846394
19555.7187932
19553.9779774
19552.8506573
19552.4450712
19553.100339
19553.9854643
19553.5747604
19554.0917621
19554.9416068
19547.1073873
19547.1966994
19547.4256254
19547.9307096
19548.4796406
19547.9159235
19548.6772658
19552.8690226
19551.8705209
19551.1826703
19550.3887722
19548.7753972
19548.3666085
19547.967684
19547.9959957
19549.7863181
19553.3352845
19571.6992212
19560.9221092
19555.4491812
19552.8953229
19551.1086176
19549.694442
19548.6415103
19548.3321724
19549.6238149
19553.1203997
19564.0874571
19559.0239767
19555.7443735
19553.3051804
19551.4068081
19549.8448453
19549.0973015
19549.9691268
19552.9566512
19558.4206649
19555.1944353
19553.1122327
19551.4153012
19550.4269364
19551.158835
19554.1474095
19552.0862758
19552.6577747
19555.9415964
290.415944499
302.562277744
278.126029173
263.108803666
256.94366966
276.23827085
307.585693558
390.914585945
166.901388528
221.020618053
264.048183233
279.745311682
278.453717796
263.493351822
256.771139594
269.221909421
297.297794145
392.075966515
169.264151756
210.466589455
243.069570917
244.372564
242.432556034
244.299467746
254.066494655
266.853233019
296.173716865
384.253630542
202.354849382
216.167310484
226.028344249
233.090039718
239.96468436
251.572689617
265.94543595
298.700785212
385.91698072
204.014756879
231.064345392
235.324333826
241.666642199
258.967229303
292.954304906
384.277942036
253.02689982
286.327760314
389.922465685
-0.0339463671268
-0.0890148441051
-0.0705594098053
-0.0578251822007
-0.0201737169825
0.00828054843384
0.0277280616285
0.0109264403157
0.0389343626111
0.0890077539752
-0.00858312010438
-0.0622894080347
-0.0247873668468
-0.00900481994609
0.0139460784531
0.0289804390654
0.0208637543417
0.035883471354
0.0446691111059
0.0895036220723
0.0225941627719
-0.0266654319935
-0.0183807346838
-0.00301201388402
0.00692598080577
0.00866260600782
0.0130802519943
0.0375694761475
0.0578652508293
0.0890837159829
-0.0155867624343
-0.0021975609349
-0.00115694001302
-0.00471758299664
0.00775614830795
0.0147372151029
0.0361062791918
0.0561365496173
0.0861029108674
0.00764171375751
-0.0100487929382
0.0019296973632
0.0222778260071
0.0396704858445
0.0597276836504
0.0943323336746
0.0379615408554
0.0515687915775
0.0893081687008
19551.8317823
19552.4851751
19552.5288435
19550.7719461
19551.3760211
19551.8650389
19552.0460427
19551.8347711
19552.3214388
19552.2372789
19551.5690101
19551.615599
19552.0601661
19552.0316248
19553.5218278
19555.2028863
19554.5718239
19553.3868984
19553.1996827
19555.071185
19554.4208681
19552.6612839
19554.0106205
19553.6681304
19552.8778922
19552.5079535
19553.8704233
19553.4918767
19550.2192308
19550.3408374
19551.1302978
19548.1031973
19549.6052379
19549.2896397
19550.4851047
19551.0437028
19551.4184357
19551.5789441
19550.2334965
19550.4235768
19550.8545344
19550.9175224
19552.3275874
19554.3236477
19553.9240156
19551.8385126
19551.9352799
19553.8309194
19553.4012193
19552.1073171
19553.4978816
19553.2876257
19551.932854
19551.6416528
19553.0518436
19552.7596321
19548.5412621
19548.2764095
19549.5680136
19546.7637581
19548.4905261
19548.934005
19549.8065009
19549.2150005
19549.8422623
19549.8288213
19549.0419355
19549.2152794
19549.9019402
19549.7652142
19551.1109235
19552.9814035
19552.8274486
19550.9469176
19551.068759
19553.0524313
19552.6692343
19550.506223
19552.3551828
19551.9398208
19550.8747912
19550.456916
19552.0280503
19551.4795121
19545.694525
19548.1064361
18718.1161373
18809.9283673
19547.6322557
19548.9830366
19549.2559342
18497.9811442
18701.681645
18561.9589072
18776.5029795
19547.1541323
19548.6750294
19547.9243291
18471.2474337
18793.3180136
18516.6465833
18784.1661596
19547.6330854
19547.6688394
19547.7156108
18541.7051783
18856.2926918
18484.448658
18826.0499589
19548.3888638
19547.9314503
19547.9023934
18581.2539342
18855.0726277
18535.2412115
18861.0538049
19548.2232028
19547.7481314
19547.7409157
18563.9853834
18836.052961
18578.6211396
18856.7272371
19547.9146702
19547.8914021
19548.130192
18524.7728602
18776.9915119
18578.8732991
18809.6503822
19550.5355945
19549.2198068
19550.9368107
18497.9172148
18748.3518353
18559.7694002
18754.9094948
19553.1694185
19552.9910756
19553.1417693
18577.0689365
18481.7531728
18562.8282244
18441.5688771
19571.0060341
19562.5471892
19205.0393253
19045.8681354
19210.5336409
19143.3235275
19550.6616978
19556.8815796
19554.355585
18617.4896926
18870.4022892
18783.2872669
18986.2671487
19550.941852
19553.0783504
19552.4859032
18613.9714016
18827.6217679
18709.1083248
18925.7420173
19549.2794163
19551.5754903
19550.4667526
18566.0637145
18814.5571447
18679.8752808
18917.6650462
19548.4447188
19550.0368649
19549.2820457
18516.9419681
18837.5430372
18659.4240017
18917.4973171
19548.0410174
19549.0470429
19548.499366
18550.0700404
18882.4486304
18648.7291986
18898.7175759
19547.9073315
19548.3356103
19548.1214057
18605.3135964
18866.4975743
18629.7937729
18858.6452458
19548.7237955
19548.133373
19548.5968002
18601.6520233
18829.2239609
18602.6784326
18813.2393388
19551.420456
19549.5557996
19551.1750103
18592.1516448
18766.9200238
18588.4007426
18770.8306142
19553.2634341
19553.0263729
19553.2999209
18575.6662748
18443.8804577
18602.6835976
18491.2530142
19565.9155502
19571.8639925
19567.466454
19266.4142036
19210.5384634
19266.6420933
19280.8654052
19557.3689692
19562.8717858
19559.2947457
18884.8619032
19045.9653531
19008.030933
19104.7518126
19553.8920971
19557.416296
19555.7007499
18776.4801978
18967.5314778
18854.7949018
19017.8756425
19551.8157442
19554.4434511
19553.1901179
18734.9473867
18950.4251037
18786.9435355
18983.3941287
19550.2917908
19552.4059856
19551.4061244
18710.5276646
18941.4724574
18758.1483836
18962.1732705
19549.0649221
19550.6287668
19549.8577353
18690.8964113
18914.1280938
18726.5987063
18924.5944032
19548.33174
19549.29355
19548.8477104
18660.3626674
18871.0815377
18677.9863639
18876.8248483
19548.7995997
19548.7783978
19548.9908745
18622.1021324
18817.8855152
18630.1532703
18816.0876249
19551.2835878
19549.6516684
19551.1150024
18593.8986244
18778.4916525
18578.7424216
18758.597655
19553.3678504
19552.6600472
19553.2463681
18609.8720637
18491.7107963
18573.5144602
18471.4761199
19265.9148817
19280.4307129
19561.2020479
19562.8521978
19043.5659791
19136.7665896
19195.1041418
19557.2429551
19560.8022175
19558.8774749
18913.1825267
19052.6674024
19027.5277654
19132.3329764
19554.3451487
19557.272402
19555.7358123
18837.4804476
19010.1668136
18919.8485736
19056.7168214
19552.2623643
19554.5073377
19553.3211543
18794.3688449
18980.9866063
18825.0214571
19004.7747179
19550.5657796
19552.3678454
19551.4433083
18757.244304
18939.2799752
18782.4241153
18960.6793222
19549.2923663
19550.7225657
19550.1346638
18697.783821
18887.3380365
18722.3843701
18902.4305071
19549.3710895
19549.8620171
19549.8330496
18641.9445691
18822.1095986
18652.2298007
18835.7576621
19551.4204636
19550.4574642
19551.7984302
18587.5352907
18766.6779678
18598.1346197
18774.6149183
19553.4029766
19553.3371061
19553.928852
18579.9984047
18465.7965484
18587.843962
18485.5185483
19556.6271628
19557.5302891
18937.8044308
19068.9829629
19081.845114
19554.056037
19556.1071017
19555.0577357
18825.7262021
19015.9241159
18822.3996686
19037.0814007
19552.2166308
19554.0668762
19553.1557469
18796.8190815
18970.5845496
18808.9853226
18985.644841
19550.8080907
19552.3950884
19551.7936669
18735.381681
18911.4806138
18755.2813018
18941.5229197
19550.6370195
19551.3195775
19551.3902911
18665.0260296
18844.5198084
18690.4188149
18875.2763153
19552.5388112
19551.9695251
19553.5339081
18608.5719229
18783.6722337
18638.1804971
18806.6015003
19554.5826391
19555.112254
19555.2975753
18599.6592859
18499.7569426
18623.8058303
18505.6353113
19552.9624487
18944.4422442
19552.0987233
18685.7342155
18885.0483537
19554.3556376
18652.2483093
18812.6916091
19555.7610263
18633.4266191
18485.8979652
0.0529479645849
0.0447993578454
0.0560656225077
0.0293109111363
279.133356361
263.732041713
0.0245094837014
0.19653095393
0.0694424452074
0.145199490461
304.58754191
279.597856496
285.974902556
0.134894240824
0.0138832202303
0.313354650849
0.172176668144
290.322582494
296.810968962
294.229677757
-0.0468964010395
-0.0417560104428
0.12850089481
0.122649818065
264.798681226
288.865823193
278.078614349
-0.0469863047913
0.0519979747117
0.179780311285
0.0646488295573
255.524590687
266.593472408
257.702478106
0.14702725775
0.136063537701
0.0847886865303
-0.00905982767388
264.40610464
257.322297793
259.656690485
0.0678809241673
0.0908228537923
-0.0087940304481
0.001099831473
292.275937201
272.732111559
283.273368636
0.0249587791627
0.0956734828229
0.0317168560827
0.0559818362107
340.035274833
303.850962535
338.881488904
0.0902529864234
0.448591722776
0.245059025848
0.635120483665
480.35151669
392.598728551
485.517653529
1.05207604263
2.85214882885
1.19613427516
2.99146015961
182.346046718
168.854128693
191.447667196
0.0141613926452
0.0225108505525
0.106123410134
0.0828745275251
247.234452881
221.789664578
237.367786763
0.0115383878686
0.103622356687
0.0668068840646
-0.0306483240341
272.969293121
253.457805933
254.709895024
0.145166277069
0.21049137357
0.0214919407646
-0.035908254831
282.192588719
261.832740215
255.015247915
0.12038136898
0.158173899431
0.026665746516
-0.0439843250348
272.15924431
257.394126898
249.724773515
0.13570820156
0.128668340528
0.0257567216176
-0.0275172572004
256.93598566
253.37271377
251.065040013
-0.00323949993365
-0.000187873682997
0.00854932101062
0.0279642641741
262.285179908
259.836904705
261.220265606
0.0102612292435
0.00890391091821
0.0141658294311
0.0176087515178
278.93993057
271.619854383
277.626467537
-0.0183856280189
0.0469498544854
-0.0121263085654
-0.0525212045827
334.96821118
297.569287448
333.652635375
0.189613694865
0.62533861719
0.112073731997
0.397455279055
481.747344302
386.510018452
471.812474766
1.19665300098
2.92415565414
0.987889324724
2.61941460782
191.976303892
167.239264836
181.150959228
0.106903998084
0.168780265348
0.142906556469
0.0600006062651
232.416711465
211.161753964
220.264472634
0.0165330867554
-0.0106765437756
0.105308146003
0.00221702313992
246.798412008
234.565571624
234.099300268
-0.033416811073
-0.0291570295904
-0.00258302928777
0.00439190794484
244.078400627
239.81074499
237.151105121
-0.0166137455207
-0.0151139859558
0.00251565469823
0.00587612140565
243.918765832
240.761414192
239.058092326
-0.00929033902142
0.00732656194034
0.0095672436954
0.0222522059459
250.482915857
245.84857927
247.549598984
0.0190150523757
0.0276207332529
0.0387814776314
0.030143557121
260.936507763
256.276377205
258.956393364
0.0223236364132
0.0218245799095
0.0374333008186
0.0186794209262
278.330509406
268.411097638
278.293420625
-0.00839066358464
-0.0210604919067
0.0018825469588
-0.0343841853906
332.201874328
300.736671469
335.981075454
-0.0666535366503
0.338447435026
0.054345314019
0.274485575152
464.431191877
386.781292438
464.588815557
0.747219416524
2.39918022508
0.823110143983
2.36885844977
212.589566442
193.637408712
0.0123539959622
0.011339592989
0.019504097305
221.301224949
199.333582264
200.173510067
-0.00120441617625
0.0143054811723
0.000131195852741
0.0352965760335
230.315138839
209.689307797
222.35595945
0.0118793970291
0.0241010335822
0.0352814937986
0.0251717833251
236.441337321
233.771936059
234.431238919
0.0204844415669
0.0420920340039
0.0301194170558
0.021382020991
246.600747303
238.633340174
241.285039167
0.0234347301952
0.0484349861696
0.0368879946022
0.0184491006962
257.901664546
248.884197931
254.987487514
0.0209121706706
0.0343916565342
0.0178859815423
0.0107748434946
278.728860805
265.522266306
276.132135243
-0.00120339482637
0.00424496473232
-0.00335719358054
-0.0379018778714
335.043739387
298.256500942
335.140116321
-0.0511613810068
0.338631926601
0.0531081505306
0.26635183468
464.245356135
384.905336376
462.592035776
0.747833479627
2.39862325703
0.80669918099
2.31965260214
216.9773259
216.489894684
0.0148170729251
0.0446490530783
0.119310847505
0.0280713669931
234.896337354
225.269793733
231.051349493
0.0230591219786
0.0325296385798
0.0333203446185
0.0281433911624
237.011028556
235.714323967
232.016633351
0.0175236958544
0.0220558288822
0.0115192586773
-0.0177636704718
247.944522211
235.49077518
243.918796057
0.0178835485278
0.026590722671
-0.0145056088367
-0.0272321864644
270.858739168
255.50384652
264.632453646
-0.01076681571
0.000870933382644
0.0067363444071
-0.0249137304181
331.196540821
288.838218488
327.373155601
-0.0394206115345
0.35874632233
0.151829475595
0.365402108549
463.18830559
384.440644279
469.881707365
0.716713476665
2.35349780519
0.865238116464
2.43678397021
237.949426481
0.0122259799791
265.831363084
-0.038757214624
0.119271510959
0.10145506769
0.123912032509
329.138683427
0.0965849001903
0.543508840308
0.309838818873
0.611266355454
482.95106665
1.00998058397
2.86098378084
1.14820777527
3.06530866076
19543.2573519
19546.4312009
18823.4683025
18590.7987551
19545.8536136
18456.0184041
19547.799573
19545.7174498
19548.6948048
18617.6423935
18893.3726153
19547.3393367
19550.7220555
18497.4199381
19546.7485037
19545.8039447
18632.731183
18823.3861008
19548.6977101
18722.7328825
19547.3021282
19546.6763372
19547.4303664
18812.6673377
18635.4413175
19548.18826
18509.696539
19549.4961031
19547.859679
19548.3263844
18853.7591465
18688.0189972
19549.5818928
19549.6317156
18766.8880389
19547.7513521
19548.7871008
18665.5243595
18887.9404941
19548.8943126
19551.5640457
18540.0413317
19547.5728931
19547.0659314
18582.0649578
18841.5789289
19550.3938836
18740.8125768
19547.4728544
19546.5964704
19547.6329711
18839.4466459
18580.0413482
19547.6982394
18488.6619779
19549.5660273
19548.1018569
19547.9771333
18854.1334925
18626.5989296
19550.7739347
19548.9131429
18746.1768974
19547.1991202
19548.1891119
18581.8766772
18864.8582795
19548.0076485
19550.6819773
18479.9975197
19547.3536238
19546.6243651
18607.4593663
18858.5798737
19549.4139898
18829.6604007
19547.4675466
19546.810486
19547.614946
18866.6100027
18619.3459627
19547.7170797
18561.8709879
19549.4077622
19547.6693054
19546.8567666
18851.1091611
18563.3980442
19550.0659905
19547.6376767
18803.6757208
19546.9040632
19547.2147073
18608.7446343
18855.7238295
19548.1426791
19549.3124657
18528.6335241
19546.9915911
19546.8947062
18626.6509753
18883.4546407
19549.0386934
18860.6374048
19548.1850781
19546.3294386
19546.7499432
18886.0531261
18632.2770106
19547.9837681
18570.518403
19549.3659951
19547.3265077
19546.6075142
18885.0876868
18600.2636792
19549.5067659
19547.7723178
18860.1161057
19546.4496378
19547.2392265
18630.5519084
18874.181517
19547.8526082
19549.1714432
18575.8790884
19546.9821987
19545.9581687
18626.2283303
18890.770206
19549.2667356
18857.6749068
19547.817322
19546.1370023
19546.4878953
18878.1008254
18613.2008933
19547.4220099
18566.9158059
19549.0446593
19547.2157498
19546.4994378
18890.2226794
18615.8408474
19549.2627458
19547.3570738
18870.9781858
19546.4601764
19547.4306135
18620.7962453
18857.4083735
19547.4421933
19548.6966803
18590.789112
19546.9705842
19545.6713207
18565.0746982
18846.2124655
19548.7722728
18817.0234102
19546.5687852
19546.1736157
19547.4098739
18804.3559552
18555.0508488
19547.6575204
18524.5451429
19548.2172601
19547.4235946
19546.3898499
18848.6467073
18593.1737211
19548.8661732
19547.2325304
18830.8377212
19546.65186
19548.0340898
18581.2315893
18816.4825535
19547.4633003
19548.9092178
18551.8404969
19549.0832005
19546.9623727
18539.3770944
18792.1368682
19549.4598962
18763.154603
19548.4640231
19549.506476
19552.0301635
18776.1816286
18580.3995312
19551.4557267
18532.0785894
19551.3868476
19549.6277649
19547.9180307
18806.3085083
18592.6434791
19549.6291802
19549.8368724
18777.3533641
19549.9642573
19552.3369998
18592.1989568
18797.8770557
19551.8976267
19552.2207929
18543.9775249
19554.1216135
19552.8990884
18629.3654568
18790.3935282
19554.4087867
18763.3279101
19554.543068
19552.0675271
19552.7299577
18685.7609052
18366.5405963
18489.464903
19551.045645
19554.5523084
19554.2647075
19553.1011203
18793.113698
18616.6105893
19554.754248
19554.312567
18758.5748223
19552.103383
19551.6081254
18362.9696009
18680.0290062
19554.1203723
18474.5161135
19551.0618232
19566.5050482
19572.4766366
19274.5899597
19470.2209698
19568.2832453
19239.2678923
19574.8651381
19559.0713932
19553.9719118
19302.8843882
18984.2193945
19562.7103647
19559.1747864
18880.5563328
19567.403403
19572.5662483
19473.9236307
19310.1289529
19571.3508962
19261.599855
19574.7174154
19561.2025909
19560.965391
19015.5934646
19349.1132915
19561.4140039
19567.9953305
18935.3079617
19552.3456521
19550.5247327
18697.1912358
19116.8319091
19550.936983
19557.368111
18965.2257359
19550.5455404
19549.5618979
18938.4609754
18693.9259674
19552.2363845
19551.4035096
18611.3123094
19554.6987627
19557.2226528
19158.4069492
18828.5116872
19560.3776969
19557.4522635
19037.2030527
19552.5024619
19554.6274345
18744.5161314
19018.4008147
19553.2309039
19557.0216808
18705.3455806
19551.0171644
19549.3221802
18700.5575022
18926.5065898
19550.5112362
19552.5592774
18878.3609209
19550.3589654
19549.5982761
18914.2945381
18724.6940416
19552.0092112
19551.2354788
18640.1094082
19552.2013859
19553.2353875
18963.342947
18747.3786158
19554.2581031
19553.4986709
18942.7269922
19551.3730044
19552.8256031
18753.6544722
18948.529466
19552.3321267
19554.4025144
18712.8074554
19550.5583118
19548.6962652
18657.4482084
18918.647376
19549.6159484
19552.5984743
18842.9120534
19549.1223947
19548.7540188
18887.9752912
18646.6722468
19551.201775
19549.6941625
18571.5421399
19551.310094
19551.3282543
18948.0646543
18720.7638539
19553.2499851
19551.7504264
18901.0284489
19550.0668005
19550.8708625
18692.4975272
18929.2681717
19550.4489098
19552.6139236
18645.4026847
19548.7591809
19547.4383451
18589.4998862
18890.4113943
19548.3611069
19550.9108772
18854.7731294
19547.6045317
19547.7532811
18864.0081186
18614.2384737
19550.177148
19548.3258217
18564.0066639
19549.7682557
19549.4982211
18917.8827458
18684.9230414
19551.7747549
19550.0548201
18903.0359564
19548.4111665
19549.3884117
18656.5823385
18904.8558112
19548.9816231
19550.9615532
18631.0019672
19547.8562174
19546.6772555
18605.1590781
18875.9340935
19547.7579336
19549.6016885
18877.416374
19547.0057514
19547.2051481
18876.8498022
18621.1350842
19549.1726738
19547.6096635
18599.0775219
19548.6011728
19548.0504445
18892.8286475
18649.6753505
19550.3044149
19548.648058
18904.3539678
19547.5123472
19548.2917141
18631.6599135
18863.5049488
19548.0523107
19549.4623556
18632.3169292
19547.5617938
19546.4002652
18617.7233522
18853.5516875
19547.2376091
19548.6515943
18871.9537019
19546.7073078
19547.4310296
18848.9215506
18602.0883673
19548.466183
19547.1593949
18605.2144993
19547.9956232
19547.3412192
18849.3009378
18604.4583036
19549.0412718
19547.4026145
18882.4548569
19546.8840028
19547.6237918
18605.3717026
18810.2254012
19547.3788028
19548.2389473
18623.3630396
19547.6448894
19546.6700155
18604.305112
18815.9177185
19547.2163137
19548.3433238
18834.7279439
19547.212046
19548.2686542
18821.7670288
18613.890601
19548.6601369
19548.1414541
18603.8848957
19547.8982535
19546.8466165
18810.8791394
18577.9778875
19548.5027831
19547.0074531
18841.6244238
19547.2215804
19548.4727108
18607.3704769
18782.5448701
19548.1894952
19548.3720115
18608.6538461
19550.1329397
19547.9468163
18612.6362934
18809.9582797
19549.5044704
19550.0700032
18795.0552397
19550.4352796
19552.0794521
18805.4144496
18620.6292319
19551.8971429
19552.418913
18584.7056024
19550.3978299
19548.2038082
18804.8572129
18595.3500784
19550.1139253
19549.6098344
18799.736651
19550.8351642
19552.8449598
18627.3436388
18787.7496067
19552.5488557
19552.0276297
18598.3291649
19554.3279706
19553.0500851
18620.9484726
18796.3800652
19554.2837192
19554.8749686
18761.4549628
19552.0102918
19551.40996
18681.4828053
18357.1644102
19554.0283282
18476.5300174
19550.9066378
19554.4812038
19553.4049266
18803.5601091
18631.8229177
19554.9360961
19554.4502107
18776.3356007
19552.3232597
19553.0949485
18359.0786504
18670.1945811
19554.1915967
18504.8718302
19551.0727313
19571.0315456
19573.2419446
19335.8350827
19475.1094825
19572.457013
19311.0587674
19575.7984003
19567.6723779
19562.8874884
19377.5469003
19121.8348154
19569.6849959
19567.162924
19074.3520542
19571.5026515
19573.1116519
19477.1316549
19308.81364
19572.9417643
19362.4979042
19575.6647895
19568.7276349
19567.0319907
19162.9138116
19357.7134714
19567.7841067
19571.3585872
19148.6743168
19560.1197984
19559.8030438
18899.5722593
19214.5873887
19559.4890679
19564.7986324
19146.8214988
19557.4579695
19555.7469628
19064.686405
18843.0812858
19558.8790293
19557.4930137
18843.4541534
19561.5684923
19564.05506
19237.9454915
18981.5901723
19565.8369121
19562.9338676
19189.677104
19558.9903377
19559.6628389
18884.0864587
19094.3961035
19558.6794167
19561.8925269
18911.0389544
19555.708557
19554.07497
18776.3067043
19003.1706522
19554.4552059
19557.3301004
19003.2587641
19554.4130986
19553.4253218
18961.066175
18765.0007203
19555.1166939
19553.9422032
18761.4130688
19556.8027447
19557.1263543
19024.2628748
18826.4533996
19558.5290752
19556.8803335
19043.2068365
19554.6323709