/*--------------------------------*- C++ -*----------------------------------*\
| =========                 |                                                 |
| \\      /  F ield         | OpenFOAM: The Open Source CFD Toolbox           |
|  \\    /   O peration     | Version:  v1906                                 |
|   \\  /    A nd           | Web:      www.OpenFOAM.com                      |
|    \\/     M anipulation  |                                                 |
\*---------------------------------------------------------------------------*/
FoamFile
{
    version     2.0;
    format      ascii;
    class       surfaceScalarField;
    location    "1";
    object      phi;
}
// * * * * * * * * * * * * * * * * * * * * * * * * * * * * * * * * * * * * * //

dimensions      [0 3 -1 0 0 0 0];
oriented        oriented;


internalField   nonuniform List<scalar> 
92311
(
0.200686175631
-0.000132141835328
0.000411336118638
-0.20069528255
-0.000270087357994
-0.000134448339188
0.200712987285
0.000375156940247
-0.000267637427116
0.200672690876
-0.000300666882934
0.000438942679886
-0.200674621543
-0.000268605528355
-0.000276006334512
0.200703673146
0.000380878963943
-0.000270589040532
0.200694427826
-0.000176703298541
-0.000169610957009
0.000450858164748
-0.200660713859
-0.000270010557517
-8.66069502146e-05
-8.24476921924e-05
-0.000133020615591
-0.000120220738946
-5.77390077508e-05
0.200685858805
0.000392445886477
-0.000288334534734
-6.09370161096e-05
0.0501850899374
-5.20179895628e-05
-5.76241593561e-05
-7.0274494312e-05
-6.63449467463e-05
9.96108555745e-05
-0.050166487025
-4.8756421928e-05
-0.0501928163759
0.0501824090344
-3.61076156043e-05
-1.05681110351e-05
-6.07070058978e-05
-3.82816761335e-05
9.2879170883e-05
-6.99230014856e-05
-0.000279590064439
0.0359072548194
0.000233881257258
0.000354821227438
-5.42986867824e-05
-0.00408860249072
-0.0375187965894
0.00413524468409
0.0013100657123
0.0465476614494
0.00315970493505
-0.00725836817186
-0.0410585566264
-4.81706161712e-05
0.000141943076471
0.000392131437609
-0.00038470217474
-0.00149164511398
-0.00915455784539
0.00876311742404
0.00762849007923
0.0064229437409
-0.00144873017363
-0.00622838310911
-0.00708612197396
0.00764710269528
-3.09302116367e-05
-5.86124362994e-05
-4.97698363563e-05
-7.7509025977e-05
9.92541589818e-05
-5.98469997353e-05
-1.32170450342e-05
0.0124090984905
-0.000114989646073
-1.63581325163e-06
-0.0125588510638
0.0125638680971
6.03970407917e-05
3.67049296146e-05
-0.0125982612579
-6.02847585218e-05
-2.68243797383e-06
-7.34653073309e-05
-2.07741580576e-05
0.0501670341131
-4.16334064451e-05
1.00115384459e-05
-5.93206021725e-05
8.02337364961e-05
-8.69059351207e-06
0.0501622896368
-9.57400290188e-06
2.28542117633e-05
-3.60208503877e-05
-0.050183063702
-7.90860304468e-05
0.00037215597591
-6.08744277869e-05
0.0123882643211
-0.000129438581283
-6.46597091657e-06
-2.04084797414e-05
0.0125304017414
2.10715711222e-05
-2.68672270898e-05
-0.0125249765277
0.0125273314163
-1.70296312795e-05
-1.7147899328e-05
-0.0125222870407
-0.000156026987101
0.200775581938
0.000680544369508
-0.000371956710619
-0.200928142607
0.200779222953
-0.000142516113234
0.000319465611203
-0.000243627862558
-0.000154281664386
0.200875913022
0.000263542461647
-0.000206335812361
-0.000219061284185
0.200817981932
0.0005981920324
-0.000400284962889
-0.200952877128
0.200776289032
-0.000292226868695
0.000325385633167
-0.000248851001345
-0.000325439884821
0.200881984868
0.000271824177772
-0.0002068887228
-0.000156570577565
-0.000171609158781
-4.70894820924e-05
0.000739692535777
0.200746044709
-0.000432284787992
-0.200873020737
-2.43123772204e-05
-0.000124587950519
-0.000137569234017
-7.21305606169e-05
-0.000116395783598
0.200768425249
0.00034575543921
-0.000270673872522
0.0501761019262
-4.21958242179e-05
-1.46758856483e-05
-3.78279447729e-05
-4.46059266129e-05
0.000172195359044
-0.0502054457591
-0.000160219774799
0.0501510949972
-8.20761605676e-05
-4.58213050335e-05
5.87043543986e-06
-3.37687976108e-05
-2.93465957567e-05
7.64077762732e-05
0.00572660735734
-0.00462790037294
0.0488917039262
-0.000372835008497
0.000331341936299
0.000159359331724
-5.56051184668e-05
-0.00350470610616
-0.00927924040036
-0.000546955580697
-0.00302998891776
0.00747168296885
0.00246883646062
-0.00306289881579
0.00724648726271
-0.0107349654
0.00252786818954
0.00402302276584
-0.00837376237606
-0.00279245264542
-0.00846262018091
0.00994790725402
-0.00781722453373
-0.000174258738122
-3.02726306598e-05
-5.48076604527e-05
-5.91652851394e-05
-4.93299351235e-05
0.0501720584301
0.000200232881162
-5.01640153714e-05
-4.14211694648e-05
-1.18165405721e-05
-3.58617968978e-05
0.0501804720234
-9.66001832171e-05
-0.0501659363163
0.000281585069188
-5.86190880585e-05
0.0124433660964
-8.76238064264e-05
-5.46835279961e-06
-0.0125734261364
5.21764004833e-05
2.57351591158e-05
-0.0125922359351
-4.74166036902e-05
-1.89645596363e-07
0.0125616974439
-0.000133484033135
0.0125607855626
7.21417319842e-05
-2.18276601306e-05
-0.0125278263333
-8.83046499954e-05
-1.09109275174e-05
-5.19885582047e-05
-5.8137552967e-05
-4.26006033099e-05
0.0501758033484
8.94960612765e-05
0.0501435737638
-3.44321185133e-05
-1.53319008126e-05
1.92632691647e-05
-1.89620745678e-05
-8.6096216962e-05
-5.07357360894e-05
-5.13424544662e-05
-5.025307711e-06
-4.23527072658e-05
0.0501726687924
-8.45934926478e-05
-2.36181418416e-05
4.90901872652e-05
-9.46979664454e-05
0.0125537745308
3.95395716626e-05
3.07239593281e-05
-0.0126107749682
-4.10107831882e-05
0.0125829154451
-1.62052215443e-06
-2.37599111669e-07
-8.12367134008e-05
0.0125507737175
-0.0125184704062
-0.000114967803105
0.0125500882874
5.82814671303e-05
-2.60994013915e-05
0.0369628806611
0.000393360713918
0.000203085486868
-0.000324546112922
-0.0038153856481
0.00253926203752
9.78620644576e-06
-0.0070893412173
0.000130703747732
-8.08412829925e-05
0.000324942478611
-0.000385979043471
0.0479344095862
0.00494339234678
-0.0426172607666
-0.00267315306605
0.00665416061972
-0.00401095673331
0.00170955492481
-0.00294471757344
0.00227111974638
-0.00161881534093
-0.00480825423163
0.000177013089918
0.000364027535735
-7.86953824212e-05
-0.00250159748803
0.00312378208458
-0.00018833706116
-0.00138846807784
0.000249763501731
-4.72051368686e-05
0.0125208615222
1.80568913993e-05
-0.0125569234474
-0.0125716263723
-3.70159246225e-05
1.64124849222e-06
0.0125627768458
-1.33970478557e-05
5.72126558525e-05
0.000100110186905
0.0124837668191
1.98845512504e-06
0.000145127701053
0.0125854091306
-0.0124861255648
-4.4837976544e-06
-0.0125333901136
-1.05376336312e-05
0.0125611612292
-9.33685898036e-06
0.0125378684116
1.84316533748e-05
0.0125275036087
3.78668902525e-05
-1.88733598018e-05
-1.446020755e-05
-2.75000274927e-05
-0.0125787116179
0.0125656997405
1.8641569052e-05
0.000122423938831
0.000156712537758
-4.15988225669e-07
7.4899141845e-05
-0.012406517954
0.0124825929768
-8.34010366471e-06
0.0125407153869
-1.54839400965e-05
-9.44763617693e-06
1.96730128546e-05
-0.0125746923148
-1.87529963274e-05
1.06926445862e-05
0.0125654077119
-1.87793947309e-05
-5.10349299711e-05
0.0125264257673
1.902804658e-05
5.47199735031e-05
5.49837970487e-05
0.0124627031152
-7.28227902606e-06
0.000128869992112
0.0125961381272
-7.96166192412e-06
-1.67458942307e-05
0.012559225146
-5.66523101922e-06
0.0125361556399
1.76522947219e-05
-2.25264633104e-05
-0.012569675282
0.0125588063332
1.28161576914e-05
-3.57077533024e-05
-0.0125979687941
0.0125658071228
-2.6207365534e-06
-0.0123965242977
2.06275765191e-06
0.0124737113166
8.51270086907e-05
-1.5110484596e-05
-1.95091214337e-05
0.000137987120147
0.00012417831957
-5.19776427711e-06
1.37543480036e-06
1.60772940186e-05
6.14239950645e-06
-0.0125606535011
0.0125494616536
-2.15512556833e-05
4.37904360832e-05
-0.0124012306969
0.0124730595175
-0.0125851797422
0.0125481620444
6.35471743457e-06
-5.13642637885e-05
9.59475683508e-05
-0.0125635386122
9.27744667293e-05
0.000124949408773
-0.0124810222262
3.18753535509e-06
-0.0125361989667
-1.92363175065e-05
-0.0125644704658
0.00715451412365
-0.00831833167341
0.000335466548367
-2.51292896236e-05
0.000197786834242
-0.000262172126764
0.0391982116976
-0.0426148970985
0.00433452067008
-7.49633728782e-06
0.00392247299193
0.000689014858633
-0.0067220029472
0.0450813569429
0.000582252439234
0.000138361679905
0.000241123849642
-5.26047914704e-05
-0.00754859511803
0.00879184127898
-0.0469521223699
0.00380789223145
0.000294866266827
0.000165772376717
-0.000264008344197
0.0405251659096
-0.00771426158213
-0.00093259859007
-0.00179071249409
-0.000794186286993
0.00355539255395
0.000295607258354
-0.00044123379107
-0.00297595292138
0.0497791955565
0.000312343255841
-0.000306216777441
0.00014819800511
-5.48322686496e-05
0.00676005265245
-0.00391090985955
0.00812369626078
0.0020037820569
0.000958841280348
-0.00319987415798
0.00632658095038
-0.00792798121298
0.000307371965405
-5.30831387513e-06
0.000182929515893
-0.000288458562069
0.044575026003
0.00661493588844
-0.0015938765656
0.00787191246955
-0.000185581836087
0.00225524903747
0.000363060923594
0.00018263109236
-0.000300108771505
0.0446540380946
-0.00614924166462
0.000476353756351
-0.00164507119968
3.71611065957e-05
-0.012555188441
-1.96598088704e-05
0.01254982564
-5.43178065209e-05
0.0125275325302
-6.69129277776e-05
2.69095971979e-05
-0.0125608117348
4.18033401446e-05
3.98034341073e-05
0.0125014490793
-1.45135880456e-06
8.0124661984e-05
0.0125877626353
-0.0125064783968
-8.0353273009e-06
0.0125345129224
3.42477366276e-05
-0.0125349542769
-5.15467573234e-05
0.0125635879368
-8.07971943044e-06
2.44556279878e-05
0.0125207326598
3.17172131164e-05
-5.72209024455e-05
-0.0125605742013
-6.38719942974e-05
4.2218196199e-05
0.012553164409
0.000102206081077
9.83950220485e-05
3.44815055813e-06
6.89773410832e-05
-0.0124350880328
-1.02826861967e-05
0.0124947028417
4.14718470479e-05
-5.79644873601e-05
0.0125344353162
-5.23968711027e-06
0.0125905424209
0.000105428516491
4.9490180747e-06
-0.0124991029845
4.52225089777e-05
-4.63713684885e-05
0.01256413596
2.51688404436e-06
2.76282735201e-05
0.0125562038667
-1.94106803182e-05
0.0125199486449
2.92378023731e-05
-0.0125462457849
7.89641122738e-05
-0.0124308471685
0.0124931304623
0.0125324620544
-0.0125633396293
8.54502525851e-05
0.0125151953206
1.31484792139e-05
-0.000122136706001
0.0124049098496
-4.02782837518e-06
0.0125913852139
-3.15051685017e-06
1.46603875428e-05
-1.45007424837e-05
0.0125454785008
-2.56397869993e-05
3.5027748724e-05
4.30747183458e-05
0.0124885898401
-2.21971181794e-06
0.0125208763334
1.43560705756e-05
0.0125669344921
-2.23233918424e-06
-2.35667751786e-06
0.0125122810874
5.256564806e-05
-2.79451049926e-05
-0.0125586959297
-3.71808727666e-05
0.01255298882
2.16480329294e-05
0.000118762905553
0.000119231478063
2.89307555702e-06
6.76229858566e-05
-0.0124369726875
-2.52268443801e-06
0.0125134640012
2.06001870495e-05
-2.87785445563e-05
0.0125289717017
1.91323363125e-06
-0.0125100531966
-3.32500027791e-05
3.37378428286e-05
-2.42426975644e-05
8.18941578821e-05
-2.34276816256e-05
0.000114696908354
0.0125863444698
0.0124276004772
1.11429787874e-05
3.9128886659e-05
0.0124974851903
5.94317065075e-06
-2.17021556619e-06
0.0125420791698
0.012566426571
0.0125861313997
0.000105024200666
-1.19738775098e-06
4.69311302421e-05
-4.02946865254e-05
0.0125709678962
2.87238854279e-06
1.70126350017e-05
0.0125535199997
-2.47637540367e-05
0.012510162162
5.71874634888e-05
7.0844507775e-05
-0.0124423162033
0.0125117603436
0.0125268773382
-0.000144746300903
-0.000137661487778
-0.000137402973219
0.000301992350197
0.200906001669
-0.000128853793304
-0.000217137898303
-9.58418578114e-05
-4.80595449724e-05
-2.42131150372e-05
-4.61642659385e-05
-6.07674005497e-05
9.62326635276e-05
0.0502098862512
-0.000308584269878
0.00746846481208
0.0011647533265
0.000185768802015
0.000315053960992
-5.89040849228e-05
-0.00684678790844
0.0427339032998
-0.00090870397239
-0.00957891382831
-0.00300529153411
0.00810082387552
-0.00855326403141
-0.000918274554762
-0.00346910619559
-3.91259326219e-05
-2.42153176049e-05
-5.2605716531e-05
-4.39976839102e-05
6.42481461666e-05
0.000178008074133
0.0501976728972
0.00026858844038
-1.66971975439e-05
-0.000106328304467
0.0124166983798
0.0502313423232
-4.55149292095e-05
-4.73561578898e-05
-5.85870751322e-05
-6.87001327065e-05
-7.22913518334e-05
0.0502564439167
-3.23359108839e-05
-3.93532244909e-05
-5.34517372467e-05
-6.73769694093e-05
8.22302610654e-05
-5.25477396043e-05
-4.3723060317e-05
0.0124357081368
-0.000106280204413
-1.15363157835e-05
0.00019997471502
-1.93002883163e-06
-9.43191617442e-05
0.0124615826062
5.23802337195e-06
0.0125650018204
7.99689564017e-05
2.27701396379e-05
-7.2077658301e-05
-0.0125876021866
-8.44603908859e-06
0.0502575907644
-2.20848139263e-05
-1.98810102139e-05
-5.56949146048e-05
-5.14692540286e-05
0.000113918852551
7.12131885126e-05
-3.74371718787e-05
3.0484335142e-06
-2.38048642986e-05
-3.421091099e-05
-5.4780359058e-05
9.66087125514e-05
5.18246544517e-05
0.0502429487321
-2.44052710595e-05
0.000313985339165
-4.69969932811e-05
-0.000124343074067
0.012426308833
-4.28259812731e-06
7.9868414636e-05
2.42891639388e-06
-5.49600047179e-05
-0.012574878322
0.0125503673193
-3.0809073749e-06
0.000350186047414
0.000231455092631
-5.7293314466e-05
-0.00683845420466
0.0361105140178
0.00558483060054
0.039688850581
0.00751725292221
0.000317023150191
0.000241596603274
-5.64000625325e-05
0.00453783047408
0.00277409542849
0.0404924011567
0.000227424826274
0.000321325913724
-0.000283774681823
-0.00486366034313
0.00110169556412
-0.000801104503397
0.000362396941427
0.00116173270352
0.0057872106039
-0.000757250436169
0.000687189415393
0.0064662340579
-0.00160187162585
0.0409984811752
0.000344982014662
0.000217581852553
-8.13506441018e-05
-0.00233575548175
0.0020800469946
-0.000416300801439
0.000185579642262
0.000315997594392
-0.000299922041709
-0.00119406933322
0.00320521668769
0.0407194405325
-0.00185241891925
-0.0125678135044
-3.37186537668e-05
-5.40922524582e-05
5.77142909184e-05
0.0125587809552
1.20481826578e-05
0.0125213974544
0.000134817964365
0.0125900876251
1.20250338775e-05
6.73417914116e-05
9.87182027617e-05
0.0124840571218
5.90759849323e-05
8.06112753752e-06
0.0125586027968
0.0125407180606
1.63826622906e-05
-0.0125683923817
-3.43195961843e-05
-2.95637028869e-05
0.0125678143736
0.012522786958
-6.20235285757e-05
2.44963528281e-05
7.53809422401e-05
5.93609442437e-05
-8.6651643275e-06
0.0124953506146
0.00013144835371
0.0125996827692
-8.92405936168e-06
2.68358007947e-05
0.0125416234096
-3.05882731949e-05
-2.81354189005e-06
0.0125688892847
-0.0125690827463
-2.95296972751e-05
-4.41269127441e-05
0.0125678148676
1.04985305881e-07
0.0125265798346
-2.21486726807e-05
0.000131449024021
0.0125941526356
6.55853171325e-05
0.00012008500777
0.0125206461378
-2.6325393615e-06
0.012571092413
0.012551991869
-1.81088054114e-05
0.0125377953086
2.86859257245e-05
-5.86000407875e-05
2.75526205369e-05
1.64385499169e-06
-0.0125916078281
0.0125852937071
-1.15442644566e-05
9.76819720402e-05
-0.0124345517751
0.0124968263746
-4.55920932541e-06
0.000110904795057
0.000150418097107
-6.66274044889e-06
0.0125577123613
2.58869726457e-05
-7.45617565281e-06
-1.50451259505e-05
-0.012591339829
-4.20492105619e-06
-2.67230411524e-05
0.0125798390059
2.03151847526e-05
-1.98436245058e-05
0.012546180182
-7.81329445013e-06
0.000133187539904
0.0125828627556
1.57658780852e-06
6.32405123752e-05
8.44081066326e-05
0.0124978494177
-1.07617223471e-06
2.39376971831e-05
0.0125558999153
4.87196883982e-06
0.0125578494875
-5.52443123594e-06
0.0125435493576
6.59477080075e-05
-4.42369057309e-05
1.75593183554e-05
-5.28452708625e-06
-0.0125874991175
0.0125745410909
-2.85420608784e-06
6.46015780952e-05
-0.0124371064939
1.34029715595e-06
0.0125019055288
0.000116897695115
0.000123991515656
-1.57922921319e-06
1.54913724916e-05
0.0125530759837
1.91928822539e-06
-4.58861203876e-06
-0.000331357994538
-0.049593474865
0.0495229111223
0.00036120525636
6.68288654697e-06
4.28760880401e-05
3.95303915548e-05
1.06558037351e-05
-5.90546183101e-05
-0.000354007540652
0.0498555354246
-1.47469123527e-05
3.76800310271e-06
1.88088216502e-06
-9.01569764624e-06
5.17361949423e-05
-0.0498255108556
0.000290356101581
-0.000558478137995
-0.0499764402341
0.0501847719417
0.00041121856213
-5.86661128958e-05
-5.01517988947e-05
-6.41367956425e-05
-5.73010666418e-05
0.000169183669171
-0.000318623713955
-6.02970578508e-05
-5.54150431586e-05
-6.5764548335e-05
-5.91173695387e-05
0.000168748426272
0.0501909801779
0.000255938465767
-0.0500564494536
-5.33192944225e-05
-0.00901430818716
-0.0383608567267
0.0405072926174
0.0170709171065
-0.010137263301
-5.72082133379e-05
1.81380398638e-05
2.17637100124e-05
3.52195487974e-06
-0.0434519237209
0.0500455650222
0.0259865200807
-0.0154748048977
-2.1651619627e-05
-2.87321228565e-06
4.66909966439e-05
-0.0171370926762
-2.15499396665e-05
-0.0167039380403
0.0475291326579
-0.00298501180741
-8.22608452666e-06
1.16019079406e-05
-1.71088240308e-06
-0.0446511660471
0.0168304308645
6.30487755595e-05
-0.0273705398141
-0.0460088580392
0.0433350886157
0.0247856547132
0.00509242164399
2.69541559292e-05
-5.28674896705e-06
8.14868687411e-05
8.52309247001e-06
-0.0160092220934
6.38974581011e-05
5.69128463153e-05
4.9309612004e-05
0.0313684316813
0.00560654665643
0.0208255061268
-0.0419699738777
0.00873067010037
-0.013501428111
0.00582263478751
0.00980672636581
0.00889253665882
0.0125900235115
0.00175969419482
-0.011974925087
-0.02263067302
0.0201776488603
0.022090321488
0.016353187696
0.0175341165606
-0.0191678363579
-0.000346896410848
0.000108976398755
-0.018378516262
0.00860774376259
0.0123731339334
0.000171099569883
0.00112392059837
7.25653252566e-05
-0.0257131190243
0.0154478205657
0.0109397249521
0.00230060456135
-0.000117253137334
-0.00930605589865
0.00156436178344
0.00184311257067
-0.00447328521329
-0.0129185442099
0.00179008899866
-0.00675911553083
-0.00979942831963
-0.00475912942895
-0.00671204997151
-0.0148440785834
-0.0100804980168
0.00364907834716
-0.00370420624068
0.000133145803526
2.03990028264e-05
3.7476850948e-05
1.69708477529e-05
3.5163344698e-05
0.0494220874352
-8.32392509498e-05
-2.18339684759e-05
-0.0495601757247
0.0494938441307
0.000208872450393
3.63238381566e-05
3.62236984896e-05
3.85331350993e-05
3.55809989214e-05
-0.000119805606639
-0.0495964403287
4.80739826565e-05
-4.22756126031e-05
-0.0123960266744
-1.87985763426e-06
0.0123822440499
9.85762201655e-06
0.0124024022317
4.84149673866e-05
3.01796900273e-05
-3.58956320588e-05
-3.48641489794e-05
-0.0124102537354
4.27747632111e-05
4.24246557507e-05
4.10444129152e-05
4.24305540454e-05
-0.000194496152046
0.0123535733813
0.0123296808039
0.0123111773565
0.0123497682286
-0.000155927746563
5.92627876928e-05
1.07689412794e-05
-3.50302243926e-05
-4.38634779261e-05
0.0124112652086
0.000234232013539
2.07597165578e-05
4.27004504764e-05
3.90745227541e-05
1.79514620652e-05
-7.07645580725e-05
-0.0496685674171
0.0497029883625
3.02345526837e-05
2.282005208e-05
3.0602341612e-05
2.29456468615e-05
-0.000107352262695
-0.0497274634665
0.000259440990975
0.0124147541757
7.01154820488e-05
-6.29822127007e-05
-0.0124200622241
4.65885263108e-05
0.012447114064
2.23817144009e-05
-1.73761954802e-05
-6.99658392796e-05
-0.0124528855456
7.07299666307e-05
0.000514668982056
1.53670157114e-05
3.89909203598e-05
3.75800200676e-05
1.17997369056e-05
0.0495708325548
-0.000139304886111
-0.000123359251378
-0.000142366917825
-0.000117906489058
-4.15100205511e-05
-3.75024393512e-05
-3.53941716854e-05
-2.90221449464e-05
0.0497083313469
1.78409506162e-05
1.7975500843e-05
2.26460396909e-05
1.48769735022e-05
-7.15396571696e-05
0.0498264182496
0.000459937862319
8.83113251344e-06
-6.56727878825e-06
-7.86884861994e-06
-3.15023779446e-07
-5.74529323579e-05
-6.27280054262e-05
0.0124219876986
6.14149808535e-05
0.0124404161981
3.32614717633e-05
-4.37470878688e-05
-0.0124327673928
0.00010198434292
-9.91408971898e-05
8.06265811599e-05
-3.19576557639e-06
-1.01949132539e-05
-7.63843327749e-05
0.0124562516438
0.0124854046148
0.000105079687851
-4.69886962393e-05
3.47767310094e-05
-0.00010553002017
-0.0124727220409
0.0501290594428
-1.20713434306e-05
-7.3669506739e-06
-5.5896344454e-06
-1.27764273163e-05
-0.000726146808391
-9.72222363417e-05
0.000642756375529
-1.54492601846e-05
-2.15539778129e-05
-9.59739266681e-06
-4.05423941352e-05
0.0506643951702
-0.000140741254991
-0.000950323647557
-4.19763447246e-05
0.0124713278016
0.000128099942518
-0.000113557575017
-0.000105628072972
-3.19974923663e-06
-0.012482082912
0.000179895162045
0.0125746385887
-0.000163607898976
0.000119735191757
-7.24467746609e-05
4.04240246036e-05
-0.000114949900851
0.0125126606291
0.000124435805025
-0.000134136384055
7.47044099334e-05
-0.00012198622132
-0.0124933535217
0.0125503600315
0.000350828994996
-3.08809228289e-05
-2.63195126338e-05
-1.25622485679e-05
-4.0026531646e-05
9.79309420064e-05
0.0500123687202
-1.66685344306e-06
-2.25376395885e-05
-1.5653614935e-05
-1.36987150765e-05
-4.91730552537e-06
-0.0498978931628
0.000294837686069
-1.67588345622e-05
0.0124687089182
6.89093553503e-05
-0.0124617928327
0.0125009337848
-4.07426039311e-05
2.22313626829e-05
-0.0124849825761
0.00010764192311
0.0125118987812
-5.06652125778e-05
5.0889292192e-05
-7.04158656669e-05
-0.0125107903886
6.907417869e-05
0.000428574774857
-6.90725400471e-05
-7.31452262029e-05
-6.36969992763e-05
-7.69608463537e-05
0.0504828989991
0.000198825961625
0.0501753072211
-2.97367626035e-05
-2.71580670408e-05
-2.04945098522e-05
-2.87434157591e-05
3.56772422253e-05
-3.05942197571e-05
-2.52159162712e-05
-2.44049659471e-05
-3.55201811809e-05
0.0503591935858
0.000330863730812
2.948649256e-05
4.43479679831e-05
0.0125217596513
0.000117560988707
-0.000111466003703
8.02805248775e-05
-0.0125023542978
0.000109963766028
0.0125480193139
7.78595958252e-05
-5.18200542516e-05
5.21448690578e-05
-7.92806613686e-05
0.0125129932327
7.61694651527e-05
-6.56514343738e-05
4.84391794447e-05
-8.66495298715e-05
-0.012503541514
0.0125311759248
5.06081973362e-05
0.0125150770544
4.44270831274e-05
-0.0125238386104
4.62931676599e-05
-0.012512439492
0.0125309331118
-1.5938865344e-05
2.72082131212e-05
-0.000139248224778
-4.86479806538e-05
8.68802021659e-06
-4.54442104258e-06
0.0316559047573
0.00496618554671
-0.0335145567756
-0.00287662016543
0.0340828401038
0.00562841991923
-3.07623410696e-05
-3.06234868839e-05
-1.77411642748e-05
-0.0334573106142
-0.0062850739114
-0.00917166802488
-1.23006402191e-05
-1.30031162024e-05
-3.07924634946e-06
-0.00224197391184
0.0365195676193
0.000805211145523
0.00111806823114
0.00722471840881
-0.000397451698086
-0.00293777795481
0.000193124085868
0.000505640902907
0.00981795147538
8.93362417689e-05
0.000633872298971
0.00122259881722
-0.00103523156805
0.000586727250132
0.000265587359197
0.0125452454362
0.00059885175528
-0.000532209544789
0.0206600919535
-4.98932818401e-05
-0.00120291580694
0.00153584886805
0.0216963295924
0.000654483332591
0.000850409115725
-0.000587916685032
0.0161294894936
-0.000345721663809
0.00184209824068
0.0156713284509
0.0116888353244
-7.60947236609e-05
3.85552648363e-06
-8.05099772405e-06
-0.00760191071542
-0.0366692413204
0.0427355798662
-2.47538102502e-05
-1.93036340015e-05
-1.97643896558e-05
-0.040258802633
-0.00277035711955
0.0120681405889
0.0241188630517
-0.0132962422815
-3.93522100062e-05
1.70212756299e-05
2.05438195862e-05
-0.0137417104047
0.0440690255325
-0.000983963686258
-9.98749478875e-06
1.79597986176e-05
4.30549836627e-06
-0.00129317666065
0.0456799891312
0.0236900099448
2.93470698953e-05
1.49499589821e-05
1.90723507452e-05
0.000656301419476
0.00127866481926
-0.00226309102964
-0.000474987475904
0.000460026002102
0.00436012204701
0.00237951502243
-0.00628121262288
0.00367672201658
3.57252726357e-05
0.0264215405656
-0.010719547182
-5.15329851456e-05
4.9286792476e-05
6.60152207812e-05
0.0531940738376
-0.0190252028412
0.0463740886849
-0.00227472095826
1.79304358399e-05
1.87068545616e-05
8.6466170141e-05
0.000317929817307
0.0256871519706
6.14030038895e-05
1.06516044234e-05
9.68900742209e-05
0.0464867905425
0.00142337662283
-0.00159175386043
-0.00132704955138
0.00261148995339
0.00444429341844
-0.00233502543135
-0.00387607631937
0.00719297418402
0.0239073342228
0.00124206223687
6.59228323263e-07
1.06884794002e-05
7.81812728023e-06
0.0135499268533
0.0436600027427
3.59248209691e-05
5.52937131648e-05
-1.03829342668e-05
-0.04892574849
0.0154917032696
0.00554029170787
-0.00636705035458
0.00206037459011
-0.000884043036078
0.00322601468835
0.00774877185655
-0.0082289964767
0.000225417785857
0.0201521998262
0.00807939279304
2.7235037231e-05
5.53141267212e-05
7.5543859072e-05
0.0405202492219
0.035086329724
0.0171323737651
4.465023969e-05
4.84232619355e-05
7.12972703987e-05
0.0107596940955
8.51080103039e-05
6.04909121491e-05
4.41161385207e-05
0.0340382839363
0.0101850917069
0.00446842747751
-0.00324793343691
-0.00440699612823
0.00636497397657
0.00813719317046
-0.00134679941072
0.00693060851209
-0.00251939274049
0.0123749537931
1.54015695431e-05
-1.60117464837e-05
3.15604326549e-05
-0.0123855095297
1.53240198702e-05
-0.0123754829101
0.0123625309048
-7.19176304164e-06
-3.6767672556e-06
-4.27183850763e-05
1.09110739595e-05
-0.0124092578056
-4.17638161249e-06
-0.0123947026713
1.91258291355e-05
0.0123864852453
3.81497090714e-05
0.0123648909296
9.9649791651e-06
-0.0123975609809
-1.02037999727e-05
-0.0123888594298
0.0123830669625
4.42037966592e-05
3.50758990098e-05
-0.0123944705792
-5.28568814896e-05
-0.0123910584895
0.0123811999488
6.30456603909e-05
-3.62964441369e-05
-0.0124046146405
0.0123943573259
-3.72491541013e-05
-2.83118428473e-05
4.03836960744e-05
-0.0124157400289
0.0123705912936
5.45881183711e-05
-0.0124031120421
-0.0124056635681
-0.0123633516811
7.35619978852e-05
3.11890320555e-05
-5.12569280205e-05
0.0123526343572
-6.17735000541e-05
0.0123746964126
7.56703552706e-05
-3.11460990683e-05
0.0123958351937
-2.65622391936e-05
-3.25628781109e-05
-5.51230215882e-05
7.33242593857e-05
0.0124125395056
-4.46413689822e-05
8.98402241883e-05
0.0123682677081
-3.27155124291e-05
0.0124014574369
-4.20257222268e-05
0.0124083132937
2.53181991586e-05
4.54184174582e-05
-0.0124162672535
-0.01240253565
5.03991859804e-05
0.0123948940659
-6.27499622389e-05
3.67103880914e-05
-0.0124297742018
-1.29618514445e-05
-0.0124269166579
6.57251199161e-05
0.0124245565386
-0.0124136582128
5.8201470776e-05
0.0124054955156
5.10514294395e-05
-0.0124240315003
0.0124191526145
5.03672622711e-05
3.09519309321e-05
-0.0124248239973
-6.25854341005e-05
-0.0124314648869
0.0124296322577
6.98693972201e-05
-2.77460526865e-05
-0.0124418393304
0.0124405420726
-1.92588726785e-05
-5.9196168666e-05
-0.0124547228578
6.0955313497e-05
0.0124176124405
-0.0124363931775
5.89811318116e-05
-0.0124388300208
-7.52249063125e-05
-0.0124041791407
2.7435461769e-06
0.0124025213618
8.07982363105e-05
0.0123877656371
6.29489189857e-05
-5.83494327604e-05
6.99822840004e-05
0.012426454552
-7.04251160638e-06
0.0124362008234
7.49325876186e-05
0.0123835548598
6.7867610465e-05
0.01244627699
8.43554787833e-05
-9.40418056748e-05
0.0124099951088
5.52417634075e-06
9.63766998676e-05
-0.0123892798706
0.000109630385563
0.0123994945521
-0.000124599430339
-4.44821566494e-05
8.60499174417e-05
-8.72578010364e-05
5.61075509689e-07
-0.0124583715395
0.000112281313103
0.0124644850576
-0.00010666847683
0.000112855194752
0.0124191258109
0.000100043077013
-0.0124161942957
8.6827979009e-05
9.78650398509e-06
0.0124181941554
-7.32496950605e-05
0.0124278350544
8.28305930918e-05
-1.86575706734e-05
0.0124477342176
-2.29210674672e-06
-8.62987220908e-05
0.0124717738217
9.09941553642e-05
0.0124311767977
9.60639586874e-05
0.0124598587248
0.0124262978661
0.000100019011768
-2.93426756705e-06
-0.000114979629365
-0.0124404925345
0.0124604997082
0.000123175395308
2.94977686467e-05
-0.0124736673661
0.0124802292514
1.96516610089e-05
-0.000102289286781
9.65855354548e-05
0.0124458104617
0.000110043225099
-0.000154559666455
-0.0124491242656
-2.07949289956e-06
0.0124862162223
0.000155414268405
-3.58978471894e-05
0.0124276144836
0.00013463947439
-5.97751645246e-05
-0.000144953383264
-3.40773876185e-05
0.000124583295118
0.0124901578883
-0.000131035340983
2.50473228015e-07
0.0124632964063
0.0001261333298
0.0124678080326
-5.60085725442e-05
-0.000172817104872
0.000133131743687
-2.82373954998e-05
0.0124940640926
0.000138463150888
-0.000173487027925
-1.29809110924e-05
0.012554528417
0.000174286734654
-5.62392817676e-05
-0.0125570120823
0.000178825799664
0.0126600692312
-0.000210291205639
-7.47952073719e-05
-3.02063880919e-05
0.000137526563385
-0.000150800642942
-0.0125385849697
4.95166849133e-05
0.000154484504137
0.012563766392
-0.000191085022008
-0.000101851262629
0.000146062534539
0.00018716296574
0.0126391227602
-4.35464691118e-05
-0.012477518214
0.000144415902612
-4.14746960222e-05
0.0125178731403
-0.000127813673838
0.01248678159
0.000134570969029
3.20073870986e-05
0.0124772341043
4.7516117292e-05
-0.000153309990906
0.0125109990404
0.000126110927554
0.0125184143923
0.000147515814034
0.0125072997088
0.000148395916442
-4.08371991318e-05
0.012569035886
-0.012565039851
-0.000163251532823
0.000157240461963
0.012624178241
-0.0125546442008
8.5463991592e-05
0.0125629773746
5.79842312012e-05
-0.000154727296717
0.00012500638393
0.000150093715402
0.0126377059503
-8.02603594334e-05
-0.0124541920962
-6.83547907256e-06
0.012459403199
6.71379830603e-05
0.0124437637395
7.06254338634e-05
-0.012444531967
-1.19737940768e-05
8.38620957834e-05
0.0124795716159
4.60920134745e-06
0.0124802396334
-0.012464790284
6.04448945067e-05
0.0124494849546
-0.0124511199237
6.31866363131e-05
0.0124889008493
6.66615025724e-05
-8.8846196548e-05
0.0124651250931
-1.92192525232e-05
7.14752649777e-05
-0.0124551060144
9.87659416941e-05
0.0124754203351
-3.01574316811e-06
9.48469721202e-05
3.47726214621e-05
-0.0125017080674
7.57075473098e-05
0.0125095546883
7.57823471669e-05
0.0124828742405
7.06487181068e-05
0.0124682431143
6.89020221192e-05
-3.0879936516e-06
-0.0124642604234
-7.62891514625e-05
-0.0124776908342
0.0124953541374
8.69608467291e-05
3.44012513231e-05
-0.0125005215431
0.0125072403057
4.02738397174e-05
-5.55430168433e-05