/*--------------------------------*- C++ -*----------------------------------*\
| =========                 |                                                 |
| \\      /  F ield         | OpenFOAM: The Open Source CFD Toolbox           |
|  \\    /   O peration     | Version:  v1906                                 |
|   \\  /    A nd           | Web:      www.OpenFOAM.com                      |
|    \\/     M anipulation  |                                                 |
\*---------------------------------------------------------------------------*/
FoamFile
{
    version     2.0;
    format      ascii;
    class       volVectorField;
    location    "1";
    object      U;
}
// * * * * * * * * * * * * * * * * * * * * * * * * * * * * * * * * * * * * * //

dimensions      [0 1 -1 0 0 0 0];


internalField   nonuniform List<vector> 
28582
(
(0.802782664464 -0.00127415073625 -0.00024622291448)
(0.802784426714 -0.0012548099496 -0.000258635366254)
(0.802707096629 -0.00122187553804 -0.000840368238619)
(0.802747948899 -0.00124479045614 -0.000810993787484)
(0.802711118144 -0.00130999020528 -0.00163292792544)
(0.80280059143 -0.00130657560342 -0.00142292227827)
(0.802774762006 -0.000796944314387 -0.00321475197083)
(0.803034949138 -0.00104264733706 -0.00233885215244)
(0.587018966764 0.0321014870023 -0.00273849123422)
(0.681641040614 0.0334260750289 -0.000975632804325)
(-0.0216529833866 -0.00830750995681 -0.0247864246814)
(0.802978112948 -0.000972064757445 -0.00297396971377)
(0.798539456816 -0.00398360343131 0.00048107660308)
(0.805435555065 -0.00152163099336 -0.00219231633057)
(0.802832110638 -0.00104596227613 -0.00210477530159)
(0.802859261104 -0.00126255447325 -0.000677705263552)
(0.797988799994 -0.00477390518901 0.00291619247342)
(0.801804169543 -0.00136714264089 -0.00159719672457)
(0.801626487222 -0.00120922772175 -0.000981127910663)
(0.803492588115 -0.00205960747949 -0.000439253329091)
(0.802937895851 -0.00112549557948 -0.000283567186613)
(0.803364746915 -0.00094094441179 -0.000305321692881)
(0.803625962716 -0.00249267356283 -0.000783741173947)
(0.802917938018 -0.00113856126592 -0.000869194307075)
(0.803372933461 -0.000953155568501 -0.000934479379601)
(0.803381113459 -0.0025858238668 -0.00112534935566)
(0.802847355976 -0.00122124018154 -0.00161395766407)
(0.803045245547 -0.00253699466791 -0.00316327328887)
(0.802577413682 -0.0011226500434 -0.00214722790871)
(0.765558229076 0.0702174684086 -0.00137668071819)
(-0.00754621974462 -0.039456857114 0.0353576012448)
(-0.0464225815665 -0.0478921734461 0.00663565530349)
(0.802758298647 -0.00288654525546 -0.00343718249732)
(0.80275337621 -0.00247705025861 -0.000448923089523)
(0.800502756182 -0.0031824706835 0.00351031791301)
(0.805122684216 -0.000935346825967 -0.000901422865022)
(0.802784973803 -0.00307986828884 -0.00649891877544)
(0.802524123119 -0.00132030804521 -0.00235399505478)
(0.802516015232 -0.00138041243966 -0.000946217574461)
(0.802390858719 -0.0014275502595 -0.00191027228016)
(0.802604495632 -0.00282226919155 -0.00487422205373)
(0.806296899066 -0.00103755931318 -0.00160482288547)
(0.802415514923 -0.00020415718196 -0.00416778044901)
(0.802181071825 -0.00289910601636 -0.00580930348698)
(0.589731678337 0.0417762302936 -0.000722901822285)
(0.69899888177 0.0555233485163 0.000511214849448)
(0.0685703089023 0.042308093613 -0.213504181685)
(0.0580010136772 0.0362663362587 -0.198296368126)
(0.613484431167 0.040099931244 0.00112806233339)
(0.032200083702 0.000343661281747 -0.153355250086)
(0.802535827743 -0.00205128803503 -0.000945622478441)
(0.804299191781 -0.000419484372806 -0.00327266310269)
(0.796542859124 0.00201862948859 -0.00474263730712)
(0.802480706898 -0.00483789837349 -0.00621999669336)
(0.803252586323 -0.00237277532837 -0.00751548269775)
(0.804792668706 0.0013334784616 -0.00230720556376)
(0.801856350848 -0.000255347649773 -0.00606163607206)
(0.802857228771 0.00048626739783 0.000773257618605)
(0.804714095532 -0.00122892053646 -0.00324250104889)
(0.802797426886 0.00536804498811 -0.0068697502135)
(0.796470956941 -0.00226466461968 -0.00385899919917)
(0.802214752641 -0.00140141982664 -0.00431766085827)
(0.798506692358 0.00425084578542 0.00172264025615)
(0.803579773285 0.000914266656558 -0.00834924318844)
(0.804621253753 -0.000868108513702 -0.00155404918265)
(0.802965851268 -0.00232138521222 0.00163273948602)
(0.795270791602 0.0020879855104 -0.00269746400225)
(0.802561832846 -0.00577581597404 -0.00588315484233)
(0.803550778056 -0.00275818746178 -0.00658314581889)
(0.805400553132 0.0012058374296 -0.00106953483129)
(0.8020469133 -0.000566730128381 -0.00331873194454)
(0.804260071971 -0.000744922733515 -0.00216990803246)
(0.805516923527 -0.000504497238794 -0.000914773111506)
(0.795708344591 -0.000907603205113 -0.00102702537178)
(0.802933421234 0.000290024658247 0.00304094728106)
(0.801801643468 0.00627633924785 -0.00556457055036)
(0.798038534429 0.00540732033813 0.00421479216359)
(0.803221953707 0.000857025928498 -0.00650324392509)
(0.80369373459 -0.00113344365688 -0.000308537558001)
(0.795868586177 0.00102039980398 -0.000491127394867)
(0.80438151617 0.00143617531511 0.000305136626923)
(0.802789519356 -0.0026165610384 0.00368391502578)
(0.802263352166 -0.0051623478175 -0.00418440417834)
(0.803021557015 -0.00261580699 -0.00447122577905)
(0.79841349748 -0.00522509343784 0.0046664168273)
(0.65721082465 0.13532670516 -0.00311306907424)
(0.0607659145896 0.0270070301762 0.219716675123)
(0.745203447746 0.138169295048 0.000431250708576)
(0.689527283414 0.138930841853 0.000142921079099)
(-0.017489441559 0.0283088762859 0.00567321345572)
(-0.00396379388504 -0.0232275902046 0.0835029246919)
(0.787937888743 0.100393831435 -0.00290497920274)
(0.115214982871 0.0667835375203 -0.0746023140988)
(0.00120454773537 0.0523320169778 -0.119066071829)
(0.780283019517 0.120241855773 -0.00338662797446)
(0.151378246969 0.0204858407966 0.205316699857)
(0.760093204999 0.116291037912 -0.00300992067936)
(0.0282927385124 0.0290912191705 0.0694402239983)
(0.803345246287 -0.0034979995526 -0.00194018526058)
(0.802815920085 -0.00270052297935 0.00136703479451)
(0.798065202967 0.0015226247845 -0.000974685321768)
(0.803233303092 -0.00378136500098 -0.00308179701391)
(0.801951951503 -0.00192643309481 -0.00296802572029)
(0.802840833433 -0.00443969205655 -0.00420834783647)
(0.805000249874 0.000682444090431 -0.00104713319039)
(0.802276187403 -0.00284653707958 0.000612654466226)
(0.803713898724 -0.00285834856814 -0.00294560582622)
(0.80318121053 0.0043966006688 -0.00366064048269)
(0.797594164014 -0.00186056866557 -0.00305608642638)
(0.802932312084 -0.00129275271696 -0.00584292249932)
(0.801742822767 -0.00432498554584 -0.0040274138628)
(0.799808169648 0.00334491416245 0.00150981928917)
(0.803194173111 -0.00381404699969 -0.00605818128528)
(0.804999805337 0.00147004968885 -0.00321736041733)
(0.80368626593 -0.00134390666692 -0.00320071269641)
(0.802148950939 -0.00456762694068 0.000539959132343)
(0.797433383351 0.000851215843455 -0.00363433783097)
(0.801636664187 -0.00309092780188 -0.00435943162625)
(0.799706968509 -0.00442915869675 0.00134881634684)
(0.802402005347 -0.00216622084909 0.00267696062518)
(0.79867524677 -0.00498200414375 0.00456439582267)
(0.802122312204 -0.00506120226169 -0.00397183605522)
(0.803161258985 -0.00129005147074 -0.00154178620613)
(0.796393890863 0.00105839385126 -0.0012876491828)
(0.801087239508 -0.000794198028754 -0.00242945716669)
(0.805182671483 0.00122129075217 -0.00044665993501)
(0.801895484518 -0.000326930422193 0.00139912541008)
(0.803571096077 -0.00154614046805 -0.00308654191751)
(0.803375165998 0.00483476441395 -0.00502287152495)
(0.798199463021 -0.000930134733511 -0.00297849882248)
(0.802331523789 0.000271875947863 -0.00628939005152)
(0.801191538972 -0.00214051761007 -0.00396204242576)
(0.800024810359 0.00489741728303 0.0028172506631)
(0.800741370241 -0.00170416784618 -0.00171403578607)
(0.80196846506 -0.000154403392387 0.00320952142591)
(0.801933762864 0.00462699395711 -0.00322710792578)
(0.798948446172 0.00488875043113 0.0040708430773)
(0.797315294663 -0.000541220830701 -0.00127653510818)
(0.802957617026 -0.00192873228725 -0.000951054182617)
(0.804946597681 -0.00148075899133 0.000179555791334)
(0.803084359129 -0.0036955413899 -0.00474110096163)
(0.8049238808 0.00126245130673 -0.00257184252175)
(0.803147540937 -0.00140182374171 -0.00367930779619)
(0.801709190979 -0.0031093357773 0.00156362050892)
(0.798385424932 0.00070098149531 -0.00304544224594)
(0.801025788025 -0.00158986800208 -0.00417687196894)
(0.80015997353 -0.00471341061413 0.00307828730998)
(0.803381253009 -0.00104183163822 -0.00181250720608)
(0.802912140883 -0.00148395303105 -0.00241558012694)
(0.701006299331 0.11622774693 0.00182593005435)
(-0.0122201544519 -0.0443952539291 0.0362292452494)
(0.802996531797 -0.00253960760444 -0.000641715991989)
(0.799024730877 0.00406508239594 3.05414509273e-05)
(0.803050265579 -0.00141852917971 -0.00212460356932)
(0.803929454144 -0.00112512843489 -0.0021402985226)
(0.800511560728 -0.00391237403365 0.0020213854128)
(0.80080215977 0.00330892140536 -0.000565971850563)
(0.804898790188 0.00217181149121 -0.00153039289446)
(0.804188251443 -0.000933590447827 -0.00176860881485)
(0.803979913009 -0.000654844499679 -0.00145318810022)
(0.798818745024 0.00459219645648 0.00203940172336)
(0.803936284549 0.00196659324029 -0.000179531362116)
(0.596764612542 0.111062183448 -0.00196581831917)
(0.683643086156 0.114672203327 -0.00374874719556)
(0.625980118652 0.0612273580052 0.000854267061748)
(-0.0104392843865 -0.0219736863247 0.016458523821)
(0.127362980025 0.00284193527665 0.231462206765)
(0.0646787378816 -0.0250537802718 0.0710889831172)
(0.643452008612 0.0284064210333 -0.000110322726099)
(0.646874857821 0.00261277011825 -9.10646051484e-07)
(0.804116150856 -0.00382573712026 -0.00274739321763)
(0.802516027069 -0.000354847268309 -1.53115527756e-05)
(0.802942483017 0.0038886959692 -0.0059366246738)
(0.796894272326 -0.00220719934768 -0.00541169577729)
(0.803097456002 -0.00196261839317 -0.00668878844184)
(0.804930020501 -0.00235510099934 -0.00225559219224)
(0.801982974181 -0.00206963343108 -0.00513619407073)
(0.804353409467 -0.00149512739117 -0.00283594315142)
(0.802454045353 -0.00280082027949 0.000899271781458)
(0.797873160814 0.00232381964258 -0.0036433435629)
(0.803948448834 -0.00431149423779 -0.00559571834908)
(0.802030429441 -0.00117489700745 -0.00433357126589)
(0.803021726026 -0.00340935905202 -0.00673934848059)
(0.805610701816 0.00149301523104 -0.00229945820133)
(0.80436558761 -0.00240380575748 -0.00265671196)
(0.802461077932 -0.000297425858723 -0.00134372812267)
(0.803852841118 0.00347038669638 -0.00540783873728)
(0.799532128244 -0.00255355902388 -0.00609831452936)
(0.802961520836 -0.000394154286551 -0.00675903265842)
(0.805213914253 -0.00200496042677 -0.00201625631369)
(0.80262126208 -0.00204863945316 -0.00693534173038)
(0.803420197911 -0.00292773550897 0.000351548541326)
(0.80574583621 2.02879003574e-05 -0.00189308515016)
(0.798068101053 0.00293110481587 -0.00534706511219)
(0.803832744658 -0.00457478788757 -0.00650673063791)
(0.803136002415 -0.000614193570322 -0.00529098633352)
(0.799663444986 -0.00377062926667 0.000863347082134)
(0.804473895604 -0.00272839758952 -0.00778174741389)
(0.805583952311 -0.00162374716493 -0.000684075705683)
(0.804177960576 0.000986349727439 0.00123014612625)
(0.802669228081 0.00511970810117 -0.00617939796467)
(0.797895714696 -0.00239308996974 -0.00472508551658)
(0.804620019169 0.00049708667896 -0.00646506114729)
(0.804371176965 -0.0021920505866 -0.000570626977884)
(0.803401867519 -0.00109121079971 -0.00501007397668)
(0.803960854743 -0.00228745108378 0.00230954890031)
(0.805252726773 0.000333011065056 -0.000904933906574)
(0.798345812937 0.00185148625046 -0.0037643705286)
(0.80254560921 -0.00475205303436 -0.00555371710678)
(0.803069754494 -0.000175052650382 -0.00336103432844)
(0.799153377206 -0.00470744307409 0.00277884558252)
(0.804498531981 -0.00196696471206 -0.0063924617724)
(0.793266120302 0.00546384398944 0.000293155214751)
(0.797611041911 0.00513401555497 -0.00120545462383)
(0.801358431287 0.00776866511488 -0.0045610265263)
(0.801805747247 0.00469313364505 -0.00383321215932)
(0.636915874555 0.201304938376 -0.00556324567828)
(0.728006626253 0.315394565601 -0.00653446246264)
(0.748477928911 0.26892007704 -0.00245220918526)
(0.707382525678 0.421841956735 -0.00133437977999)
(0.571790173917 0.158298132589 0.00473886817802)
(0.0846769617954 -0.0451570200833 -0.0815879364725)
(-0.0149583271943 -0.0703110355079 -0.0949684640643)
(0.0209662059321 -0.0676562803896 -0.063587404616)
(-0.0174963660588 -0.124493194068 -0.0603722779675)
(0.00557649160674 -0.0649784219018 0.040997190889)
(0.0155288191777 -0.0566466439882 0.0451741243855)
(0.792006941082 0.00108395859154 0.0012529388406)
(0.79293152888 0.00293000690775 0.00206313281091)
(0.793116742117 -0.000438386022433 0.00298271835589)
(0.794129884604 0.00290779931158 0.0023724560071)
(0.790898756731 0.00443069788093 0.00252537859525)
(0.79404963678 0.00348503254877 0.00228649000127)
(0.794448306267 0.00340929889493 0.00107321990799)
(0.795540291681 0.00404412024932 0.00190267132383)
(0.794825763973 0.00294062890067 0.00407849904763)
(0.796796737957 0.0046982627892 0.00132764105241)
(0.793861592373 0.00812977910307 0.00109527291315)
(0.795614814725 0.00581884563082 0.0011571474247)
(0.796759337073 0.00807095535873 0.00112278534301)
(0.794761449471 0.00371777606434 0.00426026747396)
(0.796261153168 0.00614216661459 0.00331409648872)
(0.796904234796 0.00514515853323 0.000966740875756)
(0.798788127661 0.00715210338182 -0.00186410651998)
(0.799436355517 0.0106425453327 0.00187373798957)
(0.804903027327 0.0131825925078 0.00202460979655)
(0.796922365955 0.00748057541123 0.00321088772702)
(0.801045982077 0.0101752162187 0.000830697844202)
(0.799707195111 0.00748661457946 -0.00238322101123)
(0.800951923605 0.00831811130864 -0.00403368069059)
(0.798586205328 0.0065039926208 -0.0024114827133)
(0.799118801896 0.00515209640906 0.000174494827623)
(0.797651588032 0.00476773534808 0.00182684957576)
(0.799309475806 0.00657619543711 7.02644276821e-05)
(0.800812050825 0.00470212893139 -0.00267625909305)
(0.804558768923 0.00808009333371 -0.00518287684059)
(0.801307856642 0.00573265203773 4.96215581603e-05)
(0.804054329677 0.00591620742251 -3.3563735725e-05)
(0.800632970337 0.00783617754695 -0.00117265360782)
(0.80126044005 0.00730486635314 -0.00255086997502)
(0.800798659728 0.00507098544244 -0.00302130824665)
(0.800742972847 0.0053102655101 -0.00283516215944)
(0.801267645478 0.00421779975183 -0.00224018091748)
(0.80115910457 0.0035643178468 -0.00176862125372)
(0.529982604251 -0.0464734813803 -0.00142423266009)
(0.553740911751 0.0403317671819 -0.00191682780831)
(0.573634579816 0.078288404077 -0.00424722558498)
(0.0142427768589 0.00954614201727 -0.154736178693)
(0.0198846257436 -0.00850567472766 -0.252593348114)
(0.00984715929228 0.02892974297 -0.226894817286)
(0.0143705176639 0.0147138210428 -0.3256764925)
(-0.00870118454326 -0.027010811608 -0.535413016886)
(0.0347217693695 -0.0374578672576 -0.574934052396)
(0.0059463799731 0.0115003432954 -0.422137080448)
(0.0303679346781 -0.00530827878901 -0.431172885361)
(0.603090912201 0.133395704082 -0.0019578277494)
(0.668499846208 0.203187020179 -0.00100174182672)
(0.670239804128 0.29216536497 -0.00563833133056)
(0.699818571507 0.294828655395 -0.00679047037145)
(0.710161266345 0.419876450291 -0.00555086295339)
(0.0235029971475 0.000154470134079 -0.240182090158)
(0.00261836475221 -0.00785295287316 -0.336573023921)
(0.120121802084 0.0523538003575 0.00154781499464)
(0.024321641606 -0.00247238731889 -0.0150904581682)
(0.805414046846 0.363171740738 -0.00788380553896)
(0.725779963463 0.473931977896 -0.00583313742466)
(0.734620394373 0.45250927323 -0.00725067683547)
(0.0115534797626 -0.0300289138759 -0.406765032215)
(0.039259504682 -0.0102479754516 -0.28095274946)
(0.090158393335 -0.0306748962415 -0.0442196842731)
(0.0527813904178 -0.044432783944 0.0263781057822)
(0.745095589573 0.381749309207 -0.00473945000843)
(0.751669717219 0.335959076984 -5.17469808269e-06)
(0.0712454594159 0.0137261757485 -0.0737018154851)
(0.0894310163158 -0.00301613938885 0.0657529700207)
(0.111228207891 -0.00929906316171 0.349598870607)
(0.663429343011 0.384967929112 -0.00129372216256)
(0.616580752805 0.352190819024 0.00242750081732)
(0.551876257 0.254760329249 -0.00119281781239)
(0.0331703590709 -0.0597604826996 0.125559300522)
(0.110629051961 -0.0728841649539 0.191037580287)
(0.152421575636 -0.0196607563256 0.422812720846)
(0.108799441585 -0.0493417327516 0.27460785184)
(0.792400898336 0.00135347580009 0.00148436922808)
(0.791881932431 0.00056319150408 0.00312053295051)
(0.793937139456 -0.000416473077385 0.00276385332825)
(0.792866642453 0.000245328100758 0.000258850336588)
(0.791715359445 0.00149229009209 0.000741486044597)
(0.79334572144 -3.38996102367e-05 0.000961956993473)
(0.792427074692 0.000807470237455 0.00305127848919)
(0.792987592309 0.00245068189851 0.00279019986511)
(0.792910810028 0.00397282070356 0.00275101691425)
(0.793632947586 0.00189086811551 0.00232605427451)
(0.794398268946 0.00242750409776 0.00224951559789)
(0.792136564315 0.00309908160578 0.00291336878921)
(0.793361367272 0.00341665067959 0.00274553192223)
(0.793996808304 0.00131420442835 0.00202075873905)
(0.791189419002 0.00398192317012 0.00283334616354)
(0.79234342814 0.00466677654557 0.00305867658183)
(0.793382012665 0.00249188205708 0.00209327129453)
(0.794301881716 0.00448277330103 0.00211717765392)
(0.791717840691 0.00365172133832 0.00281667884279)
(0.791833719169 0.00556411700274 0.00296599448909)
(0.793730602424 0.00285250644253 0.00202048504553)
(0.794414348834 0.0025679179152 0.00171998947195)
(0.793626601981 0.00358907908655 0.00394404099522)
(0.795255155155 0.00230308134558 0.00395438222379)
(0.795330733671 0.00331632469002 0.00111964515508)
(0.794151425922 0.00311726147783 0.00368989093094)
(0.794054131002 0.00322715995289 0.00120862214898)
(0.795194375339 0.00266012036392 0.00165743697371)
(0.794987264223 0.00300270984277 0.00229669211772)
(0.795625394951 0.00442657436151 0.00146780502539)
(0.796269927848 0.00460377223887 0.00186055461775)
(0.79714031445 0.00387792091405 0.00130045879844)
(0.794787150758 0.00388295307925 0.00222891564962)
(0.795828642486 0.00366938596725 0.00150486299669)
(0.796098203611 0.00367790473867 0.00188011678168)
(0.794114949197 0.00464040940786 0.000407157328205)
(0.793147648795 0.00440732291777 0.00432861966874)
(0.795082122936 0.00438787210943 0.00422458216231)
(0.795601446172 0.00427380481572 0.000616030247387)
(0.792789903916 0.00530727835049 0.00395096751651)
(0.794086167586 0.00395592240635 0.000820570912274)
(0.796459372526 0.00482989297832 0.000251964843832)
(0.793993519876 0.00589453985186 0.000669375127734)
(0.79345708493 0.00750611168583 0.00325801310999)
(0.795661983759 0.00538382689528 0.00341755203873)
(0.797570228502 0.00688082194785 -0.000226852981489)
(0.792790360282 0.00651703492597 0.00317291437311)
(0.794611440995 0.0067926827988 0.000363055534871)
(0.796891833714 0.00593158354933 0.000426973252403)
(0.794848128634 0.00532035144998 0.000839025348205)
(0.795505900349 0.00530347040669 0.000985273512746)
(0.796543041328 0.00497230157853 0.0016648628495)
(0.797562917378 0.00582956376056 0.000208434783415)
(0.794865967967 0.0044102275049 0.0016189919932)
(0.79554941157 0.006167849858 0.00043911141824)
(0.797003377014 0.005602318053 0.00112895290776)
(0.794954518045 0.00597719597593 -6.80697525824e-05)
(0.79670703241 0.00809670005641 -0.00140024028944)
(0.798612226571 0.00703664756477 -0.00123979301739)
(0.798368222672 0.00678715359395 -0.000787307691635)
(0.795812543976 0.00714674967688 -0.0015498503595)
(0.795889241133 0.00724447134251 -0.000763250037865)
(0.797783790816 0.00648696474116 2.11755418207e-05)
(0.798040420206 0.00984787737358 0.000609618639021)
(0.794523992503 0.00896835594438 0.00332085280186)
(0.798839402602 0.00793011698176 0.00300245138948)
(0.797837835541 0.00828639425856 7.74181998553e-05)
(0.796938886469 0.0103768277342 0.00273526359772)
(0.79591755664 0.00839913630613 0.00028410655534)
(0.798653436712 0.00885706913892 -0.000554566164)
(0.801039620174 0.0111851408402 -0.000404848166842)
(0.805822936054 0.011982815172 0.000146361039579)
(0.799602126323 0.0091628388984 0.00292792756353)
(0.80321233144 0.0109664164791 -0.00234575271263)
(0.800672391494 0.0114754573089 0.00296981287579)
(0.800424356089 0.00848959023699 -0.00100557795348)
(0.805342341637 0.0118800956105 -0.00215977069448)
(0.799903370421 0.00931558303932 -0.00248579118924)
(0.798291313371 0.00880151970347 -0.00177850732944)
(0.798815770556 0.00774278109626 -0.00114845161765)
(0.80070259159 0.0091938874341 -0.00250026669861)
(0.797717311697 0.00810392386639 -0.00174818150628)
(0.800098301913 0.00972983171094 -0.00242947845612)
(0.799342140488 0.00907625283879 -0.0014706512052)
(0.802502801241 0.0101408200208 -0.00270406857241)
(0.805615388536 0.0106902306623 -0.00364347336213)
(0.803785402556 0.00839819720224 -0.00292819728885)
(0.800549978103 0.00917532249638 -0.00289453837516)
(0.802865324571 0.00997523587409 -0.00250929690971)
(0.801535495521 0.0102393838997 -0.00187541874698)
(0.806007828745 0.0110667211722 -0.00587201276576)
(0.797198435518 0.00446169593153 -0.000735488055137)
(0.796487204374 0.00494773894119 0.000998958285005)
(0.798471525122 0.00560446501104 0.00165007807736)
(0.798248027596 0.00406853031252 0.000126592644071)
(0.796601709301 0.00578635843796 0.000616145813864)
(0.79705941022 0.00410786974977 -0.000447489635069)
(0.798995904026 0.00483623630063 0.000173078688755)
(0.79748245999 0.00482611118697 -0.00150332308666)
(0.797583976382 0.00726127004643 -0.00188140710708)
(0.798931691425 0.00606449010495 0.00123678130657)
(0.800475028218 0.00576806611044 -0.00134137690494)
(0.796905438767 0.00648285868947 -0.000361428443216)
(0.798280424273 0.00533862148271 -0.00248422540053)
(0.799476084529 0.00513171286043 -0.000511043664242)
(0.797739314572 0.0042401491856 -0.000239137165467)
(0.798933654724 0.00546977555247 -0.00254179088847)
(0.800355324667 0.00463776048832 -0.00147774910776)
(0.800519528547 0.00389022372294 -0.00195108105539)
(0.798371705538 0.00456100769796 -0.00185727650718)
(0.798111437761 0.00509827192577 -0.00177932515776)
(0.799833315212 0.00388855204833 0.000108618119353)
(0.80107813997 0.00620188122681 -0.00415757284873)
(0.799333636232 0.00798130230976 -0.00323063174094)
(0.801355619894 0.00718350239196 -0.00178673910507)
(0.800098327739 0.00610151368279 -0.00224257525076)
(0.800934653113 0.00889530929039 -0.0046561867228)
(0.799662804977 0.00557943275262 -0.00349586892994)
(0.799958665037 0.00549395410887 -0.00332620401788)
(0.803057648127 0.00613045274086 -0.00456407426569)
(0.805830259716 0.00896946231194 -0.00570959313021)
(0.800917321903 0.0070799873195 -0.00204602111537)
(0.801506641035 0.00562202628032 -0.00397619789841)
(0.803374610744 0.00896968984484 -0.00471842154093)
(0.800786324228 0.00504286504236 -0.00362601778237)
(0.804775612274 0.00628534357737 -0.00546022741369)
(0.80160325102 0.00531090249334 -0.00341834388939)
(0.800317971424 0.00592753704555 -0.00280272574968)
(0.800422383374 0.00481593959677 -0.00209856774683)
(0.800634351153 0.00515362498011 -0.00336611054681)
(0.800063946714 0.00502883944794 -0.00255971045627)
(0.801496971238 0.00615555196093 -0.00335042286063)
(0.800500112817 0.00526422457516 -0.00237914195928)
(0.803494337731 0.00542526323753 -0.00306384290634)
(0.804878121388 0.00671566170542 -0.00258934490057)
(0.801728938104 0.00506760528447 -0.00254295289052)
(0.800580220948 0.00503736291657 -0.00314665598436)
(0.803673782166 0.00611907057617 -0.00327729244031)
(0.800908575532 0.00541637462845 -0.00197864081975)
(0.80500311457 0.0058646509099 -0.00432811577862)
(0.802155472655 0.00453321874486 -0.00431269451886)
(0.800630951097 0.00563699554025 -0.00363812309823)
(0.800975518627 0.00466362388495 -0.00325939666747)
(0.801231839265 0.0023884393298 -0.00332762433046)
(0.802013060764 0.00597451064257 -0.00517370415179)
(0.800969358394 0.0040215476745 -0.00427635649295)
(0.801100545211 0.00262462231802 -0.00365884777473)
(0.805331103169 0.00580028072279 -0.00353673141653)
(0.80093208711 0.00485498215257 -0.00306806342364)
(0.803993084492 0.0064404746006 -0.00495916381991)
(0.80296780688 -0.00208110012347 -0.000357213368553)
(0.802719528768 -0.00173848492055 -0.000303552647822)
(0.802773527839 -0.00140281807776 -0.000288854195156)
(0.803580469355 -0.000763737385199 -0.000286410779295)
(0.804588903632 -0.000638105768098 -0.000320329423284)
(0.801719309034 -0.000892623832017 -0.000349458096267)
(0.803200754271 -0.00238052093747 -0.000802324416781)
(0.802800623921 -0.0018301382796 -0.000801620392649)
(0.802796120245 -0.00144484366315 -0.000835521040915)
(0.803570822852 -0.000762560616662 -0.000827086053311)
(0.804544872278 -0.000636056781958 -0.000898939402878)
(0.801609462463 -0.00087754978578 -0.00103260997467)
(0.799391850537 -0.00252689010726 0.0061939912566)
(0.79639834849 -0.00145690174383 0.00170120083007)
(0.79794259745 -0.00129498088958 0.000279666219503)
(0.799837817849 -0.000649875727048 -0.000157326764282)
(0.801489960414 -0.000356954279547 -0.00027552984502)
(0.802223246511 -0.000231515603857 -0.000281477231915)
(0.803979598282 -0.00016494022098 -0.000330758154455)
(0.801137188653 -0.000202804728552 -0.000369304897004)
(0.804013314278 -0.00915045694305 0.00252486881529)
(0.799364575888 -0.00560810097151 0.000469459369911)
(0.799629646141 -0.00344266173048 4.16192521209e-05)
(0.800689701402 -0.00194832270853 -0.000231014071046)
(0.801855570268 -0.00107027672704 -0.000284103352058)
(0.802440077466 -0.0006477068759 -0.00027949131462)
(0.804059003697 -0.000429448378873 -0.000330920625531)
(0.801223587854 -0.000536187744265 -0.000366166437144)
(0.804631261959 -0.00532597932209 0.000300943822418)
(0.802111823745 -0.00369335569881 -4.57372904839e-05)
(0.801517218446 -0.00235376801645 -0.000190840494352)
(0.801598592636 -0.00166497838218 -0.000254990961616)
(0.802325399419 -0.00119626405643 -0.000278191016742)
(0.802759642582 -0.000853372151986 -0.000265656110221)
(0.80418989575 -0.000615812292617 -0.00030754530478)
(0.801343571868 -0.000781466948531 -0.000336937057191)
(0.803815303706 -0.00336708788271 0.000272877743856)
(0.802408926444 -0.00303461605326 -4.0106960786e-05)
(0.802085756902 -0.00249740651342 -0.000160235050568)
(0.802349640267 -0.00184249671169 -0.000231086706085)
(0.802879130804 -0.00132351469001 -0.000263679685381)
(0.803165292681 -0.000964412029095 -0.000256976469611)
(0.804359842244 -0.000734637876437 -0.000295307196594)
(0.80150223342 -0.000964416869691 -0.000323339557688)
(0.80317502009 -0.00112921995433 -0.000290091100323)
(0.803406881857 -0.00089253123789 -0.000270880727668)
(0.804485494315 -0.000724644350967 -0.000306036368885)
(0.801625080419 -0.000992094120434 -0.000332925681982)
(0.767188912615 -0.000375965603042 0.0141265061495)
(0.788996132749 -0.00165883211415 0.00411222684334)
(0.796500246044 -0.00155811331844 0.00029136142144)
(0.799344794358 -0.000708480242809 -0.000328856824757)
(0.801381626454 -0.000352041719851 -0.000692252488222)
(0.802160466468 -0.000226437123643 -0.000746741352003)
(0.803927377208 -0.000173781484568 -0.000906536619577)
(0.801015848731 -0.000212633293026 -0.00107159442528)
(0.794582445801 -0.0180645575183 0.00711567305509)
(0.796049417835 -0.00819410188374 0.00154843485679)
(0.798796651131 -0.00386181704251 -0.00015854338315)
(0.800442350339 -0.00204438288083 -0.000462690765588)
(0.801835046614 -0.00107749729287 -0.000706629677244)
(0.802408090687 -0.000633773320075 -0.000738567036379)
(0.803997464999 -0.000410022767793 -0.00089456685069)
(0.80111294014 -0.000500054696419 -0.00106119323613)
(0.804571706748 -0.00842829515344 3.74637369112e-05)
(0.802102995201 -0.00493553127692 -0.000266708214695)
(0.801447213757 -0.00263306400304 -0.000516494127103)
(0.801554158463 -0.00167322954842 -0.000673350829392)
(0.802332023046 -0.0011760936746 -0.000773020045148)
(0.80274360804 -0.00082798789957 -0.000727315685579)
(0.804141303327 -0.000581788275996 -0.000825375925243)
(0.801240178853 -0.000714062505147 -0.000961798967696)
(0.803381693977 -0.00220422968591 -0.000275783884939)
(0.802052575019 -0.00270182522763 -0.000547267132765)
(0.801885096624 -0.00247644652422 -0.000601787585653)
(0.802220850588 -0.00189375869859 -0.000711949329299)
(0.802859539033 -0.00133166016491 -0.000786074011063)
(0.80313809243 -0.000966014403577 -0.000721653869374)
(0.80431653277 -0.000733447767243 -0.00079647204783)
(0.801398024113 -0.000946838140429 -0.000918601335971)
(0.803191504914 -0.00116790512365 -0.000853771049611)
(0.80339825469 -0.000917279957103 -0.000766391223707)
(0.804441314284 -0.000747585850653 -0.000841390405946)
(0.801521029193 -0.00100665326579 -0.000964834985107)
(0.7564542235 -0.00725563925239 -0.000442719125946)
(0.783790375243 -0.00303481615276 -0.000113848391797)
(0.795994544199 -0.00184493551821 -0.00216469375661)
(0.798564952985 -0.000769429612088 -0.00196558263507)
(0.800878076377 -0.000299201756606 -0.00200962192633)
(0.801942731081 -0.000186172454825 -0.00157016172227)
(0.803740878698 -0.000204251109295 -0.0017786957401)
(0.800643440322 -0.000268900534782 -0.00242998630061)
(0.790074760698 -0.0210917780714 -0.000226266653151)
(0.79474083719 -0.0089965379475 -0.000868400373898)
(0.798789541274 -0.00419894596945 -0.00268016300576)
(0.799916453119 -0.00228074711943 -0.00222304433189)
(0.801471528943 -0.00115391194108 -0.00177363284865)
(0.802160564074 -0.000633556826707 -0.00147562156954)
(0.803814312024 -0.000351170809601 -0.00179192449623)
(0.800770494796 -0.000410698812176 -0.00241626268125)
(0.804223264041 -0.00839658316133 -0.00255211415476)
(0.801473770683 -0.00514462842175 -0.00160396629642)
(0.801000019427 -0.00326379713079 -0.00153090459783)
(0.801339766862 -0.00211317350676 -0.00162695587957)
(0.802286352847 -0.00132955664426 -0.00157914805651)
(0.802696501156 -0.000846670651144 -0.00131422695359)