/*--------------------------------*- C++ -*----------------------------------*\
| =========                 |                                                 |
| \\      /  F ield         | OpenFOAM: The Open Source CFD Toolbox           |
|  \\    /   O peration     | Version:  v1906                                 |
|   \\  /    A nd           | Web:      www.OpenFOAM.com                      |
|    \\/     M anipulation  |                                                 |
\*---------------------------------------------------------------------------*/
FoamFile
{
    version     2.0;
    format      ascii;
    class       volVectorField;
    location    "13.55";
    object      U;
}
// * * * * * * * * * * * * * * * * * * * * * * * * * * * * * * * * * * * * * //

dimensions      [0 1 -1 0 0 0 0];


internalField   nonuniform List<vector> 
28582
(
(0.814279221564 0.00389968009877 -0.000447546188834)
(0.815386516963 0.00284068626109 -0.000741238595423)
(0.814386617483 0.00411723424284 0.000235636737472)
(0.815646063645 0.00262518047815 8.05358087312e-05)
(0.814536813674 0.00405625381603 -0.000345977417453)
(0.815241701837 0.00253410248712 -0.00120239722757)
(0.816663579261 0.00499492917696 0.000691535519843)
(0.818814030855 0.00252761899776 0.00102453373873)
(-0.161701085578 0.0125271525631 -0.00839153238065)
(-0.34135436709 -0.0916541333005 -0.00768105932165)
(-0.0165120604948 0.0510807445892 -0.229496902863)
(0.817520381392 0.00352475498494 0.0015161791646)
(0.749995370876 -0.00114619264077 0.000816588640792)
(0.752648683995 0.000209553641955 0.00135714055487)
(0.81941640569 0.00163334049949 -0.0012779349948)
(0.818381454704 0.00117738811141 -0.0013880983729)
(0.754270392529 0.000533329738716 0.001437411089)
(0.817936497418 0.000157868737334 -0.0027735191777)
(0.817414072185 -0.000166989722243 -0.00409932416461)
(0.81372728188 0.00719051691974 -0.000655262104958)
(0.816748579741 0.00115457149318 -0.000494651340403)
(0.816874593965 0.000484558594346 -0.000791255209559)
(0.814138422166 0.00742538680551 -0.000762494137652)
(0.817223745611 0.00140517442908 -8.66841038385e-05)
(0.817105989379 0.00056244096072 0.000265199505098)
(0.814898882199 0.00772175217752 -0.000270081162128)
(0.817250668609 0.000987801090447 -0.00167656720452)
(0.817463541699 0.0102003095389 -0.00104615446142)
(0.820202612421 0.000548012840134 -0.00400208420646)
(-0.352529021457 -0.101872913505 -0.00908926408344)
(0.0589623185143 0.274683944706 -0.32802274969)
(-0.101281997485 -0.205927451339 -0.111745065628)
(0.818580460701 0.00886712937389 2.34542080874e-05)
(0.81712635301 0.0076226789008 0.000118548515877)
(0.753793486684 -0.0058462124584 -0.000720304823826)
(0.748661405591 -0.00775598898442 -0.000332296323944)
(0.815460573453 0.00639934237594 0.00193924627554)
(0.821010394095 -4.65766555028e-05 -0.00461440498758)
(0.81938797441 0.000357751026386 -0.00335720564234)
(0.820528210612 3.86305424833e-05 -0.00422534179084)
(0.818316702544 0.00013795468312 -0.00335965415225)
(0.74976353404 -0.00200432749868 -0.00256961978286)
(0.817971570594 -0.000232517708328 -0.00439514077769)
(0.818931656137 0.000356977057364 -0.00629685127849)
(-0.204536293235 0.00450887724117 -0.00941824530946)
(-0.0872696045475 -0.013271403998 -0.0111920984448)
(-0.0888427145304 0.17581235452 0.0461467787773)
(-0.078393353847 0.148936270731 0.0226366323666)
(-0.304621970591 -0.0494712400505 -0.00725946160289)
(-0.105645616126 0.113200782291 0.0171903221627)
(0.815291020948 0.00444634486655 0.000993778489928)
(0.815070665956 0.00355564378848 0.000531284335273)
(0.750356690915 -0.000409724496814 0.000852354164452)
(0.751463450867 0.000739109505047 0.000411514140431)
(0.814589513902 0.00406866317425 0.000270776909153)
(0.751522593648 0.00168498760771 0.000610108064598)
(0.815794596906 0.0039748329483 0.00101291816703)
(0.815728785067 0.00281759517444 0.000777805708577)
(0.81726011381 0.0026916767998 0.00111698838343)
(0.751464580578 -5.19604454639e-05 0.00120495663089)
(0.75332344573 0.00261461601432 0.00117857180716)
(0.816297859345 0.00228075111778 0.000461313077068)
(0.752346055135 0.00197689431944 0.00105579232782)
(0.816547069624 0.00323708634345 0.00137292888679)
(0.817160854397 0.000959289680165 -0.000200870128275)
(0.817627183833 0.00194750901287 0.00125644363496)
(0.754815090181 4.74835805695e-05 0.00147436780359)
(0.754342581598 0.00249284148978 0.00118861927295)
(0.816696361437 0.00148557079999 0.000509462303038)
(0.754725581034 0.00177725043259 0.00116212949003)
(0.817992902423 0.00141545813867 0.000788674470573)
(0.818413526048 0.000560923739729 -0.00130594136344)
(0.75559364144 -0.000960367644056 6.87207283863e-05)
(0.755313807947 0.000857176854501 -0.000748226222671)
(0.817603144127 0.000408525443087 -0.000928411454024)
(0.755338163853 -0.000314576795524 0.000869868413196)
(0.755029964668 0.00143178915969 0.000335131900193)
(0.818231286826 0.000966556715517 0.000149722619159)
(0.817013624603 0.000772767880471 -0.00488650412595)
(0.75553161354 0.00228108253128 -0.00219037042816)
(0.755733291094 0.00263636073772 -0.00293913173852)
(0.816811998207 0.000100355354511 -0.00233762321012)
(0.755403468431 0.00237068437388 -0.00220397340297)
(0.816317003995 0.00123031093971 -0.00278983210921)
(0.754934400789 0.00258623290068 -0.00172917167484)
(-0.0993680394895 -0.092672674971 -0.00259442409851)
(-0.103162001046 0.146517194817 -0.0426229843156)
(-0.151583710812 -0.114543016919 0.00549772518583)
(-0.153621253996 -0.156865312659 0.000959713036299)
(-0.147471085176 0.0795518567989 -0.0675529979869)
(-0.142691048089 0.0804980236313 -0.0414211731656)
(-0.187231424416 -0.0936735998888 -0.00674019132018)
(-0.0690967350371 0.0213722938306 0.0434271126418)
(-0.0516584273584 0.0325657815601 0.0213908147155)
(-0.252251220412 -0.137549455895 -0.00125612908848)
(-0.0859572458218 0.00158143918277 0.0214870235616)
(-0.340823768479 -0.11393234226 -0.00589633046458)
(-0.061098492342 0.0101408289682 0.00915750833838)
(0.816730952562 0.00974525710908 0.00104123411238)
(0.817309178245 0.0109036217914 -0.000426656377583)
(0.752060605451 -0.00649606656565 -0.000570314875876)
(0.752626342835 -0.00620904144516 0.000762676906875)
(0.817476116282 0.0102383644601 -0.000257400253351)
(0.816704398859 0.0104301799637 0.000694890424696)
(0.751190688596 -0.00688841013357 0.001144395159)
(0.816895345304 0.00893541447929 0.000639832736704)
(0.817743992003 0.00876030003239 -0.000627250344476)
(0.750351601539 -0.00733586527044 -9.99204109714e-05)
(0.748260162203 -0.00734500056887 0.0012475765798)
(0.817659721844 0.009358613792 -0.000625344926473)
(0.816981869863 0.00834557378105 0.000473769993978)
(0.749587234226 -0.00721835780458 0.00117446806338)
(0.750435721422 -0.00405121309255 0.00279865719881)
(0.749472811843 -0.00373041606629 0.00260928120976)
(0.815564370598 0.00584172569654 0.0015287474052)
(0.816162342957 0.00787621978665 0.00167284599228)
(0.748728004921 -0.00598101204916 0.00226960844707)
(0.816256018765 0.00729260801005 0.00129786096489)
(0.749864438603 -0.00605650246626 0.00242785017187)
(0.818720825693 0.000664435169868 -0.00203879439436)
(0.754709618509 -0.00134578204546 -0.000968101880333)
(0.754592059603 0.000920834486288 -0.00202685175632)
(0.818721428463 0.000129453321707 -0.00447916713848)
(0.753376753219 -0.00171480843465 -0.001616641065)
(0.818805198218 0.00059824588685 -0.00318863034225)
(0.752866503519 0.000982519331573 -0.00259729622516)
(0.818928299189 0.000448320311326 -0.00443419609734)
(0.819161207107 0.00130434165749 -0.00402366991101)
(0.751748566104 -0.00168706874068 -0.00229924085454)
(0.749293777513 0.000761691525178 -0.00337891276335)
(0.818993471836 0.00112326053219 -0.00337418152035)
(0.819222691744 0.000604945960704 -0.0047685749206)
(0.751526198178 0.00104562037159 -0.00321617840194)
(0.818439908053 0.000194079263198 -0.0063700758891)
(0.8177024574 0.000361568503472 -0.00517564529522)
(0.755559234704 0.00243892717552 -0.0030886157383)
(0.755662472513 0.00276600932078 -0.0040983250004)
(0.754531360545 0.00275478813988 -0.00431505618031)
(0.818495412419 -0.000224852837401 -0.00537872612024)
(0.754679887587 0.00245459183907 -0.00322254338999)
(0.752801752297 0.00251017202384 -0.00520009712612)
(0.749717877302 0.00154771904347 -0.00536104166711)
(0.819613370393 0.000631036157834 -0.00660173019099)
(0.818862324345 0.000129956419301 -0.00533469597746)
(0.750804126917 0.00166026862029 -0.00428713534858)
(0.819338801128 0.000295730151977 -0.0057070039861)
(0.753124619423 0.00221316190968 -0.00414487704015)
(0.818799929439 0.000389382459029 -0.0017764072141)
(0.821464111357 -1.69771191424e-05 -0.00418103840623)
(-0.313649944238 -0.110164548847 -0.00402081452601)
(0.0650245951914 -0.0498791296132 -0.183300936669)
(0.818228636545 0.00628745488675 0.000404145060782)
(0.749015027013 -0.00295389297561 0.00244542362775)
(0.821493173003 0.000226975054764 -0.00376281103682)
(0.822280085831 5.10488553941e-06 -0.00186686866052)
(0.747562451418 -0.00267482109811 -0.00291452389339)
(0.746794801551 0.00054970343295 -0.00575253598988)
(0.737787615431 -0.00410969088752 -0.00249951544801)
(0.822582683916 0.000210010133072 -0.00147564370919)
(0.82224314354 0.000206909291824 -0.00162461548002)
(0.735680092891 -0.00603750254053 -0.00125851411585)
(0.734892360782 -0.0116575651671 0.000228276183274)
(-0.176528465379 -0.0846697860597 -0.0109068615171)
(-0.27168537464 -0.148228356505 0.00233128894065)
(-0.276161407471 -0.131576834717 0.0044341542056)
(0.00442584606715 0.0258848329396 0.0233001073554)
(-0.0166200330832 -0.0275871302432 0.0189346364917)
(0.0328450884457 -0.0265329355928 0.00564441029961)
(-0.230952904133 -0.0667281457172 -0.000251547031419)
(-0.153985628945 0.00651726759312 -0.00317767096479)
(0.817446108347 0.00607431157793 0.000614530814284)
(0.816011344838 0.00526577144536 0.00146032575773)
(0.748515350282 -0.00588126602719 0.0021205498016)
(0.749566364272 -0.00253892640738 0.00226062916612)
(0.816684736938 0.00662108344323 0.00131985035726)
(0.748868360878 -0.00577027211975 0.00184917461355)
(0.816701628773 0.00474361935834 0.000785880705872)
(0.81969120668 0.00141181739544 -0.00464396947423)
(0.819256150831 0.00157022510091 -0.00393821699986)
(0.745155903812 -0.00375572542198 -0.00286885135376)
(0.74683707592 9.152895995e-05 -0.00352144769081)
(0.819527829996 0.00185072648018 -0.004208012074)
(0.819449319638 0.00108257074364 -0.00463027553373)
(0.744101010941 -0.00111825431909 -0.00314763215531)
(0.819762272993 0.00126121520041 -0.00539180172587)
(0.819956017076 0.00144793914408 -0.00669517969381)
(0.747849504724 0.000638502142341 -0.00463259989886)
(0.743238718555 -0.00078155572799 -0.00499363972453)
(0.819578110176 0.000968917471759 -0.00564485235705)
(0.744577150556 -0.000800807531793 -0.0042364533144)
(0.82006972582 0.00171248258612 -0.00595927498115)
(0.820097396404 0.00169651993688 -0.00515829376937)
(0.820579980844 0.00242449382267 -0.00393508718961)
(0.739410384044 -0.00409468603853 -0.00313323180931)
(0.740150251555 -0.00251930249333 -0.00378520772645)
(0.820481941955 0.0020561536103 -0.00423776040409)
(0.741818999506 -0.00248319541416 -0.00364808708722)
(0.820450722751 0.00215865273228 -0.00535256897737)
(0.821278324702 0.00224708979757 -0.00208900636672)
(0.820866332108 0.00229291474516 -0.00290706722149)
(0.737303064766 -0.00612171705738 -0.00210483165006)
(0.734940444626 -0.00785882905688 -0.000161734186028)
(0.820992848306 0.00212738713782 -0.003330785828)
(0.736276178428 -0.00810419264578 -0.00116253269356)
(0.821027341963 0.00227685062755 -0.00164634065643)
(0.821102684993 0.00204812980768 -0.00142462104184)
(0.820834788468 0.00179381917711 -0.00078173223132)
(0.735717757657 -0.0116472214222 -0.000467462760494)
(0.734426940722 -0.00980813351863 0.000229027050716)
(0.82106352425 0.00197444600848 -0.00143073767547)
(0.73584905601 -0.010027849717 -0.000583098578473)
(0.820924932727 0.00187547859252 -0.000770905312794)
(0.792982845738 0.00771987317244 -0.00210545354735)
(0.799948413666 0.0117308381189 -0.00357375419565)
(0.80449076519 0.0183271895575 -0.00369240102629)
(0.80829101338 0.0121595548359 -0.00156526234474)
(0.133431651306 0.139248690423 0.00551111237254)
(0.182522703469 0.123814799907 -0.00930926002009)
(-0.174164526976 0.0334459395967 0.00135567906357)
(-0.088943768995 0.0376240615498 -0.00662947855991)
(-0.266420687024 -0.0248328944382 -0.00868646669293)
(-0.0866450010779 0.0166589340661 -0.0415409030755)
(0.0485341018111 -0.334864495542 0.0681508465159)
(0.0181765976339 -0.126536530202 -0.0787488693944)
(0.310635431073 -0.116930691783 -0.0543359427548)
(0.0550675554679 -0.0251787016888 -0.205018730147)
(0.35398113783 -0.04835590063 -0.136872527157)
(0.789298721914 0.000160619400801 6.45131715077e-05)
(0.79054603891 0.00237860837726 -0.00047719735457)
(0.757231394747 0.0071335649759 0.000715104578925)
(0.760571977775 0.00777608957604 -0.00165140981463)
(0.788795838448 0.00466380923047 0.0012014026232)
(0.756683759615 0.00867821402903 -0.00046000637765)
(0.792453329895 0.00493312096338 -0.00146929046148)
(0.795191392123 0.00758582705172 -0.00198136325903)
(0.760891599155 0.006709377362 -0.00248172529507)
(0.760498503122 0.00381371658664 -0.0057877450788)
(0.792582921195 0.0127891222006 -0.000870739866749)
(0.796785640587 0.0110643241248 -0.00283322799074)
(0.797947110955 0.014496822111 -0.0025347108194)
(0.757222513085 0.00760109389955 -0.00180239641297)
(0.748323014855 0.0114533974586 -0.00250872275732)
(0.75700576948 0.00368822487967 -0.00540294313557)
(0.749168876521 0.00547495494015 -0.0064163082691)
(0.80084232766 0.019580666593 -0.00387594694886)
(0.804654636671 0.0253494299887 -0.00299561063325)
(0.746591059425 0.0134442603017 -0.00328527169863)
(0.751136614927 0.0203866976097 -0.0114703732499)
(0.748086976815 0.00666540410671 -0.00639162589477)
(0.750366936963 0.0108984656826 -0.00750104232775)
(0.801594801634 0.0150813560174 -0.00275371597077)
(0.804114000133 0.0133095919141 -0.0022337831787)
(0.755976744553 0.00286038888697 -0.00405297309643)
(0.748721243269 0.00373584766315 -0.00413874724709)
(0.747585688357 0.00251183366252 -0.000453503600966)
(0.807721160315 0.0216513902256 -0.00485047482909)
(0.806784199587 0.0152624216985 -0.00244638770018)
(0.808944375333 0.0173577226995 -0.00341990624195)
(0.74788654536 0.00440998692243 -0.00425619716084)
(0.750279682222 0.00752221862747 -0.00552746988724)
(0.747323124787 0.00227685988822 -0.000497474919656)
(0.750789748283 0.00249819626628 -0.000866229366455)
(0.746715287065 0.00250662285021 -9.20632959728e-05)
(0.750801802021 0.00209150479339 -0.000392640197157)
(0.165973673961 0.102664420748 0.00942054707322)
(0.138891726714 0.143616863171 0.00967118728031)
(0.200035591277 0.144564506825 0.00665973161738)
(-0.175197789828 0.087105586578 -0.113679844119)
(-0.125667790035 0.140707562762 -0.0587867558107)
(-0.191453368444 0.0133533572197 -0.104055663379)
(-0.0944822561754 0.044390803727 -0.0697612257626)
(-0.082417116447 -0.00104590308871 0.0540332913971)
(-0.227132587178 0.0271920224071 0.13379156882)
(-0.0656548769964 -0.0375813187173 0.0626649377526)
(-0.243091802795 0.0781451865818 0.168418142033)
(0.0734476477072 0.135052392501 0.00757693552458)
(-0.0662483556724 0.0980694237838 0.00458919169681)
(0.17866684558 0.134112764077 0.00236580158751)
(-0.00164459696817 0.0960546957847 0.00217019107289)
(0.0285866357399 0.0929587305923 -0.00239701284694)
(-0.0767866008115 -0.0552999361298 -0.0104230775982)
(-0.0127326207025 -0.0366950654402 0.0271803881256)
(-0.0413906331279 -0.0535937502605 0.0332719434018)
(-0.00224648083257 -0.0489167883861 0.0719516499514)
(0.155683011539 0.10696987538 -0.0286092268577)
(0.045465784213 0.0825165001563 -0.00947603232668)
(0.0281663673134 0.0738322610815 -0.0169652707053)
(-0.0075582168833 -0.0298838721015 0.12651172091)
(-0.0749847875476 0.0336131253123 0.203116637692)
(-0.017501006286 -0.0799749127886 0.11168882336)
(-0.0267168016702 0.0159691302437 0.151577043581)
(-0.126974317913 0.0351461457501 -0.00219338372576)
(-0.232318946315 -0.0121026751184 -0.0015203968414)
(0.00554203128147 -0.0700382622042 0.00189851546233)
(0.0349305384857 -0.0651828260403 0.0217700620933)
(0.0239241379158 -0.0556973981304 -0.0128408296679)
(-0.0685262893572 0.0385225212091 -0.0111452677648)
(-0.190642237278 -0.00899572272299 -0.00648882920775)
(-0.151120109706 0.000185844965739 -0.010742737175)
(0.0348184704277 -0.083965992805 0.0431913817833)
(0.0557654590077 -0.0429089501787 0.0833935513605)
(0.0471791988387 -0.0783144880205 0.00110731236792)
(0.0773927750369 -0.0677212276461 0.0266453630857)
(0.792988498127 -8.36190742282e-06 -0.000858200437782)
(0.792264853802 -0.000770442023383 -0.000406760598898)
(0.76244273364 0.00656671582059 -0.000300990816519)
(0.758290910087 0.00766468945557 0.000406147582132)
(0.792518661637 0.000220132150145 -0.000200751383174)
(0.763370133162 0.00713920700629 -0.000474358786601)
(0.792812546574 -0.00106529335784 -0.000809188533054)
(0.793281952565 0.000502006143018 -0.0013408478365)
(0.793773088627 0.0022535742203 -0.00172351497184)
(0.759362574925 0.00778742486602 -0.000347297605452)
(0.765332866611 0.00700938544133 -0.0016515404006)
(0.793072586424 0.00122150944401 -0.000943231470328)
(0.793936236308 0.00142270608289 -0.00234442041446)
(0.764251177543 0.00717858748492 -0.000833714356619)
(0.79115927657 0.00270550275559 -0.000423482120244)
(0.792933323049 0.00306637952024 -0.00219324285104)
(0.75546956792 0.00906220882454 0.000932786511787)
(0.752821805716 0.0097901617487 -0.00044740154035)
(0.792033678543 0.00152294401567 -0.000926528332145)
(0.792527541225 0.00440360511358 -0.00139373736274)
(0.751761087956 0.0101650480897 0.00130278574015)
(0.795992173748 0.00403128644097 -0.00595272321355)
(0.794649992411 0.00336831232906 -0.00382061874568)
(0.765390081819 0.00624528880209 -0.00267719569213)
(0.761457882555 0.00599059205119 -0.00519976113621)
(0.794995839053 0.0025500894225 -0.00426035665182)
(0.79579580512 0.00507849925541 -0.00587483521071)
(0.765834071346 0.00568025241062 -0.00501913391448)
(0.797170781963 0.00611955239648 -0.00641365276652)
(0.798462173924 0.00903191904279 -0.00712199559621)
(0.761008849086 0.00488363578478 -0.0050561792016)
(0.764743894395 0.00399883124118 -0.00588975793795)
(0.797044274017 0.00720916731416 -0.00663740495837)
(0.798458897166 0.00773895476962 -0.00683532049655)
(0.765159493551 0.0049659875768 -0.00521067038806)
(0.795585195072 0.00806595464322 -0.00618723361143)
(0.79452944069 0.00459209607508 -0.00420164254497)
(0.753374453331 0.00862243308062 -0.00172791926243)
(0.757891454543 0.00643073220563 -0.00463196333567)
(0.793850557851 0.0061179270808 -0.00409447818267)
(0.795825294067 0.00644614413117 -0.00599484212843)
(0.754197680344 0.00726713808109 -0.00479093040531)
(0.795050569778 0.0102641401487 -0.00645898487722)
(0.792722804505 0.0104414748556 -0.00522300989308)
(0.750678060499 0.0100440718138 -0.0016588755261)
(0.749047488111 0.00975070254021 -0.00556263855095)
(0.79302338162 0.00813654300446 -0.00419469716156)
(0.795154036605 0.0126334957972 -0.00750875614793)
(0.751673145545 0.00855255077369 -0.00447598814471)
(0.797078566554 0.0104528775358 -0.00731439422324)
(0.798796982029 0.0107284175979 -0.00663133816781)
(0.757419166401 0.00508496355426 -0.00463333617423)
(0.753681055314 0.00402626259469 -0.00570565290253)
(0.797287072544 0.00886836064483 -0.00642785570268)
(0.798777747926 0.0123836810379 -0.00756947066387)
(0.75401520057 0.00573659653925 -0.00520319107187)
(0.797057421218 0.0125421261162 -0.00727721479654)
(0.799683030337 0.0165758614493 -0.00884484029134)
(0.749083177625 0.00761377507337 -0.00592750861506)
(0.751197590921 0.00461826901818 -0.0056373239135)
(0.797487925477 0.0149191472252 -0.00884115585194)
(0.799078393324 0.0144284576914 -0.00732694322277)
(0.751295129919 0.00660803739214 -0.00494896732571)
(0.797282906107 0.0186762826113 -0.0103710757255)
(0.792795589823 0.0130953549392 -0.0057040530404)
(0.746763859249 0.0156021510898 -0.00619350681563)
(0.74800251589 0.0117185878679 -0.00598268427456)
(0.794381582915 0.0160715541833 -0.00860024080139)
(0.795614492155 0.0155108044738 -0.00792537422313)
(0.747272772035 0.0138625988969 -0.0084161544921)
(0.800772962057 0.0215045791922 -0.0101348033172)
(0.802612222891 0.0219804801616 -0.0121064003776)
(0.748175113396 0.0173356260383 -0.00835606858656)
(0.750933654476 0.0180715630559 -0.0113606419021)
(0.79801949183 0.0192409900567 -0.00930469566704)
(0.749360392638 0.0154642968876 -0.00934756215517)
(0.804578240849 0.023968208777 -0.0125053566986)
(0.799921294384 0.0206679728299 -0.0109044306716)
(0.800846186686 0.0188550543804 -0.00850202008451)
(0.747915741676 0.0093086720422 -0.00596702037522)
(0.747783339349 0.00805145328799 -0.00700294347641)
(0.798499716288 0.0176461686933 -0.00847385514986)
(0.802234714198 0.02122133352 -0.0101821163758)
(0.747568582692 0.0112667414128 -0.00730863886713)
(0.803117947534 0.0230554125722 -0.00980284075355)
(0.807289470225 0.0246350165977 -0.0105448213378)
(0.750630183131 0.0147353990481 -0.00927766447197)
(0.749041222656 0.00920036236188 -0.00712611055801)
(0.804747054883 0.0231529598367 -0.00909548860977)
(0.749471816304 0.0127813834408 -0.00793465460924)
(0.806244486004 0.0250522986033 -0.0124271578768)
(0.802269160531 0.0132208229042 -0.00527205067127)
(0.800637463998 0.0117977270555 -0.00560625304476)
(0.752863002397 0.00297627425703 -0.00396492423327)
(0.755095973521 0.00269214357046 -0.00361444690398)
(0.800611393456 0.0133838658778 -0.00615800452695)
(0.802150778638 0.0117457191799 -0.00502532922962)
(0.752155761086 0.00257105900554 -0.00325391397802)
(0.80279539653 0.014786055023 -0.00460878903848)
(0.801648922232 0.017111500402 -0.00673625531465)
(0.750508728809 0.00319433934398 -0.00372312993842)
(0.748417898046 0.00274121374801 -0.00299529970973)
(0.801125339438 0.0152837748562 -0.00549700346694)
(0.803352087603 0.0164557676102 -0.00523016193505)
(0.749914371677 0.00245953091342 -0.0029077937451)
(0.80446109864 0.013754164646 -0.00292385017558)
(0.806011074923 0.013404077293 -0.00240457330675)
(0.748070465091 0.00229937799618 -0.00138608186885)
(0.748650483425 0.00297583679264 -0.000690793640819)
(0.804797203768 0.0150950986983 -0.00334843938354)
(0.805638293252 0.0122672940547 -0.00245309461778)
(0.749350545328 0.00243536221484 -0.00141857807289)
(0.80573911497 0.0195220225591 -0.00567590393353)
(0.802790988926 0.0190092633824 -0.00626852339463)
(0.747742891916 0.0053765116506 -0.00475615330356)
(0.74780870958 0.0030519021257 -0.00301868744643)
(0.804140104258 0.0207982271316 -0.00777105102544)
(0.804361838043 0.0180229753184 -0.00503884425891)
(0.747911366144 0.00335063052169 -0.00316014697726)
(0.80741188475 0.0208604158335 -0.00575186710891)
(0.808409672924 0.0236668397743 -0.00836006535497)
(0.749017231793 0.00607637692003 -0.00499647299373)
(0.750698004425 0.00477810687782 -0.00360304545902)
(0.806196477332 0.0224690039594 -0.00708183634534)
(0.748959680599 0.0036305117241 -0.00343747544451)
(0.809282584336 0.0218894691912 -0.00605536992886)
(0.807087469516 0.0177164898235 -0.00362824606513)
(0.806990980727 0.0145761085041 -0.00228265831213)
(0.747648918143 0.00227987312979 -0.00155748928584)
(0.747671891579 0.00231939632679 -0.000528450787416)
(0.805835360896 0.0165282587231 -0.00300142739144)
(0.808192089175 0.0156498786678 -0.00218393937897)
(0.747844616724 0.00234374172393 -0.00168890831279)
(0.808456615715 0.0188672347139 -0.00351581268787)
(0.8106996551 0.0175605053191 -0.00233419231526)
(0.750580718968 0.00303692336269 -0.00192792237458)
(0.748960624276 0.00218410982378 -0.000815560849398)
(0.809446160355 0.0165981142824 -0.00260656841052)
(0.748892258407 0.00242201976021 -0.00188755677607)
(0.810060900785 0.0197597674633 -0.00360381567774)
(0.809927040042 0.0117693622959 -0.00179934188593)
(0.807944734524 0.0126854062509 -0.00185744124441)
(0.747283553139 0.0024835762771 -2.04383386706e-05)
(0.746417108152 0.00294723738852 -5.16485592277e-05)
(0.809178907824 0.0136321902063 -0.00172525042486)
(0.8088180709 0.0108274642097 -0.00189785377879)
(0.74706882928 0.00287772472877 6.92904029706e-05)
(0.811391011974 0.0153601296829 -0.00167114399729)
(0.749013191012 0.0020921928939 -0.000217652131603)
(0.810310024809 0.0144658742919 -0.00183259946192)
(0.816201592331 0.00492775960135 -0.000584975983533)
(0.817527457862 0.00330478867743 -0.000741534309413)
(0.818619621271 0.00159451783253 -0.000650356486359)
(0.816402575847 -0.000599736156779 -0.000581526092718)
(0.808507636661 -0.00140306065963 -3.74115020546e-05)
(0.835121441093 -0.0496918211922 9.839896652e-05)
(0.816601664027 0.00527884014708 -1.61021170363e-05)
(0.817749297623 0.0035015049241 5.77136947059e-05)
(0.818742634939 0.00221935342752 -0.000151078526451)
(0.817331098315 -0.000463788436292 0.00231964968777)
(0.809342511269 -0.00169517942279 0.00567468125303)
(0.840354412113 -0.0563334109199 0.00696890259219)
(0.814848079719 0.00591798374031 -0.000863242378473)
(0.812735459044 0.00594522577192 0.000240844083501)
(0.78898453627 0.00973438573494 0.00285617565158)
(0.784389164285 0.0105446771003 0.00198904591712)
(0.780885156834 0.011467655538 0.00170150300118)
(0.772269328148 0.0136527472276 -0.00159568298752)
(0.781649430357 0.0161419699425 -0.0383197685023)
(0.711919000978 -0.00983322208501 0.0276237270288)
(0.825278805909 0.00562928240574 -0.000721276466128)
(0.823629530649 0.00345550927075 -0.000470936717702)
(0.819661020372 -0.000437622786983 -0.0010895999933)
(0.817824518184 -0.00219588652034 -0.0032032195568)
(0.816073720844 -0.000623973672781 -0.00410849814539)
(0.816805107088 0.0025706051548 -0.00364357124312)
(0.807646445752 0.00952833927765 -0.00249605177116)
(0.838094229258 -0.0884597984299 0.00543987869238)
(0.819313095898 0.00711015734703 -0.00102567431432)
(0.821980912473 0.00478565037916 -0.00100563499555)
(0.822122149759 0.00296696285357 -0.00134909806171)
(0.821443723526 0.00249364082613 -0.00217632044042)
(0.820064411185 0.00247607160543 -0.00203346285315)
(0.820030419554 0.00215461266317 -0.00129330061516)
(0.811636579355 0.00137013546434 -0.000109563896271)
(0.845861745004 -0.0611182745195 0.00330796191465)
(0.816004503192 0.00777319434465 -0.000793200025319)
(0.818781095096 0.00486961325378 -0.000821264796709)
(0.819771232315 0.00253670159247 -0.00102069788558)
(0.820045857248 0.000996656187994 -0.00119174486399)
(0.819049036651 0.000379283484341 -0.00161797348847)
(0.818827848477 -0.000549221159851 -0.000925079690045)
(0.8099899443 -0.0018979131551 0.000359128070095)
(0.839572797001 -0.0680684886539 0.00146468193226)
(0.818274665061 0.00104549951378 -0.00104009287257)
(0.817856380029 -0.000100008963506 -0.000689666233468)
(0.809263384143 -0.00132313924108 9.08108382752e-05)
(0.837503485879 -0.0524902926671 0.000324471398096)
(0.637457907738 0.0404675414815 0.00812423123786)
(0.635941682833 0.0401161474123 0.0122015264637)
(0.645136794758 0.0239444439323 0.0215024068054)
(0.640756115918 0.0220357356148 0.0172916052121)
(0.636455006396 0.020515294166 0.0179933690947)
(0.586685422381 0.0192642120225 0.0240716395453)
(0.68497019383 0.0154328575427 0.0366424543978)
(0.101084564976 0.0477022852523 0.0703365160679)
(0.771653257445 0.0138418902505 0.00533483353404)
(0.768539297189 0.00929400812753 0.00618143550648)
(0.775465572336 0.00212555034088 0.0116838656594)
(0.772014996105 0.00134703610712 0.0141366733295)
(0.771003702467 0.00406437255025 0.0144155852394)
(0.769148701378 0.00784957579458 0.0191221916809)
(0.765312373117 0.0556661253129 0.0327566294592)
(0.78600192904 -0.202684927241 0.0517440562293)
(0.821433153029 0.00807684638494 -0.00196247580146)
(0.821928495261 0.0057483175816 -0.00114354541495)
(0.821165260852 0.00566373592583 -0.000741984631123)
(0.820956703209 0.00644297495331 -0.000222541594559)
(0.820411732261 0.00682201711875 0.00147316217183)
(0.822531206509 0.00655910027145 0.00509163801044)
(0.815319434642 0.0060765061115 0.0149720420803)
(0.890192248365 -0.102350007194 0.0201399653165)
(0.816866347971 0.00834405261203 -0.00126740417606)
(0.819121834419 0.00477945853406 -0.000500869442883)
(0.819668292447 0.00303924485821 -0.000181677146917)
(0.819784931633 0.00237650759083 0.00010293619003)
(0.819427178972 0.00173535559317 0.00123287822817)
(0.821101266637 0.000404005108449 0.00451789217238)
(0.812780183793 -0.00166116992417 0.0107121787197)
(0.855696853952 -0.0862844732802 0.0136290240924)
(0.818462971315 0.00168699183172 0.000478348118968)
(0.819137826697 0.000407663088994 0.00306038712034)
(0.810482861484 -0.00168521615719 0.00746451744469)
(0.846153044985 -0.0655523486992 0.00910108754268)
(0.634043140683 -0.0174358463854 0.0135690660569)
(0.628786539769 -0.0179690532566 0.0171202358776)
(0.634095253366 -0.0214567913989 0.0247771253985)
(0.631909941352 -0.0181886125152 0.0247207753541)
(0.634917146889 -0.0144945061055 0.0258148523471)
(0.635223920678 -0.00328723889517 0.0289940750178)
(0.691178274474 0.0657743976746 0.0836194951659)
(0.656043157979 -0.414414583906 0.0206266917871)
(0.73393501698 0.00588524963258 0.0176803353907)
(0.73057873158 0.000518038559671 0.0203372315205)
(0.782539263897 0.000227958262206 0.00785157950879)
(0.781510385021 -2.51530171797e-05 0.0111925149615)
(0.783402549445 0.00225379531427 0.0126527323259)
(0.791890366313 0.000919190189819 0.0121904450682)
(0.802497190159 0.00995754658598 0.0194015813259)
(0.915539356735 -0.226988999566 0.0176577186846)
(0.822464864381 0.00780012768486 -0.00370564776679)
(0.823210208343 0.00629721309659 -0.00280601988735)
(0.822602248791 0.00329054155425 -0.00195172806604)
(0.823180787561 0.0015069621666 -0.00149997808406)
(0.824784339944 0.00163134542509 -0.000752024108758)
(0.83233607059 -0.000924715463346 0.000813369626226)
(0.825071152761 -0.00614558098823 0.00128475651115)
(0.926095618787 -0.193145121097 0.000602309318403)
(0.813319915358 0.0121699067986 -0.00259767399742)
(0.817952363289 0.00842959279432 -0.00171715793286)
(0.820092086128 0.00525960310724 -0.00148493074193)
(0.82038595586 0.0027970552332 -0.00114322826861)