/*--------------------------------*- C++ -*----------------------------------*\
| =========                 |                                                 |
| \\      /  F ield         | OpenFOAM: The Open Source CFD Toolbox           |
|  \\    /   O peration     | Version:  v1906                                 |
|   \\  /    A nd           | Web:      www.OpenFOAM.com                      |
|    \\/     M anipulation  |                                                 |
\*---------------------------------------------------------------------------*/
FoamFile
{
    version     2.0;
    format      ascii;
    class       volVectorField;
    location    "11.9";
    object      force.turbine;
}
// * * * * * * * * * * * * * * * * * * * * * * * * * * * * * * * * * * * * * //

dimensions      [1 -2 -2 0 0 0 0];


internalField   nonuniform List<vector> 
28582
(
(0 0 0)
(0 0 0)
(0 0 0)
(0 0 0)
(0 0 0)
(0 0 0)
(0 0 0)
(0 0 0)
(0 0 0)
(0 0 0)
(0 0 0)
(0 0 0)
(0 0 0)
(0 0 0)
(0 0 0)
(0 0 0)
(0 0 0)
(0 0 0)
(0 0 0)
(0 0 0)
(0 0 0)
(0 0 0)
(0 0 0)
(0 0 0)
(0 0 0)
(0 0 0)
(0 0 0)
(0 0 0)
(0 0 0)
(0 0 0)
(0 0 0)
(0 0 0)
(0 0 0)
(0 0 0)
(0 0 0)
(0 0 0)
(0 0 0)
(0 0 0)
(0 0 0)
(0 0 0)
(0 0 0)
(0 0 0)
(0 0 0)
(0 0 0)
(0 0 0)
(0 0 0)
(0 0 0)
(0 0 0)
(0 0 0)
(0 0 0)
(0 0 0)
(0 0 0)
(0 0 0)
(0 0 0)
(0 0 0)
(0 0 0)
(0 0 0)
(0 0 0)
(0 0 0)
(0 0 0)
(0 0 0)
(0 0 0)
(0 0 0)
(0 0 0)
(0 0 0)
(0 0 0)
(0 0 0)
(0 0 0)
(0 0 0)
(0 0 0)
(0 0 0)
(0 0 0)
(0 0 0)
(0 0 0)
(0 0 0)
(0 0 0)
(0 0 0)
(0 0 0)
(0 0 0)
(0 0 0)
(0 0 0)
(0 0 0)
(0 0 0)
(0 0 0)
(0 0 0)
(0 0 0)
(0 0 0)
(0 0 0)
(0 0 0)
(0 0 0)
(0 0 0)
(0 0 0)
(0 0 0)
(0 0 0)
(0 0 0)
(0 0 0)
(0 0 0)
(0 0 0)
(0 0 0)
(0 0 0)
(0 0 0)
(0 0 0)
(0 0 0)
(0 0 0)
(0 0 0)
(0 0 0)
(0 0 0)
(0 0 0)
(0 0 0)
(0 0 0)
(0 0 0)
(0 0 0)
(0 0 0)
(0 0 0)
(0 0 0)
(0 0 0)
(0 0 0)
(0 0 0)
(0 0 0)
(0 0 0)
(0 0 0)
(0 0 0)
(0 0 0)
(0 0 0)
(0 0 0)
(0 0 0)
(0 0 0)
(0 0 0)
(0 0 0)
(0 0 0)
(0 0 0)
(0 0 0)
(0 0 0)
(0 0 0)
(0 0 0)
(0 0 0)
(0 0 0)
(0 0 0)
(0 0 0)
(0 0 0)
(0 0 0)
(0 0 0)
(0 0 0)
(0 0 0)
(0 0 0)
(0 0 0)
(0 0 0)
(0 0 0)
(0 0 0)
(0 0 0)
(0 0 0)
(0 0 0)
(0 0 0)
(0 0 0)
(0 0 0)
(0 0 0)
(0 0 0)
(0 0 0)
(0 0 0)
(0 0 0)
(0 0 0)
(0 0 0)
(0 0 0)
(0 0 0)
(0 0 0)
(0 0 0)
(0 0 0)
(0 0 0)
(0 0 0)
(0 0 0)
(0 0 0)
(0 0 0)
(0 0 0)
(0 0 0)
(0 0 0)
(0 0 0)
(0 0 0)
(0 0 0)
(0 0 0)
(0 0 0)
(0 0 0)
(0 0 0)
(0 0 0)
(0 0 0)
(0 0 0)
(0 0 0)
(0 0 0)
(0 0 0)
(0 0 0)
(0 0 0)
(0 0 0)
(0 0 0)
(0 0 0)
(0 0 0)
(0 0 0)
(0 0 0)
(0 0 0)
(0 0 0)
(0 0 0)
(0 0 0)
(0 0 0)
(0 0 0)
(0 0 0)
(0 0 0)
(0 0 0)
(0 0 0)
(0 0 0)
(0 0 0)
(0 0 0)
(0 0 0)
(0 0 0)
(0 0 0)
(0 0 0)
(0 0 0)
(0 0 0)
(0 0 0)
(0 0 0)
(-0.0036893135091 9.96193232436e-05 0)
(0 0 0)
(0 0 0)
(0 0 0)
(0 0 0)
(-2.35475415371e-05 6.94703096328e-07 0)
(0 0 0)
(-2.34635865775e-06 8.99761508424e-08 0)
(0 0 0)
(0 0 0)
(0 0 0)
(0 0 0)
(0 0 0)
(0 0 0)
(0 0 0)
(0 0 0)
(0 0 0)
(0 0 0)
(0 0 0)
(0 0 0)
(-0.0158015436688 0.000485899105279 0)
(0 0 0)
(0 0 0)
(0 0 0)
(-0.0272423764383 0.000749124305601 0)
(0 0 0)
(0 0 0)
(-0.0872708881685 -0.0027945586334 0.0119551096567)
(-0.912124961135 -0.0484979962746 0.172005865072)
(-0.0741353347134 0.00203861000392 0)
(-0.716030295228 0.019574991536 0)
(-0.0054780928633 0.000115403595325 0)
(-0.0740245200083 0.0020355627665 0)
(0 0 0)
(0 0 0)
(0 0 0)
(0 0 0)
(0 0 0)
(-0.0158015401794 0.00048589899798 0)
(0 0 0)
(0 0 0)
(0 0 0)
(-0.0272205886615 0.000748525174567 0)
(0 0 0)
(0 0 0)
(0 0 0)
(0 0 0)
(0 0 0)
(0 0 0)
(0 0 0)
(0 0 0)
(-1.51859177115e-05 3.93061391787e-07 0)
(0 0 0)
(-9.08667509023e-06 2.3519297454e-07 0)
(-0.000127220662844 3.51474698901e-06 0)
(-0.000566797794472 1.56590195095e-05 0)
(-7.52353603229e-05 2.07854015417e-06 0)
(-0.000337143265698 9.31431460491e-06 0)
(0 0 0)
(0 0 0)
(-0.00038567951236 8.93614373785e-06 0)
(0 0 0)
(0 0 0)
(0 0 0)
(0 0 0)
(0 0 0)
(0 0 0)
(-0.0160738326064 0.000434027718769 0)
(-0.00075323763303 1.87656850414e-05 0)
(-0.00353655354558 9.54944788389e-05 0)
(-2.63527384823e-05 7.0356920672e-07 0)
(-0.000121677907298 3.36161633451e-06 0)
(-3.36642838209e-06 1.29092910373e-07 0)
(-2.6723988512e-05 7.13480893473e-07 0)
(0 0 0)
(0 0 0)
(0 0 0)
(0 0 0)
(0 0 0)
(-0.000371950140303 8.61803598725e-06 0)
(0 0 0)
(0 0 0)
(0 0 0)
(0 0 0)
(0 0 0)
(0 0 0)
(0 0 0)
(0 0 0)
(0 0 0)
(0 0 0)
(0 0 0)
(0 0 0)
(0 0 0)
(0 0 0)
(0 0 0)
(0 0 0)
(0 0 0)
(0 0 0)
(0 0 0)
(0 0 0)
(-0.00500257821024 9.83858281342e-05 0)
(0 0 0)
(0 0 0)
(0 0 0)
(0 0 0)
(0 0 0)
(-0.00423402597347 8.91956073455e-05 0)
(0 0 0)
(0 0 0)
(0 0 0)
(0 0 0)
(0 0 0)
(0 0 0)
(0 0 0)
(0 0 0)
(0 0 0)
(0 0 0)
(0 0 0)
(0 0 0)
(0 0 0)
(0 0 0)
(0 0 0)
(0 0 0)
(0 0 0)
(0 0 0)
(0 0 0)
(0 0 0)
(0 0 0)
(0 0 0)
(-0.0353550598813 0.00100489170112 0)
(-0.00800427954753 0.000191383267361 0)
(-0.0132320041094 0.000316378777773 0)
(-0.010009504315 0.000234877075843 0)
(-0.0189233585824 0.000537855856014 0)
(0 0 0)
(0 0 0)
(0 0 0)
(0 0 0)
(0 0 0)
(0 0 0)
(0 0 0)
(0 0 0)
(0 0 0)
(0 0 0)
(-0.00483170779139 0.000101786600666 0)
(0 0 0)
(-0.00779517929463 0.000182917041721 0)
(0 0 0)
(0 0 0)
(-0.127257692921 0.00357514201772 0)
(-0.0991134263462 0.00278446486743 0)
(-0.180985647686 0.00494782489678 0)
(-0.0397053971037 0.0010918385957 0)
(-0.237761631149 0.00667960873884 0)
(-0.0514383030849 0.00146202337271 0)
(-0.0953170295449 0.00262107469705 0)
(-0.318676847589 0.00453287658712 0.00999432405564)
(-1.20550413917 0.00836603074487 0.0594297536679)
(-0.383340740504 0.0104798523202 0)
(-0.382799864625 0.0104650657381 0)
(-0.628617893837 0.00593190145377 0.0270245039154)
(-0.205053715312 0.00560580295053 0)
(-0.636741358552 0.00547661575192 0.0285233088437)
(-0.0601106757804 0.00168873250617 0)
(-0.00883294008252 0.000207268519238 0)
(-0.0187522470499 0.000515658539613 0)
(-0.0187521210541 0.000515655074918 0)
(-0.0242976669843 0.000690609038458 0)
(-0.0242974074334 0.000690601661279 0)
(-0.044992908702 0.00123723719789 0)
(-0.127254971886 0.00357506557372 0)
(-0.0991032141545 0.00278417796898 0)
(-0.180659127331 0.00493889841251 0)
(-0.0396681921029 0.00109081551424 0)
(-0.0514365399185 0.00146197325849 0)
(-0.0952170641048 0.00261832579806 0)
(-0.258621318587 0.00545069107472 0.00404396565132)
(0 0 0)
(0 0 0)
(0 0 0)
(0 0 0)
(0 0 0)
(0 0 0)
(0 0 0)
(0 0 0)
(0 0 0)
(0 0 0)
(0 0 0)
(0 0 0)
(0 0 0)
(0 0 0)
(0 0 0)
(0 0 0)
(0 0 0)
(0 0 0)
(0 0 0)
(0 0 0)
(0 0 0)
(0 0 0)
(0 0 0)
(-0.0048307156967 0.00010176570082 0)
(0 0 0)
(-0.00779477966328 0.00018290766421 0)
(0 0 0)
(0 0 0)
(0 0 0)
(-0.0353482971693 0.00100469948555 0)
(-0.0132203015038 0.000316098967094 0)
(-0.00800638498085 0.00019143360852 0)
(-0.0189219178641 0.000537814906687 0)
(0 0 0)
(-0.0100075376225 0.000234830926606 0)
(0 0 0)
(0 0 0)
(0 0 0)
(0 0 0)
(0 0 0)
(0 0 0)
(0 0 0)
(0 0 0)
(0 0 0)
(0 0 0)
(0 0 0)
(0 0 0)
(0 0 0)
(0 0 0)
(0 0 0)
(0 0 0)
(0 0 0)
(0 0 0)
(0 0 0)
(0 0 0)
(0 0 0)
(0 0 0)
(0 0 0)
(0 0 0)
(0 0 0)
(0 0 0)
(0 0 0)
(0 0 0)
(0 0 0)
(0 0 0)
(0 0 0)
(0 0 0)
(0 0 0)
(0 0 0)
(0 0 0)
(0 0 0)
(-0.0150595026845 0.000264776519537 0)
(0 0 0)
(0 0 0)
(0 0 0)
(0 0 0)
(0 0 0)
(0 0 0)
(0 0 0)
(-0.00336024252313 5.90798606508e-05 0)
(0 0 0)
(0 0 0)
(0 0 0)
(0 0 0)
(0 0 0)
(0 0 0)
(0 0 0)
(0 0 0)
(0 0 0)
(0 0 0)
(0 0 0)
(0 0 0)
(0 0 0)
(0 0 0)
(0 0 0)
(0 0 0)
(0 0 0)
(0 0 0)
(0 0 0)
(0 0 0)
(0 0 0)
(0 0 0)
(0 0 0)
(0 0 0)
(0 0 0)
(0 0 0)
(0 0 0)
(-0.32203787429 0.00783300414943 0)
(-0.00773110748996 0.000135928508148 0)
(0 0 0)
(0 0 0)
(0 0 0)
(0 0 0)
(0 0 0)
(0 0 0)
(-0.0707254094701 0.0017427058752 0)
(0 0 0)
(0 0 0)
(0 0 0)
(0 0 0)
(0 0 0)
(0 0 0)
(0 0 0)
(0 0 0)
(0 0 0)
(0 0 0)
(0 0 0)
(0 0 0)
(0 0 0)
(0 0 0)
(0 0 0)
(0 0 0)
(0 0 0)
(0 0 0)
(0 0 0)
(0 0 0)
(0 0 0)
(0 0 0)
(0 0 0)
(0 0 0)
(0 0 0)
(0 0 0)
(0 0 0)
(-1.50915186211 0.0481532419432 0)
(-0.0431469042985 0.00134937371872 0)
(0 0 0)
(0 0 0)
(0 0 0)
(0 0 0)
(0 0 0)
(0 0 0)
(-0.331014298647 0.0104380507424 0)
(-0.00656143093558 0.000231070425601 0)
(0 0 0)
(0 0 0)
(0 0 0)
(0 0 0)
(0 0 0)
(0 0 0)
(0 0 0)
(0 0 0)
(0 0 0)
(0 0 0)
(0 0 0)
(0 0 0)
(0 0 0)
(0 0 0)
(0 0 0)
(0 0 0)
(0 0 0)
(0 0 0)
(0 0 0)
(0 0 0)
(0 0 0)
(0 0 0)
(0 0 0)
(0 0 0)
(0 0 0)
(0 0 0)
(0 0 0)
(0 0 0)
(0 0 0)
(0 0 0)
(0 0 0)
(0 0 0)
(0 0 0)
(-2.52858441886 0.0753384096051 0)
(-0.076336711703 0.00227442928592 0)
(0 0 0)
(0 0 0)
(0 0 0)
(0 0 0)
(0 0 0)
(0 0 0)
(-2.52862719178 0.0753396840113 0)
(-0.564203713436 0.0168102793589 0)
(-0.0158012638 0.000485890499285 0)
(0 0 0)
(0 0 0)
(0 0 0)
(0 0 0)
(0 0 0)
(0 0 0)
(-0.0463132214622 0.00137988845562 0)
(-0.0763571453261 0.00227503809955 0)
(-0.0158014013463 0.000485894728848 0)
(0 0 0)
(0 0 0)
(0 0 0)
(0 0 0)
(0 0 0)
(0 0 0)
(0 0 0)
(0 0 0)
(0 0 0)
(0 0 0)
(0 0 0)
(0 0 0)
(0 0 0)
(0 0 0)
(0 0 0)
(0 0 0)
(0 0 0)
(0 0 0)
(0 0 0)
(0 0 0)
(0 0 0)
(0 0 0)
(0 0 0)
(0 0 0)
(0 0 0)
(0 0 0)
(-0.066869617837 0.00180189245942 0)
(-0.00213170298905 5.75605213819e-05 0)
(0 0 0)
(0 0 0)
(0 0 0)
(0 0 0)
(0 0 0)
(0 0 0)
(-0.0424727586847 0.00114448603238 0)
(-0.0675791583674 0.00182101199042 0)
(-0.0152215768874 0.000411014998993 0)
(-0.000372766916043 8.63696057405e-06 0)
(0 0 0)
(0 0 0)
(0 0 0)
(0 0 0)
(0 0 0)
(0 0 0)
(-0.00120653339536 3.00588083977e-05 0)
(-0.00215552983574 5.82038969956e-05 0)
(-0.00038436823501 8.90576161357e-06 0)
(0 0 0)
(0 0 0)
(0 0 0)
(0 0 0)
(0 0 0)
(0 0 0)
(0 0 0)
(0 0 0)
(0 0 0)
(0 0 0)
(0 0 0)
(0 0 0)
(0 0 0)
(0 0 0)
(0 0 0)
(0 0 0)
(0 0 0)
(0 0 0)
(0 0 0)
(0 0 0)
(0 0 0)
(0 0 0)
(0 0 0)
(0 0 0)
(0 0 0)
(0 0 0)
(-0.000182667437302 5.42523854647e-06 0)
(-0.000182552093583 5.42181282813e-06 0)
(-2.34950073739e-05 6.93153225579e-07 0)
(0 0 0)
(0 0 0)
(0 0 0)
(0 0 0)
(0 0 0)
(0 0 0)
(0 0 0)
(-2.39278929851e-05 7.059242817e-07 0)
(-2.3770783034e-05 7.01289200397e-07 0)
(-2.34715964366e-06 9.00068663634e-08 0)
(0 0 0)
(0 0 0)
(0 0 0)
(0 0 0)
(0 0 0)
(0 0 0)
(0 0 0)
(0 0 0)
(0 0 0)
(0 0 0)
(0 0 0)
(0 0 0)
(0 0 0)
(0 0 0)
(0 0 0)
(0 0 0)
(0 0 0)
(0 0 0)
(0 0 0)
(0 0 0)
(0 0 0)
(0 0 0)
(0 0 0)
(0 0 0)
(0 0 0)
(0 0 0)
(0 0 0)
(0 0 0)
(0 0 0)
(0 0 0)
(0 0 0)
(0 0 0)
(0 0 0)
(0 0 0)
(0 0 0)
(0 0 0)
(-0.00336013303597 5.90779356451e-05 0)
(-0.00913405119651 0.000160595096381 0)
(-0.00203808355917 3.5833631603e-05 0)
(-0.0867787571608 0.00184036194239 0)
(-0.0177871093958 0.000312733362919 0)
(-0.0526357364907 0.00111627326106 0)
(-0.0107896548461 0.000189703957494 0)
(0 0 0)
(0 0 0)
(0 0 0)
(-0.00240740651959 4.23270763131e-05 0)
(0 0 0)
(0 0 0)
(0 0 0)
(0 0 0)
(0 0 0)
(0 0 0)
(-0.0177906671588 0.00031279591559 0)
(-0.00396963963561 6.97942945758e-05 0)
(-0.00396964336124 6.979436008e-05 0)
(0 0 0)
(0 0 0)
(0 0 0)
(0 0 0)
(0 0 0)
(0 0 0)
(0 0 0)
(0 0 0)
(-0.070710734062 0.00174234426654 0)
(-0.195339052705 0.00475127844437 0)
(-0.0428884641694 0.00105679103233 0)
(-0.801468787988 0.0226749410072 0)
(-0.176845579042 0.00498374203472 0)
(-0.486104882528 0.0137527495766 0)
(-0.1072602308 0.00302273499733 0)
(0 0 0)
(-0.00468889675955 8.24402897271e-05 0)
(0 0 0)
(-0.0227995800155 0.000669341723782 0)
(0 0 0)
(-0.0121966219136 0.000351158742053 0)
(0 0 0)
(-0.0149419920114 0.000360679121176 0)
(-0.0149432681017 0.000360709924239 0)
(-0.00284435790712 5.00095655706e-05 0)
(-0.17689393465 0.00498510475964 0)
(-0.0375883833974 0.00110350599968 0)
(-0.0375962638064 0.00110373734985 0)
(-0.00739855554344 0.000213015331298 0)
(0 0 0)
(0 0 0)
(0 0 0)
(-0.00335948613677 5.90665618486e-05 0)
(0 0 0)
(0 0 0)
(0 0 0)
(-0.330915576864 0.0104349376956 0)
(-0.899786581971 0.0283734510512 0)
(-0.200705534416 0.00632895485504 0)
(-2.2074535189 0.0709550100582 0)
(-0.486733877282 0.0155228805772 0)
(-1.32349118845 0.0422086824486 0)
(-0.295220203027 0.00941514073592 0)
(0 0 0)
(-0.0261695503912 0.00081842496241 0)
(0 0 0)
(-0.0658740767695 0.00210085115204 0)
(0 0 0)
(-0.0399547234587 0.00127423306593 0)
(0 0 0)
(-0.0738389950281 0.00232840448288 0)
(-0.0738626975061 0.00232915190578 0)
(-0.0140003300985 0.000487867528381 0)
(-0.486909756873 0.015528489716 0)
(-0.108635609184 0.00346459876022 0)
(-0.108649866706 0.00346505346005 0)
(-0.0242430276154 0.000773156831829 0)
(0 0 0)
(0 0 0)
(0 0 0)
(-0.0133103225033 0.000415508776279 0)
(0 0 0)
(0 0 0)
(0 0 0)
(-7.06342810741 0.214952788712 0)
(-4.19469725912 0.12558873338 0)
(-4.0523978816 0.110785332355 0)
(-1.91630655986 0.0523884044288 0)
(-0.564106122049 0.016807371653 0)
(-1.53364030483 0.0456943500126 0)
(-0.342173732542 0.0101949630892 0)
(-2.45812684106 0.0672008048105 0)
(-0.259647650948 0.00709830380575 0)
(-1.16105405167 0.0317411475264 0)
(-0.12246529888 0.00334798290661 0)
(0 0 0)
(-0.0463071544815 0.00137970769176 0)
(0 0 0)
(-0.0939230799505 0.00258274318348 0)
(0 0 0)
(-0.0443086157869 0.00121842017376 0)
(0 0 0)
(0 0 0)
(0 0 0)
(0 0 0)
(0 0 0)
(0 0 0)
(0 0 0)
(0 0 0)
(0 0 0)
(0 0 0)
(0 0 0)
(0 0 0)
(0 0 0)
(0 0 0)
(0 0 0)
(0 0 0)
(0 0 0)
(0 0 0)
(0 0 0)
(0 0 0)
(0 0 0)
(0 0 0)
(0 0 0)
(0 0 0)
(0 0 0)
(0 0 0)
(0 0 0)
(0 0 0)
(0 0 0)
(0 0 0)
(0 0 0)
(0 0 0)
(0 0 0)
(0 0 0)
(0 0 0)
(0 0 0)
(0 0 0)
(0 0 0)
(0 0 0)
(0 0 0)
(0 0 0)
(0 0 0)
(0 0 0)
(-1.12843952929 -0.0420524825195 0.17200475931)
(-0.6233907328 0.0131790501594 0.0119549327514)
(-1.17958345212 0.0322477082955 0)
(-2.48413423772 0.0679118006623 0)
(-0.123889679567 0.00338692293481 0)
(-0.260874949747 0.00713185596656 0)
(-1.53367661368 0.0456954318239 0)
(-0.564208316366 0.0168104165018 0)
(-0.342208658435 0.0101960036957 0)
(-2.47774061309 0.0677370103652 0)
(-1.16268830679 0.0317858251474 0)
(-0.260141959249 0.0071118173133 0)
(-0.121968193102 0.00333439292101 0)
(-0.125890475598 0.00375086872531 0)
(-0.125891524762 0.00375089998483 0)
(-0.0280902909197 0.000836941739991 0)
(-0.704165054417 0.0192506170088 0)
(-0.0730313112831 0.00200825102304 0)
(-0.072661058811 0.00199806963792 0)
(-0.00535829590493 0.000112879906872 0)
(0 0 0)
(0 0 0)
(0 0 0)
(-0.0268658006698 0.000738769039361 0)
(0 0 0)
(0 0 0)
(0 0 0)
(0 0 0)
(0 0 0)
(0 0 0)
(0 0 0)
(0 0 0)
(0 0 0)
(0 0 0)
(0 0 0)
(0 0 0)
(0 0 0)
(0 0 0)
(0 0 0)
(0 0 0)
(0 0 0)
(0 0 0)
(0 0 0)
(0 0 0)
(0 0 0)
(0 0 0)
(0 0 0)
(0 0 0)
(0 0 0)
(0 0 0)
(0 0 0)
(0 0 0)
(0 0 0)
(0 0 0)
(0 0 0)
(0 0 0)
(0 0 0)
(0 0 0)
(0 0 0)
(0 0 0)
(0 0 0)
(0 0 0)
(0 0 0)
(0 0 0)
(0 0 0)
(0 0 0)
(0 0 0)
(0 0 0)
(0 0 0)
(-0.0763574228705 0.00227504636891 0)
(0 0 0)
(0 0 0)
(-0.0448177752385 0.00123242129152 0)
(-0.0943860200254 0.00259547333802 0)
(0 0 0)
(0 0 0)
(-0.0463128590631 0.00137987765805 0)
(0 0 0)
(0 0 0)
(-0.0940911861433 0.0025873658505 0)
(-0.0440139462735 0.00121031720612 0)
(0 0 0)
(0 0 0)
(0 0 0)
(0 0 0)
(0 0 0)
(-0.0266494103536 0.000732818631701 0)
(0 0 0)
(0 0 0)
(0 0 0)
(0 0 0)
(0 0 0)
(0 0 0)
(0 0 0)
(0 0 0)
(0 0 0)
(0 0 0)
(0 0 0)
(0 0 0)
(0 0 0)
(0 0 0)
(0 0 0)
(0 0 0)
(0 0 0)
(0 0 0)
(0 0 0)
(0 0 0)
(0 0 0)
(0 0 0)
(0 0 0)
(0 0 0)
(0 0 0)
(0 0 0)
(0 0 0)
(0 0 0)
(0 0 0)
(0 0 0)
(0 0 0)
(0 0 0)
(0 0 0)
(0 0 0)
(0 0 0)
(0 0 0)
(0 0 0)
(0 0 0)
(0 0 0)
(0 0 0)
(0 0 0)
(0 0 0)
(0 0 0)
(0 0 0)
(0 0 0)
(0 0 0)
(0 0 0)
(0 0 0)
(0 0 0)
(0 0 0)
(0 0 0)
(0 0 0)
(0 0 0)
(0 0 0)
(0 0 0)
(0 0 0)
(0 0 0)
(0 0 0)
(0 0 0)
(0 0 0)
(0 0 0)
(0 0 0)
(0 0 0)
(0 0 0)
(0 0 0)
(0 0 0)
(0 0 0)
(0 0 0)
(0 0 0)
(0 0 0)
(0 0 0)
(0 0 0)
(0 0 0)
(0 0 0)
(0 0 0)
(0 0 0)
(0 0 0)
(0 0 0)
(0 0 0)
(0 0 0)
(0 0 0)
(0 0 0)
(0 0 0)
(0 0 0)
(0 0 0)
(0 0 0)
(0 0 0)
(0 0 0)
(0 0 0)
(0 0 0)
(0 0 0)
(0 0 0)
(0 0 0)
(0 0 0)
(0 0 0)
(0 0 0)
(0 0 0)
(0 0 0)
(0 0 0)
(0 0 0)
(0 0 0)
(0 0 0)
(0 0 0)
(0 0 0)
(0 0 0)
(0 0 0)
(0 0 0)
(0 0 0)
(0 0 0)
(0 0 0)
(0 0 0)
(0 0 0)
(0 0 0)
(0 0 0)
(0 0 0)
(0 0 0)
(0 0 0)
(0 0 0)
(0 0 0)
(0 0 0)
(0 0 0)
(0 0 0)
(0 0 0)
(0 0 0)
(0 0 0)
(0 0 0)
(0 0 0)
(0 0 0)
(0 0 0)
(0 0 0)
(0 0 0)
(0 0 0)
(0 0 0)
(0 0 0)
(0 0 0)
(0 0 0)
(0 0 0)
(0 0 0)
(0 0 0)
(0 0 0)
(0 0 0)
(0 0 0)
(0 0 0)
(0 0 0)
(0 0 0)
(0 0 0)
(0 0 0)
(0 0 0)
(0 0 0)
(0 0 0)
(0 0 0)
(0 0 0)
(0 0 0)
(0 0 0)
(0 0 0)
(0 0 0)
(0 0 0)
(0 0 0)
(0 0 0)
(0 0 0)
(0 0 0)
(0 0 0)
(0 0 0)
(0 0 0)
(0 0 0)
(0 0 0)
(0 0 0)
(0 0 0)
(0 0 0)
(0 0 0)
(0 0 0)
(0 0 0)
(0 0 0)
(-0.00155271330981 4.2874827369e-05 0)
(-0.00254599964084 7.03022859358e-05 0)
(-0.000937967428448 2.59133864045e-05 0)
(-0.00149098697292 4.11703877783e-05 0)
(-0.177740730956 0.00478946483024 0)
(-0.109039038974 0.00293820465055 0)
(-0.00246529682874 6.80738519326e-05 0)
(-0.00144304689862 3.9846626079e-05 0)
(-0.00145122157258 4.00723520597e-05 0)
(-0.000878827084883 2.42795060283e-05 0)
(-0.0152491250508 0.000411758858082 0)
(-0.0409699139198 0.00110398984387 0)
(-0.00927192353324 0.000250361685248 0)
(-0.000531974110712 1.46969396484e-05 0)
(-0.000119738215865 3.30802814789e-06 0)
(-0.000327735168391 9.05439549314e-06 0)
(-7.31544191631e-05 2.0210496372e-06 0)
(0 0 0)
(-0.00121535182093 3.02785050639e-05 0)
(0 0 0)
(-1.47779616444e-05 3.82502149825e-07 0)
(0 0 0)
(-8.82269847364e-06 2.2836039331e-07 0)
(0 0 0)
(0 0 0)
(0 0 0)
(0 0 0)
(0 0 0)
(0 0 0)
(0 0 0)
(0 0 0)
(0 0 0)
(0 0 0)
(0 0 0)
(0 0 0)
(0 0 0)
(0 0 0)
(0 0 0)
(0 0 0)
(0 0 0)
(0 0 0)
(0 0 0)
(0 0 0)
(0 0 0)
(0 0 0)
(0 0 0)
(0 0 0)
(0 0 0)
(0 0 0)
(0 0 0)
(0 0 0)
(0 0 0)
(0 0 0)
(0 0 0)
(0 0 0)
(0 0 0)
(0 0 0)
(0 0 0)
(0 0 0)
(0 0 0)
(0 0 0)
(0 0 0)
(0 0 0)
(0 0 0)
(0 0 0)
(0 0 0)
(-0.0683275957952 0.00184117965103 0)
(-0.00945512745846 0.000255308581466 0)
(-0.0154527804204 0.000417257986863 0)
(-0.000376409800673 1.03991378756e-05 0)
(-0.000637550687834 1.76137217831e-05 0)
(-8.81764662899e-05 2.4360662998e-06 0)
(-0.000151853011262 4.19526908737e-06 0)
(-0.0410109611376 0.00110509591677 0)
(-0.0154976613358 0.000418469867178 0)
(-0.00946196335805 0.000255493165316 0)
(-0.000617344977956 1.7055495184e-05 0)
(-0.000360621146242 9.96294202206e-06 0)
(-0.0001265530987 3.49630408033e-06 0)
(-7.82723718096e-05 2.16244418941e-06 0)
(-0.00343840467872 9.28442503699e-05 0)
(-0.00349785237732 9.44494648597e-05 0)
(-0.00073812559586 1.83891933243e-05 0)
(-0.000122404515351 3.38169045933e-06 0)
(-2.6108308264e-05 6.97043373555e-07 0)
(-2.68301428335e-05 7.16315016833e-07 0)
(-3.33184162087e-06 1.27766606896e-07 0)
(0 0 0)
(0 0 0)
(0 0 0)
(0 0 0)
(0 0 0)
(0 0 0)
(0 0 0)
(0 0 0)
(0 0 0)
(0 0 0)
(0 0 0)
(0 0 0)
(0 0 0)
(0 0 0)
(0 0 0)
(0 0 0)
(0 0 0)
(0 0 0)
(0 0 0)
(0 0 0)
(0 0 0)
(0 0 0)
(0 0 0)
(0 0 0)
(0 0 0)
(0 0 0)
(0 0 0)
(0 0 0)
(0 0 0)
(0 0 0)
(0 0 0)
(0 0 0)
(0 0 0)
(0 0 0)
(0 0 0)
(0 0 0)
(0 0 0)
(0 0 0)
(0 0 0)
(0 0 0)
(0 0 0)
(0 0 0)
(0 0 0)
(0 0 0)
(0 0 0)
(0 0 0)
(0 0 0)
(0 0 0)
(0 0 0)
(-0.00211707277407 5.71654744143e-05 0)
(0 0 0)
(0 0 0)
(-1.02600413933e-05 2.65563545547e-07 0)
(-1.75113733685e-05 4.53251816526e-07 0)
(0 0 0)
(0 0 0)
(-0.00124538801411 3.10268077461e-05 0)
(0 0 0)
(0 0 0)
(-1.46505350556e-05 3.79203931484e-07 0)
(-9.50660166747e-06 2.46062052592e-07 0)
(0 0 0)
(0 0 0)
(0 0 0)
(0 0 0)
(0 0 0)
(0 0 0)
(0 0 0)
(0 0 0)
(0 0 0)
(0 0 0)
(0 0 0)
(0 0 0)
(0 0 0)
(0 0 0)
(0 0 0)
(0 0 0)
(0 0 0)
(0 0 0)
(0 0 0)
(0 0 0)
(0 0 0)
(0 0 0)
(0 0 0)
(0 0 0)
(0 0 0)
(0 0 0)
(0 0 0)
(0 0 0)
(0 0 0)
(0 0 0)
(0 0 0)
(0 0 0)
(0 0 0)
(0 0 0)
(0 0 0)
(0 0 0)
(0 0 0)
(0 0 0)
(0 0 0)
(0 0 0)
(0 0 0)
(0 0 0)
(0 0 0)
(0 0 0)
(0 0 0)
(0 0 0)
(0 0 0)
(0 0 0)
(0 0 0)
(0 0 0)
(0 0 0)
(0 0 0)
(0 0 0)
(0 0 0)
(0 0 0)
(0 0 0)
(0 0 0)
(0 0 0)
(0 0 0)
(0 0 0)
(0 0 0)
(0 0 0)
(0 0 0)
(0 0 0)
(0 0 0)
(0 0 0)
(0 0 0)
(0 0 0)
(0 0 0)
(0 0 0)
(0 0 0)
(0 0 0)
(0 0 0)
(0 0 0)
(0 0 0)
(0 0 0)
(0 0 0)
(0 0 0)
(0 0 0)
(0 0 0)
(0 0 0)
(0 0 0)
(0 0 0)
(0 0 0)
(0 0 0)
(0 0 0)
(0 0 0)
(0 0 0)
(0 0 0)
(0 0 0)
(0 0 0)
(0 0 0)
(0 0 0)
(0 0 0)
(0 0 0)
(0 0 0)
(0 0 0)
(0 0 0)
(0 0 0)
(0 0 0)
(0 0 0)
(0 0 0)
(0 0 0)
(0 0 0)
(0 0 0)
(0 0 0)
(0 0 0)
(0 0 0)
(0 0 0)
(0 0 0)
(0 0 0)
(0 0 0)
(0 0 0)
(0 0 0)
(0 0 0)
(0 0 0)
(0 0 0)
(0 0 0)
(0 0 0)
(0 0 0)
(0 0 0)
(0 0 0)
(0 0 0)
(0 0 0)
(0 0 0)
(0 0 0)
(0 0 0)
(0 0 0)
(0 0 0)
(0 0 0)
(0 0 0)
(0 0 0)
(0 0 0)
(0 0 0)
(0 0 0)
(0 0 0)
(0 0 0)
(0 0 0)
(0 0 0)
(0 0 0)
(0 0 0)
(0 0 0)
(0 0 0)
(0 0 0)
(0 0 0)
(0 0 0)
(0 0 0)
(0 0 0)
(0 0 0)
(0 0 0)
(0 0 0)
(0 0 0)
(0 0 0)
(0 0 0)
(0 0 0)
(0 0 0)
(0 0 0)
(0 0 0)
(0 0 0)
(0 0 0)
(0 0 0)
(0 0 0)
(0 0 0)
(0 0 0)
(0 0 0)
(0 0 0)
(0 0 0)
(0 0 0)
(0 0 0)
(0 0 0)
(0 0 0)
(0 0 0)
(0 0 0)
(0 0 0)
(0 0 0)
(0 0 0)
(0 0 0)
(0 0 0)
(0 0 0)
(0 0 0)
(0 0 0)
(0 0 0)
(0 0 0)
(0 0 0)
(-6.96404275539 0.196066762726 0)
(-5.41071196701 0.152007028062 0)
(-5.89947100255 0.161281018012 0)
(-3.58031032124 0.0978793002218 0)
(-4.77516913424 0.134152265546 0)
(-5.21713313259 0.142627117307 0)
(-7.8995378288 0.222621317425 0)
(-5.41080677101 0.152009691459 0)
(-2.55575102256 0.0718005541185 0)
(-2.78561863082 0.0761538464002 0)
(-2.79381776561 0.0763779961258 0)
(-3.71878530642 0.104474513868 0)
(-3.71858118686 0.10446877939 0)
(-4.05985248232 0.110989127846 0)
(-1.55047238729 0.04355853742 0)
(-3.28212711732 0.0922071608817 0)
(-1.31679867058 0.0359989277032 0)
(-2.17097274189 0.0593505237566 0)
(-2.89642426958 0.0813713329985 0)
(-1.16246440742 0.0317797041379 0)
(-1.7570771157 0.0493628328514 0)
(-0.732471067789 0.0205778372301 0)
(-0.346041327284 0.00972158822497 0)
(-0.622344449876 0.0170137875729 0)
(-0.229103295225 0.00626327558315 0)
(-0.305363122629 0.00857878612532 0)
(-0.549241935138 0.0150152951672 0)
(-0.830086354735 0.0233202137884 0)
(-1.20742152605 0.0339209625113 0)
(-1.55017901334 0.0435502954545 0)
(-1.68940405294 0.0461852944736 0)
(-0.621527699595 0.0169914590766 0)
(-2.25559551027 0.0633680691408 0)
(-0.829801345738 0.0233122068254 0)
(-0.904605702962 0.0247303069394 0)
(-0.570413255537 0.0160250303971 0)
(-0.163431148095 0.00459138894589 0)
(-0.178331011697 0.00487525188227 0)
(-0.293631899222 0.0080273725571 0)
(-0.237809180344 0.00668094457261 0)
(-0.392009585779 0.011013007617 0)
(-0.427463168449 0.0116860808266 0)
(-0.0353638979989 0.00100514290565 0)
(-0.127301830424 0.00357638200436 0)
(-0.0304676440613 0.000837814305681 0)
(-0.0828762145659 0.00227897102987 0)
(-0.112340108775 0.0031560515827 0)
(-0.0268866620725 0.000739342696501 0)
(-0.0400741257948 0.00113902102206 0)
(-0.00883506666677 0.0002073184204 0)
(0 0 0)
(-0.00787855575965 0.000188377196775 0)
(0 0 0)
(0 0 0)
(-0.00537467413564 0.000113224936932 0)
(-0.0100118008619 0.000234930965247 0)
(-0.0275411279768 0.000782797456331 0)
(-0.060126516424 0.00168917752878 0)
(-0.0645261959809 0.001774373167 0)
(-0.013028388889 0.000311510313855 0)
(-0.0874886011711 0.00245788028164 0)
(-0.0189276693985 0.000537978381711 0)
(-0.0209366126736 0.00057572530305 0)
(-0.00500342946371 9.8402569757e-05 0)
(0 0 0)
(0 0 0)
(0 0 0)
(0 0 0)
(0 0 0)
(-0.00418737233597 8.82127840095e-05 0)
(0 0 0)
(0 0 0)
(0 0 0)
(0 0 0)
(0 0 0)
(0 0 0)
(0 0 0)
(0 0 0)
(0 0 0)
(0 0 0)
(0 0 0)
(0 0 0)
(0 0 0)
(0 0 0)
(0 0 0)
(0 0 0)
(0 0 0)
(0 0 0)
(0 0 0)
(0 0 0)
(0 0 0)
(0 0 0)
(0 0 0)
(0 0 0)
(0 0 0)
(0 0 0)
(0 0 0)
(0 0 0)
(0 0 0)
(0 0 0)
(0 0 0)
(0 0 0)
(0 0 0)
(0 0 0)
(0 0 0)
(0 0 0)
(0 0 0)
(0 0 0)
(0 0 0)
(0 0 0)
(0 0 0)
(0 0 0)
(0 0 0)
(0 0 0)
(0 0 0)
(0 0 0)
(0 0 0)
(0 0 0)
(0 0 0)
(0 0 0)
(0 0 0)
(0 0 0)
(0 0 0)
(0 0 0)
(0 0 0)
(0 0 0)
(0 0 0)
(0 0 0)
(0 0 0)
(0 0 0)
(0 0 0)
(0 0 0)
(0 0 0)
(0 0 0)
(0 0 0)
(0 0 0)
(0 0 0)
(0 0 0)
(0 0 0)
(0 0 0)
(0 0 0)
(0 0 0)
(0 0 0)
(0 0 0)
(0 0 0)
(0 0 0)
(0 0 0)
(0 0 0)
(0 0 0)
(0 0 0)
(0 0 0)
(0 0 0)
(0 0 0)
(0 0 0)
(0 0 0)
(0 0 0)
(0 0 0)
(0 0 0)
(0 0 0)
(0 0 0)
(0 0 0)
(0 0 0)
(0 0 0)
(0 0 0)
(0 0 0)
(0 0 0)
(0 0 0)
(0 0 0)
(0 0 0)
(0 0 0)
(0 0 0)
(0 0 0)
(0 0 0)
(0 0 0)
(0 0 0)
(0 0 0)
(0 0 0)
(0 0 0)
(0 0 0)
(0 0 0)
(0 0 0)
(0 0 0)
(0 0 0)
(0 0 0)
(0 0 0)
(0 0 0)
(0 0 0)
(0 0 0)
(0 0 0)
(0 0 0)
(0 0 0)
(0 0 0)
(0 0 0)
(0 0 0)
(0 0 0)
(0 0 0)
(0 0 0)
(0 0 0)
(0 0 0)
(0 0 0)
(0 0 0)
(0 0 0)
(0 0 0)
(0 0 0)
(0 0 0)
(0 0 0)
(0 0 0)
(0 0 0)
(0 0 0)
(0 0 0)
(0 0 0)
(0 0 0)
(0 0 0)
(0 0 0)
(0 0 0)
(0 0 0)
(0 0 0)
(0 0 0)
(0 0 0)
(0 0 0)
(0 0 0)
(0 0 0)
(0 0 0)
(0 0 0)
(0 0 0)
(0 0 0)
(0 0 0)
(0 0 0)
(0 0 0)
(0 0 0)
(0 0 0)
(0 0 0)
(0 0 0)
(0 0 0)
(0 0 0)
(0 0 0)
(0 0 0)
(0 0 0)
(-1.25670599545 0.0308855312204 0.00999449089156)
(-1.81550937719 0.0255038354575 0.0594286158393)
(-1.7142459017 0.0468644263239 0)
(-0.630460497922 0.017235665855 0)
(-2.3809717132 0.0551627786719 0.0270228003378)
(-0.916102263243 0.0250446023982 0)
(-0.963277715386 0.0146501928987 0.0285234097199)
(-1.55027222097 0.0435529140035 0)
(-3.2815521698 0.092191008467 0)
(-2.19752685735 0.0600764659253 0)
(-1.32774099741 0.0362980714076 0)
(-2.89619900513 0.081365004482 0)
(-1.75648683036 0.0493462495402 0)
(-1.17449510061 0.0321086018381 0)
(-0.570294510827 0.0160216944165 0)
(-0.163389711522 0.00459022483841 0)
(-0.297504204404 0.00813323447618 0)
(-0.179965517338 0.00491993635204 0)
(-0.237715841646 0.00667832234137 0)
(-0.43225769112 0.0118171545274 0)
(-0.412847773515 0.00978349808942 0.00404393859458)
(-0.732216086417 0.0205706738548 0)
(-0.345791205377 0.00971456137008 0)
(-0.626683490384 0.0171324092036 0)
(-0.230674646924 0.00630623353676 0)
(-0.829598570897 0.0233065101258 0)
(-0.305204109506 0.00857431885513 0)
(-0.554125101611 0.0151487922316 0)
(-1.54981132427 0.0435399657006 0)
(-3.2812860454 0.0921835320425 0)
(-2.18123105783 0.059630967823 0)
(-1.32443651862 0.0362077328498 0)
(-2.8955812612 0.0813476497568 0)
(-1.75627637356 0.0493403370256 0)
(-1.16638192291 0.0318868020261 0)
(-1.2069721335 0.0339083374028 0)
(-1.54989477911 0.0435423102576 0)
(-1.69518307019 0.0463432825008 0)
(-0.621963039734 0.0170033604997 0)
(-2.25508244232 0.0633536551534 0)
(-0.829544078507 0.0233049792318 0)
(-0.906653947607 0.0247863022958 0)
(-0.732007794694 0.0205648221654 0)
(-0.345761459197 0.00971372568924 0)
(-0.625136296053 0.0170901116693 0)
(-0.229110187134 0.00626346399566 0)
(-0.82951451473 0.0233041486753 0)
(-0.305128161114 0.00857218518224 0)
(-0.550599700771 0.0150524140586 0)
(-0.570088775288 0.0160159145398 0)
(-0.163326364514 0.00458844518529 0)
(-0.293309357838 0.00801855485078 0)
(-0.177927654358 0.00486422481184 0)
(-0.391817508801 0.0110076114601 0)
(-0.237634652652 0.00667604144047 0)
(-0.427726409332 0.011693277363 0)
(-0.269334822332 0.00756661713763 0)
(-0.940079579533 0.0264103326694 0)
(-0.376758257525 0.0102998989726 0)
(-0.376711753825 0.0102986276444 0)
(-0.503216018953 0.0141372100346 0)
(-0.50315571712 0.0141355159318 0)
(-0.20144138673 0.00550704832814 0)
(-0.127235220373 0.00357451068023 0)
(-0.0991077365448 0.00278430501975 0)
(-0.177995174856 0.00486607070186 0)
(-0.039012107578 0.00107277417833 0)
(-0.23772338171 0.00667853416982 0)
(-0.0514328780769 0.0014618691785 0)
(-0.0935823075731 0.00257337245655 0)
(-0.127212082462 0.00357386065023 0)
(-0.0990658115205 0.00278312718984 0)
(-0.177646453884 0.00485653729229 0)
(-0.0388205966919 0.00106750791752 0)
(-0.237652467007 0.00667654191199 0)
(-0.0514192058923 0.00146148057599 0)
(-0.0934282005828 0.00256913474651 0)
(-0.0600948721189 0.00168828852252 0)
(-0.00883060051973 0.000207213620449 0)
(-0.0184060481111 0.000506138590417 0)
(-0.0183437324388 0.000504425003322 0)
(-0.0242927085694 0.000690468106154 0)
(-0.024290812802 0.000690414223035 0)
(-0.0441513327938 0.00121409512843 0)
(0 0 0)
(-0.0353547241382 0.00100488215835 0)
(-0.00790232442371 0.000188945508334 0)
(-0.0130051649449 0.000310955026613 0)
(-0.0100092114834 0.00023487020443 0)
(-0.0189222713233 0.000537824953008 0)
(0 0 0)
(0 0 0)
(0 0 0)
(0 0 0)
(0 0 0)
(0 0 0)
(0 0 0)
(0 0 0)
(0 0 0)
(0 0 0)
(-0.00474240223541 9.9905255734e-05 0)
(0 0 0)
(-0.0077935873195 0.00018287968538 0)
(0 0 0)
(0 0 0)
(0 0 0)
(0 0 0)
(0 0 0)
(0 0 0)
(0 0 0)
(0 0 0)
(0 0 0)
(0 0 0)
(0 0 0)
(0 0 0)
(0 0 0)
(0 0 0)
(0 0 0)
(0 0 0)
(0 0 0)
(0 0 0)
(0 0 0)
(0 0 0)
(0 0 0)
(0 0 0)
(0 0 0)
(0 0 0)
(0 0 0)
(0 0 0)
(0 0 0)
(0 0 0)
(0 0 0)
(0 0 0)
(0 0 0)
(0 0 0)
(0 0 0)
(0 0 0)
(0 0 0)
(0 0 0)
(0 0 0)
(0 0 0)
(0 0 0)
(0 0 0)
(0 0 0)
(0 0 0)
(0 0 0)
(0 0 0)
(0 0 0)
(0 0 0)
(0 0 0)
(0 0 0)
(0 0 0)
(0 0 0)
(0 0 0)
(0 0 0)
(0 0 0)
(0 0 0)
(0 0 0)
(0 0 0)
(0 0 0)
(0 0 0)
(0 0 0)
(0 0 0)
(0 0 0)
(0 0 0)
(0 0 0)
(0 0 0)
(0 0 0)
(0 0 0)
(0 0 0)
(0 0 0)
(0 0 0)
(0 0 0)
(0 0 0)
(0 0 0)
(0 0 0)
(0 0 0)
(0 0 0)
(0 0 0)
(0 0 0)
(0 0 0)
(0 0 0)
(0 0 0)
(0 0 0)
(0 0 0)
(0 0 0)
(0 0 0)
(0 0 0)
(0 0 0)
(0 0 0)
(0 0 0)
(0 0 0)
(0 0 0)
(0 0 0)
(0 0 0)
(0 0 0)
(0 0 0)
(0 0 0)
(0 0 0)
(0 0 0)
(0 0 0)
(0 0 0)
(0 0 0)
(0 0 0)
(0 0 0)
(0 0 0)
(0 0 0)
(0 0 0)
(0 0 0)
(0 0 0)
(0 0 0)
(0 0 0)
(0 0 0)
(0 0 0)
(0 0 0)
(0 0 0)
(0 0 0)
(0 0 0)
(0 0 0)
(0 0 0)
(0 0 0)
(0 0 0)
(0 0 0)
(0 0 0)
(0 0 0)
(0 0 0)
(0 0 0)
(0 0 0)
(0 0 0)
(0 0 0)
(0 0 0)
(0 0 0)
(0 0 0)
(0 0 0)
(0 0 0)
(0 0 0)
(0 0 0)
(0 0 0)
(0 0 0)
(0 0 0)
(0 0 0)
(0 0 0)
(0 0 0)
(0 0 0)
(0 0 0)
(0 0 0)
(0 0 0)
(0 0 0)
(0 0 0)
(0 0 0)
(0 0 0)
(0 0 0)
(0 0 0)
(0 0 0)
(0 0 0)
(0 0 0)
(0 0 0)
(0 0 0)
(0 0 0)
(0 0 0)
(0 0 0)
(0 0 0)
(0 0 0)
(0 0 0)
(0 0 0)
(0 0 0)
(0 0 0)
(0 0 0)
(0 0 0)
(0 0 0)
(0 0 0)
(0 0 0)
(0 0 0)
(0 0 0)
(0 0 0)
(0 0 0)
(0 0 0)
(0 0 0)
(0 0 0)
(0 0 0)
(-0.027525763053 0.000782360741346 0)
(-0.0601016894058 0.00168848004547 0)
(-0.0651018038374 0.00179020151577 0)
(-0.01318094433 0.00031515793243 0)
(-0.087441311921 0.00245655175068 0)
(-0.0211249320626 0.000580903802504 0)
(-0.0189198960329 0.000537757440476 0)
(-0.0353395637938 0.00100445125809 0)
(-0.127198141422 0.00357346899456 0)
(-0.0834449862062 0.002294611393 0)
(-0.0306187866812 0.000841970499999 0)
(-0.112267019723 0.00315399823933 0)
(-0.0400386218911 0.00113801189979 0)
(-0.0270746450173 0.000744511944247 0)
(-0.00500114225263 9.83575871207e-05 0)
(0 0 0)
(0 0 0)
(0 0 0)
(0 0 0)
(-0.00423501174645 8.92163740153e-05 0)
(0 0 0)
(-0.00883006838951 0.000207201133798 0)
(0 0 0)
(-0.00793932837868 0.000189830277259 0)
(0 0 0)
(-0.0100040971358 0.000234750194192 0)
(0 0 0)
(-0.00542692104981 0.000114325590369 0)
(-0.0353297144543 0.00100417131176 0)
(-0.127190490989 0.00357325406544 0)
(-0.0828269850689 0.00227761729287 0)
(-0.0305145921769 0.000839105308123 0)
(-0.11224114585 0.00315327134599 0)
(-0.0400347618231 0.00113790218565 0)
(-0.0268394260079 0.000738043775896 0)
(-0.027514751363 0.00078204775769 0)
(-0.0600797924948 0.00168786487978 0)
(-0.0642614968465 0.00176709433962 0)
(-0.0129150931301 0.000308801398908 0)
(-0.0874126953581 0.00245574780497 0)
(-0.018911224207 0.000537510962435 0)
(-0.0208145841674 0.000572369702993 0)
(-0.00882650162104 0.00020711743813 0)
(0 0 0)
(-0.00790881293233 0.00018910064934 0)
(0 0 0)
(-0.0100025971178 0.000234714995661 0)
(0 0 0)