/*--------------------------------*- C++ -*----------------------------------*\
| =========                 |                                                 |
| \\      /  F ield         | OpenFOAM: The Open Source CFD Toolbox           |
|  \\    /   O peration     | Version:  v1906                                 |
|   \\  /    A nd           | Web:      www.OpenFOAM.com                      |
|    \\/     M anipulation  |                                                 |
\*---------------------------------------------------------------------------*/
FoamFile
{
    version     2.0;
    format      ascii;
    class       volScalarField;
    location    "8.3";
    object      p;
}
// * * * * * * * * * * * * * * * * * * * * * * * * * * * * * * * * * * * * * //

dimensions      [1 -1 -2 0 0 0 0];


internalField   nonuniform List<scalar> 
28582
(
17096.1615394
17095.0756739
12197.3993828
12196.9388745
7297.42895572
7298.91723147
3619.04659563
3624.68272573
46.3890192525
50.5545194628
-27.382160433
3621.89772813
637.280249121
646.697212368
3626.54432709
3627.38491408
649.869149804
1793.53273274
1794.11084693
17097.5626972
17094.7489441
17094.7001504
12198.4648165
12196.9497057
12196.7835569
7296.25931792
7299.32488592
3617.97085133
3627.19318893
50.0508178665
-27.4915153045
-27.2342341604
3615.77449656
3616.91811557
627.370176957
631.274564648
1774.81715767
3626.71560468
3627.77165519
3627.2702752
1793.53993383
651.337745359
1794.16017201
1793.81241465
48.8601996707
49.3184376088
-22.9779738039
-22.9006769756
50.722638011
-22.8666006935
1778.32513514
1782.24325799
640.428078454
637.666844134
1779.72786776
640.903834793
1780.87881298
1785.11770791
1786.90798736
643.498073959
647.289004622
1788.12679689
644.106143736
1783.82824523
1792.16789147
1789.4870984
651.669997099
650.30031947
1790.50903074
651.805807646
1791.43547329
1793.15488564
652.846079304
652.778872652
1793.14006842
652.517154184
652.449834835
1792.6383911
1794.78071376
652.403551986
652.014664679
1793.69381048
651.591032745
1794.36531187
652.034218414
43.0896812609
-22.8867698261
39.7955521076
42.7933875061
-22.810836829
-22.8607793375
48.9841358255
-22.950154028
-22.8844614484
49.5759234589
-22.9167330887
50.3529538746
-22.8599239127
1772.62537993
1773.28491199
627.118226696
627.993501754
1771.99188735
1773.90543556
627.837153628
1772.97319867
1774.11628109
627.940660048
631.98087526
1772.29228441
1774.57419019
628.736694163
629.899750161
633.071975522
1775.4376648
1773.73143646
632.532200035
1774.64071697
629.067106192
1793.2571484
652.689785593
652.659189553
1793.0319521
652.324875249
1792.77957445
652.37866837
1792.23999713
1791.18066483
651.7549136
651.413045178
1792.02333537
1791.31556193
651.881303402
1794.66256488
1794.9464433
652.473989154
652.204664996
652.471115724
1793.74151869
652.453631391
652.486040033
651.962689701
1792.65305039
1792.92359769
651.636034397
1791.87769397
652.189903076
7298.23705058
3625.80225047
51.5283077004
-27.156019411
3617.50300882
636.609268814
3626.04642517
3624.26154696
651.207998236
651.273539951
650.362219028
3622.48088071
3621.0438952
650.133730581
650.860407554
46.3960905962
50.8543641914
52.7317350791
-22.7873767708
-22.8285887965
-22.7621976137
54.4505649465
55.2189761378
1778.92532547
1777.14588764
636.204735423
639.840496639
1776.27476799
639.50271816
1779.75001373
1789.38783764
1790.35137713
651.213167758
651.179647253
1789.51164623
1790.37324158
651.17549288
1789.44666703
1791.27027192
651.139707763
650.907524521
1790.75859423
651.015982178
1789.6009067
1788.03010074
1786.01331735
650.792146627
650.593499252
1786.63457897
650.995868983
1787.7683741
1784.95879173
1784.81063923
650.532304209
650.189840122
1785.52894312
650.535442161
1784.30216736
1784.80875134
1784.16229292
650.833582329
650.43130664
1784.6505821
650.661076434
1784.21273934
3653.79985044
3649.38928542
3649.34358585
3647.54725424
10.5814038662
12.9780604565
8.77976124759
10.5938718858
10.4851248617
-27.1142520534
-27.1794354154
-27.1010339038
-27.1226917989
-27.0235041193
-27.0379054073
3654.92167067
3654.31551822
623.114235755
622.488261715
3656.54344636
623.876233246
3652.42023768
3650.63079955
622.004199355
620.312832972
3655.24812895
3651.20200658
3651.60323806
623.217183889
626.296377238
621.064632549
622.919225715
3651.40636515
3649.52253717
627.068254889
628.984516855
623.61945879
626.967677608
3649.55780077
3648.42971842
620.274041639
622.043830085
620.07680166
3648.26711161
3648.31365629
3647.77720103
622.761577848
626.635120252
621.174396844
626.713316882
621.045157713
627.148112764
9.47871057033
9.42175475224
11.1306335056
-23.2139500418
-23.197483692
-23.2122439592
-23.2037253768
-23.1958534518
-23.1415273497
-23.1941518221
-23.134662408
9.25656009014
8.9265537369
11.8088031998
9.88309281476
10.6082391733
-23.2121299136
-23.2066345336
-23.2197756923
-23.2149782011
14.2357807807
11.57755578
13.2746171439
-23.1864491666
-23.1495213245
-23.1996112573
-23.1738412073
9.48305231595
8.60224920765
-23.2226458526
-23.216115934
-23.2037787039
12.6349066061
10.2059454143
12.5665228029
-23.1960617187
-23.1666571517
-23.1892007894
-23.1609140709
1816.30372306
1817.54537466
621.700181932
623.061213501
1817.42561925
621.553875838
1816.40359258
1816.08090149
1816.50610398
622.86385977
621.290483956
1817.08742685
1815.5999068
621.484003415
1819.37910388
1817.50223609
624.410838752
625.108884143
1818.22853323
1818.43873381
625.792196189
1814.2879017
1815.72286636
620.955030736
621.479750839
1814.94831264
1814.91314887
620.571976358
1813.61612866
1813.43617317
620.927760688
619.627969079
1814.09786064
1813.00478216
620.199068119
1816.20799425
1816.53694135
624.281582294
622.489043388
1817.31931701
1815.55693894
623.400121379
1816.84611031
1818.89981771
625.299946448
625.111334077
1818.12981827
1817.43082251
624.296102282
1815.13229601
1813.86540954
621.791451429
621.691305166
1814.61442891
1814.2360586
622.558792054
1815.59537574
1814.92885661
623.974958115
622.232329088
1816.02944157
1814.56841004
623.247294773
1817.83072855
1819.49587979
627.823124584
625.814283116
1819.7130737
1817.79029044
626.600730157
1817.42328498
1817.65531407
628.40628919
628.208872649
1819.24378851
627.411206757
1816.3754293
1816.21852484
1815.1166681
624.655321288
624.54161022
1816.20260969
1815.25186652
625.545626535
1815.92460221
1814.82958277
627.47360762
625.673617336
1815.12335833
626.452763403
1815.3283651
1812.85097487
1813.14446411
620.835390338
619.405609753
1813.4735527
1812.54340255
619.970999757
1813.12863388
1814.07194678
621.332968159
621.245805794
1813.76488495
1813.41789782
620.526945766
1812.52698433
1812.28526182
620.546524265
619.126503798
1812.81018893
1811.96171547
619.711013385
1813.93818769
1814.29578776
623.797249493
622.076220255
1814.51387295
1813.66284793
623.225804748
1814.20010621
1814.54304307
625.157975741
626.482325165
1814.56512024
624.704390346
1814.5690461
1813.45758315
1812.6412176
621.501414171
622.603671139
1813.11125537
1813.10377704
622.78710025
1813.84628158
1814.61064164
626.523063235
624.427219271
1813.65011581
624.437542189
1814.59248806
1812.55744624
1812.1805501
622.633461323
621.173359157
1812.80212449
1811.8552843
622.930477882
1814.55036098
624.609136836
1813.57297737
17095.030004
17094.0976308
17094.2361201
17094.6036721
17094.698196
17101.988164
12196.1833001
12195.9392497
12196.620046
12196.1849705
12195.8700983
12203.2177764
18312.1316962
18314.8855169
17087.4193281
17093.3968178
17098.5504389
17102.3461999
17107.6029845
17095.8960181
18314.029993
18315.6374305
17092.5917906
17094.8734005
17096.9675149
17097.3579474
17096.5919306
17104.5114246
17094.0199361
17091.6487914
17092.3070516
17094.1239739
17095.9332276
17096.4473343
17096.3552572
17105.2539845
17096.3959796
17093.7143676
17093.5719812
17094.7676681
17095.7440485
17095.800924
17095.530057
17104.3120653
17094.7754484
17094.938889
17094.9053284
17102.9448331
13411.956654
13413.6335994
12191.9262996
12196.2331528
12200.2828712
12205.0902061
12226.8208037
12151.9227099
13415.8468249
13416.137414
12196.3709376
12199.1377609
12199.7898926
12198.3276161
12194.4986558
12186.8295084
12194.452799
12193.0633416
12194.8110744
12196.8936905
12198.172569
12197.7056949
12195.1084374
12201.1409904
12197.0967602
12194.9260515
12195.7176124
12197.3097879
12198.0698267
12197.2990513
12195.7280106
12203.6359128
12197.0096761
12196.5601086
12195.7734988
12203.6169595
8510.83302052
8511.82385431
7292.94641677
7298.69363689
7303.42947794
7307.43045594
7320.33866303
7242.41251038
8515.39749637
8515.32462606
7293.03481454
7298.41607697
7301.12706971
7298.53901898
7288.36154449
7277.55647822
7292.52202886
7291.74945781
7295.90357226
7299.31457062
7300.20507772
7298.32990418
7293.0556654
7299.56758907
7303.11419738
7294.76077779
7293.90245414
7296.89969475
7299.40031227
7299.65300423
7297.65764401
7293.75211206
7302.01297851
7295.54258259
7297.42836079
7298.95556968
7298.74206475
7296.97396636
7294.41377866
7303.53793827
7296.26885542
7294.31313383
7303.28124055
3612.62685672
3608.00950851
3615.95474844
3626.30178549
3631.64380384
3635.57789032
3637.69775092
3634.99587756
3626.09128582
3613.85484681
3609.88793041
3617.24221174
3625.9161369
3630.51544381
3630.73632308
3625.21178289
3615.46322859
3645.89017456
3632.9309869
3615.80347099
3612.30958655
3620.47320068
3627.41541342
3629.76806373
3627.90576439
3623.49168318
3623.61702855
3632.8296713
3617.10029722
3614.6549565
3622.48902422
3628.29362135
3628.93781517
3626.0708226
3623.1452549
3625.82176506
3616.3741703
3623.1124548
3627.49039066
3626.9949311
3624.63708167
3622.57765411
3625.40290827
3623.08885652
3621.6526633
3624.65511618
33.4897039054
42.5762660524
49.3385607722
48.6765879019
46.9340806002
48.7297802069
53.8287183579
56.9085729364
16.7387642153
24.9417582808
33.6550342847
40.2703403866
45.6717238005
47.6812965612
46.4543233446
48.7431127393
54.1617762944
53.9665130184
16.1918714155
27.233064767
35.0187325551
40.0455776637
43.720047944
45.8590644446
46.4337303058
50.0636469422
53.5849920679
50.7873975704
30.3971040813
37.7628558175
42.3769215106
45.0917277531
46.356954072
48.0130468028
50.6792245208
51.8866860657
49.2817518344
45.9340381448
49.5994548579
49.8928375849
50.6045455971
51.6298927865
51.7349936512
49.9242397525
53.7026404826
53.0271427796
51.1013361657
-27.1689641783
-26.9947344273
-26.9946417972
-27.1354296956
-27.1804694156
-27.0612638704
-27.1904614767
-27.0766278715
-27.1776656429
-27.5923003841
-27.4243152261
-27.4344880348
-27.8805877078
-27.16205917
-27.3051231404
-27.1546470484
-27.2218680899
-27.0994391948
-27.1696396076
-27.4460344572
-27.2664607998
-26.9407211982
-27.1392493792
-27.0741893421
-27.1667872574
-27.1101957514
-27.3863662635
-27.0979897242
-27.1840591803
-27.365892923
-27.0683358134
-27.3466464082
-27.2061580749
-27.2248313139
-27.0408202579
-27.4581116899
-27.1058665116
-27.1959971161
-27.3724986782
-27.4019181008
-27.2569292373
-27.4746334844
-27.2403924861
-27.1160184263
-27.1647759625
-27.5004724493
-27.094413831
-27.2191828145
-27.6767992322
18313.6753197
18312.1942643
18313.816276
15862.3857461
15863.9511277
15862.9844348
15864.1134127
18315.6253893
18315.3082145
18316.2898945
15865.1495912
15861.9704902
15864.9015444
15864.1623485
18314.526485
18316.3924908
18315.6449949
15864.7692265
15865.465986
15866.8864384
15866.5165327
18316.3428675
18315.9669428
18316.6713518
15866.1357473
15866.2371121
15867.0842248
15868.058198
13413.0509358
13413.3021432
13413.7952743
10961.1238905
10962.0230188
10962.8502027
10963.3031412
13414.3056148
13413.9960913
13415.5033449
10962.6560147
10963.4977283
10963.6451893
10964.1157545
13415.872977
13417.3387801
13417.025341
10965.7887364
10965.870471
10967.4419914
10966.6772637
13416.5035561
13417.2679377
13420.8011897
10965.9301006
10963.0675708
10966.3169477
10969.4750759
8511.20748126
8512.8878002
8512.85736568
6061.39905571
6060.36180901
6063.12608152
6061.66218938
8512.85948028
8513.12804441
8514.32451727
6060.49248557
6061.90436581
6061.45192538
6064.01992367
8515.19279538
8516.94924137
8515.83071776
6064.85574797
6063.27336588
6066.08172572
6063.89130013
8512.90549184
8515.60411105
8518.23009225
6063.18191009
6063.72580127
6063.80825475
6066.96111627
3616.88893774
3618.47788805
628.470900087
627.09244291
3609.08889599
3613.61859178
3609.84550296
627.437445429
622.41103431
625.910025264
622.18563261
3610.34448132
3608.71956235
3611.17872751
621.859965967
635.266320719
622.217829726
634.613883634
3622.00042786
3616.35230003
3621.97807711
640.142766112
651.625458796
639.040159093
650.11880029
3629.31955275
3625.96983269
3628.85976419
651.752748631
651.834791291
650.359343215
650.731877784
3633.87764283
3631.09250345
3632.94450694
652.289045334
655.203572454
651.209778692
653.379043871
3636.5655753
3633.73720703
3633.45805831
656.126518383
657.079081297
654.62407806
655.325729337
3635.88480821
3631.39086564
3624.3108318
657.603366332
661.374890819
655.174119922
655.153056709
3588.64950837
3609.91881409
3604.69372961
663.689108167
618.825627243
655.413827487
636.124542155
3645.0918101
3638.78891286
629.818855212
630.945525637
628.632479557
633.676941209
3619.30441541
3630.5553645
3621.68330821
630.345599705
627.020197347
633.992158327
627.57298099
3610.40827359
3614.62571854
3611.17289067
625.532267062
622.112512856
624.852706025
622.196294572
3612.40465949
3611.12686894
3614.5328439
622.463857006
634.445357397
624.497001763
634.964157544
3622.40481969
3619.71576193
3624.64655257
638.735823922
649.562162499
638.815957289
648.226086855
3628.56910903
3627.4990111
3629.12519933
649.956670739
650.560398035
649.169002717
650.436858853
3631.4710325
3630.19897678
3630.54744012
651.069141098
653.078693903
651.148855413
652.634804657
3628.68510647
3629.24933098
3626.72545843
654.261845839
654.290265724
652.789028884
651.614567633
3620.69417486
3623.75224364
3621.16041704
654.020615986
653.652093472
651.474755288
651.179728648
3626.09689103
3618.7489127
3633.53545629
653.917845131
638.057448521
651.8302888
637.565673427
3640.98249873
3646.10445973
3641.55958988
628.573332298
634.613113376
629.959665103
638.151315069
3623.28868242
3633.4204446
3623.64162909
634.994418014
627.597915582
637.350506909
626.555828333
3612.09597832
3616.56096387
3613.20797976
624.548818165
622.749276339
623.65369495
625.557412327
3616.02378787
3613.47408372
3617.31967924
625.662450304
635.692684082
629.278915547
638.190552259
3624.89453814
3621.71351551
3625.81814357
639.169109928
647.788796134
641.140420328
647.713791539
3629.06060736
3628.1708531
3629.41489624
648.94290435
650.439585691
649.047474564
651.313114152
3629.45151686
3629.5380404
3628.56411612
651.223282117
652.287728421
651.859260268
650.93652356
3625.663413
3627.00789328
3625.05174577
652.202698575
651.005302637
650.550496245
649.77131039
3622.52917538
3623.35726174
3623.2101439
650.947111882
650.905481209
649.753072815
649.649140684
3637.24591739
3625.13190391
3637.44503032
651.714257347
636.582675548
650.54937861
634.746530514
630.581991655
638.799312897
3623.40921016
3623.08529206
637.404882914
626.353844634
628.031562575
3614.20490354
3617.49539218
3614.99513397
623.769699177
626.903833159
626.285188018
630.582059373
3618.45227175
3615.56952289
3619.16028637
630.653665761
639.45586922
634.498128124
643.744909951
3626.13600313
3622.87678349
3626.14987136
642.290763945
648.46566903
646.329347607
651.389143134
3629.35311811
3627.9825125
3628.61186315
649.661063819
651.745712881
652.314914457
651.879143712
3627.61327373
3628.01233768
3626.74136625
652.038096435
650.594140878
651.523585876
650.72148391
3624.43369519
3625.36111465
3623.90850681
650.253056036
649.68514198
650.722071111
649.830687702
3623.45328944
3622.93373533
3623.40839453
649.577358676
649.180914865
649.379248706
648.315031833
3637.02320471
3625.60953965
3636.0866514
650.125306929
634.154825807
649.151331604
631.772681703
3619.70873182
3620.54118819
635.127465013
644.527667895
646.021134668
3626.0536652
3623.6275851
3626.08096548
647.252367144
652.015592732
649.205060253
652.658605851
3627.57420928
3627.15523292
3626.9608222
652.754504108
651.467337738
652.644163458
651.193829418
3625.99013433
3626.2821365
3625.15385919
651.224930776
650.969707907
651.127703472
651.244955979
3623.30986741
3623.80678344
3622.6211787
650.861828074
649.898486271
651.057066842
650.200910023
3623.22144257
3622.11826871
3622.97627944
649.411234918
648.319443042
649.682554591
649.125800527
3635.14432389
3625.10290935
3634.10839075
649.180692402
631.527262089
649.698374786
629.493306242
3624.49097166
651.155791429
3621.88275316
650.914602666
650.384132499
3622.72531407
649.910294666
649.706772337
3633.16148895
650.031685966
629.306163489
-23.0677436668
-23.0105613952
-23.0797505216
-23.0280842429
29.2880961435
29.0019714864
-22.8859134333
-22.8625850297
-22.9106155232
-22.8425241367
38.4320517723
33.3283626204
37.9837736522
-22.7566594557
-22.7425716806
-22.7195608222
-22.6921741637
47.1706077228
41.716072652
45.6765823475
-22.7274582569
-22.7615712639
-22.7324017429
-22.7887689501
51.245734783
47.4993337186
49.9194702893
-22.8655111449
-22.9483034008
-22.8944466653
-22.9532035816
47.5282228688
48.0087735995
47.0594694891
-22.9899391228
-23.0396347471
-22.9414709023
-23.004122447
47.2892087552
46.5157300775
46.801394295
-23.0385334804
-23.0127282302
-23.0000217252
-22.992103539
51.0776248908
48.5963367807
51.0549969795
-22.964989885
-22.9153771019
-22.9439676518
-22.9135253161
56.2763910987
53.8964675128
56.3937192978
-22.8452423697
-22.8703277564
-22.8287191567
-22.8624832698
59.0475402653
55.3331153194
59.3132607155
-22.9702030273
-22.956046343
-22.9911930886
-22.9710739303
20.5656153136
16.2624363975
20.8962091432
-23.1313077418
-23.0721131286
-23.1406555121
-23.066657501
29.2652537295
25.7462717004
30.1557731917
-22.9956979336
-22.950605035
-22.9984026691
-22.9575004111
37.6397137088
34.1751350463
37.4758933057
-22.8706054177
-22.9136304196
-22.9261186936
-22.9655241587
43.6334547851
39.7102646979
42.4361183934
-22.8939467596
-22.9266047461
-22.9326112093
-22.9575791768
48.4169419963
44.4347360185
46.7414220869
-22.9737947697
-22.9929710623
-23.0272648059
-23.0524956778
46.9210558026
46.7642329147
46.2508224461
-23.0186753996
-23.0172100222
-23.0860615825
-23.0595055691
46.6675353375
46.5554635654
47.1390502295
-23.0064530613
-22.9887131007
-23.0172220776
-22.9689093833
51.4670301334
49.5001756606
52.1639085967
-22.9283890438
-22.870632128
-22.8861516784
-22.8207486317
56.0234487897
54.1833013845
54.8869350576
-22.806415089
-22.8497029786
-22.789476826
-22.8443212024
57.9788499036
52.1908536138
56.5867448102
-22.9902370702
-22.9598842242
-22.9803824513
-22.9439077018
21.7256760533
16.3447035417
22.7721626973
-23.126531395
-23.0312042826
-23.1063758484
-23.019376718
31.558679199
29.0244140797
33.3338948575
-22.9009294572
-22.8284199532
-22.8654054844
-22.7937316808
37.5777776913
36.3615065715
38.3816952724
-22.7791691691
-22.8106557178
-22.7249993047
-22.7667302412
42.0372128855
40.9328676836
42.3504040492
-22.8923320877
-22.9396508638
-22.8765596502
-22.9247124961
45.3221454384
43.7377238811
44.8965939743
-23.00569642
-23.0341657231
-22.9988026518
-23.0431527179
45.595334878
45.5442954657
45.6359531936
-23.0598649803
-23.047879708
-23.0868292901
-23.0747035582
47.7881724536
46.8544147255
48.4780082813
-23.038761932
-22.9275033482
-23.0511087167
-22.898541765
52.3945914021
50.337286769
52.1691360156
-22.8268590916
-22.7803065222
-22.7977770001
-22.7598687779
53.6189445466
52.6969333667
52.3008563089
-22.7803678104
-22.8487798281
-22.7811795368
-22.8514427387
55.2675001997
49.7392796438
54.1555076968
-22.9804166899
-22.9422704863
-22.9749176864
-22.9343994482
34.8236831354
35.7156548476
-22.8524113806
-22.7648728552
-22.7611602515
39.9449822518
38.9513032034
41.5885349148
-22.7340246366
-22.7836760836
-22.7343328467
-22.7753989265
43.8937000693
44.495196936
46.5135278858
-22.8682426553
-22.9158773479
-22.8496226826
-22.8934926007
46.072000358
47.5576157335
48.1677354416
-22.9837689168
-23.0281232597
-22.9410800952
-22.9608708935
46.4514058619
48.1087983282
48.3359409844
-23.0592648451
-23.0359325393
-22.9730115112
-22.9473907224
49.5472237002
49.4936319796
50.4178988292
-22.9843738677
-22.8679591124
-22.9064628939
-22.8396293617
51.8578942341
51.08269462
51.9228485075
-22.7729110124
-22.7522367948
-22.7541962408
-22.7443080682
51.1776207139
51.5863292804
50.9194314732
-22.7871042568
-22.8572589836
-22.7886719302
-22.8579243997
53.2312062478
49.3667321044
52.6773325002
-22.9686830971
-22.9339478113
-22.9623503543
-22.9214023805
48.1612004228
48.5570982352
-22.8923467305
-22.8967420036
-22.8900256762
-22.860003629
49.93065921
50.5474620284
50.6892365911
-22.9343421042
-22.9393158705
-22.8789103312
-22.8823625669
49.8610234332
50.4685730244
50.4070465001
-22.9608958451
-22.9083385592
-22.9086901881
-22.8901453901
51.1801546252
51.3906977407
52.2139372672
-22.7758614027
-22.759522704
-22.7955575228
-22.750369456
52.3279391874
52.7479003473
53.2988822992
-22.7265738472
-22.7351781045
-22.7110898348
-22.7216318114
51.1176698315
52.2827396975
51.6700911245
-22.7815940633
-22.8513009569
-22.7730361042
-22.8423591034
52.6173700197
50.5750339183
52.7684866314
-22.9591256676
-22.8959329864
-22.9594814866
-22.9048343888
52.7218506869
-22.7392139756
54.300230394
-22.7052497857
-22.715091994
-22.7192653222
-22.7276165039
52.8102254262
-22.769423686
-22.8312508452
-22.7713145429
-22.8224202167
53.2830724517
-22.9658418962
-22.9234086216
-22.9654905982
-22.9415939688
1785.87239439
1781.60449877
628.320967362
627.992792363
1781.68992996
627.956207058
1785.64313628
1785.89400816
1781.63338509
627.38611836
627.921422863
1781.56915741
1786.37714035
627.575282787
1771.082665
1776.51957983
625.978125592
626.878598833
1776.49931246
625.511915887
1771.03181168
1766.48249737
1762.50834578
623.75734457
622.34477399
1763.0455546
623.510248743
1766.17185315
1771.38549871
1776.87925076
626.374744166
624.822928726
1776.67626563
1771.54533312
625.154900008
1766.96694998
1764.73827089
622.194186667
623.243157537
1763.84833471
1767.25572301
623.345851931
1763.78378024
1762.04474036
625.149784717
621.899297625
1762.66017347
625.211356566
1763.17794886
1766.89873283
1771.0225624
630.187710911
635.012669736
1771.42661595
630.12290864
1766.35632143
1764.78842623
1764.87859591
622.030007304
625.677558224
1763.71486473
1765.911537
625.503623377
1767.87714268
1773.12243729
634.785476777
630.152230511
1772.21001345
1768.93196022
630.138539162
1781.59549227
1776.15123294
644.703723047
639.699932758
1776.44153616
644.258631181
1781.34125529
1786.19399388
1789.69085792
649.268222098
651.157919097
1789.81497181
648.829672804
1785.95357033
1782.08487458
1777.83532972
639.296507644
643.499632799
1777.03153796
1782.71991381
643.834137674
1786.4656613
1790.15881182
650.588586542
647.994208173
1789.86897562
1786.89313266
648.329461025
1793.71992375
1792.13279508
651.702702822
651.337312629
1792.11313466
651.288084566
1793.83700334
1794.9728142
1796.47617951
651.80051108
651.382922237
1796.24121294
651.33976756
1795.19101036
1793.6116902
1792.28299137
650.703503627
650.512752498
1792.07065396
1793.65043083
650.695725942
1794.81718817
1795.94491365
650.959712468
650.57415618
1796.03574257
1794.74587469
650.825300811
1798.80848133
1797.74778822
653.184110208
651.784148838
1797.46496063
652.672637649
1799.07490978
1799.70922069
1800.35207443
654.124815559
654.648371103
1800.12739714
653.60217139
1799.96390871
1798.49430389
1797.10844675
651.489984241
651.756592316
1797.25572117
1798.19317173
652.156483313
1799.27026082
1799.17550649
653.910602022
652.367800061
1799.72404126
1798.81791975
652.865557367
1799.8626609
1800.43049498
656.602176698
655.66489919
1800.1083993
656.218443362
1800.34627282
1799.56272463
1800.06487738
656.762208961
656.632410425
1799.05524323
656.363011247
1800.32104136
1799.26214494
1799.04746722
655.114324331
655.24192615
1799.69201539
1798.28416958
655.791516198
1798.56581388
1795.56115195
656.033580364
655.303775599
1797.55411578
1797.15854803
655.888276575
1798.03926952
1800.13100867
658.712990571
656.965846756
1798.65371848
657.759437436
1800.11882548
1796.8763081
1796.79142279
660.018726749
659.406830905
1793.92694936
658.781127058
1799.45251789
1794.97617865
1793.78842096
656.16120042
655.272800947
1796.32885514
1791.94417743
656.478440894
1792.95019828
1787.27025604
657.030842842
655.344065824
1789.79671362
1789.85672577
656.990891471
1781.71632751
1791.39399926
667.52585137
660.758087466
1788.76570083
663.327835364
1783.89156175
1770.83137848
1777.63712088
673.616127646
626.444950217
666.175934695
1783.20960104
1772.68516116
1779.06535948
1783.5525268
657.474061619
657.852797795
1785.11499249
1778.63601575
659.557107266
1769.3842315
1794.29029038
633.675102278
662.744917851
1769.9580967
663.66190513
1789.49190208
1811.78344795
1814.59126637
630.301020824
629.327009469
1810.95980377
630.322601626
1814.3252199
1808.71706401
1802.98800967
631.046354914
631.954396002
1807.22568047
1804.86899737
631.419712623
1812.44534818
1814.12545158
628.900833208
630.468075131
1812.90877509
630.322256111
1814.12647764
1809.98852014
1807.52558748
632.814837095
632.462256074
1806.45292405
1810.8105516
631.889813072
1794.14841075
1798.10051409
629.490872879
631.868488985
1792.59934267
1800.02031363
630.635079735
1787.79425011
1781.49461789
628.243391317
627.123546801
1786.90247406
1781.45722978
628.860738644
1795.4561969
1802.62665422
632.936357372
632.765218569
1801.58411223
1796.27213761
631.75323878
1788.62047307
1781.37576383
627.473477394
630.309419373
1781.558499
1788.92169661
629.71418523
1771.20070903
1776.67930764
624.368890024
625.198120885
1771.46005957
1776.20244716
623.876512891
1767.6048072
1765.49595212
622.988541254
622.096698463
1767.44732015
1766.29045157
622.763930294
1770.74080223
1775.28752988
625.049193762
623.228720046
1775.76454609
1770.29324662
623.46470967
1767.6493876
1767.78032905
622.022861103
622.051211525
1767.02449367
1767.79242564
622.392806277
1768.51280058
1765.78993874
626.04237347
622.926862091
1767.1293871
1767.01003286
626.412399342
1771.42599225
1774.08246497
630.179749343
634.452084827
1770.02888106
1775.3022036
630.42889254
1769.8989842
1769.04449872
623.744630451
627.759348212
1768.14389604
1771.10734293
627.098879815
1772.88413958
1777.9643976
634.665587991
631.376772302
1776.64960406
1774.22870166
630.865842154
1784.12316783
1778.59577017
643.116099941
638.60050782
1783.2305499
1779.62312511
642.933188727
1787.92683654
1790.18149238
647.465707937
649.157908683
1787.17193308
1790.7069348
647.152612323
1785.10162854
1781.94973779
638.621351862
642.804211733
1780.80241817
1786.06639083
642.792990518
1788.74334495
1792.19409797
648.608706811
646.33939625
1791.4389205
1789.55120768
646.658199896
1794.00380437
1792.20830673
650.272959949
649.632943442
1793.67263662
1792.54943199
650.143066293
1795.18391748
1795.90847691
650.357969429
650.531824988
1794.84834186
1796.06252736
650.330010997
1794.46258504
1793.84827756
649.419501419
649.854564607
1793.17664442
1794.90837605
649.996416834
1795.48054961
1796.46745848
650.400230249
650.116844567
1796.21323886
1795.83416014
650.162230133
1797.63419249
1796.92944492
651.595681888
651.051113078
1797.86355394
1796.88580167
651.64511215
1797.89187971
1798.39476288
652.129168493
652.760141584
1798.29775697
1797.59755984
652.072481853
1797.4648784
1796.99120069
651.077069687
651.977720995
1796.89332629
1797.24569973
651.824994758
1797.46551743
1796.0662779
652.802154577
652.482190691
1796.76737554
1796.89550203
652.500139422
1795.67778568
1797.92280714
654.611344228
653.659852485
1796.93076845
1796.91924294
653.864503244
1793.63870882
1793.24471149
654.418461047
653.317501903
1795.32059748
1791.23829262
653.470674017
1794.08029505
1794.71890377
653.28416237
652.332771081
1795.73856202
1792.74281674
653.089031867
1791.93287273
1788.45367187
652.39703629
651.711041241
1789.63704623
1790.57329166
652.543090999
1786.71218888
1790.98017886
653.954576432
653.006977532
1788.72741286
1788.85850023
652.910815289
1785.09416697
1785.198925
653.799000084
652.489651163
1786.79905083
1784.16982614
652.691582698
1785.72088755
1786.6630034
652.140726765
651.479893309
1787.49003001
1785.3745414
652.036077771
1784.48536364
1784.2156347
651.633213563
651.414174896
1784.03850784
1784.54372839
651.906942289
1780.00223996
1782.94379762
657.176642785
652.968530012
1779.46037705
1782.82468326
656.54643294
1773.2212245
1797.45280927
662.513687573
638.783802585
1772.45813215
661.972519336
1798.81532939
1780.7361432
1783.46345262
652.215312955
655.46848401
1783.22004392
1781.01984404
655.995891957
1774.41117341
1798.93651959
638.357204578
660.465571534
1774.30988937
661.491980273
1799.38328537
1813.91867116
1814.20727283
630.720839736
628.887697672
1813.29200402
631.433267433
1814.59264542
1812.03522646
1808.20803922
633.103496405
635.686832631
1811.38319631
1808.6525322
634.101802159
1814.59768482
1815.2779254
629.374613445
633.374544149
1815.03635265
632.400014466
1815.00809323
1812.61075228
1808.7936927
636.907874222
636.883153722
1808.84625105
1812.95390628
635.487271995
1796.27370885
1803.22451698
633.580344936
635.919327174
1796.55197143
1803.33965339
634.191532462
1788.13048848
1780.9253215
630.698018792
627.459900258
1788.80835839
1780.05252701
630.798016386
1795.48379967
1802.35193738
636.673218145
634.755464543
1803.03752716
1794.27404071
634.512789506
1787.07537332
1777.56612244
627.054745741
630.410000566
1778.88583744
1785.70686223
630.666556963
1769.975603
1774.75573829
622.86153025
624.341429737
1770.06386093
1774.00594277
622.53922623
1768.61047577
1768.63712033
621.799818906
623.524304824
1768.2081628
1769.24999051
621.806258168
1769.88271563
1772.16823238
623.872751979
622.269767433
1773.08240295
1769.84496678
622.237378242
1768.96133576
1770.27371498
624.549647948
622.355597933
1769.62699526
1769.33830566
621.889932065
1773.39539892
1769.60192035
628.895933374
626.639053305
1772.32162003
1770.46924859
629.916813002
1776.84591173
1779.20541891
632.370057325
636.371706907
1775.58049019
1780.425496
633.341849778
1774.46360801
1772.31337517
628.012094554