/*--------------------------------*- C++ -*----------------------------------*\
| =========                 |                                                 |
| \\      /  F ield         | OpenFOAM: The Open Source CFD Toolbox           |
|  \\    /   O peration     | Version:  v1906                                 |
|   \\  /    A nd           | Web:      www.OpenFOAM.com                      |
|    \\/     M anipulation  |                                                 |
\*---------------------------------------------------------------------------*/
FoamFile
{
    version     2.0;
    format      ascii;
    class       volVectorField;
    location    "8.3";
    object      U;
}
// * * * * * * * * * * * * * * * * * * * * * * * * * * * * * * * * * * * * * //

dimensions      [0 1 -1 0 0 0 0];


internalField   nonuniform List<vector> 
28582
(
(0.815540559169 0.00335987727462 -0.000280342854606)
(0.816192170047 0.00189005866074 -0.000109179083296)
(0.816280337145 0.00351999132636 0.000935376232953)
(0.816275038561 0.00206737260832 0.000967857132657)
(0.817246854488 0.00383897961083 0.00204178461023)
(0.816125956939 0.00223952465881 0.00162092185304)
(0.821137732205 0.0066125538007 0.00492790946214)
(0.816708743271 0.00452597349845 0.00418194420702)
(-0.139018642499 -0.101045608438 0.0159090023667)
(-0.05360671234 -0.0980596861132 -0.00175198270703)
(-0.71906996706 -0.102532980572 0.333935954493)
(0.817691145582 0.0052059810374 0.0062293318614)
(0.771051002726 -0.00218835046863 0.00676260764535)
(0.768777135201 -0.00477120923581 0.00777491062827)
(0.814514340659 0.00310092822727 0.00273101439996)
(0.813709906402 0.002228153959 0.00369277933692)
(0.767739178352 -0.00576346814999 0.00670449083416)
(0.810666499243 0.00416365040233 0.00379475860884)
(0.810250178735 0.00372906198924 0.00547064758106)
(0.814929661379 0.00659867094537 -0.000835034662542)
(0.816675802026 -0.000479940922993 -0.000194973431854)
(0.815558003785 -0.00112055380794 -0.000478626462606)
(0.81579617206 0.00686271156771 -0.0010374590871)
(0.816407901579 -0.000135999044632 0.000609290287604)
(0.815454713579 -0.0011508266003 0.000125940603389)
(0.818033423893 0.00763173267192 -0.00263737195964)
(0.815790962093 0.000136412624617 0.000374616311126)
(0.822216137813 0.00960625945794 -0.0046192833634)
(0.815006495426 0.00251171849619 0.000801141279413)
(-0.102343290423 -0.081386663049 -0.00976401454863)
(0.355855446736 0.791106348804 0.13180444745)
(-0.339319362135 -0.27746217536 -0.406004153067)
(0.824628249751 0.00766570658656 0.000495534628971)
(0.823143004785 0.00834082746207 0.00149220102805)
(0.774408550556 0.00303329508635 -0.0130229625196)
(0.771984879456 0.00159317695415 -0.001136347464)
(0.824950573899 0.00930116938373 -0.00149820348244)
(0.815362034066 0.00173857048107 -0.00106548456075)
(0.813919566346 0.00177912915729 0.00163368494801)
(0.814018585121 0.00093787753677 -0.00031423224389)
(0.810823178041 0.00347575110182 0.00293543655411)
(0.768488176774 -0.0116377489356 1.70703009729e-05)
(0.810071751839 0.00295525759149 0.00444879518447)
(0.810246275109 0.000848419249948 0.00208125359987)
(-0.0554666226229 -0.115883064877 0.0190102147665)
(0.105230945646 -0.0536303015216 0.00249710737514)
(-0.223403086937 0.0480494665906 -0.105396317773)
(-0.212168959824 0.0780398266736 -0.0215017602428)
(-0.0165394509912 -0.114463944777 0.0104555007218)
(-0.157750149627 0.133551396455 -0.179309069471)
(0.822403712803 0.00831116651836 0.0076197751811)
(0.819043205496 0.00651086188974 0.0128169370609)
(0.770592247211 -0.00263703506243 0.0077326180615)
(0.7709262045 -0.00060211859684 0.0087761374985)
(0.822075688685 0.00718343584558 0.00943584144972)
(0.77006386792 -0.00157083043598 0.0103318449468)
(0.819614932165 0.00759357114813 0.0107948273074)
(0.816829594169 0.00633010007136 0.0116384972704)
(0.814464250886 0.00606007333244 0.0104804460108)
(0.769547361174 -0.00372778444791 0.00791987537705)
(0.768156312572 -0.00364152493732 0.0100962060215)
(0.813888948509 0.00545234255452 0.0121069343985)
(0.768856072501 -0.00249655024474 0.0101806450122)
(0.817432653348 0.00724477231051 0.00971573920417)
(0.811130441601 0.0049994487071 0.00867433379265)
(0.812894356952 0.00559009728257 0.0083454640489)
(0.767854184685 -0.00681846746997 0.00454471874023)
(0.767347153001 -0.0041513688276 0.00926166475761)
(0.812562761673 0.00511341863705 0.0101890959686)
(0.767332740443 -0.00501696525405 0.00725757714849)
(0.811467670183 0.00514536363066 0.00687773190773)
(0.810903894233 0.00439131072198 0.00200160896722)
(0.767498520981 -0.00824998312029 0.00128027863044)
(0.76711852415 -0.00581708408492 0.00379443018367)
(0.810573347609 0.0041607931379 0.00673097631023)
(0.76734189842 -0.00771888702009 0.0037051807322)
(0.767120436919 -0.00567749274589 0.00611565998326)
(0.810958138917 0.00430612086948 0.00492457380946)
(0.809979801293 0.00292058895088 0.00696752271448)
(0.767145522931 -0.004395107995 0.00448124798286)
(0.767099967167 -0.00138086267956 0.00673649174684)
(0.810265741353 0.00371966475834 0.00788090582687)
(0.767604675426 -0.00131464825234 0.00842851905334)
(0.81010403377 0.00272943339195 0.00911700391072)
(0.767589356821 -0.0043696179288 0.00641899762586)
(-0.262066408808 -0.0847033389434 0.0110153895412)
(-0.0474872398352 0.252321826662 -0.0412601342872)
(-0.271184239408 -0.0383471638318 -0.00102152682352)
(-0.32188171226 -0.0853351224149 0.0120541958351)
(-0.0598017562151 0.196871958996 0.0415719783886)
(-0.089490761909 0.229011473531 -0.00459753382449)
(0.100342318182 -0.0801576705705 -0.0065300514984)
(-0.30836221578 0.0132856605963 -0.00170881537528)
(-0.258751776596 -0.0340212197484 0.0581491120876)
(0.0790246230245 -0.0969394120936 -0.0128462423032)
(-0.282745268955 0.00646196303897 0.0470851629649)
(-0.098605616257 -0.0823689788524 -0.011845043842)
(-0.192711577286 -0.050499194023 0.0822502581552)
(0.827036350292 0.00988220699332 -0.00854303587379)
(0.826731391868 0.00946525460917 -0.0146259172878)
(0.77303843949 0.00287094196982 -0.00945646699888)
(0.773598891481 -3.67243721359e-05 -0.0119138250435)
(0.828086364603 0.00898919108544 -0.00969771593995)
(0.825744955585 0.0103416817137 -0.0134682330244)
(0.772204126434 7.48671543686e-05 -0.00865713827093)
(0.825630010614 0.00863871863356 -0.00554697881749)
(0.825881844706 0.00702143130885 0.000925964185207)
(0.773521563999 0.00179834203179 -0.00559828414776)
(0.770968375479 -0.000350385941246 -0.00111776720952)
(0.826647927779 0.00754090843125 -0.00548648327261)
(0.825029300348 0.00833370141324 0.0010409868904)
(0.772904802986 -0.000337890080832 -0.00572821135992)
(0.773400132309 -0.00116103602547 -0.00186880836493)
(0.770759208298 -0.00129196682156 0.00250173820579)
(0.824348538041 0.00930586918561 0.0047159798814)
(0.825330030051 0.00939512179586 -0.00363522692993)
(0.7712995427 -0.00121326722082 0.000797655241872)
(0.824700454343 0.00930341027812 0.00298206811287)
(0.77309128023 -0.00104580627191 -0.00398112076087)
(0.811229031609 0.00390010311104 0.00124528847305)
(0.767171594755 -0.00935107416971 0.00100143853047)
(0.766897002314 -0.00676630194553 0.00315960601765)
(0.811182013645 0.00306803969851 0.000946356340175)
(0.767464764184 -0.0101530301104 0.000527465886375)
(0.81176471008 0.00382530577659 -0.000347242708932)
(0.767026198143 -0.00730039430999 0.0018565021575)
(0.812002551456 0.00208031643463 0.000568303241497)
(0.813293385052 0.00294367314574 -0.00206200226718)
(0.76808077718 -0.0111294209225 4.48620897378e-05)
(0.768627058993 -0.00871078365816 0.000665157236055)
(0.812566145455 0.00358137840145 -0.000716127986758)
(0.812590271191 0.00134357462536 -0.00108757089257)
(0.767861624558 -0.00837642290002 0.000950416891452)
(0.80961191179 0.00175443645827 0.0032617590485)
(0.809477713847 0.00212765378694 0.00586540330089)
(0.767005371745 -0.00502158460648 0.00382406638838)
(0.766747615602 -0.00208126459508 0.00596981059571)
(0.766852289098 -0.0024680986102 0.00451816363086)
(0.810219837867 0.00266894844797 0.00196107258397)
(0.767034131697 -0.00538954664841 0.00207467815808)
(0.767277415587 -0.00382498443469 0.00300198758446)
(0.768801068776 -0.00477268415862 0.00112922869101)
(0.810676457559 -2.63889358211e-05 -0.000909630643452)
(0.811013337404 0.00151918365331 0.00101758782676)
(0.768883976109 -0.0071673859155 -0.000288591698447)
(0.81152190764 0.000774058263949 -0.00130792299152)
(0.76766915279 -0.00641559997673 0.000713402192529)
(0.815665265984 -0.00129763414396 -0.000953701830831)
(0.815233780554 0.000901428712266 -0.00184892344)
(-0.108726226359 -0.087310275276 -0.0102984679163)
(-0.100812705886 -0.171142617554 -0.472365938922)
(0.822396289763 0.00718910894425 0.00339759964293)
(0.770614801877 -0.00225058040031 0.00452873118282)
(0.81393350057 -0.000149947254252 -0.00147079883393)
(0.81485161199 -0.00153957703662 -0.00223322425106)
(0.769357171507 -0.0117351571015 -0.000539047742708)
(0.77040841604 -0.00590215165041 -0.000577917976195)
(0.772922893648 -0.00639758852542 -0.00260884381612)
(0.814866502296 -0.00209590126896 -0.00154708228943)
(0.815344317219 -0.00279847236442 9.53478434454e-06)
(0.773317449993 -0.00658060800565 -0.00276824032309)
(0.772579753217 -0.00752015829506 -0.00159765134408)
(-0.214493855025 -0.156275675957 0.0156997035433)
(0.0264986379947 -0.106036001396 -0.0106425087369)
(0.00310448605 -0.115419635325 -0.00701058926331)
(-0.145348540197 -0.0406607754059 0.0576405380631)
(-0.201558396247 0.00750167093651 0.0392577589941)
(-0.143698744387 -0.0209232129669 0.0218493570512)
(-0.0197417300626 -0.0984485481406 0.000292727147641)
(-0.0413149730649 -0.0658249745143 0.00369119754113)
(0.820873792064 0.00764032629997 0.00655491715093)
(0.8224320279 0.00852095991654 0.00556036204536)
(0.770942039768 -0.00191843983882 0.00288699854889)
(0.769696390514 -0.00243092512179 0.00572798822298)
(0.822986599962 0.00837396959992 0.00377683917958)
(0.77000308373 -0.00213273418543 0.00323476489424)
(0.820230087947 0.00786403602416 0.00863376539398)
(0.813114925981 -6.5626595049e-05 -0.00151714162879)
(0.813510378449 0.00243916098764 -0.00185791723749)
(0.769884962766 -0.0117077130128 -0.000673932555368)
(0.769593359928 -0.00904066285515 0.000152124425719)
(0.813713932567 0.00196770157175 -0.00208149696189)
(0.812839670978 0.000346952932509 -0.000865477915155)
(0.77007210536 -0.00915347764149 -0.000166175503452)
(0.812469916263 -0.000731647391133 -0.00193737628771)
(0.811157627411 -0.00096299732791 -0.00131109759871)
(0.770134230624 -0.00792018859774 -0.00100963087431)
(0.771455125701 -0.00660276563791 -0.00138378292508)
(0.811901595647 -0.000260268594678 -0.00113144945217)
(0.770865827339 -0.00821195779889 -0.00116627304832)
(0.811960774079 -0.00152647460129 -0.00283570369662)
(0.812896163825 -0.00112269967099 -0.00160581891574)
(0.813488765343 -0.00177585353095 -0.00262709729529)
(0.771779682508 -0.0076403802134 -0.00212012531751)
(0.77207184633 -0.00659344325696 -0.0023662467134)
(0.813725130433 -0.00142553875552 -0.00157156002367)
(0.771140232125 -0.00807046277733 -0.00202612306493)
(0.812666916329 -0.00185315941345 -0.00242564237758)
(0.813865562463 -0.00204124092031 -6.69619552331e-05)
(0.813867368381 -0.00175506193057 -0.00211254921158)
(0.772416245105 -0.00697599643314 -0.0023440281335)
(0.773360458563 -0.00653807830727 -0.00200894032794)
(0.813989931233 -0.00176719090256 -0.00112084955679)
(0.772548976684 -0.00673057032498 -0.00172589922104)
(0.813765987942 -0.00178747249063 -0.000824854492321)
(0.813536613139 -0.00230538708303 0.000342575489493)
(0.8132072678 -0.00176837255081 -0.000178162027362)
(0.772892894577 -0.00678762046933 -0.0018126664671)
(0.773212820298 -0.00686873995892 -0.00142398931623)
(0.813347463701 -0.00250981438786 0.000288234910056)
(0.772847459653 -0.0065838019609 -0.00167280636536)
(0.81337170944 -0.00165538382155 -0.000237169925904)
(0.792944817786 0.00957130106564 0.00321340582425)
(0.798708702634 0.00992758967303 -2.43492130671e-05)
(0.799698233954 0.0152514005367 -0.00180178029122)
(0.801813070147 0.0104891901409 -0.00250768833167)
(0.213852390477 0.106654541082 0.00116146849988)
(0.347365442536 0.161581288267 0.00302514816554)
(0.180740003038 0.104344576904 9.23039938882e-06)
(0.320020857913 0.113227616615 0.0028029724088)
(0.284421881476 0.0177037417435 0.00283095018452)
(0.235166526179 -0.00627160397362 -0.296603754683)
(0.344694313491 -0.0788426073847 0.435878232521)
(0.159469700788 -0.0667388994026 -0.25991677085)
(0.474229077973 -0.190688613869 -0.0290269335622)
(0.121085040469 -0.042897702814 -0.212324718439)
(0.354217840859 -0.0789116903007 -0.114136598814)
(0.792042691049 0.00214313945164 0.00234647924554)
(0.792828951626 0.00446333649459 0.00270293219188)
(0.777362396483 -0.000115717394091 0.00435993267821)
(0.778262009087 0.00368488544643 0.00471563852252)
(0.789155750427 0.00696809476692 0.00514870370892)
(0.779199475658 0.00439348283956 0.00494227269811)
(0.79506289388 0.0059285531746 0.00367473140868)
(0.797236535019 0.00731487967482 0.00315933367578)
(0.77864316233 0.00441306982896 0.00468345462525)
(0.781006974526 0.0061147928983 0.00259590839815)
(0.790826732117 0.0133999760576 0.00517833404769)
(0.796194201759 0.00993431586454 0.00231052134872)
(0.795007513616 0.0134328076274 0.00217112069815)
(0.779978649517 0.00523947872668 0.00507334182335)
(0.782126148167 0.00857853944893 0.00427773962838)
(0.782601490618 0.00728732981552 0.00261424193519)
(0.785418873382 0.0103753753122 0.00013450615022)
(0.796948882093 0.0177313428714 0.000917982592365)
(0.799038860893 0.0218635005731 0.00128076032885)
(0.781837494105 0.0101850230025 0.00349675258164)
(0.7817675957 0.016090953919 0.00110877872736)
(0.785407922024 0.0108057455878 -0.000499050380992)
(0.78402520327 0.0111030198256 -0.00219599387663)
(0.798383818223 0.0125161136939 0.000295725006874)
(0.800415562429 0.0109083984489 -0.000377460072237)
(0.78356621721 0.00695761643084 0.00184164638395)
(0.785766180234 0.00901664252359 -0.000115587230194)
(0.786965319904 0.00688153886996 0.000747217067191)
(0.80152083677 0.0174750255789 -0.00284253961527)
(0.801185384237 0.0126725760822 -0.00194877299044)
(0.802398298165 0.0136104087876 -0.00359319240327)
(0.785584586033 0.00911650853416 -0.000478699532696)
(0.783919442911 0.00926806899176 -0.001068610669)
(0.786538475354 0.00687780061599 0.000854826686897)
(0.78363152753 0.00744599017893 0.000830839584544)
(0.786781986416 0.0057534481078 0.000526872733583)
(0.783377372235 0.00705222859279 0.000449253868111)
(0.15363766828 -0.0398586015489 0.000891600734708)
(0.15915661859 0.0135561179618 0.000232585646426)
(0.245150219259 0.0344257217518 0.00243663303498)
(0.183813695418 -0.0410417005857 -0.282712528457)
(0.278326134104 0.000164271077758 -0.330398306463)
(0.191781721099 -0.0344398462803 -0.263725421036)
(0.298015547186 -0.00730376660825 -0.278704634733)
(0.276916995149 0.0353314730884 -0.307755810076)
(0.117267808185 0.0622345132201 -0.0660988862784)
(0.301223785659 -0.0171906604006 -0.225226925339)
(0.193748810783 -0.00507066425464 -0.0546070620977)
(0.130549503768 0.0708915776426 -0.00075975121684)
(0.101535998481 0.0985529661081 -0.000826683654178)
(0.307713344411 0.145739354686 0.00349881388195)
(0.180329699238 0.133258936628 0.000118289887713)
(0.25511228554 0.167476139298 0.00193049875545)
(0.173583360355 -0.0531219357342 -0.213330936911)
(0.244394096993 -0.0334450391631 -0.221846386901)
(0.163573149987 -0.0553387608321 -0.108058862699)
(0.2329881695 -0.0319114429101 -0.0652565038547)
(0.326072456482 0.144370234523 4.01655206458e-05)
(0.327702677897 0.176388142822 0.00311102548283)
(0.332443000765 0.140455036946 0.00192534105512)
(0.290401768871 -0.0579211721783 -0.127673497996)
(0.257157532943 -0.0311563658716 0.0445257575454)
(0.276389113923 -0.0370423898463 -0.0142297828291)
(0.275521918242 -0.0422404890676 0.137598913448)
(0.248597175868 0.109967728622 0.00253791865666)
(0.259919769384 0.0445722999211 0.00265700500202)
(0.146658028451 -0.0515809402137 -0.0346339762844)
(0.188601066837 -0.0407432943518 -0.00794453205712)
(0.185853918601 -0.0319862391467 -0.0430163783238)
(0.351418927409 0.0825910498718 0.000665392666713)
(0.321842905195 0.0485817407727 0.00284340213057)
(0.353586819568 0.0278847686833 0.00172101740795)
(0.264399187296 -0.0559754056917 0.0102417354058)
(0.274465729708 -0.0705587718543 0.113539157779)
(0.266808807728 -0.0430618950473 -0.0170401154673)
(0.282929440784 -0.0514101648039 0.0734410565528)
(0.797250052408 0.00278815365449 0.00613636705979)
(0.795197784142 0.0023418000394 0.00616387822656)
(0.776093201446 -0.000123084736427 0.0037376835372)
(0.777380473445 0.00114643725362 0.00503686097078)
(0.795526018532 0.00343480063729 0.00657879046206)
(0.776313487036 0.00100598432958 0.00457495244638)
(0.797003410375 0.00197658094452 0.0052922848096)
(0.797558467916 0.0034605664112 0.00581865566367)
(0.796864532961 0.00528445911307 0.0070111593887)
(0.777613014152 0.00216231872609 0.00469799866829)
(0.77684795405 0.00287910397285 0.00425323338908)
(0.796112520845 0.00468646574238 0.00649215486989)
(0.798253985302 0.00448288023389 0.00513903089596)
(0.776502141588 0.00183341498298 0.0043317423875)
(0.792549969549 0.0062292474038 0.00823983751022)
(0.795064236413 0.00624152182064 0.0068576808261)
(0.778627876325 0.00283510509584 0.00509093762668)
(0.780261569327 0.00546491211577 0.00491004187541)
(0.794269039439 0.00482337422387 0.00771390707458)
(0.793630947729 0.00747193420715 0.00812925259222)
(0.779394547409 0.0034052598684 0.00543006275643)
(0.800085694252 0.00544466006665 0.00441114413972)
(0.797726809141 0.00605737831143 0.00637750426666)
(0.777034906646 0.00384814707804 0.00418924213136)
(0.779329963912 0.00552044812708 0.00398495665993)
(0.799238933343 0.00504212898952 0.00488757666716)
(0.798619627557 0.00636695694944 0.00587926194735)
(0.777691915064 0.00470161036953 0.00376125133475)
(0.80098905716 0.00567266822531 0.00384422347469)
(0.800586675528 0.00709757178261 0.00398252451545)
(0.779899484798 0.00586297171538 0.00355334137478)
(0.779204967635 0.00509309097654 0.00226049653281)
(0.799496772521 0.00671471588549 0.00504671986983)
(0.801685123483 0.00600345581794 0.00303487755639)
(0.778336127173 0.00501032634489 0.00336324082676)
(0.796492433628 0.00869592628075 0.00619359169325)
(0.796483408372 0.00697481745563 0.00625819941074)
(0.781153272606 0.00645964401451 0.00489504204752)
(0.780705707852 0.00656904124323 0.00417075631083)
(0.795085569289 0.00845428736831 0.00706897222944)
(0.797628708492 0.00735560179836 0.00535274658183)
(0.782356092193 0.00781273055045 0.00379463777272)
(0.795813337454 0.010152847885 0.00537547394271)
(0.793410976844 0.0120792666825 0.00702941120934)
(0.781859565203 0.00755329539421 0.00477569704979)
(0.783602905362 0.0104268494093 0.002970087445)
(0.794183591096 0.0100123777811 0.00660310233431)
(0.79518017062 0.0121369834142 0.00575147306797)
(0.783149013716 0.00906858233022 0.00388970420956)
(0.79772467502 0.00908732221651 0.00421887593941)
(0.799797901093 0.00803874880353 0.0033587766472)
(0.781481574369 0.0069945778004 0.00343885761431)
(0.783987697904 0.00847140931933 0.00196255727065)
(0.798767134661 0.00779230093815 0.00438729349412)
(0.799133562773 0.00934973995837 0.00322601955024)
(0.782976437059 0.00804203248962 0.0026826256996)
(0.797396213372 0.0105860495739 0.0029274325516)
(0.798925905748 0.0124542044462 0.00124797692049)
(0.784566880575 0.010259790802 0.00119610295023)
(0.78493186864 0.00952564593559 0.00124814072678)
(0.797167310375 0.012338686096 0.00264126870137)
(0.798936532391 0.0108028232181 0.00164308815175)
(0.783993515797 0.00919294536414 0.00219866460977)
(0.796490588366 0.0163515395247 0.00434947831969)
(0.793499997381 0.0139437181346 0.00553569117302)
(0.781289969706 0.0120678507162 0.00313024475354)
(0.783531823789 0.0115629799474 0.00230626545526)
(0.794421913726 0.0163269892733 0.00612229859335)
(0.795176354379 0.01392751593 0.00402646795789)
(0.783064754091 0.0131662797076 0.00129611882726)
(0.797283463395 0.0181959618055 0.00159500349772)
(0.797913920842 0.0198600398564 0.00388878554615)
(0.781418279672 0.0142255667651 0.00200571766768)
(0.782871361755 0.0153931345647 -0.000881564761984)
(0.795190671481 0.0180764574051 0.00389492457391)
(0.782899947792 0.0143585391225 4.83291797365e-05)
(0.79998856738 0.0200279212984 0.00157472021027)
(0.798533309375 0.0165158837279 0.000487318214869)
(0.799205766419 0.0143117582851 -0.000644142561977)
(0.784624182035 0.0112013874423 0.000680049688356)
(0.785252907917 0.0112631047263 -0.00109606267967)
(0.797538947426 0.0144235962397 0.000557830683584)
(0.800156142658 0.0161756250373 -0.000542871872532)
(0.784315934434 0.0121131756226 -0.000358982997631)
(0.799285747983 0.0181889455921 -0.00205060268121)
(0.802371433942 0.0187663716393 -0.0029380971411)
(0.783584511497 0.0136388916219 -0.00203578096763)
(0.784822669768 0.011140322571 -0.00163735894969)
(0.800719477544 0.0176747881335 -0.00258439067481)
(0.784085853088 0.0129972084737 -0.00122086212213)
(0.801326422281 0.0195989931854 -0.00234612095399)
(0.801665430567 0.00927928288949 0.00128126045776)
(0.800847582044 0.00817012572656 0.00219794751531)
(0.784925186847 0.00790015934627 0.00127432877702)
(0.784530192696 0.0066712110422 0.00134665820714)
(0.800409777045 0.00942755816838 0.00187423507769)
(0.801905374354 0.00814240237735 0.00150591989825)
(0.785711281358 0.00759173960935 0.00064782306518)
(0.801625096009 0.0107252164407 -6.90338565319e-05)
(0.800513461454 0.0123763975776 0.000168363166477)
(0.785580698183 0.00847088720314 0.000520898852258)
(0.786318754829 0.00853239902478 -0.000205355724941)
(0.800265272341 0.010892777299 0.000518581504043)
(0.801994697851 0.012063379873 -0.000115617925074)
(0.786266977302 0.00799139498495 9.51149277726e-05)
(0.802803030553 0.0104563870623 -0.000164561970584)
(0.803836613394 0.0106529610438 0.000196095586886)
(0.786694042698 0.00735483050425 0.000451308777994)
(0.787123188935 0.00666846395341 0.000763861710653)
(0.803087896964 0.0114562986226 -2.21869838186e-05)
(0.803720200152 0.00978813937768 -0.000120116241356)
(0.786752490956 0.0072105377732 0.000479676063817)
(0.802899625286 0.0146332380496 -0.000666572394554)
(0.800879287642 0.014265958591 -0.00115912656012)
(0.785323403249 0.0092888984393 -0.000523324781786)
(0.78614466082 0.00864353228907 -8.50312527096e-05)
(0.801719399972 0.0156571968804 -0.0009831754167)
(0.802254579749 0.0135316032903 -0.000849993211866)
(0.78569208385 0.00886150419337 0.000207448186549)
(0.802869470476 0.0157439656023 -0.00166061839197)
(0.803188316679 0.017802738247 -0.00308748644603)
(0.784777023955 0.00922026674478 -0.000495699212015)
(0.783938688407 0.00872950863178 -0.00019057524776)
(0.802079538099 0.0171884913452 -0.00233245053986)
(0.784896708701 0.00874876285903 0.000443703938013)
(0.803400169638 0.0160493560775 -0.00256212471527)
(0.803605403212 0.0131899680155 -0.000302632616456)
(0.803877071974 0.0113281900814 -0.000306304071644)
(0.786448328552 0.00732130519046 0.000598198190959)
(0.785828821207 0.00719137252054 0.00101830451169)
(0.80323060991 0.0125035501341 -0.000375470851328)
(0.804065756518 0.011886203493 -0.000381620842402)
(0.785754705482 0.00745863241517 0.000920044451007)
(0.803549912788 0.0139306088772 -0.00102226404755)
(0.803596554175 0.0124003418278 -0.00203919225838)
(0.783787417938 0.00771956361485 0.00073181329682)
(0.785018384639 0.00730966584289 0.00116684108252)
(0.80399320768 0.0123032954483 -0.00114328744921)
(0.784962835023 0.00753657886438 0.00109367088598)
(0.803491571272 0.0141504962172 -0.00195540527655)
(0.804290357412 0.009454095363 -0.00130078006178)
(0.804374411111 0.0102310435289 -0.000618042987271)
(0.785903618215 0.00633395976778 0.000649457412484)
(0.787055536416 0.00538756146248 0.000303796812923)
(0.804211045799 0.0105651782551 -0.000830491769036)
(0.80464903393 0.00938849573433 -0.000971726127681)
(0.785977909279 0.00607647235461 0.000275429413913)
(0.80350835579 0.0107581732223 -0.00244747996015)
(0.785003462478 0.00665994694388 0.000658718953618)
(0.8040825018 0.0107892541445 -0.00156496247698)
(0.817619720093 0.00392747141696 -0.000483368520921)
(0.818360380965 0.00204949056548 -0.000351224547461)
(0.818364420924 -8.21729040976e-05 -0.0004173243155)
(0.81540686538 -0.00269350559907 -0.000327696206032)
(0.810287183693 -0.00394720605784 7.71649981564e-07)
(0.827584268454 -0.0465199504595 0.000262098084115)
(0.818342607392 0.00409647254562 0.000340323007676)
(0.818371569682 0.002169277513 0.000750698666074)
(0.818344727417 0.000556121906286 0.000216603188549)
(0.81573634137 -0.00273560146475 0.000934376093151)
(0.810886416519 -0.00435373637449 0.00275010506048)
(0.829584712637 -0.0492177337327 0.00344102839788)
(0.816987990706 0.00581007588217 -0.000374635802924)
(0.813312152576 0.00584577924404 0.000669494125986)
(0.789916446169 0.0100867581269 0.00270984606571)
(0.785976026324 0.0101922501539 0.00175794838639)
(0.782830034081 0.0120408137062 0.00179515973586)
(0.777403056484 0.0115832031619 0.00457929671658)
(0.783090561046 0.0125741899049 -0.000608538271088)
(0.732635406885 -0.028807735334 0.0279077650621)
(0.826880048418 0.00467316530241 0.00025292206003)
(0.824407961223 0.00272084657678 4.51742341932e-05)
(0.820627261837 -0.000665249858955 -0.000660382142193)
(0.818127253732 -0.00203582323874 -0.0018793938078)
(0.816957822896 -0.00236635996292 -0.00301820548692)
(0.817789823696 -0.00257218224273 -0.00186275593935)
(0.813414053047 -0.000608264734064 0.00204205114636)
(0.825813031873 -0.0831279946791 0.0127414783567)
(0.821054642852 0.00601524812471 -0.00142368963784)
(0.82353249838 0.0037107998669 -0.000587303561502)
(0.822731416159 0.00213887856348 -0.000718285849023)
(0.820831450848 0.00125574744646 -0.00112749789299)
(0.819171080687 0.000457239372535 -0.00149623481992)
(0.81986995529 -0.00149305933708 -0.000714204456031)
(0.814196272182 -0.00348924545707 0.00168612283557)
(0.831195176904 -0.066995500533 0.00505509138639)
(0.817445846974 0.00709602150375 -0.00110008887207)
(0.820416824457 0.00334058047974 -0.000386712330002)
(0.820098853014 0.000954642333475 -0.000304242072768)
(0.819231254407 -0.00109104433938 -0.000569367864939)
(0.817732115379 -0.00186743020944 -0.00100947984467)
(0.818066936449 -0.00348756061957 -0.000626376060826)
(0.812734187508 -0.00495546708318 0.000457864787438)
(0.830502170757 -0.0682757495187 0.00180414375888)
(0.816776627414 -0.00059201701135 -0.000568842110735)
(0.816731384884 -0.00223585281696 -0.00024285870471)
(0.811249366481 -0.00403519188864 0.000348340341015)
(0.830100748736 -0.0525401921758 0.000795685616705)
(0.640371108107 0.0412120380829 0.00968934398303)
(0.637990454528 0.039666764054 0.0145691901291)
(0.647553080741 0.0234901347254 0.0200041573403)
(0.645638408881 0.0200605493225 0.0165561281826)
(0.64527380493 0.0206825861419 0.0164494193984)
(0.637163625823 0.0222940561542 0.0198207810677)
(0.684985862256 0.0311809505605 0.0193484480639)
(0.464011104248 -0.0813325136281 0.0546993735343)
(0.774359127104 0.0130033913671 0.00598536752618)
(0.771106900716 0.00886866417309 0.00837748280086)
(0.777670147731 0.00196550449989 0.0131621232676)
(0.77386847603 -0.000435436665925 0.0134465008128)
(0.773884224802 -0.00014371137465 0.0141947542333)
(0.776945538458 -0.000747239179781 0.0161197757872)
(0.786739818126 0.0109738865061 0.0235101097074)
(0.798472859716 -0.150148333929 0.0348253186507)
(0.823046955515 0.00674270943322 -0.00135401563241)
(0.82418480237 0.00469572889065 0.000256950073866)
(0.822643329556 0.00319788574759 0.00130688069765)
(0.820298994003 0.00347880017598 0.00103376135151)
(0.819939662468 0.00299790221386 0.00137035529684)
(0.822101046735 0.00106370754754 0.00211443510633)
(0.818873975572 -0.00155872733561 0.0062208822053)
(0.852789774352 -0.0993855681695 0.0110267073074)
(0.818610794521 0.00696116166618 -0.00148553831085)
(0.821109086412 0.00327972759409 0.000147442660117)
(0.81996193537 0.0016480732535 0.00105873019745)
(0.818759302578 -5.6868570099e-05 0.000855200564651)
(0.81786842814 -0.00153886799586 0.000742898345011)
(0.819509400645 -0.0041057037572 0.00184590080932)
(0.814920717007 -0.00636444005458 0.00492537663504)
(0.838339799318 -0.0815620202085 0.00749477433515)
(0.816878842758 -0.000373258618166 8.65637100835e-05)
(0.817425599903 -0.00198273253818 0.000953297163608)
(0.812327098969 -0.00412009404132 0.00318987614703)
(0.833456779602 -0.0599966430996 0.00433750885112)
(0.638305350355 -0.0163360940601 0.0141126000823)
(0.63405111398 -0.016660985121 0.0211921005447)
(0.639820867504 -0.0215353316293 0.0260705864157)
(0.635693167772 -0.0205874055785 0.0227210384181)
(0.634822967104 -0.0198706443225 0.0217389040801)
(0.630836378779 -0.0160095522119 0.0241334806614)
(0.685451053268 0.00345823356167 0.038996739426)
(0.498731504109 -0.219861006915 0.00462113518831)
(0.737480239635 0.00517133079929 0.0180566028696)
(0.736928568752 -7.04849955033e-05 0.0234913567728)
(0.785414220507 -0.00231103676448 0.0122341464029)
(0.783096230576 -0.00297332985253 0.0122309503054)
(0.783092453146 -0.00301523486967 0.0102230387593)
(0.787678370698 -0.00297253542961 0.00909193757274)
(0.802081095865 0.00835254147352 0.00796694041358)
(0.840162109384 -0.164487800027 -0.000251686680468)
(0.826121896667 0.00653938549049 -0.00439732535345)
(0.826770932811 0.00468666642827 0.000816832753306)
(0.824317472901 0.000297815955054 0.00189828316301)
(0.820741853494 -0.00226073132279 0.00070803663165)
(0.820531149288 -0.00346998252584 -0.00137364624897)
(0.824301338204 -0.00498160890547 -0.00122482213117)
(0.822303508828 -0.00821833542554 -0.00117988425385)
(0.872452996877 -0.128389512373 -0.00321682893973)
(0.814888265822 0.0109707320201 -0.00710441825922)
(0.821379874488 0.00741752051879 -0.00325504576452)
(0.823147221994 0.0032368528456 0.000707610809723)
(0.820491470786 0.000336490458561 0.00122156827139)
(0.819280205805 -0.00130502884061 -7.46522753795e-05)
(0.81895687357 -0.00314206524703 -0.00086988129244)
(0.821618628783 -0.00508481759524 -0.000292713058344)
(0.817943435805 -0.0075313509556 -0.000127088770928)