/*--------------------------------*- C++ -*----------------------------------*\
| =========                 |                                                 |
| \\      /  F ield         | OpenFOAM: The Open Source CFD Toolbox           |
|  \\    /   O peration     | Version:  v1906                                 |
|   \\  /    A nd           | Web:      www.OpenFOAM.com                      |
|    \\/     M anipulation  |                                                 |
\*---------------------------------------------------------------------------*/
FoamFile
{
    version     2.0;
    format      ascii;
    class       volVectorField;
    location    "11.4";
    object      force.turbine;
}
// * * * * * * * * * * * * * * * * * * * * * * * * * * * * * * * * * * * * * //

dimensions      [1 -2 -2 0 0 0 0];


internalField   nonuniform List<vector> 
28582
(
(0 0 0)
(0 0 0)
(0 0 0)
(0 0 0)
(0 0 0)
(0 0 0)
(0 0 0)
(0 0 0)
(0 0 0)
(0 0 0)
(0 0 0)
(0 0 0)
(0 0 0)
(0 0 0)
(0 0 0)
(0 0 0)
(0 0 0)
(0 0 0)
(0 0 0)
(0 0 0)
(0 0 0)
(0 0 0)
(0 0 0)
(0 0 0)
(0 0 0)
(0 0 0)
(0 0 0)
(0 0 0)
(0 0 0)
(0 0 0)
(0 0 0)
(0 0 0)
(0 0 0)
(0 0 0)
(0 0 0)
(0 0 0)
(0 0 0)
(0 0 0)
(0 0 0)
(0 0 0)
(0 0 0)
(0 0 0)
(0 0 0)
(0 0 0)
(0 0 0)
(0 0 0)
(0 0 0)
(0 0 0)
(0 0 0)
(0 0 0)
(0 0 0)
(0 0 0)
(0 0 0)
(0 0 0)
(0 0 0)
(0 0 0)
(0 0 0)
(0 0 0)
(0 0 0)
(0 0 0)
(0 0 0)
(0 0 0)
(0 0 0)
(0 0 0)
(0 0 0)
(0 0 0)
(0 0 0)
(0 0 0)
(0 0 0)
(0 0 0)
(0 0 0)
(0 0 0)
(0 0 0)
(0 0 0)
(0 0 0)
(0 0 0)
(0 0 0)
(0 0 0)
(0 0 0)
(0 0 0)
(0 0 0)
(0 0 0)
(0 0 0)
(0 0 0)
(0 0 0)
(0 0 0)
(0 0 0)
(0 0 0)
(0 0 0)
(0 0 0)
(0 0 0)
(0 0 0)
(0 0 0)
(0 0 0)
(0 0 0)
(0 0 0)
(0 0 0)
(0 0 0)
(0 0 0)
(0 0 0)
(0 0 0)
(0 0 0)
(0 0 0)
(0 0 0)
(0 0 0)
(0 0 0)
(0 0 0)
(0 0 0)
(0 0 0)
(0 0 0)
(0 0 0)
(0 0 0)
(0 0 0)
(0 0 0)
(0 0 0)
(0 0 0)
(0 0 0)
(0 0 0)
(0 0 0)
(0 0 0)
(0 0 0)
(0 0 0)
(0 0 0)
(0 0 0)
(0 0 0)
(0 0 0)
(0 0 0)
(0 0 0)
(0 0 0)
(0 0 0)
(0 0 0)
(0 0 0)
(0 0 0)
(0 0 0)
(0 0 0)
(0 0 0)
(0 0 0)
(0 0 0)
(0 0 0)
(0 0 0)
(0 0 0)
(0 0 0)
(0 0 0)
(0 0 0)
(0 0 0)
(0 0 0)
(0 0 0)
(0 0 0)
(0 0 0)
(0 0 0)
(0 0 0)
(0 0 0)
(0 0 0)
(0 0 0)
(0 0 0)
(0 0 0)
(0 0 0)
(0 0 0)
(0 0 0)
(0 0 0)
(0 0 0)
(0 0 0)
(0 0 0)
(0 0 0)
(0 0 0)
(0 0 0)
(0 0 0)
(0 0 0)
(0 0 0)
(0 0 0)
(0 0 0)
(0 0 0)
(0 0 0)
(0 0 0)
(0 0 0)
(0 0 0)
(0 0 0)
(0 0 0)
(0 0 0)
(0 0 0)
(0 0 0)
(0 0 0)
(0 0 0)
(0 0 0)
(0 0 0)
(0 0 0)
(0 0 0)
(0 0 0)
(0 0 0)
(0 0 0)
(0 0 0)
(0 0 0)
(0 0 0)
(0 0 0)
(0 0 0)
(0 0 0)
(0 0 0)
(0 0 0)
(0 0 0)
(0 0 0)
(0 0 0)
(0 0 0)
(0 0 0)
(0 0 0)
(0 0 0)
(0 0 0)
(0 0 0)
(0 0 0)
(0 0 0)
(0 0 0)
(0 0 0)
(0 0 0)
(0 0 0)
(0 0 0)
(0 0 0)
(0 0 0)
(0 0 0)
(-0.00346873884749 9.97585831737e-05 0)
(0 0 0)
(0 0 0)
(0 0 0)
(0 0 0)
(-2.30445292503e-05 7.4754481105e-07 0)
(0 0 0)
(-2.25662611935e-06 9.63428149974e-08 0)
(0 0 0)
(0 0 0)
(0 0 0)
(0 0 0)
(0 0 0)
(0 0 0)
(0 0 0)
(0 0 0)
(0 0 0)
(0 0 0)
(0 0 0)
(0 0 0)
(-0.0356825678508 -0.00265193240401 0.00253066125587)
(0 0 0)
(0 0 0)
(0 0 0)
(-0.0264865498614 0.00076696742192 0)
(0 0 0)
(0 0 0)
(-0.131122674923 -0.0165946923121 0.0140171415752)
(-1.15996580386 -0.180442707306 0.148015255102)
(-0.0962163064122 -0.00169987532439 0.00304184861392)
(-2.04752845505 -0.219501317335 0.192426607959)
(-0.00533649836552 0.000122102591813 0)
(-0.0725039538967 0.00209948713177 0)
(0 0 0)
(0 0 0)
(0 0 0)
(0 0 0)
(0 0 0)
(-0.0156827483247 0.000498825786449 0)
(0 0 0)
(0 0 0)
(0 0 0)
(-0.0266840765304 0.000772687174808 0)
(0 0 0)
(0 0 0)
(0 0 0)
(0 0 0)
(0 0 0)
(0 0 0)
(0 0 0)
(0 0 0)
(-1.80222716287e-05 5.10257704638e-07 0)
(0 0 0)
(-1.0587526568e-05 2.99760602641e-07 0)
(-0.000148553381234 4.42841026505e-06 0)
(-0.000628749019162 1.87431520405e-05 0)
(-8.40556630025e-05 2.50571853555e-06 0)
(-0.000365302147318 1.08897405471e-05 0)
(0 0 0)
(0 0 0)
(-0.000337789180013 8.52724651274e-06 0)
(0 0 0)
(0 0 0)
(0 0 0)
(0 0 0)
(0 0 0)
(0 0 0)
(-0.0164763126056 0.000473847606789 0)
(-0.000713890232186 1.90464243619e-05 0)
(-0.00360259474747 0.000103608188324 0)
(-2.75865410416e-05 7.97067520267e-07 0)
(-0.000126613191256 3.77436818463e-06 0)
(-3.42522492547e-06 1.46234153938e-07 0)
(-2.75873521986e-05 7.97090957307e-07 0)
(0 0 0)
(0 0 0)
(0 0 0)
(0 0 0)
(0 0 0)
(-0.000374507883023 9.45418393618e-06 0)
(0 0 0)
(0 0 0)
(0 0 0)
(0 0 0)
(0 0 0)
(0 0 0)
(0 0 0)
(0 0 0)
(0 0 0)
(0 0 0)
(0 0 0)
(0 0 0)
(0 0 0)
(0 0 0)
(0 0 0)
(0 0 0)
(0 0 0)
(0 0 0)
(0 0 0)
(0 0 0)
(-0.00493068269365 0.000105099659553 0)
(0 0 0)
(0 0 0)
(0 0 0)
(0 0 0)
(0 0 0)
(-0.00411154004814 9.40747399952e-05 0)
(0 0 0)
(0 0 0)
(0 0 0)
(0 0 0)
(0 0 0)
(0 0 0)
(0 0 0)
(0 0 0)
(0 0 0)
(0 0 0)
(0 0 0)
(0 0 0)
(0 0 0)
(0 0 0)
(0 0 0)
(0 0 0)
(0 0 0)
(0 0 0)
(0 0 0)
(0 0 0)
(0 0 0)
(0 0 0)
(-0.0555293046626 -0.00218979922207 0.002593619696)
(-0.00777945298007 0.00019732590332 0)
(-0.0128719415589 0.000326496927496 0)
(-0.00989651163227 0.000244692194077 0)
(-0.0187296087992 0.000556324321355 0)
(0 0 0)
(0 0 0)
(0 0 0)
(0 0 0)
(0 0 0)
(0 0 0)
(0 0 0)
(0 0 0)
(0 0 0)
(0 0 0)
(-0.00469727086317 0.000107476646212 0)
(0 0 0)
(-0.00770738407951 0.000190565806527 0)
(0 0 0)
(0 0 0)
(-0.771156293759 -0.109978845681 0.0913006436675)
(-0.559230811559 -0.0791928436163 0.0659172892904)
(-0.454273171704 -0.043388016797 0.0389150244428)
(-0.0386696118539 0.00111975069103 0)
(-2.42455899741 -0.388966093371 0.317956070489)
(-0.161622727081 -0.017173580088 0.0150083273254)
(-0.152046354676 -0.0069701695973 0.00775898477461)
(-2.08563530178 -0.31609190123 0.260162255919)
(-10.8186031294 -1.76547801916 1.4399317737)
(-1.17987578043 -0.131974022842 0.114613099627)
(-0.772695140312 -0.0581251281215 0.0553233005177)
(-6.4877424191 -1.07052019119 0.871563785827)
(-0.426701378219 -0.032940370831 0.0310768519178)
(-3.51368362544 -0.523211380719 0.431970299029)
(-0.137719314432 -0.0110362483814 0.0102655122527)
(-0.00873362591884 0.000215939733891 0)
(-0.0183031794676 0.000530002678442 0)
(-0.0183477764719 0.000531294067828 0)
(-0.0240495311541 0.000714341620354 0)
(-0.0240489309572 0.000714323792745 0)
(-0.0439227829185 0.00127186605106 0)
(-0.428589721345 -0.0480237081344 0.0415385962868)
(-0.126215016557 -0.00152275419898 0.00353297954459)
(-0.230824476665 -0.0037466873822 0.00708942411022)
(-0.0388155167345 0.00112397563881 0)
(-0.0556861540111 0.000854635573462 0.00052810188824)
(-0.114386737956 -0.000659655859834 0.00269197207857)
(-0.768664086004 -0.0853968636076 0.0741313232104)
(0 0 0)
(0 0 0)
(0 0 0)
(0 0 0)
(0 0 0)
(0 0 0)
(0 0 0)
(0 0 0)
(0 0 0)
(0 0 0)
(0 0 0)
(0 0 0)
(0 0 0)
(0 0 0)
(0 0 0)
(0 0 0)
(0 0 0)
(0 0 0)
(0 0 0)
(0 0 0)
(0 0 0)
(0 0 0)
(0 0 0)
(-0.00471341573284 0.000107846051447 0)
(0 0 0)
(-0.00770702600981 0.000190556953219 0)
(0 0 0)
(0 0 0)
(0 0 0)
(-0.0349840814342 0.00103912983826 0)
(-0.0129368336126 0.000328142915094 0)
(-0.00785192956691 0.000199164272677 0)
(-0.0187275241198 0.000556262400261 0)
(0 0 0)
(-0.00989459910952 0.000244644906769 0)
(0 0 0)
(0 0 0)
(0 0 0)
(0 0 0)
(0 0 0)
(0 0 0)
(0 0 0)
(0 0 0)
(0 0 0)
(0 0 0)
(0 0 0)
(0 0 0)
(0 0 0)
(0 0 0)
(0 0 0)
(0 0 0)
(0 0 0)
(0 0 0)
(0 0 0)
(0 0 0)
(0 0 0)
(0 0 0)
(0 0 0)
(0 0 0)
(0 0 0)
(0 0 0)
(0 0 0)
(0 0 0)
(0 0 0)
(0 0 0)
(0 0 0)
(0 0 0)
(0 0 0)
(0 0 0)
(0 0 0)
(0 0 0)
(-0.0150762101295 0.000256389726423 0)
(0 0 0)
(0 0 0)
(0 0 0)
(0 0 0)
(0 0 0)
(0 0 0)
(0 0 0)
(-0.00336410715626 5.72108312397e-05 0)
(0 0 0)
(0 0 0)
(0 0 0)
(0 0 0)
(0 0 0)
(0 0 0)
(0 0 0)
(0 0 0)
(0 0 0)
(0 0 0)
(0 0 0)
(0 0 0)
(0 0 0)
(0 0 0)
(0 0 0)
(0 0 0)
(0 0 0)
(0 0 0)
(0 0 0)
(0 0 0)
(0 0 0)
(0 0 0)
(0 0 0)
(0 0 0)
(0 0 0)
(0 0 0)
(0 0 0)
(-0.322136397501 0.00773322101783 0)
(-0.00774063303884 0.000131639103603 0)
(0 0 0)
(0 0 0)
(0 0 0)
(0 0 0)
(0 0 0)
(0 0 0)
(-0.0707418798039 0.00172017169511 0)
(0 0 0)
(0 0 0)
(0 0 0)
(0 0 0)
(0 0 0)
(0 0 0)
(0 0 0)
(0 0 0)
(0 0 0)
(0 0 0)
(0 0 0)
(0 0 0)
(0 0 0)
(0 0 0)
(0 0 0)
(0 0 0)
(0 0 0)
(0 0 0)
(0 0 0)
(0 0 0)
(0 0 0)
(0 0 0)
(0 0 0)
(0 0 0)
(0 0 0)
(0 0 0)
(0 0 0)
(-1.50603480843 0.0483783898757 0)
(-0.0431372546267 0.00135211551969 0)
(0 0 0)
(0 0 0)
(0 0 0)
(0 0 0)
(0 0 0)
(0 0 0)
(-0.330332642566 0.0104866731798 0)
(-0.00655837592114 0.000231351068544 0)
(0 0 0)
(0 0 0)
(0 0 0)
(0 0 0)
(0 0 0)
(0 0 0)
(0 0 0)
(0 0 0)
(0 0 0)
(0 0 0)
(0 0 0)
(0 0 0)
(0 0 0)
(0 0 0)
(0 0 0)
(0 0 0)
(0 0 0)
(0 0 0)
(0 0 0)
(0 0 0)
(0 0 0)
(0 0 0)
(0 0 0)
(0 0 0)
(0 0 0)
(0 0 0)
(0 0 0)
(0 0 0)
(0 0 0)
(0 0 0)
(0 0 0)
(0 0 0)
(0 0 0)
(-2.51056195644 0.0771363201634 0)
(-0.0758207709972 0.00232957217075 0)
(0 0 0)
(0 0 0)
(0 0 0)
(0 0 0)
(0 0 0)
(0 0 0)
(-2.53117225627 0.0740043740782 0.00253062406229)
(-0.560319062424 0.017215647868 0)
(-0.0156825196842 0.000498818514014 0)
(0 0 0)
(0 0 0)
(0 0 0)
(0 0 0)
(0 0 0)
(0 0 0)
(-0.0459940967473 0.00141315587262 0)
(-0.0758312313528 0.00232989356228 0)
(-0.0156826835516 0.000498823726192 0)
(0 0 0)
(0 0 0)
(0 0 0)
(0 0 0)
(0 0 0)
(0 0 0)
(0 0 0)
(0 0 0)
(0 0 0)
(0 0 0)
(0 0 0)
(0 0 0)
(0 0 0)
(0 0 0)
(0 0 0)
(0 0 0)
(0 0 0)
(0 0 0)
(0 0 0)
(0 0 0)
(0 0 0)
(0 0 0)
(0 0 0)
(0 0 0)
(0 0 0)
(0 0 0)
(-0.0669865725463 0.00192174953116 0)
(-0.00211907330564 6.09431150358e-05 0)
(0 0 0)
(0 0 0)
(0 0 0)
(0 0 0)
(0 0 0)
(0 0 0)
(-0.045042475652 0.00129220458931 0)
(-0.0689718092086 0.00197870314858 0)
(-0.0152661311568 0.000439043606828 0)
(-0.00037735375782 9.52602601218e-06 0)
(0 0 0)
(0 0 0)
(0 0 0)
(0 0 0)
(0 0 0)
(0 0 0)
(-0.00124090304261 3.31070028358e-05 0)
(-0.00213125952477 6.12935824559e-05 0)
(-0.00037269146153 9.40832967335e-06 0)
(0 0 0)
(0 0 0)
(0 0 0)
(0 0 0)
(0 0 0)
(0 0 0)
(0 0 0)
(0 0 0)
(0 0 0)
(0 0 0)
(0 0 0)
(0 0 0)
(0 0 0)
(0 0 0)
(0 0 0)
(0 0 0)
(0 0 0)
(0 0 0)
(0 0 0)
(0 0 0)
(0 0 0)
(0 0 0)
(0 0 0)
(0 0 0)
(0 0 0)
(0 0 0)
(-0.000178132174833 5.78966457565e-06 0)
(-0.000177801910407 5.77893029786e-06 0)
(-2.28641136803e-05 7.4169228433e-07 0)
(0 0 0)
(0 0 0)
(0 0 0)
(0 0 0)
(0 0 0)
(0 0 0)
(0 0 0)
(-2.34428549836e-05 7.60466157015e-07 0)
(-2.32282509351e-05 7.53504585306e-07 0)
(-2.25764482737e-06 9.63863070042e-08 0)
(0 0 0)
(0 0 0)
(0 0 0)
(0 0 0)
(0 0 0)
(0 0 0)
(0 0 0)
(0 0 0)
(0 0 0)
(0 0 0)
(0 0 0)
(0 0 0)
(0 0 0)
(0 0 0)
(0 0 0)
(0 0 0)
(0 0 0)
(0 0 0)
(0 0 0)
(0 0 0)
(0 0 0)
(0 0 0)
(0 0 0)
(0 0 0)
(0 0 0)
(0 0 0)
(0 0 0)
(0 0 0)
(0 0 0)
(0 0 0)
(0 0 0)
(0 0 0)
(0 0 0)
(0 0 0)
(0 0 0)
(0 0 0)
(-0.00336397134051 5.72085215238e-05 0)
(-0.00914455032611 0.000155514465256 0)
(-0.00204042563082 3.46999786273e-05 0)
(-0.0868347617706 0.00180241570055 0)
(-0.0178095020686 0.000302872759393 0)
(-0.052673208062 0.00109332962138 0)
(-0.0108023443877 0.000183707317589 0)
(0 0 0)
(0 0 0)
(0 0 0)
(-0.00241044660291 4.09926460145e-05 0)
(0 0 0)
(0 0 0)
(0 0 0)
(0 0 0)
(0 0 0)
(0 0 0)
(-0.0178111417293 0.000302900643864 0)
(-0.0039742019177 6.75862523592e-05 0)
(-0.00397421220597 6.7586427324e-05 0)
(0 0 0)
(0 0 0)
(0 0 0)
(0 0 0)
(0 0 0)
(0 0 0)
(0 0 0)
(0 0 0)
(-0.0707437689534 0.00172021763199 0)
(-0.195375875738 0.00469020216391 0)
(-0.0429061362061 0.00104331297462 0)
(-0.800868509896 0.0225841375099 0)
(-0.176862091112 0.00496036015317 0)
(-0.485742640786 0.0136977274776 0)
(-0.107271221084 0.00300858079479 0)
(0 0 0)
(-0.00469489462841 7.98425293245e-05 0)
(0 0 0)
(-0.0227952315785 0.000665886454802 0)
(0 0 0)
(-0.0121982529362 0.00034901158431 0)
(0 0 0)
(-0.0149493111898 0.000355661340469 0)
(-0.0149503648508 0.000355686408279 0)
(-0.00284761823979 4.84272940736e-05 0)
(-0.176849249255 0.00495999998419 0)
(-0.0375769863134 0.00109768598368 0)
(-0.0375803699318 0.00109778482477 0)
(-0.00739747491741 0.000211653624032 0)
(0 0 0)
(0 0 0)
(0 0 0)
(-0.00336382998748 5.72061176395e-05 0)
(0 0 0)
(0 0 0)
(0 0 0)
(-0.330378769153 0.0104881375051 0)
(-0.897920006366 0.0285051866967 0)
(-0.200382806169 0.00636131198788 0)
(-2.19857518699 0.0719065627003 0)
(-0.484880422348 0.0157372169976 0)
(-1.31796630494 0.042775745896 0)
(-0.294100567633 0.00954529042345 0)
(0 0 0)
(-0.0261640329234 0.000820098434162 0)
(0 0 0)
(-0.0656364227423 0.00213028734516 0)
(0 0 0)
(-0.0398107506682 0.00129209263403 0)
(0 0 0)
(-0.073708891563 0.00233994754579 0)
(-0.0737264145812 0.00234050382798 0)
(-0.0139836947688 0.000488315910643 0)
(-0.485002002384 0.0157411629837 0)
(-0.108216932928 0.00351227493997 0)
(-0.108230557372 0.0035127171332 0)
(-0.0241494707665 0.000783792135777 0)
(0 0 0)
(0 0 0)
(0 0 0)
(-0.0133073840423 0.000418200640014 0)
(0 0 0)
(0 0 0)
(0 0 0)
(-7.01491746466 0.219923643193 0)
(-4.16566797703 0.128583436658 0)
(-3.98623621228 0.114648795436 0)
(-1.8827152892 0.0541490841386 0)
(-0.560193266761 0.0172117828311 0)
(-1.52294477031 0.0467920558949 0)
(-0.339815889088 0.0104407489925 0)
(-2.41809466773 0.0695472185144 0)
(-0.255539337635 0.00734960892586 0)
(-1.14202115225 0.032845858222 0)
(-0.120380541376 0.00346228455307 0)
(0 0 0)
(-0.045990611972 0.00141304880387 0)
(0 0 0)
(-0.0924334839375 0.00267658382256 0)
(0 0 0)
(-0.04353803846 0.00126072505811 0)
(0 0 0)
(0 0 0)
(0 0 0)
(0 0 0)
(0 0 0)
(0 0 0)
(0 0 0)
(0 0 0)
(0 0 0)
(0 0 0)
(0 0 0)
(0 0 0)
(0 0 0)
(0 0 0)
(0 0 0)
(0 0 0)
(0 0 0)
(0 0 0)
(0 0 0)
(0 0 0)
(0 0 0)
(0 0 0)
(0 0 0)
(0 0 0)
(0 0 0)
(0 0 0)
(0 0 0)
(0 0 0)
(0 0 0)
(0 0 0)
(0 0 0)
(0 0 0)
(0 0 0)
(0 0 0)
(0 0 0)
(0 0 0)
(0 0 0)
(0 0 0)
(0 0 0)
(0 0 0)
(0 0 0)
(0 0 0)
(0 0 0)
(-1.37477988302 -0.173840239359 0.14801363515)
(-0.663542960773 -0.000235883549871 0.0140169083997)
(-2.49976794278 -0.206428298631 0.192380929704)
(-2.45113046393 0.0660158022778 0.00304204480763)
(-0.121433183023 0.00349255975266 0)
(-0.255932767231 0.00736092441919 0)
(-1.52310491901 0.0467969764196 0)
(-0.560320670364 0.0172156972715 0)
(-0.33985280165 0.0104418831207 0)
(-2.42388395619 0.0697137251921 0)
(-1.14180594893 0.032839668724 0)
(-0.255659379401 0.00735306146683 0)
(-0.120464910045 0.00346471109425 0)
(-0.125023878912 0.00384132402193 0)
(-0.125025592641 0.00384137667577 0)
(-0.0278969841376 0.000857127104357 0)
(-0.692429606147 0.0199150818068 0)
(-0.0717514866884 0.00207769804117 0)
(-0.0718107773063 0.00207941491152 0)
(-0.00526251304325 0.000120409758988 0)
(0 0 0)
(0 0 0)
(0 0 0)
(-0.026387224758 0.000764091278409 0)
(0 0 0)
(0 0 0)
(0 0 0)
(0 0 0)
(0 0 0)
(0 0 0)
(0 0 0)
(0 0 0)
(0 0 0)
(0 0 0)
(0 0 0)
(0 0 0)
(0 0 0)
(0 0 0)
(0 0 0)
(0 0 0)
(0 0 0)
(0 0 0)
(0 0 0)
(0 0 0)
(0 0 0)
(0 0 0)
(0 0 0)
(0 0 0)
(0 0 0)
(0 0 0)
(0 0 0)
(0 0 0)
(0 0 0)
(0 0 0)
(0 0 0)
(0 0 0)
(0 0 0)
(0 0 0)
(0 0 0)
(0 0 0)
(0 0 0)
(0 0 0)
(0 0 0)
(0 0 0)
(0 0 0)
(0 0 0)
(0 0 0)
(0 0 0)
(0 0 0)
(-0.0758313406512 0.00232989692044 0)
(0 0 0)
(0 0 0)
(-0.0439592556426 0.00127292218677 0)
(-0.09269839292 0.00268425475594 0)
(0 0 0)
(0 0 0)
(-0.0459940319686 0.00141315388232 0)
(0 0 0)
(0 0 0)
(-0.0926035528424 0.00268150848471 0)
(-0.0435525347715 0.00126114482583 0)
(0 0 0)
(0 0 0)
(0 0 0)
(0 0 0)
(0 0 0)
(-0.026380523408 0.000763897228329 0)
(0 0 0)
(0 0 0)
(0 0 0)
(0 0 0)
(0 0 0)
(0 0 0)
(0 0 0)
(0 0 0)
(0 0 0)
(0 0 0)
(0 0 0)
(0 0 0)
(0 0 0)
(0 0 0)
(0 0 0)
(0 0 0)
(0 0 0)
(0 0 0)
(0 0 0)
(0 0 0)
(0 0 0)
(0 0 0)
(0 0 0)
(0 0 0)
(0 0 0)
(0 0 0)
(0 0 0)
(0 0 0)
(0 0 0)
(0 0 0)
(0 0 0)
(0 0 0)
(0 0 0)
(0 0 0)
(0 0 0)
(0 0 0)
(0 0 0)
(0 0 0)
(0 0 0)
(0 0 0)
(0 0 0)
(0 0 0)
(0 0 0)
(0 0 0)
(0 0 0)
(0 0 0)
(0 0 0)
(0 0 0)
(0 0 0)
(0 0 0)
(0 0 0)
(0 0 0)
(0 0 0)
(0 0 0)
(0 0 0)
(0 0 0)
(0 0 0)
(0 0 0)
(0 0 0)
(0 0 0)
(0 0 0)
(0 0 0)
(0 0 0)
(0 0 0)
(0 0 0)
(0 0 0)
(0 0 0)
(0 0 0)
(0 0 0)
(0 0 0)
(0 0 0)
(0 0 0)
(0 0 0)
(0 0 0)
(0 0 0)
(0 0 0)
(0 0 0)
(0 0 0)
(0 0 0)
(0 0 0)
(0 0 0)
(0 0 0)
(0 0 0)
(0 0 0)
(0 0 0)
(0 0 0)
(0 0 0)
(0 0 0)
(0 0 0)
(0 0 0)
(0 0 0)
(0 0 0)
(0 0 0)
(0 0 0)
(0 0 0)
(0 0 0)
(0 0 0)
(0 0 0)
(0 0 0)
(0 0 0)
(0 0 0)
(0 0 0)
(0 0 0)
(0 0 0)
(0 0 0)
(0 0 0)
(0 0 0)
(0 0 0)
(0 0 0)
(0 0 0)
(0 0 0)
(0 0 0)
(0 0 0)
(0 0 0)
(0 0 0)
(0 0 0)
(0 0 0)
(0 0 0)
(0 0 0)
(0 0 0)
(0 0 0)
(0 0 0)
(0 0 0)
(0 0 0)
(0 0 0)
(0 0 0)
(0 0 0)
(0 0 0)
(0 0 0)
(0 0 0)
(0 0 0)
(0 0 0)
(0 0 0)
(0 0 0)
(0 0 0)
(0 0 0)
(0 0 0)
(0 0 0)
(0 0 0)
(0 0 0)
(0 0 0)
(0 0 0)
(0 0 0)
(0 0 0)
(0 0 0)
(0 0 0)
(0 0 0)
(0 0 0)
(0 0 0)
(0 0 0)
(0 0 0)
(0 0 0)
(0 0 0)
(0 0 0)
(0 0 0)
(0 0 0)
(0 0 0)
(0 0 0)
(0 0 0)
(0 0 0)
(0 0 0)
(0 0 0)
(0 0 0)
(0 0 0)
(0 0 0)
(0 0 0)
(0 0 0)
(0 0 0)
(0 0 0)
(0 0 0)
(0 0 0)
(0 0 0)
(0 0 0)
(-0.00158742456473 4.72918807393e-05 0)
(-0.00243970755066 7.26827347191e-05 0)
(-0.000977809462413 2.91487236753e-05 0)
(-0.00149113159076 4.44231612156e-05 0)
(-0.177837589337 0.00510190760535 0)
(-0.110522346852 0.00317072900094 0)
(-0.00234234901419 6.97822704085e-05 0)
(-0.00141931781925 4.22837157308e-05 0)
(-0.00142683162263 4.25075637807e-05 0)
(-0.000864455513515 2.57696165374e-05 0)
(-0.0152369299043 0.000438203798556 0)
(-0.0412074504477 0.00118218316848 0)
(-0.00935798292727 0.00026912925972 0)
(-0.000524950361075 1.56488903068e-05 0)
(-0.000118237740566 3.5246940843e-06 0)
(-0.000324195748137 9.66434938748e-06 0)
(-7.22568984707e-05 2.15399466677e-06 0)
(0 0 0)
(-0.00122434569065 3.26652565597e-05 0)
(0 0 0)
(-1.41117962709e-05 3.99541906917e-07 0)
(0 0 0)
(-8.56875590465e-06 2.42603918617e-07 0)
(0 0 0)
(0 0 0)
(0 0 0)
(0 0 0)
(0 0 0)
(0 0 0)
(0 0 0)
(0 0 0)
(0 0 0)
(0 0 0)
(0 0 0)
(0 0 0)
(0 0 0)
(0 0 0)
(0 0 0)
(0 0 0)
(0 0 0)
(0 0 0)
(0 0 0)
(0 0 0)
(0 0 0)
(0 0 0)
(0 0 0)
(0 0 0)
(0 0 0)
(0 0 0)
(0 0 0)
(0 0 0)
(0 0 0)
(0 0 0)
(0 0 0)
(0 0 0)
(0 0 0)
(0 0 0)
(0 0 0)
(0 0 0)
(0 0 0)
(0 0 0)
(0 0 0)
(0 0 0)
(0 0 0)
(0 0 0)
(0 0 0)
(-0.0706596195258 0.00202712402701 0)
(-0.00985288567291 0.000283362327957 0)
(-0.0157660671189 0.000453421426966 0)
(-0.000417164955455 1.24357827174e-05 0)
(-0.000660147310979 1.96791422996e-05 0)
(-9.69219391857e-05 2.88926517077e-06 0)
(-0.00015511003931 4.62386574165e-06 0)
(-0.0414357965926 0.00118873409473 0)
(-0.0156128365412 0.00044901461919 0)
(-0.00938810457518 0.000269995537941 0)
(-0.000625590389067 1.86489925551e-05 0)
(-0.000370253384417 1.10373380572e-05 0)
(-0.00012581310578 3.75051745363e-06 0)
(-7.59808367605e-05 2.26500611876e-06 0)
(-0.00347878443469 0.000100047487467 0)
(-0.00344996607187 9.92186908438e-05 0)
(-0.000736869052731 1.96594939175e-05 0)
(-0.000123864037069 3.69241526966e-06 0)
(-2.59736499701e-05 7.50465697847e-07 0)
(-2.63899322234e-05 7.62493485705e-07 0)
(-3.21261053585e-06 1.37156944103e-07 0)
(0 0 0)
(0 0 0)
(0 0 0)
(0 0 0)
(0 0 0)
(0 0 0)
(0 0 0)
(0 0 0)
(0 0 0)
(0 0 0)
(0 0 0)
(0 0 0)
(0 0 0)
(0 0 0)
(0 0 0)
(0 0 0)
(0 0 0)
(0 0 0)
(0 0 0)
(0 0 0)
(0 0 0)
(0 0 0)
(0 0 0)
(0 0 0)
(0 0 0)
(0 0 0)
(0 0 0)
(0 0 0)
(0 0 0)
(0 0 0)
(0 0 0)
(0 0 0)
(0 0 0)
(0 0 0)
(0 0 0)
(0 0 0)
(0 0 0)
(0 0 0)
(0 0 0)
(0 0 0)
(0 0 0)
(0 0 0)
(0 0 0)
(0 0 0)
(0 0 0)
(0 0 0)
(0 0 0)
(0 0 0)
(0 0 0)
(-0.00214383613036 6.16552771265e-05 0)
(0 0 0)
(0 0 0)
(-1.0907411041e-05 3.08817369752e-07 0)
(-1.68152621428e-05 4.76084105303e-07 0)
(0 0 0)
(0 0 0)
(-0.00122050219975 3.25627131216e-05 0)
(0 0 0)
(0 0 0)
(-1.37481486358e-05 3.89246090085e-07 0)
(-8.67309563259e-06 2.45558049549e-07 0)
(0 0 0)
(0 0 0)
(0 0 0)
(0 0 0)
(0 0 0)
(0 0 0)
(0 0 0)
(0 0 0)
(0 0 0)
(0 0 0)
(0 0 0)
(0 0 0)
(0 0 0)
(0 0 0)
(0 0 0)
(0 0 0)
(0 0 0)
(0 0 0)
(0 0 0)
(0 0 0)
(0 0 0)
(0 0 0)
(0 0 0)
(0 0 0)
(0 0 0)
(0 0 0)
(0 0 0)
(0 0 0)
(0 0 0)
(0 0 0)
(0 0 0)
(0 0 0)
(0 0 0)
(0 0 0)
(0 0 0)
(0 0 0)
(0 0 0)
(0 0 0)
(0 0 0)
(0 0 0)
(0 0 0)
(0 0 0)
(0 0 0)
(0 0 0)
(0 0 0)
(0 0 0)
(0 0 0)
(0 0 0)
(0 0 0)
(0 0 0)
(0 0 0)
(0 0 0)
(0 0 0)
(0 0 0)
(0 0 0)
(0 0 0)
(0 0 0)
(0 0 0)
(0 0 0)
(0 0 0)
(0 0 0)
(0 0 0)
(0 0 0)
(0 0 0)
(0 0 0)
(0 0 0)
(0 0 0)
(0 0 0)
(0 0 0)
(0 0 0)
(0 0 0)
(0 0 0)
(0 0 0)
(0 0 0)
(0 0 0)
(0 0 0)
(0 0 0)
(0 0 0)
(0 0 0)
(0 0 0)
(0 0 0)
(0 0 0)
(0 0 0)
(0 0 0)
(0 0 0)
(0 0 0)
(0 0 0)
(0 0 0)
(0 0 0)
(0 0 0)
(0 0 0)
(0 0 0)
(0 0 0)
(0 0 0)
(0 0 0)
(0 0 0)
(0 0 0)
(0 0 0)
(0 0 0)
(0 0 0)
(0 0 0)
(0 0 0)
(0 0 0)
(0 0 0)
(0 0 0)
(0 0 0)
(0 0 0)
(0 0 0)
(0 0 0)
(0 0 0)
(0 0 0)
(0 0 0)
(0 0 0)
(0 0 0)
(0 0 0)
(0 0 0)
(0 0 0)
(0 0 0)
(0 0 0)
(0 0 0)
(0 0 0)
(0 0 0)
(0 0 0)
(0 0 0)
(0 0 0)
(0 0 0)
(0 0 0)
(0 0 0)
(0 0 0)
(0 0 0)
(0 0 0)
(0 0 0)
(0 0 0)
(0 0 0)
(0 0 0)
(0 0 0)
(0 0 0)
(0 0 0)
(0 0 0)
(0 0 0)
(0 0 0)
(0 0 0)
(0 0 0)
(0 0 0)
(0 0 0)
(0 0 0)
(0 0 0)
(0 0 0)
(0 0 0)
(0 0 0)
(0 0 0)
(0 0 0)
(0 0 0)
(0 0 0)
(0 0 0)
(0 0 0)
(0 0 0)
(0 0 0)
(0 0 0)
(0 0 0)
(0 0 0)
(0 0 0)
(0 0 0)
(0 0 0)
(0 0 0)
(0 0 0)
(0 0 0)
(0 0 0)
(0 0 0)
(0 0 0)
(0 0 0)
(0 0 0)
(0 0 0)
(0 0 0)
(0 0 0)
(0 0 0)
(0 0 0)
(0 0 0)
(0 0 0)
(0 0 0)
(0 0 0)
(0 0 0)
(0 0 0)
(0 0 0)
(-6.8974350792 0.202592764945 0)
(-5.3598826762 0.157115373619 0)
(-5.80479390842 0.166952632487 0)
(-3.5185727148 0.101198248655 0)
(-4.72963897371 0.138640906775 0)
(-5.12076111821 0.147279052884 0)
(-7.82521546165 0.230052957562 0)
(-5.35839969969 0.157071902815 0)
(-2.53123257009 0.0741985552655 0)
(-2.73807772284 0.0787503037995 0)
(-2.73975768579 0.0787986214903 0)
(-3.68319819211 0.107966366994 0)
(-3.68255568128 0.107947532939 0)
(-3.9834188231 0.114567764042 0)
(-1.53561922284 0.0450139308094 0)
(-3.25098477224 0.0952968036761 0)
(-1.29528879235 0.0372540140315 0)
(-2.13449090013 0.0613904439018 0)
(-2.86887429389 0.0840959184707 0)
(-1.14314910769 0.0328782995338 0)
(-1.74013658521 0.0510089914742 0)
(-0.725374438429 0.0212630542108 0)
(-0.342652198724 0.0100442363156 0)
(-0.61233801852 0.01761155448 0)
(-0.225343322544 0.00648113636858 0)
(-0.302376909826 0.00886363826058 0)
(-0.540187175255 0.0155364122081 0)
(-0.82198543625 0.0240950328072 0)
(-1.19590342067 0.0350557697065 0)
(-1.53540038562 0.0450075159878 0)
(-1.6611873869 0.0477776836993 0)
(-0.611411354135 0.0175849025332 0)
(-2.23417904554 0.0654909625224 0)
(-0.821878694588 0.0240919038663 0)
(-0.889729270326 0.025589649904 0)
(-0.564904871633 0.0165591758864 0)
(-0.161837246988 0.00474396942284 0)
(-0.175372096843 0.00504390572594 0)
(-0.288769195603 0.00830533833718 0)
(-0.235485141116 0.00690282570783 0)
(-0.38822936777 0.0113802495039 0)
(-0.420446820072 0.0120925401555 0)
(-0.0349998736013 0.00103959891194 0)
(-0.126049567568 0.00369491761282 0)
(-0.0299813968899 0.000868167231991 0)
(-0.0815134342509 0.00236037342902 0)
(-0.11123308506 0.00326059892982 0)
(-0.0264406191284 0.000765637411933 0)
(-0.0396624586284 0.00117809136412 0)
(-0.00873474406273 0.000215967380106 0)
(0 0 0)
(-0.00776911884687 0.000197063777927 0)
(0 0 0)
(0 0 0)
(-0.0052797661246 0.000120804520834 0)
(-0.0098982232819 0.000244734514777 0)
(-0.0272574832324 0.000809627207041 0)
(-0.059534864947 0.001745158078 0)
(-0.0634361716513 0.0018369125946 0)
(-0.0127890134724 0.000324393455746 0)
(-0.0866260215092 0.00253928687562 0)
(-0.0187337126558 0.000556446217934 0)
(-0.0205779138122 0.000595871851471 0)
(-0.00493094464428 0.000105105243145 0)
(0 0 0)
(0 0 0)
(0 0 0)
(0 0 0)
(0 0 0)
(-0.00410947022217 9.4027381016e-05 0)
(0 0 0)
(0 0 0)
(0 0 0)
(0 0 0)
(0 0 0)
(0 0 0)
(0 0 0)
(0 0 0)
(0 0 0)
(0 0 0)
(0 0 0)
(0 0 0)
(0 0 0)
(0 0 0)
(0 0 0)
(0 0 0)
(0 0 0)
(0 0 0)
(0 0 0)
(0 0 0)
(0 0 0)
(0 0 0)
(0 0 0)
(0 0 0)
(0 0 0)
(0 0 0)
(0 0 0)
(0 0 0)
(0 0 0)
(0 0 0)
(0 0 0)
(0 0 0)
(0 0 0)
(0 0 0)
(0 0 0)
(0 0 0)
(0 0 0)
(0 0 0)
(0 0 0)
(0 0 0)
(0 0 0)
(0 0 0)
(0 0 0)
(0 0 0)
(0 0 0)
(0 0 0)
(0 0 0)
(0 0 0)
(0 0 0)
(0 0 0)
(0 0 0)
(0 0 0)
(0 0 0)
(0 0 0)
(0 0 0)
(0 0 0)
(0 0 0)
(0 0 0)
(0 0 0)
(0 0 0)
(0 0 0)
(0 0 0)
(0 0 0)
(0 0 0)
(0 0 0)
(0 0 0)
(0 0 0)
(0 0 0)
(0 0 0)
(0 0 0)
(0 0 0)
(0 0 0)
(0 0 0)
(0 0 0)
(0 0 0)
(0 0 0)
(0 0 0)
(0 0 0)
(0 0 0)
(0 0 0)
(0 0 0)
(0 0 0)
(0 0 0)
(0 0 0)
(0 0 0)
(0 0 0)
(0 0 0)
(0 0 0)
(0 0 0)
(0 0 0)
(0 0 0)
(0 0 0)
(0 0 0)
(0 0 0)
(0 0 0)
(0 0 0)
(0 0 0)
(0 0 0)
(0 0 0)
(0 0 0)
(0 0 0)
(0 0 0)
(0 0 0)
(0 0 0)
(0 0 0)
(0 0 0)
(0 0 0)
(0 0 0)
(0 0 0)
(0 0 0)
(0 0 0)
(0 0 0)
(0 0 0)
(0 0 0)
(0 0 0)
(0 0 0)
(0 0 0)
(0 0 0)
(0 0 0)
(0 0 0)
(0 0 0)
(0 0 0)
(0 0 0)
(0 0 0)
(0 0 0)
(0 0 0)
(0 0 0)
(0 0 0)
(0 0 0)
(0 0 0)
(0 0 0)
(0 0 0)
(0 0 0)
(0 0 0)
(0 0 0)
(0 0 0)
(0 0 0)
(0 0 0)
(0 0 0)
(0 0 0)
(0 0 0)
(0 0 0)
(0 0 0)
(0 0 0)
(0 0 0)
(0 0 0)
(0 0 0)
(0 0 0)
(0 0 0)
(0 0 0)
(0 0 0)
(0 0 0)
(0 0 0)
(0 0 0)
(0 0 0)
(0 0 0)
(0 0 0)
(0 0 0)
(0 0 0)
(0 0 0)
(0 0 0)
(0 0 0)
(0 0 0)
(0 0 0)
(0 0 0)
(0 0 0)
(0 0 0)
(0 0 0)
(-3.01350619519 -0.288787836818 0.260089710615)
(-11.4220134773 -1.7477063167 1.43987382852)
(-2.4803244504 -0.0947286777379 0.114721608906)
(-1.01472587551 -0.0511215384356 0.0552940348958)
(-8.22136926267 -1.01950433451 0.871427118137)
(-1.12233890241 -0.0129089942391 0.0310603340736)
(-3.83653491955 -0.513682227347 0.431925222738)
(-2.17943339384 -0.0686510776389 0.0912685235722)
(-3.70969965105 0.0131821906027 0.0659002728281)
(-2.42343606395 0.0132281650083 0.0389282844305)
(-1.29951180637 0.0373754728322 0)
(-5.0556285735 -0.311729987879 0.317879347778)
(-1.84949894348 0.032291363391 0.0150030485638)
(-1.20786496957 0.0233956308097 0.00774709665124)
(-0.867010353976 -0.0351547689022 0.0415266513368)
(-0.189840994711 0.000342884158281 0.00353260300173)
(-0.345207719922 -0.000450998998499 0.00708540130218)
(-0.176478669338 0.00507573203952 0)
(-0.240094299093 0.00624060762692 0.000527957933313)
(-0.44441323535 0.00881927831328 0.00268845711029)
(-0.921260959187 -0.0809135992315 0.0741243447906)
(-0.802992647077 0.00847044882329 0.0102618350282)
(-0.342380838884 0.0100362818873 0)
(-0.613736854035 0.0176517866184 0)
(-0.226261127261 0.00650753350104 0)
(-0.821329816306 0.0240758144812 0)
(-0.3021497314 0.00885697893137 0)
(-0.542426716276 0.0156008240158 0)
(-1.53467178461 0.0449861583522 0)
(-3.26934257873 0.0920046458755 0.00259301426757)
(-2.13607569174 0.0614360243539 0)
(-1.29791726095 0.0373296118492 0)
(-2.86726000333 0.0840485984304 0)
(-1.73888897341 0.0509724199658 0)
(-1.14400983618 0.0329030550875 0)
(-1.19530347843 0.0350381834729 0)
(-1.53499566298 0.0449956522675 0)
(-1.66216540377 0.0478058126036 0)
(-0.61140836317 0.0175848165096 0)
(-2.23320670029 0.0654624599607 0)
(-0.821574584289 0.0240829894168 0)
(-0.890234100643 0.0256041694118 0)
(-0.724869022854 0.0212482388572 0)
(-0.342388667006 0.0100365113547 0)
(-0.613114213902 0.0176338787631 0)
(-0.225392264105 0.00648254398489 0)
(-0.821346533334 0.024076304511 0)
(-0.302173969043 0.00885768941453 0)
(-0.540554575479 0.0155469790664 0)
(-0.564563928898 0.01654918176 0)
(-0.161770917238 0.00474202508488 0)
(-0.288874072172 0.00830835470942 0)
(-0.175409406998 0.00504497880947 0)
(-0.388047596063 0.0113749211915 0)
(-0.23535299279 0.00689895201601 0)
(-0.420684331439 0.012099371259 0)
(-0.266752378241 0.00781936883752 0)
(-0.931097244234 0.0272934502938 0)
(-0.370606123468 0.0106590636816 0)
(-0.370551444536 0.0106574910519 0)
(-0.498403324427 0.0146098019791 0)
(-0.498345110568 0.0146080955439 0)
(-0.198195776232 0.00570034132335 0)
(-0.126005869704 0.00369363668811 0)
(-0.0981409895849 0.00287682756834 0)
(-0.17501056981 0.00503350778749 0)
(-0.038350394768 0.00111050716529 0)
(-0.235429730387 0.00690120144139 0)
(-0.0509148039358 0.00151231902653 0)
(-0.0920399750507 0.00266518903925 0)
(-0.125995014206 0.0036933184786 0)
(-0.0981260197235 0.00287638875363 0)
(-0.175059535972 0.00503491611132 0)
(-0.0383943430017 0.00111177976831 0)
(-0.23538107109 0.00689977508114 0)
(-0.0509120995846 0.00151223869937 0)
(-0.0920759069076 0.00266622951315 0)
(-0.0595165255143 0.00174462049033 0)
(-0.00873354356494 0.000215937697683 0)
(-0.0181089120029 0.000524377301887 0)
(-0.0181141556525 0.000524529141537 0)
(-0.0240485935847 0.00071431377179 0)
(-0.0240492249914 0.000714332526424 0)
(-0.0434651164058 0.0012586134641 0)
(0 0 0)
(-0.034994847064 0.00103944960904 0)
(-0.00775307294569 0.000196656773482 0)
(-0.0127651214588 0.000323787434579 0)
(-0.0098968313224 0.000244700098445 0)
(-0.0187302294975 0.000556342757916 0)
(0 0 0)
(0 0 0)
(0 0 0)
(0 0 0)
(0 0 0)
(0 0 0)
(0 0 0)
(0 0 0)
(0 0 0)
(0 0 0)
(-0.00464442859214 0.000106267580302 0)
(0 0 0)
(-0.00770705851058 0.000190557756804 0)
(0 0 0)
(0 0 0)
(0 0 0)
(0 0 0)
(0 0 0)
(0 0 0)
(0 0 0)
(0 0 0)
(0 0 0)
(0 0 0)
(0 0 0)
(0 0 0)
(0 0 0)
(0 0 0)
(0 0 0)
(0 0 0)
(0 0 0)
(0 0 0)
(0 0 0)
(0 0 0)
(0 0 0)
(0 0 0)
(0 0 0)
(0 0 0)
(0 0 0)
(0 0 0)
(0 0 0)
(0 0 0)
(0 0 0)
(0 0 0)
(0 0 0)
(0 0 0)
(0 0 0)
(0 0 0)
(0 0 0)
(0 0 0)
(0 0 0)
(0 0 0)
(0 0 0)
(0 0 0)
(0 0 0)
(0 0 0)
(0 0 0)
(0 0 0)
(0 0 0)
(0 0 0)
(0 0 0)
(0 0 0)
(0 0 0)
(0 0 0)
(0 0 0)
(0 0 0)
(0 0 0)
(0 0 0)
(0 0 0)
(0 0 0)
(0 0 0)
(0 0 0)
(0 0 0)
(0 0 0)
(0 0 0)
(0 0 0)
(0 0 0)
(0 0 0)
(0 0 0)
(0 0 0)
(0 0 0)
(0 0 0)
(0 0 0)
(0 0 0)
(0 0 0)
(0 0 0)
(0 0 0)
(0 0 0)
(0 0 0)
(0 0 0)
(0 0 0)
(0 0 0)
(0 0 0)
(0 0 0)
(0 0 0)
(0 0 0)
(0 0 0)
(0 0 0)
(0 0 0)
(0 0 0)
(0 0 0)
(0 0 0)
(0 0 0)
(0 0 0)
(0 0 0)
(0 0 0)
(0 0 0)
(0 0 0)
(0 0 0)
(0 0 0)
(0 0 0)
(0 0 0)
(0 0 0)
(0 0 0)
(0 0 0)
(0 0 0)
(0 0 0)
(0 0 0)
(0 0 0)
(0 0 0)
(0 0 0)
(0 0 0)
(0 0 0)
(0 0 0)
(0 0 0)
(0 0 0)
(0 0 0)
(0 0 0)
(0 0 0)
(0 0 0)
(0 0 0)
(0 0 0)
(0 0 0)
(0 0 0)
(0 0 0)
(0 0 0)
(0 0 0)
(0 0 0)
(0 0 0)
(0 0 0)
(0 0 0)
(0 0 0)
(0 0 0)
(0 0 0)
(0 0 0)
(0 0 0)
(0 0 0)
(0 0 0)
(0 0 0)
(0 0 0)
(0 0 0)
(0 0 0)
(0 0 0)
(0 0 0)
(0 0 0)
(0 0 0)
(0 0 0)
(0 0 0)
(0 0 0)
(0 0 0)
(0 0 0)
(0 0 0)
(0 0 0)
(0 0 0)
(0 0 0)
(0 0 0)
(0 0 0)
(0 0 0)
(0 0 0)
(0 0 0)
(0 0 0)
(0 0 0)
(0 0 0)
(0 0 0)
(0 0 0)
(0 0 0)
(0 0 0)
(0 0 0)
(0 0 0)
(0 0 0)
(0 0 0)
(0 0 0)
(0 0 0)
(0 0 0)
(0 0 0)
(0 0 0)
(0 0 0)
(0 0 0)
(0 0 0)
(0 0 0)
(0 0 0)
(-0.0272414759314 0.000809151743249 0)
(-0.0594998514929 0.00174413172122 0)
(-0.0638818827289 0.00184981898965 0)
(-0.0129340058264 0.000328071188267 0)
(-0.0865675318961 0.00253757235723 0)
(-0.0207604317971 0.000601156999938 0)
(-0.0187236131024 0.000556146231574 0)
(-0.0349787149104 0.00103897043676 0)
(-0.125955434101 0.00369215825861 0)
(-0.081908888208 0.00237182453547 0)
(-0.0301230352172 0.000872268633773 0)
(-0.111154674651 0.00325830046894 0)
(-0.039636666832 0.00117732527211 0)
(-0.0266234111698 0.000770930496212 0)
(-0.00492897192283 0.000105063193724 0)
(0 0 0)
(0 0 0)
(0 0 0)
(0 0 0)
(-0.00415061436479 9.4968786055e-05 0)
(0 0 0)
(-0.00873098373135 0.000215874405554 0)
(0 0 0)
(-0.00782031852503 0.00019836245828 0)
(0 0 0)
(-0.00989356761441 0.000244619402954 0)
(0 0 0)
(-0.00532330284191 0.000121800669556 0)
(-0.0349836605697 0.00103911733734 0)
(-0.125959534108 0.00369227844297 0)
(-0.0816461089862 0.00236421527328 0)