/*--------------------------------*- C++ -*----------------------------------*\
| =========                 |                                                 |
| \\      /  F ield         | OpenFOAM: The Open Source CFD Toolbox           |
|  \\    /   O peration     | Version:  v1906                                 |
|   \\  /    A nd           | Web:      www.OpenFOAM.com                      |
|    \\/     M anipulation  |                                                 |
\*---------------------------------------------------------------------------*/
FoamFile
{
    version     2.0;
    format      ascii;
    class       volScalarField;
    location    "11.4";
    object      p;
}
// * * * * * * * * * * * * * * * * * * * * * * * * * * * * * * * * * * * * * //

dimensions      [1 -1 -2 0 0 0 0];


internalField   nonuniform List<scalar> 
28582
(
17098.5682474
17096.5845285
12200.3360845
12198.2042121
7301.4742789
7298.72363586
3627.49710453
3624.3492094
49.8865363631
53.5204403694
-27.0542138978
3625.40859817
649.394749725
648.19886082
3624.08691823
3623.55705502
649.24701817
1788.08103068
1787.39834107
17100.2833421
17095.4347598
17095.2846228
12202.5490567
12197.2453913
12197.1915513
7305.02869967
7298.03758965
3633.55874828
3624.27781936
53.9926744566
-27.1053037325
-27.0096172006
3630.54535446
3630.670103
653.515722318
651.462035775
1795.95132129
3624.34463872
3623.76776077
3624.3503613
1788.50010424
654.053388732
1788.10753682
1789.39944075
51.2188648317
53.9002171032
-22.8704754118
-22.8310355858
52.4201777114
-22.8496159125
1790.61607294
1787.86526194
648.474915626
648.855189562
1790.1885247
648.053867059
1788.25674454
1786.54432672
1786.53163195
647.930428592
647.920840039
1786.1922154
647.61751587
1786.82878314
1786.99263725
1786.8683864
650.452994275
648.970441355
1786.42507883
650.268687357
1787.6068278
1788.78453981
652.693155025
652.775845253
1787.51444186
651.873674681
651.797197232
1788.27884929
1786.89559315
652.363357157
651.817222636
1786.70792934
650.630534447
1786.19011626
651.252373611
49.2003627381
-22.8730327258
48.9144698149
49.0080725847
-22.9262698111
-22.8925062265
54.7304085683
-22.9002591259
-22.8752596072
55.4115848991
-22.9358197178
54.7242007167
-22.9051785259
1798.06822327
1798.9962703
652.890352075
654.139849352
1797.58852147
1799.72475748
653.430900226
1796.12946917
1794.09397701
652.333615418
651.662012116
1795.91821648
1794.02057331
652.712400561
652.584342346
651.343296402
1793.50302381
1796.12859005
651.66078588
1793.83215623
652.788997111
1789.00146441
653.259539485
653.510044104
1788.66742165
653.515085676
1788.90175126
653.974922063
1788.72029922
1788.27431856
653.660695083
654.675283733
1788.62505922
1788.64206804
654.311323876
1788.70743756
1787.78616982
653.454382628
653.214941916
654.418046341
1788.69473098
654.299796059
655.464595952
656.081757242
1789.64213911
1789.02727229
655.383949745
1789.13506673
655.014289754
7297.69304528
3624.217057
55.9391685957
-27.0409549305
3627.69905959
649.868666339
3624.62566894
3624.55429792
654.593791965
656.419391276
657.330933377
3624.34070434
3624.33920591
657.799104439
660.262063033
49.7029725206
56.3097411882
57.8655323388
-22.9098397312
-22.9310874283
-22.9418784579
59.2659020937
60.5710365101
1789.26704795
1791.0554738
650.223019733
648.887257483
1791.49559574
649.196717312
1788.71336149
1788.14079722
1787.95495525
655.156705105
655.080929485
1787.69518876
1788.41862691
655.615121794
1788.55823437
1789.57695782
655.602467793
656.695189125
1788.91765447
656.025768035
1789.28639993
1788.19961445
1788.31517631
656.829228215
656.939833718
1787.90427138
656.429966188
1788.76679213
1787.79737113
1788.14956358
657.2785168
658.429458803
1787.73085114
658.10134486
1788.15471914
1788.06590998
1788.68268396
660.065202452
659.323088557
1788.4762744
659.104680963
1788.32303809
3629.59000981
3629.91724632
3636.74329149
3637.33862252
34.041559492
44.9458267744
33.2326876056
42.4632497507
42.9514999575
-27.2341197999
-27.1560147425
-27.1665668721
-27.1688622859
-27.1060837626
-27.1091027757
3628.80710345
3627.76990038
619.51239832
620.988317679
3630.72906381
624.104129342
3627.58574895
3628.14297859
621.958687741
625.429374846
3635.34584445
3629.55376443
3633.65893241
625.638116204
642.070021375
628.456432853
642.143574686
3637.69829705
3638.68197134
648.085464857
659.75054457
647.198261101
657.185535423
3633.50789337
3634.02468891
629.297692266
642.083979291
643.857068904
3638.39206648
3636.80622416
3638.52612506
646.758262671
656.308450202
647.643231504
655.082023527
648.430011576
655.077007288
30.3146344768
30.5768593616
33.4326793713
-23.1315593338
-23.0393165518
-23.1354298524
-23.0245756796
-23.0533292414
-22.9829041437
-23.054524193
-22.9778903985
30.4556541518
30.030911524
39.5355940457
33.3224033588
38.2598692425
-23.1243399095
-23.0471255057
-23.1183339616
-23.0584883555
49.0509944575
43.5218197731
47.628538741
-23.0619415956
-22.983018573
-23.0700633204
-23.0141763509
37.7921292369
38.1935946159
-23.09283372
-23.0512860253
-23.039444515
46.2620775346
42.3905361664
45.5523614135
-23.0686546728
-23.0332746234
-23.0686227955
-23.0477009956
1779.54287042
1781.48044065
620.082778699
619.297382285
1781.32523279
619.688704671
1779.79013648
1780.01874667
1782.08308692
619.728598932
619.971032404
1781.53067874
1780.98099652
619.64098978
1786.92033033
1783.40402513
622.587474582
628.895214845
1783.54665521
1787.04353413
627.741696918
1783.30093397
1783.06813753
620.130849043
623.184139587
1782.04667904
1783.48223828
621.01360325
1784.56676747
1785.9752408
624.388822446
622.9981019
1784.73950527
1785.76108801
622.124913241
1788.45860907
1784.20939611
630.280009233
626.693993678
1787.56914089
1785.21994862
631.225624004
1792.55713633
1796.91300042
636.029960257
642.272482408
1791.90357849
1797.01721731
636.677648424
1789.34810406
1787.64361819
627.582470259
632.447538148
1786.35554398
1790.46025803
631.756372799
1793.06979452
1797.50873688
642.031481836
637.28284159
1797.12097422
1793.89828441
636.759885812
1805.27186187
1801.81804059
653.293309624
648.025445868
1806.18390614
1801.40488178
653.024085858
1807.70883799
1809.35866563
657.602815312
659.250586
1808.91214876
657.218461096
1808.24766255
1804.30148089
1800.93716218
647.470275487
651.510024463
1800.98238373
1803.90643159
652.098029913
1806.46530692
1806.54116771
658.070141489
655.231194045
1805.83059746
656.096351771
1807.13200025
1792.34959776
1788.63124584
633.075871432
630.278256362
1791.34796755
1789.72207428
633.903434161
1795.36971264
1797.79973418
637.602975288
642.493776722
1794.53939044
1798.39747223
638.237212937
1796.13698578
1799.65709175
643.093224464
640.00884385
1798.9457725
1797.00594706
639.077302893
1803.62588764
1800.88324149
650.813650798
646.81790265
1803.58628439
1801.18864502
650.542694979
1805.33323697
1806.1811216
654.321911094
655.759455393
1805.41570478
653.814525765
1806.0331247
1803.7512685
1801.99225252
647.111980389
650.81110459
1801.48508904
1804.06714711
650.526465375
1805.30600251
1805.96624985
655.222010873
653.431120813
1805.45808088
653.446936976
1805.94142037
1804.83330318
1802.56707046
651.325869347
649.261701983
1804.42514247
1803.167548
651.850425732
1806.04570702
653.607329458
1805.64252589
17097.8954206
17096.0057228
17095.1313506
17095.9436415
17097.0576673
17107.6008454
12199.8271184
12197.9348404
12197.1980593
12197.4925565
12198.1711434
12209.1862402
18313.9182713
18317.9629221
17089.9327316
17094.0151964
17097.5281904
17100.7364267
17106.6058705
17086.2746945
18315.8858858
18318.3610178
17094.8199157
17095.3994664
17095.7112241
17095.4491879
17094.8133624
17106.8044744
17096.546455
17094.9197858
17094.5386203
17094.8520661
17095.3578712
17095.614537
17095.9092516
17108.7315196
17099.0748461
17096.7652423
17095.4498545
17095.2627385
17095.5550993
17095.6665696
17096.0192934
17109.0888337
17095.160333
17095.614877
17096.6108346
17108.5163923
13414.6865098
13418.2521736
12195.5837069
12197.1760548
12200.2466208
12206.2292265
12255.1285704
12110.9631051
13418.466347
13420.5333731
12199.5831864
12199.6228653
12198.4124385
12196.3243701
12192.3909654
12190.2609329
12198.3111831
12197.7366222
12197.7836663
12197.5347378
12197.1797052
12196.408897
12195.3502416
12205.8454813
12201.3159695
12198.9989847
12197.8651199
12197.7065097
12197.6287533
12196.7796681
12195.5834554
12208.2999077
12197.057388
12196.9045071
12197.1483203
12209.536703
8516.46340294
8520.47350852
7299.2197935
7298.32319598
7297.47870576
7297.86730187
7301.831757
7228.18419381
8520.87361324
8523.91252147
7297.72087083
7297.90665487
7296.87830634
7292.87771605
7280.58270752
7268.49596294
7301.12331584
7299.81309674
7299.02406801
7298.56710257
7297.54190561
7294.82342681
7287.51660328
7302.18607843
7307.45707285
7303.78411809
7300.79336393
7299.13243482
7298.66527213
7297.72766655
7295.54876715
7290.89108651
7305.07422706
7301.3892265
7298.94554375
7298.05192149
7297.2399446
7296.09557802
7294.19026202
7308.29203592
7297.09078553
7296.18536297
7308.97102206
3623.94991843
3628.03336676
3628.9411791
3625.00831685
3621.63823071
3624.57042914
3627.12496725
3598.45536157
3624.58634149
3625.70875961
3627.97755186
3627.64915876
3624.91472931
3623.97090343
3623.88243119
3620.31565035
3606.24963709
3637.6664204
3632.86639776
3629.20211602
3627.65528494
3627.26368434
3625.97099955
3625.58100082
3624.74936243
3620.99773812
3619.55333875
3636.18401612
3631.75415235
3627.94426267
3626.66782931
3626.64214392
3626.47514957
3624.43539724
3621.61451813
3623.60964518
3627.95020516
3625.84386522
3625.66625306
3624.77456219
3623.53438918
3622.76412981
3625.60407017
3623.76804503
3624.20875028
3627.24726084
41.7668256025
45.2679793844
50.0857843236
56.1852173275
60.3160140268
62.9399904811
62.8008559361
64.4175645934
49.4222169447
44.1023910934
43.6551797728
46.3916279054
49.2976992094
53.2824641908
55.9596029383
58.5831260749
60.5054195682
62.8806123165
47.5696631242
45.5862136337
45.7115377557
46.8642084736
48.3172762473
50.8406683606
52.9477796346
55.464797007
58.2737598026
61.3719495636
46.707567968
47.8591025093
47.9194719185
48.7302781731
49.8277127336
51.2395597443
55.1705559708
58.3704610897
60.4449452374
49.2433523188
50.3197362736
51.6782304658
53.6208579394
57.3975430175
60.4595173294
61.4691436316
59.2215637066
61.7490411509
62.8104442928
-27.0367152314
-27.1241931885
-27.1200751459
-27.1503587752
-27.2814650503
-27.2168930224
-27.0749856609
-27.0974061206
-27.2094825967
-27.6412954539
-27.1869566493
-27.1511830561
-27.1320241335
-27.2053841166
-27.114953023
-27.3558300269
-26.9931301769
-27.1401539673
-27.2019789219
-27.5701536892
-27.2631373059
-27.0741101448
-27.1334384436
-27.1211793972
-27.1167598851
-27.1141243919
-27.1838296524
-27.1101730525
-27.2512866715
-27.6011346933
-27.0693185719
-27.1223998372
-27.0842547533
-27.0672044484
-27.0618237512
-27.0599830497
-27.1174321084
-27.2503252471
-27.6348197117
-27.0563424563
-26.9569792991
-27.2531215467
-27.0851825734
-27.116887322
-27.2417176143
-27.633653174
-27.0785889219
-27.2296322853
-27.6829892882
18316.271033
18314.1886675
18316.4756152
15864.4720882
15867.033978
15865.0653085
15867.1496588
18318.7228022
18318.3114288
18319.314622
15868.7952983
15865.4793121
15868.5110946
15867.6651864
18317.0661661
18318.2213797
18318.1766849
15866.8861115
15868.3491435
15869.0461058
15869.4818077
18319.1766353
18318.7115778
18319.4625528
15869.5294753
15869.6035422
15870.4198712
15871.3459701
13416.8674792
13415.9682527
13417.7213826
10964.974429
10967.3550993
10966.6579938
10968.6712781
13418.8011887
13418.6477134
13419.751811
10968.802554
10969.4251713
10969.7316468
10969.6919891
13419.653263
13420.187989
13420.8088674
10969.5293
10971.0159674
10971.4394849
10971.7694042
13420.6826962
13421.598179
13425.0444686
10971.8771026
10968.3951339
10971.9657928
10974.8630291
8518.99647354
8518.33257187
8520.3758591
6069.48320059
6071.94880651
6071.10779457
6072.91088547
8521.13034844
8521.70568556
8522.39912558
6073.56542403
6074.50779986
6074.1383096
6076.26717464
8522.61566069
8522.74992414
8523.25730244
6072.86492793
6074.39516415
6074.37261784
6075.02316613
8520.28850716
8523.40045143
8525.42292751
6075.46787321
6074.98439178
6075.46885887
6077.2403499
3621.61973535
3623.03908954
638.937073482
642.298275683
3626.43717459
3625.01835052
3626.76982658
640.59013102
646.4569666
643.127169218
647.50505966
3628.77698738
3627.95777195
3628.4559188
648.341594191
652.966806062
648.912979013
652.020873893
3627.54937121
3627.93839743
3626.36794092
654.595364858
656.389030076
652.894364199
652.489863026
3622.51794071
3624.36077059
3622.98106753
655.507632728
652.217636292
651.744127986
652.655428382
3622.39629617
3622.63209968
3623.11979864
651.817571223
657.662180142
653.797658788
657.826524949
3626.88930658
3624.27024539
3625.58017959
660.093143947
664.902913914
659.250881647
662.042056008
3617.59852758
3625.46662889
3617.45065419
665.481159815
664.161807994
662.184257561
659.147402252
3583.65679594
3601.61895702
3606.74953562
665.803816918
599.956269509
658.668558789
634.540440513
3636.3516346
3632.58360579
659.496437657
648.975694713
657.432109408
651.928189655
3624.63548005
3629.51580048
3627.7532176
646.632118533
643.62786426
650.640491896
647.440033195
3627.01820102
3627.15123295
3627.42340551
643.980988386
647.500565986
646.7231339
647.626301974
3628.15518372
3627.8465914
3628.1872608
648.834321829
651.675415824
648.355032076
650.037802623
3626.27446127
3628.34417195
3627.28791577
652.384212036
651.55938459
650.386283771
650.511745703
3624.14533786
3625.97359116
3625.33876755
650.778317571
653.108168999
650.577218527
652.729756914
3624.00619194
3625.19700979
3625.14217503
654.412314089
657.491263939
654.100951928
656.734369109
3623.19404272
3624.47736794
3622.95929672
658.732642365
661.103719807
657.65651655
658.361811937
3614.61298909
3620.48804678
3616.88712978
661.172536431
658.347823227
657.949123066
656.971454906
3624.1721502
3613.2940936
3633.74185906
658.202314656
636.664135269
657.957332461
637.158123761
3635.46717755
3638.46075925
3637.11145816
656.807153972
652.722174698
655.766220688
654.141240747
3630.83292004
3634.83558281
3632.64141387
651.654001929
648.48062281
653.427550943
650.52966788
3628.04492465
3630.6087796
3628.70898666
647.496308961
647.817263578
649.663731227
648.886356688
3627.55669589
3627.66483757
3627.09263411
648.262478208
649.381833309
648.937960865
649.137207178
3626.68163152
3626.83871422
3626.79031333
649.614224486
650.473760031
649.090899139
650.116813441
3625.57322795
3626.61579765
3626.49790691
650.744885046
651.89952688
650.464050543
651.277562454
3625.63350639
3626.49113588
3626.15994085
653.032175926
656.952668293
652.139216444
655.69256505
3622.98373375
3625.01781567
3623.12660461
657.638085467
657.066403872
655.662217639
655.082130725
3619.3056671
3621.31433236
3620.71549127
656.82397435
657.24148982
655.465217519
657.303229505
3635.88085643
3621.97399537
3636.92876982
658.673611134
635.969603051
658.893078952
633.427149263
655.705952943
654.421252343
3633.96278796
3635.13561615
653.814990493
651.193517398
653.45906255
3629.54971984
3632.78024223
3630.2184128
650.454059107
649.508770969
652.811987529
651.250572601
3627.00633161
3628.07394851
3626.79992163
649.391751758
649.014803373
650.431831079
648.657787039
3626.68210299
3626.26360221
3626.24284855
649.00106614
650.161650665
649.010880077
651.216299244
3626.60191191
3626.22906594
3626.0590585
650.460069092
651.644100899
651.764895035
652.228460628
3625.71269155
3625.64706067
3624.91481175
652.650582606
654.598215401
652.474130821
654.165201042
3622.84546607
3623.9829046
3622.8040725
654.686912151
655.413545199
654.854082639
656.902763781
3621.7863994
3622.12239308
3622.62521128
655.858713623
657.364381194
657.329397436
658.124139309
3637.37200412
3624.61792566
3637.83513621
658.838228549
633.450574085
659.293118502
635.410984884
3626.42228104
3625.89370785
650.292112973
648.564235633
648.374280318
3625.80039103
3625.12858355
3624.99185003
649.042872674
651.649820337
649.284301999
652.353838143
3625.34075182
3624.87625759
3624.66237239
652.049227266
652.31123478
652.795995202
653.418068065
3624.15947342
3624.22637786
3623.8286227
652.563799799
654.87068009
653.940071071
656.125804623
3622.88720342
3623.4068966
3623.11219122
655.579081278
657.381722617
656.777925978
658.91608472
3623.48047296
3623.27765508
3624.09651136
657.92168847
658.98479878
659.835499672
661.533655242
3638.26227864
3626.25851392
3638.31242192
660.157427861
636.586372605
662.636138087
638.974353386
3624.0016844
656.345491074
3623.7593934
656.930468549
659.290394554
3625.20912572
660.236564858
661.900891135
3638.33253824
662.873090237
639.508816942
-23.0423543005
-23.103083408
-23.011635789
-23.0736366656
40.3003279363
41.8372565935
-23.1128607654
-23.112621706
-23.0846364117
-23.0859542974
43.4697876728
42.7306085661
44.2859422618
-23.0825128892
-23.0218922891
-23.0736965461
-23.0164354441
47.3587884487
45.9096010532
47.5889079524
-22.9930770452
-22.9512756671
-23.0036736138
-22.9638976429
53.1575381716
49.9884351248
52.4360596427
-22.8810047633
-22.8335762687
-22.9009423768
-22.84314148
58.7197326603
54.7139516308
56.696833134
-22.7886969312
-22.7832355881
-22.806750753
-22.8299782039
62.0540840529
58.4091417053
60.0192423385
-22.7240188607
-22.7444921812
-22.8288002934
-22.8273151692
63.2109702299
60.9008904649
61.5101926793
-22.7994094388
-22.827584516
-22.861299042
-22.8863608937
63.5331319484
61.7955589352
63.267463682
-22.8710946092
-22.9386489158
-22.927440325
-22.9776262962
69.236971441
63.1849599159
69.4570021655
-23.0332221493
-22.9121451073
-23.0499846219
-22.9025085627
45.9110962226
48.6218207078
46.4585612606
-23.0075757975
-23.0467047598
-23.0498276731
-23.0503409377
43.4423429107
45.1736139681
44.5795123182
-23.0550762916
-23.0725182584
-23.0642621568
-23.1103677593
44.9754485831
44.4398783437
45.3815944782
-23.0554307629
-23.0254302974
-23.0631383336
-23.0329708729
47.4945706646
46.581206524
47.4800136165
-23.0096732382
-22.9770572914
-23.0197740956
-22.9888638269
51.3286062875
48.7898006323
50.3521152745
-22.9208450775
-22.8456317244
-22.9353794357
-22.8825764893
54.7404779749
52.0189406045
53.1897894929
-22.8594365321
-22.9328187097
-22.8898557188
-22.9020173752
57.4336529892
54.2791509559
55.3027738943
-22.8858110363
-22.9081451581
-22.8831559195
-22.931702316
59.610757853
56.4662717599
57.9444578187
-22.9293411026
-22.9441474778
-22.9619672858
-22.9784134127
62.6219261957
59.3340052869
61.2027201511
-22.9799686892
-23.010243903
-23.0084674454
-23.0230519837
69.442668474
62.0925211492
68.2276245951
-23.0613642467
-22.9282691088
-23.0735717347
-22.9570140503
46.4561971105
46.9472384271
46.5041463882
-23.0586571789
-23.0619358146
-23.0704580574
-23.0493127679
45.7049464603
46.0708474762
46.6605882338
-23.0490545854
-23.0821353718
-23.0297306718
-23.0605807727
46.2490252323
46.9382932532
47.1338734813
-23.0469207999
-23.0202957963
-23.0248425575
-23.0005577562
47.4792354476
47.4070829696
47.8360254632
-23.0038702779
-22.9803452063
-22.9872360813
-22.970394062
49.8105070856
48.3572465454
49.3206118493
-22.9444468723
-22.9102965256
-22.9460177988
-22.9282106016
51.5443963382
50.0656650342
50.4119952355
-22.9060914136
-22.8533756628
-22.9284708928
-22.8970633684
54.2381773998
51.7033658984
53.4057466808
-22.8465135261
-22.9633002047
-22.8964770235
-22.9560833279
56.9615011747
54.9238830154
56.606646711
-22.9559521613
-23.0051551061
-22.9604261419
-23.0143865157
60.2592655131
57.9817839837
59.6590995098
-23.0291047937
-23.0261129258
-23.0352205219
-23.0272844559
66.517049135
60.7079395128
65.1791047384
-23.0811327588
-22.9793653323
-23.0812875788
-22.9939583678
47.527551144
48.0771909366
-22.9994983667
-23.0148870116
-22.9862941913
47.7620950027
48.4732823962
48.4583578022
-22.9821072747
-22.9572084026
-22.9473811207
-22.9184934396
48.3225187604
48.5602109461
49.0705374756
-22.9433437816
-22.9343380201
-22.9076088437
-22.9102379987
49.3406914622
49.457314007
49.9553100526
-22.9151129473
-22.9034652405
-22.8995749345
-22.8750810699
50.1969354071
50.5245241324
51.0681781858
-22.9066290671
-22.8908350164
-22.8720248033
-22.8592338684
53.3753955257
52.3737546518
54.3465661801
-22.8867849255
-22.9261872494
-22.8747964104
-22.9259647445
56.9933109605
56.0779991526
57.9476534079
-22.9566352317
-23.0038298401
-22.9449319573
-22.9892602452
59.7790145053
59.2112966777
60.4939781055
-23.0287253299
-23.0284011013
-23.0226346072
-23.0228734953
64.9226535909
60.7587604677
65.4557197624
-23.0839473543
-23.0095439374
-23.083268364
-23.0148600776
49.8538407284
50.6992889941
-22.8637327498
-22.8757407631
-22.8270155969
-22.8377352033
50.9349393411
51.5602761841
52.233992581
-22.8585748029
-22.7811694574
-22.8301979069
-22.7565973823
52.2878119119
52.8789575236
53.6738934217
-22.8588753584
-22.9008301993
-22.8783004088
-22.9264586342
55.4678837698
55.1555644155
56.9026539005
-22.8961077127
-22.9168209228
-22.9116769984
-22.9219364415
59.2726422522
58.7339568604
60.474387759
-22.9212770831
-22.9534448197
-22.9088003776
-22.9348998724
61.7826823514
61.4617485475
63.0645218107
-22.9817996637
-23.0056689321
-22.967843538
-22.9958186148
66.2428339561
62.5342943832
66.8785158027
-23.0762750825
-23.0056359095
-23.0760389317
-22.9997844118
57.5633310332
-22.916419144
60.7962529827
-22.9077464912
-22.9346952456
-22.9332864278
-22.9588611898
63.5444186674
-22.9677387089
-22.9949401097
-22.9838432501
-23.0000286969
67.0939078035
-23.0788352265
-22.9869138183
-23.0714443072
-22.9723039422
1786.87812296
1787.07326165
637.928989957
639.904507991
1787.44064766
638.979572249
1786.49857663
1787.58599081
1789.13285536
641.095586692
641.942973517
1788.12782935
1788.71661678
640.3788088
1790.34024739
1788.4500383
642.565428256
641.40093342
1788.73410375
643.160500823
1790.1922209
1791.99525176
1793.5839613
644.585186806
646.866248439
1793.48143379
645.052061673
1792.01511525
1790.66195571
1790.01920104
642.262222609
644.383925262
1789.23552263
1791.1370214
643.815689551
1792.14534642
1793.50594007
647.259978243
645.957392782
1793.49511181
1792.35709554
645.575262844
1795.20039915
1794.72265841
649.730136402
648.561110291
1794.52539104
649.8180818
1795.51138561
1795.64362859
1796.48304738
651.348830572
652.624332683
1795.78975699
651.287568447
1796.08866244
1795.0509253
1794.40231419
648.762646155
650.005333965
1794.46874294
1794.91667968
649.909826683
1795.3664269
1794.91853006
652.25220472
651.187820095
1795.37016065
1795.09771662
651.207475136
1795.15253298
1796.5428659
655.693380786
654.097719649
1795.56876896
655.032964011
1796.33176537
1793.77684459
1792.60762004
656.464741421
655.093276574
1791.55934947
655.423563928
1795.02958503
1794.1255497
1794.3270651
653.403915527
653.280164184
1794.97370204
1793.22838855
654.063404245
1792.8071792
1790.08425417
653.696587186
653.009346543
1790.79540021
1791.83883338
654.107587382
1785.70024301
1789.42442924
654.477041834
654.181943837
1788.74405347
653.372567453
1785.82765759
1783.11507257
1779.87720492
652.892344801
652.186036792
1781.25406963
652.460868149
1782.48368746
1786.15096115
1788.27920616
652.845497808
651.62556243
1788.51704916
1786.73058168
652.427507587
1784.41929946
1785.40252715
652.35943374
651.903268886
1783.36662416
1785.8912082
652.070050684
1781.44730474
1779.38158251
652.590600669
652.370019858
1781.06983363
653.501161658
1780.27813314
1782.70789847
1783.86488166
655.143961664
657.826361836
1784.81615598
655.589197129
1781.52717763
1783.72553387
1785.40521856
653.152028056
655.10685425
1783.3102693
1785.66433947
654.627406462
1784.62349082
1787.33787241
658.004605273
656.533101689
1786.11293265
1786.32541154
656.386689144
1789.1425353
1786.35972856
662.047786821
659.991803066
1787.00041801
661.70005399
1788.99407286
1790.7928977
1793.01981464
663.78886437
663.966215993
1791.90475706
663.177723309
1791.25329417
1789.29137391
1788.4755379
659.649261476
660.449949362
1787.72976245
1789.50735638
661.050059278
1790.44263411
1790.23364001
662.946879814
661.471028754
1791.06486323
1790.14659259
662.27499393
1791.10765605
1794.09123056
665.466996048
664.304972
1792.05140607
664.047504179
1793.92843656
1788.65592481
1787.23231621
664.885707616
661.800916502
1784.08172348
663.070499668
1791.95020523
1789.18371731
1789.36498748
663.127409363
661.810683407
1790.66581667
1787.43207822
662.807497901
1786.26252891
1780.27021909
660.491380635
660.647544514
1781.77425575
1784.37831149
661.818777432
1770.99859863
1780.0955113
679.746549235
661.686505235
1777.69579268
668.563364991
1771.43465588
1761.07665572
1759.09996727
724.733407232
627.167496226
680.782876564
1771.35185388
1758.44545267
1771.31591434
1776.00322259
660.430220662
664.272388713
1776.40145542
1772.25373017
667.397766452
1763.34139411
1784.29495773
631.762882363
673.77720074
1765.07248612
679.683349641
1777.5604623
1803.0973513
1806.73926718
656.323253526
659.011011968
1802.45984127
656.684945896
1806.34829154
1799.44332321
1794.62928992
652.329218164
650.258712392
1798.05516021
1796.35309734
653.229937342
1803.4827768
1805.66914174
658.197800328
656.342199999
1803.78270707
656.459361681
1805.97169966
1800.61700374
1799.27058725
651.044573393
654.089615774
1797.94427651
1801.5669344
653.560853625
1792.63598823
1792.51324009
644.694003489
648.108503317
1790.90392089
1794.312491
646.382417931
1791.57775441
1790.03224431
643.651456365
644.803694087
1790.08406187
1791.12185089
645.230364435
1794.35199743
1797.47983802
649.418593918
649.303924242
1796.02004843
1795.79862993
647.944563515
1793.12386317
1793.37773184
646.196770839
648.265409492
1792.3100754
1794.42207815
646.875430572
1791.50757882
1790.4614444
644.85657734
644.73126405
1791.23109877
1791.10012867
645.314444117
1792.19224552
1793.29392367
646.079657397
647.548178183
1792.2030929
1793.07643439
646.321984223
1791.90726787
1792.72703248
645.774896599
646.628964724
1791.89052327
1792.41827743
646.002381069
1792.23421531
1792.60129469
647.537859405
646.945140643
1792.80244351
1792.37532567
646.607272352
1794.29843126
1794.18987084
649.862709009
648.786152244
1794.70706378
1793.8365353
649.730161364
1794.35879565
1794.47968726
650.817206039
651.314998514
1794.78623154
1793.99083622
650.557775558
1793.69911451
1792.887331
648.552006424
648.977794195
1793.32621082
1793.10472033
649.364407811
1793.76989567
1792.85416512
650.642512873
649.552657204
1793.44852202
1793.13549278
650.040466912
1792.19319847
1793.75520711
652.565135189
651.848673476
1792.60864897
1793.25995929
651.883892147
1791.06292264
1789.81101913
652.164891419
650.981343592
1791.33360589
1789.87576413
651.519811727
1791.93849381
1792.32527125
651.058363404
650.583615788
1792.82626579
1791.69772563
651.159067647
1791.1135114
1790.32989544
650.754494373
650.519540018
1790.26022723
1791.03260116
650.964316332
1788.52450636
1788.5389684
651.078954378
650.442485819
1787.69902321
1788.98612152
650.981967793
1788.32619112
1787.15469073
651.926374077
653.166278557
1787.29136808
1788.36354207
651.999618828
1789.16749295
1789.73295557
650.496304651
651.05801509
1789.49140371
1789.45811524
651.056267377
1789.18205756
1789.99140058
653.103466755
651.728795874
1789.43639053
1789.57148599
651.990182374
1788.84433849
1787.21308191
655.450521103
654.424472119
1787.44579777
1788.57296892
655.379445989
1789.1256242
1788.37255839
656.410155597
657.177789748
1787.82879556
1789.48015663
656.214459803
1790.0163837
1790.55100234
654.367747168
655.01215705
1789.72437562
1791.05206753
655.229241803
1790.25458689
1791.30639122
656.836755933
655.751302724
1790.47482419
1791.32298649
655.929882127
1789.90746082
1789.09089063
659.740833384
658.348659035
1789.64263187
1789.826473
659.222447665
1789.63159106
1789.32730952
660.536263349
660.139163205
1789.75836473
1788.82628849
659.796162205
1790.08051419
1790.92350505
657.934192057
658.289312344
1790.43791142
1790.19722146
658.862687838
1789.50012979
1788.12167263
659.234609141
658.553842409
1788.42682506
1789.37874223
659.231142959
1784.79909501
1787.94627224
660.793221814
660.185671203
1785.63100301
1787.20700701
659.794435472
1781.87519197
1779.01364626
659.713606503
657.58169741
1782.47967622
1778.99545516
658.699807656
1784.36162337
1786.31397411
659.042115015
657.529323786
1786.66631453
1784.24446578
658.546929701
1781.89692594
1780.28681723
657.112363359
657.00645046
1779.63755041
1782.24060387
657.655741907
1774.45736656
1776.00782394
664.587407464
657.64126885
1773.40881059
1776.67410918
663.745312548
1768.82560542
1789.98899015
675.011157332
638.376122007
1767.84286947
673.121517865
1792.28139483
1775.6928664
1778.31813997
657.849611234
664.076028786
1777.81510148
1775.73075824
664.205558324
1769.4025125
1791.56867534
638.244920296
672.506548334
1768.59618667
673.308717637
1792.48381074
1804.28354251
1805.53196809
656.068825863
656.338102852
1804.05301609
655.935145001
1805.47065627
1802.80360903
1800.32174752
654.409273911
653.490584997
1802.26791727
1801.09757836
654.708817313
1804.53963773
1805.64267456
655.927327352
655.595090472
1804.81728502
655.747395067
1805.51250683
1803.24992517
1802.7924069
653.918716536
654.867549573
1801.8694272
1803.82043807
654.816951169
1797.93677828
1798.63681898
650.44872813
652.524444267
1796.93130892
1799.56024396
651.332008102
1796.50299691
1794.2554102
649.483138277
649.272858275
1795.44314897
1795.1391317
650.317703962
1799.06315304
1801.48096881
653.080989919
652.454871671
1800.61115953
1799.85049601
651.954287143
1797.38270333
1796.39264344
649.920695504
651.497681472
1795.78770193
1798.08644138
650.952363541
1793.10362239
1793.42654937
647.182821138
648.217213092
1792.77769095
1793.98729638
647.798578458
1792.58921386
1792.46488894
647.368925065
648.011547137
1792.45353888
1792.41821694
647.784257784
1793.51415937
1795.10583077
648.914214459
649.16656987
1794.53502919
1794.06778634
648.425376555
1792.88929907
1792.82039436
648.364749836
648.930076157
1792.54462384
1793.31745037
648.286624198
1792.2043699
1792.58703752
648.702755559
648.290968822
1792.61294924
1792.32470151
648.606476027
1792.04339328
1792.24822082
649.080236878
649.104694993
1792.51314126
1791.79279439
648.894209956
1792.06564277
1792.41069154