/*--------------------------------*- C++ -*----------------------------------*\
| =========                 |                                                 |
| \\      /  F ield         | OpenFOAM: The Open Source CFD Toolbox           |
|  \\    /   O peration     | Version:  v1906                                 |
|   \\  /    A nd           | Web:      www.OpenFOAM.com                      |
|    \\/     M anipulation  |                                                 |
\*---------------------------------------------------------------------------*/
FoamFile
{
    version     2.0;
    format      ascii;
    class       volScalarField;
    location    "11.4";
    object      p_rgh;
}
// * * * * * * * * * * * * * * * * * * * * * * * * * * * * * * * * * * * * * //

dimensions      [1 -1 -2 0 0 0 0];


internalField   nonuniform List<scalar> 
28582
(
19547.5594055
19545.5758821
19547.3075229
19545.1756355
19546.4461668
19543.6904079
19545.7839487
19542.5148509
1248.97113443
1323.27164399
-0.0767138977996
19543.6135077
17061.566545
16891.0705628
19542.2731543
19541.8147147
16890.2351001
19504.8242677
19504.9563532
19549.2744781
19544.4226757
19544.2532628
19549.5233701
19544.2070918
19544.1079733
19550.00684
19543.0049616
19551.8843599
19542.4876315
1333.27302435
-0.103181343635
-0.0321172005863
19548.8371644
19548.9816197
17230.7870791
17155.2563176
19528.7812823
19542.5706294
19542.0159122
19542.5550865
19507.7233353
16864.167327
19507.5682992
19509.9199925
1274.52522603
1334.27276025
7.99789950324
9.90627716495
1303.59478292
10.182094965
19517.4971758
19510.3797996
16988.08328
17050.4018247
19517.7295472
16972.4325622
19510.1124447
19503.5551111
19497.9079965
16929.554133
16875.6382947
19498.509122
16913.4638085
19502.691092
19499.4433432
19498.1227225
16898.7481379
16863.7898568
19498.1472818
16859.8413988
19499.9442505
19505.6675271
16940.4019199
16880.7183218
19501.8347388
16913.5599149
16865.5887965
19502.9510053
19504.6857454
16853.0059008
16831.871396
19502.7399147
16826.1785317
19503.4176858
16840.1077255
1248.1875283
8.44031733974
1244.86058139
1245.60405872
7.8656079031
7.98726321294
1347.63180119
7.53723797636
9.0970954821
1359.57638134
7.58109997167
1347.12728963
8.01055927471
19531.3801766
19532.8401488
17205.0242646
17250.7933206
19529.6546014
19534.8379027
17219.6651886
19526.7828226
19519.6631262
17188.4981977
17154.3258935
19525.381783
19520.4951957
17196.0684611
17192.1302107
17135.2566932
19522.9536423
19528.2584416
17147.460386
19522.5846642
17190.3559549
19507.7553872
16934.0691905
16886.6627255
19510.1930683
16916.2999569
19509.1409985
16884.9487625
19512.0083903
19508.6532055
16893.6148061
16862.8480206
19509.1347528
19512.4787718
16874.8515798
19508.3770793
19506.4754598
16867.1264994
16847.5547083
16868.2899875
19509.8956554
16889.8858794
16879.8760899
16888.5170343
19511.3263457
19511.6253289
16870.1133319
19511.3566025
16887.9605128
19542.658512
19542.4743313
1369.11881031
-0.0634549305471
19545.9735971
17073.6592565
19542.8208852
19542.7709577
16830.6766682
16872.2791001
16750.3511173
19542.600238
19542.6628208
16726.6548611
16690.2758351
1251.6456847
1375.39840364
1403.82094327
7.36251720257
7.452843631
7.45466702382
1428.68602874
1452.7095555
19508.4798727
19516.1316096
17089.899067
17000.5222325
19515.7257055
17023.6833485
19508.2088868
19512.1651051
19508.0877951
16800.9522422
16842.0002882
19508.0521303
19512.3456344
16816.9181524
19509.6482981
19511.2673818
16842.2600051
16836.2567722
19510.6289375
16808.129411
19510.1802236
19508.488855
19506.2626
16746.6115284
16791.026433
19508.0900171
16775.9280955
19508.1469621
19508.8644967
19505.0632459
16720.3643066
16707.3945967
19508.1061125
16699.6679967
19505.162971
19510.299296
19506.7765147
16698.784475
16693.4673698
19512.1251865
16697.3882445
19505.6912502
19547.9804759
19548.3897522
19555.1856483
19555.7949282
985.361511214
1179.56244592
967.17409451
1132.25810238
1140.08823999
-0.0651303692139
0.0343586322751
-0.0602491699826
-0.191362285879
-0.107885583775
-0.131602775739
19547.2482774
19546.1237315
17242.1875868
17205.2478359
19549.3628446
17217.9103603
19545.8351132
19546.4939794
17251.2748314
17422.8239233
19553.8137932
19548.1066639
19552.2310458
17258.9073038
17292.5947473
17421.4512941
17431.274429
19556.217685
19557.1216316
17318.5540609
17395.8666232
17429.3188742
17424.7406527
19551.9624046
19552.5298941
17449.1851614
17446.8723365
17497.1153232
19556.7930648
19555.2783881
19556.9867988
17446.1625998
17431.0064906
17485.851775
17463.2878382
17490.7241188
17458.8412848
911.72854876
919.37042776
972.518835778
9.18463927149
8.02755763761
9.29818283636
7.06595047471
7.05040514541
5.44687133414
5.0290287653
4.25511520135
913.606759181
906.567472112
1081.77566411
969.843201329
1056.29652393
7.96679614572
5.45331074014
7.09935327565
5.34433947553
1251.58076488
1152.94312056
1226.02911954
2.67669378036
2.67462615902
2.80283494935
2.72521584607
1047.19826224
1052.6298948
6.25100115445
4.9342345972
4.87300949749
1201.79678775
1130.26360387
1188.40212571
3.28181074343
2.70331740987
3.68929425333
3.15202436574
19516.5503554
19517.4840939
17305.9444623
17186.3455742
19516.4041471
17253.6190233
19517.6104482
19516.8742304
19517.0457671
17191.4256516
17273.6138445
19515.5481442
19517.3271763
17255.3698672
19522.3821752
19517.6456973
17215.3703438
17236.4314178
19518.6770862
19521.7870395
17230.0549008
19520.9078388
19519.0239333
17312.51607
17307.7048806
19519.4815415
19519.3956459
17369.9822655
19524.9311995
19524.7447055
17370.0909811
17449.0378798
19522.3534915
19526.5173614
17417.5223449
19521.680909
19518.0902821
17270.9734768
17305.1271206
19521.7257389
19519.0805367
17318.5875812
19526.1679691
19531.3435081
17272.3904589
17338.0281632
19526.4161295
19531.5189639
17323.6387752
19524.2365692
19524.8224375
17365.8053173
17425.8542334
19522.1980946
19526.0725882
17372.3507286
19527.3114355
19532.3520836
17380.7756436
17429.8390795
19531.5715616
19529.1714335
17373.6656286
19540.4110292
19536.1765258
17344.606745
17355.542605
19540.3046538
19536.5779907
17384.7428264
19542.1958861
19540.8409461
17358.039704
17408.0542651
19541.9154519
17391.5477646
19541.0112853
19538.7949996
19535.4193699
17388.7827488
17433.6139016
19535.6592029
19538.1406518
17399.4112026
19540.0551456
19537.6844121
17406.6285457
17425.7877315
19539.0926712
17399.6869113
19538.7718408
19531.1957252
19528.0403021
17452.1940635
17476.0262962
19528.9668385
19530.122095
17479.5831418
19532.6264535
19532.5728324
17451.4964538
17475.0397717
19530.5200833
19534.5080077
17479.0902103
19534.6596749
19538.0116469
17484.3799421
17502.0171722
19536.3608903
19536.2605773
17489.8658544
19538.0250048
19535.0059342
17447.0901224
17470.0550134
19537.2129645
19536.3907932
17469.5927928
19538.3741698
19536.9148988
17434.2468581
17447.1111379
19537.9435313
17454.4527947
19537.118442
19539.6129098
19539.5087636
17476.1269198
17484.7279072
19538.0384807
19540.9705549
17472.1335782
19540.109574
19540.0038216
17450.1414995
17473.2483499
19541.4037092
17460.3275886
19539.1058181
19542.668453
19540.9421473
17484.6686737
17496.0481916
19542.1922167
19541.6822215
17491.3340256
19541.2442189
17471.1613093
19542.4788748
19546.8874876
19544.997008
19544.1168171
19544.9105378
19546.0354322
19556.5769499
19546.8039009
19544.908317
19544.1550559
19544.3981985
19545.1107672
19556.1248019
19538.3634457
19542.4358486
19538.9209096
19542.9596628
19546.352272
19549.6255907
19555.5723324
19535.2569607
19540.3856497
19542.858637
19543.793192
19544.3793054
19544.6871275
19544.3964178
19543.7526934
19555.7504834
19545.5275336
19543.9049344
19543.5273041
19543.8379257
19544.3223579
19544.5772043
19544.8857211
19557.7169682
19548.0645593
19545.7573212
19544.4403375
19544.2417124
19544.5178037
19544.6391632
19545.0055984
19558.0758067
19544.123069
19544.5845659
19545.5943486
19557.5034209
19535.9847041
19540.6747287
19542.2063671
19543.3413191
19546.6055712
19553.045166
19602.0617378
19457.8488848
19540.3416581
19542.7982565
19546.5167818
19546.3217401
19544.7816057
19542.945708
19539.2781684
19537.2174799
19545.0561506
19544.5501604
19544.7137796
19544.4540913
19544.0124331
19543.2111912
19542.2273703
19552.8046249
19548.2878989
19545.9709957
19544.8332848
19544.6638607
19544.5838234
19543.7365454
19542.5449429
19555.2589991
19543.9808903
19543.8329182
19544.1017917
19556.4992323
19533.0936022
19540.4948185
19543.8410564
19542.247967
19541.8169764
19542.7435916
19546.7940128
19473.1231066
19537.7234494
19542.8355828
19542.6150403
19542.6135426
19541.4099735
19537.5790411
19525.5022374
19513.4595217
19546.0879209
19544.7864826
19543.9965987
19543.5318631
19542.491352
19539.7704963
19532.4701878
19547.1508835
19552.430606
19548.757655
19545.7624456
19544.0996017
19543.6344767
19542.6962961
19540.5157899
19535.8556359
19550.0412767
19546.3677428
19543.9203877
19543.0227026
19542.2094919
19541.0666233
19539.1617906
19553.2671216
19542.0525682
19541.1460912
19553.93437
19538.3118166
19544.1520643
19547.1935189
19543.3894939
19539.994812
19543.1027743
19545.7246473
19516.872933
19542.8203337
19543.9619039
19546.1464741
19545.9098425
19543.2608728
19542.2907278
19542.2021211
19538.5072122
19524.0366427
19556.0259127
19551.1809087
19547.5373679
19545.9942406
19545.5564543
19544.2312726
19543.9090983
19543.1019566
19539.2672865
19537.6145017
19554.5741939
19550.0645207
19546.139896
19544.8389682
19544.8854524
19544.8358152
19542.7798043
19539.9088923
19541.8539043
19546.1669658
19543.9582184
19543.7917772
19542.906518
19541.7456396
19540.9885179
19543.8060263
19542.0522108
19542.5084265
19545.5525327
1126.09264166
1188.0693642
1263.86626737
1345.84091277
1434.49329195
1489.01064972
1488.65116799
1524.34948475
1251.52481018
1160.56365284
1157.85940948
1210.70721366
1254.84943124
1288.28662832
1363.41887204
1419.94342094
1454.89796644
1497.59334547
1217.21897256
1194.95954104
1195.64172487
1215.94644183
1237.38606947
1281.15250701
1294.76711133
1363.97962669
1414.70604037
1469.87691769
1211.66223782
1229.17204908
1229.01284956
1242.20391245
1258.85201354
1271.70795154
1358.77778266
1418.37859852
1452.13095428
1245.69413234
1258.7705408
1267.06404521
1330.02823109
1396.51994165
1452.65144641
1469.67785403
1427.38628669
1473.76441078
1492.98059527
-0.00217918238824
-0.139780288403
-0.142575145947
-0.165501268072
0.362552365967
0.77706975016
-0.0974856609365
-0.119906120615
-0.231982596672
1.06175017462
0.473403562435
0.255964597384
-0.14234568918
-0.227843021268
-0.110625067252
1.39448760347
-0.0156301768569
-0.162653967257
-0.224478921922
0.636895010873
0.500772648224
-0.093066059651
-0.155938443607
-0.142126800205
-0.1391939704
-0.136624391875
1.02247968456
-0.132673052538
-0.273786671469
0.827569311145
-0.0671457215163
-0.144899837202
-0.0793579070413
-0.0897044483716
-0.0843237511519
0.244276987705
-0.139932108416
-0.272825247068
1.03621565221
-0.0513831007716
0.0205207009033
0.938418732367
-0.107682573399
-0.139387321986
-0.264217614349
1.05411102154
-0.101088921917
-0.252132285302
1.29057269213
19540.7213614
19538.6829379
19540.9702769
19537.267349
19540.1765053
19538.2275647
19540.4062191
19543.2144192
19542.805334
19543.8092711
19542.2313354
19538.9654495
19541.922581
19541.1456907
19541.5655202
19542.717137
19542.6737818
19540.3668127
19541.8289307
19542.5354028
19542.9736788
19543.6723288
19543.2076906
19543.950368
19543.0105377
19543.0883567
19543.9038755
19544.7941103
19538.906274
19536.9617394
19539.4564675
19533.738551
19537.6560456
19535.2692657
19538.8875605
19541.2789028
19541.0224943
19542.2285872
19540.1375251
19540.8939274
19541.0461316
19541.1592162
19541.650117
19542.616335
19543.2281613
19539.2079615
19540.983269
19542.1784689
19541.7637946
19543.12164
19543.9241748
19547.3609583
19542.6692446
19539.7414737
19542.5965458
19546.1416896
19537.3846671
19534.9712173
19538.6515159
19533.349013
19536.5737096
19534.9630919
19537.7979062
19541.5725471
19541.7124294
19542.8346632
19541.2667787
19543.6389297
19541.9235213
19545.3825369
19539.7220023
19542.4753928
19542.793914
19540.8659821
19542.191926
19543.864967
19544.4983181
19540.4565521
19543.0540798
19545.5394009
19543.4928815
19543.9240014
19544.9231949
19546.7014374
19538.7186228
19540.5825022
17247.1312195
17248.2929297
19541.1165564
19541.5955927
19543.3929051
17250.9837156
17300.7795685
17250.5266762
17256.6150704
19546.2774194
19545.1111985
19546.3245133
17296.4062459
17250.5299709
17249.5269785
17211.7152245
19545.9593072
19546.2692609
19544.7767805
17234.8280886
17054.0151241
17185.8979602
16979.8393706
19540.868664
19542.7443906
19541.2759426
16937.5819102
16519.0356628
16901.604075
16740.3263903
19540.8685928
19540.9438357
19541.4258967
16452.1226598
16493.4692702
16712.3315804
16702.8219122
19545.4877439
19542.5979933
19543.9819926
16543.8486692
16699.0425555
16714.8361798
16750.7771242
19536.1643117
19543.9268757
19535.9267328
16741.2662865
16634.6180198
16743.0609639
16480.6832489
19500.2129784
19520.002125
19524.2794772
16686.1271237
15687.665934
16528.7858657
16404.1690105
19554.6170755
19550.8381888
17391.6396947
17320.5195057
17411.7768959
17331.8918669
19542.886466
19547.8146251
19546.1052421
17296.7935258
17247.8978605
17312.7866027
17268.1905341
19545.2454709
19545.5966973
19545.8709407
17245.5966302
17241.0370993
17253.9714533
17197.0792523
19546.3275922
19546.276799
19546.5746033
17236.9192397
17217.9682196
17182.6766926
17158.3296515
19544.6367266
19546.6881989
19545.5615399
17189.9488656
16972.7746524
17136.3672093
17014.9559005
19542.5091749
19544.2342026
19543.5793498
16936.5337545
16856.402306
16985.5239391
16967.9117244
19542.3437005
19543.4647667
19543.4126269
16831.8845299
16765.9179585
16965.5550963
16956.4474155
19541.4647824
19542.7495564
19541.2287323
16762.8151896
16750.5175272
16943.4697733
16821.6141339
19532.6676134
19538.7257867
19535.0471423
16729.0807189
16450.29434
16759.5371058
16517.1078979
19541.5133543
19531.1850603
19551.6645093
16504.0074864
16428.9302523
16569.4621636
16441.4684133
19553.8046321
19556.8750982
19555.5004354
17418.0270077
17348.4992103
17448.9774338
17394.0592454
19549.1699927
19553.180871
19550.9603849
17330.3495247
17254.6219194
17367.1620281
17222.294871
19546.3929597
19548.9444921
19547.0335777
17231.3684851
17182.3766614
17190.1664085
17147.1592324
19545.8832927
19546.0074324
19545.4120026
17175.7339495
17148.6646127
17143.3622465
17119.620938
19544.9589455
19545.1549083
19545.0689412
17133.9175504
17040.8471901
17105.5384623
17069.333439
19543.8724161
19544.9042788
19544.8009084
17012.4494465
16970.0999704
17060.9684004
17062.1011107
19543.9966629
19544.842439
19544.5424371
16980.6572031
17002.7666291
17078.294592
17046.0685746
19541.3111133
19543.3938335
19541.4749724
16965.3739231
16799.8335454
16952.9090144
16747.5332873
19537.4888959
19539.6130979
19538.9320928
16754.6330384
16579.0617832
16718.8265761
16625.5648914
19554.0173931
19540.09518
19555.1208178
16628.7557685
16442.0140284
16686.4093512
16442.7296586
17446.3484517
17387.9134133
19552.3212228
19553.4796658
17357.9367734
17222.934594
17253.5040726
19547.8123376
19551.0778306
19548.4714657
17192.3367448
17154.5239277
17223.0355589
17168.5287898
19545.1700396
19546.305958
19545.0057322
17143.1646958
17101.0920746
17139.4818764
17016.5676102
19544.8787968
19544.504549
19544.5148727
17093.4693375
17077.4905857
17021.1541157
17074.3806988
19544.9065953
19544.5485594
19544.4171131
17070.4632994
17075.7029584
17068.042801
17018.6897697
19544.0697245
19544.0050788
19543.2545374
17089.29777
16984.4746578
16990.2419145
16853.3491228
19541.1627929
19542.312428
19541.1261687
16913.3920543
16754.4954941
16810.528552
16721.8175723
19540.0653774
19540.4185012
19540.8878937
16719.1779026
16620.1748419
16695.1498489
16577.7053687
19555.6637109
19542.8588662
19556.1211661
16687.0427849
16442.855961
16659.0092933
16477.2584964
19544.5492856
19544.0927571
17111.1834814
16996.9881891
16909.2704652
19543.9173777
19543.3424297
19543.2260565
17011.4067019
17073.1674155
16924.3276936
16978.8953208
19543.4473749
19543.1243252
19542.8945308
17068.9904927
16973.0880606
16978.6005647
16872.4193545
19542.3242573
19542.4583255
19542.0983786
16930.1172417
16842.8520757
16832.0583541
16755.7362088
19541.113836
19541.6902458
19541.3978693
16796.9248316
16692.3033918
16721.8566399
16637.2596943
19541.6878436
19541.5327524
19542.3183505
16676.2670775
16584.1763905
16642.7338539
16568.9902836
19556.5601876
19544.4886527
19556.6606063
16671.4335948
16505.9188505
16657.2125122
16542.5810097
19542.2634859
16747.948515
19542.0502698
16715.3795917
16649.0654033
19543.5096081
16652.4363036
16565.1895944
19556.7251951
16655.1638152
16555.0956536
3.32469998379
1.47562436615
3.8049265451
1.69399542994
1099.31291352
1126.95008521
0.48501345907
0.462186709118
0.61497595687
0.621860010387
1155.54275317
1142.4832826
1170.35572077
0.653859570278
0.938501657773
1.09485731892
1.12507224644
1226.05132887
1199.9522961
1230.39984293
1.33290185284
1.37388926252
1.34935841894
1.32974944731
1304.22808542
1261.75305531
1287.87743858
8.20785986303
22.2393540129
8.91286847175
22.476765708
1391.54911157
1320.92953262
1360.44574439
28.0135585388
28.1653621953
26.7125445566
23.7679765976
1470.15813116
1408.31041101
1436.7285508
17.544391748
14.2188217372
12.6049052349
10.2897765351
1495.77058215
1455.64256208
1468.44230844
12.1630512364
10.3800215565
9.01238548754
7.60928945754
1504.7657984
1473.58363709
1502.83691984
9.70916260806
9.60569654993
7.96231295171
8.36962897014
1577.95719798
1501.11178681
1597.63376719
11.9591653605
36.6917172567
12.2803989443
20.5276889613
1189.69330051
1234.24449961
1197.1508021
8.09176388987
6.80278885597
9.33243325634
8.38207335908
1149.28916451
1184.68226441
1174.27390498
5.23187726256
4.5295984146
2.43124852984
2.27533234419
1182.87795654
1172.91596511
1190.5131373
2.04510913088
1.20835475584
1.55904398608
1.23391593984
1229.53541393
1213.45187131
1228.32292606
0.752473735026
0.957861542991
1.16334263173
1.80997523714
1278.85169349
1245.10369053
1266.4839448
4.19508608414
15.6953886412
4.79424213001
10.0597162876
1319.90969312
1280.75893308
1299.59682505
30.8240200144
27.2399263782
20.3473727615
21.0448870491
1391.44333044
1336.46784889
1354.87293198
11.1891142776
8.45076397544
9.81514426437
6.89146705407
1440.3023565
1382.95503708
1410.54620252
6.23111698931
4.67971728077
4.77546752091
4.50395446868
1495.54285543
1435.30376983
1470.20272371
5.07132032943
5.9477885717
4.52026273419
5.31875076469
1604.69179071
1483.33305229
1581.21031976
10.6462015861
17.1302145935
9.94320521675
18.7134109824
1202.61199978
1206.82326658
1200.03990626
7.94100408258
5.92428990743
7.86176418243
7.93854717168
1196.1248472
1202.47152329
1210.8219237
0.650066857507
1.56743781175
1.13798088284
3.47019867495
1205.82644744
1215.36753535
1218.66059096
1.7646884429
1.41496762117
3.81675941491
3.24795134484
1225.64348445
1224.11677634
1231.26014693
1.96779305238
2.69269076929
2.92217254745
3.40130818205
1263.98778059
1238.84984403
1256.37484823
4.43413645048
5.80969870496
4.27130308399
4.83840179656
1288.48999002
1266.92883306
1268.90475363
6.71659046117
10.6126913045
5.90447226704
9.2723875883
1324.13811082
1270.02095608
1304.72707305
19.9217742721
13.4924726367
20.6482469153
18.5375683914
1391.30148795
1354.11539277
1384.95395256
5.66933664254
4.90934164663
6.17452021379
4.98026521204
1453.308144
1410.01744681
1442.64147269
4.7004499613
5.27244395089
4.64902893606
4.98438813288
1544.11498189
1457.24180394
1515.01913192
9.86866036081
21.8469170865
9.09429819956
25.8783072102
1222.85793822
1231.11922781
2.7220707581
5.1877284962
6.43983608923
1226.74647794
1238.5354257
1237.43595085
5.39790394792
4.92316206681
6.84714259553
6.68896858981
1236.28708382
1237.7172994
1246.12527425
5.07173881871
5.20101115845
7.35907104249
8.38294979891
1252.52976384
1249.85306529
1257.32594339
5.89246911198
6.56146258844
9.90875713812
10.9096871087
1262.15553247
1268.59896539
1276.54202918
7.19121720754
9.7296790565
10.6441387906
11.1548768144
1309.98674898
1293.55478867
1332.35487878
15.0473653838
16.3011247716
14.8777326892
12.7252378099
1392.17975129
1374.91321572
1409.67895391
6.50874932484
5.2517884882
6.49131373715
5.60813222868
1444.75470861
1433.57219517
1457.55478897
4.79968955829
4.98481478239
5.05484916617
5.23027905039
1504.99774299
1457.86326372
1513.12996103
8.80034907571
28.6724669222
8.91309788302
30.7511426586
1255.36751264
1268.00570443
9.55481975643
10.9312014618
11.2963142602
13.0522835182
1265.28506255
1279.24377266
1287.13006889
11.3622469514
15.1803033873
12.6479335258
16.5380717314
1294.91385713
1289.61021612
1322.04680503
24.8206911514
13.25483937
24.6426850609
11.5472089884
1362.85318295
1357.85520101
1387.99735709
7.16334528244
7.04352628452
6.9252867836
7.44743512139
1430.2666724
1419.58160338
1450.02801898
7.72477209732
8.21731922614
8.54027259664
9.69409266855
1477.79514853
1469.62881345
1499.55714389
7.50876247299
7.02075216364
8.90559746887
9.14153715339
1528.26391996
1489.16043152
1540.00564632
9.56699221911
30.498291523
11.0359408761
30.037746143
1398.03039664
7.70277237162
1455.22148275
8.35319790654
9.24372683789
7.74197780892
7.67017741726
1507.52165821
9.01347312977
9.63923771169
6.9433561485
7.94237300681
1540.69990842
12.0988057089
32.1307945464
11.5694438853
34.6410492698
19525.3569887
19528.9542333
17260.0238897
17251.5526558
19527.6679154
17254.7421917
19526.9624295
19524.558125
19526.8322017
17239.4710927
17250.5025059
19527.1590207
19524.6533454
17236.8346272
19532.0724739
19530.6125974
17265.4842038
17255.9187478
19530.2182766
17266.9628621
19532.4550253
19533.7098634
19535.7943988
17280.7326377
17288.68209
19534.9529264
17275.066105
19534.3451819
19531.8299708
19529.2230981
17245.2282589
17255.355534
19529.9057779
19531.1630986
17257.2333743
19533.3163576
19533.5031248
17277.1789638
17254.5663902
19534.4970192
19532.4454108
17265.6525625
19533.9380083
19536.2107925
17282.615221
17284.6193609
19535.1733453
17271.4688771
19535.3251254
19532.3963369
19532.7546927
17265.609785
17237.7746605
19531.5039553
17254.9976875
19533.6684833
19533.4984615
19533.8837058
17272.6209177
17238.1978267
19534.6267901
19533.3042443
17260.2106569
19531.7704973
19531.0310435
17220.5292008
17228.2998892
19530.8438573
19532.1557519
17245.1627648
19529.9370424
19532.3758586
17211.5556251
17219.4688667
19530.7303899
17186.1417678
19531.6896011
19527.4209188
19523.345071
17150.0748852
17015.9739663
19522.4101513
17117.3289904
19529.0267656
19528.900083
19529.929795
17194.4833317
17142.5252457
19529.8917067
19528.2705513
17155.7346651
19526.8084617
19521.5312167
17004.43756
17071.9542751
19522.3631082
19525.8333529
17093.4974711
19506.2923449
19514.9464008
16795.9808592
16901.3303282
19515.2567108
16779.0459688
19504.7295113
19497.5079661
19486.1736545
16655.4212388
16569.8279341
19490.1830859
16668.6558009
19494.5829222
19508.7652229
19516.2401606
16913.6442213
16830.3657972
19516.2909311
19510.2755319
16807.4686658
19501.2588381
19498.0901988
16662.1758168
16780.5704957
19494.3066236
19504.3675388
16731.4511519
19486.6766355
19480.7560521
16411.6056259
16519.7439119
19485.5822734
16485.0770106
19482.9621805
19490.0765885
19493.6145348
16438.6516197
16550.7175468
19495.7446408
16502.786133
19486.9721382
19491.682198
19494.0880749
16619.903529
16691.6029104
19490.5558327
19494.6486463
16597.0267001
19494.575383
19500.7808042
16623.3277584
16693.7791607
19499.4310908
19496.7793274
16603.6040778
19508.5113455
19500.611954
16598.7962427
16598.0394677
19502.283749
16640.6537598
19507.3172946
19513.5956335
19516.3883623
16649.9559744
16718.4928304
19516.1547296
16677.2471321
19512.8732829
19510.1035479
19505.876522
16649.6891239
16729.8421391
19504.9523138
19510.7740176
16677.8422247
19513.9431791
19513.8095626
16721.4752441
16740.5045289
19515.0616299
19513.5238887
16699.7531316
19513.6936068
19517.3413343
16753.086927
16740.3843135
19515.9995519
16729.9028093
19516.5161081
19506.982184
19503.0692071
16709.8839011
16553.1909375
19497.762643
16668.23774
19511.5387291
19509.9567338
19512.013204
16720.6383926
16715.2446749
19513.8181379
19508.0505205
16706.4772281
19500.986408
19491.2542136
16501.8315759
16623.5016755
19491.711458
19499.752538
16629.9868943
19459.5396627
19487.3406516
16617.2813258
16588.7926896
19482.7396186
16542.5448184
19459.9409705
19393.8120087
19362.4260027
16367.8359512
16414.9654084
16220.5579809
19404.8941271
19377.6293707
19461.6778626
19481.4714325
16556.3191531
16486.2657318
19480.3789681
19465.380754
16493.4253029
19411.5021578
19456.2020591
16382.7630477
15950.6296609
19423.919396
15898.951137
19439.0908158
19532.6392018
19537.5080042
17372.5711828
17398.9546963
19532.6824775
17382.1196855
19537.2614925
19528.3431658
19524.4096736
17349.330087
17327.3729843
19527.8966695
19525.2883525
17359.3127548
19531.9730969
19534.9226115
17397.2524374
17391.1935624
19532.2108832
17378.1874397
19535.9423561
19528.7578229
19527.430266
17325.1959261
17363.686197
19526.1229666
19529.7091038
17352.5206261
19523.4220145
19522.8040012
17271.5475689
17304.7593858
19522.4051153
19523.8547672
17282.7015893
19523.8456561
19524.5601901
17256.3924169
17255.6940436
19523.033335
19524.5837907
17268.0744637
19523.704802
19526.0448496
17306.6539088
17294.734146
19524.559571
19525.3629035
17289.2692621
19523.5873665
19526.1040961
17260.8377618
17281.7223859
19524.0923572
19525.4681824
17276.3414498
19526.708938
19526.4239694
17245.3641931
17242.7896541
19528.0079794
19525.8053412
17231.1449747
19527.5299013
19529.9905697
17241.7163063
17217.145025
19529.0304615
19528.4311403
17223.5123044
19525.7170113
19526.7182249
17246.0548344
17235.2139998
19525.0519931
19526.830966
17229.6643374
19526.2510438
19526.9162748
17211.1603125
17215.3637865
19526.7878774
19526.8263734
17219.4168297
19528.7106404
19530.3799158
17229.8095032
17205.9891302
19529.7924983
19528.9260024
17198.5348527
19527.7555697
19527.1823762
17225.2054306
17191.4086079
19528.608324
19526.2266723
17195.1715858
19526.5821287
19526.7366669
17198.9925166
17175.071473
19527.0276742
19525.9750089
17190.2136348
19525.3269836
19522.5399866
17179.6686807
17166.5460073
19523.3495025
19524.6028327
17184.2285395
19521.2660537
19525.3692688
17138.0781703
17170.0784831
19522.8206526
19524.1011465
17131.9746817
19517.4131687
19514.27347
17063.7052249
16974.6849811
19519.2120488
19512.772864
17063.6488593
19517.6051611
19520.0373865
17160.2409987
17097.7486738
19520.7452816
19517.218763
17126.3356772
19514.0427229
19510.9574431
17015.4065866
17058.4824285
19510.6990435
19514.11498
17077.2991966
19503.2013327
19509.0534654
16900.6817974
16945.3587626
19504.3565102
19507.8783007
16925.9915895
19498.1135359
19494.3995155
16876.9088697
16893.6136193
19499.6883865
19493.4798515
16909.3928853
19504.6649616
19507.9890026
16982.5821065
16968.9826657
19507.527742
19505.0912775
16965.2911754
19501.7256844
19502.8868463
16944.9287174
16965.6187706
19500.4182382
19502.9037976
16956.9985443
19492.6076521
19491.6748934
16801.8973758
16874.1316181
19492.0362345
19492.20655
16860.1146546
19493.9293208
19497.0994991
16774.4384896
16841.9487837
19493.6504417
19496.7775139
16850.7088571
19501.1618407
19503.555373
16925.6345093
16962.4274831
19500.5595182
19504.7032372
16911.8773021
19502.5569758
19509.1103556
16890.5385392
16959.7030639
19505.1647381
19506.5747212
16902.3133812
19503.7942854
19502.0606645
16759.9428177
16831.0190306
19505.5999699
19500.7908158
16820.207911
19503.7742321
19504.3457111
16755.1251202
16797.4642008
19505.7309839
19502.3486763
16809.5308684
19509.3216822
19511.0480627
16873.5207676
16918.9921753
19508.2516397
19510.8388348
16857.6004147
19508.7355517
19507.6728284
16799.5667466
16877.9195655
19507.1197799
19509.8526966
16832.406887
19493.3262805
19500.5847818
16700.1255754
16764.6168195
19495.1757769
19498.7822876
16714.8480069
19484.4767364
19479.2079865
16599.9797023
16460.093162
19486.6206928
19476.3929412
16607.6246051
19499.1839325
19504.0376487
16749.6853134
16694.4985375
19503.8779686
19499.3968627
16700.2992801
19491.8328731
19488.0466617
16504.6604513
16622.7835784
19485.3783409
19493.3127887
16620.5724919
19456.1842148
19471.1862758
16470.9380734
16511.9492732
19457.2264984
19468.7568609
16487.665526
19426.3344875
19460.2671458
15934.8363318
16424.4342201
19422.773997
15978.1581367
19465.0337416
19467.2856851
19482.3296392
16553.8833879
16544.7263742
19479.0650709
19470.7006736
16528.4559676
19439.2766281
19477.9145944
16436.4838184
16033.8843183
19442.6712947
16017.8183581
19475.1407071
19532.3139516
19534.5804727
17396.7285624
17432.5952249
19532.2329652
17413.5627968
19534.2952584
19530.8175091
19528.5605875
17371.1756327
17364.952863
19530.4101368
19529.3754305
17391.2701396
19533.8479106
19537.2697188
17435.6958529
17433.1589851
19535.3593207
17415.8418769
19536.3627868
19532.3669126
19533.2034543
17377.6701847
17415.1276209
19531.106309
19534.2689766
17395.4405276
19528.4572517
19527.4527353
17313.5845353
17343.2786028
19526.9421883
19528.700111
17326.0314276
19529.3507955
19527.8128332
17285.5388803
17246.9273121
19527.1982791
19528.8047185
17291.9821922
19530.4938118
19532.5536347
17356.8931025
17331.1944918
19530.6082126
19532.3352194
17334.2915065
19531.0953334
19530.0597823
17234.5607595
17279.0644535
19529.7461231
19531.795577
17288.0142008
19527.0522297
19527.7918197
17206.6290936
17213.5376128
19527.1881968
19527.7438656
17180.2993644
19526.564276
19526.3400085
17194.0660586
17162.3925983
19526.7593163
19526.2208214
17170.4472339
19526.6157179
19528.2886209
17199.4966769
17160.8427493
19528.213211
19526.786906
17169.9280061
19525.2200324
19523.3489202
17152.6288751
17152.7670884
19523.9482407
19525.1668147
17163.1221668
19524.1519598
19525.6860839
17169.6741312
17151.1788075
19524.562749
19525.434918
17143.4930537
19522.737432
19521.176709
17159.564992
17125.7237861
19522.9729674
19521.1998188
17135.3193566
19521.3850109
19521.7511295
17141.1135037
17137.7830097
19522.6857532
19520.7066122
17135.3016485
19520.7170392
19519.1505481
17123.9896879
17127.2053505
19520.1469
19519.9463569
17129.4884475