/*--------------------------------*- C++ -*----------------------------------*\
| =========                 |                                                 |
| \\      /  F ield         | OpenFOAM: The Open Source CFD Toolbox           |
|  \\    /   O peration     | Version:  v1906                                 |
|   \\  /    A nd           | Web:      www.OpenFOAM.com                      |
|    \\/     M anipulation  |                                                 |
\*---------------------------------------------------------------------------*/
FoamFile
{
    version     2.0;
    format      ascii;
    class       surfaceScalarField;
    location    "1.3";
    object      phi;
}
// * * * * * * * * * * * * * * * * * * * * * * * * * * * * * * * * * * * * * //

dimensions      [0 3 -1 0 0 0 0];
oriented        oriented;


internalField   nonuniform List<scalar> 
92311
(
0.200951207572
-0.000112783984168
0.000580302281276
-0.201036149986
-0.000382575877659
-9.30419373083e-05
0.200886296866
0.000561602286136
-0.000403764770746
0.200958852989
-0.00026783448494
0.000622814149539
-0.201038378225
-0.000388356253049
-0.000194160026235
0.200892611603
0.000587219740731
-0.000420047388562
0.201020929797
-0.000159551130085
-0.000148739665415
0.000669083908151
-0.201060591611
-0.000432822979255
-8.07770706057e-05
-7.5467165469e-05
-0.000108973809592
-8.73330104434e-05
-3.12002254332e-05
0.200928399494
0.000644166525044
-0.000477592316828
-4.08406468351e-05
0.0502936364683
-5.74287955842e-05
-3.10514056571e-05
-4.38851547037e-05
-7.37568346665e-05
0.00014341444965
-0.0502766166171
-0.000113888130575
-0.0502865368203
0.0502696734921
-6.23771723809e-06
-3.73648170891e-05
-1.57252422157e-05
-4.97864621402e-05
0.000164408511657
-0.00014742819035
6.38567634279e-05
0.0383429068245
0.000122362570508
-1.65441679087e-05
-5.87261944907e-06
-0.0043003514828
-0.0400048370305
0.00193456112566
0.00386389068686
0.0447964664886
0.00396407857043
-0.00481334363144
-0.0411812226397
-6.53108539013e-05
0.00010877847935
-3.20730751983e-05
-8.28363150052e-06
-0.00276908221484
-0.0069430251468
0.00713961633767
0.00618752667274
0.0052166318287
-0.00074070322536
-0.00616057722023
-0.00787366945123
0.00632291805639
-4.70296993067e-05
-2.24508600334e-05
-5.95184422992e-05
-3.32335464894e-05
0.000154548986078
-0.000133924983583
4.30064591093e-05
0.0125446206208
2.51052920145e-06
-4.84806618108e-06
-0.0125214113875
0.0125130875186
2.97761334932e-05
-5.24625998654e-06
-0.0124969391312
-4.44133663324e-05
3.64295356241e-06
-0.000155318514707
-3.34891640597e-05
0.0502404825554
2.36134484134e-06
-2.37182512463e-05
-1.09872424317e-05
0.000163038285152
-2.3029768329e-05
0.0502362495115
1.40383232168e-05
-1.36934828539e-05
8.32470022569e-06
-0.0502646853718
-0.000143705635111
-1.04134865063e-05
1.10451533085e-05
0.0125213072249
-1.02893867869e-05
1.34812565213e-06
-4.57926941345e-05
0.0125667997127
6.0587497513e-05
-6.00599322562e-05
-0.0125550107902
0.0125637161296
-2.61146564654e-05
-5.35633371648e-05
-0.0125528069259
-0.000157434904566
0.201174030891
0.00084821669794
-0.000466422698632
-0.201398389983
0.200849574787
-8.10657026146e-05
0.000502458066071
-0.000384902523346
-8.67865134593e-05
0.200846359256
0.0004391805593
-0.000349362850615
-0.000203326494606
0.201234712818
0.000727481406513
-0.000500497658335
-0.201415875277
0.20085452343
-0.000165825963186
0.000524803939114
-0.000402218106386
-0.000173300768476
0.200840328718
0.000460364916571
-0.000359870360485
-0.0001628559615
-0.000183351607777
-3.1388369637e-05
0.000924551086723
0.201226393987
-0.000548914947813
-0.201418645408
-9.1728172993e-06
-8.00161841948e-05
-8.31647908787e-05
-3.11127920644e-05
-5.717426083e-05
0.200876330165
0.000590414019714
-0.000452824679874
0.0503459477315
-3.18072171617e-05
-4.36011508272e-05
-6.15210232238e-05
-3.382841977e-05
0.000198587942707
-0.0503849193921
-0.000151725140451
0.0502208946043
-0.000159565630058
-6.78930624064e-06
-1.96428628668e-05
2.18241002366e-06
-3.2425403573e-05
0.000155833722033
0.00478927292058
-0.00351436190478
0.0469433790273
-3.15099208771e-05
-1.66484724783e-05
0.000103578324721
-4.98186340148e-05
-0.00342729456896
-0.00731871810069
-0.00112671668101
-0.0039792363887
0.00633677324592
0.000906799607293
-0.00227733243395
0.00724028944485
-0.00681693260301
0.00420031765691
0.0047855096315
-0.00466194486973
-2.53451998088e-05
-0.0109169206616
0.00753588637299
-0.00685218043929
-0.000195341925063
-5.47822173144e-05
-4.18541343307e-05
-4.79772281421e-05
-7.03944627686e-05
0.0503185688883
0.000254474260631
-1.64700924282e-05
-1.22091118625e-05
-3.05298311553e-05
-4.55991382977e-05
0.0503068569332
-0.000123263468465
-0.0503055057209
-1.47059199654e-05
1.05189776678e-05
0.0125423318218
-5.37066534337e-06
-1.94879053762e-06
-0.0125309063249
-1.96919845009e-05
2.36296376556e-05
-0.0125168133362
-3.14863966041e-05
1.01690565937e-05
0.0125341147486
-4.58739551281e-05
0.0125789124313
4.49323241137e-05
-1.89190187322e-05
-0.0125755319991
-0.000160704439948
-1.96297080353e-05
-2.22317634641e-07
-8.50492475284e-06
-3.81044288263e-05
0.050206551801
0.000158354831949
0.0502210518584
1.39525277833e-06
-2.54035550173e-05
-1.21215790024e-05
6.30771643632e-06
-0.000145555075802
-1.01401980383e-05
-9.28101458894e-06
-1.8512396678e-05
-3.44570423728e-05
0.0502161361402
-0.000140371801185
-4.8616656948e-05
5.79284525129e-05
-1.21442086704e-05
0.012562901674
4.23369171627e-05
-2.84547620591e-05
-0.0125049459902
-4.06603673279e-05
0.0125219520762
9.65264280864e-06
-3.45654112529e-05
-1.04367255279e-05
0.0125616132541
-0.0125598305997
-2.36190505906e-05
0.0125582177559
5.49795760001e-05
-3.99865287245e-05
0.0389325110344
-3.24851216432e-05
0.000121352568983
5.01480626361e-05
-0.00384815967702
0.00438892436853
-0.00123950676968
-0.00474009541594
0.000106881473579
-5.06634151467e-05
-5.46345816984e-05
4.21775236903e-06
0.0456596562413
0.00515869420773
-0.0421198613651
-0.00255806897717
0.00640345517194
-0.00335754232236
0.00191613270639
-0.00261388724307
0.00285774884046
-0.00142060614892
-0.00323432428949
0.000117618604036
-3.87528158808e-05
-5.36133790128e-05
-0.00349917489124
0.00444991043348
-0.000176640267109
-0.00074168050855
0.000291887524316
-4.31795732149e-05
0.0125710339971
2.8023520595e-05
-0.0125702929765
-0.0125775143604
-1.08693019349e-05
2.06593656369e-05
0.0125747341506
-3.80617448071e-05
2.36926667262e-05
9.32569995748e-05
0.0125523597979
-2.2880179543e-06
5.27573331566e-05
0.0124968409958
-0.0125531283541
-1.04632769716e-05
-0.0125747113083
-3.71376070068e-05
0.0125169864901
-1.304467653e-05
0.0125818394907
2.93287226107e-05
0.012570201037
-3.08768545654e-05
2.85442524067e-05
-4.01426199619e-05
-5.3263195685e-05
-0.0125816188337
0.0125743776149
3.28092867816e-05
-1.55528412751e-05
3.59857653962e-05
2.52881901469e-06
8.16153206768e-05
-0.0125367990795
0.0125479128246
-1.57763576213e-05
0.0125806340741
-4.15950192458e-05
-1.59431455632e-05
3.15452218469e-05
-0.0125776652453
2.128250523e-05
2.39273235026e-05
0.0125688626084
-4.26292864238e-05
-5.08635605605e-05
0.0125635786783
3.54192337953e-05
2.88357736719e-05
7.34936346842e-05
0.0125360006372
6.42010773615e-07
2.08086978518e-05
0.0124948493218
-1.67251198689e-05
-4.27633179609e-05
0.0125082043401
-1.66376030169e-05
0.0125746139617
3.66116061919e-05
3.19690248021e-05
-0.0125724898287
0.012563543505
4.00111992861e-05
-4.65503705614e-05
-0.0124916518365
0.0125051978569
-2.53205599789e-07
-0.0125138990069
-1.30080492411e-05
0.0125290095107
2.20255562616e-06
3.24369264754e-05
-4.44044790131e-05
-3.4103368052e-06
1.52685881628e-05
4.50074922647e-07
-1.5034373404e-05
3.87082069807e-05
3.37189242082e-05
-0.0125645042719
0.012557572451
-3.87768522078e-05
2.68182073102e-05
-0.0125158819602
0.0125293967783
-0.0124883464358
0.0125021614566
-3.82942690221e-06
-5.11866231009e-05
7.40859348556e-06
-0.0125670825931
-4.03616069058e-06
8.13608739165e-06
-0.0125430608549
-3.97555623801e-06
-0.0125730225813
-3.84977464289e-05
-0.01251094391
0.00396053328645
-0.00588459736099
9.31638953872e-07
1.04464268372e-05
0.000122464277024
5.81048124708e-05
0.0403176045199
-0.0426601446983
0.00407467538775
-0.000910341072381
0.00588910166997
0.00159776714869
-0.00993378605661
0.0440544210394
0.00110681604524
0.000109143732303
3.82692486922e-07
1.71755190138e-05
-0.00679021424741
0.00572206094541
-0.0442346142635
0.0033162024547
1.94889263191e-05
0.000128728105849
6.03981057884e-05
0.0417362959198
-0.00711058900529
0.00131599957507
-0.00276948707333
-0.00269020690241
0.00412749244118
-0.000396735414186
0.000146814921623
-0.00207370635666
0.0471046383838
-1.90628030797e-05
4.77849049485e-06
0.000108312449701
-3.04224377775e-05
0.00535530267788
-0.00463792092061
0.0100808927137
0.00309450077386
0.00280816459188
-0.0033126224646
0.00321389575317
-0.00666438376514
3.62152359312e-06
4.48888242843e-06
0.000111886453681
1.89715459877e-05
0.0449397065652
0.00547697149442
-0.00301026776155
0.0106722691343
0.000977831625887
-0.000399921623111
-8.49330506225e-06
0.000111302102827
1.03963897413e-06
0.0459412960116
-0.00532296470088
0.00176115075559
-0.00237975426662
3.49877834784e-05
-0.012587120851
-1.89780183215e-05
0.0125843499849
-4.50167871277e-05
0.0125851284446
-4.64457175196e-05
2.93674954166e-05
-0.0126011086343
7.40908900903e-05
2.16668094208e-05
0.0125536340455
2.08984338963e-06
3.57262539348e-05
0.0125113147798
-0.0125511154024
-9.04098285812e-07
0.0125923853886
4.0343401143e-05
-0.0125931900799
-3.84409820612e-05
0.0125322798891
-9.30989388363e-07
4.51838788349e-05
0.0125754275047
-3.95488860081e-05
-5.14762250121e-05
-0.0125898663671
-6.86787162311e-05
5.60657449347e-05
0.0125842527952
5.0196303139e-05
-2.57470946709e-06
8.75001111668e-06
9.41391002608e-05
-0.0125521401484
-4.46730035883e-06
0.0125597585774
4.99021149347e-05
-5.4654109779e-05
0.0125851018721
-1.46335553524e-06
0.0125061207165
-6.70947045522e-06
1.1098441205e-05
-0.0125554708557
1.20213964174e-05
-2.78321834169e-05
0.0125246915835
7.72511212327e-06
2.5630420747e-05
0.0125767155556
-2.36204229163e-05
0.0125718828322
-3.17810215813e-05
-0.0125771904395
8.45571532867e-05
-0.0125488867899
0.0125545160187
0.0125817139631
-0.0125306525075
1.37501908274e-05
0.0125491081816
3.90245884103e-05
-2.16295786155e-05
0.012506465865
2.77259033083e-06
0.0124909714824
-1.23653097094e-05
3.15774279515e-05
2.62557965675e-05
0.0125562497064
-4.89097716767e-05
5.19211403565e-05
2.38470812021e-05
0.0125296355985
4.72068673309e-06
0.0125605905386
3.93924648745e-05
0.012505322287
-1.38357181982e-05
3.71013217276e-05
0.0125447868553
3.7917746644e-06
-4.90566180959e-05
-0.0125588405125
-6.03647188208e-05
0.0125502776224
4.03009188236e-05
9.82225592782e-06
-1.88443129843e-06
8.34522383656e-06
6.03898848041e-05
-0.0125233268224
-1.34901518289e-05
0.0125471285958
4.03337931226e-05
-4.88338667123e-05
0.0125556424479
-1.47774402241e-05
-0.0125451709089
-5.9590272803e-05
5.90349077907e-05
-3.94660196791e-05
5.39138395483e-06
-3.9563846561e-05
-3.00377720735e-06
0.0124905130199
0.0125132758415
-3.88534552455e-06
3.76222671971e-05
0.0125279934719
-3.61078028084e-06
2.20436719361e-05
0.01255611066
0.0125059817867
0.0124970478765
1.53261103149e-05
-4.1293448889e-06
2.29299112363e-06
-1.61113504788e-05
0.012519996217
-4.69091692066e-06
3.37789391348e-05
0.0125569555216
-3.94597212674e-05
0.0125449025365
-1.39462914822e-06
6.16787623057e-05
-0.0125242260088
0.0125449081556
0.0125570306257
-7.98955241852e-05
-5.99707373023e-05
-6.0527251182e-05
0.000522879716366
0.200841910544
-7.05206630715e-05
-0.00039099504177
-0.000153464628465
-1.56922411267e-05
-2.18417942475e-05
-3.73012992828e-05
-1.63909756258e-05
0.000160831634686
0.0502106440313
-1.06577834524e-06
0.00627503179295
0.00247523921914
9.43603376151e-05
-1.20210724417e-05
-7.56486602893e-06
-0.00635128757171
0.0434690658968
-0.00230042314069
-0.00717004573849
-0.00401906142204
0.00795372648718
-0.00790122622164
-0.00336798626566
-0.00523946821646
-1.12897040393e-05
-3.25730589947e-05
-1.66244244626e-05
-4.69499236554e-05
2.89727709159e-05
0.000214555568057
0.0503141716012
-6.71070700087e-05
3.30978573755e-05
3.43854681271e-06
0.012550363831
0.0502406399546
-1.23904212926e-05
-3.28679146455e-05
-1.36574932192e-05
-4.84399292643e-05
-0.000130537919258
0.0502456234817
-3.22046991632e-05
-1.13159562621e-05
-3.818496418e-05
-1.47414001619e-05
0.000137772773539
-0.000106851323145
-2.05343192583e-06
0.0125321160945
-1.70778859502e-05
7.91533600268e-06
-7.83649888583e-05
3.43307008736e-05
1.18252515887e-05
0.0125564218201
-4.21725768687e-06
0.012506343272
1.43297162742e-05
5.86249494259e-07
-1.76346848078e-05
-0.012494742427
-8.68616209674e-06
0.0502175886542
9.99777013874e-06
-2.91405169315e-05
3.83963937848e-06
-2.94627592624e-05
4.17982316108e-05
0.000109964702359
-7.89702282843e-05
-1.16214736621e-05
1.95770926839e-05
-1.39725889896e-05
1.52308741564e-05
2.48538130966e-05
8.36216935845e-05
0.050159542171
-5.96152414735e-05
-7.91218019599e-05
3.30203574401e-05
2.8990038971e-05
0.0125312333087
-7.68493914851e-06
7.62039685615e-05
-4.91166054351e-05
-2.26438184491e-05
-0.0124591918335
0.0124608645118
-6.04527608699e-06
-1.7258253322e-06
0.000129573109222
7.70511720571e-06
-0.0047733392436
0.0383172243497
0.00227184239758
0.0410027925082
0.005177869233
-1.11858556627e-05
0.000104991313792
7.39783878334e-06
0.00485563400925
0.00417497427237
0.0390862260309
8.85670056348e-05
-6.93694742536e-05
7.67700663472e-05
-0.00414155457517
0.00180245381128
-0.000824258379787
-1.0451568074e-05
0.00276779440877
0.00830017263437
-0.000437854535798
0.00163538245673
0.00856786932937
-0.00174171672961
0.0390600938756
-9.45394925123e-05
7.45842518763e-05
-4.80369620787e-05
-0.00152201208741
0.00135368639572
0.000183897592665
5.61046279247e-05
-0.000129671216601
3.99278125184e-05
-0.000103342570724
0.00333441099089
0.037618517184
-0.0016791066158
-0.0125849893036
-7.83624533481e-06
-5.62774495683e-05
5.83899231877e-05
0.0125794121947
3.21885371468e-05
0.0125730906849
4.51145073397e-05
0.0125022714357
8.87996482926e-06
3.16813752788e-05
8.54536546921e-05
0.0125605711385
5.73877508579e-05
9.48924829747e-06
0.0125244329725
0.0125846462223
3.4252853332e-05
-0.0125548350996
-5.37901022376e-06
-4.30227377561e-05
0.0125532994688
0.0125415995031
-5.61039078615e-05
4.104073894e-05
5.71710034342e-05
1.54229756934e-05
5.0376108426e-06
0.0125488627418
2.55422968959e-05
0.0125068497016
-1.43340666957e-05
4.10350666541e-05
0.0125547157703
-4.60963708476e-05
-1.38630783602e-05
0.0125233324453
-0.0125588085908
-4.04710818882e-06
-4.79100930283e-05
0.0125553754991
3.58841535029e-05
0.0125590366112
-3.64022111425e-05
2.56432526305e-05
0.0125056511413
2.80048626626e-05
7.23491765591e-05
0.0125661138607
-4.97522721788e-06
0.0125232703398
0.0125683930709
-3.33401716741e-05
0.0125576927618
-3.52663826871e-05
-3.71213769759e-05
3.78898025467e-05
1.81446950986e-05
-0.0125670856733
0.0125639153356
-2.57568907487e-05
6.54165240968e-05
-0.0125453966486
0.0125455236292
5.42612381861e-06
-1.15769437214e-05
2.12020701727e-05
-7.67570039529e-06
0.0125682435983
3.48320629349e-05
7.85181375063e-06
-2.94226552276e-05
-0.0125615790832
2.83428347408e-05
-3.42857836273e-05
0.0125500532728
2.7464713465e-05
2.40109216296e-05
0.0125632919321
-1.95420187465e-05
-4.18954223332e-06
0.0124786640193
5.54119347669e-06
3.12410363628e-05
5.2654126819e-05
0.0125278103031
-5.99259425234e-06
3.03407985932e-05
0.0124851594525
5.10064428467e-06
0.0125681736167
-1.59474125941e-05
0.0125381349694
-8.68892114319e-06
-1.32625730106e-05
2.22584862063e-05
-7.56472269686e-07
-0.0125468036135
0.0125283186327
-1.03116085418e-05
3.39338051686e-05
-0.0124935000624
3.20996088433e-06
0.0124898202239
-2.09621876265e-05
-3.50162774732e-05
-5.18653922721e-06
2.00229914137e-05
0.0125373273208
1.94608432353e-06
-1.16405410119e-05
-0.000372341809019
-0.0495670485642
0.0495066269065
0.000408173629072
-7.14943284004e-06
1.47171277094e-05
2.29227298447e-05
-4.12752738089e-06
-1.67836014418e-06
-0.000415045124134
0.0498637375268
-3.87629387442e-05
-3.26616496836e-05
-3.58997911491e-05
-3.43850062331e-05
0.000118516496553
-0.0497997978079
0.000374327101557
-0.000620370857632
-0.0500053809165
0.0502315465956
0.000482182403473
-7.76320729987e-05
-6.18675705164e-05
-8.13027002933e-05
-7.18459404357e-05
0.000204672010953
-0.000398467675362
-7.8860440702e-05
-7.70285025707e-05
-9.69334499678e-05
-7.90281640417e-05
0.000238824956499
0.0502191206722
0.000342473254238
-0.0500701007601
1.70859731912e-05
-0.00709753796078
-0.0385840391879
0.0429760546887
0.0149409599098
-0.0122635684792
-2.74454192883e-06
4.37660687602e-06
1.75954678598e-05
6.80924465619e-05
-0.0470982641303
0.0491281427841
0.0216894667094
-0.00949706439373
2.03442995261e-05
-4.80021736846e-05
7.73353164381e-05
-0.0143407107714
5.86540991228e-05
-0.0167586052862
0.0482725205273
-0.000611088921842
3.25372621561e-05
-1.23841176416e-05
4.45926128756e-05
-0.0451489065196
0.0141212326827
0.000176266871145
-0.0252694732227
-0.0490052822396
0.0457405413988
0.0229051836246
0.0053269009496
3.31602081531e-05
-5.92431117441e-05
0.000151997444813
0.000184444416182
-0.0171151765835
5.93569521568e-05
-2.55915107104e-05
0.000151141048108
0.0381724097647
0.010164297318
0.0155837148702
-0.0471746223362
0.00296387892917
-0.0117482804053
0.00948153444492
0.0125773110765
0.00860457623773
0.0104965730607
-0.000595380815149
-0.0125540051496
-0.0223558523717
0.0153493836858
0.0136761119512
0.0135692710181
0.0106097936656
-0.0157114521312
-0.000109623096383
-0.00444492607793
-0.0193192789909
0.012108533583
0.0134937239435
0.00515354241849
0.00569638628888
-0.00374221853597
-0.0285259467095
0.0117069076898
0.00794252698974
0.0028290671906
-0.000308791810731
-0.00752368431653
0.000677250190807
0.00182461514694
-0.00136324220573
-0.00959546321774
-0.000478705063146
-0.00636938077746
-0.00631519475489
-0.0052520905966
-0.00901214979025
-0.0149338883258
-0.0145973591042
0.00655280072513
-0.0086743817807
0.000159726207741
8.24731916354e-06
6.01567819704e-06
-1.39296899687e-06
6.04333739607e-06
0.0493768474254
-6.18597091995e-06
-4.03370655968e-05
-0.0495089566176
0.049459711463
0.000247488388558
1.43500620993e-05
1.37973398264e-06
1.11689047973e-05
2.66155000173e-06
-3.84428750687e-05
-0.0495385828193
-2.28973731333e-05
-2.42787708104e-06
-0.012394314967
4.97790288828e-06
0.0123920767745
2.26124210709e-05
0.0124067280748
4.52221640916e-05
-1.41089892958e-05
6.08260630197e-06
-3.27490991676e-05
-0.0124111145686
2.6820579867e-05
1.83189383096e-05
2.39121520348e-05
2.53645044131e-05
-0.000229304915462
0.0123489940934
0.0123184114213
0.0123027840098
0.0123459819876
-9.38836481456e-05
5.37760727644e-05
-1.77196704412e-05
-4.05461137422e-06
-4.04017296319e-05
0.0124151317861
0.000287067732342
-6.30286754525e-07
5.25761599696e-06
1.95905005206e-06
-5.99938422275e-06
1.39408960067e-05
-0.0496211387603
0.0496711514514
7.42928489352e-06
-1.11018387481e-05
-2.08377076049e-06
-8.18550118842e-06
-1.62472580459e-05
-0.0496755440498
0.000321646179211
0.0124174775989
-7.25695475468e-06
-8.4675077338e-06
-0.0124207291828
6.419932516e-05
0.0124434038171
-3.74117817539e-05
2.73018464127e-05
-7.52318135435e-05
-0.0124395747292
8.16813669931e-05
0.000579993355489
-2.9365797363e-06
2.39422313931e-05
3.09132775101e-05
-1.6666129625e-06
0.0495749207359
-0.000160410234056
-0.000138955628363
-0.000160921371368
-0.000133031345529
-3.80289078949e-05
-2.28916960223e-05
-2.59626313748e-05
-1.82297092619e-05
0.0497076852426
-6.00359735937e-06
-1.55592524992e-05
-3.15790721063e-06
-1.49977993121e-05
-3.60304141642e-06
0.049844699125
0.000520728666505
-1.05082784461e-05
-2.66586887052e-05
-2.08327675333e-05
-1.65401839729e-05
-3.0451179745e-06
-1.75931101014e-05
0.0124267138667
7.91983372113e-05
0.012448701358
-1.98224201948e-05
-2.06522494856e-05
-0.0124365561288
0.000119892851236
-9.15243376038e-05
9.3317762251e-05
-6.21109316692e-05
3.27263689888e-05
-8.34617494426e-05
0.0124630760161
0.0124935096074
0.000105554677927
-6.21083633936e-05
4.78253109403e-05
-0.000109794185573
-0.0124748703088
0.0501527509532
-2.8336935427e-05
-2.69920037237e-05
-1.61019058421e-05
-3.54712390194e-05
-0.000784556972909
-3.66210685717e-05
0.000694677855761
-3.77858054861e-05
-3.83798090497e-05
-2.74740549396e-05
-4.86653211148e-05
0.0507347674586
-0.000109197759974
-0.00101472222943
-1.29675310122e-05
0.012484946946
0.000159638532843
-0.000114712872943
-0.000220461353014
6.79078485892e-05
-0.0124519735386
0.000244277614909
0.0125332349232
-0.000172406000854
0.000111748697962
-0.000149082911338
7.64964586608e-05
-9.14432386721e-05
0.0125459667316
0.000128005138171
-0.000214611351208
0.000113525076906
-8.94246704602e-05
-0.0124603925951
0.0125234748015
0.000431813934413
-5.36433509845e-05
-4.43749580042e-05
-3.8763498513e-05
-5.99749599591e-05
0.000143991898062
0.0500336194405
-3.60312336031e-05
-4.18832825066e-05
-4.84194485195e-05
-4.11019145132e-05
8.79331981087e-05
-0.0499062466577
0.000383927907707
3.73440536076e-05
0.0124727738497
9.96274215413e-05
-0.0124576944674
0.0124977437243
-7.62387884476e-05
5.06211166653e-05
-0.0124803623721
0.000113934608102
0.0124979061445
-9.09881100417e-05
6.50921505908e-05
-6.29432578166e-05
-0.0124797340924
7.07967497412e-05
0.000488995874219
-0.000101503933036
-9.38469618476e-05
-8.72999571132e-05
-0.000110595509883
0.0505685830456
0.000261868874423
0.0502127723589
-5.59685881118e-05
-5.87031663381e-05
-5.24099758699e-05
-7.196387943e-05
0.000143550122834
-7.74395596195e-05
-6.18172025946e-05
-6.55705803955e-05
-8.61909747316e-05
0.050461589268
0.000396320292064
0.000134580134489
8.52222847462e-05
0.0125548765464
0.000146029556773
-0.000222742763634
0.000131450037714
-0.0124676006161
0.000159521984749
0.0125279292451
7.79330930664e-05
-0.000205554584699
0.000107793129171
-4.66784117097e-05
0.0125646033031
8.28417885198e-05
-0.000202594812219
0.000120291505054
-4.79522099437e-05
-0.0124573340109
0.0125051730455
0.000101803336534
0.0125658455033
0.000101103824404
-0.0125064285051
0.000123315855958
-0.0124688653588
0.0125177679936
-0.000188548284878
9.95491248939e-05
-0.000603789843033
2.08939648125e-05
1.48386880794e-05
1.311529583e-05
0.0335157296961
0.00785535090961
-0.0336319220765
-0.0072059394568
0.0358095775921
0.00527371470418
1.05475106418e-05
2.0142921892e-05
1.91442794062e-06
-0.0350088300395
-0.00672323676825
-0.00878012852547
1.06676449938e-05
7.36577339366e-06
1.16816299092e-05
-0.00163124588871
0.0390757596946
-0.000328363228084
0.00137501142038
0.010409761487
-0.00060707795534
-0.00136587864753
0.000545542139515
-0.00194605892626
0.0138920052341
-0.000236820561088
-7.25282698183e-05
0.00137156441746
-9.4876542003e-05
-0.000735760860333
0.00134967663949
0.0103630589221
-0.00149824984138
-0.000146783695986
0.0152996901734
-0.000246666766382
-0.000169609917554
0.00231454452895
0.00950840827162
0.000531896449709
-0.000131564158991
0.000596527750602
0.0122158220294
0.00154015031954
0.00236062566797
0.00641402635744
0.011427622517
2.15074987169e-05
8.79928566055e-06
1.18845707326e-05
-0.00863202150979
-0.0361563560971
0.0426279626432
1.72930207105e-05
1.26950646442e-05
8.50697054244e-06
-0.0401847250067
-0.00362885750798
0.0125369889274
0.0198274599605
-0.0132034661496
-1.22018832858e-05
2.25378112635e-05
3.49027466087e-05
-0.0108089019737
0.0461480750637
-0.00550436961959
2.27725571447e-05
3.62334850814e-05
4.46826697591e-05
-0.00631650666221
0.0492858155442
0.0228198136301
4.57177647892e-05
9.37036321558e-06
7.68632188217e-05
-0.000106995200126
0.00299979373472
-0.00166774667285
0.00268044284456
-0.00109197266104
0.00442081584819
0.00385356405731
-0.00563463069566
0.00320539249816
0.00327537408284
0.0207288804436
-0.00417662957417
-0.000145890823998
1.60705129337e-06
0.000250641835704
0.0467189706062
-0.0144512071501
0.047380851096
-0.00188572761986
-6.36586666787e-05
3.0246282033e-05
9.91539203301e-05
0.0012703093575
0.0238306943507
-3.79493317193e-06
-0.000156370514363
0.000267814560037
0.0426912524214
0.000188592548729
0.00155697624193
0.00239594595274
0.00312443282355
0.00417966830467
0.00153366439139
6.26854805618e-05
0.00748335940546
0.02033471322
0.00149788180177
6.95916727267e-06
5.72417394489e-05
0.000118032624358
0.00807711074999
0.0485984118431
4.94900231278e-05
-3.21749728105e-06
0.000114795775284
-0.0499521025553
0.0133593720809
0.00722170056466
-0.0072588077484
0.00508846469757
0.00392194604938
0.00671160330104
0.0140790811103
-0.0154859638854
0.00381531780623
0.0211877306054
0.00841861043419
-0.000138452087611
2.55639632187e-05
0.000302846045693
0.0395562230748
0.0404163596124
0.0135923341973
-3.29331169724e-05
4.62538333881e-05
0.000161863131997
0.0142517109503
4.41547621419e-05
-0.000114525166121
0.00030127051358
0.0331148084884
0.0138059503137
0.00694747960787
0.00139907273354
-0.00174408199131
0.00817696382496
0.0120413263079
0.00211353432764
0.0104105740588
-0.000454289039206
0.0123706719296
6.24703409235e-06
-2.82553202317e-05
3.51229232972e-05
-0.0123755388988
2.90716943973e-05
-0.0123715258122
0.0123591753115
-1.31582527835e-05
1.14539803054e-06
-2.55532217294e-06
2.44899616295e-05
-0.0123964640801
4.13714351165e-06
-0.0123967403334
1.56635387791e-05
0.0123967344067
4.01985186739e-05
0.0123622759657
1.37015342213e-05
-0.0123899074378
-1.64570764433e-05
-0.0123798457699
0.0123780763555
4.39445026182e-05
8.2258586907e-06
-0.0123807727456
-5.54603903758e-05
-0.0123871470839
0.0123804440136
6.96490777075e-05
-4.03806200621e-06
-0.0124031164896
0.0124005692491
7.54818241645e-06
-2.35437270724e-05
3.77079187198e-05
-0.0124127076484
0.0123699634144
5.75004643581e-05
-0.0123905022622
-0.0124028375612
-0.0123635570433
7.96531128691e-05
1.46789230453e-05
-5.5807918677e-05
0.0123518630197
-6.5257845563e-05
0.0123768173704
8.32251785599e-05
-1.07317778994e-05
0.0124024310603
-2.07405088139e-05
-1.1964216033e-05
-4.92606673307e-05
6.52458623282e-05
0.0124184601323
-4.56404557246e-05
9.95113795897e-05
0.0123704694971
-2.68974227647e-05
0.0124065557932
-6.18056721217e-05
0.0124078574118
-7.25588248112e-07
6.05711104591e-05
-0.0124065230988
-0.0124018534169
7.01822491889e-05
0.0123981196001
-6.68971805623e-07
5.79834277596e-05
-0.0124188749825
4.64132462745e-06
-0.0124235859796
6.81222245567e-05
0.0124237781098
-0.0124048486435
6.98589912306e-05
0.0124068278847
6.01762204783e-05
-0.012414649663
0.012415823199
6.43023979951e-05
2.91043462718e-06
-0.0124150305424
-7.32774678843e-05
-0.0124232670952
0.0124296506486
8.3016201583e-05
8.07900382173e-06
-0.0124338298911
0.0124358367463
1.81733035385e-05
-6.84059824537e-05
-0.012446633206
6.98523427685e-05
0.0124183942241
-0.0124229696043
7.40090138724e-05
-0.0124307627524
-9.65771829598e-05
-0.0124068502492
-9.27738990179e-06
0.0124103313595
9.51647846613e-05
0.0123949649172
8.35346812758e-05
-2.94206562403e-05
8.69563351003e-05
0.0124316674584
6.0467819328e-07
0.0124307589335
7.59384086278e-05
0.0123915383716
8.00070953349e-05
0.0124431722884
8.31792560751e-05
-0.000116076397074
0.012421717865
-1.04124184315e-05
0.000112205733482
-0.0123923943157
0.00013832772802
0.0124040423846
-0.000146627327334
-3.43322799483e-05
9.67040868467e-05
-7.95379201076e-05
6.32155265712e-06
-0.0124677571851
0.000115302192763
0.0124884432508
-0.000120149694002
0.000131999797305
0.0124328712255
9.68734454611e-05
-0.0124215578735
9.61898847558e-05
-1.38045771864e-05
0.0124283223612
-8.14360918873e-05
0.0124364221543
9.17941085021e-05
7.72264588479e-06
0.0124431838073
2.83304471379e-05
-0.000101351882712
0.0124723218439
0.000100098679271
0.0124437565761
0.00010221345222
0.0124558845355
0.0124408873181
0.000111494434078
-2.2381002693e-05
-0.000122020891443
-0.0124498940265
0.0124673201149
0.000125796178861
2.68013187355e-05
-0.0124872519879
0.0125115854395
2.33873367012e-05
-0.000120132351204
0.000103628623073
0.0124569688222
0.000112296343696
-0.000176416772623
-0.0124502947212
-4.2474175047e-05
0.0124914614658
0.000174217753685
3.31323339919e-06
0.0124382114655
0.00016608871416
-4.0210968255e-05
-0.000172991128178
-7.76606687896e-06
0.000135053181662
0.0125144451109
-0.000136337289403
-4.74844873069e-06
0.0124678962181
0.000136647648347
0.0124773124631
-1.87737898484e-05
-0.000204462898753
0.000153314488894
-9.46662798164e-06
0.0124858438537
0.000152752662541
-0.000182595548279
-8.19477731029e-05
0.0125865723054
0.000191089022964
-2.19097229115e-05
-0.0125443917638
0.000228387864505
0.0126597672781
-0.000247626506056
-2.81620153131e-05
-3.33100199278e-05
0.000107136610702
-0.000157524282916
-0.0125986737976
5.00066758334e-05
0.000173818475504
0.0126192279407
-0.000221983287435
-6.06250347055e-05
0.000163806884093
0.000209256609196
0.0126671396194
-1.11461779871e-05
-0.0124731619145
0.000163481301787
-6.83667692364e-05
0.0125237106422
-0.000129896783839
0.0125074827502
0.000139217367779
8.98484736887e-06
0.0124839307852
6.07510695425e-05
-0.000164222404217
0.0125551453634
0.000124750578574
0.0125411061778
0.000155197113477
0.0125037159103
0.000181368796286
-0.000108630064392
0.012604086017
-0.0125622272698
-0.000166037462028
0.000167902567339
0.0126355811144
-0.012612296491
7.04939502096e-05
0.0126211847756
2.575692777e-05
-0.000215797500136
0.000128847109748
0.000158847308053
0.0126693346626
-9.39735042351e-05
-0.012449574337
-4.94230095589e-05
0.0124614987949
9.2714392579e-05
0.012447973089
8.92810698891e-05
-0.0124408096709
3.91655899159e-05
8.71159405827e-05
0.0124791529072
3.29720012082e-05
0.0124583592775
-0.0124705482597
6.62880755968e-05
0.0124594998297
-0.0124468139551
8.51311925518e-05
0.0124693035003
7.13165862481e-05
-9.70635867013e-05
0.0124803027875
-7.31429173549e-05
9.77646750183e-05
-0.0124653209792
0.000114037986654
0.0124833347653
2.93303746242e-05
8.00603359715e-05
6.64462652871e-05
-0.0125134077008
8.69109898455e-05
0.0125312539054
0.000100309681761
0.0125005337525
8.07218039294e-05
0.0124841777675
0.000103223229567
-5.75273251363e-05
-0.0124681242135
-9.79769540371e-05
-0.0124794438862
0.0124950035752
0.00010564401516
6.24533075588e-05
-0.012519827922
0.0125307503299
4.55534644374e-05