/*--------------------------------*- C++ -*----------------------------------*\
| =========                 |                                                 |
| \\      /  F ield         | OpenFOAM: The Open Source CFD Toolbox           |
|  \\    /   O peration     | Version:  v1906                                 |
|   \\  /    A nd           | Web:      www.OpenFOAM.com                      |
|    \\/     M anipulation  |                                                 |
\*---------------------------------------------------------------------------*/
FoamFile
{
    version     2.0;
    format      ascii;
    class       volScalarField;
    location    "13.6";
    object      p;
}
// * * * * * * * * * * * * * * * * * * * * * * * * * * * * * * * * * * * * * //

dimensions      [1 -1 -2 0 0 0 0];


internalField   nonuniform List<scalar> 
28582
(
17086.0371803
17085.827155
12188.28704
12188.0300412
7291.20665544
7290.33490733
3617.98644194
3617.72751103
52.7460246778
53.9543615753
-27.0927705041
3617.82879969
650.042311567
650.034407638
3617.6714318
3617.92748111
650.068727013
1783.5046735
1783.29849486
17084.8926035
17085.9894545
17086.7837616
12186.9845976
12188.0699574
12188.8220468
7289.32824474
7289.8259971
3615.68308572
3617.33689578
55.1644014692
-27.1030655712
-27.0490015127
3615.99470514
3616.92014513
643.303358617
646.31046161
1783.08714733
3616.77970863
3617.12376879
3616.47139381
1782.95411598
652.861812118
1782.52303901
1780.33190751
53.3159031011
55.284870821
-22.9458090871
-22.9478186555
53.4351300758
-22.9870435981
1783.43450774
1783.59921676
650.215300106
650.367739803
1783.75241784
650.675621281
1783.24156854
1783.48515617
1782.87825874
650.182509169
650.783977925
1783.46271991
650.74873786
1783.03850873
1783.70750327
1783.00455788
650.476681033
651.037737997
1783.6112331
651.551215927
1783.22651654
1783.46778168
651.413135751
652.28598603
1783.77198363
651.080519898
652.050242971
1783.43296392
1783.02204941
652.867193573
653.276704594
1783.97320405
653.443081823
1783.94149389
652.955286606
50.7862371191
-23.0030249174
48.3722296632
49.5641906004
-23.0744329339
-23.0368914575
56.4289086998
-22.9246360126
-22.9155479475
57.4761818969
-22.9332847745
56.6112083677
-22.9173344598
1781.53685792
1780.31270386
644.343976765
644.158941285
1780.90106695
1780.83555815
645.288498669
1782.05234351
1781.7122938
645.475727916
647.284203169
1781.37592327
1782.2574616
646.411141314
648.093122837
648.965798273
1783.22931335
1782.62381696
648.211034322
1782.81117615
647.369883172
1783.2277601
651.763478552
652.363467968
1782.29391403
652.154925139
1782.84909268
652.482225809
1781.62792522
1781.60342059
652.537575342
652.938445928
1782.29585348
1781.06899981
652.629111488
1781.07382897
1782.03798013
652.624097736
652.904715436
652.734925699
1781.74388231
652.551519841
652.726332793
652.999976992
1779.86176709
1781.05843834
653.039209412
1780.62490568
652.660071288
7289.65194038
3616.2870426
57.9786147696
-27.0516982514
3617.04234707
649.659781251
3616.22876546
3616.47584509
653.168155978
653.499688891
655.340475426
3616.97989097
3617.35905094
656.030534711
657.26928077
51.8204867296
58.627272695
59.2363287605
-22.930952991
-22.940921391
-22.9765485569
59.6249106659
59.8722590502
1782.40893195
1783.17118809
648.913884152
649.762878998
1782.7370072
648.950213041
1782.86117918
1780.41905743
1781.01522564
653.518561323
653.383307022
1780.58307715
1780.65813009
653.824697434
1780.34300949
1779.7241169
653.536538725
654.058296462
1780.34775758
654.045964503
1779.92423704
1780.50244772
1780.84519758
655.003099049
654.661557439
1780.82434389
654.473096042
1780.28985498
1781.5877324
1781.44704508
655.583753881
656.536081165
1781.19228683
656.04551254
1781.99595869
1781.99746196
1782.70453426
656.738078149
657.02302013
1782.29170913
656.463214177
1782.42351611
3631.80961091
3625.2066387
3624.1398271
3621.86566695
31.448796097
36.2852618192
34.2213965115
38.3940283678
38.1315906602
-27.1064694225
-27.2326711604
-27.1030135409
-27.1996390563
-27.1299767469
-27.1519188248
3632.42227515
3631.55670648
636.095130393
634.589574606
3634.60045468
636.189983409
3629.74089659
3626.94873095
634.094759862
632.69013888
3632.80509071
3628.11661073
3628.43969472
635.668147917
641.221076426
634.020870286
638.066630752
3626.96302534
3623.42579174
643.383276707
643.307969994
639.321060678
641.161031667
3625.32403425
3623.53499376
633.696064148
637.486270447
636.119678023
3621.77140837
3622.69209158
3620.96742815
638.611216629
640.666243133
637.309481904
639.311741726
637.029120847
638.852243791
31.2720612899
30.6407283237
31.8081488258
-23.0707987889
-23.0564455465
-23.0837915433
-23.0742390131
-23.0735210933
-23.080253078
-23.0775342138
-23.0390484191
30.3514860977
31.6107482946
33.2271213871
32.9116074211
34.8426170198
-23.0907295045
-23.0874088782
-23.124372002
-23.1112843158
40.5690993665
37.6085256224
41.2399281594
-23.06968009
-23.0086880949
-23.0711687864
-23.0037675827
36.050388529
36.0954199924
-23.1234595882
-23.0995016226
-23.1089435175
41.2259486244
38.3902305573
40.8752517964
-23.0790612281
-23.0263543835
-23.0938678453
-23.0470898764
1795.39963578
1797.36474135
634.186164628
635.606275454
1797.25294241
633.826093658
1795.49745538
1795.12173081
1796.28688191
635.123154063
633.038377623
1796.88195485
1794.63431447
633.466086462
1800.75210645
1798.00488562
636.774712186
637.940675389
1798.76188942
1799.87692121
638.676394236
1792.43208873
1795.30842359
632.641056075
633.434629736
1793.80167856
1793.81241753
632.084253209
1790.74460368
1790.16418522
633.011457038
631.450999737
1791.97232772
1789.10071166
631.715755117
1796.47071192
1796.84464613
637.380587303
634.921253252
1798.44213192
1795.16105337
636.538176271
1797.52023749
1800.73241001
639.250594018
640.069665778
1799.82613617
1798.06325443
638.244791232
1794.14347847
1791.12132384
634.431339246
635.360221223
1793.10595622
1791.96735695
635.879841759
1794.89588893
1792.60148093
638.905219138
636.768397198
1795.14572447
1792.49655506
637.419195979
1795.79228997
1800.5196755
644.60601115
641.903840568
1798.6626973
1797.62818734
642.93855278
1792.39012635
1789.02748
644.745103581
642.400500594
1794.7228126
643.189759342
1787.74424903
1793.11279315
1792.08255453
640.37282739
640.279415712
1794.63403051
1790.87654663
641.363308804
1790.42426835
1786.07385432
641.709169808
641.019216307
1788.83535458
641.897401315
1786.7686324
1788.82947161
1789.4810174
634.941664468
633.384549625
1790.19201792
1788.19988646
634.5485097
1789.23001822
1790.74959156
636.263401727
636.956298023
1790.64189307
1789.39529151
635.793157
1788.35251864
1787.9514765
636.49366512
634.967680797
1788.5394186
1787.75538974
635.334645259
1788.32128494
1790.34458872
639.570792248
638.060538934
1789.38949186
1789.0820572
639.044763591
1787.05815852
1785.67478776
640.37611106
640.193110861
1787.81412803
639.863539472
1785.40239109
1787.62646099
1787.73377241
637.686196817
638.265337611
1788.29181325
1787.11979838
638.645611457
1786.57428575
1784.94283865
639.742797725
638.956240283
1786.16633543
639.388446118
1785.19593811
1786.18869208
1787.26049334
637.933596677
636.824600175
1786.6429362
1786.87478772
637.648466959
1784.5434176
638.544655018
1785.70304839
17084.2973224
17084.0961982
17084.5101952
17088.1109435
17090.0040169
17101.7028551
12186.5211579
12186.3216265
12186.7198021
12189.9978284
12191.4968678
12203.8208301
18296.4384638
18300.5208856
17073.9562864
17080.434469
17086.1904731
17090.4953542
17096.5324277
17077.8585795
18297.8699432
18301.0621775
17079.580582
17082.0017495
17084.3299571
17086.1428121
17087.8489551
17102.019703
17079.3546411
17078.883243
17079.8730381
17081.6726999
17083.8030001
17085.5343546
17086.8067504
17101.4526088
17082.787582
17082.0388822
17082.2560826
17083.377537
17085.0257903
17086.599427
17088.3457338
17102.6187693
17085.6536145
17087.1712526
17089.0888379
17102.026647
13395.9856538
13399.7177995
12179.0970751
12184.1759095
12190.9181761
12198.8448081
12259.6828925
12077.7197431
13399.5118655
13402.3399645
12183.5804598
12186.1489724
12187.0700143
12188.0227557
12189.3768267
12195.7118733
12180.40686
12181.2453172
12182.8715886
12184.3181606
12185.5263398
12186.6938914
12187.3373037
12198.0734255
12184.6703708
12184.2238362
12184.6742694
12185.8262421
12186.9942003
12187.9649091
12188.8837845
12203.497819
12187.699112
12188.8479628
12190.2111935
12203.985988
8494.65471513
8498.73447634
7280.08907711
7284.63276423
7287.51726725
7285.92711357
7276.93499533
7216.17007199
8499.24728365
8502.88234643
7279.02802981
7283.24359542
7284.94683551
7283.13276004
7273.69070034
7266.08950503
7281.79125755
7281.99455691
7282.85903042
7283.8842183
7284.11929577
7282.99302005
7277.18685564
7296.17564539
7288.063195
7286.67681729
7286.28806778
7286.00873669
7286.39223071
7286.39537558
7285.60964919
7282.76577172
7301.30090421
7289.25347349
7288.53831451
7288.55134756
7288.45658971
7287.77727526
7286.48869217
7302.80036586
7289.33386875
7288.71277141
7303.16411536
3595.04714698
3597.72036908
3603.82843649
3612.11671231
3617.69961253
3620.37801294
3616.36633433
3591.64114923
3600.0257778
3598.19291492
3600.38788776
3603.97120827
3609.31262617
3612.36909809
3614.01628231
3612.23414897
3600.41099349
3618.35535915
3610.11351754
3606.54825386
3607.09805028
3608.62846604
3609.46652163
3609.87696274
3611.35638186
3612.34544687
3614.38610202
3614.30385369
3612.82257376
3613.08528185
3612.66797969
3612.49787246
3612.2297545
3612.58274663
3614.35955255
3619.86273509
3616.07489124
3615.94394094
3616.04036468
3615.1360312
3614.68758017
3616.09355147
3620.97544064
3616.3503346
3617.47796944
3621.45145558
55.9372284535
59.2727619299
59.8009972464
54.6943997041
53.0790691151
55.9880028662
59.5353286369
62.5896211932
45.4280189135
52.7284829367
57.4632289162
60.3172169345
57.7875571952
55.9561997414
56.0962964917
57.6664068739
59.6810950989
61.775711117
44.3073691278
49.5755869756
52.5541290189
53.1837105118
53.0207933836
54.4585831006
56.2390011512
59.2526457652
61.6681967277
62.9474416106
46.427267775
47.7562174044
49.1847108457
51.0403829775
52.9953798302
55.3406229526
58.0410454558
59.6131552077
59.817149566
50.5022453683
51.2227502114
52.8745701678
55.7388418382
57.7117255056
58.4582777072
57.3792182102
59.164247168
59.3994288067
57.8963476929
-27.1129497532
-27.6174877325
-27.6345156329
-27.7672261348
-27.3259663639
-27.1396436199
-27.0792205406
-27.0505509826
-27.1418106897
-27.3876063631
-27.42503512
-27.6601794141
-27.69373942
-27.5228715645
-27.1047532229
-27.3943606899
-27.0719483348
-27.106138691
-27.1335990863
-27.3814599528
-27.4367874391
-27.1702769522
-27.2073691886
-27.1623630167
-27.0742933494
-27.0647280066
-27.2413544163
-27.0863721937
-27.1838745269
-27.4303977901
-27.1426449676
-27.1578438153
-27.0982718031
-27.0315708106
-27.0498615415
-27.0206023309
-27.0611814452
-27.141511567
-27.3893641044
-27.0836179769
-27.0323491404
-27.1547246576
-27.0554610457
-27.1031426117
-27.1550859644
-27.4019078508
-27.0838142709
-27.1674374145
-27.4295702337
18298.6352795
18296.3559532
18298.7351487
15846.6024104
15848.8940809
15846.8371946
15849.0084158
18301.9092585
18300.8449954
18302.4907283
15850.9417023
15848.2250619
15850.631122
15850.44576
18299.3383918
18300.3268587
18300.6477443
15848.3888879
15850.2846437
15850.8065666
15851.6606988
18302.5633824
18301.6950882
18303.1283662
15851.953269
15852.6991338
15853.1623447
15854.8326713
13398.1385709
13397.0635712
13398.8600401
10944.9672332
10947.3842668
10946.3960477
10948.5589316
13400.9140698
13399.91725
13402.1217128
10949.0032892
10950.2128715
10949.9463943
10950.7774766
13401.0348646
13401.4284747
13402.5685762
10949.4496365
10951.2141617
10951.701965
10952.4122263
13403.2523743
13403.9253225
13408.1613593
10952.7137866
10949.822845
10953.3433892
10956.9385921
8497.07825896
8496.32372033
8498.49882226
6044.86784496
6047.0214985
6046.33978633
6047.89560969
8500.16274594
8500.1301651
8501.70802202
6048.74369908
6050.51987949
6049.38650072
6052.35345138
8501.16120617
8501.96203861
8502.69516469
6048.83540447
6050.42185921
6051.62771751
6052.55446784
8500.09979687
8503.6015517
8506.18894192
6051.72200376
6051.87605169
6053.48109348
6055.98671565
3593.39470107
3594.92188237
638.066058069
639.193437105
3596.38475276
3596.01884315
3597.03652962
639.675025448
639.686406509
641.373729003
642.327368914
3600.2429689
3598.06537986
3600.17695161
639.796370846
645.433618771
641.11800853
644.700325403
3608.28750174
3603.56631616
3607.48278182
647.639374442
650.136694999
646.451747546
648.464121627
3615.20367194
3610.63919717
3613.22048778
649.971442959
650.556529494
648.61229625
649.377906613
3619.65908849
3615.19689325
3616.35387489
651.506779946
654.900892078
649.943754179
651.781685672
3619.47536739
3616.93901103
3616.9709997
655.543352167
654.990232482
652.196747699
653.156204558
3607.04654419
3616.39371227
3608.69161713
654.537929853
654.804873943
653.590890566
654.557506493
3580.51940052
3595.41237045
3600.34642086
661.081061144
550.191228057
656.387626098
623.880871802
3618.3330795
3611.58723784
640.756972398
635.092914072
640.772524341
639.187586004
3597.59469353
3605.77395229
3602.6850934
635.509481519
640.188708205
639.405191163
643.242277966
3599.32983394
3602.12395092
3602.6517373
642.338027971
644.238991197
644.411727407
645.596302418
3601.74890076
3603.60685165
3605.19128104
643.541297035
644.268334699
645.237063523
644.101196355
3606.82041564
3607.28690567
3608.93135184
645.55654205
647.783188376
644.20890866
645.722658776
3611.01483921
3609.98417309
3610.41410696
647.96207098
648.674574192
645.961090443
646.680935406
3613.4944662
3610.68194245
3611.48267888
649.110683739
651.152160074
646.754254911
649.959764114
3613.88803869
3612.12075169
3612.73332134
651.771784915
653.49342871
651.544186785
655.427347539
3607.56222631
3612.88843606
3611.38191522
654.039818649
655.3406346
656.243241697
658.127825001
3619.14621926
3609.07029238
3630.10627708
657.145381094
627.292274691
659.976203849
631.023716013
3614.01444778
3618.38263137
3615.36094305
640.586504152
639.899320853
639.568939359
640.050110235
3607.59221715
3612.84476572
3611.06558007
640.210608836
643.392544684
640.331987818
641.858605479
3606.59953316
3610.2036255
3610.2229608
644.262884564
645.339283251
642.155116501
643.76031944
3607.91422506
3610.41208297
3610.48775839
645.258164656
644.28748889
644.430002379
645.125262026
3609.09684121
3610.54731645
3610.59446269
644.210968072
645.166107963
644.950534276
644.773630235
3609.69669863
3610.73859964
3610.86659929
645.500622159
645.961709611
645.178966392
646.341231573
3610.4872383
3611.09173726
3611.48609036
645.990299104
649.665043845
646.573096757
649.678843692
3611.91867657
3612.08692176
3612.67218189
651.569038981
655.975227877
651.353194051
654.87881807
3612.92257973
3613.3582069
3614.88162373
656.85907232
658.46513351
655.889457734
658.039285217
3634.14472874
3617.9032388
3635.57946514
660.413224115
632.758833174
659.811984914
632.651817595
639.125528057
639.744090455
3613.26745983
3614.5969001
639.96704905
641.56727281
641.790668162
3612.98630209
3614.56253714
3614.81344225
641.858377349
643.686515198
642.609018653
645.332933541
3612.90170307
3614.92387333
3614.76556965
644.490179941
645.480260277
645.959782629
646.50484929
3612.54703437
3614.5131816
3614.44956104
645.394356295
645.239623904
646.470715113
647.269679159
3612.36847396
3614.46739964
3614.17776262
645.651463801
647.304455084
647.867995466
650.118140799
3612.26883962
3613.8516882
3613.63360263
647.718091201
649.76126643
650.547205866
651.589682236
3613.32990005
3613.73692239
3614.28132919
651.012794018
654.327507267
652.17845059
654.135298706
3616.30766692
3615.27435491
3617.27412372
655.164037204
657.300867274
654.703778404
656.114294132
3635.65351029
3620.76487488
3635.57996528
658.775951419
631.862780623
656.849953239
628.098911263
3616.06210551
3617.01930015
646.897025135
646.924125646
649.186005882
3616.01957897
3616.93986421
3617.03420358
646.930363583
647.909326092
649.213344606
650.271456885
3615.71313154
3616.96952259
3616.57635073
648.436280479
650.843230111
650.738166726
652.535459649
3614.70859595
3615.96114444
3615.55726992
651.289858713
652.403513792
652.772278416
654.047891408
3615.22282198
3615.54671575
3615.97097237
653.008196588
654.678581863
654.566870752
655.682535478
3617.89479953
3616.7496053
3618.40696705
655.099262772
656.236589102
655.925987552
656.137404982
3634.76788294
3621.05635138
3634.01818798
656.799677098
626.949956841
656.302957576
626.627216669
3616.1218151
654.351327032
3616.68674249
654.8270071
655.875459894
3619.00964895
656.093531861
656.030887655
3633.57798462
656.130347883
626.9126
-22.9716765994
-22.9071280361
-22.9179137633
-22.8203273163
53.5218371933
55.1190617219
-22.9842533762
-23.0017246378
-22.9122265828
-22.8954997517
57.7511297314
57.6618889206
59.6708076955
-23.041461157
-22.9681761122
-22.9311846638
-22.899613999
60.5271476556
60.6165618707
61.0180731265
-22.9498194825
-23.0056528446
-22.9950565617
-23.0538650858
57.1612511295
59.7148271527
57.2121624475
-22.9546925846
-23.0055550258
-22.9910415401
-22.95837548
53.4312760274
55.3203804476
54.6881092763
-23.037079558
-23.0596008143
-22.9857103268
-23.0095899451
54.0553529915
54.6715729684
55.4320329323
-23.0436860196
-23.0537248043
-22.9946594957
-23.0149020764
58.0486392311
56.787523405
57.9720833156
-23.0285840531
-23.039442259
-23.0076895535
-23.0322388514
60.1145961572
59.3101862305
60.5386479614
-23.0844664378
-23.1229309132
-23.0806644812
-23.1152222263
69.955253761
61.2194655885
70.0295600082
-23.1678016418
-23.1039994238
-23.159618951
-23.0661988561
49.5614163493
45.2658114621
48.730102496
-22.9639055629
-22.8842893089
-22.9521368897
-22.9171557543
55.3922643491
51.5553682194
53.9033071261
-22.8817808074
-22.8715348636
-22.9368134023
-22.9351413155
59.2023165701
55.6412135377
56.7969595775
-22.8708880264
-22.8618826481
-22.9159912341
-22.9034482077
59.2738119103
57.1271150472
56.2818327608
-22.8283206233
-22.9120088041
-22.8478883995
-22.8915505039
56.4640539369
55.2033021128
54.9065587328
-22.9141380893
-22.8511214632
-22.8826122576
-22.8442139192
55.9868064272
55.3258709752
55.8598531036
-22.9319547333
-22.957003643
-22.9013438595
-22.9171148631
56.6916315093
56.3573679717
57.5904135711
-22.9580633215
-22.9968156695
-22.9151679261
-22.9768444012
58.5638221081
58.8622568158
59.9540556221
-22.9934355536
-23.0259028849
-22.9822522499
-23.0132732481
61.6094328475
60.8255425876
62.4225072381
-23.0721522791
-23.1070421619
-23.0629963318
-23.0981154097
69.8150725613
62.6983566696
69.6578377172
-23.1491497942
-23.0603276533
-23.1402684092
-23.058138474
47.0820047468
43.3604591373
45.6725793922
-23.0066716478
-23.0114114548
-23.0284962935
-23.0516290804
51.4690401749
47.7664568283
49.0386861748
-22.9503543743
-22.9144291602
-22.997085984
-22.9639338552
53.0447682181
49.4852295326
49.7251513201
-22.8839668823
-22.8704400332
-22.9374823313
-22.9174271139
53.0440072369
50.2769495324
50.9587249228
-22.8611514432
-22.8634984671
-22.9101927671
-22.9093254469
53.6049427126
51.6888511231
52.5821971894
-22.8488619085
-22.8468782704
-22.8910090725
-22.8907906092
55.274831867
53.7106922143
54.6496075602
-22.8879325673
-22.8923262803
-22.9262435529
-22.9185289537
57.6923336402
55.8056232095
57.39350815
-22.9112354412
-22.9445067536
-22.9366313585
-22.9425869872
60.823063539
58.720293782
60.0823137861
-22.9701864173
-23.0233393599
-22.9735076497
-23.0215008014
62.6511329761
61.047806491
61.9887165875
-23.0655195626
-23.0903281362
-23.0573195924
-23.0810356076
69.2850614304
61.9173579197
67.7616324529
-23.1393699011
-23.0638278069
-23.1280756285
-23.0586600973
47.3803514192
46.8886415221
-23.0386999826
-23.0170414135
-23.0800290513
48.2987383304
47.2916493622
48.3289496607
-22.9939303998
-22.9703230424
-23.0491246285
-23.0152702243
50.1583446563
49.3654918322
50.1934012479
-22.9631306445
-22.9643872439
-22.9952672499
-23.0003358209
51.9398082596
50.8629128266
51.4677216074
-22.9548190055
-22.9454467975
-22.9962350265
-22.9755930664
54.1039941992
52.4440122117
53.8198078076
-22.9637388749
-22.9648820897
-22.9717049798
-22.9784867747
56.794592582
55.161822506
56.5399269147
-22.9650720595
-22.9763189196
-22.9805082619
-22.9958669496
58.9441769848
57.518183028
58.2474585547
-22.9781524083
-23.0076143123
-22.9880513558
-23.0064641495
60.7155544453
58.6819152802
59.8549768236
-23.0464529977
-23.0724017392
-23.0415048633
-23.0721899161
65.7146067462
58.1611482286
63.754447239
-23.1203669995
-23.0492750918
-23.1206899639
-23.0431495498
51.0013984223
52.2921299464
-23.0165291887
-23.0218753148
-23.0013855961
-23.0063784554
51.7340086543
52.4752769916
53.0248416282
-23.0250756544
-22.989347554
-22.9980152589
-22.9586340022
54.4496216485
54.1195287041
55.6019312531
-23.0125649387
-22.9877571769
-22.9026906718
-22.9487701043
56.8948737924
56.9938246508
57.9696621221
-22.9797675791
-23.0014883336
-22.94735308
-22.9725119655
58.2485866817
58.4760669574
58.8688897372
-23.0001755392
-23.0124510272
-22.9875998571
-23.0107468818
59.7701609325
58.8550088024
60.1453705768
-23.0394268314
-23.0710098401
-23.0400269649
-23.0711705995
62.4024963885
57.2710364133
62.1066032513
-23.1183268242
-23.0459005654
-23.1182029994
-23.0492357383
58.7585390286
-22.9636242024
59.4878390886
-22.9883624988
-23.0168474249
-23.002192838
-23.0299774422
60.5736717485
-23.0474291896
-23.0748277066
-23.0637826648
-23.0885898871
62.6170565364
-23.1191645595
-23.0444401671
-23.1256382581
-23.0478949071
1757.3506234
1758.70488857
635.726776085
638.025299623
1758.08878706
635.643176803
1757.70178658
1757.46271033
1759.57692984
638.437839355
636.83044055
1758.27558058
1758.76599414
636.085466326
1758.39957654
1759.10808088
640.523020689
639.652972219
1758.45935393
640.666876058
1759.10493238
1758.1726423
1759.23162154
640.395738539
639.865770575
1758.67882336
640.680858033
1758.84794449
1758.71111735
1760.14574173
640.471621897
642.577760036
1758.76865109
1760.00893099
641.622809736
1758.47781878
1759.53382553
640.963173123
642.897318365
1758.85164623
1759.60802309
641.865076235
1759.32616421
1759.78690873
641.118715783
639.926577456
1759.00952483
641.320125416
1760.39446864
1760.96098582
1764.31693552
643.136041756
645.535010492
1763.45291281
643.3981643
1761.97460232
1758.99791911
1759.73785188
640.361540776
641.675269666
1758.60533051
1759.67887815
641.554380188
1760.60016374
1763.85543558
645.224551736
643.102881014
1763.14414131
1761.13884469
643.331280574
1769.50022657
1767.0507554
649.310121709
647.553254624
1766.31248431
649.068155362
1770.13287357
1772.3725997
1775.26216448
649.95864081
649.760841226
1774.66528317
649.599430244
1772.93867886
1769.03245582
1766.5798993
647.14813282
647.595436356
1766.01237014
1769.17142188
648.415010269
1771.65327631
1773.37871955
649.158786022
648.143633091
1773.80041387
1771.52700682
648.8824787
1778.20678618
1777.21374678
649.858384564
649.62666309
1776.54461745
649.567571667
1779.06911971
1779.69774103
1782.37723465
650.131574613
650.209929749
1781.14618439
649.905367727
1780.78440313
1776.98152066
1774.83080431
649.150026474
648.833289129
1775.56042674
1775.97844967
649.304490474
1778.19559896
1778.04791938
649.88114827
649.063805312
1779.52145571
1776.94907982
649.625396722
1783.75731915
1783.80444433
652.747745451
650.897475029
1782.53324323
651.847653878
1785.22036932
1784.6041697
1787.23750003
653.9217163
653.64569511
1784.9008139
652.918962426
1786.56243474
1781.88153107
1779.00203385
650.601608684
650.523882994
1780.78829732
1779.75652471
651.348729705
1782.46353758
1780.52285905
652.688515619
651.182316928
1782.66064243
1780.25814525
652.119004289
1783.56170924
1787.01086417
655.730349697
654.129870579
1784.4996136
654.296172222
1786.0142151
1782.34300549
1783.00899854
655.341716479
653.90940195
1780.87232329
654.084077243
1784.61805202
1781.74733169
1780.55468402
653.014633296
652.568056366
1782.41178218
1780.27594127
653.273222743
1780.88557279
1779.19122894
653.338615894
652.803564513
1779.84533124
1779.80871832
653.261185877
1778.09422643
1781.6172351
653.904445119
653.674881217
1779.48339321
653.346934311
1780.11126593
1776.36625995
1774.49598425
653.715399576
653.946117211
1773.23847223
653.362964336
1777.91675098
1777.46329522
1778.22993341
653.412261219
653.81491757
1778.69433152
1777.02183912
653.43387365
1775.52968701
1772.60106772
654.154661324
653.955943844
1772.47927632
1775.21222538
653.587734395
1760.17134383
1768.70237647
682.770679417
656.137258604
1767.62985955
663.65787713
1760.08347799
1746.87462807
1740.48928216
750.373882078
624.848290076
677.111862901
1762.97588659
1741.48823881
1761.75708494
1768.68778369
656.45442154
662.668659282
1767.81593218
1763.37906122
664.201250701
1748.68163747
1775.10513372
619.392121638
671.789419745
1750.94505395
677.261894869
1769.06109314
1776.31933373
1782.47137291
638.425407552
640.795759481
1775.19406403
639.132946968
1782.34768038
1770.81403779
1763.96431754
636.078352774
636.741434579
1768.58947257
1766.59996944
637.421029655
1777.58539126
1782.76896322
640.805455192
640.221543349
1778.9930282
639.793735051
1782.44130114
1773.0412522
1772.09341095
638.150742449
639.473910059
1769.32278928
1775.30308341
638.633424664
1763.10702971
1761.35531722
636.441131103
636.896776778
1760.35574154
1764.14654747
637.980294415
1762.87850479
1760.93676003
638.066495525
641.438970792
1760.34094061
1763.21402729
639.638120722
1766.06894789
1770.03960036
638.275504875
640.459122858
1767.09955716
1769.08153771
639.36090498
1765.66822517
1768.6474006
642.598577947
641.94311342
1765.86097636
1768.62397125
641.024491717
1763.96132818
1761.60262692
643.601137266
643.237974857
1761.73524971
1763.76094729
644.423251632
1763.87634139
1760.91246976
644.208061763
645.357769158
1761.50240734
1763.37886591
645.130468909
1766.27390055
1768.75678138
644.045097004
645.176311742
1766.16146061
1768.72938844
645.009804578
1766.16788093
1768.18920567
645.623882156
645.548279351
1765.60460164
1768.59075482
645.527091307
1762.40575965
1760.62981604
643.154090388
644.782456866
1760.84559293
1762.58716552
644.13558733
1763.4814466
1764.17891701
643.33298598
643.890847349
1762.05461757
1765.29167387
643.608596178
1764.66424982
1767.82366133
645.087606086
644.801377773
1765.0010187
1767.60102414
644.565185663
1765.27142387
1768.56602956
644.019422757
644.3220948
1766.58956934
1767.88689307
644.058679713
1769.23292235
1766.33356038
646.649073496
645.009587832
1768.68555591
1767.1385363
645.916588514
1771.07226233
1772.70680551
647.415578266
647.117021909
1770.86226298
1772.54783354
646.705686236
1769.90279185
1769.62462266
644.482661154
644.58331856
1768.15686889
1770.86012167
645.12380927
1771.35364509
1772.58630529
646.376834304
645.308025103
1772.4109402
1771.90176522
645.963288149
1774.11627026
1773.99533612
648.176255703
647.290914262
1774.84307435
1773.5869471
647.503355175
1774.3318115
1776.09943244
648.33866323
647.983597874
1775.42618255
1774.5909391
647.626483378
1773.60433809
1773.02021971
646.583266904
646.287861664
1773.26682043
1773.1608508
646.865964386
1773.56909636
1772.82740971
647.337579218
646.429525632
1773.5225169
1772.99105792
646.971660367
1775.6759037
1776.79908664
649.629286387
648.354076745
1777.58162643
1775.0043593
648.880779342
1776.35618693
1778.70168586
650.467547134
650.703375561
1778.23678496
1777.08250507
649.775087415
1774.25835236
1773.07077648
647.518982017
647.302935506
1773.77629519
1773.54397335
647.899514844
1774.87873551
1775.09975604
650.312678032
648.487147622
1775.89807078
1774.07082742
649.051145771
1778.30041118
1779.06568246
652.348860608
651.529270698
1779.17762957
1777.81288153
652.283057975
1778.54526759
1778.85570769
652.907955294
653.951423008
1779.11290073
1778.63003173
653.169231707
1777.70014559
1776.14849379
651.536387427
652.915372983
1776.8739234
1777.11030083
652.560947617
1778.28347265
1778.3817834
654.718654621
654.353939166
1778.50298508
1777.87591428
653.793883544
1777.1197079
1778.10846365
654.357966545
654.608033349
1776.91899369
1778.05737624
655.073966742
1775.88051125
1773.25093341
654.641879139
656.140822869
1775.28687142
1774.32349602
655.416908124
1777.54375778
1778.23167205
655.517241029
656.919983262
1778.03023338
1777.91385654
656.108112505
1776.89657372
1776.78112715
657.4480564
657.301134109
1775.62951418
1777.64955166
656.57120645
1768.47139947
1770.58532262
663.464311223
657.970819023
1766.4219911
1772.27390356
664.176489817
1758.41997051
1781.31511765
672.27715912
628.82396786
1756.22113722
672.561347932
1784.17899845
1770.26702155
1775.17876247
659.217203111
665.511690696
1773.9447089
1771.2987937
665.161579842
1760.02366622
1786.4628162
629.82998569
672.798403725
1760.41264983
672.995903733
1785.82106369
1781.0977832
1783.09416092
640.358292739
640.344077293
1780.12529814
640.328463557
1783.44891938
1778.67970847
1774.45894661
639.955985432
640.203327735
1777.15459251
1776.40447453
640.129669372
1781.70473595
1783.60471568
639.973264941
639.756340242
1782.01510922
640.077011463
1783.61911121
1779.69411304
1778.6606427
640.23259625
639.912902221
1777.7852335
1780.31109657
640.094295066
1773.82912353
1772.56971223
641.050702686
640.533784033
1771.63457949
1774.71726577
641.27987508
1773.33454424
1771.14238647
642.343388822
643.040530683
1771.19954427
1773.13745671
642.286683191
1775.39242833
1777.3535386
640.53942628
640.80922468
1776.28427275
1776.56864272
641.086418781
1774.91863891
1776.02111454
642.329364922
641.395818076
1774.69387652
1776.16241583
641.798494677
1773.00312859
1771.12039871
644.856242026
643.675808589
1771.03517999
1773.03216257
644.122381761
1773.10114197
1770.84308003
645.115328168
644.778670709
1770.97238576
1773.24484695
644.405808841
1774.68054492
1775.97776484
642.695337619
642.540794795
1774.58828454
1776.15769942
643.128073092
1774.96545719
1777.0386843
644.160615371
643.042678064
1775.3277101
1776.54549917
643.564400283
1773.19617377
1770.67825752
645.021942714
644.966799338
1770.52766266
1773.27987114
644.977534914
1773.09430677
1770.72843357
644.563735519
644.553863953
1770.53810058
1772.92609627
644.786984339
1775.41550646
1777.28076633
644.62217538