/*--------------------------------*- C++ -*----------------------------------*\
| =========                 |                                                 |
| \\      /  F ield         | OpenFOAM: The Open Source CFD Toolbox           |
|  \\    /   O peration     | Version:  v1906                                 |
|   \\  /    A nd           | Web:      www.OpenFOAM.com                      |
|    \\/     M anipulation  |                                                 |
\*---------------------------------------------------------------------------*/
FoamFile
{
    version     2.0;
    format      ascii;
    class       volScalarField;
    location    "9.35";
    object      p;
}
// * * * * * * * * * * * * * * * * * * * * * * * * * * * * * * * * * * * * * //

dimensions      [1 -1 -2 0 0 0 0];


internalField   nonuniform List<scalar> 
28582
(
17098.342165
17097.4789495
12200.5234122
12199.8049158
7303.72419785
7302.76507573
3631.39908564
3631.2945669
46.1766781291
48.6707576218
-27.1154119352
3631.69744963
651.163099002
652.909730737
3629.88063509
3631.70387994
653.084652036
1793.94540392
1795.48261799
17098.5932724
17096.8709116
17096.8238878
12200.178426
12199.1001538
12198.7909947
7301.24246164
7301.15796448
3625.03345844
3628.08980872
49.7397830828
-27.2489121852
-27.1686751653
3627.5252367
3628.85922734
641.71364063
652.288143727
1795.31974208
3626.62443
3629.95049444
3628.00033029
1792.44264935
651.199487366
1793.82943843
1791.93649455
46.9560303552
46.6799840248
-22.8947563958
-22.8429718781
47.9330806665
-22.8501915255
1798.29106093
1798.86533181
651.896788138
650.433262459
1798.64196502
651.195341898
1798.46131738
1798.89836096
1797.90554912
652.435346218
652.279979263
1798.53192925
651.773497873
1798.36792933
1796.90224851
1797.03124089
652.666283353
652.60000405
1797.79815568
652.343166086
1795.92675969
1792.68117345
650.436377644
650.572504094
1795.59840536
651.506025704
651.396729045
1794.44794784
1796.9667903
650.959542074
651.215831031
1796.97281046
651.808477619
1798.08212555
651.713814287
46.887084535
-22.9853716176
44.3494850171
48.4201962916
-23.1395144012
-23.069206032
47.7275892527
-22.8902959296
-22.8566789022
49.3123803579
-22.8869391071
51.2611926191
-22.8586774283
1791.32424576
1787.85159139
646.03501532
641.611057262
1790.53939306
1788.59775906
645.858769574
1793.62385216
1794.61973875
649.8639164
651.943349732
1792.82792166
1795.36947165
649.611667437
649.023819873
650.952333098
1796.93713359
1794.44758716
651.519763368
1796.15606543
649.380943181
1791.25718937
649.769882025
649.983213625
1791.22200668
649.857709538
1790.23666818
649.769360273
1790.42075042
1789.45593819
650.407008347
650.644498321
1789.72267153
1789.93653122
650.005850021
1793.53896871
1795.38413177
650.062617623
650.526768665
649.953466657
1792.24982255
649.646002673
649.494798985
649.685685772
1790.6339108
1791.07529617
649.966774478
1790.34869417
649.53790659
7299.99515052
3626.00242967
53.1030453379
-27.1033885459
3630.22519613
651.856833452
3626.91218998
3626.56303883
652.215513054
650.252970365
653.31985542
3626.65268118
3626.9506362
654.259597248
657.174589695
47.7282303934
51.4750544189
53.2782662053
-22.8484350943
-22.8552898723
-22.8592965512
54.2773030259
55.5712581639
1797.14047198
1797.72466461
652.414549149
652.519127373
1796.9713235
653.072245929
1797.88517044
1789.77255245
1789.39087417
653.203900515
651.547116697
1789.4363726
1789.73033845
652.524304413
1789.88478764
1789.87243335
650.77386281
651.082781753
1789.89013778
651.692546758
1789.7262123
1790.18387531
1790.30933186
654.04413284
652.255191975
1790.69085689
652.929026256
1789.87132125
1791.55912339
1790.82120499
654.937215365
655.120825255
1791.16530027
655.726855269
1791.32022548
1791.84990335
1791.99430819
657.536276178
656.179794464
1791.88951898
656.638929443
1791.79817844
3662.79206433
3658.72561445
3653.09191348
3646.81378502
14.6700445791
22.0160314861
15.9091457762
24.885356479
26.12338869
-27.0701520441
-27.1725287014
-27.0713481945
-27.1713296187
-27.0509342002
-27.0991411896
3663.20472463
3662.30095759
633.735385621
632.332410036
3665.18619716
634.137557043
3660.64967604
3659.06907855
631.801065969
631.249330921
3663.48861269
3660.55467816
3660.51406531
633.746362389
641.969300047
633.491929023
642.49807899
3656.99994393
3648.58781897
646.293059419
650.499630484
645.787133625
643.744235162
3657.75871499
3654.95826924
633.958936082
642.862990744
641.718580488
3644.39999895
3649.48335489
3640.75873413
645.257523522
641.00841288
641.915432753
634.218932167
640.819367525
633.455313536
13.935772788
13.3223095503
14.7338396668
-23.1659345431
-23.1285726526
-23.1666592071
-23.1381601512
-23.1002153131
-23.0772336861
-23.1210592339
-23.085154955
12.8857270706
12.867359982
17.5051080252
14.9681629544
18.1864366098
-23.1569030601
-23.1332293818
-23.155054761
-23.1428202826
28.6805573286
23.3022764669
29.0746229919
-23.1092382499
-23.0781828912
-23.1070025743
-23.074767552
19.9082439189
21.8586083654
-23.1355501093
-23.1090743511
-23.0950118067
29.2107494346
26.0535499883
29.2534493584
-23.0629704383
-23.0407971774
-23.0561286471
-23.0342721338
1826.18139786
1828.35966374
632.191236747
633.337794027
1828.10698072
631.75270222
1826.39320051
1825.79713415
1827.11958248
632.810841892
630.627103499
1827.6671308
1825.29724782
631.182437858
1831.97074732
1829.08659003
634.559120902
636.244393067
1829.73082688
1831.1418218
636.618326643
1824.25525766
1826.48186698
630.061781149
631.466012048
1824.76581115
1825.90799687
629.63268528
1823.80275776
1824.887712
631.275034532
629.308732973
1825.34572515
1823.26925058
629.377896181
1829.44490988
1828.37043621
635.929066158
633.481734635
1830.2408117
1827.6889493
635.753172479
1831.02996283
1833.23980933
638.677453685
641.975502209
1832.05582848
1832.08778158
638.60350097
1828.60976862
1826.37156225
633.391292787
636.001731355
1826.92570327
1827.9490412
635.761896726
1829.82273112
1829.88209193
642.184121439
639.201497729
1831.09671785
1829.18953695
638.807475309
1830.81264062
1833.82880019
649.505205885
645.947600011
1832.90293722
1832.5442387
649.140429785
1825.68097721
1820.11124995
652.02567831
648.62403149
1828.41447781
650.814791527
1817.39957093
1828.22873541
1828.83846838
645.897747753
647.201252738
1830.8086684
1825.26616061
648.290774514
1822.60247072
1810.85402207
646.273485634
646.716905952
1819.05453382
648.923966507
1814.26859968
1826.68495584
1825.856676
636.709497771
634.476811587
1827.33099373
1825.47006516
637.270402099
1827.08990065
1828.24277335
639.936741023
642.93273854
1828.21435642
1826.3158488
640.457368336
1825.44079242
1821.85689728
642.367289818
640.321075832
1824.00595362
1823.79152534
640.503285733
1818.611375
1826.40946638
645.618912048
644.479282057
1821.99439093
1823.65262018
644.010904075
1811.65904307
1807.284921
644.11400544
638.381016019
1815.39437712
641.774461189
1803.6026303
1815.44585169
1818.25581358
643.126455919
640.475246499
1820.7833223
1812.81923741
642.087063834
1808.43193087
1798.22395069
636.023768535
637.578127985
1805.86487195
639.394755151
1800.52411739
1810.07460251
1816.52041444
639.338239443
639.88943242
1811.15017668
1815.24334587
638.380162157
1797.15151842
636.591757776
1804.43633148
17097.124709
17096.1611846
17095.8540941
17097.1804519
17097.8658058
17106.5778066
12199.1970986
12198.3934784
12198.026433
12198.8760586
12199.2127513
12207.9486862
18313.0834794
18316.3099692
17089.7214308
17094.9414167
17099.1806597
17101.9449403
17106.2310929
17090.59748
18314.2604946
18316.8251758
17094.4515811
17095.9566994
17096.8293921
17096.4654376
17094.7812524
17104.00696
17094.5799694
17093.4588116
17094.1096556
17095.2332585
17096.0000675
17095.907389
17095.3915844
17106.4235624
17097.1445928
17095.5024403
17095.1794136
17095.559527
17095.9700459
17095.9297001
17095.8453551
17106.749969
17096.0816799
17096.3549776
17096.8365328
17106.6166356
13412.0141379
13415.7230049
12195.2019679
12198.2516127
12201.227865
12205.2325618
12235.0711082
12135.0837524
13415.3655043
13417.9331377
12199.3066593
12200.5228692
12199.5930402
12197.0353449
12191.2987079
12183.5954034
12195.2902986
12195.8817293
12197.2770346
12198.0385001
12197.4753472
12196.1512411
12194.0921171
12202.3241654
12198.39077
12197.5732132
12197.6807219
12197.8946695
12197.6950839
12197.0261143
12195.7504229
12205.3564297
12197.9690159
12197.8430925
12197.6741816
12207.2177318
8509.26205932
8516.02485041
7298.846091
7301.49180221
7302.75946135
7303.70641201
7313.8475865
7227.93758847
8513.86749766
8519.36715157
7297.9201857
7300.30699317
7299.67015722
7293.75662577
7281.8422353
7269.1493822
7294.82817839
7297.70954879
7299.45397905
7300.0539468
7297.95481195
7294.5031356
7289.39100117
7300.07364471
7299.3882604
7298.80201037
7299.6537778
7299.64557913
7298.79471247
7297.69577467
7296.3329128
7293.37187206
7304.33200195
7301.66067761
7300.64872149
7299.20535277
7298.66082804
7298.0917928
7296.67076297
7307.63942606
7299.48113345
7298.76850281
7308.46857913
3605.81079628
3619.39914761
3627.43147205
3630.45219584
3631.34868712
3631.45924685
3630.08091393
3608.87265885
3609.36608054
3608.97310176
3620.94404133
3627.06949991
3629.7173947
3629.68613753
3625.44848393
3618.07516853
3605.10356663
3633.84636544
3617.53034529
3615.81362032
3623.43113178
3628.77279817
3629.51645089
3625.755778
3622.27443979
3619.7508961
3620.57290904
3620.37517008
3621.67779554
3626.61265823
3628.09247845
3626.30736154
3623.25583125
3622.78267188
3623.34633291
3626.06932747
3628.96437666
3628.4737365
3625.79874675
3624.19491471
3624.50634426
3625.36683432
3628.37830392
3626.29361399
3627.15305145
3628.81041459
44.40997318
49.6043687849
49.2997066127
47.5767869402
49.7594896725
54.1619548327
57.7190253759
60.1523894616
34.1816523597
40.6327932195
44.7922778446
48.5165356363
48.9145659243
48.025960093
50.2856005022
54.7339723969
57.6002641677
59.2353415461
33.1155629821
39.0921619258
44.7246420847
49.3085135622
49.3190758863
49.7238575537
52.8829049809
55.8515493019
57.2793972025
58.5588657209
36.4710913099
45.7208140132
50.7518278513
51.577706659
52.8190925165
55.2961778194
57.810358913
59.5477005112
59.9533463339
49.7244653986
51.0232118849
52.6144029287
55.1520495917
58.247176406
60.4224320462
60.8676375533
55.796771121
57.7810611665
60.437926692
-27.5224304406
-27.0317774789
-27.0467977777
-27.0809925944
-27.0761810313
-27.1535490645
-27.2040364321
-27.0762701057
-27.2368827868
-27.8239345696
-27.8549538284
-27.9003995765
-27.7219375915
-27.2914299979
-27.2790691682
-27.1987422591
-27.3175455121
-27.1058056138
-27.234226335
-27.673737656
-27.7728080228
-27.0952744398
-27.1935519332
-27.0376734735
-27.1482347965
-27.1214809806
-27.5439547424
-27.1109714458
-27.2545351015
-27.6644091579
-27.2003516621
-27.3290897384
-27.1533862302
-27.2702430314
-27.0752438323
-27.4749292867
-27.1552781592
-27.2790258371
-27.6882664431
-27.1515580547
-27.167839393
-27.3416938452
-27.1192209417
-27.1299625822
-27.2416241435
-27.734092183
-27.1139479353
-27.2921946808
-27.8967085713
18314.8306434
18312.867953
18314.8083527
15863.0145369
15864.8839458
15863.2740811
15864.9213026
18317.3328736
18316.6587212
18317.8629731
15866.4533646
15864.1697496
15866.2200597
15866.1666465
18315.306061
18316.4712367
18316.3761904
15864.7113479
15866.2008551
15866.7847746
15867.2833358
18317.9816998
18317.1685323
18318.3595644
15867.5287527
15868.0349941
15868.4667775
15869.8199933
13414.0109291
13413.0209212
13414.5754629
10960.5684066
10963.2567647
10962.0511994
10964.3696385
13417.0807833
13415.873404
13417.9855198
10965.5137386
10967.1889465
10966.3107624
10967.5226697
13416.697577
13417.0060087
13417.8584887
10964.908753
10966.8808679
10966.8761083
10967.7350946
13418.9924956
13419.0515177
13423.1712881
10968.4635283
10966.4868947
10968.8255308
10972.6624638
8512.85899371
8511.15315612
8514.32104217
6058.01846011
6062.88680471
6059.83183244
6063.99167669
8518.41618967
8517.31609645
8519.73268727
6067.3826124
6070.71627411
6068.14388395
6072.59349977
8516.79099056
8516.06840217
8517.68335477
6062.01468366
6065.9582601
6064.00081154
6067.16327214
8518.14389004
8519.56321418
8523.0321718
6069.84776213
6071.95399443
6070.50978771
6074.47179147
3600.66044216
3602.83822981
621.516803992
623.501354406
3612.84751957
3607.18204336
3613.80753932
626.168264631
641.23246632
627.759502309
641.707709373
3624.50828402
3619.98965285
3624.82542317
645.878449247
651.684835921
645.597023906
651.096467719
3629.32053007
3627.27777779
3628.70581793
652.341812083
651.414372633
651.946665918
651.232936071
3631.06444001
3629.80842337
3630.46939844
651.393821183
652.970927898
651.297502503
653.578245217
3631.56456481
3630.55927995
3630.11615611
654.535654114
657.146880361
655.04883644
656.970333601
3630.78538564
3628.93584432
3627.01386253
656.937077911
656.454367609
655.899494387
653.284719136
3622.44337901
3623.88769491
3614.40149718
657.124629761
657.062849076
653.487547306
652.739778116
3572.97462219
3596.27698117
3592.55842876
657.062731611
612.501888785
652.505261378
633.482881689
3636.81677129
3623.65726738
645.752191899
626.546433336
638.982036311
627.122926857
3605.85698203
3614.3934338
3610.53406603
623.196191551
624.31837975
625.304954641
629.365101135
3615.09276291
3611.96460869
3616.89071068
628.544469812
642.43620278
633.228539449
644.822739116
3625.07012741
3622.0184687
3625.86970378
645.895706711
650.968296321
647.685542881
651.842085357
3628.56835917
3628.67773326
3630.58848676
651.823459987
651.458087116
652.651337288
653.328631727
3630.13623906
3631.09471646
3630.04286469
651.515809075
653.917375694
653.435870878
654.418981619
3628.04726996
3628.3042487
3625.86842533
655.326407119
656.161755042
654.540403552
652.497218185
3622.07623051
3623.37341865
3620.79652387
654.797009731
652.17027389
651.658586617
651.420733569
3612.86085938
3618.17736759
3615.61073691
652.44193861
652.481207152
652.090692431
654.23126229
3619.39782206
3612.66471593
3628.94096181
652.693286747
636.557760609
655.352187295
641.101038456
3623.91151659
3631.23922227
3623.61899376
636.615527504
626.660179281
630.557471646
623.932642477
3614.53061613
3619.03853345
3617.55473802
625.128589785
631.254591033
624.843804197
635.19395347
3619.63996217
3619.09811905
3622.30639013
635.078037354
645.755705276
639.56154582
649.916703284
3626.53237743
3625.11981481
3627.15094876
648.293205642
652.319715132
651.543876751
654.082601971
3629.78075138
3628.47372758
3628.77913272
653.100911173
653.848900355
654.572591137
654.430215586
3627.90025569
3627.91157421
3625.9902352
653.956315264
653.906163655
653.810485133
651.411891438
3623.75258508
3624.01537758
3622.69507383
653.527600473
651.478516074
650.302186528
651.898171801
3620.8642274
3622.16161486
3621.86520371
651.38130249
652.267628909
653.354781156
656.391169925
3619.72226564
3621.80233273
3622.35661232
653.066039918
655.363401269
657.189770616
659.133071754
3633.48143531
3623.83544433
3634.93599875
656.517454593
641.865829861
660.280216822
643.055643794
629.815050869
623.368496677
3619.97737546
3621.68067324
624.705689324
636.029132938
636.786816081
3624.55439674
3623.61984796
3626.23553831
640.850034755
651.127784098
642.063091763
652.511742171
3627.66075201
3627.79350622
3628.14055387
652.444560047
654.576830284
653.703451364
654.770747992
3627.55824783
3627.80104411
3626.68065803
654.888056317
653.793788553
654.660072272
652.081830789
3624.56254249
3625.40224504
3623.99291289
653.041731559
650.73377654
650.860722809
650.770278742
3622.70054896
3623.2205455
3623.37829974
649.899492542
653.20728264
651.755744758
656.014032667
3623.00717255
3623.72050168
3624.04381063
654.849877694
657.611477976
657.18346721
659.729824428
3624.14919055
3624.46848974
3625.44788477
658.352210067
660.286854697
660.570514881
662.421150125
3636.18077151
3627.4920829
3636.83374718
661.48074584
642.832610782
663.768398749
641.73297635
3629.09910322
3630.3821908
653.458034913
654.593697146
653.381010423
3627.18304993
3629.83932175
3628.42158988
654.537699533
651.551912301
653.553102983
650.289709105
3624.64194287
3626.81422076
3625.83050258
650.026347661
651.607133355
649.203033036
651.474525421
3624.27244474
3625.40646335
3625.36483782
652.88581793
656.160537055
652.66831156
655.812797321
3624.79964481
3625.52746721
3625.83325052
657.226138864
659.958975784
656.884995685
659.069926821
3626.42199815
3626.33213778
3627.22554332
660.692552042
662.71315441
659.724651745
662.059984899
3636.88949215
3628.74492058
3636.42039829
664.142743444
640.913832977
663.081872835
639.394382746
3625.97832967
655.341735918
3626.65505198
656.2434026
658.220715635
3627.79836474
658.997460604
661.547418075
3635.90121054
662.333389677
639.240868618
-23.0432753511
-23.0105526318
-23.0604462878
-23.0390555513
41.5350204763
42.1988234531
-22.8716885224
-22.8621603871
-22.9201994691
-22.8962376073
47.0560295307
44.5702390754
46.893438164
-22.9993218571
-22.951683312
-22.9835810906
-22.9153488173
49.8236641311
48.7760665796
49.2537178657
-23.0048026993
-23.0367815905
-22.9893710543
-23.0506281661
47.7304503134
49.0339872189
47.8115731709
-23.0390536938
-22.9793961431
-23.0683257277
-23.0103760647
47.9430975473
47.8934271837
48.3725466104
-23.0064682667
-22.9870656952
-23.0051574669
-22.9763431142
51.9184088477
50.1404470226
52.5928967259
-22.927264642
-22.8865362899
-22.8948192907
-22.8381736743
56.2972747156
54.7503078247
56.6828194804
-22.7403693
-22.7232221857
-22.6934420476
-22.6798378408
59.2294810201
57.9572287875
59.9536079726
-22.7909330216
-22.8442825936
-22.7660176419
-22.837384429
62.582413893
59.2457713954
64.0232692083
-22.9437100556
-22.8750414066
-22.9508042009
-22.8448946426
37.8814836887
33.522440959
37.1865898566
-23.0791449734
-23.0886198091
-23.083634129
-23.1311560662
42.3852521844
40.0856991037
42.0547883152
-23.0896101607
-23.0568841131
-23.1733698673
-23.1561757354
47.1822782693
44.6090846247
47.3212783937
-22.9908864113
-22.9723562951
-23.0978997925
-23.0477256752
48.9225602717
48.928569476
49.1769822194
-23.0057793959
-23.0730185263
-23.026913863
-23.0882842442
47.9886015931
48.9623609969
48.2622808996
-23.0961076109
-23.0371131244
-23.0917535718
-23.0483697798
48.378080883
48.2591145564
49.0935652816
-23.0311784012
-22.9715970206
-23.0598232104
-22.9873113166
52.7958635214
51.1167404018
53.4188677335
-22.8832549952
-22.8096214863
-22.8406230142
-22.7851940177
56.6319211544
55.0071753007
56.6707050779
-22.6852176638
-22.6711524942
-22.6910994242
-22.6899026995
59.4349433999
57.1502780189
58.3895617012
-22.7633075613
-22.8370903794
-22.7736202615
-22.834893444
63.7992676488
58.7806618928
63.4219065397
-22.9329010096
-22.8243071955
-22.9264440834
-22.816221607
36.7018558532
32.7864821668
35.7394199525
-23.0827006152
-23.1793616566
-23.0870869799
-23.2090862916
41.8329819638
38.023197799
41.772029995
-23.106993854
-23.0696690897
-23.1352703462
-23.1062652277
47.6808731607
45.1734935575
48.654529024
-23.0968301613
-23.0393275326
-23.1330764551
-23.0812068588
49.8033909662
49.9538038405
50.5648931372
-23.0470067476
-23.0812672272
-23.0779063472
-23.0888367636
49.1136201109
50.433094573
50.6899904723
-23.071178964
-23.0328810089
-23.0630954792
-23.0139434575
50.9237479957
51.4545942704
52.7814165109
-23.0030615066
-22.9334400454
-22.9676431786
-22.8915906236
54.7062501376
54.5836282731
55.9905247326
-22.8592548819
-22.8292710782
-22.8455315741
-22.8271806948
57.0430420963
56.820330855
57.8868495479
-22.7209508603
-22.7206331469
-22.7359854352
-22.7313989978
58.3081401597
58.1703837084
59.269780894
-22.7829819331
-22.8247339744
-22.7791107099
-22.8104648873
63.1446619381
59.0749444039
62.5999060299
-22.9101547529
-22.8205033807
-22.9014555484
-22.805453979
41.1485108334
40.2695610671
-23.1824806044
-23.12508903
-23.1352240239
49.5048613023
45.4509132501
49.461863071
-23.1312907843
-23.0773979461
-23.1333941801
-23.0636722552
51.3242578249
50.8769617626
51.5590284705
-23.0729155718
-23.0622831381
-23.0586236547
-23.0369290626
51.8600698402
51.9493058006
52.1743329449
-23.0306659542
-22.9737506298
-22.9974880528
-22.9203466185
53.9394020252
52.928822232
53.8809307893
-22.9317759992
-22.851597972
-22.9040678667
-22.798180725
57.0095051902
55.9126298036
57.4481101366
-22.8099815546
-22.8035178956
-22.8155356042
-22.8301491493
58.9680214436
58.2921672426
59.7384356659
-22.7361436048
-22.7417922612
-22.7515743097
-22.7673336706
60.3050132467
60.5363979176
61.0377683282
-22.767380463
-22.7878993187
-22.7790415585
-22.7944781201
62.2872197929
60.5640870427
62.3162178261
-22.8741333075
-22.7864590285
-22.8879187103
-22.7983548582
50.5636184968
48.5071568289
-23.0458703859
-23.0227385672
-22.9652884922
-22.9481098045
51.6635141493
49.3940204032
50.5848435699
-22.9769953767
-22.900347415
-22.9209697165
-22.8450099678
53.9195836035
51.7548257166
53.0425568678
-22.8495823961
-22.834656491
-22.8321506575
-22.8736174382
56.7953339468
54.6228872514
56.403518524
-22.8315714846
-22.8157239879
-22.8457608787
-22.8403319332
59.7234163468
57.4755180149
58.6564653209
-22.7860781786
-22.7843583664
-22.8107225957
-22.8134402457
61.1306687795
59.4666888498
60.7335377574
-22.7980244111
-22.8170882588
-22.8372863211
-22.850099418
62.5005575751
60.7939990178
62.94386387
-22.9042313133
-22.8109497974
-22.9296629549
-22.8518921507
54.7727734282
-22.8511823144
56.9400149079
-22.8389432774
-22.8599964308
-22.8681709752
-22.9029904235
60.1810822474
-22.8902317957
-22.8959939903
-22.9320843883
-22.9319406648
63.3868300916
-22.9824854954
-22.8969112052
-23.0082341178
-22.9224332777
1756.35903026
1758.76767741
616.717541289
621.889746451
1758.7261793
617.095209394
1756.42268392
1757.6914787
1761.44321532
622.665212462
619.480010444
1759.59304641
1759.9623497
618.200119387
1768.08929103
1762.67374417
631.159878847
626.571122148
1762.84182492
631.383946724
1767.76580434
1773.55190544
1778.79611688
636.376927869
641.072018223
1778.78264153
636.46128834
1773.31992271
1768.86592084
1765.17312232
626.992472952
632.538127784
1763.58023472
1770.19044289
631.736497879
1774.2869541
1780.05889154
641.253811943
637.449442498
1779.27539655
1775.32622835
636.928746083
1787.49383669
1783.47909438
649.221500956
645.524229375
1783.37586224
648.875346253
1787.58249741
1790.2813132
1792.27833595
650.91209639
651.496424707
1792.20555986
650.669662229
1790.36142488
1787.57215172
1784.226219
645.225475796
648.377486505
1783.60664364
1787.93214571
648.434368491
1790.31838074
1792.33475787
651.248730214
650.143753929
1792.23328545
1790.46174059
650.380453669
1794.73810338
1793.85859549
652.424376625
652.188335408
1793.74791819
652.274426293
1794.94420611
1795.35744778
1795.99931535
652.030775108
651.309084719
1795.66385683
651.866310114
1795.67049334
1794.60311754
1793.83238051
651.955119713
652.028455735
1793.74845776
1794.56581267
652.067735773
1795.1257366
1795.30702573
651.177025799
651.664252875
1795.40388559
1795.01163824
651.708748269
1796.45382442
1796.36824292
651.618250852
651.334410047
1796.04657293
651.642353576
1796.73031745
1796.81205534
1797.49656985
651.966536768
653.156277641
1797.23116532
652.074360223
1797.07526739
1796.21439211
1795.67715067
651.251486844
651.727827343
1795.78222906
1796.15821402
651.627927382
1796.60529607
1797.19858239
653.329998432
652.397834165
1797.08248804
1796.66467172
652.174549495
1798.01723873
1798.01860924
655.887739349
654.769547355
1797.75856774
656.028049345
1798.2438585
1797.76323784
1797.34020719
656.765888692
657.313526384
1796.63511732
657.01670611
1798.1836336
1797.84102766
1797.67393904
655.002160476
656.229599509
1797.61774339
1797.62192189
656.187791005
1797.28239859
1794.61357038
657.35096611
657.099573552
1795.73365348
1796.67906614
657.223647018
1792.74933951
1795.82728366
656.529569358
656.904581583
1794.80019358
656.34157441
1794.08466152
1790.94827065
1791.96384254
656.115719775
655.580258438
1789.70873811
655.630847836
1792.71254851
1791.00051838
1791.87286987
656.596829884
654.678036996
1793.47633867
1788.99763816
655.703138619
1788.84243097
1784.84347331
654.449198864
653.457672367
1787.26009184
1786.6176955
654.637275505
1787.50938831
1791.64130072
657.678167048
655.91790175
1788.85896761
656.204462533
1790.9777925
1784.87047859
1783.91815487
657.617615159
655.048532139
1780.29909364
655.814364377
1788.68198174
1784.51992211
1783.67289654
654.694456159
653.614936477
1786.165021
1782.21918444
654.784254232
1781.85967424
1776.45015265
653.382565877
653.495405741
1777.53528832
1779.99116304
654.37195109
1765.93794002
1776.49439475
658.993382872
654.738009162
1773.66357957
656.198477404
1767.09063168
1755.97831041
1760.89033016
662.868404684
621.483435257
658.518317874
1767.11617646
1754.90659617
1765.77445609
1771.84051596
652.932993767
655.080314505
1771.78332379
1767.28650596
654.920388063
1757.11412582
1782.20405233
629.129949975
660.310275819
1759.89213597
659.719859403
1775.58814212
1794.53744789
1808.84225029
639.031286724
643.709901115
1795.46582246
637.668667889
1806.81677636
1783.15623672
1771.90922651
631.502603577
627.088286667
1782.67744255
1773.61221018
631.262850128
1793.14480537
1801.36968624
641.322754531
634.384681497
1791.29186473
636.099091863
1804.23826463
1783.10021045
1775.12964073
627.215701613
630.004345373
1774.65960814
1782.4427577
630.708723808
1764.56128988
1765.04489235
621.394312094
624.341340127
1762.03932167
1767.34788251
622.915732101
1764.51572742
1764.40911571
620.924401875
625.604721452
1761.99103325
1767.42353604
622.595239411
1767.02807692
1770.71552933
625.06258957
625.045678699
1769.21697182
1769.30040389
624.176404081
1767.1351573
1771.9947732
627.465635803
626.33217367
1769.7529184
1769.81142405
624.445830579
1773.12565939
1767.36395758
633.408756222
629.818940551
1771.62485643
1769.80897683
634.532775401
1777.47458236
1780.81439901
638.333219273
643.213670394
1776.32185532
1781.84704793
639.32529734
1774.82716934
1774.06066582
631.515792997
637.141752479
1772.13528546
1776.63259767
635.866986359
1778.77064483
1784.08027147
643.969666909
641.262158105
1782.83738493
1780.3516786
640.227739024
1788.45172191
1784.72625624
648.378256808
646.383396298
1788.06127992
1785.42417169
648.760294324
1790.69409784
1792.17266563
649.960761518
651.130906081
1790.3605042
1792.55380534
650.169864239
1788.82348964
1787.02531296
647.013344249
649.573521689
1786.13529173
1789.50710013
649.064007111
1791.03527582
1793.42759437
651.395234252
650.848323186
1792.93010094
1791.60679537
650.393307671
1794.63951275
1793.5747362
651.974291892
651.991258458
1794.27412056
1793.91293438
652.276520212
1795.13645718
1795.2378985
651.764810028
651.999469846
1794.80201298
1795.55510633
652.131616706
1795.01598094
1794.72112444
652.215438164
653.055743802
1794.29298906
1795.37488924
652.513153357
1795.43825599
1796.39093664
652.848171099
653.269657814
1795.87262432
1795.81688576
652.664105623
1796.40062235
1795.63846798
651.952445481
652.013068297
1796.10502431
1795.949734
652.388293829
1796.87780311
1797.30686037
652.672131481
654.19165536
1796.63518722
1797.33231005
653.070779898
1796.67857833
1796.76512973
653.021900652
653.657207873
1796.33302084
1796.71166309
653.168862477
1796.74380059
1795.26628212
654.411833228
654.072224047
1796.5128485
1796.21341457
653.748093656
1796.22538464
1797.53011145
656.306028376
655.441809413
1797.05352346
1797.19482056
656.104935786
1794.12011496
1792.99046182
656.747774763
655.19544014
1795.56995569
1791.18130984
656.160072253
1794.21183198
1793.80651347
655.160533566
654.169060382
1795.75400523
1791.8564436
655.243811667
1791.9925226
1787.01484136
653.827941938
653.334161344
1789.13702088
1789.5199427
654.714905552
1785.11878196
1790.00708256
653.502712051
653.523290058
1786.93718544
1788.07855119
652.413276343
1782.93354729
1782.76175239
652.375291197
651.36448564
1784.48605698
1781.64926801
651.550929843
1783.8585693
1784.84094516
652.36106322
651.366474109
1786.28623198
1783.11401192
651.638615692
1782.18431722
1781.82902446
651.112601156
651.203911189
1781.4128068
1782.13218124
651.166052893
1779.97040897
1781.61195212
652.704395799
651.800232702
1780.31482775
1780.76505019
652.284170202
1778.76801331
1775.95320349
652.838514186
652.903408825
1778.39375971
1777.21760291
652.827304663
1780.6095583
1781.7546082
651.699036004
652.988972317
1780.92010324
1781.76465671
652.40088552
1779.91223474
1780.94700084
653.479554027
653.767994299
1778.99130798
1781.47090665
653.135403911
1772.84814609
1773.26062759
656.444932595
653.459835361
1770.25711596
1775.37574405
657.69793111
1767.12013762
1787.25564547
662.763498081
638.255415983
1764.42022561
664.32596147
1789.99306256
1775.41163178
1779.70323215
654.400640392
659.421901284
1777.64576267
1777.35128547
658.65603208
1769.9202718
1793.01817558
639.940713164
664.897720245
1771.39306618
664.774118007
1791.85195107
1786.79357096
1798.39309035
632.565202169
634.180083104
1789.15410889
630.497724483
1795.24783852
1780.06829908
1775.24863811
628.929741799
625.754140331
1781.34912858
1775.52256099
627.527159393
1784.99318652
1790.91112596
632.192335098
627.536892021
1783.83309366
628.779800608
1792.71531338
1779.26261435
1776.60759407
624.732516498
624.994056647
1776.04941086
1779.01544159
626.081839466
1773.57684701
1772.06001974
625.479737992
624.788225383
1771.46097205
1773.47056676
626.129767217
1774.54925384
1773.68586978
627.863720849
632.766934259
1772.3399007
1775.73289674
629.2380302
1775.13613188
1775.75877685
624.471732445
627.638830542
1774.72846531
1775.98947962
627.047629676
1775.80864434
1779.3931437
634.106911667
631.329544489
1777.70573504
1777.29595167
630.568939876
1780.94719708
1775.75692746
638.811819111
636.712756844
1778.68208809
1777.96150825
640.341402315
1784.0918015
1785.40772282
642.590330615
647.017769017
1782.12631915
1786.99142951
644.013935874
1783.18443272
1782.08367947
638.199805944
643.575069167
1780.16225099
1785.24176721
642.044839879
1786.09082766
1790.19185011
648.535323813
647.376413915
1788.62421301
1787.93629073
645.797250689
1791.3261631
1788.0504919
650.053015014
649.27247554
1790.34862637
1789.32647116
650.777206778
1792.9459351
1793.85480314
651.393879693
652.909998463
1792.2554362
1794.18132051
652.023114422
1792.24247609
1791.83312266
650.488628834