/*--------------------------------*- C++ -*----------------------------------*\
| =========                 |                                                 |
| \\      /  F ield         | OpenFOAM: The Open Source CFD Toolbox           |
|  \\    /   O peration     | Version:  v1906                                 |
|   \\  /    A nd           | Web:      www.OpenFOAM.com                      |
|    \\/     M anipulation  |                                                 |
\*---------------------------------------------------------------------------*/
FoamFile
{
    version     2.0;
    format      ascii;
    class       volScalarField;
    location    "9.6";
    object      alpha.water;
}
// * * * * * * * * * * * * * * * * * * * * * * * * * * * * * * * * * * * * * //

dimensions      [0 0 0 0 0 0 0];


internalField   nonuniform List<scalar> 
28582
(
0.999996851921
0.999992349016
0.999996706082
0.999994801103
1.00000040336
1.00000048192
0.999998535905
0.999998418296
0.0529354815248
0.0552918038833
3.52424167815e-06
0.999998488206
0.880863616127
0.879172131125
0.999997783402
0.999998104304
0.876444115708
0.998848317907
0.998914851223
0.999998802641
0.999995726208
0.999997948715
0.999998196648
0.999996382749
0.99999857818
1.00000104352
1.0000008494
0.999989252344
0.999996540985
0.0568790370086
-7.70918036127e-30
6.33492537129e-26
0.999988564154
0.999998536299
0.875269455969
0.874110479032
0.998691764343
0.999994303061
0.999997731897
1.00000064811
0.998845816753
0.860722704107
0.998884192944
0.998781177056
0.0535021369361
0.0546336197075
0.000300063582022
0.000488859292034
0.0543882503458
0.000462003594018
0.998956140091
0.999042339715
0.880336876999
0.882682233993
0.999083346097
0.88204993438
0.998923077229
0.998997836
0.998875118766
0.879930610082
0.880577857313
0.998978789975
0.881418694421
0.998891331633
0.998915382492
0.998861702558
0.872957077457
0.878026482943
0.99895169379
0.874777786218
0.998825623789
0.998782996673
0.865883065623
0.868376714449
0.998873801899
0.869314794365
0.871523655776
0.99878109809
0.998934408495
0.87051056319
0.873897523542
0.998947940445
0.877189226466
0.998969884786
0.874599959301
0.0536161939743
0.000102685418568
0.0534748415252
0.054890395937
9.29361449957e-05
8.81382566667e-05
0.0558717476011
0.000295430929068
0.000360196468168
0.0573102797668
0.00038663959206
0.0584979494646
0.000384967682666
0.998316460679
0.99839269502
0.875376753412
0.876615589708
0.998351856193
0.998367871428
0.876837291742
0.998294841466
0.998326563001
0.874995201621
0.875738955702
0.998339482586
0.998284883101
0.876506270015
0.880141049724
0.879866021019
0.998688231522
0.998498949958
0.877666209162
0.998499458098
0.878236317415
0.998785120053
0.863684636759
0.865376281191
0.998834337196
0.862217617494
0.998777158699
0.863245737488
0.998806458351
0.998682498177
0.861378023224
0.861637523595
0.998746826517
0.998758153437
0.862390426308
0.99883493503
0.998879419448
0.867158426372
0.870610000257
0.867374500872
0.998865167202
0.864376389242
0.864929416479
0.862656067484
0.99872362806
0.998832654611
0.862230789472
0.998788544595
0.863262618815
1.00000061759
0.999994254028
0.0600261760851
-6.65879713406e-27
0.999997314823
0.879290892508
1.00000055865
1.00000057612
0.859748372317
0.860912132109
0.857789043012
0.999998655851
0.99999808268
0.857919026299
0.857477469588
0.0543079554041
0.0589288213931
0.0602887971932
0.00038246194601
0.000372418864979
0.000354928706534
0.0612541030817
0.0620699051888
0.998473300773
0.998681198916
0.876976957892
0.878752856671
0.998489639797
0.876424214456
0.998660911227
0.998557315829
0.998590113105
0.858270547113
0.860279667919
0.998492858497
0.998676903447
0.858839991831
0.998631386295
0.998641232909
0.861026460532
0.859372107498
0.998722532419
0.860083211662
0.998551367809
0.9985538967
0.998493757643
0.858095869246
0.858132747207
0.998531181573
0.859038275053
0.998501062237
0.998546941247
0.998495927732
0.857650687884
0.858210151479
0.99852863401
0.857263869752
0.998512091211
0.998598618538
0.998622338483
0.855630784363
0.85803502986
0.998626379039
0.856696299057
0.998560605579
1.00000816769
1.00000238728
1.00000207022
0.999998356179
0.0309923065141
0.0382537752608
0.0330884149129
0.0397194657017
0.0403451095812
3.11576136037e-09
1.77726820168e-05
4.39743160565e-07
9.34087370561e-06
5.06195438152e-06
1.09794775537e-05
1.00000161082
1.00000119884
0.950740766496
0.951803648373
1.00000435319
0.952542268287
1.00000171144
1.00000269476
0.951825616264
0.951160214508
1.0000101807
1.00000656964
1.00000948478
0.952379094188
0.953564761993
0.95122510636
0.946085205016
1.00000837095
1.00000383445
0.950116764815
0.911832881101
0.937453865999
0.897798454966
1.00000367233
1.00000270298
0.950011871906
0.939403076994
0.9236696682
0.999997058537
0.999999063344
0.999993704255
0.930974813211
0.89467987622
0.915454430181
0.886470488161
0.913597056771
0.886094807192
0.0297209779269
0.0294647099702
0.0307824066543
9.37005459406e-06
1.20844116906e-05
9.68901342504e-06
1.86820004864e-05
7.9637347873e-05
0.000715638007374
0.000108819225963
0.000473137976705
0.0293232322199
0.0294839081086
0.0333743624045
0.0314846181962
0.0349545216839
1.24396818036e-05
4.50523220566e-05
3.39632881832e-05
0.000123473191901
0.0431668396792
0.039494100432
0.0427435017264
0.000184824515913
0.000436250437885
0.000279055852301
0.000481771431335
0.0367721502288
0.0376764520088
0.000136327329215
0.000250714867145
0.000325435753053
0.0425955118898
0.0400865018548
0.0427987709939
0.000346508862835
0.000483259817075
0.00038566738045
0.000489768790546
0.999719374824
0.999712879734
0.949850614359
0.951250066767
0.999729177239
0.950411742465
0.999699979858
0.999710005557
0.999754112967
0.951519834554
0.951192219154
0.999724835094
0.999736898427
0.950801040931
0.999914966969
0.999805153833
0.9523878082
0.953246433133
0.999790143153
0.999905642897
0.953252476546
0.999745452761
0.99976762031
0.951423398602
0.95176926631
0.99975791126
0.999754673714
0.951561260171
0.999755431225
0.999776479944
0.951673249847
0.951061662985
0.999773372354
0.999757956342
0.951506214463
0.999884767899
0.99980236685
0.953027299774
0.952146564601
0.999892842844
0.999787587774
0.952690530394
0.999974977689
0.999994835666
0.953539558441
0.952473503957
0.999986612772
1
0.952865267026
0.999863302717
0.999796749918
0.951836544707
0.951381851649
0.99981760592
0.999878090238
0.952158528684
0.999953660378
0.999964669667
0.949658438043
0.949571086747
0.999986836185
0.999959013865
0.951251463737
0.999908255858
0.999995099169
0.94406120189
0.947976623006
0.999963048494
0.99997349803
0.939553253122
0.999821864155
0.999676701958
0.930180577837
0.905785084208
0.999846500672
0.924171693743
0.999589526657
0.999855579611
0.999937092819
0.942953204977
0.926049117394
0.999938100729
0.999830272097
0.932568899943
0.999725078367
0.999494873631
0.902143496824
0.912324209341
0.999701901849
0.918562556494
0.999503490482
0.999848499038
0.999834789103
0.949040722788
0.94813301029
0.999888847874
0.999807874811
0.945738090325
0.999886715391
0.999907509253
0.945111416392
0.933253579977
0.999900557012
0.999860815575
0.940266102883
0.999865580303
0.999769699268
0.928109306444
0.931007555074
0.999831097064
0.999816081685
0.93532320148
0.999691018224
0.99986621073
0.920052537116
0.924427548849
0.999750485853
0.999791359354
0.913718375337
0.999543159352
0.999375218992
0.907810041164
0.89027594273
0.999601041891
0.902142220695
0.999297257218
0.99960120385
0.999698705393
0.919732411543
0.906141207137
0.999751993257
0.999557794088
0.909530426511
0.999428282915
0.999169687194
0.888327380613
0.896328117301
0.99938947191
0.899098430157
0.999205736175
0.999514417813
0.999647654122
0.904666650656
0.912510332955
0.999507624981
0.999635782028
0.904322247907
0.99916182955
0.89558081035
0.999358855921
0.999994631565
0.999992088741
0.999995597997
0.99999773497
0.999997589329
0.999991021173
0.999996296782
0.999996118676
0.999996998748
0.999998958298
0.999997246615
0.999989466588
0.999999836049
0.999994443629
0.999951667801
0.999982312548
0.99998858524
0.999993527293
0.999996255116
0.999989147663
0.999996804531
0.999997800174
0.999986471273
0.999977042108
0.999977016287
0.999983104432
0.99999627271
0.999991370637
0.999997316992
0.999991578691
0.999990114982
0.999993653085
0.999997200653
0.999999154341
0.999999140385
0.99999425721
0.999997397346
0.999991429319
0.999992006263
0.999997441562
0.999999043894
0.999999025014
0.999996533069
0.999989821007
0.999998976926
0.99999908758
0.999997972741
0.999989922708
0.999995921388
0.999784937753
0.999955658594
0.999997124265
0.999999437596
0.999999048236
0.999961114679
0.999917079537
0.99998737169
0.99997775711
0.999915641917
0.999974264737
0.999997591557
0.999999282352
0.999997587966
0.999988705328
0.99999377655
0.999985009133
0.999979554704
0.999985371542
0.999995660695
0.999999265877
0.999999284437
0.999997866768
0.999998124761
0.999997674747
0.999998055167
0.999998641009
0.999999039843
0.999999010702
0.999997955297
0.999996889192
0.999998918448
0.99999897996
0.999997266717
0.999993385372
0.999984769008
0.999784937751
0.999979685156
0.999999910614
1.00000630477
1.00000608539
0.999999104156
0.99996448948
0.999969423374
0.999928640184
0.999965071506
0.999996228202
1.00000223057
1.00000708217
1.00000856519
1.00000578712
1.0000002482
0.999997170025
0.999997255899
0.999999264134
1.0000009292
1.00000276204
1.00000390144
1.00000386859
1.00000015753
1.00000058596
1.00000058755
1.00000071857
1.0000010073
1.0000014505
1.00000174433
1.0000017196
1.00000176201
1.00000065263
1.00000083117
1.00000125997
1.00000176699
1.00000196332
1.00000193694
1.00000219349
1.00000070096
1.00000068383
1.00000091975
1.00001562217
0.999998616133
0.99998599465
0.999993612057
0.999996887064
0.999998503965
1.00001838584
1.00001739474
0.999986817681
0.999998830464
0.999998175338
0.999996022176
0.999996070238
0.999991718471
0.999985270052
0.999989617462
0.999985805188
0.999991635407
0.999988141209
0.999990393662
0.999993227055
0.999993836686
0.999992640101
0.999988734038
0.999987077929
0.999991679784
0.999992045737
0.999986094645
0.999991313335
0.999993208834
0.999993745835
0.999992197334
0.999990676022
0.999990417478
0.999989115665
0.999987960606
0.99998666373
0.999989806337
0.999990918232
0.999988913525
0.999985794354
0.999985019172
0.999985696045
0.999994331719
0.999998454191
0.99999577509
0.0556599550732
0.0581861194498
0.0554207967724
0.0541319281596
0.0564207202714
0.0605485636853
0.063861988687
0.0650194636766
0.0452222833279
0.0492535989474
0.05540431764
0.057989595768
0.0559504557022
0.0555005536817
0.0585484603968
0.0615386101334
0.063957867553
0.0645023529851
0.0450444853841
0.0496934545114
0.0550532713593
0.0572029186881
0.0573076560175
0.0585139502367
0.0609660710293
0.0633523372042
0.0644543002377
0.0637672621658
0.0476736882188
0.0548556961351
0.0568182881691
0.0579350076052
0.0595213683391
0.0613736984979
0.0644861752342
0.065462596759
0.0653946841857
0.0557105403266
0.0565809859904
0.0571920143072
0.0614330137482
0.0637225604571
0.0655575966436
0.066321807655
0.0622051191959
0.0639817147932
0.0654344286053
7.59035862667e-05
3.66041632524e-06
4.13045169505e-25
-1.54520226056e-25
4.55644163603e-07
2.13566963332e-06
4.01003034807e-06
-1.36165452775e-29
-1.95298315148e-28
9.75803076149e-05
0.000101759707793
0.000105080255119
3.81705148902e-05
-1.06395293062e-24
-5.82476448345e-27
1.78824560712e-05
3.12753851275e-05
-3.27975046456e-26
-1.9007714255e-27
5.48631237412e-05
7.8852361032e-05
-4.92160285874e-26
-1.66323123251e-29
-1.52183525414e-29
1.09386227203e-25
5.79458159691e-06
8.6520008801e-05
-6.88923245642e-24
-3.91829065802e-25
5.13993435595e-05
-7.52316384526e-37
-2.38192286653e-28
-3.38099528051e-27
-1.27309975517e-27
0
6.37873940081e-05
-2.6767105183e-24
-6.70287051483e-26
5.5742067207e-05
-1.33985295253e-28
1.14771019132e-05
6.28664905731e-05
-1.66507279338e-26
-1.33551973939e-25
-3.49876555712e-26
6.65318781013e-05
-2.47553278675e-27
-4.17916297756e-26
9.96341085101e-05
0.999999013801
0.999998072715
0.999996777564
1.00000079214
0.999987055815
0.999999022994
0.999993839086
0.999968071924
0.999996473439
0.999997800174
0.999871628608
0.99984307424
0.999963633259
0.999925479402
0.999997050164
0.999992978782
0.999993189987
0.999996157687
0.999995036877
0.999992774605
0.999995851416
0.99999780563
0.999995083231
0.999995676501
0.999988971775
0.999985795858
0.999995565138
0.999992105999
0.999923933421
0.999996612586
0.999977615585
0.999989878857
0.99991892309
0.999986850937
0.999899169695
0.999856408386
0.999836680681
0.999824147696
0.999785131488
0.999840729529
0.999784937753
0.999804622944
0.999988537741
0.999981929366
0.999992057945
0.999979556642
0.999975966827
0.999976631797
0.999989404123
0.999916168135
0.999994254469
0.999994067753
0.999898089741
0.99980969466
0.999985037748
0.999959113627
0.999923328776
0.999980082934
0.999932184027
0.999991247384
0.999956862257
0.999991172927
0.999971544781
0.999858629255
0.99978587092
0.999840608914
0.999887590333
0.999925225522
0.999910262138
0.999929281335
0.999974156892
0.99999020787
0.999992095053
0.999990569591
0.99998834918
0.999997704255
0.999997971517
0.999835857655
0.999986473696
0.999967755029
0.999970283957
0.999956552928
0.999997467844
0.99999749239
1.0000017005
1.00000928969
0.841577087727
0.842199995397
1.00000955941
1.00001481501
1.0000090904
0.846518693195
0.858946751909
0.845898545052
0.85967647586
0.999983951453
1.00000034644
0.99999661494
0.862531023065
0.869695431555
0.862833097372
0.869614731425
0.999990334677
0.999995636463
0.999993594766
0.871221625075
0.875578559239
0.870776621841
0.87344796317
0.999995095144
0.999995279018
0.999999861412
0.876558477543
0.875591115533
0.873947453982
0.872924284128
0.999994927408
1.00000049097
0.99999971748
0.875044508264
0.865294280982
0.871597478365
0.857582781146
1.0000096125
0.999997538658
1.00000759699
0.859061042454
0.847767815954
0.850983213286
0.840428232738
1.00002179154
1.00002624194
1.00003233326
0.847097101035
0.842366656869
0.840395784247
0.833527133518
0.999964279032
1.00000716152
0.999961807199
0.842848043994
0.805354113259
0.836270331762
0.83086242124
0.99999957059
0.999987778425
0.892766387217
0.850459843217
0.88437803818
0.856543141908
0.999992813303
0.999988747069
0.999987541911
0.844323575381
0.844889376275
0.852914526821
0.853477923441
0.999998085346
0.999987746842
0.999989845893
0.84797839612
0.859264803056
0.855783199869
0.861999797364
0.999996799726
0.999989656116
0.999992160371
0.862094130685
0.868838554449
0.86389220622
0.868375450572
0.999996702905
0.999991304307
0.999992802187
0.870269220294
0.872247947935
0.869746907761
0.871347860444
0.999994581048
0.999991528371
0.999993578419
0.873274877928
0.872645929767
0.870102670612
0.862611356628
0.999985343916
0.999989888301
0.999985909217
0.87039435094
0.854753791504
0.858389549573
0.843005108041
0.999986079484
0.999986084507
0.999987649404
0.848831253011
0.839868580995
0.841188638897
0.841032825629
0.999993962881
0.999993176039
0.999992989309
0.840032853646
0.834224304746
0.841983862418
0.841402620791
0.99996710886
0.999989097017
0.999986165525
0.837082092071
0.833897609287
0.845043900761
0.83907569494
0.999990980705
0.999990503336
0.999984502816
0.882752863132
0.857809172049
0.878573027894
0.866275162403
0.999990216916
0.999992546989
0.999992066388
0.855897244022
0.85722831791
0.865029350809
0.868067704446
0.999990810526
0.999992763378
0.999993700395
0.85913466769
0.8635035808
0.868548831567
0.870155426196
0.999993070957
0.999992230773
0.999995049846
0.86496521063
0.867964295392
0.869737692979
0.868348531994
0.999992486147
0.999992888222
0.999993421008
0.868973319581
0.86889285683
0.867386199339
0.859945212548
0.999988374906
0.99998997838
0.999987159217
0.866709061913
0.857460308524
0.856792095639
0.846211625142
0.999986208332
0.999986568296
0.999986621078
0.853334801842
0.843241615528
0.845172022674
0.845411944661
0.999991328839
0.99998864001
0.999991380808
0.842165147448
0.842491076048
0.846599252479
0.847347433657
0.999993698296
0.999994061617
0.999993648018
0.843216620178
0.842441455843
0.847309749805
0.844212184416
0.99999434457
0.999993855954
0.999995353437
0.846656314097
0.84000217939
0.848342926725
0.839348084541
0.879314242558
0.869235343409
0.999990448046
0.999996324496
0.867968336998
0.870476920185
0.874749153275
0.999992044445
0.999996572568
0.999995800878
0.870421446724
0.870302687663
0.874073096685
0.872263727344
0.999992622681
0.999992765463
0.999993189139
0.869484295162
0.867151050279
0.871107230074
0.86815428724
0.999991860813
0.999990867277
0.999990050171
0.865806290321
0.858999365942
0.866448608708
0.859159405592
0.999991912935
0.999990570893
0.999990011709
0.856366923792
0.847090881163
0.857497282288
0.854363349379
0.999993175645
0.9999925727
0.999992523108
0.847642468901
0.848761581522
0.854036941287
0.853190092782
0.999990818013
0.999990569312
0.999989481663
0.848262854163
0.847604763452
0.852386422227
0.848948235365
0.999989536998
0.999987614901
0.999987630892
0.847270008733
0.844436502157
0.847808758065
0.845106394378
0.999991754897
0.999987777669
0.999992229566
0.848279625725
0.839302460741
0.848700089428
0.839807896179
0.999988211161
0.999996648731
0.872983870543
0.87010800886
0.877535798779
0.999991917938
0.999995260758
0.999992151461
0.868646493794
0.860317744125
0.875332674131
0.863854551963
0.999992351213
0.999991532628
0.999989137202
0.859140228622
0.856995729256
0.863501402259
0.861836691278
0.999988463882
0.999987965971
0.999986356475
0.855945542709
0.85248776497
0.859356518248
0.853253199589
0.99998587619
0.99998497821
0.999985980626
0.851747123393
0.849034342114
0.852810474721
0.85057230545
0.999986375248
0.999986811027
0.999989695336
0.84807625858
0.845576987944
0.849900119051
0.845597305412
0.999990668145
0.999989769714
0.999993277533
0.84875411055
0.839179042239
0.848686755883
0.838500187164
0.999993617154
0.855103424915
0.999996687684
0.854444470208
0.851616990705
0.999998660211
0.851588129996
0.845353560723
0.999995591298
0.848586433774
0.83908863112
0.0012178992263
0.00111747390523
0.00121876736365
0.00123682436299
0.0531418106476
0.0533599685031
0.000581039834808
0.000467409061841
0.000641357104234
0.00051883329523
0.0573989021518
0.0561272630049
0.057505372873
0.000299178326205
0.000175882525777
0.000384276031939
0.000214545582443
0.0566826341589
0.0580244552257
0.0565244911499
0.000103054860546
5.19561366938e-05
0.000106478612257
4.81018237756e-05
0.0545124692808
0.0554159331758
0.0548005515163
5.92084043213e-05
8.27304458188e-05
5.12260701718e-05
5.14770434589e-05
0.0552971619463
0.0546243593867
0.0561033873632
2.15377064269e-05
1.51034602877e-05
7.45977087913e-05
3.98301487822e-05
0.058463533661
0.0575858047869
0.059439957555
0.0001425689434
0.000497913922562
0.000216335714616
0.000568676313519
0.0624100064863
0.0610843703993
0.062731293607
0.000650928297637
0.000706267555634
0.000685105516997
0.000731529291585
0.0648466025586
0.0640202490722
0.0654956083169
0.000570453312952
0.000514293822975
0.000577904930021
0.000541628526461
0.0657366124332
0.0644035616962
0.067821926334
0.000852358524664
0.00244708563026
0.000866599412398
0.00139911538428
0.0473308606857
0.0449573154503
0.0471739394377
0.0012722771694
0.00165832700716
0.00121413355926
0.00159818587748
0.0522431052703
0.0492991435759
0.0523446420576
0.00146640716307
0.00143150157022
0.00113712432065
0.000828217893401
0.0574474387642
0.0552696748911
0.0573727414341
0.00106831425648
0.000433292782957
0.00049394878826
0.000254734512296
0.0568949538381
0.0577248713193
0.0572457500302
6.83335210688e-05
3.76056177836e-05
8.81044525779e-05
5.41740765354e-05
0.0555694620229
0.0566927343808
0.0565728547884
3.46776982264e-05
2.60155457157e-05
4.68004581838e-05
3.92175204849e-05
0.0567794989462
0.057021683492
0.0583673378981
8.0234796578e-05
0.000207173805957
0.000146810194476
0.000432767294434
0.0601250502434
0.0597274120922
0.0610974444923
0.00047151445509
0.000771478548925
0.00083098444234
0.00103840221694
0.0628996947366
0.0623607767256
0.0633773995187
0.000693699664859
0.000663099114415
0.000706303229551
0.000596612739379
0.0653166871168
0.0641070482451
0.0649164997789
0.000556462390028
0.000498765417487
0.00050406061506
0.000453209380022
0.0679766048659
0.063818991723
0.0671675205295
0.000732326716298
0.000905329704789
0.000602077874423
0.000804323302841
0.0472179882622
0.0446163343648
0.0458093802627
0.00102720816938
0.00112289461852
0.000969377651264
0.000969169964435
0.0523334451709
0.048752818286
0.0516272208539
0.00035184027908
0.000199458402021
0.000228562790048
0.000128590048744
0.056866421822
0.0548500063031
0.0562397743941
0.000144804286834
9.80595442189e-05
9.77495160503e-05
7.77205555769e-05
0.0571863295174
0.0569572217894
0.0570933844439
0.000107393087409
8.8027721903e-05
0.000108230522884
0.000104684403326
0.0577304709705
0.0579423931835
0.0587019710892
8.21114441668e-05
0.000143066766241
0.000121483737859
0.000214736057774
0.0599932740653
0.0596151096297
0.0609482378633
0.000282431037332
0.000470568213141
0.000366257625995
0.000563977661017
0.0617290872813
0.0614357052973
0.0625533022169
0.00100328710456
0.00140761915942
0.0012997485235
0.0015244452873
0.0641468252186
0.0641523805778
0.0647670353031
0.000694126405595
0.000568234208899
0.000671295541632
0.000545339418484
0.0650406307979
0.0650109888917
0.0655519474205
0.000510970231146
0.000485027527674
0.00053662928981
0.000538571141935
0.0668776686494
0.0644409259644
0.0670016966287
0.000585441969152
0.000752255963452
0.000653393391305
0.000774201582319
0.0511775228686
0.0505306885579
0.00018561390562
0.000103785339775
9.351291532e-05
0.0560766968018
0.0544295332497
0.0557728969392
8.93839255682e-05
8.37545374852e-05
7.96238424102e-05
7.98920716409e-05
0.0572566477982
0.0564921488745
0.0568230356329
0.000116939635003
0.000114510317521
0.000113107533385
0.000117988455445
0.0587023222258
0.0575168449592
0.0583312740049
0.0001353434482
0.00019764636915
0.000160457434896
0.000245880518762
0.0608134155625
0.0589395876643
0.0602243993552
0.000341956571859
0.000525818451864
0.000390828326763
0.000539961147302
0.0627693014324
0.0612151949816
0.0628744773218
0.00133147044177
0.00136312007494
0.00112313056376
0.0009746047059
0.0650017623011
0.0642619867718
0.0648539700411
0.000614563527514
0.000498461702134
0.000558365785684
0.000459477461185
0.0662062537003
0.065655469141
0.0667611627778
0.00051794228492
0.00054787435122
0.000488844995804
0.000549420176744
0.0670766870056
0.0661291682875
0.0668472844615
0.000746748993212
0.000860171594777
0.000781024411273
0.00104092107851
0.0561256018936
0.0547991873916
0.000116941183349
0.0001371261918
0.000125957126591
0.000156402222792
0.0569986090231
0.0554341549192
0.0556503149194
0.000283568188219
0.000537825962354
0.000383435248366
0.000878470389616
0.0591559537386
0.0559980767289
0.0582795881281
0.00113430902098
0.00110468426939
0.00165069860523
0.00106272871125
0.0627656439768
0.0609068272362
0.062498342897
0.000520286994806
0.000443393693375
0.000428685516581
0.000391226954184
0.0646062385091
0.0633149631829
0.0641097320989
0.000428895193609
0.000428972274674
0.000418051508926
0.000411629075612
0.0667925308581
0.0650124173178
0.0664065185828
0.000440988378804
0.000506299168037
0.000401308887419
0.00046547061153
0.0665510358053
0.0660316641723
0.0664554924352
0.000765516450126
0.00121477647767
0.000756286312005
0.00155418602869
0.0613175209949
0.000396581638879
0.0632009388285
0.000408985246849
0.000420216424098
0.00032467298988
0.000307702446327
0.0656573731287
0.000370741553801
0.000414619283798
0.000278967844222
0.000311877511713
0.0658373409384
0.000775183313307
0.00200067294054
0.000732843701106
0.00221573819595
0.998319745896
0.998361926106
0.838129057001
0.8412248626
0.998360197084
0.836640490074
0.998356612036
0.998237188382
0.998307917731
0.840492457867
0.838004080515
0.998289021287
0.998264253775
0.835455195211
0.998445601258
0.998392749457
0.850679018125
0.845645214179
0.998407045011
0.849660777367
0.998429706782
0.998467027152
0.998475879299
0.854201167275
0.859415037367
0.998504122246
0.853968451023
0.998438276185
0.998328744563
0.998327616673
0.845565245015
0.849966291349
0.998315515986
0.998338134574
0.849406115148
0.998345964685
0.998373228912
0.858934930149
0.854660527242
0.998392310637
0.998337657305
0.85341673328
0.998608993623
0.998539681956
0.865074919044
0.862830220058
0.9985539619
0.864881044852
0.998589517522
0.998661646088
0.998715141123
0.867347147321
0.869390128834
0.998730555377
0.866960644191
0.998630173393
0.998547604038
0.998441292326
0.862994506865
0.865386167679
0.998463882404
0.998505688355
0.865092192418
0.998633658775
0.998727067434
0.869416426815
0.86766210943
0.998744955668
0.998591427617
0.866992306581
0.9989688436
0.998851005675
0.872316047037
0.870978405429
0.99883750546
0.872031135408
0.998952180662
0.999056391161
0.999054628505
0.873524187935
0.875030054936
0.999091343594
0.873221731679
0.999000730165
0.999007749555
0.998906463107
0.871006700531
0.871703954321
0.998886608719
0.999024018793
0.871986857752
0.999060305636
0.999068039189
0.874137954824
0.872515108814
0.999088784023
0.999054390322
0.872769107657
0.999106177752
0.99909640114
0.87642463389
0.875835272509
0.999119842411
0.875658461153
0.999097087065
0.999039026476
0.998863105837
0.876156355717
0.874656347983
0.998878343775
0.875366679343
0.999036766292
0.999103319682
0.999075745594
0.875096127639
0.873711706649
0.999113145537
0.999077410882
0.874989864144
0.999051984215
0.998930217869
0.873818992685
0.8733655928
0.998926282116
0.999038872578
0.874598054024
0.99851963561
0.998679435144
0.873916915668
0.873911421029
0.998700144682
0.872305110698
0.998534255828
0.998328337584
0.998095851613
0.870552501839
0.863064401706
0.99806641433
0.868415145604
0.998363989797
0.998546704339
0.998749612781
0.872566949464
0.86906125263
0.998765509733
0.998513814009
0.870425155189
0.998317477906
0.997890420051
0.860379566571
0.864274019506
0.998013332985
0.998241693967
0.866015936254
0.997726035203
0.997880699057
0.853384242024
0.856870487666
0.997814981859
0.850924734275
0.997799527857
0.997739537012
0.997877979231
0.849890357719
0.844546007096
0.997793918969
0.847119551883
0.997815719197
0.997669767286
0.997657917598
0.854156819718
0.845236841784
0.997745359656
0.997567368428
0.848113147771
0.997683031633
0.997730742983
0.842598236943
0.842369056608
0.997769474417
0.997607593257
0.844548208848
0.997965566524
0.997939018738
0.846617944136
0.843929878101
0.997864164417
0.843438094593
0.9980252261
0.998098670984
0.998403078494
0.844399999016
0.837851845409
0.99830106167
0.840850624019
0.998176234287
0.997974940993
0.997816266864
0.842245291277
0.840027510117
0.997867662903
0.99789715796
0.841718792364
0.998006939958
0.997931803423
0.835225091559
0.837236546915
0.998071444752
0.997897018881
0.838603175905
0.997788241962
0.998340285107
0.837229223044
0.838959188663
0.998247824019
0.833719636633
0.997852619829
0.995903167346
0.995688089238
0.814684199222
0.819893358366
0.807464522252
0.996091850797
0.995458621275
0.997275497809
0.997815422564
0.837944528708
0.833408190291
0.997927958524
0.997254241463
0.833424240859
0.995223674806
0.995831170541
0.826483861766
0.807708737201
0.995460234349
0.804287178628
0.995643751763
0.999053873602
0.999448789914
0.874038953444
0.888499437004
0.999094848535
0.873292422068
0.999341563308
0.998729466895
0.99844693808
0.861250811657
0.852538225026
0.998738739164
0.998460650199
0.862262963293
0.998951955991
0.999257911894
0.887173413434
0.872386011093
0.998944019279
0.873262584972
0.999253597597
0.998637897428
0.998388937113
0.8552691032
0.863872721958
0.998362796167
0.998626209935
0.863880559812
0.998049799512
0.998137081303
0.839187062098
0.847106831406
0.998025974633
0.998140937623
0.843329949101
0.997955011706
0.997937473837
0.84087365936
0.847696883777
0.997927673236
0.99789991643
0.844631041476
0.997964232009
0.998138504335
0.85041761634
0.850781999604
0.998049097839
0.9980769318
0.847472629802
0.997839780019
0.997919210397
0.850921170435
0.85132462505
0.997794250062
0.997964644694
0.848464567346
0.997859781467
0.997936024286
0.851166085623
0.850622136094
0.997924341118
0.997875677542
0.853603124352
0.997853831067
0.997934612834
0.854931575929
0.859451202076
0.997909511273
0.997866868363
0.856161580119
0.997804696908
0.997920731128
0.853067568144
0.858242642207
0.997794481152
0.997944729558
0.855473875334
0.997815702186
0.997990585669
0.860468575927
0.859949548733
0.997857558092
0.997963652017
0.85769192845
0.99802999167
0.99800846677
0.864311506753
0.862533096201
0.998102236188
0.997922098157
0.864880865927
0.998146502422
0.998368364047
0.866603896438
0.868669403483
0.998219968485
0.998262978652
0.866733480084
0.998026072728
0.998035866516
0.862832299941
0.865645959927
0.997930226063
0.998117537711
0.864564426371
0.998126103542
0.998289683535
0.867880001209
0.867063716734
0.99821374186
0.99821010533
0.866050598462
0.998532285716
0.998558744094
0.87129342794
0.870229392506
0.998697567252
0.998400231998
0.871321303293
0.998601680143
0.998720132104
0.871710674065
0.872240061494
0.998720694662
0.99863209188
0.87184912489
0.998411504187
0.998363041156
0.869701723872
0.871154513564
0.998310796503
0.998457385067
0.870998457598
0.998491667615
0.998585446027
0.871978231652
0.871825572888
0.998552570024
0.998537435239
0.871552175554
0.998646361921
0.998727915618
0.873271191928
0.872836446734
0.998734054037
0.998655847623
0.872786398092
0.99860427149
0.998613095482
0.873046428627
0.871510591457
0.998718066333
0.998477732343
0.872634315512
0.998592089747
0.998566018953
0.87158451865
0.868298176235
0.998598484302
0.998525795674
0.870888187542
0.998556725448
0.998275376436
0.867134322332
0.865947441142
0.998426512711
0.998443156891
0.869389037463
0.997976979334
0.998434798628
0.866762207716
0.868164534408
0.99817395038
0.998249189035
0.863538009862
0.997741665127
0.997633080053
0.861278853082
0.850705142089
0.997915407383
0.997485085074
0.8572655066
0.997998292621
0.998086645955
0.863459897064
0.853047565834
0.998229722145
0.99784144113
0.858569170952
0.99779817053
0.997499525459
0.847177569864
0.847603689036