/*--------------------------------*- C++ -*----------------------------------*\
| =========                 |                                                 |
| \\      /  F ield         | OpenFOAM: The Open Source CFD Toolbox           |
|  \\    /   O peration     | Version:  v1906                                 |
|   \\  /    A nd           | Web:      www.OpenFOAM.com                      |
|    \\/     M anipulation  |                                                 |
\*---------------------------------------------------------------------------*/
FoamFile
{
    version     2.0;
    format      ascii;
    class       surfaceScalarField;
    location    "9.6";
    object      phi;
}
// * * * * * * * * * * * * * * * * * * * * * * * * * * * * * * * * * * * * * //

dimensions      [0 3 -1 0 0 0 0];
oriented        oriented;


internalField   nonuniform List<scalar> 
92311
(
0.203975515601
2.53275423425e-05
-0.0011995031899
-0.203840839922
0.00103950025606
-3.20779680007e-05
0.204050879663
-0.000846722506358
0.00080345115042
0.203940375092
0.000128364139046
-0.00123386126549
-0.203866229382
0.00105668242678
-7.55506277914e-05
0.204057454126
-0.000793799556528
0.000720183887608
0.203794108174
4.96069544995e-05
1.82001895874e-05
-0.00108676778577
-0.203684927162
0.00100195596828
3.25648017924e-05
3.63632265156e-06
-4.66429032036e-05
-9.43641513561e-05
-0.000142908592383
0.204117158039
-0.00059421562019
0.000546361270326
-6.68360778376e-05
0.0510219933578
3.64917283126e-05
2.74344040066e-05
3.69705184846e-05
2.31728629281e-05
-0.000342258570218
-0.0510631113687
0.000308932110056
-0.0510419286041
0.051114013359
-2.6937279119e-05
-1.08666833357e-05
-1.34334623524e-05
-2.21198037817e-05
-0.00018250409227
0.000137120671176
-4.52602179474e-05
0.00647612464895
-3.19120240537e-05
-3.42807927629e-05
-2.74864720676e-05
-0.00291064378702
-0.00528460525162
-0.00316803409016
0.00502603846049
-0.0081698969498
0.00840957951099
7.39462666361e-05
0.00250642072091
4.4629026731e-05
5.14453841977e-05
5.38745303749e-05
5.80156976999e-05
-0.0030280824465
-0.0596683176697
0.00116814652067
0.00323160318322
0.00525782970455
-0.0303548018086
0.108976164404
0.0237987231131
0.00200856399321
2.39907204138e-05
-5.59964243628e-06
-5.03770517372e-06
2.04363992949e-05
-0.000256203529082
0.000220699569893
-5.59370665276e-05
0.0118364435056
4.95050372427e-06
1.41844722681e-06
-0.0118320572915
0.0118274586209
-1.33063716301e-05
3.95960413923e-06
-0.011833833879
6.09873974964e-05
-4.52478160766e-05
5.05941794547e-05
-2.54572895512e-05
0.0511706127004
-1.97948623531e-05
-2.5942088008e-05
-2.36075520446e-05
-0.000106768770705
-4.87294486474e-05
0.0510833988569
-5.56422614629e-05
-4.4169324758e-05
-4.33714130327e-05
-0.0510143568552
3.05062366921e-05
-5.70478796278e-05
1.34466242055e-05
0.011857405934
7.22255138293e-05
-5.8535861361e-05
-1.48898142435e-05
0.012783689374
-3.57019044783e-07
-1.58937663656e-05
-0.0127780061233
0.0127738709714
-2.82062594488e-05
-4.45235216859e-05
-0.0127647712394
-1.53553329292e-05
0.204290722597
-0.00204308914508
0.00180088271363
-0.204033160821
0.204108613307
-1.46613319507e-05
-0.000345663111739
0.000302436124378
-2.61369370854e-05
0.204202903987
-0.00020706935218
0.000138855196423
0.000187231613191
0.204340362614
-0.00212217372281
0.00184107187437
-0.204261759398
0.204207824941
-4.71807744465e-05
-0.000456841973585
0.000338832075937
1.47980124465e-05
0.204306965983
-0.000245582045314
0.000105431996685
0.000190233860649
0.000187824630717
0.000169703093109
-0.00204662073335
0.204265268223
0.00174205092899
-0.204507477821
0.000186332030777
-5.41026075192e-05
-3.97862942477e-05
-0.000119106864731
-0.000101658872465
0.204461424633
-0.000254336539028
0.000177372589652
0.0512289563189
7.50023318228e-05
7.64962914529e-05
7.35017698317e-05
7.79245733183e-05
-0.000546608611498
-0.0513102913521
0.000515265777906
0.0511845049208
3.72794816147e-06
-1.02537891865e-05
-2.58950507395e-06
1.6911479048e-06
1.20585893315e-05
-7.26358887269e-05
0.00685661797261
3.33840003877e-05
-0.0111416526197
2.50127773525e-05
4.15315895289e-05
5.37309824666e-06
2.45960987261e-05
-0.00401465024052
0.0120310549523
0.0175668054574
0.0142138868007
-0.0552425843021
0.0126020396202
0.0982406166644
0.00374654801428
0.0147800619812
0.00201382661251
0.00278645291062
0.00270854209181
0.00368688120577
-0.0270814014627
0.0343311185836
-0.00346743651158
0.00043154201084
5.88978201224e-05
5.12796638165e-05
5.71404222854e-05
5.2727685672e-05
0.0512124794747
-0.000447304946139
6.32380099008e-05
5.63821619835e-05
5.77339576011e-05
5.1355004682e-05
0.0511406988993
0.000395298908424
-0.0511634461406
0.000159536721985
-9.42482025195e-05
0.0117726987873
2.54568794583e-05
-5.86307676238e-05
-0.0118048140036
7.62357610163e-05
-5.02982228606e-05
-0.0117474486087
3.36764314497e-05
-5.99875713996e-05
0.0117478402048
7.72355051764e-05
0.0127646455839
-0.000103958790826
0.000100859716964
-0.0127755291676
-4.65695539383e-05
8.93027402243e-06
2.35076023676e-05
1.97555378578e-05
1.40925654868e-05
0.0511703246966
-4.53404339158e-05
0.051155487226
-3.78689282424e-05
-4.39076164132e-05
-4.58100044201e-05
-2.73894424706e-05
-3.25812013106e-05
-3.7042412428e-05
-3.04399001387e-05
-2.00850808895e-05
-8.68835614737e-06
0.0511748677736
-7.17834454558e-05
-2.30262063443e-05
1.00827531348e-05
2.08785978393e-07
0.0127861224981
1.22862685208e-05
-5.76440638282e-05
-0.0119345057969
2.90430925635e-05
0.0119366118244
1.41849564346e-05
-3.71260136997e-05
-2.86436591397e-05
0.012778784442
-0.0127763246598
-3.86192736671e-05
0.0127813294488
4.70904188235e-05
-5.05442481899e-05
0.00336689529027
-1.16369606414e-05
1.49901325079e-05
-1.21857664172e-05
-0.00251254704541
0.00664782059682
-0.00103015777167
0.00139796925031
8.43339086642e-05
8.38745010137e-05
8.46336976248e-05
9.66007205486e-05
0.000622995654376
0.0108258467688
-0.00478616276971
-0.00705529899835
-0.0191900357833
0.0165576633648
0.0122620477698
0.0107186854535
-0.0131364113343
-0.00133220809225
-0.000368180182279
5.95660034835e-05
6.08521042476e-05
6.39882647003e-05
-0.00225684599506
0.00825735986899
-0.0031862542182
0.00852610619379
0.0102679323166
7.49487673947e-05
0.0127434905678
-8.29712955562e-05
-0.0127548738994
-0.0127365746427
3.75339525785e-05
-7.2066882601e-05
0.0127318415587
6.67122146914e-05
2.10900633291e-05
-3.52957528114e-05
0.0118321422223
-1.33768590766e-05
-5.39788431209e-05
0.0118690891008
-0.0118617140861
1.73298836086e-05
-0.0127477163921
6.9071299019e-05
0.0118618293516
3.85161185604e-05
0.0127381030778
-7.8806002571e-05
0.0127328603806
2.69941226424e-05
-5.77564175405e-05
5.37309361948e-05
4.83152412811e-05
-0.0127416909033
0.0127473310888
-5.55942124044e-05
4.12142045013e-05
-2.37517561171e-05
-3.08146736801e-05
4.82320285889e-06
-0.0118613434763
0.0118519255968
8.05414054806e-05
0.012735426701
4.54485250588e-05
5.6525914013e-05
-6.46834911e-05
-0.0127487361165
-3.61828488506e-05
-1.93198779006e-05
0.0127653424108
1.19539764907e-05
3.50583951985e-05
0.0127599601003
-4.50732290222e-05
8.17274554878e-05
2.54781866476e-05
0.0118787200658
-6.88707425278e-05
2.09768820046e-05
0.011876996975
8.71344453035e-05
2.94190822403e-05
0.0118879084215
9.87773294169e-05
0.0127768525705
-3.27233292537e-05
-2.3696258566e-06
-0.01278844098
0.0127891617951
-1.8509662909e-05
7.77008662698e-05
-0.0118916694733
0.0119058870071
-4.96333963689e-05
-0.0118978388388
0.000100422879636
0.0119107650343
-2.978259645e-05
-1.21129315604e-05
3.30271686387e-06
8.0660467324e-05
2.06984450666e-05
-6.03979681405e-05
9.90746944987e-05
-2.65805067082e-05
-6.08130147849e-05
-0.0127466793397
0.0127566879655
-3.30186910603e-05
0.00012905781143
-0.0119199673291
0.0119311477378
-0.0119289230917
0.0119366384556
0.000144295247355
-3.67972875015e-06
-5.31946638197e-05
-0.0127487072888
5.23587493254e-05
-0.000129606830768
-0.0119123616791
0.000145335813259
-0.0127299145518
-1.11698692711e-05
-0.0119071271779
-0.00561121605439
-0.00116125651045
-7.90523615183e-05
-7.11012833071e-05
-7.66722062268e-05
-9.8626766062e-05
0.00313137339268
0.000846932727655
0.0031195828126
-0.0204034501315
0.0017499523081
0.0274408437924
-0.00236717694911
-0.00557215979988
-0.00772598799957
-0.000143396006746
-0.000152518284942
-0.000141937306515
0.000136485977319
0.0012651509739
0.0124938213237
-0.00659350555062
-9.61294922446e-05
-7.94896827268e-05
-9.33802966801e-05
-0.00166469068084
0.0018697454562
0.00265900329447
-0.0137278072854
0.00170089112359
0.0192113668575
-0.0131297036288
0.00300151857588
0.00120073494129
-0.00269963471289
5.71254530282e-05
7.80222791983e-05
6.90452731651e-05
4.12543087312e-05
0.00873310489396
-0.0027899629989
-0.0174210518753
0.0042432877816
-0.013897512986
0.00079396438827
0.00107245953348
-0.00352116638623
5.05641820161e-05
4.60323013307e-05
1.06967092915e-05
1.77826091673e-05
-0.00507988330502
0.00470279110726
-0.000623490940364
-0.0148388524469
0.00182998559024
-0.000125197667097
-1.31615922823e-05
9.6856013273e-06
1.5072029422e-05
-0.0118698251636
-0.00266757535214
-0.012376824667
0.00141457456706
-0.000113295383875
-0.0127995034292
8.46887428404e-05
0.0127861391568
0.000116967613763
0.0128111509743
0.000122793356485
-0.000119697096538
-0.0128320358227
-8.52704626164e-05
2.72947960634e-05
0.0117520689886
-6.49604843421e-05
-9.56074068672e-05
0.0117751848418
-0.0118047986307
-1.92690127535e-06
0.0127963120606
-0.000110217052785
-0.012820440507
0.000126043146672
0.0117520266861
-6.89226699091e-06
-0.000106694409686
0.0127761602836
6.44650255665e-05
0.000111186723586
-0.0127869303948
9.93145452517e-05
-9.39081337683e-05
0.0127825198604
-6.22982047483e-05
2.92662844301e-05
-5.83963407559e-05
-5.29416152168e-05
-0.0117500877372
7.78755342273e-06
0.0117494590524
-0.000102404052356
0.000104519345706
0.012770757782
2.33574097268e-06
0.0117987760156
1.79770850019e-05
-2.65182333532e-05
-0.0117920339553
-6.38443930955e-05
7.95090499532e-06
0.011795785563
-1.21779889981e-05
-9.77379372158e-05
0.0127585068453
9.64615331869e-05
0.012771284945
7.5813232319e-05
-0.0127820840381
-6.42939011434e-05
-0.0117700118925
0.0117733796188
0.0127651484879
-0.0117724624085
1.84415931242e-05
0.0127879863896
-9.81728594379e-06
6.93341616085e-05
0.0119138702857
-3.38894663098e-05
0.0119194008446
0.000102487710888
1.27021305863e-05
2.68780476963e-05
0.012776481401
-2.82982481894e-05
-5.05589478424e-05
5.25979069527e-05
0.011929247759
-1.19125692407e-05
0.0127742498745
-1.20651488719e-05
0.0119300383083
9.33627756988e-05
1.06114602734e-05
0.0127690980131
3.57158052e-05
-3.00796989241e-05
-0.0127642181755
-4.66043739639e-06
0.0127568234794
-2.21882164194e-05
-5.79327959829e-05
4.04347718968e-05
-9.47651820584e-07
-4.12806508045e-05
-0.0119353836955
7.69041265146e-05
0.0119385128375
-1.76348227681e-05
-2.66419595558e-05
0.012763749161
8.57076518281e-05
-0.0127704208031
-4.50739053112e-05
4.666099266e-05
-5.14430729157e-05
-5.4455140926e-05
-4.21628862706e-05
0.000122985205429
0.0119392498146
0.0119485406358
0.000134702300227
-0.00011529925394
0.011960951886
0.000126901839738
-6.05397834584e-06
0.0127758129472
0.011952492218
0.0119602277497
-0.000101456357095
0.000114374337375
2.81181904987e-05
-9.7211797714e-05
0.0119613589496
0.000114198377338
4.26005951722e-05
0.0127788578307
-4.2601233408e-05
0.0127753178738
-2.59232663883e-06
-1.12903941674e-05
-0.0119517913577
0.0119535008142
0.0127712491186
-8.65373304601e-06
-4.47961546357e-05
-5.04401712841e-07
-8.76018817834e-05
0.204603730719
-5.05130133337e-06
1.89925938673e-05
-5.61651009896e-05
1.55412839651e-05
2.11845646866e-05
1.69980173404e-05
1.51023613764e-05
-1.7392685309e-05
0.0511663467574
3.99595294062e-06
-0.000173824080549
2.65741932215e-05
1.3923087194e-05
1.14221580431e-05
1.17109194435e-05
-0.000751741925692
-0.0110116828745
0.00682993051593
0.00598379439862
0.00641905472946
0.0433704075128
0.00275322786069
0.00699689490581
0.00102467741569
2.88513507609e-05
4.69693440467e-05
4.17975138154e-05
3.30120536292e-05
-0.000101519462279
-0.00037128354764
0.0511206948899
5.04748285294e-05
-5.80017236093e-05
-2.18879593355e-06
0.0118069408891
0.0511760254078
6.28143484335e-06
-2.30552736505e-05
-2.37881798208e-06
-1.20822166411e-05
-7.11447623779e-05
0.0511456012584
1.20221000202e-05
1.02443128388e-05
1.56221923621e-05
-4.32482386978e-06
4.20746896917e-05
-4.58995598933e-05
-4.46766093444e-05
0.0119399393898
1.9817214704e-05
2.55104632203e-05
-3.26081071088e-05
2.40639760202e-05
-8.80082590531e-05
0.0119521184958
0.000105735436383
0.0119357006353
-4.92509433314e-06
-1.58084399671e-05
-5.06428220662e-05
-0.0119356965241
7.14118129683e-05
0.0511187173217
4.09732270379e-06
5.80624587592e-06
1.01734851419e-05
6.44739297471e-06
-2.07139044265e-06
3.14512155412e-05
-2.89969656523e-05
-3.05873408085e-06
-4.28217065678e-06
-8.28117544578e-06
2.42965609846e-06
2.16571800536e-05
3.95171473176e-05
0.0510922332162
-2.14350014148e-05
-6.86149565968e-06
-1.19720700298e-05
-3.39543848642e-05
0.0119325588392
5.58631562056e-05
-1.58318194037e-05
2.06477208487e-06
2.12946126111e-05
-0.0119274110261
0.0119217847238
-1.99979574723e-06
-6.3840924658e-05
-4.1623274163e-05
-5.54053443328e-05
0.000325671708604
0.00450150829564
-0.00439465281881
-0.00612387192153
0.000523962060033
3.18995417767e-06
2.2027029583e-05
3.92068145605e-06
0.000283843563274
0.000513969157963
-0.00607829473511
1.07843703977e-05
9.86989226504e-06
1.01571648262e-05
0.00221095001594
-0.00280595727575
0.000694044368244
0.00163698837282
-0.0078520813952
-0.00780766601032
0.000193857607867
0.000972872192813
-0.00201090306656
0.000199645257641
-0.00669010202269
1.25722325543e-05
6.77907921393e-06
2.13075152518e-05
0.00254993947852
0.00101724268126
-0.00300279084362
3.28083809109e-05
1.26304322749e-05
2.91769018904e-05
0.00129253001853
0.000874339329986
-0.00729196044973
-0.00165555714168
-0.0127565296188
3.82038552078e-05
7.78771541915e-05
-8.33455168921e-05
0.0127526542427
-8.41142092679e-05
0.01274867685
-5.70953406648e-05
0.0117797913244
-1.53282215501e-05
-1.1273244321e-05
-3.75028205021e-05
0.0118006956406
-9.07438368717e-05
-2.31309311537e-05
0.0117744498296
0.0127432717857
-3.64326137711e-06
-0.0127623406644
3.63632786466e-05
-1.53555909587e-05
0.012760500138
0.0127566953143
1.82253812902e-07
-2.3638920814e-05
-3.6722790762e-05
7.8907350159e-06
3.99552805647e-05
0.0119427264176
-3.62082968462e-05
0.0119371277362
6.88084874175e-05
-2.36418888829e-05
0.012756866513
-1.96972607857e-05
5.55261302037e-05
0.0119374944633
-0.0127687350327
1.65841386653e-05
-2.09328360534e-05
0.0127639622974
2.94225415789e-05
0.0127767733475
-2.65222425456e-05
-9.82174034877e-06
0.0119472321747
-7.99440470223e-05
9.82478091064e-06
0.0119436787322
0.000100664282044
0.0119431592668
0.0127730860557
-1.97143600436e-05
0.012758106788
1.85597218371e-05
-1.31042293435e-05
1.23734213454e-05
5.440669487e-06
-0.0127666978846
0.0127597158904
-4.06274139787e-06
-1.83210424415e-05
-0.0119421990321
0.0119405115405
-1.98474443945e-05
-6.70049463817e-05
-1.58577306167e-06
8.61287197374e-05
0.0127524466388
8.40054237032e-06
-3.7298963008e-05
-1.27871745126e-05
-0.0127475721296
1.85285202635e-06
-6.02333893497e-07
0.01274323483
7.18617212404e-06
3.1705368239e-06
0.012750150283
2.48303802885e-07
-1.03768529208e-05
0.0119331860344
-3.75273452455e-06
-1.47299731787e-05
-9.33472726182e-06
0.0119280013058
3.53535797014e-05
7.95080725138e-06
0.0119272151381
1.43113562331e-05
0.0127437726923
2.99524225292e-06
0.0127380124809
-5.10681732169e-06
-9.3918683445e-07
8.27491147342e-06
2.88906425746e-06
-0.0127384456178
0.0127344715972
-1.14092095762e-06
1.57403902842e-05
-0.0119252988845
4.48811790849e-05
0.011918700643
1.26138106978e-06
-5.97979128224e-06
1.77835563109e-05
1.1325739015e-05
0.0127370802546
2.72611353451e-05
8.97914338959e-07
-0.000504469650924
-0.0492577254864
0.04921155215
0.000591641547939
-4.62951965537e-05
-4.18170148369e-05
-4.1600841878e-05
-4.34399364015e-05
0.000132226671963
-0.000596303824472
0.0497758571341
-0.000144912844626
-0.000112533902601
-0.000123860969786
-0.000127635723339
0.00038794227272
-0.0496658865263
0.000607483867232
-0.00107397080808
-0.0500802083548
0.0505278184608
0.000991753128545
-0.00027212604138
-0.000207932063056
-0.0002669587552
-0.000221605078338
0.000603246630961
-0.00088535269729
-0.000228970833256
-0.00020065496224
-0.000231129805895
-0.000201750673709
0.000562708899213
0.0508426329293
0.000771357160452
-0.0504288226351
-3.23446099485e-05
-0.00234186990636
-0.0127469872664
0.0108116079459
0.00288880421988
0.0014969815169
-3.13196035273e-05
-3.31187524567e-05
-2.70456892947e-05
0.000144801282513
-0.00396387702245
-0.00714153922564
0.00468816528499
0.00802094730435
0.0002413478734
0.0001891841684
0.000307942291255
-0.00251467134005
4.39348788493e-05
-0.00265158568048
-0.00659301390484
0.00800683680538
7.40733007487e-05
7.70263614113e-05
0.000121582484134
-0.000389798105337
0.00131078693594
0.000291802255044
-0.00643267239762
0.0127813536437
-0.016360928542
0.00367281735871
0.00503730711722
0.000353165901951
0.000315157821548
0.000342855564595
0.000259380119096
0.000678828409041
0.000276583308056
0.000251984867912
0.000265535369933
-0.019942860927
-0.00405624231633
0.00429524676157
0.0179716549476
0.0899840705182
-0.0110216853763
0.00105640828878
-0.00125653840609
0.000971203060979
-0.0026166458886
-0.00247118439268
-0.0408362232599
-0.0320086056636
-0.0161797102056
-0.0152712621326
-0.016769781427
-0.0170158574114
0.0594384384678
0.0314754423015
0.096727706108
-0.0202949701658
-0.000230368408209
-0.0060305820767
-0.0039330553504
-0.00996558622979
-0.0406937813735
-0.0316276091956
-0.00879239310867
-0.0121955224167
-0.00840705099056
-0.00997350653079
0.171084218227
0.0824970361062
-0.00673335934649
-0.00732745823982
-0.00582512275806
-0.034514295161
-0.0111459642443
-0.0069742570829
-0.00316279300086
-0.00555052456657
-0.00277398726802
-0.00489402878417
0.122066107154
-0.00908980991867
0.00018211557451
-1.92034883781e-05
-2.72650003438e-05
-2.14249049974e-05
-2.45603290457e-05
0.0490102000103
0.0001091455622
-1.43687479833e-05
-0.0491946459139
0.0490186827683
0.000340203459981
-1.74446179497e-05
-1.63033575432e-05
-2.04523158766e-05
-1.76578272953e-05
9.74848583439e-05
-0.0492023864629
3.26972507783e-05
3.79188604136e-05
-0.0121766816195
2.65600559267e-05
0.0121011013459
-2.14496470292e-05
0.0121037163975
5.71132345886e-05
3.65159405404e-05
2.37959551352e-05
-4.58875845686e-05
-0.0121753197142
-3.29412893808e-05
-2.9132865473e-05
-3.21176086595e-05
-2.67060673434e-05
-0.000297761122387
0.0122590436248
0.012183591515
0.0121753265919
0.0122279720412
8.69780310365e-05
5.51669105889e-05
3.33778506751e-05
3.47955892689e-05
-4.53486657872e-05
0.012026098772
0.000437630011767
-2.2644333287e-05
-2.08193039409e-05
-2.25115161485e-05
-2.15577841409e-05
7.27990417248e-05
-0.0493403860002
0.0494713177101
-3.30228079592e-05
-4.7045710585e-05
-3.57598733084e-05
-4.29911512501e-05
0.000102541824069
-0.0494567849135
0.000479266328152
0.012104780253
4.34935328071e-05
2.5944480194e-05
-0.0121761085632
5.90569583974e-05
0.0121024709958
3.03095165778e-05
5.55127780872e-05
-5.33372700721e-05
-0.0121752125772
3.89577681732e-05
0.00084977433978
-7.55420783332e-05
-7.99408041905e-05
-6.87178223013e-05
-9.39189285193e-05
0.0491886690183
-0.000188314072591
-0.000160470660741
-0.000188891591799
-0.000161988158342
3.77432897407e-05
4.73520653287e-05
5.26830088559e-05
5.3139621223e-05
0.0494786637449
-7.36177375414e-05
-7.71761581003e-05
-6.59099357095e-05
-8.84484866474e-05
0.000293160896571
0.049721082165
0.000821338101806
-0.000118035382239
-0.00016355329076
-0.000140214384929
-0.000128899711827
0.000336815636523
3.85315115544e-05
0.0120307643524
5.81534715301e-05
0.0118108465566
-2.25217728405e-05
9.71993606705e-05
-0.0118897227301
7.847446698e-05
-7.37277215278e-05
3.12730881513e-05
5.615372413e-06
7.90867155544e-05
-4.86476394672e-05
0.0120357038058
0.0118535812066
6.73253935318e-05
-0.000165411625525
0.000227912126194
-7.08264058559e-05
-0.0119123476871
0.0501516350155
-0.000248330150173
-0.000196087209014
-0.000177253723211
-0.000269557395324
-0.00114255432779
0.000529628385468
0.00137747977137
-0.000227203759781
-0.000286051286438
-0.000242784272048
-0.00028645047631
0.0510481543757
0.000463528669243
-0.00169471130556
0.00015068050116
0.0117926560678
9.51831679974e-05
-8.30241128128e-05
-0.000515957699179
0.000407260908977
-0.0118529407083
0.000245978065975
0.0119484712295
-0.000233112297332
0.000118221962803
-0.000308607364986
0.000268847875676
-0.000104782132557
0.0118794731967
0.000270796409145
-0.000413730277631
0.000375507479976
-0.000278813508612
-0.0119570708839
0.0120033359486
0.000782248564515
-0.00018037352173
-0.000200576138828
-0.000167329050184
-0.000222268463905
0.000505305867127
0.05029998614
-0.00018526793374
-0.000225552285473
-0.00022053695314
-0.000189895480046
0.000557131731314
-0.0499899634928
0.000736401357505
0.000108133462861
0.0120342438017
2.94902073015e-05
-0.0120981379859
0.0118926484173
-0.000222397026752
0.000251307978698
-0.0119298392411
7.51856462459e-05
0.0119658754572
-0.000254952238112
0.000267480723534
-8.59978323574e-05
-0.0119774798226
8.49685818605e-05
0.00114721958912
-0.000255144449305
-0.000283563722912
-0.000250382793644
-0.000277336769252
0.0510804697919
0.000744374794592
0.0507292393522
-0.000249239082666
-0.000213155682813
-0.00020984615534
-0.000246090059732
0.000595701181388
-0.000224758276427
-0.000232829405839
-0.000221420686271
-0.000242895182711
0.0511327800725
0.000976395543601
0.00068934737406
0.000270983718971
0.0119155847863
0.000116574176754
-0.000368879473171
0.000345964989829
-0.0119884257192
0.000257273449957
0.0120250479687
0.000108784486898
-0.000269206968369
0.000254425310872
-0.000116852234794
0.0119888677311
0.000170713398417
-0.00025363414654
0.000255440570132
-0.000204080453992
-0.0120379688664
0.0120695115716
0.000247161945947
0.0120027843824
0.00010134643903
-0.0119832682695
0.000244260275158
-0.0120500194901
0.0120848602587
-0.000247954971922
0.00013943938439
0.00198412979303
-3.44822155772e-05
-3.59129854411e-05
-3.99305925607e-05
0.0130910246036
-0.00176121303801
-0.0119672712877
-0.00120223074864
0.0130485982666
0.00244006270229
-3.47820576691e-05
-4.08929444138e-05
-3.88684802192e-05
-0.0122237077247
-0.00112865233185
0.000693851020044
-3.19736115112e-05
-3.24114501581e-05
-3.4029583535e-05
-0.0020629965239
0.0122070559187
0.00663109690749
-0.00295242234689
-0.000625441944648
0.00232311054994
-0.00436714982019
0.000142059289139
0.00887121785837
-0.00254663535507
-0.00107965125913
0.00775546133628
-0.0044809177483
-0.00467769826112
0.0105865931426
-0.00192514366063
-0.00342222083906
0.000585661500209
0.00215842789648
-0.00657243497732
-0.00349479805284
0.00544179878866
-0.00861698165231
-0.00629753624689
-0.00521932595888
0.00551462072019
-0.00136674850969
-0.00820484504878
0.00235714971866
-0.00103695504008
-0.00741189514576
0.00300343313324
-4.23977173205e-05
-4.03580988051e-05
-4.49832683728e-05
-0.00112331045843
-0.012017292547
0.00948650238909
-4.04855558515e-05
-3.41864418845e-05
-4.06315305422e-05
-0.00969021288151
0.00039244545142
0.00296081628996
0.00313864015658
0.00629480444339
3.56764788584e-06
4.79406292379e-05
1.1350097651e-05
-0.00270666321162
0.00513908280723
0.0046092870243
-2.05469891923e-05
1.27107558974e-05
-1.28711713983e-05
0.00870914280846
-0.0040064418997
0.00315870256567
0.000105867642188
8.86454958178e-05
5.61879473159e-05
0.00598973286146
-0.00473369633031
-0.00436850259934
-0.00270356778023
0.00703839405428
0.00574145314238
-0.00518856795668
-0.00464660145214
0.0046548200732
-0.00290504212392
0.00838408541476
0.00609424215022
0.000425521727405
0.000512531666828
0.000460735922629
-0.0191089168669
-0.00444006176588
-0.0132452186644
0.00619344990517
0.000252977602961
0.000389942534101
0.000350961901765
0.00552439459941
0.00794575739212
0.000456953533083
0.000426723739381
0.000420760883285
-0.0200443815487
0.00604437958139
-0.00113261396385
0.00282229099227
-0.000457345341626
0.00245323177209
-0.00114472712939
0.00138833643455
-0.00058155760622
0.00224209725752
0.00623956190867
0.000163894832238
0.000270342539834
0.000209899136996
0.00473295487916
-0.0154231017805
0.000250853964686
0.000219824291902
0.000206513486867
0.0132980543597
-0.00129640529813
0.000960976036209
-0.00137821900686
-0.00350276850659
-0.00230069434586
-0.000709575229022
-0.00122464807771
0.00122434052874
-0.00339940519181
0.00343940730022
0.00533092030035
0.000373866591253
0.000321096203583
0.000338933297778
-0.0185849628468
-0.0166402122422
0.00443865399465
0.00027873364042
0.000276950724129
0.000306023959208
0.00494745277169
0.000286722659199
0.00026919827509
0.000300888941674
-0.0186030850104
-0.000654794465787
0.00118967494421
-0.00112352710036
-0.000512603631566
0.00288334168422
0.00161477614671
-0.002292253798
0.00350695229575
-0.00236145031586
0.0123182471177
-2.05208211927e-05
-2.55078013498e-05
4.3022734085e-05
-0.0123344365353
3.0322057838e-05
-0.0123141749369
0.0123018093492
-7.26055425862e-06
2.94204424969e-05
2.92873665548e-05
-2.20660727904e-05
-0.0122479588528
2.88901083791e-05
-0.0121759852076
3.58872031145e-05
0.0121018284296
5.06378709523e-05
0.0123054693675
3.87541725753e-05
-0.0122459064812
-3.67883063614e-06
-0.0123312132373
0.0123261486465
5.85781092303e-05
-1.87788498058e-05
-0.0123403461287
-7.13238193826e-05
-0.0123381754743
0.0123296097752
8.73218857046e-05
2.93589475605e-05
-0.0121763120808
0.0121020666486
1.87796693971e-05
-4.77816390303e-05
5.6823153872e-05
-0.0122443413016
0.012314445155
7.09648246821e-05
-0.0123493721567
-0.0122432950934
-0.0122992517442
9.88902339775e-05
-4.00127452184e-05
-7.22381005401e-05
0.0122796662975
-8.26133122763e-05
0.0123187215552
9.92573860362e-05
3.73044965034e-05
0.0120255430625
-3.78303869342e-05
3.52238931846e-05
-4.99134534127e-05
6.06179147181e-05
0.0119481675574
-6.21630396653e-05
0.000122141198945
0.0123040782436
-3.99674642793e-05
0.0119416976295
-7.81884605288e-05
0.0123661652543
-2.43779034789e-05
8.44991668895e-05
-0.0123707457353
-0.0123533731115
9.66123973608e-05
0.0123492287148
2.31437575704e-05
5.81271212689e-05
-0.012242951068
2.86772291386e-05
-0.0121747211672
5.91390408538e-05
0.0121057205644
-0.0123599692638
0.000104989063689
0.0123649376782
5.57331063449e-05
-0.0122417085892
0.012381005192
8.36496815551e-05
-2.83023828935e-05
-0.0123848756714
-0.000103829865426
-0.0123920344762
0.0123960715715
0.000107814627926
3.57859516605e-05
-0.0121769698662
0.0121057265531
4.39496405617e-05
-5.20314916363e-05
-0.0122415271202
4.01311016533e-05
0.0123819086669
-0.0123959839948
8.8485623365e-05
-0.0122422180116
-0.000131807978576
-0.0123565305917
-5.05281507705e-05
0.0123521076367
0.000139841941592
0.0123391886131
0.000106005743018
4.13964884345e-05
6.40124543301e-05
0.0119541593199
4.26000262712e-05
0.0120322499335
5.51563830933e-05
0.0123291927558
0.000113537281178
0.0119563894982
5.95746190136e-05
-0.000142283541198
0.0123436692487
-7.95034715387e-05
0.00015461061194
-0.0123156042161
0.000177375050137
0.0123209086058
-0.000165593094012
6.30332515233e-05
6.96376333347e-05
-6.47431102047e-05
0.000129823541742
-0.0118970364636
7.25721233475e-05
0.0118199369403
-0.000134634302749
0.000189969709464
0.012366376349
6.12182103397e-05
-0.0123743166931
0.000135439698665
-7.28670093622e-05
0.012378085189
-0.000109933030307
0.0123917904364
0.000116020413604
5.51312444971e-05
0.012037001378
0.000107385235819
-5.33055333286e-05
0.0119589479402
3.55460241998e-05
0.0124037282281
0.000141719102669
0.011958224273
0.0123734218423
0.000153679256691
-0.000113034514082
-0.000189346353436
-0.0124116828531
0.012460941098
0.000204433389957
0.000179359750704
-0.0119047673237
0.0118329689569
0.000151724863339
-5.65134567849e-05
4.02981246407e-05
0.0124131020976
0.000168549224214
-0.000258080461215
-0.0124053034912
-0.000307909887938
0.012490493537
0.000286625893368
0.000194735407212
0.012344052851
0.000208028947824
0.000112414940957
-0.000193134369595
0.000266217524149
0.000125419499547
0.0117586638069
-0.000116482790256
0.000188831843999
0.0118195201217
9.59365453736e-05
0.012426240146
0.000169427059969
-0.000243407529499
0.00023184488772
0.000126413639469
0.0118041657395
0.00014245029773
-0.000309278058688
-0.000340579540574
0.0126314873718
0.000338425336937
0.000170848278285
-0.0125790851773
0.00036827596757
0.0127425628179
-0.00035722436358
0.000233087809159
0.000316159486737
0.000174261334916
-0.000158588150386
-0.0118905315844
0.000404339181631
0.000276109931699
0.0119702640934
-0.000295746334473
0.00015074542243
0.000208183858124
0.000390224935598
0.0127710407564
0.000244263900073
-0.012462104128
0.000285802447396
-0.000335409197016
0.0125504785569
-0.000236382030829
0.01251971428
0.000250494650729
0.000230054823802
0.0118468110844
0.000361385306101
-0.000152036609742
0.0118927478584
0.000167259755826
0.0126041002277
0.000293983191461
0.0118533126323
0.000332915285926
-0.000347041834447
0.0126768356936
-0.0127144655462
-0.000379283811139
0.000371946341253
0.0128116926223
-0.0119287977355
0.000390681153478
0.0119939753456
0.000351389423773
-0.000208776045876
0.000220346770932
0.000331635567918
0.0127930294149
-0.000140571731949
-0.012430219907
-0.000190873900502
0.0124626109817
0.000154100256979
0.0124094256494
0.000113607389155
-0.0124117529669
0.000147593949035
3.82729732018e-05
0.0119579473986
0.000147870635659
0.0120326053224
-0.0120964527401
2.20522774732e-05
0.012434226932
-0.0124244883649
0.000128235817619
0.0119635815046
3.80705041629e-05
-0.000169562380697
0.0124908072092
-0.000222477022866
0.000183479297776
-0.0124521836908
0.000202276635496
0.0125051625528
0.000185785923968
4.645300738e-05
0.000283661800391
-0.0119429510566
8.70062314997e-05
0.0119175992961
0.000210043418436
0.0125448312542
5.45473174926e-05
0.0125258550117
0.000182645570397
-0.000218169532365
-0.0124918256996
-0.000206674690043
-0.0125533684793
0.0126032315716
0.000198911419055
0.00026755124366
-0.0119635255463
0.0119480282255
0.000226331682863
-5.96691161574e-05
-0.0119920304199
6.78567273688e-05
0.0125763923998