/*--------------------------------*- C++ -*----------------------------------*\
| =========                 |                                                 |
| \\      /  F ield         | OpenFOAM: The Open Source CFD Toolbox           |
|  \\    /   O peration     | Version:  v1906                                 |
|   \\  /    A nd           | Web:      www.OpenFOAM.com                      |
|    \\/     M anipulation  |                                                 |
\*---------------------------------------------------------------------------*/
FoamFile
{
    version     2.0;
    format      ascii;
    class       volScalarField;
    location    "6.95";
    object      p;
}
// * * * * * * * * * * * * * * * * * * * * * * * * * * * * * * * * * * * * * //

dimensions      [1 -1 -2 0 0 0 0];


internalField   nonuniform List<scalar> 
28582
(
17100.848103
17098.6361292
12202.3246831
12200.0626003
7302.5410369
7299.48332771
3629.93089541
3623.34596472
33.1134262765
40.634627201
-27.8483313989
3625.61913882
634.850658137
633.404105247
3622.87687821
3621.6702774
632.778346436
1784.7581395
1784.26306995
17103.2421235
17098.0049874
17098.2226143
12205.5111678
12199.8052448
12200.3799469
7308.09008957
7300.66682861
3638.87828552
3624.46559722
41.398737038
-27.3709906563
-27.1947953502
3635.03591153
3635.19646582
630.050075703
631.662759926
1802.34277166
3627.31533641
3624.23112724
3627.68051323
1786.73541318
643.57847636
1786.54749991
1792.03238588
36.897345843
42.2404459892
-23.1539064586
-23.1151452737
39.4224969568
-23.0911372156
1795.36907977
1789.9231794
634.388876638
635.311460098
1794.10107221
634.556885063
1791.64226309
1786.21390853
1785.1647998
633.957530755
633.112012374
1783.22849739
633.714478689
1788.25443521
1781.99062895
1783.25746327
632.773038223
632.55479365
1781.80376832
632.783686539
1782.94151668
1785.18726196
635.940372161
636.48494934
1783.37363186
633.7305767
634.101111656
1783.90232144
1783.37349266
636.815488993
637.064304182
1782.76067535
634.479085974
1781.56028013
634.327889064
27.3023519112
-23.0907064971
22.426092237
26.1485546583
-23.0953971004
-23.0641384098
42.2344343978
-23.1221496774
-23.0717148387
42.2893366081
-23.1280655916
41.7557291952
-23.0733364319
1804.05810806
1805.67089471
630.823076381
630.566537889
1803.72374018
1805.78645754
631.539187126
1801.77553002
1798.64417856
631.328845466
632.459325109
1801.29487803
1799.10506594
632.247128108
634.073995039
634.312837676
1799.36790669
1802.09965423
633.274355235
1799.34099559
633.103359115
1787.03907508
638.282032584
638.850872309
1789.11626094
640.263758031
1789.26416919
640.835135084
1791.50479348
1793.81340301
642.057797687
644.125411639
1791.55569355
1793.86989807
642.615649784
1789.22441616
1786.12625184
639.182847129
639.55170562
641.610515034
1789.23021935
641.174711926
643.611784108
645.319910966
1794.62127252
1791.84850459
644.54811606
1794.34090182
642.956789582
7302.29109214
3629.73063993
41.1979950735
-27.2219021475
3630.82968166
634.176253691
3630.46008725
3631.74590679
644.760580294
646.511824544
647.801316672
3631.36989232
3629.78395998
647.527772073
644.467140736
31.0136246796
41.8108794905
41.6033325082
-23.070573814
-23.1067763192
-23.0793795547
42.0524296937
42.765010222
1793.26710777
1796.14967802
633.237826418
634.017309699
1796.38403008
633.437572605
1792.77349762
1796.82483277
1795.49147182
645.427180146
645.24367693
1796.51637088
1795.67594778
645.827826085
1797.30161814
1796.38503423
645.68721547
647.14411542
1796.13136409
646.291978177
1797.71356425
1797.86539828
1798.57839021
646.808383934
647.667825816
1797.82747042
646.70822402
1798.45158459
1795.46834543
1797.88448595
646.536354307
646.703925137
1797.04857592
645.677858066
1796.32797026
1793.62007447
1792.68286903
643.540396614
645.463872912
1791.79510525
644.500055414
1794.51185675
3655.60565205
3650.75139174
3649.22840305
3646.99070043
16.2232303221
16.8068358166
13.9000547541
15.2810091324
14.0717453463
-27.1183660288
-27.2420371124
-27.0849036232
-27.1548696618
-27.0720973098
-27.0944602369
3657.95660187
3656.75585223
631.649202087
631.345620136
3658.11126503
632.340634254
3654.89778103
3652.79279128
629.826136817
626.137154471
3655.45797145
3652.93171694
3652.60137561
630.857708152
632.348020155
627.048105972
628.732057052
3651.27558819
3649.00045396
632.342057524
629.07740705
628.948736157
627.283682104
3650.36916944
3648.70057942
626.135155415
627.634810599
625.226719998
3647.61747868
3647.98781201
3646.84365556
627.971178817
626.447693358
625.347591599
624.863290028
624.811189031
624.506124599
16.6419646174
16.8657363704
18.4299879127
-23.1641093849
-23.1892554407
-23.1953503047
-23.2223091005
-23.24022584
-23.2093638139
-23.262873118
-23.2190384826
14.8354989546
13.3221556086
16.7729541379
14.7182492292
15.5916011689
-23.221920254
-23.2463144547
-23.22405907
-23.2449236413
16.6859279993
16.0406355145
15.6569671014
-23.2765804073
-23.2460810741
-23.2738285047
-23.2349561221
14.6501678212
14.1818787939
-23.2206860952
-23.2431131856
-23.2452380327
15.079771585
14.472603653
14.5455437617
-23.2604967875
-23.2250877861
-23.25367175
-23.228307508
1820.0341392
1820.65703348
630.686275743
632.111526229
1820.48802671
631.040798838
1820.21556784
1819.70455348
1819.42264719
632.141068078
630.123479965
1820.06167955
1819.04546143
631.016644815
1821.25532109
1819.8869068
633.021639886
633.018840314
1820.56380045
1820.49859302
633.694780603
1817.32376316
1818.61710031
628.750534705
628.455739376
1818.2074505
1817.73812908
627.527234362
1816.40050799
1815.77880787
627.159155843
625.255906204
1816.74368845
1815.46858024
626.300367708
1818.49135796
1819.04829598
631.620554634
629.4553855
1819.57291614
1818.12185361
630.255630218
1818.65174419
1819.94684844
632.062358283
631.102380375
1819.89448282
1818.55488468
630.762856537
1817.34898124
1816.04159189
628.0754435
627.837783912
1817.05413742
1816.230765
628.91188037
1817.46013739
1816.16135937
629.781862814
628.363245437
1817.29288829
1816.28739246
629.426311532
1817.111882
1819.49300467
631.875276059
631.19394048
1818.2797539
1818.06596929
630.862971498
1815.39476507
1813.24715588
630.933534796
628.377080623
1816.22362437
629.964134854
1812.9049634
1816.08302092
1815.77771951
629.872600561
628.724592984
1816.86088628
1815.0718775
629.607507763
1814.68665144
1812.48139205
627.928818577
628.134464331
1814.01881142
629.085773308
1812.72726981
1814.10501795
1815.00760918
626.818087072
625.406660813
1815.11900412
1814.01133689
625.998641135
1814.10795142
1815.03587491
627.268738096
626.73489545
1815.15777336
1814.00355911
626.354680218
1813.13473672
1812.25453553
625.927214635
624.914468938
1813.07049689
1812.2996321
625.555637923
1813.19917807
1814.70009702
627.792343879
627.050830103
1814.06946741
1813.72606976
626.891981714
1812.49009111
1812.07666613
627.206969609
625.81936569
1813.21407266
626.41948832
1811.60553249
1812.42554144
1812.06330811
626.091156714
625.367913064
1812.83403652
1811.75963246
626.039035787
1811.85592455
1810.71133254
625.287822065
625.24641275
1811.29852586
625.78269756
1811.13963269
1810.78006773
1811.47543715
624.873172243
624.507538747
1811.21250833
1811.02158423
624.581908154
1810.33009772
624.806747442
1810.80946653
17099.788301
17097.5060235
17096.9002211
17098.3816324
17098.4845717
17102.7263899
12201.5416424
12199.1159056
12198.7288827
12200.4795848
12200.288802
12204.2361095
18317.5241873
18318.543008
17087.6900657
17091.1294812
17094.6307818
17097.7992513
17102.823045
17094.9300361
18318.7960718
18319.5351322
17093.4878843
17093.5703182
17094.5237429
17095.2874434
17095.6584577
17098.9550436
17098.9098191
17095.7681837
17094.2664079
17094.3549525
17094.8705476
17095.0186353
17095.3235759
17099.7752542
17101.7509555
17098.0892625
17096.0807537
17095.9389277
17096.3797806
17096.2823152
17096.2470123
17100.710888
17097.1462061
17097.0721524
17096.9026491
17101.3189109
13417.5838675
13418.1207343
12191.620557
12192.0705678
12194.3618378
12200.05656
12211.1882265
12169.4208072
13421.0383336
13420.9182389
12196.3627754
12196.3446762
12195.8943696
12195.2742884
12194.8123237
12189.0081908
12200.7563586
12197.9827613
12196.1826827
12195.8224244
12195.8980066
12195.6425847
12195.1016609
12197.1521093
12203.968072
12200.1275027
12197.9644502
12197.7605064
12198.225961
12197.9337769
12197.0378627
12200.7530842
12199.148081
12198.8476227
12198.2571732
12202.3186902
8518.33415876
8519.30249009
7291.41639166
7290.74077549
7294.94173588
7300.55184316
7309.79147477
7260.94009079
8522.96022313
8523.61550654
7291.17446558
7291.96180743
7295.68130769
7296.74359426
7293.01157111
7282.5715213
7303.89628665
7299.55548805
7295.10425542
7295.1564725
7297.0849117
7296.98680062
7294.19335734
7295.24047382
7312.36657482
7306.94318752
7301.31764949
7297.58038722
7297.6832473
7299.15699298
7298.70429918
7296.13141409
7299.57236897
7302.69732302
7299.28555322
7299.60784399
7300.9052292
7300.23193421
7298.04710881
7302.21294805
7302.12811115
7300.45919743
7304.79604991
3625.29244651
3626.17393181
3616.92302718
3610.77311866
3619.08271704
3627.03257911
3631.84098326
3638.17599316
3629.56176133
3628.55699317
3628.22240859
3617.48051247
3612.21419287
3620.35887767
3624.88932992
3624.49673691
3619.50592833
3645.44493337
3639.31178563
3634.64778718
3628.75219609
3618.98493475
3615.927964
3622.23954165
3625.91312824
3623.73134055
3621.64852898
3642.52606939
3638.25350683
3629.4288653
3621.62612894
3620.68856919
3625.31929522
3627.52759793
3624.5916075
3622.64489536
3630.75412803
3623.9479393
3623.75657612
3627.89621508
3628.44259496
3625.19765287
3624.29160812
3630.12213773
3627.00029404
3626.96887039
17.7496810282
25.7810011104
37.9070953986
45.4275287893
50.5271938543
44.0438266639
41.1823184748
42.8738345518
16.5916422746
16.732060115
18.7021586977
25.9407327683
37.0345868346
42.2739881338
45.6271024239
43.5048912775
41.9554852788
42.7363770774
14.4410239808
14.4724197211
18.9793137485
28.6638202481
36.2905373488
40.6138817957
42.4102487342
40.1736058452
40.7857281839
42.0993356857
14.384259406
20.1801054252
28.7946851996
34.7606632924
38.6883922817
40.7283766951
38.9547625405
40.2010218641
41.1504495379
29.7843934867
35.6973954302
38.9662108766
40.9382223667
39.9685886306
41.0624216884
41.2451831746
41.0861088663
42.5730663399
43.0497460334
-27.1897998903
-27.0715039365
-27.1235119247
-27.3901253419
-27.8097747438
-27.428218073
-27.2633924632
-27.1427530445
-27.2146822372
-27.5524374329
-27.1902982305
-27.0836568928
-27.1037931266
-27.1235947752
-27.2523630391
-27.41514647
-27.3499212595
-27.1857937121
-27.2626100065
-27.5746271387
-27.1789070755
-26.98566417
-27.0960821898
-27.0940355237
-27.1968898459
-27.2716843056
-27.4061133307
-27.1356930542
-27.2516949398
-27.4554390689
-27.0065710323
-27.1323022329
-27.149592471
-27.2352283199
-27.20301849
-27.4131054667
-27.1161555067
-27.2418956554
-27.4310403696
-27.4984148112
-27.6113429715
-27.6006640884
-27.4003718085
-27.1385316857
-27.2295503149
-27.516938231
-27.0833688085
-27.2189660117
-27.6257435855
18318.2527762
18317.4361382
18318.4133508
15867.8653437
15868.8628115
15868.2735808
15869.0469357
18318.1751897
18319.1140591
18318.9187681
15869.3504197
15864.498756
15869.2380049
15866.8606962
18319.025207
18321.1001371
18320.2042507
15869.7555456
15870.243556
15871.8010046
15871.3299223
18319.1873478
18319.9123665
18319.7015613
15870.3670958
15869.1311769
15871.2730585
15871.2255511
13418.1904537
13418.739917
13419.1333917
10967.3309225
10968.2671604
10968.8682307
10969.6469017
13417.2396236
13418.6939219
13418.4934586
10968.2467191
10966.8946551
10969.3858335
10967.8517194
13421.2609584
13422.7454247
13422.5142593
10971.6707061
10972.2124342
10973.8623931
10973.1652363
13419.5464795
13422.1355133
13424.1930674
10972.1180907
10966.8797027
10972.3857372
10973.8076989
8519.42445213
8520.28610678
8521.06808335
6070.84990008
6072.22705079
6072.82482162
6073.54944371
8517.50509514
8520.89062592
8519.30874481
6072.100601
6070.07837337
6072.97262172
6072.30940152
8523.56847338
8525.30294079
8524.56635414
6075.11766784
6075.65926803
6077.46702888
6076.74996874
8517.8805475
8523.64101062
8523.2154558
6075.19682774
6071.78324092
6075.81449237
6074.69480621
3622.10675498
3624.86800944
615.947220319
616.531632004
3627.37465988
3626.90084588
3628.48993018
617.506103864
626.873487381
618.363687992
627.596542449
3622.32898346
3627.10693648
3622.76737633
630.669847166
631.853984573
630.955353501
631.296021194
3611.26495543
3616.47528103
3611.41628425
628.986542491
623.095841912
628.714376075
623.238940763
3614.70630233
3611.25071986
3615.52319952
626.786259702
642.58462513
626.486379506
640.590400739
3623.64032277
3619.84699552
3623.35876142
646.552209019
648.822591461
644.289327515
647.101844388
3629.40389982
3625.76309497
3627.20883683
648.012548342
645.286245852
646.742121516
644.401779943
3633.79930753
3627.58807052
3625.57896728
644.802277296
643.640483293
643.457234599
641.149000892
3608.02014154
3619.97595562
3614.1981731
644.985604174
608.214729515
641.3205103
616.393701999
3645.61885256
3640.46326381
626.659917758
618.524794566
626.111595113
621.900208835
3627.79227333
3635.28521032
3632.3061054
616.960798938
617.393938495
620.747617785
620.889482368
3629.60899668
3631.36179756
3630.94336162
619.32296262
628.315007851
622.474764056
630.981748164
3623.53972081
3628.77069849
3624.30638739
631.666119647
631.526740649
633.558601627
630.81469171
3613.01266786
3619.08889632
3615.18778555
628.757049956
623.404422339
627.78640394
623.871625268
3616.35174379
3614.45632764
3617.84632052
626.543266722
639.417237823
627.244505069
638.032792244
3623.34153262
3621.41158018
3624.03012794
643.19470471
646.086404372
641.427206125
643.78513923
3625.28528824
3625.32237306
3624.91456084
645.922129228
644.002875849
643.528089102
642.326789178
3622.49358488
3623.66709052
3622.08206839
643.055737543
640.421061911
641.570775512
638.998075337
3622.71282184
3620.27762678
3626.75339828
640.582182955
617.492496579
639.262250076
618.652479295
3642.70919574
3645.30468996
3643.50624391
625.607574177
622.844558041
624.400059579
623.192331188
3636.63466939
3641.49782888
3639.50724265
621.776321093
621.956220897
623.189089057
625.866200125
3632.31862266
3637.01987752
3633.34665058
623.560299853
631.753605775
627.641327574
631.459563028
3623.90119054
3628.91511497
3623.92104026
633.785142453
630.14500145
631.398206441
628.624425307
3615.66951647
3620.08131655
3618.02707468
627.249643844
624.288747575
627.13626408
627.280321051
3618.97698324
3618.55178663
3621.03556932
627.949315785
638.167004075
630.4498501
639.23412039
3624.68563142
3623.91643907
3625.83995464
641.218540064
643.443333749
641.416125041
643.170336011
3625.14351876
3626.86567896
3625.90221924
643.160537621
642.071922883
642.795788716
641.389499287
3622.31102524
3624.28298683
3622.79391117
641.265891046
638.609702134
640.391584065
637.78642981
3628.43407252
3622.06207333
3629.10370038
638.871953211
618.820232811
637.661023702
618.816711375
624.122329674
623.272159129
3640.91931975
3641.47386147
623.403438957
626.960046511
628.351351852
3634.09992985
3638.67147211
3634.55612771
628.74418902
630.709188361
629.596550786
631.030458662
3624.72612047
3630.08869386
3625.72930408
630.518592455
629.020063255
631.173349254
630.81083968
3620.13573216
3622.95507739
3621.7249806
627.769037312
628.504664423
630.196488286
631.723514567
3622.81220498
3622.49246018
3624.47687481
631.255106446
639.431681772
633.860005583
640.786439082
3627.05874544
3626.67397175
3628.0803069
641.396208514
643.184595079
642.415684658
643.730697378
3626.35541123
3628.00574078
3626.5585754
642.756186136
641.192069441
643.001194893
640.375449686
3623.13412697
3624.81936181
3623.54358707
640.105620294
637.635378996
639.53001944
638.031599163
3629.51445284
3623.19780638
3629.92437788
637.396198225
619.361025696
637.892042636
620.848684885
3626.57238481
3626.66698936
631.87293096
631.535601057
633.365117182
3622.86210507
3624.12820438
3623.2653361
630.92826726
632.60586388
632.645397301
634.947735674
3625.83415172
3624.42059918
3626.83652528
634.723908107
641.283756948
637.23327624
643.050083619
3628.96389056
3628.9848668
3629.91816454
642.732307649
643.955512071
644.434632016
644.638731813
3626.75256614
3629.18612794
3627.42119782
643.004686681
640.422573577
643.79103343
641.180504898
3624.2038959
3625.92428799
3625.13501744
639.654146502
638.49011328
640.625214229
640.185423178
3630.53539998
3625.41576555
3631.29438887
638.412686175
620.580567655
640.389391995
622.163321706
3630.72679218
645.334370664
3628.42889158
644.618828144
641.770998064
3626.37302413
641.239920232
641.002423159
3632.39766249
641.580428873
622.516139274
-23.1889715773
-23.1797242412
-23.1884689216
-23.1741813081
17.9986529744
17.7327021313
-23.1494515075
-23.1697796746
-23.1359699325
-23.1466370522
20.1453256559
18.0469883935
20.1925905153
-23.1792448709
-23.1662032425
-23.1588901183
-23.1354163092
32.1432883156
25.5675701537
31.7805907576
-23.1328929632
-23.0915275543
-23.0903504324
-23.0348559977
41.6569544673
37.4652940155
40.5804153648
-23.1050734744
-23.0607796498
-23.025710294
-22.9610399279
49.3976470399
43.492172686
46.4365836604
-23.0011550412
-23.0721421757
-22.9208380294
-22.9727333186
47.0625938481
47.901838969
46.1118174744
-23.1391590981
-23.1621962779
-23.050445906
-23.1206748955
41.6267932694
44.2277752129
42.2516216172
-23.1485992155
-23.1798456273
-23.1165562562
-23.1727091736
42.3088711637
41.6676083096
42.7990203563
-23.1858216087
-23.191082513
-23.189730122
-23.1932288819
45.9470617001
42.6723726808
46.7321372398
-23.229591823
-23.1318465261
-23.238076043
-23.1277857627
16.4671910637
15.0874390126
15.0924489987
-23.2262783838
-23.1932974706
-23.2170724387
-23.1946973565
17.3921113369
15.6650274977
16.8129136029
-23.1434504326
-23.1390362227
-23.1342050176
-23.1263073912
20.9014715601
19.0227119628
22.6321613462
-23.1356090592
-23.1030566036
-23.1004821683
-23.0727217359
31.6459636569
27.4852179361
32.1110104754
-23.0150035599
-22.9184661665
-22.9641934518
-22.8718490142
39.825764105
36.7411092326
39.0874318316
-22.8092976792
-22.7469581947
-22.79664938
-22.7630465784
43.9820193082
41.4138024475
42.2964707476
-22.9044660076
-22.9267757745
-22.9440978767
-22.9499166302
44.3694228992
43.9104661849
42.5731466179
-23.0234836088
-23.1038231602
-22.9704597428
-23.0658120881
42.3611501856
41.7517634834
41.2669976533
-23.0730718146
-23.1759169858
-23.0655006105
-23.1748794401
42.9757760963
41.4827384937
42.7469437606
-23.1863742506
-23.1853254878
-23.1790793471
-23.1785483003
47.0287107563
42.4709784146
46.8526016371
-23.240663964
-23.1249946499
-23.2359881858
-23.124840116
13.9777655429
14.2070799357
13.8786153214
-23.2161744393
-23.177126814
-23.2221092514
-23.1654025865
16.1192002544
14.0369834736
15.663580402
-23.1228217713
-23.1175589117
-23.1122508546
-23.124951968
23.5334915439
19.2473087003
24.1876460627
-23.0674206365
-23.0306705784
-23.0642127861
-23.0170769331
32.6146512642
28.7897957434
32.3496797107
-22.9280623415
-22.8697135808
-22.9259317879
-22.9011423739
37.9878056777
35.4081750472
36.8390071633
-22.8469327127
-22.8651643865
-22.8998885946
-22.9467154885
41.3551756613
39.4760288511
40.6975085198
-22.988618255
-22.9763287325
-23.0816320032
-23.0863783268
41.2445690908
41.2139798158
40.3654794901
-23.040898171
-23.0851792148
-23.1149449346
-23.1258516161
40.1675768363
39.0462734461
39.4432495154
-23.0720217825
-23.1853949482
-23.0893752202
-23.1983883131
42.5262338678
40.2570789465
42.3949782223
-23.1740376355
-23.171014561
-23.170830758
-23.1636945618
46.4806795667
41.5032436901
46.0513137049
-23.2169392264
-23.1298694461
-23.2117821284
-23.1323474606
16.2219868265
17.4498346644
-23.1077225026
-23.133387401
-23.1305638966
24.7418611479
21.4569547282
25.4481310889
-23.056469124
-23.0092435922
-23.0596526022
-23.024984083
32.2943496657
29.1509290434
32.4970325662
-22.9490419166
-22.938347402
-22.9834813335
-22.9787945923
36.3665407642
34.9049755831
36.5443581592
-22.938235407
-22.9924704138
-22.9733158486
-23.0206743251
40.232187379
38.48970666
40.0843348793
-23.0949623788
-23.0987408495
-23.0749243225
-23.0682764011
39.9486769933
40.804523387
40.0311151147
-23.1144645445
-23.1236484339
-23.0820501421
-23.1024380242
39.4402766775
39.3854287121
39.823703872
-23.0901623345
-23.1738878396
-23.0775568479
-23.1392847396
42.260917009
40.5320406063
42.1715058189
-23.1410151112
-23.1402285415
-23.1124882855
-23.1149889272
45.921055034
40.994366044
45.351895591
-23.1966372947
-23.1288026841
-23.18170001
-23.1252402383
33.1574633216
34.7202225888
-23.0643226047
-23.0723206698
-23.093681911
-23.1088702159
37.2850411964
37.269608734
38.6983690943
-23.0745428812
-23.0810091409
-23.0825164642
-23.0844373259
40.4396785596
40.163323807
41.2811315191
-23.1246923208
-23.1159978906
-23.1105464321
-23.1139832042
40.5773703856
41.0852861374
40.7473050279
-23.0418123357
-23.0901628254
-23.0859760205
-23.0901546548
40.51218324
40.51644107
41.1734519285
-23.0507033192
-23.0948073429
-23.0382511951
-23.0708542358
42.2658923473
41.7158332937
42.604544146
-23.0875591712
-23.0892392099
-23.0715942792
-23.0715920649
44.7602804555
41.905551161
44.7405677001
-23.1703542478
-23.1220892462
-23.1561835253
-23.1351735186
40.9601135266
-23.0669814974
41.8457521042
-23.0468475114
-23.0614977315
-23.0531868169
-23.0565912334
43.3540335158
-23.0592407036
-23.0591376944
-23.0480199192
-23.0495400317
45.6956394391
-23.1507455387
-23.1360427683
-23.1411362217
-23.1260489327
1785.53875332
1786.98514731
614.223953801
615.989451747
1787.44188983
614.165333897
1784.8534832
1786.77899981
1789.63922094
616.19185789
615.48433804
1788.27991507
1788.30230894
614.619521328
1792.79030151
1789.49580235
620.207099139
617.737667357
1789.91499487
620.337245201
1792.50978217
1795.05657692
1796.5113922
623.321837306
626.829671443
1796.57572853
623.369028827
1794.85432344
1793.46356352
1791.86315085
617.979105696
621.111727701
1790.6318907
1794.34665302
620.56054267
1795.70778243
1797.80420872
627.166949944
624.248194557
1797.0876996
1796.50703542
623.719654787
1794.05961432
1796.61557724
632.822862481
630.430328094
1796.47617074
632.378975785
1794.36912399
1789.34856981
1783.25008122
633.187251475
631.403808954
1783.24329051
632.59324356
1789.62524121
1794.21028927
1797.34755588
630.561359987
632.573046935
1796.75963044
1794.68505397
632.33538991
1789.55250637
1783.82161563
631.302356211
632.514448698
1783.57388799
1789.9141029
632.422352485
1770.12410113
1776.25617288
626.180480455
628.922555397
1776.73049554
626.23721944
1769.37430191
1766.25899508
1764.51536273
623.463495436
623.259268143
1765.50972703
623.43720359
1765.4205133
1770.65566201
1777.2824763
628.833586127
625.961874622
1777.11053813
1770.95477681
626.093446941
1767.20089934
1767.44658195
623.295441743
623.179226483
1766.79292383
1767.74381675
623.284591495
1769.62516501
1765.05313142
632.114993611
626.876074737
1766.13258622
631.936278682
1768.65852495
1774.00595332
1777.79141644
637.981659445
642.277907859
1778.56574785
637.686087764
1773.10725798
1770.58904164
1767.94496316
626.637573315
631.088740328
1767.05157169
1771.49340259
631.500184963
1774.96474345
1780.16084838
641.333064351
636.294248043
1779.35786779
1775.89438981
636.846525038
1786.81491246
1782.29867399
648.829561876
646.334156433
1782.88911382
648.429595088
1786.50427638
1789.70434627
1791.92683948
649.187249201
648.583117223
1791.68144183
648.783155165
1789.74089908
1786.91231969
1783.9178936
645.142933916
646.4274997
1783.35959143
1787.21615362
647.27199131
1789.51541131
1791.01418816
647.811216495
647.03488784
1791.29069159
1789.54476697
647.838360049
1793.57777672
1793.40216161
646.999687681
647.876687249
1793.04349829
646.828245024
1794.07072758
1793.98556008
1795.02599703
646.083527398
645.138082336
1794.23498395
645.920698271
1794.60209787
1792.89498985
1791.98868699
647.368034765
646.032029163
1792.46341029
1792.20730189
646.515043918
1793.18983501
1792.14836905
644.822029346
645.322565822
1793.27488136
1792.30236196
645.715549427
1793.05853802
1794.91022915
644.375193068
644.472211091
1793.98299923
643.896515225
1794.09159295
1791.4566224
1790.18594627
643.888292046
643.133897474
1788.74965595
643.429006884
1792.67601334
1791.62303582
1791.45276439
643.989367468
642.626074707
1792.82869492
1789.99291772
643.253445464
1789.73612216
1784.83829136
642.052082198
641.855829549
1786.63818404
1787.98721252
642.599275834
1781.18635257
1787.0803335
649.366975498
644.183466014
1785.50720798
647.987244981
1783.24290771
1772.64977782
1776.65390465
656.758324352
610.777509128
654.07825685
1778.53523378
1776.17504644
1778.05350949
1780.64475745
642.489881261
643.975687987
1782.59217148
1775.72074153
645.344238213
1768.77214357
1783.67911418
613.889557484
648.015571251
1765.98893434
649.713388373
1781.44477479
1806.15773125
1809.57150764
624.1635354
626.479720515
1804.96030513
624.24671909
1809.93607465
1801.99739325
1795.38134255
621.149686539
619.795394721
1799.83790202
1798.35356431
621.681482589
1807.22773605
1810.49068167
626.249068542
624.726976411
1808.25807788
624.374913583
1810.24113062
1804.01338106
1803.42447701
620.874924271
623.219405186
1801.06605138
1805.83231061
622.366620572
1793.53225906
1792.16817905
616.498379577
618.674450474
1790.62724946
1795.48531731
617.831041996
1792.55437442
1791.19751111
616.573800561
618.490744083
1790.24043747
1793.06336149
617.498728046
1796.40254438
1801.12870135
619.932513831
620.220457814
1798.49291578
1799.25082294
619.111818683
1795.12582326
1797.63656328
619.710325516
620.217306764
1795.20908987
1798.04218843
618.682298542
1796.24997276
1793.00434514
621.805034559
620.415247937
1795.14539489
1794.4577388
622.686232866
1797.90832226
1798.4485596
624.847639441
629.092695167
1797.15184246
1798.99520797
625.565475763
1797.45300014
1797.96267363
621.594086936
624.818432417
1796.11021981
1798.8254632
623.82384884
1798.74319599
1799.78353888
630.151414733
627.899841018
1799.40659733
1799.63299133
627.001631563
1795.44143104
1797.92597732
633.100637111
632.313592131
1795.11374822
1798.39079929
633.612174791
1790.38737321
1783.97901797
632.763914323
631.635375185
1790.18238293
1784.03724982
633.175369735
1795.17878388
1798.32931175
633.0229874
634.139688611
1798.41890364
1794.68293011
633.978415154
1790.03275174
1782.99966688
631.291915412
632.764657167
1783.68242012
1789.34557503
633.068292885
1771.02880682
1777.35614587
625.760258799
628.634261213
1770.99863014
1777.37775101
625.569833916
1768.12727553
1767.7501443
623.16458873
623.361013403
1767.95248164
1768.25981465
623.030917156
1771.22797208
1776.85823007
628.220154835
624.873968603
1777.26477012
1771.45695143
625.204964238
1768.65947687
1769.87040413
623.617495764
622.765934869
1769.02949741
1769.34127659
622.886606761
1772.9566719
1768.74085215
630.746661855
626.490713158
1772.2018155
1769.67560411
630.523485296
1777.17362597
1780.61573925
635.314047782
638.683459178
1776.45505514
1781.35594331
634.825371085
1773.85456136
1771.36013441
626.970078306
631.033133714
1770.36540312
1774.82887366
630.786711573
1778.00173766
1782.96112669
638.239213817
634.68826646
1782.12844539
1778.90453303
634.657475415
1787.69891153
1784.24094055
645.38315657
642.330292233
1787.37780429
1784.87749709
644.428574412
1789.45061747
1790.60307355
645.95851681
645.121070174
1789.41357792
1790.51043153
644.931774229
1788.22142872
1786.29742661
641.794821132
643.148252099
1785.54716469
1788.86595809
643.741482201
1789.7647451
1791.04424152
644.371961294
643.661491413
1790.65397371
1790.27938978
644.254858309
1791.22767725
1791.35513281
645.362478194
645.045926913
1791.5188917
1791.14745488
644.597163842
1791.01684496
1791.16216441
644.818900097
643.475206064
1791.46103586
1790.46933439
644.152024113
1791.13329889
1791.43484984
644.166441214
643.226193061
1791.15147106
1791.30317431
643.801793907
1790.82437637
1790.05850225
642.811471752
642.854554291
1790.09461731
1790.90623161
643.408002354
1787.57275597
1790.18961631
642.145943962
642.557909273
1788.55723921
1789.31707741
641.627327774
1785.3766218
1783.55169795
641.181466977
639.863739713
1786.37567342
1782.64902652
640.636695787
1786.9954499
1788.61737733
642.039385831
640.717930804
1788.80958835
1786.71147798
641.174200469
1784.82336738
1781.80442064
639.509128776
639.765763262
1782.1157815
1784.50336172
640.2306905
1774.3827656
1779.99964678
643.312527465
640.037812247
1775.26441392
1779.1782363
642.710591782
1765.14503346
1784.62751677
647.465817915
617.905477337
1766.13482347
646.623488703
1784.85138883
1774.28335472
1778.54274043
639.752233783
641.802750195
1778.77299829
1774.09426499
642.405129586
1765.67520747
1784.68190512
618.13259885
645.213454316
1765.61911963
646.362966396
1785.00966959
1809.31680788
1810.61624629
624.732225268
625.06422967
1808.89719467
624.3679042
1810.53516511
1807.95319779
1805.15926959
623.803564395
623.196109862
1806.94638207
1806.43918105
623.742109373
1809.38872868
1810.03464744
624.694355803
623.8907416
1809.34343733
624.086444701
1810.29890704
1808.42324649
1807.91193926
623.13358151
623.435962155
1807.31902171
1808.6472318
623.519710783
1803.69620105
1803.395212
621.261808114
622.707713109
1801.77158442
1804.97976584
622.446451554
1802.82884702
1799.97065081
621.311037981
623.22906092
1800.5730704
1802.27636292
622.465407737
1805.1669188
1807.16842685
622.998417077
623.686019247
1806.16826039
1806.46099109
623.18952113
1804.67021813
1805.70608017
624.538440145
624.602466355
1804.2581205
1805.95553143
623.539447988
1801.78896888
1799.95493165
625.956030032
624.749702867
1800.32248622
1801.98497532
627.097808404
1801.21373842
1799.98904325
629.049764428
632.112273094
1800.46981611
1799.88039634
629.990730181
1802.92704555
1805.02184804
626.187264534
629.336447683
1803.70991056
1803.59763744
628.272204171
1801.52355617
1798.53952672
631.948866449
630.846427364
1799.32915502
1801.34615801
630.632149176
1792.83667448
1797.9788721
633.813921083
633.37813889
1793.92219113
1797.13677662
633.072925597
1787.60911316
1782.29217683
632.144146631
629.218612204
1788.52390053
1781.78349282
631.234670368
1791.87405193
1795.13267818
632.406080246