/*--------------------------------*- C++ -*----------------------------------*\
| =========                 |                                                 |
| \\      /  F ield         | OpenFOAM: The Open Source CFD Toolbox           |
|  \\    /   O peration     | Version:  v1906                                 |
|   \\  /    A nd           | Web:      www.OpenFOAM.com                      |
|    \\/     M anipulation  |                                                 |
\*---------------------------------------------------------------------------*/
FoamFile
{
    version     2.0;
    format      ascii;
    class       surfaceScalarField;
    location    "6.95";
    object      phi;
}
// * * * * * * * * * * * * * * * * * * * * * * * * * * * * * * * * * * * * * //

dimensions      [0 3 -1 0 0 0 0];
oriented        oriented;


internalField   nonuniform List<scalar> 
92311
(
0.203609529952
-0.000371624142101
-0.000699111603792
-0.203179421729
0.00064062697792
-0.000227072343786
0.20379103215
-0.000231431289353
0.000277225946116
0.203743308637
-0.000846164557597
-0.000679822765186
-0.203246947811
0.000658267300881
-0.000464525131133
0.203908515683
-0.000269721407666
0.000342275673168
0.20429050827
-0.000461310139153
-0.000426563091242
-0.000601901611341
-0.20344246113
0.000708051039473
-0.000500840887571
-0.000411606605488
-0.000255215081569
-0.000100773140069
-3.64454972563e-05
0.204201598507
-0.000304412434484
0.000522568026003
-0.000201322734667
0.0511638075197
-0.000172759382796
-0.00018934910762
-0.000181764618587
-0.000179863510282
-0.00013669273711
-0.0509011193533
0.000136412647513
-0.0512655230102
0.0512737169637
-5.57916852208e-05
-9.17209984869e-05
-9.71040366364e-05
-5.58256363012e-05
-9.99321252939e-05
0.000136928622844
0.000205646817279
-0.0043795412414
0.000198480427781
0.000225446029524
0.000225138140084
-0.00521459173026
-0.00103406806999
0.00601003058522
0.00376357173555
-0.0121776904044
0.0026916585944
0.00124352104199
0.0120265474242
-1.14538940805e-05
-1.91578030128e-05
1.36277890564e-05
7.6099312841e-06
-0.0037749294046
-0.0782096066393
-0.0101628053482
-0.0109518222592
-0.0119664342622
-0.0311601900361
-0.00950427417203
-0.0273047719887
-0.0117172899551
-0.000154268583205
-0.000126845430199
-0.000132256768462
-0.000147181217637
-0.000103140003353
0.000135398274735
0.000217713530845
0.0122654692673
1.18283861034e-05
-2.63793359413e-05
-0.0122630757845
0.0122749775426
-0.000159326568012
0.000148819102011
-0.0122627953517
2.47968709574e-05
-2.65190292466e-05
0.00010828631622
1.07419286324e-05
0.0511676148202
9.35682850939e-06
-3.47333990786e-05
-3.6901167536e-05
-5.14799539912e-05
2.11479741836e-05
0.0511132797104
3.03014018208e-05
-1.27900692973e-05
-1.4315724632e-06
-0.0512499677508
0.000171251169389
-0.000113354717368
0.000105334232506
0.0122769131148
3.78934523238e-05
-3.17789730127e-05
3.88831131131e-05
0.0127803832023
-2.96860124128e-05
2.68579664216e-05
-0.0128057200756
0.0127700022213
6.5276882646e-05
2.29273442364e-05
-0.0127982864238
-0.000402267359325
0.203589602483
-0.00145325392074
0.0012119548279
-0.202946035808
0.203741010415
-7.93766623389e-05
0.000274334181872
-0.000144210503216
-6.80617992794e-05
0.203641341179
0.000553196259179
-0.000384885672664
-0.00080288058745
0.20358666327
-0.00142758765439
0.00118336379428
-0.202941639031
0.203777170381
-5.31637622402e-05
0.000193502302376
-8.78529782061e-05
-8.79173208983e-05
0.203639123883
0.00047543904294
-0.000317051292686
-0.000324851480893
-0.00043415675079
-0.00043355066574
-0.00137345633416
0.20371811857
0.00110520405287
-0.202741482196
-0.000318663025815
2.05842052872e-06
9.23256068411e-06
3.74176652048e-05
5.38207316854e-05
0.203825142287
0.000198060662336
2.26611582763e-05
0.0507706149533
-0.000126463364428
-9.98313962668e-05
-0.000121118139377
-0.00010672547747
-0.000313688092569
-0.0505775291145
0.000249892225384
0.0510305119225
6.21867825585e-05
1.3571783469e-05
1.25474704799e-05
2.13891513781e-05
2.33468690342e-05
5.98908539493e-06
0.00225529770196
0.00105935486219
-0.0102289530984
-3.31207688829e-05
-4.76685982258e-05
-3.73766676794e-05
-5.10381741163e-05
-0.00509449158828
-0.0111403376013
-0.0109254765655
-0.010274965536
-0.0550426579569
0.0731616307295
0.00726512845069
-0.0578031408411
-0.0115258062819
0.00834182656378
0.00560464493139
0.0122522394597
0.00656563020863
-0.0269089716466
0.0189762298511
0.0223955597231
0.000184553530268
-0.00013416771542
-0.000147897905436
-0.000128552559492
-0.000153826543337
0.0509633523199
-0.000247071256486
-0.000143578481961
-0.000169334073352
-0.000137803058204
-0.000159971171149
0.0509220089237
0.000150929312127
-0.0507113156775
-9.94796994022e-05
0.000114559133934
0.0123049373098
0.000136509399471
-0.000161160316194
-0.0122953371264
-0.00013991792136
0.000162792444716
-0.0123112270007
0.000115591620698
-0.000133159906516
0.0123058890602
-0.00016815614286
0.0126777609237
-3.25436206051e-05
2.65825521091e-05
-0.0126472282869
-6.39822012481e-06
9.14853404712e-06
8.13026817233e-06
1.36007535739e-05
2.87447076192e-06
0.0509329899813
7.93927965036e-05
0.0509734460191
1.79640178741e-05
3.16454784189e-05
2.46973658302e-05
2.29817533361e-05
0.000142112486888
2.03556244983e-05
1.7242168231e-05
9.60300128912e-06
3.07036325308e-06
0.0508898116284
8.09330977968e-05
3.02593356292e-05
-1.8745261302e-05
3.06917161312e-05
0.0127516449549
3.47239444374e-05
-8.24559292063e-06
-0.0121893495372
3.2654757049e-05
0.0121527122035
-2.25772107232e-05
6.03141167479e-05
1.84784452012e-05
0.0127394397703
-0.0127055263815
2.67982593126e-05
0.012684827917
-4.36855728234e-05
5.80255190511e-05
-0.00926988907593
0.000186348489667
0.000180552212166
0.000210255927349
-0.00179939351299
0.00182949742505
0.00412396584057
0.00123208173784
-3.36827273831e-05
-6.20070999919e-05
-4.40874810841e-05
-2.25428866734e-05
-0.0117102703846
-7.7195184645e-05
0.0134094437662
-0.000605761182787
-0.0104288720217
0.00583088694115
-0.00372254213561
0.00504622317453
-0.0120731685601
-0.00328857567659
0.00224087945305
7.71412612233e-05
0.000121554438306
6.59317512399e-05
-0.00140408225767
0.00154261968321
-0.00413166237752
-0.000608904663474
6.46337819609e-05
1.44305486004e-05
0.0127625838562
-1.95422060581e-05
-0.0127124590398
-0.0127675149285
-0.000231374209203
-2.18774697246e-05
0.0128050709104
2.63345180412e-05
1.57205883717e-05
0.000214653191771
0.0122597497352
-2.60927587989e-05
0.000235042044715
0.0122593136036
-0.0122601310952
3.05889949971e-06
-0.0127151364263
1.54350163858e-05
0.0122547428938
1.41223809013e-05
0.0127986274685
-2.30176230529e-05
0.01284630772
-0.000201776042112
-2.8371599192e-05
3.46662538155e-05
3.75754880591e-05
-0.0128376292551
0.0128551079558
-3.30534770677e-05
2.02784711661e-05
0.000188427454624
-2.53496191442e-05
0.000152527030752
-0.0122570719286
0.0122733575065
3.64863021487e-05
0.0128583250872
4.60309972832e-05
2.64841516743e-05
-2.59859459046e-05
-0.0128569628326
-3.67239699235e-05
-4.4209831512e-05
0.0128320497112
5.00404635077e-05
4.46187333952e-05
0.0128596526153
-3.54810862862e-05
4.75474281416e-05
4.54798319493e-05
0.0122961466323
-3.51077778904e-05
0.000105106231723
0.0122727289654
5.49924570858e-05
5.3983464135e-05
0.0122863054452
6.31856453603e-05
0.0128403526727
-3.51638706396e-05
1.82318093216e-05
-0.0128139352681
0.0127916656914
-1.64160853641e-05
5.12758502509e-05
-0.0122723998761
0.0122624605038
-3.4573948437e-05
-0.0122590676271
6.80774602691e-05
0.0122499839844
-1.57318461546e-05
-3.83797908483e-05
4.56137157372e-05
4.88147793152e-05
2.08187235536e-05
-3.22813520908e-05
6.79358107663e-05
-2.82114604205e-05
5.14461988923e-05
-0.0127948432008
0.0127611520916
7.78298553236e-05
6.7200307377e-05
-0.0122487208978
0.0122388335958
-0.0122286408811
0.0122199274613
6.52177347757e-05
6.70625521329e-05
-7.81236180464e-06
-0.0128247658408
-1.16753659935e-05
-6.9966871467e-05
-0.0122623836874
7.13450558258e-05
-0.0128206524704
7.98676775815e-05
-0.0122813378383
0.00612952074794
-0.00827291174063
0.000140730957506
0.000163013631713
0.000144997427283
0.000135669453166
0.000618926529156
-0.00602199957373
0.00696197455688
-0.0100999217707
0.00634483964732
0.00708697605342
-0.00834415111729
0.00611375862447
0.00601016724208
0.000118106388847
9.343007899e-05
0.000111035034109
-0.00681936139634
0.00858039170658
-0.0143069751562
0.0052841095387
0.00013220508639
0.00013730613007
0.000132134517678
-0.00204107786322
-0.00594367436879
0.00446319131428
-0.00841842327503
-0.0090169168157
0.00805717435122
-0.0102878909348
-0.000344992961351
0.000297160421986
-0.00754537468272
-5.48914040606e-05
-7.94035507801e-05
-8.63108223913e-05
-5.14251611392e-05
-0.00193441357642
0.00127752490782
-0.00643324536538
0.00336844037988
-0.00677488809307
0.00263733925427
5.04143358651e-05
0.000191702431474
-9.37655617e-05
-8.47357320123e-05
-4.43495717029e-05
-5.17105547524e-05
-0.00324267722753
-0.00427115276204
0.00320763880197
-0.0010097634467
0.0036750421409
0.00165392031042
-4.38098473737e-05
-3.63702535128e-05
-5.03759902365e-05
-0.00769818411599
-0.00382733216172
0.000874025736047
0.00376976667143
-6.35396971462e-05
-0.0126348145867
-0.000148437661469
0.0126665015408
5.38021218189e-05
0.0126438788809
7.1138512397e-05
-8.00440967219e-05
-0.0126202331377
0.00014125384037
0.000134729125595
0.0123015690207
-0.0001544522036
0.000119753123411
0.0122931057185
-0.0122856514364
0.000102815666173
0.012675633131
-7.51199648353e-05
-0.0126126596426
6.20341529893e-05
0.0122887709516
0.000101515895452
-5.41427828586e-05
0.0126955042117
-0.000152697838805
4.37212876011e-05
-0.0127036516069
4.55703032394e-05
-5.89481418028e-05
0.0127318920568
0.000142915179418
0.000122133423672
-0.000142374627768
0.000172546608835
-0.012297022387
8.66635912304e-05
0.0122908689635
-6.77576808053e-05
3.48683663041e-05
0.0127248575299
9.32118427454e-05
0.0122794155796
-6.33798142887e-05
3.18423554325e-05
-0.0122751210827
0.000200983748822
-5.82656992107e-05
0.0122696900951
2.98590200022e-05
-2.48164443349e-05
0.012712926702
2.11808195168e-05
0.0126872607601
-0.000157032968282
-0.0126569184147
0.000182606938306
-0.0122906422884
0.0122816445327
0.0127199666123
-0.0122823470298
2.65891126155e-05
0.0127634276469
-4.63154102003e-06
5.27171796887e-05
0.0122386260331
-3.55178443188e-05
0.0122217845223
6.3953255772e-05
-4.86978542922e-06
3.70778464554e-05
0.0127230285348
1.7759499487e-05
-3.87911228375e-05
5.15119805622e-05
0.0122214554432
-3.28983869112e-05
0.0127333444118
9.76220284578e-06
0.0122002359086
5.91037670077e-05
3.41364522385e-06
0.012701805942
1.69816366586e-05
9.97185566683e-06
-0.0127078762755
-9.31273275358e-06
0.0126948375268
2.22350655697e-05
-2.46815858048e-05
4.36339821109e-05
-3.06609211977e-05
-1.32225393963e-06
-0.0121635481381
3.46148173951e-05
0.0121265257375
1.7886979111e-05
2.84512639026e-06
0.0126912842224
4.69941409156e-05
-0.0127317189643
4.41050911605e-05
-4.93499107537e-05
6.31142802407e-05
4.03068419601e-05
7.41761505375e-05
5.67361239595e-05
0.0122098274401
0.0121902186543
4.7343178501e-05
-4.99646417716e-05
0.0121685518245
2.95535826231e-05
1.880928315e-05
0.0127119928997
0.0121863353057
0.0121279648586
-3.10256947765e-05
4.74331896411e-06
-1.39914916504e-05
-1.33908570917e-05
0.0120876533615
-1.68244043039e-05
-3.37407488736e-05
0.0126755799671
4.63793138805e-05
0.0126907942521
-2.84368350127e-06
1.89819614912e-05
-0.0121477652473
0.0121056118821
0.0126819878458
-6.35127135871e-05
-2.55493098651e-05
-6.10710016784e-05
0.000540697414378
0.203707850068
-0.000107919411852
-0.000253175906372
-3.16324994311e-05
-3.3603978613e-05
-1.85455148562e-05
-3.20565749378e-05
-2.30781370587e-05
0.000113475226123
0.0508949282187
5.58223476949e-06
-0.00160589742579
0.0030756637509
2.51622978019e-05
3.33785788531e-06
1.26680923136e-05
-0.00308381206853
-0.00613082038737
0.00314206638583
0.00644789389768
0.00463927696395
0.0509434068956
-0.00920411627503
0.00296093127313
0.0337780127624
-0.000152414048388
-0.000152671143599
-0.000143551552872
-0.000163722143836
0.000392767997416
-0.000159977282255
0.0511648376285
-0.000178409874764
0.000197718909872
-5.00408213343e-05
0.012274045908
0.0508398573671
-2.81970370497e-05
-2.5850349607e-06
-1.83965356876e-05
-1.18372476284e-05
5.38663255527e-05
0.0508486793697
-3.66895708406e-05
-3.62471547677e-05
-4.73370387641e-05
-2.09633110795e-05
7.06041163107e-05
7.82137081876e-07
1.9567504506e-05
0.0121328547457
1.60105187955e-05
-1.0029710751e-05
3.6729807287e-05
5.05067204609e-06
8.27076112929e-06
0.0120719144299
-3.41227665595e-05
0.01202198714
-2.57285068675e-05
5.72418144344e-05
5.46636857321e-05
-0.0120392225462
-6.87702641163e-05
0.0508705852821
-6.29762873345e-05
-4.6796331362e-05
-5.39487911289e-05
-6.08759795877e-05
0.000140514534015
0.000131701245114
-6.95633141425e-05
-6.1997879303e-05
-6.66279318767e-05
-6.55964509474e-05
-6.10722805841e-05
0.000210971830437
0.00020254027429
0.0508719546244
-0.000159613679539
-7.49132202668e-05
6.48950214735e-05
6.5236899003e-05
0.0120394650126
-7.25772062168e-05
-9.06274773406e-05
7.8963983617e-05
8.01371016894e-05
-0.0120841544981
0.0120999781024
-8.4255464147e-05
0.000145364862035
0.000173916164611
0.000149271418031
-0.00580311740538
-0.00460617079996
0.00516614911141
-0.000821608042396
0.00117304119957
-4.11818927201e-06
-2.87062057203e-05
1.72764490311e-06
-0.00513188627899
0.0018431287076
-0.000279066872898
3.88542982697e-05
7.4660916361e-06
2.31430157328e-05
0.00195702477593
-0.0044378907403
-0.00181509636298
0.00540247355408
0.0035019162155
0.00194244280094
0.00287376305677
0.00315548220657
0.00303746221767
0.00226716966903
-0.00134386063766
8.08459569029e-05
9.24938257175e-05
9.09112297104e-05
0.00131415547702
0.00152905458917
-0.00211717234335
8.59783402707e-05
0.000106122611107
9.79261901047e-05
-0.000334394310834
0.00191872652718
-0.00360251777444
0.000294030247366
-0.0127576109157
-0.000181037375832
2.02954030133e-05
-2.4910440691e-05
0.0127908326681
-2.0491080418e-05
0.0127588350491
0.000172246847789
0.0122811295686
-7.63309101104e-05
-4.60757739375e-05
0.000200378988541
0.0122676408813
-2.94348222643e-05
-6.87478241826e-05
0.0122717836272
0.0127927456514
1.37789099945e-05
-0.0126810215483
-4.26219595825e-05
-6.33676954264e-06
0.0126826009023
0.0126838242366
-1.31703946374e-05
2.52505790585e-05
4.88159457065e-05
1.62828301877e-06
3.74281628429e-06
0.0121038330815
2.173742857e-05
0.0121088646922
1.53262736788e-05
2.60082012945e-05
0.0126883586403
-4.26339670244e-06
5.40175079738e-08
0.0120806146743
-0.0126732711499
-5.28677691506e-05
1.87911761627e-05
0.0126727836958
-2.38698625001e-05
0.0126671347017
3.48285688044e-05
3.78796199071e-05
0.012087183612
2.32397451373e-05
2.15761602948e-05
0.0120435652905
-4.53002712004e-05
0.0120592426704
0.0126656120511
3.00305509351e-05
0.0126732758936
-5.90753457415e-05
5.91139016645e-06
1.59512946703e-05
4.13902313698e-06
-0.01266193279
0.012670846054
7.98433317773e-06
7.63789234275e-05
-0.0120474864484
0.0120289138703
3.56936183596e-05
4.22137324777e-05
2.92616558427e-05
-5.97797933458e-05
0.0126834142505
2.29755576745e-05
1.80912770115e-05
1.78480566989e-05
-0.0126900134203
-8.58444203889e-05
-2.88574124619e-05
0.0126978443103
4.38878843872e-05
1.88148025902e-05
0.0126762523548
-6.05151704005e-06
7.74496634101e-05
0.0120456795653
5.18869873104e-05
6.89557084855e-05
8.01679499316e-05
0.0120570953205
-7.40863919962e-05
3.57593565225e-05
0.0120631212311
5.66947575334e-05
0.0126845710604
-1.7735787333e-05
0.0127055805495
-8.28150252667e-05
-3.82081146971e-05
5.12920454071e-05
5.07653563976e-05
-0.0126952151775
0.0126975543318
-4.07341822046e-05
7.74264473951e-05
-0.0120892372041
7.26553089894e-05
0.0121053513659
7.84069085275e-05
8.20947820993e-05
-8.1176112008e-05
6.19881111575e-05
0.0127062258751
6.73833552356e-05
-2.77198988788e-05
-0.000686002412998
-0.0493564879989
0.0492945793999
0.00086523909593
8.56185986102e-06
-1.14623221271e-05
-9.93104879742e-08
-6.66911117174e-06
-0.000107473639949
-0.000864491276464
0.0498299932627
4.19126204663e-05
2.57080340165e-05
3.3116073775e-05
3.30044599907e-05
-6.07569608519e-05
-0.049769990462
0.000731585573553
-0.00123154326106
-0.0499466081481
0.050038044943
0.000971218200746
5.95739922622e-05
5.11017491057e-05
5.62007422829e-05
5.32089389578e-05
-5.1203777729e-05
-0.000741635083355
3.77787558503e-05
3.73084107186e-05
4.27693028012e-05
3.26998099093e-05
-1.53600093604e-05
0.0501877156642
0.000538723955759
-0.0501199989467
-1.13712059811e-05
0.00354146856306
-0.0174200846332
0.0195798053941
-0.00414464962187
-0.00147382687392
-9.64774337386e-06
-2.74479279421e-05
-3.86926989128e-05
1.82187082269e-05
-0.0226598152554
0.0244281085748
-0.00640036392368
-0.00104644344182
2.87713519955e-05
-1.60169881496e-05
7.74973569195e-06
0.00563348507697
-5.01921208758e-05
0.00223062812973
0.0217093076517
-0.00717294140663
-5.57103081257e-05
-4.81334209585e-05
-6.19409240036e-05
-0.0175076771963
0.000956878165865
-8.03166601999e-05
0.00247739710783
-0.0268067234644
0.032354728841
0.00292813192225
-0.0106566205694
-8.01161826084e-05
-6.77303190168e-05
-6.91501293029e-05
-5.04844134215e-05
-0.00684821463975
-5.77405409968e-05
-4.78455297801e-05
-5.48984468208e-05
0.0294876410175
0.0101737893461
-0.00767867375316
-0.0249235838679
0.0957113095673
0.00161483232167
0.00446809503341
0.00409995743073
0.00599494292454
0.00621390609708
0.00141722827365
-0.0465354686546
-0.0191977488532
-0.00916783981105
-0.00896118521567
-0.00843193653831
-0.00812405119424
0.0179595009777
-0.00256185520532
0.0745594293562
0.00506936971822
0.00706069017227
0.00790926826382
0.0129360198463
0.0150048818353
-0.0355400644491
-0.0156782029638
-0.00307901314585
-0.00478369823004
0.00514012036934
0.00197851331866
0.0294577194771
0.0768770465857
0.0138322812269
0.0157710114119
0.013734138912
-0.0357361562386
-0.00730889885743
0.0134412160305
0.0101338523726
0.00844435989954
0.00925488378836
0.00812079408971
0.0597655623249
-0.0220222512235
0.000261966240677
-1.90062946108e-05
-1.55832906444e-05
-1.02453373264e-05
-2.04903384194e-05
0.0490147983347
3.7361779285e-05
-3.22643156746e-05
-0.0492165523138
0.0490477397321
0.000483437983329
-1.1869832113e-05
4.40877480624e-06
2.18856778633e-06
-9.05789755572e-06
1.2804229992e-05
-0.0492676938505
-2.1731393461e-05
2.76204116524e-05
-0.0122415502223
6.54082862877e-06
0.012205540602
2.3742691213e-05
0.0122207349331
4.9631499338e-05
3.63712419445e-05
-2.90703827558e-07
-4.51425060932e-05
-0.0122608957416
2.02718926249e-05
1.01450037526e-05
1.51043395425e-05
2.20277223745e-05
-0.000388294977373
0.0122645150997
0.012213110815
0.0121698260498
0.012158780101
-0.000123546937711
7.29854544685e-05
1.75679753567e-05
-5.86141750462e-07
-6.02825910506e-05
0.0121906611535
0.000640302918725
-8.88447118939e-06
-6.12098279028e-06
-1.31587168864e-05
-5.33602838818e-06
-5.23002778787e-05
-0.0494276049554
0.0495530430372
-1.18430928759e-06
1.91545653633e-05
7.84662799551e-07
1.37858962176e-05
-5.27598022876e-05
-0.0495684780598
0.000675980228044
0.0122444852261
1.18888858667e-05
2.33892178448e-05
-0.0122758285033
4.54308203037e-05
0.0122981342778
4.33055618502e-05
-2.12357108565e-05
-3.15187950929e-05
-0.0123179583161
2.92146276354e-05
0.00111273782701
1.50656520373e-05
1.30964247436e-05
2.68381641534e-06
2.80909144272e-05
0.0491686432243
-0.000231796924957
-0.000196678714351
-0.000224390651417
-0.000187261499
-6.53346208294e-05
-4.47921609348e-05
-5.27658560193e-05
-4.25828380591e-05
0.049544953112
1.01062959392e-05
2.02483757796e-05
1.01334645914e-06
2.95124248393e-05
-5.18631578755e-05
0.0496555934567
0.00105134585155
1.25130560478e-05
4.73562898274e-05
2.72830855884e-05
3.17930917213e-05
-0.000168005194741
2.77931643603e-05
0.0122110815441
6.75109110654e-05
0.012146462878
-3.97519492301e-06
2.52281353145e-05
-0.0121626478385
0.000127261686796
-0.000132432590706
3.2962842908e-05
6.49282949882e-05
-2.50501747389e-05
-4.19403855959e-05
0.0122672374457
0.0122213231567
7.38486457128e-05
8.37489427545e-05
-5.96340111054e-05
-8.95353713149e-05
-0.0122296229692
0.049792628623
2.45491846216e-05
4.28671306808e-05
1.91384660848e-05
4.89316081343e-05
-0.00132739589352
-0.000176489502278
0.00145897295916
2.6923313113e-05
4.57969350329e-05
4.72770827768e-05
2.02424139285e-05
0.0503060753671
-0.000320534938248
-0.00179187522443
3.2182409888e-05
0.0121414369856
0.000147326603352
-0.000156295083812
-6.44913969939e-05
3.06771754535e-05
-0.0121868986981
0.000207692199597
0.0122439886358
-0.000230865662836
8.92806139834e-05
8.59191619114e-05
-6.20085538777e-05
-0.000109940955472
0.0122180835083
0.000134468575111
4.16040676126e-05
-3.38515066156e-05
-0.000160092579467
-0.0122464034969
0.012264455768
0.00085154034076
4.67019675728e-05
5.27165332771e-05
3.74633546171e-05
5.75319666222e-05
-0.000111295322827
0.050064847764
4.08270225921e-05
4.41162930359e-05
4.71866209124e-05
3.86555816615e-05
-8.83984781626e-05
-0.0499677206693
0.00067201489488
-4.29272190634e-05
0.0122785731743
4.88805250199e-05
-0.0123018516021
0.0122368954162
7.65497582684e-05
-7.95116739615e-05
-0.0122458579379
8.57821553243e-05
0.0122692477655
5.73144290734e-05
-6.6384771998e-05
-0.000126452896605
-0.0122815689009
0.000147799702021
0.0010882499344
5.62582914002e-05
4.78407760448e-05
5.07200910163e-05
5.77544060315e-05
0.050281395964
-8.52469757024e-05
0.0501542478955
5.8092817736e-05
4.4371189752e-05
4.88756291264e-05
5.23701848193e-05
-6.35693963686e-05
5.95850544621e-05
5.84775886314e-05
5.45213280317e-05
6.22203511826e-05
0.0502888383501
0.000792665027148
-7.38453358064e-05
-9.01091048474e-05
0.0122364863413
9.95923321014e-05
5.53396884363e-05
-7.07710746042e-05
-0.0122622906482
0.000129002619154
0.0122830939628
0.000158267791501
5.26337095069e-05
-7.00985110296e-05
-0.000139099036198
0.0122675879501
0.000182690628174
5.01639274607e-05
-9.02424007668e-05
-0.000162235882817
-0.0122792822464
0.0122989332313
-6.53036346211e-05
0.0122741573889
0.000175995869403
-0.0122770485176
-8.04892154254e-05
-0.0122833927546
0.0122976065493
4.93265303574e-05
0.000199656526839
-0.0028409583212
3.44785585885e-05
3.5936784889e-06
1.70335690157e-05
0.0203470317579
0.00244316659826
-0.0210505124838
0.00102395391899
0.02010323878
-0.00270283872055
-2.81189414992e-05
-1.77656300691e-05
-2.14032335216e-06
-0.0201364039906
-2.22780853218e-05
-0.00201834019562
-1.71090161493e-05
-1.94494529714e-05
-1.72477757326e-05
0.00434059327358
0.0213943053862
0.016501401487
-0.00310425909138
0.000677364804153
0.00214133710838
-0.0117422366772
-0.00150643348312
0.0222805678
0.00011525088913
-0.000292893695523
0.018212167497
-0.00403074843037
-0.0133071244075
0.0240048040108
-0.00303663016017
0.0019384876322
0.0158499179088
0.000491316690114
0.000451067159866
-0.00367835107652
0.000678231967471
0.010176619216
0.000141569525988
-0.00411774704016
0.0183052315419
-0.00275936839061
0.000498819827618
-0.0020311758945
0.0123067946368
0.000575535679303
-0.00398831277261
-1.16656113822e-05
-1.08340376648e-05
-4.25198080034e-06
0.000653288820582
-0.0167495044987
0.0165024861094
-1.54454721591e-05
-4.02071752598e-05
-1.30097644152e-05
-0.0143732468511
-0.0026043789762
-0.00340148808689
-0.00516504046594
-0.00267319043464
4.98852227804e-07
-3.92295554336e-05
-3.81183584509e-05
0.00482797223817
0.020596304221
-0.005795345407
-3.3007237265e-05
-7.33586713524e-05
-4.16628903718e-05
-0.0086942678059
0.0260188326882
-0.00164268104021
-6.14351973027e-05
-6.27921693983e-05
-4.29020744808e-05
0.0181341527803
-0.00355179629432
-0.0130332935148
-0.00331341248044
0.0236682942986
0.0185640143646
-0.00208778097215
-0.0128773305165
0.0239276121595
-0.00237338629769
-0.00592833468691
-0.000373394831061
5.12781921198e-05
5.33310625311e-05
4.63198266321e-05
0.0253396720657
0.0051695363286
0.0310071513776
-0.00865692096744
-4.6092381312e-05
-7.99614382715e-05
-4.31603304063e-05
-0.00526974174269
-0.00300718329131
1.73596244696e-05
-6.0868618255e-05
-1.22653833844e-05
0.033452136496
0.0199395893858
-0.00315456670962
-0.00326959208743
0.0160060247638
0.0197778344732
-0.00252437671142
-0.00206465749818
0.0152828162572
0.00262415343275
-0.0091004884668
-5.35231406493e-05
-7.52984868735e-05
-5.93854672355e-05
-0.00757030752272
0.0259083531238
-6.43462560108e-05
-4.66009361623e-05
-5.97569809498e-05
-0.021604650729
0.00611911622286
0.0179828118754
-0.0123128243259
-0.00109277323423
-0.00144863736347
0.0237248537026
0.0236445968466
-0.0178767474052
-0.00104863384824
0.00226087256029
-0.00906802618923
-6.28687721563e-05
-5.16029257376e-05
-6.51592067428e-05
0.0363887597916
0.0314485827579
-0.00921376275908
-5.93481199483e-05
-6.266278137e-05
-7.20126491374e-05
-0.0086432650216
-5.93861262084e-05
-5.50146267805e-05
-6.40002003278e-05
0.0357440299171
0.00683715336262
0.0220864265336
-0.00141785127599
-0.00102628582322
0.0204301370087
0.0234204101473
-0.00115246058024
0.0231373913973
-0.00125813531561
0.0123762655057
-3.04933630895e-05
-4.8354700993e-05
6.93173595183e-05
-0.0123857252426
5.34948887477e-05
-0.0123692649278
0.0123461509975
-1.83174119052e-05
5.8033055055e-06
4.41325008369e-05
1.56137767693e-05
-0.0122724940453
1.19573334747e-05
-0.0122429590188
3.49239951716e-05
0.0122059192675
8.01770106042e-05
0.0123510198002
2.5217174536e-05
-0.0122758103765
-1.61391507476e-05
-0.0123778516544
0.0123815605411
9.13208457238e-05
-2.15626885261e-05
-0.0123939470177
-0.000104340930872
-0.0123933195039
0.0123791423279
0.000122553041498
3.33622835981e-06
-0.0122521438789
0.0122106437428
1.44411900066e-05
-3.29976541249e-05
3.4453677369e-05
-0.0122944113191
0.0123626795656
0.000107131417613
-0.0124039629654
-0.0122837155857
-0.012342078058
0.000137519744812
1.75223960048e-05
-0.000105942540273
0.01231324653
-0.000115036190657
0.0123622724694
0.000141485623414
-7.25533644536e-06
0.0121790301425
-3.92559645402e-05
-1.63687719691e-05
-7.07527995435e-05
8.95700176442e-05
0.0121691372794
-8.66076159273e-05
0.000165334305631
0.0123402899026
-4.56560434921e-05
0.0121540919718
-0.000130805204989
0.0124316823017
-2.90231829122e-05
0.000154054094649
-0.0124347877552
-0.0124121365447
0.000150511299734
0.0124013572316
3.00578744124e-05
3.03286445316e-05
-0.0123134125918
2.44504429965e-05
-0.0122904061745
3.57682882749e-05
0.0122649087561
-0.0124188289624
0.000175834707323
0.0124255600168
2.83820387606e-05
-0.0123218824911
0.0124552751959
0.000169039407323
-1.33815543445e-05
-0.0124580071415
-0.000190686374666
-0.0124765378342
0.0124753378468
0.000189763376661
9.97553567606e-06
-0.012307121831
0.0122857993654
-1.44120768338e-05
-2.92061168486e-05
-0.0123425000807
2.80049844985e-05
0.0124511857607
-0.0124779825139
0.000169915392943
-0.0123343132758
-0.000203603798542
-0.0124169589029
-3.3428146978e-06
0.0124073368245
0.000225116837021
0.0123853566098
0.000173857465032
2.25843840757e-05
8.62354093841e-05
0.0121819525686
2.25963555191e-05
0.0122299693183
5.21704978389e-05
0.0123696603368
0.00019841044021
0.0122029174395
7.12974662458e-05
-0.000234810638386
0.0124017397059
3.50695479687e-07
0.000255150947589
-0.0123556995193
0.000270075203314
0.0123497343372
-0.000225780633837
2.58067255381e-05
0.000107188455577
-0.000112728363992
-1.05632035918e-05
-0.012182456185
0.0001152102719
0.0121657857904
-0.000192188243026
0.000291486843752
0.0123978606786
8.96491653624e-05
-0.0124468132106
0.000239583450163
2.55232648533e-07
0.012442262063
-0.000214155203822
0.0124723938204
0.000212288064322
1.03632877421e-05
0.0122527896934
-3.51503272197e-05
-5.84403024464e-05
0.0122429302303
4.44718112604e-05
0.0124719721625
0.000234338248622
0.0122242786978
0.0124402622804
0.000266419802899
3.20418532709e-06
-0.000296784949843
-0.0124735211402
0.0124752145778
0.000282771507307
-2.32587351265e-05
-0.0122074880292
0.0121948539125
-3.80388249091e-05
-6.68182461166e-05
5.53330179466e-05
0.0124388422417
0.000258531417893
-0.000341191226552
-0.0123971226207
-7.9183762111e-07
0.0124077637579
0.000362479100236
-3.10962927819e-05
0.0123500719995
0.000307106469345
-8.55503488929e-06
-0.000266691672589
2.842622642e-05
0.000167493824169
0.0121551612852
-0.000180790224222
-3.14805346981e-06
0.0121627846339
0.000137373149599
0.0123685990887
-2.13402695146e-05
-0.000309932132468
0.000327597640948
-2.28413728491e-05
0.0121751029836
0.000162076204622
-0.00037097937709
-2.26802004298e-05
0.0124634079947
0.000393974665468
-5.5943557152e-05
-0.0124380883561
0.000398261512056
0.0125250570996
-0.000385746555393
-6.88077957427e-05
3.78198042566e-05
0.000187710477406
-0.000205934000253
-0.0122060931891
2.35615082821e-05
0.000192931367804
0.0122501842597
-0.00034671764993
-5.58418669261e-05
0.000180200603413
0.000417006641616
0.0125340692491
-6.58138716864e-05
-0.012439514709
0.000358497400041
1.66424105795e-05
0.012451412749
-0.000328551504463
0.0124752024379
0.000309356207455
-1.74100529495e-05
0.0121934487521
-6.70304051725e-05
-0.000127332087685
0.0122275628437
0.000104848725216
0.0124816271084
0.000333906373586
0.0122017127252
0.000382415307905
5.26274110216e-06
0.0124846108845
-0.012502578053
-0.000403191939999
0.000377347716811
0.0125403514172
-0.0122273359887
1.94779690049e-05
0.0122583251842
-5.08056220556e-05
-0.000147635781462
0.000118718946159
0.00035789779676
0.0125381185866
-0.000215844967681
-0.0125171034911
6.53251558621e-05
0.0125174091543
0.000192129005333
0.012498162005
0.000198190461808
-0.0125012677108
-5.07220064981e-05
5.96000246638e-05
0.0122583689514
-5.4938344176e-05
0.0122895196375
-0.0123064075333
7.26135330621e-05
0.0124990228131
-0.0125187966649
0.000177984991454
0.0122713088069
8.11589311788e-05
-0.000236130476736
0.0125202859382
7.1815986806e-05
0.000208146755482
-0.0125027027692
0.000252465762822
0.0125061395901
-5.60975443939e-05
7.03558974436e-05
-8.63189015091e-05
-0.0122593406574
0.000107909562629
0.0122481666826
0.00022011075298
0.012523766702
9.48364601784e-05
0.0125329906595
0.000181544222328
6.49518604224e-05
-0.0125305585516
-0.00019214134553
-0.0125431117652
0.01254676609
0.000166234665913
-7.1076128646e-05
-0.0122703837234
0.0122584852111
-6.07615715048e-05
-0.000113629623461
-0.0122920976345
0.000138292299506
0.0125370636615
-0.0125406921802
0.00015704383703