/*--------------------------------*- C++ -*----------------------------------*\
| =========                 |                                                 |
| \\      /  F ield         | OpenFOAM: The Open Source CFD Toolbox           |
|  \\    /   O peration     | Version:  v1906                                 |
|   \\  /    A nd           | Web:      www.OpenFOAM.com                      |
|    \\/     M anipulation  |                                                 |
\*---------------------------------------------------------------------------*/
FoamFile
{
    version     2.0;
    format      ascii;
    class       surfaceScalarField;
    location    "3.75";
    object      phi;
}
// * * * * * * * * * * * * * * * * * * * * * * * * * * * * * * * * * * * * * //

dimensions      [0 3 -1 0 0 0 0];
oriented        oriented;


internalField   nonuniform List<scalar> 
92311
(
0.201316205097
-0.000135617608676
0.000542715947855
-0.201392358067
-0.000330945362607
-0.00020836381483
0.201149366533
0.00110530330557
-0.000729959107518
0.201268578383
-0.000319354444404
0.000578863701024
-0.201332121277
-0.000331404408665
-0.000487210785422
0.2011133047
0.00115120575431
-0.000716793707577
0.201095521517
-0.000125804027284
-0.000141439071005
0.000635830036591
-0.201188857111
-0.000380016147198
-0.000106026534764
-0.000108482008088
-0.000208258556232
-0.000227552720794
-0.000160234108656
0.200908237832
0.00122102140728
-0.000779672261995
-0.00014513784888
0.0502766782614
-1.72976773965e-05
-3.44601828545e-05
-2.83782427414e-05
-2.58099879327e-05
9.81832546193e-05
-0.0502879116528
-0.000106806109199
-0.0502717534929
0.0502349644738
-5.24829026953e-05
-4.61549482616e-05
-5.14770488365e-05
-4.97892025554e-05
0.000229983135447
-0.000201546093123
3.25173080522e-05
0.0314553184035
3.74779628698e-05
3.48742784479e-05
4.87156908071e-05
-0.00468568073568
-0.0327502945966
-0.00108785424547
0.00691493111726
0.0294525123957
0.00700979817844
0.00108032956172
-0.030673113917
4.21755872058e-05
4.07101160916e-05
3.82751882643e-05
3.51953705833e-05
-0.00702588600244
-0.00928537764557
-0.00283741260494
-0.00238226928667
-0.00053660619942
0.00195707941053
0.011698230365
-0.000484892135291
-0.000987821342801
-4.11798838635e-05
-3.66157673459e-05
-4.59041325248e-05
-3.26395410703e-05
0.000179904613811
-0.000160091067311
3.17379596992e-06
0.0124492598422
1.93408388942e-05
2.46492600456e-06
-0.0124417043063
0.0124493746686
-4.08753037728e-05
3.15883090082e-05
-0.0124496071846
1.98265926295e-05
-1.0311080229e-05
-0.000231509824192
-6.17799161255e-05
0.0502125515909
-6.22245505937e-05
-5.89042849984e-05
-5.89389078601e-05
0.000268208149989
-5.05831327074e-05
0.0502001051879
-5.51946467144e-05
-4.70222626915e-05
-4.92674258627e-05
-0.0502002809403
-0.000189494053425
-3.69258572622e-05
3.76148649873e-05
0.0124421683764
1.94676848717e-05
-1.29413953756e-05
-6.29993191084e-05
0.0125423710323
5.57111922963e-05
-5.42855265325e-05
-0.0125425678075
0.0125411836397
-5.9028054185e-05
-5.67488792621e-05
-0.0125390153233
-4.04037954971e-05
0.201916036239
-0.00023582766057
0.000216991296731
-0.201856796075
0.20107646356
-0.000272182765052
0.00124574272519
-0.000899964423147
-0.000314023871744
0.201056051878
0.0012425484059
-0.000907479114328
-3.3129571282e-05
0.201807427668
-0.000140447445371
0.000212611624123
-0.201886790369
0.201044906632
-0.000627879645427
0.00128883366124
-0.000864245648638
-0.000736468694615
0.20109512848
0.00127256296969
-0.000899865300345
-3.48345760167e-05
-4.13660864385e-05
3.85711245625e-05
-0.000243172540478
0.201712294177
0.000224660362793
-0.201735813251
4.65533759006e-05
-0.00028669513406
-0.000329885758886
-0.000211447904595
-0.000241918442296
0.200916057845
0.0013318814685
-0.000897760527701
0.0504621133902
2.06552730435e-07
-1.5441658707e-05
-1.59901067057e-05
8.50763905296e-06
-0.000244352915806
-0.0504184334413
0.000188543992426
0.050177134313
-0.000242422143821
-7.31652566329e-05
-7.41169632294e-05
-7.71812275769e-05
-7.80186907087e-05
0.000293648433813
0.0058563072533
0.00298216606691
0.0269419643684
4.98800203746e-05
4.71316725428e-05
5.88604149122e-05
5.79589024898e-05
-0.00654207018001
0.00323940355525
0.000767914257579
0.00242312454196
-0.00316249578308
-0.00350538451093
-0.00627406572722
0.000384544505046
0.00310672939163
-0.00151975185278
-0.00282211499653
-0.00243157284878
-0.00388274315567
0.00703176468514
-0.00215980779895
0.0118978615355
7.07353372457e-05
-1.06386696438e-05
-1.83717344022e-05
-2.15356014932e-05
-9.31154051777e-06
0.0504994943793
-8.96339124159e-05
2.26432655814e-05
2.26087348394e-05
1.50749232838e-05
1.39496701488e-05
0.0503598692782
1.65867757939e-06
-0.050326516419
-1.16248348644e-05
1.24649236519e-05
0.0124614235369
-2.75605254478e-05
2.71622665746e-05
-0.0124618618647
-1.36943551567e-05
1.95194497294e-05
-0.0124607168457
-4.0160268462e-05
4.21089063861e-05
0.012452947826
2.98419309365e-05
0.0125670587797
-1.28191675408e-05
1.45111306428e-06
-0.0125629053491
-0.000228939578724
-9.15446859576e-05
-0.000104401951557
-9.25834217893e-05
-0.000100337819728
0.0501769776278
0.000288103357157
0.0501910187014
-5.94958924563e-05
-6.2142359131e-05
-6.14724903476e-05
-6.10359413538e-05
-0.000200570933712
-6.74437405434e-05
-6.76844067991e-05
-6.95368796223e-05
-7.2014948974e-05
0.0501968540061
-0.000200103723871
-6.17129761418e-05
5.56178868027e-05
-6.25758679296e-05
0.0125378390961
-8.9607624694e-05
0.000108747695198
-0.0123470129111
1.13575761679e-05
0.0123284578325
-1.19425910083e-05
-5.79333319381e-05
-6.11872774352e-05
0.0125390386032
-0.0125462677779
-6.37565577976e-05
0.0125404737918
4.78904928266e-05
-4.57234614453e-05
0.0312177766211
3.75732399734e-05
4.27296395707e-05
5.2829269526e-05
-0.00606268761567
0.00751090119076
-0.00138439938483
0.000769841058121
4.22416203294e-05
5.5003715945e-05
4.27088697811e-05
3.44611288707e-05
0.0290374895222
0.00744182575231
-0.0304140659737
-0.00169295745744
0.00428455206666
-0.00577665341659
0.00111408205686
-0.00594037962165
0.00331216442835
-0.000367988147733
-0.000509181904699
3.85039402991e-05
4.17481889394e-05
3.85920701777e-05
-0.00675316065814
0.00765184095261
0.000241016115305
-0.00866350366758
0.00143785485891
-3.17630905853e-05
0.0125607669009
1.98193902856e-05
-0.0125630380025
-0.0125544009804
-3.10948775239e-05
3.65967013634e-05
0.0125555166998
-4.10854268069e-05
1.63154656883e-05
2.03624141105e-05
0.0124494669619
5.63489247483e-07
2.27889347445e-05
0.0124426929862
-0.0124413786409
3.00871332064e-05
-0.0125544441562
-3.72680438393e-05
0.0124478028192
2.87467656133e-05
0.0125616349296
3.03279994964e-05
0.0125558671274
-3.83103927461e-05
4.10682014067e-05
-4.41915137767e-05
-4.48088705352e-05
-0.0125603513018
0.0125577194015
4.24074208785e-05
1.48649086957e-05
2.79811073069e-05
-5.37342612267e-06
4.12552730626e-05
-0.0124510996576
0.0124473397281
2.50625334315e-05
0.0125533540056
-4.68134488284e-05
2.61549230442e-05
3.78525006607e-05
-0.0125489609088
-4.42446021304e-05
5.12528963524e-05
0.0125461929747
-5.67237026932e-05
-4.82685878584e-05
0.0125520150872
4.5500626424e-05
1.91646288661e-05
4.28090638295e-05
0.0124324644033
-1.36693855801e-05
4.37753051636e-05
0.0124410778213
2.38434315695e-05
-5.16185084654e-05
0.0124313947472
2.3279904249e-05
0.0125486957526
4.75635777873e-05
-5.53174830131e-05
-0.0125448807683
0.0125421130295
5.15274868915e-05
1.5818049536e-05
-0.0124152775491
0.01239912335
-1.28255531368e-05
-0.0124153715672
1.77448112466e-05
0.0123998060542
-4.84784272197e-05
5.42917130456e-05
-6.11595039545e-05
1.77325540419e-05
5.04261791661e-05
-1.27702895654e-05
2.0368497348e-05
4.95389416626e-05
-6.86711647959e-05
-0.0125387833698
0.0125436984659
-5.05370649929e-05
1.83841716921e-05
-0.0124095307815
0.0123943257611
-0.0124070903294
0.0123908801626
2.09277120133e-05
-5.68573418716e-05
-4.90250170247e-05
-0.0125413763384
5.8479421863e-05
-2.28947110738e-05
-0.0124249521094
2.50845117352e-05
-0.0125369747965
-4.93467147422e-05
-0.0124266784095
-0.00360343002195
0.00136755389548
-4.62411722668e-06
-5.24829699672e-06
-7.55136429764e-06
-1.03754646278e-05
0.0329048988903
-0.0334174909337
0.00277626500193
-0.00299581169163
0.00999466337318
0.00245354482234
-0.00981902305949
0.0297950164899
-0.00155549642257
2.39254183297e-05
-1.3994940603e-05
-5.7397656088e-06
0.00533306848527
-0.00330868350862
-0.030279244186
-0.00230518875487
2.47043723728e-05
-9.82482644762e-06
-1.40623057207e-05
0.0299746243481
0.00347824248148
0.00549308697028
-0.00356813044863
-0.00700626005106
0.0042961022648
-0.00186742608073
0.00447862732002
0.00225273064501
0.025812366406
4.28643494705e-05
6.19719816206e-05
6.01609040785e-05
5.26108373136e-05
0.0066106997823
-0.00296366060668
0.00454874741496
0.00342990372804
0.00149728819959
-0.000992564943724
0.00385114727532
-0.00479619456638
5.07547747605e-05
4.78089528518e-05
5.97118304403e-05
6.01168169841e-05
0.0205856866501
0.00595185494904
-0.00300010128634
0.00548129233175
0.00349236851853
0.00458551332689
6.70893558539e-05
7.35778732143e-05
7.03597068893e-05
0.0222893480892
-0.00503091956375
0.000254189113202
-0.00106232545126
-5.92288000603e-05
-0.0125869994435
9.89775874326e-06
0.0125957005987
4.08445824104e-05
0.0126045918348
7.5017817337e-05
-8.16732343029e-05
-0.0126008514301
1.91970322618e-05
-3.22268644177e-05
0.0124646042906
3.36900840559e-05
-2.34419615034e-05
0.0124580273707
-0.0124524265177
-2.37018881079e-05
0.0126119621584
-6.34330251283e-05
-0.0125834620627
5.65111205117e-05
0.0124618127623
-3.17517147967e-05
-4.32796365414e-05
0.0125995532013
2.74610262212e-06
2.60096702653e-05
-0.012617896233
2.41487370803e-05
-2.95253722553e-05
0.0126244178464
2.48992685917e-05
-3.47657780368e-05
3.84584764759e-05
-2.23795483784e-06
-0.0124540406138
-4.03857174844e-05
0.0124466571392
-4.59207054426e-05
8.15658033655e-06
0.0126038306226
-3.81995353083e-05
0.0124488771102
1.96786262713e-05
4.76597090771e-06
-0.0124481056672
-2.61030833767e-05
2.34526797887e-05
0.0124470770101
-8.00468131406e-07
2.05896460886e-06
0.012571288072
-9.90785434499e-06
0.0125829645167
2.40473116193e-05
-0.0125788486306
-1.99040959039e-05
-0.0124538891311
0.0124491583942
0.0125870217424
-0.0124587055413
-6.40727329592e-05
0.0125346027972
5.30695361531e-05
1.45699315293e-05
0.0123814266331
-1.10577755468e-05
0.0123820691971
1.68524804498e-05
5.41857232317e-05
-7.13182441645e-05
0.0125367422545
-5.896415888e-05
7.43740031049e-05
1.0896867221e-05
0.0123659170502
-1.08659297894e-05
0.0125315231562
5.35952994885e-05
0.012367665457
1.19064386345e-05
5.06776040866e-05
0.0125312225137
-8.1892214243e-05
-5.47820829477e-05
-0.0125240342255
-4.67400123108e-05
0.0125238029927
5.12034172399e-05
8.71785231295e-05
9.63140007906e-06
-1.0946081984e-05
9.51719848958e-05
-0.0123553085788
9.78358350975e-06
0.0123351781446
5.27854988347e-05
-5.1435310324e-05
0.0125307922994
1.0400124314e-05
-0.0125455273614
-6.84981345064e-05
5.41102788361e-05
-4.84927687872e-05
-7.10173893979e-05
-5.02227346013e-05
1.49344369008e-05
0.0123780095716
0.0123796723308
1.72349302425e-05
-1.21331826435e-05
0.0123683339005
1.53293094681e-05
-6.65598675619e-05
0.0125396803603
0.0123639301432
0.0123528706417
-1.16047304813e-05
1.38485734489e-05
6.41290639967e-05
-1.12257248546e-05
0.0123342496452
1.37055157879e-05
4.45445067316e-05
0.0125363651692
-4.39856344096e-05
0.0125350594227
-7.17835377846e-05
7.67709924924e-05
-0.0123509407276
0.0123323602739
0.0125328674161
-0.000377284639553
-0.00028128602764
-0.000336605008183
0.00128412956705
0.201256523508
-0.000440804116462
-0.000925133434189
-0.000223379733425
-0.000123119903907
-0.000115447392347
-0.000133487765631
-0.00011051383388
0.000277788190887
0.0502278425364
0.000109804312302
0.00372800849752
0.00503126046782
0.000132427512085
8.86745515304e-05
0.000101093231668
-0.00351482256828
0.0166124663443
-0.00130370750428
-0.000210209551577
-3.96414072882e-05
0.00263368263461
0.0368966940132
-0.00126654444034
0.0137738066637
1.23087000207e-05
1.36256138182e-05
7.3079299328e-06
7.12480054837e-06
2.8047441925e-05
6.34732700501e-05
0.050326132876
-9.68098525123e-07
-1.9259667644e-05
2.39823243685e-05
0.0124457243794
0.0502428782136
-9.26675374512e-05
-7.95748719217e-05
-8.19186725611e-05
-8.59027488341e-05
-0.000210768779023
0.0503195816664
-9.99105789776e-05
-0.000109557456194
-0.000114170747676
-9.32080758236e-05
0.000219022628439
-0.000215623947412
0.000120255333893
0.0123206530723
1.25463984296e-05
-1.52580271702e-05
-5.6534564193e-05
7.29276419311e-05
-6.80619474233e-06
0.0123172256551
7.19601410114e-06
0.0122806328664
-0.00012617561234
0.000131240479096
5.42310093469e-06
-0.0122893294058
-1.31300795792e-06
0.0504265363009
-0.000110746241848
-0.000100074509985
-0.000105256065821
-0.000108171203581
0.000312288455825
0.000210662569821
-0.000205727308423
-9.30068313793e-05
-7.29458418227e-05
-7.9543292757e-05
-8.77055417314e-05
0.000281723462174
0.000210202199836
0.0504682195163
-0.000200616133219
-0.00014493208227
0.000136744566476
1.17189398306e-05
0.0122814191761
-3.72101971806e-06
-8.08251765594e-05
7.48244579759e-05
-4.32873616701e-06
-0.0122642740031
0.012262919066
1.23560574973e-05
-3.61256489467e-06
9.52518959491e-06
-2.18397166951e-06
-0.00150443977735
0.0330561155063
-0.00333753665609
0.0146269391562
0.00428373426898
6.93938421958e-05
7.25802488831e-05
8.44607648718e-05
0.00512010289931
0.00403952543631
0.00860264112429
0.000117931853281
0.000105937618783
0.000107211801566
-0.0030511624116
0.00457889426993
0.000382618660915
0.00159378225263
0.00199973719976
0.0069494706793
0.00299216908462
0.00163951561473
0.0067301741302
0.00259950964146
0.00294522608025
0.000124374884942
0.000139297775728
0.000125124958366
-0.00360156258169
0.0037648029548
0.0049597500299
9.38089577703e-05
0.000106267385229
0.000126095245349
-0.00476400051836
0.00312793005607
-0.00122044507242
0.00539440581865
-0.012583234025
1.68674789599e-05
-2.99723797473e-05
2.89611356081e-05
0.0125796652587
1.60640474809e-05
0.0125692948492
-1.63678043084e-05
0.0124441494815
4.16179587094e-05
2.12711837782e-05
-9.87952981032e-06
0.0124443996095
1.05035924597e-05
4.18855223692e-05
0.0124380376073
0.0125666328111
3.97198342886e-05
-0.0125307773496
-0.000124899866949
-4.82103184521e-05
0.0125410534713
0.012525554343
-4.10060304565e-05
4.41176531254e-05
0.000148625055971
1.49923915982e-05
-1.61661813511e-05
0.0123056381193
0.000103963060868
0.0123250407816
7.46182744388e-06
4.20918485715e-05
0.0125382874189
-4.75880869962e-05
6.84294140926e-06
0.0123094693462
-0.0125311780251
-0.000105402851047
-4.52640598517e-05
0.0125409093707
4.25146696988e-05
0.0125306980381
-4.35865526388e-05
8.5451853626e-05
0.0123168502244
-5.88985006536e-06
9.36754134348e-05
0.0122933646238
8.08724972886e-06
0.0122966976052
0.0125382532032
-4.52358773536e-05
0.0125538942063
-0.000113187838726
-4.88671659785e-05
4.9067163589e-05
5.05326857451e-05
-0.0125516544523
0.012571250676
-4.83444007825e-05
0.000131646230463
-0.0122916006582
0.0122802728714
3.04805633028e-06
3.71972830609e-06
0.00010760079608
-1.37017528616e-06
0.0125714597582
5.03087793682e-05
2.71612739056e-06
-4.79135722212e-05
-0.0125979414724
-0.000136568557377
-4.56384307714e-05
0.0126202163298
4.91683120043e-05
5.17004497147e-05
0.0126028777412
-4.66351093737e-05
0.000130792868583
0.0122778055108
7.657707232e-06
1.02391649457e-05
0.00013583612225
0.0122759004867
-1.67638574116e-06
5.07521141967e-05
0.0122670279627
9.4111620222e-06
0.0126263954408
-4.15496776156e-05
0.0126456014095
-0.000126942936107
-3.94485403727e-05
4.80047851623e-05
3.61958738366e-05
-0.0126513724959
0.012650007561
-3.29685078482e-05
9.03186184344e-05
-0.0122612221539
1.61248901615e-06
0.0122587487892
-1.83939569023e-06
0.000113634193024
5.59657615628e-06
4.45615446042e-05
0.0126480016968
2.99273874911e-06
-3.85214115728e-05
-0.000496923208301
-0.0491145803234
0.0490698427027
0.00064024471141
-3.01491141861e-05
-6.52498641286e-06
-2.99760256471e-05
-1.04196857777e-05
-2.18553423784e-05
-0.000690906880903
0.0495659712992
-1.75337109302e-05
-3.30758294692e-06
-2.14144471085e-05
-1.44053706577e-06
4.9130112793e-05
-0.0495219853083
0.000641420718554
-0.00102200693139
-0.0497302924745
0.0500134865205
0.000873470683712
-5.84772379643e-05
-5.30450834171e-05
-5.93659983397e-05
-5.78818122125e-05
9.41126494836e-05
-0.000745955398869
-4.17585638721e-05
-3.99390891684e-05
-4.04905689599e-05
-4.60490172676e-05
0.000107947619081
0.0501007869023
0.000653446315947
-0.0499479877827
2.58015077841e-05
-0.00745742710927
-0.0454968160784
0.0383716207018
0.00430897798358
0.010073723758
5.73302670166e-05
3.93640400577e-05
6.27922997789e-05
2.98216372978e-05
-0.0294495467038
0.0226903455846
0.00546448621906
0.00805071421982
5.93244023813e-05
0.000126552294389
5.43839725629e-05
-0.0070367967065
-1.7504781914e-05
5.22857559887e-06
0.040896254603
0.00620962859352
1.0621416546e-05
-2.79350430989e-05
-1.04865494055e-06
-0.0447442532892
-0.00233116316676
2.94094282807e-05
-0.000738100307786
-0.0323314748036
0.0253055110379
-0.00416597726927
0.0116470205011
7.81959769375e-05
0.000116020790102
5.94090440257e-05
1.958423522e-05
0.00866662828259
4.06833733075e-05
6.59139725365e-05
2.59383745278e-05
0.0258080371782
-0.0116651460503
0.00851622957852
-0.0314778506752
0.0432152055575
-0.0178786879261
-0.00219505784408
-0.00812660014044
-0.00710686241337
-0.00967486419906
0.00805827505121
-0.0128549589557
-0.0143394615983
-0.0132102287001
-0.0087142324572
-0.0140365669897
-0.0095764911714
0.0178122204464
0.00178253073207
0.0391384427049
0.0025497470108
-0.00716970681165
-0.00908403544367
-0.00609403968611
-0.00979358216412
-0.00630162082535
0.00666431386679
-0.0124407998622
-0.00869218357116
-0.0136534211781
-0.0099717734516
0.0201580288657
0.0457712749628
-0.0018744842977
-0.00774553044354
-0.0065805630457
-0.00686775619282
0.0121179854819
-0.000671002897809
-0.0144750259004
-0.0116387412405
-0.0136402322437
-0.0114437996301
0.0304033072126
0.0191751322972
0.000119818634554
4.50206170666e-05
4.7816212478e-05
4.24006602848e-05
5.4997322608e-05
0.0488358817239
-7.03391443375e-05
3.52703537546e-05
-0.0491109623484
0.0488969083447
0.000311266536023
3.7754721373e-05
1.8882419742e-05
3.12472871702e-05
2.89677152754e-05
-5.73632442833e-05
-0.0491479511687
5.94418272082e-05
-6.22409938383e-05
-0.0123573687781
2.97458120497e-05
0.0123409666685
-1.04037782695e-05
0.0123543467201
6.94677025297e-05
6.56112648267e-06
-6.83407370742e-06
-5.67633142773e-05
-0.0123676717154
5.50445324246e-06
1.45195774315e-05
2.9400182425e-05
-6.31635531437e-06
-0.00022823193701
0.0122121308049
0.0121920545122
0.0121165596944
0.0121784460346
-0.000114217207656
8.19950283668e-05
-1.19948014573e-05
9.24683117102e-06
-6.90010045902e-05
0.0123438701847
0.000460735667217
1.21557705876e-05
1.45433810081e-06
1.71862804491e-05
-3.27014842172e-06
-4.99216095662e-05
-0.0492416440881
0.0493220504682
9.91580976826e-06
1.10262510272e-06
-1.00708172805e-06
8.00362664955e-06
-4.3187681276e-05
-0.0493822813639
0.00054600071891
0.0123624071251
-6.29756749715e-06
9.66763223379e-06
-0.0123744817333
7.81704864633e-05
0.012390840758
9.70377901055e-06
5.3456040982e-06
-8.06470636552e-05
-0.012401516257
7.62489645092e-05
0.000925155454436
-1.93393000858e-05
-3.0249015693e-05
-1.97829632774e-05
-3.38426909733e-05
0.0491367396825
-0.00019890853457
-0.000167491788397
-0.000200786980325
-0.000164069009429
-4.57868928554e-05
-3.64459884949e-05
-4.16108406266e-05
-3.38903288781e-05
0.0493141082795
-3.06014412535e-05
-6.23996677616e-06
-8.81360382508e-06
-2.46383220268e-05
2.71651639588e-05
0.0495356696171
0.000857550567991
-3.4433549044e-05
-5.11963056479e-05
-5.38559770369e-05
-3.18380837962e-05
1.70746238872e-05
2.40062462152e-05
0.0123552003551
9.02322812129e-05
0.0123586904399
-9.4324069418e-05
7.64694773811e-05
-0.0123495594755
0.00012907704757
-0.000120335189442
8.91430127176e-05
-5.8998369431e-06
1.48540957877e-05
-9.54062120708e-05
0.0123877554142
0.0124052939902
0.00011496092176
-8.38877842966e-05
8.79877118086e-05
-0.000128597854696
-0.0123957363055
0.049845552441
-3.81414721175e-05
-3.60801211346e-05
-4.12884379495e-05
-3.81132105161e-05
-0.00114277568438
-3.568908807e-05
0.0011461648612
-1.03735729233e-05
-4.92455327997e-06
-2.30561779674e-05
7.99147380365e-07
0.0503991198552
-0.000188937339782
-0.00147347559597
3.08527792103e-05
0.0123670099426
0.000132933184313
-0.000141848278388
2.43010049832e-05
-4.34548129413e-05
-0.0124143750789
0.000191913454471
0.0124459928486
-0.000204348588689
0.000125798654524
-2.86598106218e-05
5.93764530903e-05
-0.000157310871702
0.0124061585579
0.000144821841753
-2.19745825034e-05
2.74259097665e-05
-0.000166563167685
-0.0124539792889
0.0124703036658
0.00076282906404
-3.06121676706e-05
-5.7677671357e-05
-3.47699713304e-05
-5.36574697227e-05
0.000107090667643
0.0498604720673
-2.49698861811e-05
-5.09684471457e-05
-4.61857820145e-05
-3.15332740033e-05
0.000110319507521
-0.0497136522875
0.000659267061208
-2.66232663997e-06
0.0123983940807
8.02925427194e-05
-0.0124044809231
0.012417887314
-7.27336441719e-05
8.10121199933e-05
-0.012409220215
9.80643746257e-05
0.0124367471351
-6.07693381418e-05
6.95210094424e-05
-7.73556092581e-05
-0.012431118536
6.2993418115e-05
0.000958782603424
-4.78438579074e-05
-3.3891934149e-05
-4.84244425722e-05
-3.22844657956e-05
0.0503148719941
4.8472876106e-05
0.0500659305094
-5.17805869119e-05
-4.78617942838e-05
-4.94757510749e-05
-4.75787930375e-05
0.000118760523469
-4.27703788509e-05
-3.33908883827e-05
-4.65248346302e-05
-3.23188135722e-05
0.0502758783142
0.00078495143141
0.000118850255617
6.33069850949e-05
0.0124160030748
9.46128716717e-05
-2.53374785583e-05
3.71967822598e-05
-0.0124590010554
0.000119745551241
0.0124725779424
7.04136177778e-05
-2.53404796913e-05
5.54089205546e-05
-9.50695426703e-05
0.0124314015532
7.33006512174e-05
-2.6179404724e-05
3.6563612024e-05
-8.6003557221e-05
-0.0124496400811
0.0124519761243
4.6669775182e-05
0.0124377597506
5.15334650457e-05
-0.012445511982
3.38951881334e-05
-0.0124509859829
0.0124511074773
-2.22536236043e-05
6.17851442091e-05
0.00766291828942
-7.04701146764e-05
-5.75915664145e-05
-4.47526389428e-05
0.0468251437632
-0.00392540811177
-0.0463190439215
-0.00400949718937
0.0462188936327
0.00770548941239
-2.43481312763e-05
-2.94346182094e-05
-3.86603985916e-05
-0.047679073554
0.00151649509761
0.00756367187365
1.07232915535e-05
4.24574351459e-05
3.28268689607e-05
-0.00811326213618
0.0392091275948
0.0187949130475
0.000584025650821
-0.00292838891195
-0.00157904393926
-0.0170755782724
7.48566872761e-05
0.0199532867894
-0.00804232904457
-0.00130721158582
0.0199406047462
0.000227552564792
-0.0191917237315
0.0199684584701
-0.000696377497525
-0.00892846679864
0.0139217704738
-0.000264759098743
-0.005977774449
-0.000935781240506
-2.50821835989e-05
0.00653341007514
-0.000257486848549
-0.0010375391932
0.0132935834578
-0.0014699304195
-0.00615915696716
-0.000898920405862
0.00628910459903
-0.00170148214165
0.00441337707526
-1.35248524959e-05
1.33305130402e-05
-8.15765933893e-06
0.00534853464465
-0.0475512599209
0.0452787433323
-9.05656315486e-06
-1.05328945943e-05
-1.31063550799e-05
-0.0462212130042
0.00494479423131
0.000453437734209
0.0052195104768
0.0109257042689
0.000102141691056
9.11757823397e-05
6.87620921509e-05
-0.0075887861796
0.0393894987326
0.0100988155748
2.27172902255e-05
2.84117146249e-05
4.5307808596e-05
0.0130107893739
0.0306516495326
0.000619325449732
9.14074429589e-05
8.53089143326e-05
6.15342774809e-05
0.0185422990934
0.00124708574429
-0.0166690745138
0.000684156601403
0.0189453721412
0.0161501486441
0.00185343039639
-0.0127591480226
0.0180585208898
0.00200874675986
0.00527240316014
0.00508048191377
4.7115271452e-05
1.22944887463e-05
-2.85734765423e-05
0.0198144230553
-0.00748820483274
0.0241731084446
0.010900258686
0.000138132534187
8.05044287588e-05
6.18519675539e-05
0.0072685593977
0.000106402920617
3.4659115164e-05
9.72249198616e-05
-1.61788256655e-05
0.0219345866303
0.0128717414675
0.000195735773956
0.000978307327726
0.00737658049006
0.0132833558147
0.00223537618636
0.00314320533991
0.00841493676649
-0.00303090244804
0.01197876906
7.08326359313e-05
6.44181103433e-05
2.94201521802e-05
0.0110936677509
0.03246011225
6.28190397068e-05
6.28590110389e-05
2.51595441753e-05
-0.0406530045786
-0.00614445229946
0.0146802693988
-0.0104049949363
0.00190090055929
0.00226278465217
0.0186740813046
0.0224507288729
-0.0168904956323
0.00122430391677
-0.00537715466074
0.00844982050305
9.65672004806e-05
4.18336002507e-05
-1.34671698926e-06
0.0221813292971
0.0256990263135
0.0110222278332
0.000105161018267
5.55637880211e-05
5.72238973081e-05
0.00812989277884
3.65539375611e-05
6.95364090413e-05
1.63296713696e-06
0.0220225098738
-0.00996130736524
0.0152566362653
0.00284098023402
0.00380908657038
0.0114140772688
0.0209504948532
0.00172668836581
0.0192951768704
0.002151520873
0.0122474467548
5.80479407291e-05
3.01228776819e-06
1.45628364046e-05
-0.0122780744483
-1.24292619874e-06
-0.0122483654917
0.0122160676501
1.90566114667e-05
2.18050095029e-05
-7.66434467941e-05
-5.93495447331e-06
-0.0123671218179
-4.67179591584e-05
-0.0123629381438
3.90792537053e-05
0.0123427355711
2.26142245105e-05
0.0122192338988
3.98510224707e-05
-0.0123677922312
1.3317412363e-05
-0.0122803590112
0.0122525894336
3.44665946111e-05
4.56673035834e-05
-0.0122804222156
-4.97966010601e-05
-0.0122653390251
0.0122506010791
7.63485910889e-05
-2.43717008719e-05
-0.0123613686195
0.0123436635717
-2.74648133809e-05
-5.75089546972e-05
6.69347969701e-05
-0.0123793708953
0.0122322623816
5.96461442073e-05
-0.0122890121141
-0.0123722201577
-0.0122221264262
8.72893937614e-05
-2.75773949405e-05
-5.08497697642e-05
0.0122187566011
-6.25702844149e-05
0.0122410449359
9.5867116872e-05
-8.1021224307e-06
0.0123362127206
-4.24465066725e-05
4.788024689e-05
-7.59336988283e-05
8.95911454025e-05
0.0123262455343
-3.12697933005e-05
0.000123937004454
0.0122461028207
-5.09835444405e-05
0.0123168425452
-8.14490966709e-05
0.0123026767318
5.07368577306e-06
0.000101922695454
-0.0123160861219
-0.0122841857015
9.71395616445e-05
0.012274528196
-1.17966532465e-05
7.46669405725e-05
-0.0123840050937
1.97220533664e-05
-0.0123830200665
8.58660107549e-05
0.0123688954785
-0.0123005893736
0.000120289834862
0.0122960464715
7.85169227617e-05
-0.0123899130129
0.0123258280511
0.000118413154109
4.17947323783e-06
-0.0123365931853
-0.000136042063317
-0.0123464531782
0.0123420366092
0.000146821000881
1.0741618929e-05
-0.0123942557586
0.0123797588263
-2.95023301327e-06
-7.47509410904e-05
-0.0124038268201
6.94576891047e-05
0.0123197594812
-0.0123545502658
0.000131479690901
-0.0123994247811
-0.00014890590292
-0.01229486065
-6.53663578513e-05
0.0123098678469
0.00016900816747
0.012267555241
0.000120322521213
6.60385109986e-05
0.000100273395552
0.0123389036666
3.39308536595e-05
0.0123665293883
9.82271850515e-05
0.0122793018507
0.000145017814913
0.012355428201
0.000107405446574
-0.00017319214896
0.0123351986575
-6.16376392029e-05
0.000190089024399
-0.0123098630139
0.000203466192254
0.0123435256473
-0.000190814021475
7.49163529453e-05
0.000119084852615
-0.000101039221343
8.77498957314e-05
-0.0123610832585
0.000132965936557
0.0123631738981
-0.000148289408382
0.000221077983775
0.0123722290909
0.00012000912466
-0.0123210197093
0.000181648851815
-6.02272661268e-05
0.0123379619163
-0.000161238965538
0.0123409209165
0.000170847848684
2.63071281349e-05
0.0123801549104
4.95472222637e-05
-0.000103933714372
0.012374673449
9.58586154732e-05
0.0123574615404
0.000189840016878
0.0123684506036
0.0123608543513
0.000197441557172
-6.47626529666e-05
-0.00022519578448
-0.0123859325921
0.0124229156524
0.000224890401325
9.43192970873e-05
-0.0123752323322
0.0123800763396
6.81324399776e-05
-0.000110230956879
0.000106173216962
0.0123977934608
0.000205055176221
-0.000260738954969
-0.0124185311908
-3.31907616296e-05
0.0124471365931
0.000268780153212
-4.23246800777e-06
0.0123767101773
0.000218963380315
-3.93165387984e-06
-0.000216913499327
2.97287669581e-05
0.000165001791626
0.0123897934841
-0.000158441556586
7.84066919725e-05
0.012401228055
0.000146369982948
0.0124114313105
-5.88877885096e-06
-0.000260283179117
0.000239255637659
1.17605580861e-05
0.0124227778684
0.000161125391715
-0.000290004354466
-8.17023560603e-08
0.0125016510909
0.00029243792188
-5.78467518094e-05
-0.0124870159131
0.000298339550561
0.0125578609031
-0.000311908228092
-0.000100629239425
5.75158661295e-06
0.000196690662855
-0.000180125244888
-0.0124140052717
-1.04606056848e-05
0.000184703384806
0.0124469597623
-0.000287934013635
-7.26627993426e-05
0.000174074560401
0.000309644220329
0.0125631907039
-8.3355902536e-05
-0.0124456100536
0.000255141159259
-5.8442897245e-05
0.0124789497463
-0.000246522095628
0.0124549313313
0.000238248773894
9.657499641e-05
0.0124139223643
7.17590182246e-05
-0.000144573346661
0.0124252405073
0.000134127263865
0.0124899521941
0.000253243040131
0.0124319917274
0.000264902432626
-2.0924780792e-05
0.0125159717851
-0.0125337321756
-0.000282760836784
0.000271657606296
0.012567506437
-0.012426963444
2.22349145897e-05
0.012460608966
6.69255938095e-05
-0.000139595345269
0.000141015489852
0.000264482573171
0.012565942559
-0.000183976629814
-0.012383033823
-1.82006589363e-05
0.0123958380045
0.000171820114997
0.0123638457817
0.000167015713061
-0.0123660371695
3.03040047851e-05
8.69833961894e-05
0.0123875324159
-7.24695859647e-06
0.0124043846673
-0.0124133263512
6.83639396133e-05
0.0123784438963
-0.0123833438927
0.000158369492318
0.012398343466
7.37486805612e-05
-0.000199494932277
0.0124166988586
-3.78078941402e-05
0.000185689289399
-0.0124046245227
0.000211904380499
0.0124409745233
5.56840889356e-05
9.93694215699e-05
7.5093598699e-05
-0.0124099434774
8.47916784436e-05
0.0124121816329
0.000200464446159
0.0124494621461
7.98109177497e-05
0.0124325949209
0.000172106241543
-3.097986629e-05
-0.0124131245404
-0.000190172409196
-0.0124499805749
0.0124780657697
0.000180578761639
6.62762770658e-05
-0.0124175786833
0.0124215110843
4.64986092787e-05
-6.35573694156e-05
-0.0124074111398
5.61790596813e-05
0.0124628307822
-0.0124271736693