/*--------------------------------*- C++ -*----------------------------------*\
| =========                 |                                                 |
| \\      /  F ield         | OpenFOAM: The Open Source CFD Toolbox           |
|  \\    /   O peration     | Version:  v1906                                 |
|   \\  /    A nd           | Web:      www.OpenFOAM.com                      |
|    \\/     M anipulation  |                                                 |
\*---------------------------------------------------------------------------*/
FoamFile
{
    version     2.0;
    format      ascii;
    class       volVectorField;
    location    "3.75";
    object      U;
}
// * * * * * * * * * * * * * * * * * * * * * * * * * * * * * * * * * * * * * //

dimensions      [0 1 -1 0 0 0 0];


internalField   nonuniform List<vector> 
28582
(
(0.806033483327 -0.00159676205809 -0.000301289063553)
(0.805416433282 -0.00338497084728 -0.000447445075021)
(0.80577089454 -0.00162305823893 -0.000840622332618)
(0.805273681321 -0.00326773227142 -0.00127742982896)
(0.805054536469 -0.00196690727177 -0.00156781600309)
(0.804666476653 -0.00372947235928 -0.00249316227292)
(0.804579959503 -0.0017271485897 -0.00237385351276)
(0.80431290293 -0.00336430397898 -0.00342114634369)
(0.514841319225 0.103540369516 -0.00695493857256)
(0.472250011797 0.121298121999 -0.00381965115905)
(-0.0562550398383 -0.0205821376067 0.0129306048652)
(0.80432845209 -0.00274824402364 -0.00256086182342)
(0.796503639201 0.00031089808944 0.000763556053995)
(0.796721493929 0.00141258398632 -0.00123646043723)
(0.803530952511 -0.00380684346728 -0.00388618558765)
(0.80324670438 -0.00357901910121 -0.00226964610196)
(0.796550037962 0.00162103659369 -0.00168513077155)
(0.802677106456 -0.00414393982888 -0.00415443552857)
(0.802591181323 -0.00397960865174 -0.00388994105512)
(0.808035754596 0.000894649844837 -0.000110042928388)
(0.804522198391 -0.00406346814432 -0.000501705800368)
(0.804164969515 -0.00406298684415 -0.000595744008883)
(0.808130553195 0.00103849479774 -0.000270560792347)
(0.804391956142 -0.00382689135016 -0.00177716036297)
(0.804243919617 -0.00394565443956 -0.0019276833202)
(0.807738335316 0.00122968152461 2.7029775688e-05)
(0.803812700912 -0.00415002885393 -0.00345383785564)
(0.807044847244 0.00363956675641 -0.000951062398965)
(0.803527336569 -0.00404485407562 -0.00489644138042)
(0.447863545772 0.1046444878 -0.00471262995569)
(0.0117127756715 0.0158482661477 0.014779917798)
(-0.0172955209254 0.0496347258188 -0.0610311815546)
(0.807872163813 0.00156844186227 -0.00108638588049)
(0.805452822791 0.000652202308034 0.000728590791051)
(0.797635939418 -0.00161935051667 -0.000392202641683)
(0.797345040232 -0.00266456810856 -0.000637547091195)
(0.804155249813 0.000501332353319 0.00202618344453)
(0.803109301403 -0.00385052403116 -0.00619839454532)
(0.803494197794 -0.00371743068041 -0.00292866080646)
(0.80330328603 -0.00362365035206 -0.00364056845795)
(0.80272502738 -0.00414053635594 -0.00483286072743)
(0.789712808284 0.000674916561174 -0.0045417108315)
(0.802604947689 -0.00389186922165 -0.00444272415023)
(0.802815977118 -0.00297254137399 -0.00481552941617)
(0.501346983746 0.120993533892 -0.00689741254819)
(0.473899362118 0.106184136142 -0.00299373173148)
(0.0814465448359 0.0316481348127 0.0415230456278)
(0.0756674256829 0.014109745828 0.045765695669)
(0.493499689958 0.125166913607 -0.00526878097838)
(0.105862476734 0.0112103460336 -0.00335553494674)
(0.804008651492 -0.00147146053155 -0.000875237161927)
(0.803611347649 -0.00287888276981 -0.00243037459616)
(0.796788824264 0.000459978344475 -0.00019284790277)
(0.796286247133 0.00176130917959 -0.000389540797495)
(0.803444513255 -0.00256559445086 -0.00188230956164)
(0.796512970376 0.00151987464931 -0.000989396375778)
(0.804041424045 -0.00192873964407 -0.00170050817982)
(0.80359060933 -0.00311376088169 -0.00295412876505)
(0.803682162771 -0.00254494577387 -0.00245678073183)
(0.796870826441 0.000873709461103 -0.000707935222648)
(0.796762214624 0.000989927825871 -0.00197475636308)
(0.80343934105 -0.00334879556585 -0.00321770124411)
(0.796803289278 0.00106861684311 -0.00156583849474)
(0.803984322052 -0.00230002316296 -0.00221023246992)
(0.803058310422 -0.00382421308809 -0.00345880835281)
(0.80346602953 -0.00274229386864 -0.00296106272837)
(0.796010541535 0.00159680975942 -0.00206596091708)
(0.796507700326 0.000940640669872 -0.00211485330053)
(0.803279037734 -0.00356351564685 -0.00342741388757)
(0.795954229115 0.000924513485553 -0.00235412666358)
(0.80324209283 -0.00286023478759 -0.00328620154132)
(0.802691334335 -0.00312036976621 -0.00424006836747)
(0.793995432663 0.00118717770157 -0.00258965959778)
(0.79417156109 0.000821469369071 -0.00277982094975)
(0.802942743755 -0.00406210319774 -0.00384790875789)
(0.795168470351 0.00140022708418 -0.00231876658742)
(0.795045381399 0.000854254882309 -0.00251890734196)
(0.80314302249 -0.00304297088457 -0.00394797955692)
(0.802690557012 -0.00345717008941 -0.0045238952632)
(0.793835585488 0.00133265966721 -0.003428039943)
(0.793645338231 0.00109087146583 -0.00385695485947)
(0.802648076778 -0.00378851711506 -0.00348736625644)
(0.794701180995 0.00123004199867 -0.00343306230283)
(0.802481260465 -0.00333710263375 -0.00386551987314)
(0.794686480417 0.00174541316318 -0.00299142297522)
(0.52908508382 0.0062094953195 -0.00300507216451)
(0.16477307714 0.0605072983178 -0.0995048618298)
(0.481805779248 -0.0837924442273 -0.00172540249331)
(0.477468307152 -0.0490091992393 -0.000563920701628)
(0.0972664207632 0.0702062435962 -0.0356076866814)
(0.0885505044182 0.0312929444771 -0.0718912258184)
(0.437741974814 0.0864091936676 -0.00447983137209)
(0.0620507693757 0.068526967606 0.0710710517113)
(0.035311797127 0.0204735399789 0.0945900417135)
(0.37585893881 0.0731020215905 -0.00439128954433)
(0.0751594155242 0.0816422549136 0.105334156611)
(0.3962164465 0.0756776487979 -0.00638769882441)
(0.00724148694426 0.0190063270764 0.13593434316)
(0.805911096951 0.00317694200926 0.000495379691585)
(0.806540235351 0.00516275534474 -0.000909488417275)
(0.797740052205 -0.00205648893554 -0.000946253899948)
(0.797142420863 -0.00187320685504 0.00193839294965)
(0.806984571229 0.0041393205782 -0.00110852658862)
(0.805300207262 0.00423080254477 0.00142040330292)
(0.797550014356 -0.00218492142824 0.00116932432366)
(0.806399892634 0.00225427604967 -0.000427980925427)
(0.807811933406 0.00203603711916 -0.00137784715656)
(0.797706931903 -0.00233510407269 -0.00102531479613)
(0.79688411179 -0.00261462674521 0.000899233712582)
(0.807432214254 0.00303572750045 -0.00166671288649)
(0.806517744736 0.00092454515791 -0.000358061426455)
(0.797442580062 -0.00236417374381 0.00101997650062)
(0.796741666452 -6.46389467362e-05 0.00235228440792)
(0.796695940022 -0.000420512248868 0.00207902153631)
(0.804447095141 -0.000351771586115 0.0019675704031)
(0.805242147482 0.00119916923429 0.00133077750591)
(0.796904451714 -0.0025598284441 0.00176697022586)
(0.805490868803 0.000180687043812 0.00119462754619)
(0.797322102971 -0.0023677564571 0.00203374568422)
(0.802651940668 -0.00313091513384 -0.00493164037889)
(0.79296394939 0.00101908409048 -0.00273394135931)
(0.792980305041 0.00080241096401 -0.00291066529364)
(0.802313732574 -0.00401616935542 -0.00527987636827)
(0.791772542333 0.000777236172035 -0.0031479367647)
(0.802014816478 -0.00317243629106 -0.00547753446705)
(0.791939472141 0.000647395102528 -0.00334060643517)
(0.80239467887 -0.00380283166406 -0.00610566553682)
(0.801516337585 -0.00285546105497 -0.00769888367449)
(0.79082395039 0.000763107221368 -0.00353680419044)
(0.790299384523 0.000625340112974 -0.00423671422208)
(0.802110429968 -0.0030157343632 -0.00635259750952)
(0.802030371986 -0.0034858507236 -0.00695620627685)
(0.790901509642 0.000496199593675 -0.00360207253065)
(0.802919232665 -0.00325544366934 -0.00481084630968)
(0.80287741332 -0.00342036159104 -0.00482869330718)
(0.792647228828 0.00112366530147 -0.00335972601014)
(0.79255192527 0.000936823247593 -0.00382742540973)
(0.791747895106 0.000844407577407 -0.0036546333971)
(0.802499662063 -0.00369033151881 -0.00467553212315)
(0.791612095135 0.000720716260649 -0.00364448125795)
(0.790935757197 0.000709922074682 -0.00334584198238)
(0.789981554893 0.000816329087108 -0.00314582064775)
(0.802445232733 -0.00273946269832 -0.00479124718421)
(0.802521457427 -0.00332991664897 -0.00515561989508)
(0.789908982124 0.000581354815566 -0.00387562839944)
(0.8021853822 -0.00313274790684 -0.00536258899751)
(0.790740115265 0.000699729990279 -0.00371343358581)
(0.804291848512 -0.00417457056665 -0.00434491298341)
(0.803162947689 -0.00361514526639 -0.00710750292851)
(0.315867534975 0.0491947348379 -0.00904005988807)
(0.0830144353491 0.0294169586001 -0.178504634051)
(0.80573762174 -0.00131763119998 -0.0003376669851)
(0.796623324971 -0.000540275119884 0.00183410565651)
(0.803528143223 -0.00361247066429 -0.00448747727726)
(0.804647199215 -0.00361274435833 -0.00588282333655)
(0.788692748576 0.00114939292144 -0.00506687597775)
(0.788811228466 0.000334137463697 -0.00332833213677)
(0.786740569981 -0.000284724342139 -0.00585907274633)
(0.805318551283 -0.00344254896753 -0.00529331867951)
(0.807234336322 -0.0033854926747 -0.00375751360878)
(0.786219282232 -0.000539236649118 -0.00689995552668)
(0.784706930896 0.000490189585895 -0.00572079274414)
(0.52866384526 0.0494448016603 -0.0033181333789)
(0.288383453305 0.0603299794327 -0.00435742216879)
(0.20044946944 0.0546835367114 -0.00919337104773)
(0.00416970842229 -0.0392076965615 0.137177842734)
(0.110073346226 0.0533710204052 0.105526561929)
(0.111281555949 0.0250905702141 0.102825346194)
(0.0844923487393 0.0666191303838 -0.0117243303234)
(0.0201574713453 0.0834377833322 -0.00728594711848)
(0.805378620804 -0.0018937701404 0.00133533146996)
(0.804607221732 -0.00110240598131 0.00141351604566)
(0.796605911866 -0.00251756752356 0.00163868610561)
(0.796556599136 -0.000536519585354 0.0013175476458)
(0.805564796693 -0.000855224596134 0.000998054331842)
(0.7962549728 -0.00222038669196 0.00158732211958)
(0.804482433557 -0.00194054235121 0.000592239616557)
(0.802207432639 -0.00314698851509 -0.00895405725432)
(0.801840878643 -0.00234364763323 -0.0084183243012)
(0.788454518537 0.00114496792194 -0.00652031126106)
(0.789028949333 0.000380777384605 -0.00446338500968)
(0.80196261857 -0.00220796771192 -0.0103161869751)
(0.802167568465 -0.0032059463239 -0.00754835314426)
(0.788637981768 0.000626309269232 -0.00548551036722)
(0.802225477325 -0.00293134270745 -0.00712377269633)
(0.802286157966 -0.00268049626632 -0.00524752694833)
(0.788738586119 0.000502793675607 -0.00405237865023)
(0.788051514613 0.000439535654612 -0.00402521200277)
(0.802180215497 -0.00285089763327 -0.00590253579565)
(0.787973683692 0.000306706064012 -0.00490631962606)
(0.802169305021 -0.00276340440355 -0.00639030847503)
(0.803167537415 -0.00305462523999 -0.00744468163904)
(0.804130487062 -0.00302852507879 -0.00866282177415)
(0.78676736493 -0.000246106174847 -0.00608605114657)
(0.78679484688 -0.000217260002033 -0.00478983783841)
(0.804232865852 -0.00316388679359 -0.00894852301918)
(0.786965158527 -0.000180251099409 -0.00527540583306)
(0.803017605339 -0.00296682138917 -0.00688147981477)
(0.807134108139 -0.00300552851154 -0.00912166639046)
(0.805308522134 -0.00304388912037 -0.00827520900555)
(0.786085519531 -0.000647022626726 -0.0066492102467)
(0.785874187929 -0.000461481118443 -0.00706204661758)
(0.8051873286 -0.00323958408976 -0.00846704439353)
(0.785487169333 -0.000689057986408 -0.00711075745467)
(0.807493854852 -0.00271637349754 -0.0089043601956)
(0.807813649783 -0.00277778131349 -0.0083592687658)
(0.809548857943 -0.00219336356001 -0.00584352431978)
(0.784511818972 3.68623824985e-05 -0.00629498108594)
(0.78531414885 0.000214538596058 -0.00673082606926)
(0.809339297081 -0.00262223194499 -0.00668774415845)
(0.784762667338 -5.8214126657e-05 -0.00723512033095)
(0.808117887995 -0.00242474859934 -0.00766989657089)
(0.787765167089 0.0089338802335 3.83412984296e-05)
(0.79350841486 0.0108875225651 -0.000933055970798)
(0.797394793795 0.0156296300565 -0.00238567918139)
(0.799780622941 0.0112524701216 -0.00185354245722)
(0.688891609702 0.0963588990034 -0.00193051742465)
(0.429211901242 0.10831880516 -0.00566960409781)
(0.689018951314 -0.0241410469697 0.00235394698196)
(0.476452110136 -0.0311821667357 -0.00381937607936)
(0.463064064297 -0.159522645367 -0.00048507498626)
(0.150517831374 -0.0773764823905 0.0212504295185)
(0.13735806815 -0.0584950747883 0.319706992917)
(0.117544312926 -0.0400879211738 -0.0877519188826)
(0.140580266103 -0.0344003960761 0.16044046624)
(0.1093604669 0.0594914487829 -0.1306346902)
(0.205516998551 0.0839437508318 0.20535516659)
(0.784756678504 0.000565902680129 0.00163929606064)
(0.785887167006 0.00317872929248 0.00132544604065)
(0.790502376798 0.00135666673351 0.00326049473869)
(0.791467760528 0.00417849027803 0.000337306908469)
(0.783170782515 0.00593168930336 0.0020095909314)
(0.790382407847 0.00475554485478 -0.00072683667568)
(0.787520949227 0.00621891624387 0.000907279867849)
(0.790593499664 0.00813519323156 0.000743424779475)
(0.791742621883 0.00459012628872 -0.000307520177614)
(0.793555402967 0.00511895581069 -0.000137722412997)
(0.786781847502 0.0141687737356 0.00161152680303)
(0.790898985787 0.0109030535454 -0.000255744923494)
(0.791986172564 0.0145095482018 -0.000891349755687)
(0.791070417329 0.00561598318758 -0.00132656628593)
(0.790754605918 0.00774659857617 -0.00453010905072)
(0.792941955996 0.00590473430588 -0.000570818349507)
(0.793516648613 0.00793766695516 -0.00415478276374)
(0.794939479332 0.0186032859184 0.000627432748316)
(0.799915770576 0.0213688070741 0.00250228678465)
(0.791072876484 0.00901387100032 -0.00364813661785)
(0.795278030414 0.0128470958469 -0.000275641283217)
(0.793784496814 0.00912728712651 -0.00370603029534)
(0.797544564968 0.0101006631986 -0.00249945270942)
(0.794807753001 0.0134576022573 -0.00232714602371)
(0.796637487857 0.0116428996152 -0.00233384704451)
(0.793864231241 0.00537433315852 0.000566235748884)
(0.794241951276 0.00669741489527 -0.00342163449719)
(0.795549302944 0.00447968002928 -0.00291428133186)
(0.800996408853 0.0170756622946 -0.00113766582647)
(0.798558082303 0.0130009035976 -0.00202419207291)
(0.801740406754 0.0139815621788 -0.00142997406868)
(0.794613691943 0.0069575317193 -0.00340344988027)
(0.797767733173 0.00841043174898 -0.00258272278178)
(0.795703944129 0.00536861770302 -0.00285121076404)
(0.796932693597 0.00507213415181 -0.0023280264421)
(0.796309168993 0.00375260040256 -0.00255395517875)
(0.797008364177 0.00440445632116 -0.00230831276448)
(0.742163614288 0.102584790753 0.00314393805844)
(0.747012381068 0.136481060778 0.00132168387254)
(0.701468755064 0.140983058216 -0.00101719142007)
(0.282472141015 0.0104111444878 0.0649078070131)
(0.348186708164 0.00877195907652 0.223355112711)
(0.325427918861 0.0102258381841 0.200956655854)
(0.336100825487 -0.00634851005618 0.25862710103)
(0.292398607467 0.00481419176684 0.204125536733)
(0.159434321623 0.00697117758461 0.0265753645419)
(0.288619106923 -0.0158773426829 0.219125731998)
(0.147821030377 -0.00800001822443 0.0808053362651)
(0.742170433543 0.103705872616 0.000474234087476)
(0.725400654553 0.0284739728146 0.00334076653494)
(0.569283651679 0.104963964731 -0.00660373458317)
(0.685130892073 0.0242895709912 0.000658379936372)
(0.596995909294 0.0421314084049 -0.00421035267644)
(0.282554664727 0.000638935077969 0.262272290615)
(0.325869949821 -0.0106712727169 0.304511487762)
(0.231156654862 0.0339015993241 0.243219458505)
(0.307580210691 0.0305323245185 0.339536856336)
(0.310475627005 0.112465785242 0.00292384721166)
(0.446949263684 0.0514531978048 -0.00463051023816)
(0.347995906526 0.0465352860314 0.000667696830084)
(0.26746947937 -0.0242828844897 0.254707958818)
(0.156610462064 -0.0154834821843 0.159195445348)
(0.262588357484 0.0300059531282 0.305899706973)
(0.162887054188 0.043884372974 0.202745265401)
(0.618959346943 -0.0249817566308 -0.00308880370486)
(0.617302735867 -0.0717045221073 -0.00251103799184)
(0.182645931165 0.0201711858917 0.138751849411)
(0.313287045737 0.029494951376 0.307481952538)
(0.357780321144 0.0384812657238 0.277362286148)
(0.360811001752 -0.0438379806507 -5.77014153202e-05)
(0.476163935574 -0.103901802431 -0.0025998088987)
(0.368878235085 -0.127956523622 0.000310213971857)
(0.280230791475 0.0393720823127 0.314609580742)
(0.215233338838 0.057290725642 0.230035121882)
(0.354602890609 0.0491612391178 0.293189885223)
(0.326058308503 0.0586299201414 0.222398164428)
(0.785063536244 0.000166894027481 0.00388730780566)
(0.783672609517 -0.000619362658189 0.0041121385336)
(0.791149075385 0.000879194328331 0.00392335317292)
(0.790761563428 0.00228972508139 0.00258500102569)
(0.783573590072 0.000501526351371 0.00338948952155)
(0.791333931065 0.00202055741791 0.00284644234999)
(0.785026430276 -0.000476953523843 0.00495911085517)
(0.785323205245 0.00161323255185 0.00328306788511)
(0.784914508096 0.00403348245294 0.000871171610123)
(0.790709639884 0.00296515576867 0.00146037580299)
(0.791906357734 0.00402197267461 0.0014165978088)
(0.784104232801 0.00230001862546 0.00210887195828)
(0.786121339368 0.00286691151059 0.00226539304584)
(0.791487459416 0.00315643099339 0.00222175046025)
(0.78287934144 0.00437444903025 -0.000715385306746)
(0.784447223254 0.0048970491511 0.000125078134848)
(0.790091973494 0.0035409884763 0.000448301687823)
(0.790077140036 0.00541798127225 -0.00289449942206)
(0.783363570431 0.00299270762114 0.00117789001044)
(0.784212720742 0.00666033416781 -0.00190984565272)
(0.789334295676 0.00385684823426 -0.00169419109802)
(0.788282349301 0.00570560644135 0.00068172171035)
(0.786220182414 0.00542197487161 -0.000406218789044)
(0.792368545414 0.00456738108086 0.000597254812892)
(0.792425795473 0.00541280091131 -0.000853022700083)
(0.787119240532 0.0045787425269 0.00127022412343)
(0.787357696496 0.00693525641402 -0.000917624697346)
(0.792609788573 0.00495510520247 0.000188058956377)
(0.789574528681 0.007080599426 0.000677276425449)
(0.790195044547 0.00917921820784 -0.000276617804903)
(0.79281572213 0.00522593416456 -0.000313098240197)
(0.793702025689 0.00466578633187 0.000122187621537)
(0.788892131643 0.00808532697192 -0.000532925319677)
(0.790843878533 0.00795453756436 0.000498288594706)
(0.793428748248 0.00480259331548 9.71119194075e-05)
(0.78776916562 0.010247499412 -0.00357004439595)
(0.78584268376 0.00695529204308 -0.000860951624591)
(0.790648276314 0.00604817982273 -0.00328521715287)
(0.791599476037 0.00607379434749 -0.00156660143441)
(0.78605978656 0.00867383207322 -0.00353529135914)
(0.787476316926 0.00842824337913 -0.00143004927335)
(0.791676418494 0.0068188843022 -0.0030536114846)
(0.788749997739 0.0116192317232 -0.00306453569306)
(0.789139428803 0.0125650725358 -0.00424710068454)
(0.790510872926 0.0070871369004 -0.00414682378673)
(0.791334021016 0.00857159648969 -0.00505605774068)
(0.787078753327 0.0103884290543 -0.00341212532739)
(0.790742507503 0.0138455333763 -0.00472949470148)
(0.791118297733 0.00764830115283 -0.00351455137079)
(0.789432734668 0.0111472169922 -0.00347023255651)
(0.790346711582 0.0106353743742 -0.000645599529239)
(0.792538309693 0.00609982001448 -0.00114516044338)
(0.792860409398 0.00650779024866 -0.00188876420579)
(0.789011250408 0.00983834322881 -0.00107556584951)
(0.790543616081 0.0120679548638 -0.00282230903015)
(0.792280346235 0.00655636723879 -0.00250222973485)
(0.790368546277 0.0124886027951 -0.00343570215862)
(0.793722912438 0.0146504818135 -0.00525745879188)
(0.792136756572 0.00831588674217 -0.00469580877977)
(0.792812814806 0.00705217842629 -0.00300708056353)
(0.792255384187 0.0142176228618 -0.00559598352373)
(0.79176655439 0.01293575445 -0.00349227963737)
(0.791956196824 0.00732224731682 -0.00336080999564)
(0.79575660916 0.0172078075619 -0.00151249025883)
(0.790766819208 0.0141647755695 -0.00149578657224)
(0.79195757803 0.0105381579769 -0.00387327390843)
(0.792289305998 0.00901714897651 -0.00510860869502)
(0.793364265795 0.0168001749993 -0.00133966911139)
(0.792694973954 0.0146173880761 -0.00363451071218)
(0.794083333357 0.01073585307 -0.00361240485348)
(0.797814906408 0.018680847567 0.000751170147074)
(0.800024863113 0.0198508922657 0.00463369301104)
(0.793535032737 0.0122475025053 -0.00242105439968)
(0.795201403427 0.0121276774026 -0.00174916035106)
(0.796288796423 0.0188925938595 0.00125653475896)
(0.794497052441 0.0119506635425 -0.001500788564)
(0.801114866471 0.0197300111601 0.00265327549801)
(0.797406362106 0.0167805583399 -0.00411844430759)
(0.795411462227 0.0156453441562 -0.00382695395126)
(0.793397413956 0.00966206186269 -0.00543301345259)
(0.794409458452 0.00906172530517 -0.00445867582145)
(0.794336729605 0.0157573332295 -0.00520554048138)
(0.797860504685 0.0165860921921 -0.00442268966482)
(0.794838931609 0.00959690824465 -0.00416504132779)
(0.799309114235 0.0179316264406 -0.00167686001669)
(0.802948171348 0.0179641092148 -0.0016190262089)
(0.79606509001 0.0112815183088 -0.00275798260792)
(0.795907829518 0.00890122055681 -0.00423389515325)
(0.800151322651 0.0170205574678 -0.00392304237985)
(0.795264092598 0.010073285831 -0.00230963013319)
(0.802006072221 0.0189231242363 -0.00113705863168)
(0.793011116632 0.0114422254645 -0.00155649263986)
(0.791641199399 0.0109623301666 7.93552529062e-05)
(0.793422196728 0.00585678991008 -0.000626064584424)
(0.794296069509 0.00485316145506 0.00102304322064)
(0.791931246194 0.0120176383927 -0.00206754902906)
(0.792795955798 0.0103729578718 0.000325524177171)
(0.794072082264 0.00524778648902 2.11763818638e-05)
(0.793968421476 0.0123653462421 -0.00231792242234)
(0.794892684554 0.0141103323051 -0.00518468490311)
(0.793604270095 0.00653837839613 -0.00215522338)
(0.794074622574 0.00597240994945 -0.00286228987308)
(0.792931184074 0.0131604697488 -0.00305021608515)
(0.795519404386 0.013369153076 -0.00486648075524)
(0.793786746885 0.00581932594824 -0.00122574332986)
(0.79501540839 0.01152937564 -0.00177401454717)
(0.797550435968 0.0119138394756 -0.00445374441471)
(0.794482718047 0.00519961331214 -0.00261400123908)
(0.794858882327 0.00386786547137 -0.00173461820446)
(0.796483435791 0.012493283735 -0.00410262163511)
(0.795916315143 0.0107844592601 -0.00261963070682)
(0.794436411083 0.00455746702326 -0.000973518173133)
(0.799734570828 0.0147571359756 -0.00489258436428)
(0.796445501665 0.0148793096222 -0.00424886065207)
(0.79504068329 0.00805394865744 -0.0041443727232)
(0.795194603944 0.00608117135971 -0.00419187212553)
(0.798760328726 0.0158220865139 -0.0051286484789)
(0.797185805821 0.0139096616426 -0.00540120625585)
(0.796272001816 0.00699934850761 -0.00366295004979)
(0.801172802903 0.0153969484917 -0.00386178092547)
(0.803282369615 0.0167560893712 -0.00259421295297)
(0.796436649549 0.00893902825391 -0.00414778827112)
(0.796702620662 0.00704829474774 -0.00274024276935)
(0.800943620932 0.0167676732527 -0.00464330491536)
(0.796503907033 0.00760140613085 -0.00252629675375)
(0.803076101257 0.0154266010887 -0.00277707897014)
(0.800298614388 0.0138056393815 -0.00437691092374)
(0.798611874804 0.0126603083392 -0.00384739334136)
(0.795781488908 0.00595549284563 -0.00393184677773)
(0.795838836653 0.00521889929204 -0.00309003660287)
(0.797948513745 0.0134022701763 -0.00468744628604)
(0.800269143909 0.013258339812 -0.00399842543742)
(0.79652412835 0.0057510030632 -0.00355909040501)
(0.801538571456 0.0140388570615 -0.00325311536053)
(0.803268976998 0.0133765901995 -0.00245016333723)
(0.796787306428 0.00578547825635 -0.00252196994509)
(0.796434218965 0.00478437875232 -0.00325258382833)
(0.801694449924 0.0131953113462 -0.00403847844407)
(0.796630452495 0.00539655454308 -0.00235293544207)
(0.80311990247 0.0141985385111 -0.00248291594843)
(0.801208015872 0.011534250021 -0.00314636107778)
(0.799381693946 0.0117961006401 -0.0032172043488)
(0.796219283913 0.00425100757551 -0.00262198601688)
(0.796369743128 0.00329942589592 -0.00306845015151)
(0.800754084873 0.0124370150262 -0.00323895667938)
(0.799894827304 0.0110934925149 -0.00390092278303)
(0.796797030617 0.00353051283965 -0.00264075352923)
(0.803169190977 0.0126611377203 -0.00217515741757)
(0.796658226157 0.00467054899329 -0.00286261741637)
(0.801838180032 0.0127585414416 -0.00318629204792)
(0.808291446009 -0.00290417918237 -0.00033308187268)
(0.806670226172 -0.00538286788703 -0.000629385083932)
(0.804947733916 -0.00581622350548 -0.000824996370278)
(0.804134874955 -0.00396830322279 -0.000545544675152)
(0.804249321936 -0.00352636935578 -0.000367233445031)
(0.803088131378 -0.0124416662131 -0.000349008620544)
(0.807728178199 -0.00311252237012 -0.000600893255425)
(0.80624061521 -0.00588381471678 -0.00104269921931)
(0.804747728909 -0.00638583667386 -0.00172298020806)
(0.804370393102 -0.0038302637618 -0.0016713390123)
(0.804449518065 -0.00340247793888 -0.000476840728709)
(0.803207710179 -0.0121565559131 0.000348199809148)
(0.818948461984 0.00509547572291 0.000759835768221)
(0.81576093788 0.00307525732097 0.00229513843302)
(0.792671869613 -0.003660178485 0.0142951546155)
(0.787855446924 -0.00657626177644 0.0146015210414)
(0.788224865755 -0.00663317462415 0.0117865018078)
(0.789735072614 -0.00477669678861 0.00548041763842)
(0.797341696095 -0.00245844198874 0.00176041160749)
(0.789300075233 -0.00480971953691 0.000966237278712)
(0.824942059396 -0.000433949428432 9.57392018213e-05)
(0.820812490656 -0.00529590379131 0.000329255454274)
(0.813360253753 -0.0171747335768 0.00413216338578)
(0.803861714286 -0.0175749880617 0.00387919276652)
(0.800374108737 -0.0134050296597 0.00242397211313)
(0.797921946075 -0.00941345825011 0.000935171958103)
(0.800499307945 -0.00547338748712 0.000243611016778)
(0.793637559916 -0.0124282908939 9.4144330359e-05)
(0.817691106268 -0.0014497728211 -0.000186826312782)
(0.81636057555 -0.00681789050666 0.000304316990005)
(0.810828582144 -0.00993321583208 0.000770972622732)
(0.805122567852 -0.00979477050882 0.000964795728347)
(0.80247035412 -0.00878011408531 0.00079529686888)
(0.800873508175 -0.00673398041013 0.000107668819959)
(0.802128355529 -0.00465831223001 -0.000123707792086)
(0.797153408183 -0.0138550580338 -0.000121921823846)
(0.812797751791 0.00109822405245 -0.000417732688912)
(0.81217344129 -0.00422210144522 -6.1518153e-05)
(0.808490106597 -0.00775872014505 0.000140269538345)
(0.804833428101 -0.00848846434842 2.09695399224e-05)
(0.803486301076 -0.00820867752967 -5.54950420978e-05)
(0.802487121676 -0.00679067385525 -0.000324464422767)
(0.803315080542 -0.00488545020213 -0.000303098341014)
(0.800128076141 -0.0152597486506 -0.000236746727603)
(0.804162127059 -0.00577961191779 -0.000754025038192)
(0.803700201916 -0.00509454253547 -0.000735105010797)
(0.804041095135 -0.00407427225809 -0.000472717655079)
(0.80206938299 -0.0139527055852 -0.000407833989637)
(0.64266461189 0.0409551411349 0.0121279758246)
(0.642413865359 0.0402133063686 0.0197187712116)
(0.680544669511 0.00521844718752 0.0315428825806)
(0.72206741129 -0.00925053960713 0.021443540657)
(0.755790022419 -0.00943691275454 0.0105329927168)
(0.774584437962 -0.00677151919552 0.00472266723328)
(0.79289936477 -0.00345856711762 0.00221144504928)
(0.785185722513 -0.00622359177602 0.0024381167001)
(0.776741144031 0.00799059108331 0.00738467526179)
(0.776210587683 -0.00144188917465 0.011372829292)
(0.788319690882 -0.023847459642 0.0128523421899)
(0.789848230482 -0.0261307281202 0.00894418463157)
(0.793098835051 -0.0208644952089 0.0050422893795)
(0.793934631712 -0.0135497647979 0.00185590011351)
(0.799741286259 -0.00682347090308 0.0011187716532)
(0.792902140551 -0.0140216609558 0.00178848742924)
(0.818781178818 0.000372045449248 -0.000336260764912)
(0.816508402552 -0.00851762461768 -0.000108683760417)
(0.81155239781 -0.0126239227879 0.000368728430176)
(0.805497804186 -0.0126270381006 0.000144693024394)
(0.802389103926 -0.0108947161385 -0.000122844796473)
(0.800454186768 -0.00799243705774 -0.000892854472765)
(0.802151626487 -0.00528368818143 -6.59475696887e-05)
(0.797013285487 -0.0144822924019 0.00118766189093)
(0.812937981392 5.78184747694e-06 -0.000747662688204)
(0.812351122415 -0.00416393338862 -0.0005376175286)
(0.808627896325 -0.00692269344111 -0.000514467271866)
(0.804733171578 -0.00782924746698 -0.00103347794821)
(0.803167937224 -0.00782033145143 -0.00122201350634)
(0.802635085559 -0.00653824475106 -0.00146984948366)
(0.803432436899 -0.00494403828803 -0.000254583107619)
(0.799986292251 -0.0154784170745 0.000973391447432)
(0.804253361863 -0.00617169731028 -0.00179988323504)
(0.804161954055 -0.00530832579885 -0.00181157579337)
(0.804363477275 -0.00419325037443 -0.000449792317835)
(0.802308026816 -0.0141285563942 0.000585215963344)
(0.633920211745 -0.0167192259773 0.0213691317285)
(0.632552644461 -0.0197134303415 0.0281128043727)
(0.669478243823 -0.0355922192322 0.0142612428318)
(0.714343959667 -0.0286096146152 -0.00077324317591)
(0.753113901748 -0.0173209476104 -0.00501353348292)
(0.773647980414 -0.00960321592773 -0.00624421283325)
(0.794768239785 -0.00425829249655 -0.0029966264382)
(0.787534068598 -0.0068274180955 -0.00153045813937)
(0.73737403107 0.000931948421204 0.0222136998172)
(0.741508244343 -0.0111431627813 0.0227487177772)
(0.790293260788 -0.0256317036111 0.00228790007319)
(0.788739791554 -0.0262663791034 -0.00101492712975)
(0.791213619204 -0.0219034312334 -0.00261167769841)
(0.79346143067 -0.0139967396451 -0.005407036015)
(0.801552849464 -0.00716715038988 -0.00269062096257)
(0.794937884697 -0.0152184967929 -0.00115988533541)
(0.819335087035 -0.000471323043919 -0.000229122512709)
(0.817808626333 -0.00881569721458 -0.000992424470593)
(0.812011775482 -0.0148438183019 -0.00265093739022)
(0.804747744659 -0.0144444670089 -0.00442132565249)
(0.801437517924 -0.0123440508847 -0.00519038325083)
(0.801248306838 -0.00884538785125 -0.00571371617863)
(0.804216410764 -0.00608858871615 -0.0025231673146)
(0.800221618986 -0.0163100903355 -0.000618864072523)
(0.808804201455 0.00686677513312 -0.000752664502073)
(0.812845495217 0.00059269454925 -0.000652531868714)
(0.812084653847 -0.00491539739713 -0.00176403955303)