/*--------------------------------*- C++ -*----------------------------------*\
| =========                 |                                                 |
| \\      /  F ield         | OpenFOAM: The Open Source CFD Toolbox           |
|  \\    /   O peration     | Version:  v1906                                 |
|   \\  /    A nd           | Web:      www.OpenFOAM.com                      |
|    \\/     M anipulation  |                                                 |
\*---------------------------------------------------------------------------*/
FoamFile
{
    version     2.0;
    format      ascii;
    class       volScalarField;
    location    "2.2";
    object      alpha.water;
}
// * * * * * * * * * * * * * * * * * * * * * * * * * * * * * * * * * * * * * //

dimensions      [0 0 0 0 0 0 0];


internalField   nonuniform List<scalar> 
28582
(
1.00000128677
1.00000138984
1.00000157768
1.0000022247
1.00000088914
1.00000145938
1.00000288359
1.0000032966
0.0167963975027
0.018948351017
5.30218935449e-09
1.00000398342
0.948968594657
0.948412370546
1.00000370917
1.00000734192
0.948126236726
0.999969668644
0.999960808907
1.00000088616
1.00000271758
1.00000395273
1.00000049238
1.00000383308
1.00000500308
1.00000006067
1.00000264166
1.0000028447
1.00000388929
0.0198429969569
7.33722601232e-07
3.24889404699e-07
1.00000225399
1.00000436087
0.948007308664
0.946372718229
0.999978645439
1.00000384779
1.00000636386
1.00000719889
0.999970416817
0.949059273326
0.999962793339
0.999979849292
0.017385326439
0.0189901357784
5.3045084416e-06
2.82363440223e-08
0.0181385060007
2.27716009826e-08
0.999985012004
0.999971146669
0.94703893875
0.947766242516
0.999960400204
0.949599316929
0.999982211429
0.999971087103
0.999992230464
0.947976089396
0.947972320988
0.999970420986
0.948379759328
0.999994367417
0.999970038091
0.999984604433
0.948257618073
0.948406511921
0.999971680784
0.948401694045
0.999979611807
0.999977760827
0.948532430869
0.949099643708
0.999970132489
0.948523196795
0.948484082256
0.999981032165
0.999980342706
0.949262495096
0.948803246067
0.999960582886
0.948422066769
0.999976472274
0.948564624015
0.0168364233338
2.85244995343e-05
0.0170398591256
0.0174738051495
2.30698598752e-05
3.47225545181e-05
0.0198269710779
1.69094111227e-05
1.63902293127e-07
0.0208681309547
4.18127416865e-05
0.0210407333463
7.1934989001e-06
0.999950024474
0.999959276317
0.942330285707
0.943218991406
0.999941858149
0.99992932261
0.949279141373
0.999956493861
0.999961295113
0.941428255047
0.942939218568
0.999944805022
0.999942408491
0.947552652028
0.944853509595
0.949276794067
0.999985330154
0.999963513726
0.944228437964
0.999928515349
0.948466211851
0.999971379884
0.948827283646
0.949345830802
0.999970934698
0.949323974206
0.999971206491
0.949304727161
0.999972840817
0.999965488026
0.949264158809
0.950194152769
0.999970291679
0.999976203994
0.949659783541
0.999976879238
0.999979020252
0.949870912517
0.948943700275
0.949934833265
0.999966120292
0.949856262757
0.950386090021
0.949619661165
0.999977839564
0.99997056053
0.950516954076
0.999974617932
0.950075122522
1.0000031289
1.00000373966
0.0226495618383
1.74476934999e-06
1.00000299681
0.947882392979
1.00000724475
1.0000067465
0.94931192986
0.948907381958
0.947678870336
1.00000577955
1.00000573908
0.947156664694
0.946907806573
0.0173004695621
0.0226603318637
0.0246273232352
4.24010149251e-05
8.27372606971e-05
0.000102391835051
0.0264158478142
0.0280212032378
0.999950032612
0.999982377786
0.944052579347
0.945707030957
0.999944019011
0.946983112378
0.999975502218
0.999976116181
0.999964150134
0.94975523582
0.949959953932
0.999969591496
0.999977028444
0.949172432434
0.999970262083
0.999971284832
0.950250576171
0.948945409404
0.999974697307
0.948973278164
0.999973425641
0.999964687849
0.99998720346
0.948537666826
0.948740125908
0.999964225496
0.948472872099
0.999982816178
0.999961498666
0.999987201813
0.948349586924
0.947100747242
0.999964217717
0.947834397276
0.999984069666
0.999960597974
0.999977599863
0.947409720099
0.946915129992
0.999956195538
0.947605376363
0.999982295372
0.999998772749
0.999999050341
0.999998730362
1.00000101395
0.00915557090193
0.0107471047859
0.0106963538225
0.0123477011021
0.0130747874152
2.80232263421e-10
5.40430457159e-08
2.60599291022e-08
2.24536692621e-07
6.95210108327e-07
2.65532870537e-06
1.00000033904
0.999999715107
0.981925783669
0.980538219265
0.999998882309
0.980937508145
1.00000013831
0.999999542857
0.979260610277
0.974414584307
0.999995258616
0.999998040594
0.999995067109
0.979262325185
0.981404457743
0.973369508001
0.97407308813
0.999990652204
0.99998813444
0.97682716326
0.968695059889
0.967923945245
0.963472880852
0.999998146483
0.999998726574
0.97127440068
0.971809972439
0.966851965488
0.999998111581
0.999999459903
0.999999379355
0.965771848427
0.962128306067
0.960915949358
0.958505159674
0.960368270633
0.958297276629
0.00908484322601
0.00913362968511
0.00880114161887
5.40058732467e-07
1.25975177264e-06
9.49648356672e-07
1.82277138548e-06
3.50085414196e-06
1.11599553995e-05
4.8305493706e-06
1.30081669617e-05
0.00946982332718
0.0101041403351
0.00949297890915
0.00991024722701
0.0101763623257
1.80194269455e-06
5.23150351633e-06
5.64860461063e-06
8.6015470899e-06
0.012561752257
0.0113522327869
0.0130513466768
1.05691256059e-05
1.51309771593e-05
1.52581071865e-05
1.99967495816e-05
0.0110996983399
0.0117394400197
8.90104560679e-06
1.63778404495e-05
2.60537262547e-05
0.0139115893753
0.0129931451787
0.0143874677989
2.88350574264e-05
4.01592159274e-05
4.42035927507e-05
6.06234120228e-05
0.99999604607
1.00000325528
0.978702966322
0.979802337609
0.99999858303
0.978766870093
0.999998217965
0.999998826043
1.00000636312
0.979329044519
0.978392559932
1.00000186973
0.999998655335
0.978098477777
1.00000380498
1.00000165568
0.982832965356
0.982720488659
1.00000903186
1.00000251189
0.984805512151
0.999994500157
0.999999904686
0.977181504507
0.975597128365
0.999997676147
0.999995059888
0.975157222246
0.999995256446
0.999999498319
0.973807676479
0.972168048382
0.999995262817
0.999992519207
0.973701503072
0.999998202509
1.00000331958
0.9808392711
0.97914807902
1
0.99999467419
0.979813049937
0.999984507794
1
0.983147298883
0.979997593663
1.00000219432
0.999989327078
0.978035494899
0.999986773843
0.999994789051
0.976897450093
0.973806525757
0.999997978146
0.999992937416
0.977598993166
0.999990991989
0.999990097362
0.977238500096
0.976416839376
0.999988241028
0.99999463017
0.975495829432
0.999954446059
0.999989837187
0.980066282726
0.980530207985
0.999991249096
0.999971234077
0.974575209048
0.9999398733
0.999989782803
0.980179368383
0.966256148924
0.999996821842
0.963061339186
0.99995402215
0.99996269206
0.999978950038
0.978443227438
0.970172879468
0.999977428591
0.99998113777
0.972543234825
0.999940853576
0.999975007567
0.963695302877
0.971427219096
0.999988053204
0.961202583589
0.999936310072
0.999987198937
0.999991708774
0.971234907347
0.970325362657
0.999984530191
0.9999923724
0.971168890823
0.99998226958
0.999987175593
0.973401075567
0.968095612141
0.999989771939
0.999984377429
0.968155174136
0.999985765718
0.999983146993
0.965597611031
0.966831305206
0.999982871663
0.999985608477
0.966567653435
0.999970732519
0.999962039255
0.966589024846
0.96944289009
0.999961107141
0.999980903518
0.965897680448
0.99996336147
0.999974116868
0.968004058461
0.95634098338
0.999983450996
0.956578514682
0.999956368239
0.999979775656
0.999971089093
0.966535906902
0.959126119251
0.999983312096
0.999964343172
0.964703731899
0.999967194225
0.999969019186
0.954559912507
0.959805908075
0.999970356502
0.956159479189
0.999962791752
0.999980118106
0.999969450368
0.957570122404
0.962141581338
0.999964394254
0.99997960071
0.962838824284
0.999978466962
0.958269005669
0.999975820339
1.00000115194
1.00000182079
1.00000234115
1.0000050258
1.00000569117
1.00000603465
1.00000114714
1.00000198402
1.00000260365
1.00000577621
1.00000614055
1.00000609122
0.999972701489
0.999933413063
0.999992421005
1
1.00000241088
1.00000478946
1.00000646139
1.00000754261
0.9999930182
0.999989227663
0.99998588829
0.999998603478
1.00000098275
1.00000243107
1.00000338568
1.00000368923
0.999998256427
0.999999063579
1.00000005201
1.00000087579
1.00000179895
1.0000026363
1.0000032709
1.00000341723
0.999999757883
1.00000030462
1.00000117096
1.00000209674
1.00000236406
1.00000282225
1.00000317175
1.00000315927
1.00000334633
1.0000038205
1.0000040634
1.00000372161
0.999777424257
0.999945920986
1.00000042168
1.0000031286
1.00000481748
1.00000638658
1.00000928961
1.00001056183
0.999919305949
0.999932374283
0.999999333435
1.00000130477
1.00000260836
1.0000036134
1.00000400321
1.00000364536
0.999996674948
0.99999954856
1.00000060011
1.00000156788
1.0000025188
1.00000330514
1.00000389762
1.00000380635
0.999999529395
1.00000025611
1.00000106396
1.00000181693
1.00000237439
1.00000305402
1.00000356095
1.00000344364
1.00000317193
1.00000332915
1.00000341643
1.00000278292
0.999807744216
0.999962213241
1.0000019844
1.00000334962
1.00000373332
1.00000639783
1.00000831855
1.00000884212
0.999920264727
0.99998547391
1.00000119401
1.00000179711
1.00000219303
1.00000225838
1.0000039181
1.00000485112
0.99999782033
0.999999796949
1.00000067736
1.00000132408
1.00000189207
1.00000237297
1.00000280819
1.00000277289
0.999999986056
0.999999546332
0.99999994746
1.00000051832
1.00000105631
1.00000166664
1.00000217146
1.00000260781
1.00000257524
1.00000088921
1.00000148553
1.00000191937
1.00000212281
1.00000204764
1.00000223327
1.00000190308
1.00000382627
1.00000391782
1.00000383778
0.999984724569
0.999996693786
1.00000060076
1.00000999307
1.00000931163
1.00001274881
1.00001336555
1.00000693073
0.999994181128
0.99999298156
1
1.00000576875
1.00000696441
1.00000696372
1.00000651668
1.00000992643
1.00001167435
0.999998312182
1
1.0000015914
1.00000186274
1.0000029071
1.00000439766
1.00000484888
1.00000493493
1.00000581829
1.0000048084
1.00000334161
1.00000111302
1.00000096255
1.00000210469
1.00000362263
1.00000457594
1.00000537439
1.00000676753
1.00000595294
1.00000251484
1.00000173906
1.00000277931
1.00000376285
1.00000478043
1.00000601275
1.00000470705
1.0000046168
1.00000413114
1.00000163272
0.0198070122474
0.0205881802207
0.0209057074964
0.022622673996
0.0261473813154
0.0293606626627
0.0330019450712
0.0376125249127
0.0144243820741
0.0179148554827
0.0194611871229
0.0204363089444
0.0213056663478
0.0229274244853
0.0258270226124
0.0291212269235
0.033636983217
0.037377431237
0.0154687753695
0.017864748935
0.0187410251401
0.0190641002171
0.0198271006841
0.0221218599971
0.0252381806531
0.0281170476377
0.0319021768316
0.0367027131357
0.0174818038286
0.0178553234949
0.0179835473263
0.0190061579799
0.0211608621317
0.0241562687698
0.02696627471
0.0303013513825
0.0354441889441
0.0180175868761
0.0190288242023
0.0204962688228
0.0231817437262
0.0263130574695
0.0307091590131
0.0351796336346
0.026121275892
0.0311609208174
0.0345933439274
1.40615821541e-07
3.61913709233e-08
1.9127241091e-07
4.76248438446e-08
7.7576158158e-08
8.29053413763e-08
-4.90961814303e-31
7.48881937671e-07
1.18587775139e-05
4.1931461919e-05
1.14650292637e-07
2.32557717541e-08
1.07717761364e-07
1.06602432697e-07
6.39418988644e-08
-2.40920801644e-28
-5.17035099988e-27
5.86215526988e-07
1.51291446417e-05
3.91480965002e-05
1.43506817371e-06
5.2168445414e-08
-2.45569244352e-26
1.04002372402e-08
7.6155605778e-08
5.1083939444e-08
1.45544039492e-08
2.16932861327e-07
9.19235057576e-06
3.08397054999e-05
4.27176577551e-08
8.67867494714e-08
1.48518122555e-07
4.73912993288e-08
2.01414030873e-09
0
6.31098923976e-08
6.87904337428e-06
2.75264836346e-05
3.04231683726e-07
3.35853665545e-26
2.02274049656e-09
6.74381887418e-08
1.19563027683e-06
1.22658036712e-05
2.96831475523e-05
2.12336159183e-06
1.33118963841e-05
3.59402014483e-05
0.999947363769
0.999990964783
0.999990970409
0.999897451177
0.999841965256
0.999945764019
0.999927759204
0.999964280768
0.999990909421
0.999977672071
0.999916210405
0.999979434633
0.999921252446
0.999959595897
0.999992971198
0.999993672786
0.999980975534
0.999985986344
0.999985829496
0.999993415168
0.99998523472
0.999970440069
0.999974180101
0.999980381235
0.999976525621
0.999968664412
0.999974346721
0.999982000697
0.999831669311
0.999800843247
0.999837169484
0.999775338398
0.999807484748
0.999784749671
0.999833631347
0.999995209746
0.999923306735
0.999989742879
0.999935820475
0.999995426347
0.999931750735
0.999994590875
0.999912576583
0.9999812356
0.999983028296
0.999843447798
0.999904126121
0.999966823529
0.999978530066
0.999979033554
0.999985145145
0.999990520557
0.999955391212
0.99999314721
0.999987341014
0.99999615471
0.999889132886
0.999857507352
0.999911194814
0.999909258911
0.999970294476
0.999937102744
0.99998438754
0.999997648754
0.999966685865
0.999998511231
0.999989508767
0.999999762244
0.999993881276
1
0.999963159879
0.999981746491
0.999989225012
0.99997707475
0.999989917591
0.999993616268
0.999995166741
0.999999673837
0.999994664266
0.999999503736
0.999996736518
1.00000018902
0.999998130065
1.00000016809
0.999953308263
0.999970170703
0.927535223895
0.930973366608
0.999995637432
0.999981241131
0.999990373991
0.927588670215
0.935267978193
0.929988931825
0.935554131279
1
0.999994951687
0.999999545674
0.936530928669
0.938077077745
0.936326982457
0.93788526068
1.00000763506
1.00000532832
1.00000916822
0.940028620267
0.942550307404
0.93877338126
0.941051433024
1.00001121479
1.00000956844
1.00000727187
0.942852233313
0.939928340207
0.941657518396
0.94069891726
1.0000103879
1.00000828589
1.00000540139
0.940223539114
0.939714714189
0.94085774562
0.940112277838
1.00001930581
1.0000054585
1.00000990583
0.940016906203
0.940137063995
0.940839259638
0.94152294794
1.00001264442
1.0000161095
1.00001395642
0.940935909845
0.928734676263
0.940651297841
0.923741083593
1.00000456488
1.00001263389
1.00001402929
0.920078231072
0.899566069878
0.915936940551
0.905464103881
0.999989034708
0.999990734572
0.949024630623
0.944850486585
0.948895770702
0.946990361837
0.999992870828
0.999992099814
0.999993940878
0.926225355059
0.932669584448
0.934406245283
0.937837601683
0.999997150121
0.999997452348
0.999999988767
0.931244144538
0.936009751975
0.935792265816
0.938998562078
1.00000338659
1.00000263829
1.0000024388
0.936434244909
0.938302975217
0.93877478413
0.941065918115
1.00000868813
1.00000402869
1.00000366363
0.939000837796
0.940935272732
0.940851778333
0.941922396903
1.00000961566
1.00000552184
1.00000451651
0.941458935145
0.940784894675
0.941922939014
0.94161584231
1.00000917973
1.00000608565
1.00000456001
0.940992207271
0.940375055143
0.941825273173
0.941971678589
1.00000862976
1.00000620195
1.00000453905
0.941046834347
0.941888150091
0.942580796336
0.943817004997
1.00001327024
1.00000688142
1.0000045358
0.940721826208
0.92328297071
0.943357138556
0.926373366303
1.00001358026
1.00000506428
1.00000470698
0.915813832147
0.907384178411
0.918139268913
0.907233371734
0.999999305937
1.00000062501
1.0000019747
0.948945267122
0.947724530314
0.949210449377
0.947847906388
1.00000135088
1.00000329468
1.00000418999
0.936629394454
0.939299036215
0.940887633001
0.943516821612
1.00000204959
1.00000457082
1.00000397653
0.937192746659
0.940268554435
0.940446164791
0.944938146734
1.00000324268
1.00000391075
1.00000326955
0.939992497844
0.942435646787
0.944071907316
0.946424126594
1.00000505523
1.00000391854
1.00000380531
0.942162592308
0.94288157207
0.945902951998
0.946323463157
1.00000621747
1.0000052924
1.0000048878
0.942644119151
0.942080273662
0.945896116982
0.944825504672
1.00000637659
1.00000576703
1.00000480246
0.94218884879
0.942346791425
0.944757965069
0.944664708935
1.0000074771
1.00000598497
1.00000522611
0.942901698557
0.943768516546
0.944937816543
0.945099308691
1.00000749177
1.0000080574
1.00000611353
0.944368933865
0.928719503023
0.945635100263
0.933898389655
1.00000507286
1.00000633072
1.00000435648
0.919937024413
0.906379521373
0.925553126494
0.906471274226
0.950182495727
0.948595051902
1.00000235277
1.00000424124
0.942141822823
0.944844894127
0.949080711461
1.00000103993
1.00000460828
1.00000473491
0.941911910038
0.945994054249
0.947004319597
0.946254685563
1.00000190637
1.00000401293
1.00000348969
0.945076176245
0.94667118036
0.945399839845
0.945474318736
1.00000361855
1.00000381372
1.00000343802
0.946145028031
0.946446193088
0.945004711669
0.946357800338
1.00000488743
1.00000435511
1.00000414528
0.946097474437
0.945080596241
0.946526416053
0.946727005313
1.00000568108
1.0000049876
1.00000455186
0.945015776871
0.944901140564
0.946768390609
0.946566517671
1.00000783842
1.00000571717
1.00000537551
0.945166802566
0.945278131508
0.946844280679
0.94701714435
1.00000850195
1.00000794933
1.00000663119
0.945782618458
0.93491037453
0.947270030905
0.933283234922
1.00000561091
1.00000642662
1.00000426636
0.926695174482
0.906523246194
0.924770076943
0.907016041659
1.0000020958
1.00000368891
0.945321996351
0.945337568851
0.947758156431
1.00000279985
1.00000436136
1.00000444385
0.945001428632
0.946381602725
0.947699071034
0.948131014332
1.00000391836
1.00000484053
1.00000477404
0.946630150513
0.947120025203
0.948398172581
0.948697164009
1.00000474841
1.00000481083
1.00000331107
0.947228079348
0.946975786305
0.949060287989
0.949204530154
1.00000673089
1.00000394288
1.00000337391
0.947250252466
0.947464523597
0.949284666462
0.948024389161
1.00000711643
1.00000551509
1.00000353639
0.94685625876
0.931211070988
0.945320404333
0.926102480914
1.00000440462
1.00000422107
1.00000275243
0.922978306365
0.908097321993
0.918002371756
0.908388569599
1.0000051121
0.949320635379
1.00000605282
0.949255248477
0.94738698374
1.0000044626
0.944729965381
0.926331104133
1.00000215793
0.918331569425
0.90844069059
2.55690575051e-05
7.92279695623e-06
1.57761074176e-05
1.15213929734e-06
0.0196493721232
0.0192840357459
1.39645434804e-06
1.80430281871e-06
7.20873135943e-07
1.34883038056e-06
0.0199193614168
0.0196378168061
0.0199728410878
4.05474211763e-06
2.59393722317e-06
5.98847417702e-06
1.11840657255e-05
0.0211516112087
0.0205293139401
0.0211645378119
2.95335576593e-07
2.87969029594e-07
8.46713444765e-06
4.91793311463e-06
0.021383823292
0.0213566176942
0.021828136822
2.43750596563e-06
5.16965490308e-06
6.11891452777e-06
4.63664324034e-06
0.0244777481391
0.0229309539305
0.0243931863316
9.7368860562e-06
1.43836606941e-05
4.43274351756e-06
2.18668278115e-06
0.0277863228007
0.0260761721396
0.0277445559963
1.74928034195e-05
2.18035949303e-05
3.47379992617e-06
7.13681195374e-06
0.0308850408012
0.0293083020183
0.0309480496105
2.52658870408e-05
5.55371205294e-05
3.21691539885e-05
0.000100481395868
0.0364703578772
0.0335458430487
0.0368263114629
0.00014991532301
0.00035042459662
0.000240820405609
0.000402883048011
0.0367263361203
0.0375140395254
0.0365411936319
0.000513150002901
0.000602228561441
0.000519814396681
0.000582695973306
0.0163241090638
0.0148167180736
0.0165439608388
9.67089604436e-06
2.00394045184e-06
1.71588765863e-05
9.4675631643e-06
0.018809830274
0.0179036460028
0.018492264138
1.09475068529e-06
1.36699822958e-06
2.73112011706e-06
3.8015030032e-07
0.0199859755141
0.0191688139465
0.0194520803199
3.53978715629e-06
1.0088904328e-05
1.26672661119e-06
8.15874201997e-07
0.0208523730226
0.0199123935761
0.0201111145793
1.13350374463e-05
9.78311738385e-06
7.43232976364e-06
9.36538606783e-06
0.0218715698407
0.0207663055741
0.0215856446439
7.91729398469e-06
7.25420713653e-06
1.63269972849e-05
9.25123514409e-06
0.0242460402813
0.0226837111063
0.0240717378116
2.33730501049e-06
1.78625980065e-06
7.9237513301e-06
1.35738338358e-06
0.0274700282064
0.0255847034806
0.027135187962
2.77804447123e-07
5.50558561048e-06
2.97273924683e-06
7.27320409891e-06
0.0307916306059
0.0286494482253
0.0302419685788
2.63419992394e-05
0.000113549533786
3.51717563006e-05
9.29349267876e-05
0.0368734452052
0.0329400761791
0.0363810180738
0.000269300580909
0.000421784248265
0.000238594756564
0.000407744368543
0.0364996665651
0.0371134070428
0.0363301912156
0.000513821473925
0.000560572137543
0.00050360891637
0.000547643413703
0.0168931312055
0.0158677085881
0.0169669603145
3.91473368079e-05
2.25827820817e-05
5.25483247564e-05
2.33102565123e-05
0.0184788330395
0.018040585823
0.0180292705294
4.20793870318e-06
3.69637076243e-07
4.20963681376e-06
4.04419173976e-07
0.019048221524
0.0185102661451
0.0181890129449
3.72418728634e-08
8.96089258991e-08
2.54361641772e-07
4.50548614313e-08
0.0193273706558
0.0183642894597
0.0184527238618
2.52526490879e-08
5.5147535594e-06
2.50785864352e-07
9.57503490551e-06
0.0207839097035
0.0190267159741
0.0199447807859
1.31661815249e-05
2.1676097274e-05
1.85626211768e-05
1.65537108729e-05
0.0236759253681
0.0214142016182
0.0230358303067
1.40101171714e-05
1.82664100258e-05
1.80963872842e-05
1.56589489156e-05
0.0267385358118
0.0246545869374
0.026107458317
1.0094075968e-05
1.73825400488e-05
1.81196468965e-05
1.13936985051e-05
0.0296558513441
0.027498607085
0.028906725555
2.35990319299e-05
7.05246153153e-05
2.04490006963e-05
4.88631946283e-05
0.0354434591658
0.0309522419732
0.0344267243583
0.000184096927044
0.00036405719902
0.000152821515326
0.000321537986831
0.0360354411761
0.03603074376
0.0354876645407
0.000464616187343
0.000507107175912
0.000431822877327
0.000486487226718
0.0179885405333
0.0173913128939
7.13998301069e-07
3.50716570253e-07
1.41726314115e-05
0.0179285174017
0.0175201944482
0.0177556041369
6.58466976945e-08
1.17167331149e-06
1.46525311767e-05
2.22225345796e-05
0.0184158418433
0.0181426058536
0.0185554359674
8.25569317482e-06
1.68748838955e-05
2.82605137113e-05
2.32568076107e-05
0.0199412610221
0.0191655147545
0.0199091175494
1.66703554842e-05
1.50344283418e-05
1.54543886188e-05
6.2324804916e-06
0.0226189729435
0.0208501392959
0.0221008467698
8.76632081513e-06
1.39964140933e-05
3.04585647109e-06
3.19516409192e-06
0.0256015173048
0.0236199591981
0.0251348757478
8.08042738311e-06
7.74789084822e-06
7.02278629666e-06
3.54110597737e-06
0.0283868288671
0.0265592216708
0.0280635601211
3.24807740369e-06
3.32380586177e-05
1.43157467844e-05
4.28751732318e-05
0.0336886148723
0.03018917285
0.0336680680242
0.00012192937668
0.000296670077688
0.00014777961006
0.000306078265244
0.0350083566249
0.0352124102504
0.0347537498668
0.000408904583128
0.000467852606248
0.000407215982799
0.000460979128758
0.0184320181483
0.0178599563337
3.11438077867e-05
1.78715536169e-05
2.25677066284e-05
3.51304972613e-06
0.0196154334311
0.0183703876525
0.0191322605626
1.29457265931e-06
3.42312709928e-07
2.65699233874e-08
4.15011532132e-08
0.0216220598401
0.0200863082336
0.0213163611201
7.26044278212e-08
2.98922169968e-07
1.87071144e-07
4.44229046592e-08
0.0247920965909
0.0228181594203
0.0243989659305
2.17629896574e-07
9.32408544397e-06
3.28811824626e-06
3.04167814168e-05
0.0279723974296
0.0260678356638
0.0280751046224
2.70896694718e-05
8.5913941139e-05
7.38064309367e-05
0.000133494131477
0.0340309323703
0.0312607265041
0.0342739557593
0.000198856343468
0.000339982399247
0.000249564281436
0.00036420244924
0.0346604253297
0.0350804226893
0.0346712131146
0.000418207542262
0.000466037105537
0.000426252708964
0.000470251971294
0.0243058648592
8.15184951556e-05
0.0282059716043
9.81987338908e-05
0.000144752640912
9.71724968851e-05
9.30821885229e-05
0.0337803440643
0.000246852463392
0.000358236258046
0.000175520829983
0.000319584839539
0.034416779152
0.000441993339482
0.000504008635915
0.000431316029035
0.000508478174499
0.999901917395
0.999927320782
0.928559018675
0.926517640037
0.999917583038
0.922843716652
0.999915516112
0.999904750476
0.999919696445
0.927630114446
0.932332601796
0.999915787924
0.999924405564
0.924087152324
0.999948333777
0.99991252001
0.931299853593
0.931549197492
0.999951593799
0.931871078553
0.9998961244
0.999922810599
0.999899502836
0.934312832461
0.93460943549
0.999870080906
0.932603714058
0.999897729067
0.999942192828
0.999910853576
0.932489657411
0.932635193765
0.999948436518
0.999917809171
0.932635207478
0.999910370459
0.999931733
0.935304418321
0.93526102512
0.999882087642
0.99993094006
0.933199232267
0.999772488547
0.999900673879
0.937327210748
0.935260120875
0.999806861864
0.935490232686
0.999905562325
0.999774186327
0.999914679543
0.937525081793
0.938228027721
0.999788993896
0.936567132995
0.999910297918
0.999854712196
0.999933928307
0.936138870455
0.937582004203
0.999863622961
0.999934308537
0.936274241495
0.99985636228
0.999929947091
0.938251271179
0.937816637332
0.999865727487
0.99993072206
0.936988795125
0.999852432026
0.999924860427
0.941639372206
0.939506192969
0.999816560278
0.940886152732
0.999944649562
0.999898684991
0.999966805997
0.942097740037
0.941898985489
0.999955964353
0.941915977217
0.999956898634
0.999897517895
0.99993261204
0.939104756884
0.940022621358
0.999878288428
0.99994274163
0.940093050814
0.999922044177
0.999956851446
0.941347524482
0.940531792587
0.999961089028
0.999960141805
0.941229389271
0.999979228632
0.999980190426
0.942416274679
0.941288079177
0.999984569829
0.941075206454
0.999986411782
0.999964821813
0.999989117937
0.940645232535
0.940943223808
0.999952068035
0.941184678321
0.999985340397
0.999978596283
0.99995072705
0.941088988724
0.941562626997
0.999974433465
0.999951219978
0.941106029165
0.999985611534
0.9999591858
0.941059007348
0.940848851487
0.999992963525
0.999955626036
0.941348801541
0.999948289645
0.999990423154
0.940281632204
0.93990178999
0.999950791411
0.939671376063
0.999989559797
0.99994543207
0.999977757111
0.939843456216
0.940035093664
0.999945653545
0.939974193732
0.999982765663
0.999980533693
0.999962048791
0.939991134436
0.9406685106
0.999991448635
0.999964113539
0.939812206115
0.999959492768
0.999965361079
0.940201503155
0.940076009179
0.99995118194
0.999966807657
0.940160336638
0.999948375203
0.99997753962
0.940099306033
0.939863544723
0.999947993856
0.940023993247
0.999977552248
0.999958344869
0.999976315523
0.939975676936
0.940719146036
0.999968565575
0.940696584491
0.9999856323
0.99995027789
0.999965999086
0.940028646069
0.941123361012
0.999952042259
0.999965456194
0.940205723791
0.99994985457
0.999960026763
0.941239907759
0.94103510103
0.99996143331
0.999966757703
0.941038133074
0.999959081913
0.999964059639
0.940645051245
0.940668863033
0.999975123125
0.939773875284
0.999947201517
0.999936911206
0.999866726692
0.936288113136
0.927221683365
0.999887058608
0.934462973294
0.999921082381
0.999945885677
0.999971216266
0.940704394078
0.938742965877
0.999966129587
0.99995329605
0.938798388444
0.999909958623
0.999848132556
0.925219100469
0.932500545824
0.99984594416
0.999912814933
0.932464087639
0.999758632855
0.99980173937
0.913757391015
0.920950177441
0.99982823235
0.914182436268
0.999731082619
0.999613317475
0.999659906243
0.909767548792
0.897376166922
0.909158701198
0.999661817486
0.999601343208
0.999730194984
0.999782698926
0.92016022084
0.912622255722
0.999785256997
0.999750306052
0.914530321896
0.999622521858
0.999742392341
0.902125048219
0.911801286562
0.999695548886
0.910727737404
0.999665124941
0.999934106776
0.999956441302
0.949901555918
0.966979476671
0.999963335877
0.955691620232
0.999962857932
0.999918632141
0.999963672011
0.953155414827
0.934795558224
0.999969792329
0.999911559044
0.935429067829
0.999933437863
0.999938731277
0.965284009585
0.949041559693
0.999940365623
0.956023977386
0.999946214254
0.999898903421
0.999944921887
0.93680218773
0.951865396626
0.999906448959
0.999954631087
0.937736850898
0.999938740832
0.999908435407
0.926520044263
0.940593356805
0.999896380647
0.999950649834
0.93705587058
0.99990672441
0.999899409576
0.933850887933
0.931244906932
0.999921075143
0.999914607839
0.929050129615
0.999951846079
0.999901795379
0.942352589725
0.934536234003
0.999954964154
0.99989704858
0.939092221969
0.999908136556
0.99992885418
0.933147299628
0.939195560877
0.999915234651
0.999926094405
0.931349165374
0.999962233718
0.999889287374
0.933537119675
0.935448742538
0.999899100135
0.999961865819
0.935279779296
0.999946180101
0.999907215567
0.935936594935
0.937465274489
0.999909660096
0.999927470069
0.935498591979
0.999920293489
0.999931617215
0.937160337538
0.937532037855
0.999926755575
0.999944504777
0.936788407138
0.999905291865
0.999973282253
0.93834110477
0.939460483896
0.999906885986
0.99997147249
0.936717062294
0.999915382835
0.999906078614
0.93774137504
0.938185591012
0.999911370033
0.9999210527
0.937921118552
0.999916412452
0.999907628686
0.938229854263
0.93946123455
0.999912752095
0.999920602677
0.938208499339
0.999919996193
0.999968887442
0.93933247333
0.94009555561
0.999916097185
0.999968336777
0.939056841043
0.999921482151
0.999966904754
0.940315008506
0.941443905579
0.999924113949
0.999970316566
0.939184310247
0.999925712985
0.999908177079
0.940136542124
0.940014487627
0.999916374155
0.999923719464
0.940042148692
0.999933188788
0.999928185589
0.940574227187
0.94121121613
0.999923290232
0.999943704685
0.940557063227
0.999925413468
0.999961418064
0.940877174617
0.941538906211
0.999925463656
0.999961613195
0.940754699232
0.99992658563
0.999966473722
0.94142946661
0.942150332687
0.999932859561
0.999966514114
0.94090045282
0.999957510316
0.999939141331
0.941424698582
0.941173493631
0.999964100776
0.999955011662
0.941157238014
0.999957737088
0.99997128388
0.940876946494
0.941379772367
0.999974160157
0.999958574559
0.941413070161
0.999939940007
0.999965923741
0.941456548574
0.942153082561
0.999938837794
0.99996663433
0.94130234572
0.999940776448
0.999967279943
0.941452506944
0.94197270289
0.999943879693
0.999968708877
0.941413975403
0.999960981768
0.999967520729
0.940875375983
0.94081128768
0.999968369727
0.999961752158
0.940745055772
0.999959840067
0.999956440912
0.940353808693
0.941311467302
0.999965732324
0.999955122771
0.94119647196
0.999944759501
0.999965091813
0.94108422396
0.942103818353
0.999945181302
0.999965058249
0.940989743022
0.999943890057
0.999963039284
0.941741777935
0.94197396427
0.999943936386
0.999965187605
0.941415743046
0.99995394184
0.999948567688
0.94138163861
0.94110655932
0.999948209158
0.999956050403
0.941224622867
0.999953483313
0.999936931774
0.941336767068
0.943094432372
0.999946288994
0.99995162301
0.942243561376
0.999944940906
0.999961129887
0.941684867981