/*--------------------------------*- C++ -*----------------------------------*\
| =========                 |                                                 |
| \\      /  F ield         | OpenFOAM: The Open Source CFD Toolbox           |
|  \\    /   O peration     | Version:  v1906                                 |
|   \\  /    A nd           | Web:      www.OpenFOAM.com                      |
|    \\/     M anipulation  |                                                 |
\*---------------------------------------------------------------------------*/
FoamFile
{
    version     2.0;
    format      ascii;
    class       volScalarField;
    location    "2.2";
    object      p_rgh;
}
// * * * * * * * * * * * * * * * * * * * * * * * * * * * * * * * * * * * * * //

dimensions      [1 -1 -2 0 0 0 0];


internalField   nonuniform List<scalar> 
28582
(
19556.0174991
19557.5158325
19555.6297069
19557.3765666
19554.4481629
19556.8443673
19552.4131092
19554.9607246
370.051990692
417.315179785
0.0146904304783
19553.4750158
18614.4874765
18605.6057526
19556.8349609
19557.115982
18601.049527
19556.6909314
19556.6336773
19554.1664083
19559.3122939
19560.8667863
19553.5849414
19559.5677564
19561.5686381
19551.9206242
19560.0788604
19549.9550791
19559.0195135
437.021893798
0.034791975894
0.0133060916774
19550.2078096
19551.0026188
18596.3411986
18564.7966066
19548.9537935
19561.5414712
19559.2482735
19561.7873839
19558.0032478
18628.0657897
19558.0417104
19561.2018702
382.99712398
418.243628018
0.117670066819
0.0113480183581
399.509052388
0.0311006050867
19550.8721961
19551.2903975
18578.2891387
18590.9962364
19550.3163179
18626.745887
19551.0818626
19551.894005
19552.7703064
18596.5471913
18597.6535425
19552.5576125
18604.2973711
19551.9112849
19554.381072
19553.5028792
18604.7432595
18606.8071728
19553.4499283
18607.3982422
19554.3962762
19556.6483417
18612.1287127
18623.0179471
19555.4451941
18610.8388739
18610.003719
19555.5513479
19556.9577658
18626.1326008
18617.4118039
19555.3675385
18609.411165
19555.7177883
18611.5975521
370.858439103
0.691391410733
375.296113089
384.822204171
0.543124092792
0.825761193929
436.653277405
0.380308828534
0.00313469716565
459.682157482
0.96175601367
463.347646619
0.148721678995
19548.4004862
19548.2624976
18487.4530917
18502.9402909
19547.2309893
19546.9437527
18619.3330742
19548.6817133
19548.4187352
18469.2485891
18499.4769643
19546.9445062
19548.0350172
18587.9627275
18534.0166595
18619.4435229
19549.997743
19549.2383215
18523.8012752
19548.1859154
18604.9814959
19557.7662284
18618.9076353
18628.9282519
19559.371959
18629.7550757
19559.208857
18629.4673892
19560.9026512
19562.1275722
18630.1784652
18649.5928019
19560.7067913
19562.509026
18637.7182982
19559.6844964
19558.2095285
18639.0807191
18621.3188031
18641.6453254
19559.4457111
18640.0698202
18651.8334459
18638.7823156
19562.4930377
19560.9713371
18655.6414421
19562.551086
18645.649364
19563.3191061
19564.0885829
498.761941923
0.0118166522307
19551.7119865
18593.9666373
19564.2529957
19566.5187258
18634.7644121
18627.0996699
18609.9482424
19568.2261721
19569.3357479
18601.8719609
18603.0293465
381.081910262
499.124158977
542.428544583
0.965132393895
1.91822367369
2.38771207509
581.843539552
617.296642101
19549.9256991
19550.423743
18520.0394173
18552.9813633
19548.729042
18577.1333945
19550.5805301
19565.6414223
19563.7228212
18645.079644
18647.1825703
19565.5051287
19564.1096744
18634.1219404
19565.4878778
19563.7960225
18652.7409731
18629.8463357
19564.1099367
18630.3967731
19565.4441854
19566.9285229
19568.6614889
18626.1697202
18628.2415905
19568.4766503
18622.9060988
19567.1885054
19570.961767
19569.9964796
18624.6737457
18602.6324767
19569.8511108
18616.6828166
19571.237655
19572.1310955
19573.1670009
18612.6831245
18600.9217974
19572.9512663
18614.1685889
19572.284331
19570.6782974
19564.7564937
19561.9803759
19558.4199333
201.855068437
236.96971631
235.518745336
271.998054499
287.98973628
0.175934983696
0.158902041521
0.126175982994
0.0957678184078
0.0448428502109
0.0553014456427
19572.2026869
19571.3024047
19239.8590096
19212.282544
19573.4929724
19220.3513866
19569.5353556
19567.2887311
19187.6330003
19094.8218905
19571.3097673
19567.5324443
19567.1463329
19187.859409
19231.1105779
19074.7871196
19089.1755283
19565.1904263
19561.6647571
19143.3296273
18987.3269236
18970.988182
18886.514534
19563.8125142
19561.540536
19034.7492175
19045.7260457
18950.1755429
19558.9040929
19559.6828545
19557.1202803
18929.9121494
18861.2812406
18837.1151424
18793.0916003
18826.4200149
18788.9099343
200.331542451
201.321563456
194.099534868
-0.0522036424939
0.00549107804899
-0.0365637937247
0.034065965101
0.08355945423
0.256627949469
0.112611196335
0.302608608261
208.64652185
222.511992453
209.395996283
218.313025622
224.388955551
-0.0138201204201
0.110135559776
0.0771077937529
0.180861610432
276.795363096
250.285580744
287.53082425
0.251442239719
0.366759790891
0.357192445266
0.476989007561
244.560771867
258.599221541
0.155924548679
0.352477481833
0.576902758983
306.357099015
286.135132052
316.802334054
0.660212849513
0.942564895575
1.01725262052
1.43105410215
19570.2588188
19572.0753582
19179.1192221
19200.1419237
19571.8262556
19178.041152
19570.2994699
19569.7733796
19570.6643812
19191.0241642
19173.403363
19571.3705151
19569.4177162
19165.0734868
19574.4017098
19571.7299151
19258.645988
19256.4025643
19573.1914063
19573.2048635
19295.8027915
19567.5217918
19569.4646685
19150.0982509
19119.615914
19568.5937099
19568.3784405
19108.670591
19566.5485863
19565.7389733
19085.5658839
19054.2515194
19567.1274003
19565.4050368
19081.0019799
19569.5893389
19570.5909767
19220.3406767
19188.0567997
19571.6160976
19569.3253137
19198.9444974
19569.5760048
19572.01355
19265.8612318
19206.0964219
19572.5363834
19570.4103125
19164.9936118
19567.6657941
19566.2406428
19144.8525399
19086.0394842
19567.8431705
19566.5798743
19156.2910992
19567.6738052
19565.2769909
19153.0749348
19137.2010289
19568.2147766
19566.7597274
19116.1036104
19566.1761691
19570.8453915
19209.859435
19218.5262118
19570.5001948
19569.4878216
19100.3673312
19562.610374
19562.3198036
19215.3642781
18947.8177493
19568.4771062
18878.1921139
19561.2790505
19564.1223375
19563.6231955
19178.3275399
19020.3557718
19567.2771407
19563.8269256
19060.9236309
19560.2719189
19557.450339
18898.088948
19046.5710995
19562.1025236
18841.8865767
19559.3703848
19562.8007129
19564.6654056
19036.9796666
19019.3319302
19564.7037354
19563.4848964
19032.5942443
19562.6205586
19563.486017
19079.2653578
18978.4667656
19564.8561398
19562.7661609
18975.0507586
19561.6186538
19559.5362189
18930.6463349
18953.5298628
19561.2918305
19560.7539146
18944.6400382
19559.4035596
19561.572259
18951.7290637
19005.9745035
19561.6681024
19561.8808026
18933.2208973
19557.393575
19556.511106
18980.847508
18756.8593759
19560.6628373
18754.6062084
19556.2787859
19558.5535893
19558.9162281
18949.8042825
18808.3771011
19560.5489636
19557.8511766
18910.4583836
19556.9987584
19554.9716624
18722.3666902
18822.2599802
19556.6423537
18746.7529237
19555.7103377
19556.3365465
19557.8924931
18778.15868
18865.0195107
19556.8800766
19557.703982
18874.0646308
19554.516081
18791.9714502
19555.985379
19555.0455313
19556.89027
19558.9226312
19561.8940487
19561.882954
19560.4723151
19554.6164237
19556.7548735
19559.1925904
19562.845103
19562.7540859
19560.8974577
19542.2774601
19549.2695202
19553.6380427
19557.1907622
19559.645618
19561.1192059
19561.7911583
19560.4652807
19545.4220817
19550.7126492
19555.2062826
19557.909791
19559.9182016
19561.2946166
19561.8969021
19560.4874875
19550.0276451
19552.2730701
19555.4688298
19558.0652651
19560.0821755
19561.4716303
19561.9795308
19560.5069539
19552.3708831
19553.8278366
19556.2517181
19558.5448308
19560.384644
19561.6436577
19561.9669734
19560.5474334
19560.6230594
19561.7891408
19561.9535839
19560.5032522
19538.0435258
19546.8181666
19552.1711279
19556.8300604
19560.2096447
19562.0709575
19562.7634945
19561.1485474
19543.3027046
19548.7131336
19555.5395148
19558.2988545
19560.6443563
19562.3149434
19562.906432
19561.1793043
19549.1690692
19551.8112
19555.100038
19558.210139
19560.7719378
19562.4796663
19563.0385294
19561.2221175
19551.7302065
19553.3811301
19556.1074575
19558.8102163
19561.1062529
19562.6593847
19563.0176871
19561.2135743
19561.3503747
19562.7730614
19562.9012193
19561.0531969
19535.3461699
19545.2447503
19553.0810015
19557.791938
19561.8256429
19564.6118351
19565.3455723
19562.2097281
19539.7092911
19547.7682689
19554.7865559
19558.5333616
19562.1114714
19564.8428402
19565.5517746
19562.2892395
19547.7252334
19550.830457
19554.7794618
19558.767466
19562.4405049
19565.0521237
19565.716212
19562.4735831
19550.6148895
19550.2819897
19552.3753323
19555.738445
19559.3424233
19562.7701802
19565.1635965
19565.6030882
19562.3900928
19553.4063555
19556.2343593
19559.6854898
19563.058522
19565.2094936
19565.1842986
19561.8061072
19565.1618286
19564.7696531
19561.3292186
19535.2391231
19544.9234566
19551.3853116
19557.0598412
19562.141281
19567.1650477
19569.5817154
19565.3420964
19536.9346843
19539.7670614
19546.8458802
19552.2143134
19557.3316289
19562.4031513
19567.3923737
19569.6965532
19565.1369969
19554.657254
19545.3950549
19544.9556249
19548.8285584
19553.0095578
19557.7071481
19562.7751092
19567.6720532
19570.0917854
19565.7210138
19549.0705625
19548.0056001
19550.2945836
19553.9079867
19558.3600608
19563.2011083
19567.7777946
19570.0931215
19565.9379407
19551.076381
19554.1511602
19558.5385643
19563.5685064
19568.1181097
19569.6622643
19564.4207535
19568.5119545
19568.8137226
19562.6627802
436.122076986
453.221042412
460.333276211
498.233929565
575.67750096
646.434616183
727.038633712
828.852845214
317.635575538
394.372324598
428.495037988
449.887029031
469.043287435
504.851812848
568.657592003
641.172997832
740.987385193
823.741233974
340.547471429
393.319239843
412.630633078
419.708485075
436.604830327
487.121415912
555.659789389
619.100363633
702.83519114
808.707724463
384.889440748
393.126710929
396.060148895
418.62463807
466.013445365
531.893870183
593.762200875
667.607703259
780.970346006
396.708231426
418.988994372
451.372556188
510.438256409
579.407182163
676.571975826
775.140771393
575.392907703
686.482173479
762.270596335
0.0165486817745
-0.0447770562596
-0.0368881080801
-0.0627399555024
-0.01181225217
-0.0344523497993
-0.0655362282784
-0.107203305334
0.0545394581276
0.579567996046
-0.0069087095404
-0.0324433121869
-0.0453164377284
-0.0537478184462
-0.0287060302449
-0.0331937128768
-0.0682450658426
-0.093752495418
0.127312420972
0.516148966104
-0.0180406901041
-0.053185560809
-0.0446321873318
-0.0187149246724
0.0085755726588
-0.0111436448635
-0.0375306660265
-0.0872627521553
0.0292793199262
0.365069997947
-0.0256001210882
-0.00571427186126
0.00997021243458
0.020008968227
0.00368752981231
-0.0220571883308
-0.0748568386812
0.0503912061413
0.317434925892
0.0121393416673
0.0148792444729
-0.00662651220047
-0.0277693636182
-0.0458529526947
0.0939917251565
0.344228593911
-0.0210928767176
0.102210909758
0.46905738835
19545.7303451
19543.4217828
19547.0944787
19540.5394991
19544.5687946
19541.9393137
19545.7956793
19551.2187091
19550.0061919
19551.7823252
19548.3168581
19550.5582458
19548.8160832
19551.0995586
19548.2961501
19547.1127493
19549.0914117
19544.59941
19547.5547849
19546.5091292
19548.8084146
19552.2272049
19551.2237067
19552.9799487
19550.1085828
19551.6050921
19550.7929203
19552.5355696
19543.029054
19538.9966628
19543.5972261
19536.6563271
19541.7072148
19537.3177673
19542.6192651
19549.837716
19547.2141181
19550.6736981
19545.8235711
19548.9319887
19546.5719765
19550.0036012
19545.9493846
19545.7717649
19548.0519417
19540.5266848
19544.7749805
19544.7284449
19547.0917334
19551.1184328
19550.1944745
19552.3106234
19548.2079489
19550.8741934
19549.4813594
19551.7485762
19540.8637058
19536.8399824
19542.1934707
19535.8434485
19541.4534067
19537.0045648
19542.4204745
19548.6791967
19546.0434595
19549.7880466
19545.44418
19548.7473189
19546.088391
19549.7325474
19544.2963931
19543.7129185
19546.3660912
19540.1640883
19544.2851638
19543.0745847
19546.3358897
19550.3992455
19548.8393952
19551.1631988
19547.4894072
19550.2992053
19548.9157002
19551.2753512
19531.7879699
19534.55719
18201.6570251
18267.5236409
19540.6924936
19537.5809379
19541.6789373
18203.5886284
18354.3198597
18249.8068109
18360.2412368
19548.1931621
19545.5469055
19548.6887585
18379.6693001
18412.0457843
18375.9847736
18408.6506227
19554.3933426
19551.5556071
19554.4007578
18449.641273
18500.6446301
18426.219792
18472.7531546
19559.6303798
19557.0701144
19559.66811
18507.7901528
18457.7064836
18485.8352732
18472.4196235
19564.7941529
19562.2469096
19564.8226333
18465.187141
18461.2239005
18477.3893014
18468.9169191
19569.1354121
19567.2154103
19569.1920426
18468.9666677
18477.2724142
18484.8524533
18504.6511002
19568.2819682
19569.6658943
19568.052196
18495.2412209
18267.3768208
18490.8709906
18171.0643194
19561.20669
19565.129973
19561.5322801
18100.0086805
17692.2005841
18019.6773514
17808.5489474
19555.7551737
19547.5818409
18605.8698544
18527.8245538
18606.0500731
18572.4298185
19536.8834757
19541.8665839
19540.4093343
18170.6403812
18300.1203647
18331.5250236
18400.2400332
19543.572661
19542.5449545
19545.4257572
18273.9905258
18369.2675993
18362.027858
18425.9492775
19549.5674976
19547.9297952
19550.2290102
18378.1513841
18416.4084514
18422.2627653
18467.9844924
19554.9427506
19552.5741807
19555.0496055
18430.5229482
18470.5454394
18464.7357294
18488.7994532
19559.8977968
19557.4390335
19559.9861486
18481.989589
18473.8911352
18490.1442135
18489.357079
19565.0826079
19562.576985
19565.2340254
18479.7422414
18473.7862308
18495.1328282
18503.6393838
19569.3951482
19567.6191499
19569.5949971
18488.7312641
18511.7180505
18517.1783657
18547.5335001
19568.0275079
19569.9535493
19568.2505148
18492.4171305
18162.0731118
18541.739015
18220.777729
19561.6915311
19565.3235031
19561.6033439
18017.0191075
17845.5640253
18061.1605111
17842.5560183
19549.6687328
19553.7114464
19550.37314
18607.7934111
18587.532391
18615.5757432
18591.5551974
19544.1575099
19547.9230493
19546.5613815
18374.9472812
18428.9196668
18458.9246951
18510.0006179
19546.8669373
19546.7089262
19548.0135587
18389.0474221
18450.0230682
18451.8196661
18538.1784932
19550.8831184
19549.6740741
19551.5246505
18445.0569389
18493.5809492
18522.329717
18568.6698105
19555.3537041
19553.5505868
19555.7919987
18489.123728
18506.6190246
18559.6777284
18571.3485215
19560.2367059
19558.1380498
19560.6017409
18503.5229231
18497.9978635
18564.7768505
18549.5781286
19565.3747861
19563.0908255
19565.5775914
18501.8727471
18510.5104067
18550.0459491
18553.6049217
19569.6628237
19567.7659329
19569.5067682
18522.9189721
18545.855853
18560.5263558
18569.2486396
19568.6844738
19570.1764625
19568.905473
18560.2473714
18265.4426375
18582.0514156
18363.3153202
19561.6705979
19566.0328381
19561.7886997
18095.6355592
17826.0759788
18202.5457737
17826.5145998
18634.2256023
18606.1291214
19547.9996458
19549.1473336
18482.7106123
18535.3787227
18615.2403269
19548.967123
19549.1813083
19549.6202917
18479.6054455
18558.232093
18577.297306
18562.7617811
19552.01165
19550.7442627
19552.2259955
18541.280865
18573.5221217
18547.8026178
18550.4865674
19556.0750166
19554.0422025
19556.1646656
18564.2921314
18573.7202098
18542.5953987
18571.5309274
19560.7874025
19558.477929
19560.939487
18568.4695016
18554.0985298
18576.0213989
18584.4536961
19565.6397121
19563.4004046
19565.8415944
18554.5654243
18557.6768062
18586.9741397
18588.6466137
19569.6018098
19567.9469271
19569.6391796
18564.4032224
18572.0966929
18595.715736
18604.9761262
19568.8583303
19569.9934883
19568.4500753
18584.2085248
18382.1994193
18612.594529
18350.0423419
19561.701045
19565.3516112
19561.272986
18224.0339218
17827.1232547
18185.8156185
17835.6934166
19552.4600062
19552.9437056
18546.0932502
18547.6755751
18593.3131127
19556.2432375
19554.6023528
19556.5647605
18542.2263768
18571.6535264
18592.9867592
18604.5151366
19561.0878593
19558.7869279
19561.3387444
18577.6384626
18591.5857784
18610.7725394
18621.2663214
19566.0276588
19563.9115595
19566.3766832
18595.423734
18596.3041274
18629.9678043
18638.632542
19569.7679111
19568.4193917
19569.7521666
18603.367662
18613.7848195
18642.1730806
18625.4216859
19567.6836511
19569.233053
19566.6698947
18605.1272936
18309.9864774
18576.5429193
18210.5097885
19560.8338152
19563.2769494
19560.2402871
18150.7876338
17856.1515658
18053.4336039
17861.0163787
19566.4812429
18640.9227951
19569.6243887
18641.6527175
18613.153527
19566.1481483
18564.9696213
18214.2802185
19559.8539843
18059.2396447
17861.5100014
0.59990047822
0.209017566217
0.394352929925
0.061535959554
432.420902473
424.502250721
0.0729700648665
0.0820016741903
0.046037418489
0.0735470161866
438.660087491
432.431344282
439.811521158
0.139484548483
0.10837577854
0.188454695459
0.307108126158
465.524011975
452.000944518
465.88961258
0.0398879824041
0.01514459609
0.230338895488
0.131443434584
470.948384423
470.207710508
480.675613526
0.063910038446
0.135342708916
0.154608534386
0.122934355227
538.93156259
504.962387222
537.130395178
0.248537528746
0.343810163935
0.118288154958
0.0596337117608
611.753698075
574.131795127
610.826320119
0.405357841064
0.503493262346
0.0807348540446
0.158048982433
680.157526965
645.297414837
681.567397088
0.582491475423
1.28256398224
0.732600691895
2.31477188683
803.392478156
739.000462861
811.312128969
3.46521885254
8.10266450824
5.56539201275
9.32837877906
809.837980412
826.749237181
805.696183517
11.8539219705
13.9464074331
12.0088080069
13.4895202181
359.332546061
326.272390965
364.21871727
0.251476821806
0.0732894519021
0.426713827865
0.253924346775
414.170482401
394.135162811
407.216617478
0.056199035645
0.0784343575879
0.0986736383135
0.0594405308668
440.006456292
422.036213864
428.267219945
0.134059369259
0.270257183247
0.0733756692931
0.0497904768224
459.052904057
438.305025582
442.76456056
0.289915916109
0.239606286403
0.187589647335
0.226512265056
481.599039255
457.171580161
475.250184368
0.192671708072
0.177109301827
0.382575030635
0.220763559273
533.890837403
499.458553685
529.988277233
0.0623770534243
0.0453678217036
0.188487621144
0.0304025963563
604.803958915
563.296207443
597.416045469
0.00185288639666
0.115422189074
0.05959286721
0.151131706434
678.144884113
630.825309159
666.057205729
0.59217359113
2.61067804662
0.794423458371
2.13225487946
812.380812336
725.670486852
801.508991185
6.22117139462
9.76501504354
5.50709391115
9.4439229844
804.686031644
817.89476312
800.919828619
11.8748223212
12.9770365162
11.6464196308
12.6798283729
371.888216171
349.291092057
373.564200048
0.948679209456
0.56465329521
1.27505901445
0.592324075735
406.801536583
397.022769963
396.994461081
0.142066015526
0.0506655465481
0.133739785991
0.0470765350006
419.266625478
407.397127072
400.514662198
0.0381645778166
0.0192419125037
0.0282202357757
0.00917801074281
425.505189856
404.31914712
406.412637213
0.00382318737755
0.125719869134
-0.0053822790443
0.211930916253
457.715741891
419.11664432
439.386548571
0.302925886448
0.510354649831
0.438342928306
0.405496214957
521.306802672
471.630362547
507.263296661
0.332572016968
0.422049681835
0.436316087328
0.367926476134
588.693235016
542.869390472
574.855780071
0.226139929989
0.387423604555
0.414638571389
0.253426235789
653.099534623
605.499475945
636.611225488
0.525548604433
1.60886435189
0.459207552051
1.11493038766
780.837361755
681.928140833
758.466446967
4.24658045621
8.43275529085
3.53010958762
7.45403703331
794.342926465
793.890765467
782.283984122
10.7575696206
11.758633093
9.99945049212
11.2884935882
395.910123265
382.897263993
0.0398399823949
0.0119556726433
0.310336410238
394.726654251
385.77158867
390.986023574
-0.00264013388454
0.0132511528288
0.331981821354
0.518477820913
405.585575269
399.508365248
408.627026897
0.180229112176
0.39049834116
0.666380555911
0.5566575194
439.204218067
422.057010706
438.435901502
0.398854708572
0.364307646519
0.377102901955
0.159980753029
498.080700333
459.166414344
486.68837931
0.215820662051
0.328669844923
0.0824291680874
0.0754313225694
563.715278695
520.101287321
553.430138159
0.182834775504
0.169515064486
0.157683681806
0.0692788138621
625.132064518
584.808655383
618.042465636
0.0616519237418
0.756693146751
0.318276720206
0.982875869738
742.259006538
665.162881223
741.778724722
2.83264337892
6.89764150382
3.43465545902
7.12147152741
771.720865564
775.863137669
766.074525292
9.48110960611
10.8721540672
9.44323129988
10.7069682866
405.877868775
393.347694405
0.744934826394
0.438583442803
0.559132428645
0.112340700753
431.969494083
404.62426778
421.364739807
0.0494927600264
0.023952775168
0.0302295831497
0.0246423197461
476.159300078
442.343285589
469.382456352
0.0117487299259
0.011421280736
0.0166889754415
-0.00446186622001
545.871214749
502.419800715
537.253144191
-0.00414181595193
0.202027655044
0.0591634725751
0.686537177368
616.160562009
574.119297823
618.532761399
0.618345842016
1.98766293789
1.70962723672
3.10442313445
749.723739368
688.685833758
755.043630764
4.60586206126
7.88754853852
5.78627764792
8.45170847176
763.988157664
772.940791179
764.131719016
9.68566852976
10.8068836454
9.8644219361
10.8907672784
535.334846747
1.88674503808
621.445468734
2.29547188135
3.37631208498
2.27554192167
2.17441305598
744.247214987
5.72463016459
8.31022976677
4.06202810156
7.40368339189
758.573098695
10.2183657159
11.6646236886
9.96338507974
11.7653400374
19529.9825558
19531.8994987
18221.9328156
18183.248632
19532.248533
18109.1474271
19530.7142161
19530.9773708
19534.7320207
18204.6190825
18294.7000535
19533.1890238
19534.1923278
18133.1010962
19536.8370603
19533.2970964
18276.6970937
18281.0168628
19535.0809736
18287.0475347
19535.8198794
19538.4760152
19540.5646728
18335.4081456
18341.8044934
19539.9844948
18301.9520735
19538.3089915
19537.4581202
19535.8153615
18299.2935092
18302.6008768
19535.931387
19537.9489139
18301.9112099
19538.9118504
19542.1809616
18355.2718345
18353.9757182
19540.6963635
19540.3734503
18313.6113492
19541.9065498
19542.5060165
18395.9501965
18355.5487142
19540.7310632
18360.9653094
19544.5325555
19543.5688947
19547.5239331
18400.7620691
18414.896508
19545.4371178
18382.5089068
19546.1484878
19543.7405022
19543.7667647
18372.4916669
18401.0015284
19542.2224827
19545.4843415
18376.0725514
19545.2728966
19548.1526585
18415.5296154
18406.5471849
19546.9570012
19546.8656698
18390.709289
19549.3826588
19549.2361512
18481.0085972
18439.8037416
19547.337641
18467.0631785
19551.042633
19551.6928288
19554.2380949
18490.7666091
18488.5497623
19554.0824156
18487.7490069
19552.729858
19550.2029833
19549.4295682
18432.4620589
18450.9295693
19548.4512185
19551.0488505
18452.2258203
19552.0889472
19554.0603018
18478.2169578
18461.591885
19554.1797354
19552.7471989
18474.8830272
19557.2989361
19555.9496455
18501.2678363
18478.228837
19555.9416434
18475.9572552
19557.5751605
19558.6180926
19560.3414762
18469.3032985
18477.0427035
19559.8235368
18480.0153192
19558.9310266
19557.3492874
19555.4800551
18474.6586243
18485.4487088
19555.8051601
19556.9389157
18476.7152849
19559.0304002
19559.9825683
18479.2330787
18473.3894606
19560.5893098
19558.4332646
18483.1663198
19562.7917808
19561.9322046
18468.0172065
18458.9776516
19561.2563205
18456.6837913
19563.5131498
19564.389493
19566.5174082
18461.5979087
18467.381281
19566.0359831
18464.4366949
19564.9683407
19563.4177167
19561.6463289
18460.6596647
18475.5178805
19562.050774
19563.2716616
18459.3397915
19564.7397439
19566.577803
18470.5712152
18466.1273914
19566.2667105
19564.9336942
18467.9862603
19569.4002297
19568.135287
18472.3233603
18466.0429887
19567.6895837
18471.1262719
19569.7533913
19571.178363
19572.5444944
18471.9070199
18488.6925437
19572.592065
18486.0307605
19571.4010801
19569.616065
19568.4068264
18469.2485581
18492.1473568
19567.9133703
19570.1343664
18474.7025137
19571.205575
19573.0125096
18499.1121972
18492.6829293
19572.6603771
19571.6950429
18492.7822301
19573.5252963
19573.6764981
18492.1804972
18490.5985889
19573.8588765
18475.9688487
19573.5754607
19571.0864521
19566.8196644
18411.5566354
18238.2290463
19566.7624946
18376.6623267
19571.3854568
19572.9856218
19573.9007064
18491.746906
18456.5960645
19573.7356792
19572.9745268
18457.703644
19570.0246432
19564.7787741
18199.6446384
18339.0959653
19565.3726954
19569.8219664
18338.3670324
19556.1614444
19560.9527713
17978.0551606
18116.8470872
19561.6065045
17985.9869606
19555.2530787
19550.3005859
19549.9802919
17900.3882564
17651.5553493
17889.1477407
19550.5069803
19549.2914838
19555.850336
19559.555658
18101.3272052
17955.6316087
19560.4638956
19556.0397741
17992.21196
19551.4107721
19555.3910061
17744.0923488
17939.2492803
19553.3804896
17918.6755006
19552.6105087
19550.3467649
19555.4004999
18633.6586568
18963.1408121
19550.8398429
18736.2432504
19557.1433217
19545.2729035
19539.8335848
18696.5416085
18342.2328442
19545.9299108
19540.2323637
18346.3789238
19550.4390538
19553.0751317
18930.481826
18617.2431565
19550.7554948
18743.382171
19556.2808404
19545.8204652
19544.5812713
18381.080362
18671.6500069
19541.8885414
19548.5526488
18391.6775305
19536.8470863
19534.7498404
18182.1438792
18453.6489604
19533.4012868
19539.0338819
18381.6423988
19535.7312011
19535.6522743
18323.5399412
18274.1698727
19535.2988668
19537.2870552
18229.091879
19539.1281736
19541.0017347
18487.9303119
18337.5868856
19541.1345835
19539.7089315
18421.7080082
19537.3673187
19540.6346101
18310.8788965
18427.3600123
19538.6627694
19540.4241157
18273.7416829
19540.8552509
19536.6890987
18319.9446977
18356.4606429
19538.5704988
19539.6264558
18353.1062438
19542.0714236
19542.473048
18367.2182418
18397.2853456
19540.8720384
19543.5376517
18358.2797018
19541.2443388
19541.3495004
18389.4307204
18396.865008
19540.3445634
19542.7486479
18382.2038904
19542.2688514
19545.5969684
18413.6957683
18434.6705105
19543.8252146
19544.6170183
18381.5324281
19545.8216949
19543.8282046
18404.0213081
18411.9682192
19545.424436
19544.8283457
18407.421713
19546.9640327
19547.9093606
18414.2532082
18438.2749503
19546.7952719
19548.3790057
18413.4689224
19546.3691155
19546.4680964
18433.628671
18448.3337402
19545.3359186
19547.6225038
18428.7643886
19547.340666
19549.6937842
18454.1184796
18474.7360038
19548.6709033
19548.7517739
18431.6100975
19550.962299
19549.1730849
18453.0651394
18449.7985156
19550.7005482
19549.7238462
18451.2233983
19552.3952026
19553.6502146
18462.3795107
18475.7023138
19552.1805869
19553.9968115
18461.9961291
19551.1577423
19550.649209
18465.8649782
18479.0219335
19549.975205
19551.9539685
18464.4701259
19552.4130129
19554.63227
18479.6262094
18491.952025
19553.8789697
19553.3880162
18468.2981488
19557.0440133
19555.289751
18482.725929
18476.3577725
19557.1969829
19555.590706
18477.580676
19558.5416644
19560.2441876
18473.7845224
18485.0628681
19558.8002759
19560.1104115
18484.0644575
19556.8061487
19555.9302116
18481.5485907
18496.1097483
19555.361338
19557.4332786
18480.1377333
19558.3014338
19560.4317544
18486.2561859
18494.4153719
19559.8948799
19558.9951228
18483.8952216
19563.2861267
19561.7533095
18479.2749991
18476.0071166
19563.4242892
19561.6750009
18476.7342713
19565.004676
19566.5328587
18471.231172
18491.4058494
19564.9986784
19566.6844478
18487.365791
19563.0816232
19561.9211522
18481.0520693
18502.239003
19561.4362491
19563.6491987
18481.2167059
19564.8047026
19567.0143564
18499.3712736
18501.6955249
19566.5829476
19565.3534322
18491.3074262
19570.0569728
19568.2065141
18497.0279863
18489.5722705
19569.9607786
19568.4147665
18494.0049424
19571.6555034
19572.8047586
18498.4416467
18534.5682593
19571.4435299
19573.3500963
18515.7932137
19569.9910208
19568.7084739
18500.2879798
18531.9818354
19568.3232932
19570.4424676
18506.0237186
19571.6271609
19573.6781862
18544.4378479
18536.4065931
19573.4283107
19572.0782669
18528.0274571
19572.2413462
19573.2004904
18451.1790235
18511.3892889
19572.1122925
19573.757095
18450.6689597
19568.7541949
19563.7981738
18330.5073899
18158.0604803
19568.9189574
19564.0265351
18303.1761434
19572.6630565
19574.3717803
18530.7637735
18513.6388396
19573.9409041
19573.4562701
18481.91075
19569.2759277
19565.4613344
18177.1930902
18393.6870121
19564.475863
19570.3861074
18334.7343225
19556.1405974
19558.6367136
17960.4559704
18082.6220028
19555.2565216
19559.6307012
17999.1263484
19552.9955752
19555.1575843
17956.2686377
17811.6733207
19552.8816372
17945.2137187
19555.0076759
19556.140132
19560.1650405
18089.2044651
17974.6716647
19559.9078018
19556.0385437
17996.7214872
19552.9381707
19555.5215181
17809.3943017
17962.8126948
19552.9617883
17942.0144159
19554.9700005
19551.0483896
19552.4059509
18599.7326021
18784.206022
19550.561518
18705.0459883
19554.2376623
19548.4554934
19546.3078979
18666.2918166
18465.403953
19549.3339166
19546.1823385
18477.3248307
19551.4781802
19553.3978686
18753.262381
18583.9452639
19550.9360355
18699.8376884
19554.110206
19548.6485458
19548.2982169
18476.7280659
18619.5580377
19547.1315974
19549.5967954
18499.7684059
19543.9469284
19543.2481702
18373.6304019
18527.6957063
19541.6224536
19545.2481323
18487.6797583
19543.1514255
19542.6899122
18454.0205228
18417.4907144
19542.3095973
19543.410591
18390.7737097
19545.382618
19546.7749953
18538.0763705
18456.9132468
19546.5961134
19545.8767155
18509.9820253
19544.2749737
19546.1041882
18437.3124096
18514.3895567
19544.4034882
19546.0913672
18419.5620465
19544.736121
19542.8349156
18419.397126
18468.1021195
19543.842131
19544.2738963
18454.0478953
19545.500488
19546.273186
18457.7888828
18465.12695
19545.5142021
19546.4855212
18438.9594924
19545.4916261
19546.0757161
18489.5500522
18460.890342
19545.1688388
19546.2575778
18480.931269
19545.8998991
19548.0162839
18485.3840132
18514.3757771
19546.7003043
19547.1735609
18463.5642507
19548.2808721
19546.7583272
18467.8997862
18504.9656407
19547.7154511
19547.5652729
18503.1843456
19549.0273108
19549.7616221
18497.6386424
18506.8276387