/*--------------------------------*- C++ -*----------------------------------*\
| =========                 |                                                 |
| \\      /  F ield         | OpenFOAM: The Open Source CFD Toolbox           |
|  \\    /   O peration     | Version:  v1906                                 |
|   \\  /    A nd           | Web:      www.OpenFOAM.com                      |
|    \\/     M anipulation  |                                                 |
\*---------------------------------------------------------------------------*/
FoamFile
{
    version     2.0;
    format      ascii;
    class       volScalarField;
    location    "9.2";
    object      p;
}
// * * * * * * * * * * * * * * * * * * * * * * * * * * * * * * * * * * * * * //

dimensions      [1 -1 -2 0 0 0 0];


internalField   nonuniform List<scalar> 
28582
(
17097.8463697
17097.0069738
12199.9945675
12199.3509069
7303.01852525
7302.61349322
3630.52972591
3631.07537356
46.975511397
49.5205264832
-27.1290774055
3631.26327774
651.368291142
654.058396483
3630.09826188
3631.75309062
654.380737436
1794.60487499
1796.17310633
17098.2579247
17096.4155869
17096.3181639
12199.7339744
12198.6858561
12198.3265976
7300.32966303
7300.96296836
3622.982912
3628.23246794
50.220951032
-27.2601895001
-27.1868895006
3625.89760716
3627.24426344
638.431171011
651.179184801
1792.75640946
3626.50269442
3630.12977473
3628.05443235
1793.18834495
651.160236135
1794.83776933
1792.63347025
48.0055245261
46.9413978567
-22.8682879082
-22.8191155169
48.7120157248
-22.8208409703
1797.32706479
1798.43604447
652.47249907
650.520747567
1797.62729803
651.495175519
1798.08537887
1798.79302336
1798.27216995
653.410138239
653.123613276
1798.75278626
652.411434761
1798.38414048
1797.27622635
1797.81621277
654.225515413
653.531676952
1798.39727664
653.508132905
1796.56264586
1793.42085401
652.17001491
652.075718005
1795.75140557
653.353638836
652.949286464
1794.84983246
1797.40131138
652.320517018
652.17877005
1796.94487452
652.335048862
1797.97412413
652.884405224
47.0753855777
-22.9282801264
43.7510597303
48.4032446945
-23.0933371942
-23.0227267961
47.8474437837
-22.8772622732
-22.8389256882
49.2096271666
-22.8794814105
51.4098651137
-22.844785995
1787.83060813
1784.31184708
642.990772469
638.420125052
1786.97544702
1785.11274768
642.920419201
1790.80763952
1792.59054828
647.618455949
650.949347835
1789.95669957
1793.40916584
647.461783251
647.296368111
650.348284792
1795.17935884
1791.73931014
650.68910988
1794.27499883
647.404894793
1791.90874414
651.100783633
651.163699161
1791.66531087
650.767098411
1790.64717095
650.62992053
1790.58317421
1789.05169651
650.794525801
650.595549281
1789.75667631
1789.70354716
650.435749526
1794.51260812
1796.31019168
651.402714773
651.551318222
650.814508836
1793.16008367
650.670743239
649.954342495
649.689286052
1790.84202999
1791.58509556
650.019847575
1790.23016183
650.065126107
7299.50195703
3625.65445069
52.8133535729
-27.1046101069
3629.3617685
652.24355593
3626.66875058
3626.0213089
651.687420588
649.722010239
652.442423707
3625.94527908
3626.11456555
653.613745007
656.771595868
48.8622854316
51.0861366058
52.8455803321
-22.8301330956
-22.8452169165
-22.8462179377
54.2777817907
55.6091869717
1796.78929347
1796.75288987
652.73407456
653.359795957
1795.85876018
654.012437882
1797.58209773
1788.96392205
1788.6197653
652.342461651
650.992427998
1788.53836395
1789.10186374
651.605272731
1789.20355203
1789.68057126
650.221468616
650.146457435
1789.44697813
650.805338109
1789.16930723
1789.37920375
1789.490415
653.031364531
651.236053115
1789.85686564
651.87786261
1789.10510891
1790.73752688
1789.97529428
654.141171641
654.609182885
1790.33550661
655.072789635
1790.44614424
1791.12984072
1791.38712958
656.996812423
655.649035741
1791.47923558
656.008909302
1790.9749696
3661.83707852
3657.61417387
3655.13694845
3649.47651329
13.2357393178
19.5963960286
13.8664907767
22.0450567176
23.6706320268
-27.0718669769
-27.1477826312
-27.0856802206
-27.1516511389
-27.0435933205
-27.0834903551
3662.05650551
3661.15600836
631.711223816
629.846284541
3664.03339085
631.657830121
3659.41220704
3657.6452526
629.23736159
628.259655086
3663.31948783
3659.3667738
3660.24945914
631.043714415
638.174504044
630.148012177
638.123579302
3658.67026947
3652.53036545
641.693463099
649.56987111
641.522527474
644.957292386
3657.84714449
3655.68344852
630.305635945
638.648732252
639.35712411
3648.01869952
3652.01507229
3644.49841511
641.909355409
643.130048948
641.462785687
637.497389569
640.455528427
636.233303795
12.6691002788
11.9841752986
13.532720859
-23.1797881056
-23.1474640288
-23.1811815561
-23.1588725027
-23.1339886609
-23.0927492715
-23.1549239659
-23.0975955285
11.5722103658
11.4728931821
15.7430751785
13.3139402628
16.1446235151
-23.1724498728
-23.1532273789
-23.1741511826
-23.1534410186
25.6862610618
20.308663175
26.5731182468
-23.1342069135
-23.0922244145
-23.1339425369
-23.0814572848
17.1214264812
18.7721044353
-23.1671647128
-23.134520567
-23.1200980637
27.1820409441
23.5065888881
27.4685673628
-23.0949969959
-23.0679621011
-23.093738465
-23.0671049716
1824.57849893
1826.8593742
630.120721125
631.148506876
1826.4683396
629.52353203
1824.9344672
1824.08082298
1825.20918144
630.444078839
628.238806277
1825.88298363
1823.48764448
628.839391659
1829.85056893
1827.01425953
632.293653396
633.67461303
1827.80771136
1828.95608776
634.327603932
1822.1843288
1824.45458822
627.667260387
628.774783609
1822.8265545
1823.73027733
627.206228847
1821.58461867
1822.49844596
628.455816157
626.627362638
1823.05843969
1821.06774312
626.868431332
1827.06414056
1826.180755
633.032723815
630.559178712
1827.96596208
1825.38210501
632.581535737
1828.79378075
1831.51593898
635.412528454
637.82762414
1829.82048995
1830.38652223
635.000045532
1826.2458939
1824.03355559
630.270498904
632.33099202
1824.63906582
1825.63615907
632.348484885
1827.8673789
1828.02208133
637.914938417
635.069289339
1829.18701623
1827.12881771
634.941231176
1830.86819077
1832.45779268
645.792085545
641.466083185
1832.21862488
1831.15478577
645.013068323
1828.42036735
1824.83092089
649.070470373
648.288274118
1830.27417755
648.157448895
1822.57234396
1829.1162497
1828.46288841
641.703000983
644.244202921
1829.73332771
1827.14267236
644.582007904
1825.98215398
1816.84354395
646.704417839
646.000552475
1823.3553236
647.058306565
1819.79648537
1824.48769258
1823.36683421
632.613677892
630.621591942
1824.91097964
1823.03179865
633.027098376
1825.65747268
1827.27073118
635.678297736
639.120988119
1826.20250927
1826.33310466
636.041282871
1824.8038539
1823.62081071
639.465603883
636.80480799
1825.04452304
1823.78121416
636.64889925
1822.7759795
1827.10611217
644.01033175
642.13140993
1825.00239928
1825.62749425
643.636985758
1817.58597776
1813.69271694
644.723880169
641.438389793
1820.51210132
643.592315183
1810.50306368
1820.39846683
1821.97954584
641.934029368
641.83331893
1823.80794881
1818.19741559
642.845885335
1814.78291086
1805.10342934
639.327399927
640.406554013
1812.33791017
641.979121496
1807.51514111
1815.00754185
1820.31741852
640.474892211
639.419001069
1816.38217039
1818.89395859
639.217854737
1803.7360741
638.921594939
1810.64721771
17096.7610929
17095.8772651
17095.6228463
17096.5679107
17097.1154851
17105.5728108
12198.7984556
12198.1384598
12197.774199
12198.2668675
12198.4864956
12206.9853221
18312.7191186
18316.1366324
17089.6571228
17095.1064125
17099.5155684
17102.3663509
17106.4348181
17091.2265074
18314.5014646
18316.7708255
17094.5050164
17096.1789746
17097.2410472
17096.9344801
17095.1024625
17103.9950211
17094.4421103
17093.3170393
17094.1464755
17095.4164342
17096.2754827
17096.1031641
17095.4522114
17106.1388848
17096.8940415
17095.2743034
17095.0961299
17095.5625989
17095.9426084
17095.8311427
17095.6229853
17106.2395944
17095.8132929
17095.9861077
17096.3411949
17105.8525554
13411.7655631
13415.4560857
12195.1076258
12198.474125
12201.6423958
12205.8065128
12234.3539004
12137.2598444
13415.4160417
13417.7299037
12199.3190623
12200.8551291
12200.1522085
12197.7387148
12191.9605696
12183.764348
12194.9280451
12195.6408177
12197.3622538
12198.3623484
12197.9253519
12196.5135689
12194.1994997
12202.0297534
12197.9975222
12197.2856071
12197.6611614
12197.9737891
12197.7696497
12196.9589924
12195.6515675
12204.9930051
12197.7050921
12197.4807237
12197.2578448
12206.5428871
8508.91588891
8515.35358998
7298.68151257
7301.83379898
7303.66064696
7305.33662527
7315.85215262
7229.53971389
8513.38995162
8518.80916476
7298.10833373
7300.94839222
7300.72128639
7295.24568922
7283.32581129
7270.24278503
7294.0559674
7297.23005246
7299.68325928
7300.83638229
7298.95084917
7295.28239992
7289.9633851
7300.01140616
7298.82630999
7297.90402467
7299.16534275
7299.83503817
7299.19087328
7297.82666695
7296.1222325
7293.32444964
7304.14385639
7301.11620496
7300.68008693
7299.17582951
7298.28817537
7297.56424383
7296.32080649
7307.23788115
7298.88522443
7298.1577824
7307.68525417
3605.1303301
3617.69625191
3626.95795471
3630.46165304
3632.28992486
3633.6484497
3632.47774933
3612.57412008
3612.09406806
3608.64577801
3619.6339154
3626.84198454
3630.27663014
3631.32918398
3627.86912718
3619.93946252
3606.49317406
3637.44824029
3618.50497327
3614.74501585
3622.56341809
3628.90066733
3630.9464066
3628.04597803
3623.78999501
3620.52675128
3620.91595955
3620.51451986
3619.94650819
3625.74155266
3628.68101346
3627.5979899
3624.07071448
3622.76443299
3623.14196611
3626.35861633
3628.08755028
3628.72512541
3626.13684104
3623.72185004
3623.94887907
3624.94254091
3628.60443099
3625.76536828
3626.58726591
3628.73623607
41.8114131701
48.0865230268
50.05124827
48.7564617817
49.9524260831
53.3171644376
57.5397813917
59.9610905406
31.9969023505
39.0532192487
42.6374506324
47.0749506682
49.6920164598
48.5199282264
49.358001108
54.0585925001
57.2597071954
59.0452828695
31.3041639301
37.8552772852
43.6526098489
49.3651809367
49.2716280073
48.5862894141
51.2701281127
54.874508495
56.4922853286
58.9083721265
36.1986960859
45.0257238653
51.3235087942
51.7149334242
52.4758453924
54.7397554614
56.7477056574
58.5902037509
58.9971722488
50.8898284037
52.2557510257
53.4717668225
55.1953283181
57.80748025
59.8196319886
59.8026866092
55.4920428841
57.607652362
60.0036074237
-27.486089082
-26.9727952988
-27.03086474
-27.0949431885
-27.0673422967
-27.1504902526
-27.1886657528
-27.0733442326
-27.2311888982
-27.8048554443
-27.8248985094
-27.9173275226
-27.799600758
-27.2983340757
-27.2778145427
-27.1853539711
-27.2795622464
-27.0997863743
-27.227123639
-27.6580336673
-27.7303228446
-27.0598160087
-27.2008109044
-27.0357246563
-27.1392552793
-27.110806464
-27.5061362817
-27.1082549062
-27.2437841484
-27.6250189235
-27.1951160975
-27.3685718954
-27.1651732978
-27.2744488859
-27.0716264502
-27.48666831
-27.15308127
-27.2656135119
-27.6371093516
-27.1651703532
-27.1773226714
-27.3699148793
-27.1185091935
-27.1246538869
-27.2273919823
-27.7016278818
-27.1116070589
-27.286632699
-27.8807343351
18314.5208146
18312.9383223
18314.7438666
15862.6741914
15864.6060643
15863.3155546
15864.8016248
18317.2500794
18316.5439372
18317.8418193
15866.3764924
15863.9698442
15866.1168309
15866.0582539
18315.318681
18316.6236705
18316.3592403
15864.9104767
15866.1747364
15866.8695122
15867.2182227
18317.9353935
18317.1096502
18318.3072801
15867.4108907
15867.9476769
15868.3623745
15869.738157
13413.7378886
13413.0147358
13414.3969518
10960.3203345
10962.8745738
10961.8563117
10964.0431143
13416.8440715
13415.6828782
13417.8184897
10965.0948891
10966.8477246
10965.9538946
10967.2429639
13416.5489214
13416.9068076
13417.6796041
10964.6598617
10966.5807622
10966.5010198
10967.407683
13418.845333
13418.8548284
13423.0170673
10968.1136109
10966.2519782
10968.5177909
10972.4479282
8512.24803093
8510.76661379
8513.76409772
6057.56960163
6061.83884845
6059.45077918
6063.05994503
8517.8789401
8516.70395815
8519.26139297
6066.2442566
6069.83754525
6067.12484882
6071.80208264
8516.28014975
8515.47603852
8517.14843152
6061.54035365
6065.14145464
6063.38522755
6066.37248058
8517.77178876
8519.08086722
8522.74087725
6068.9909309
6071.32169763
6069.74424622
6073.95461107
3602.07159388
3604.40775934
618.731804714
621.202892518
3610.97965957
3606.86133283
3612.16975379
621.774541808
636.62001316
624.062025456
637.394468839
3623.42564742
3618.46925577
3623.87481514
641.577698311
652.109881745
641.532660341
651.225162167
3629.03205384
3626.85196277
3628.58647857
652.862125992
652.49941387
652.357283384
652.337059884
3631.48743679
3630.04113396
3631.20350809
652.459713756
653.86943963
652.338008195
654.058412362
3633.35639795
3631.81071945
3632.20517043
655.054152755
657.515621361
655.326904552
657.749688416
3633.1753659
3631.40159072
3629.53612669
657.741667967
657.908812561
657.372374219
655.008769035
3624.87886842
3626.01996995
3616.21740208
658.588475061
658.396847157
654.789216175
653.43000719
3573.74838018
3598.02344745
3593.21280776
658.338403813
612.633148309
653.241642061
634.270755931
3640.91339222
3626.60172762
647.075831712
629.418553297
641.86930587
628.660814996
3607.27706562
3616.01700806
3611.28624827
625.405163946
622.410775812
625.865189783
627.281073503
3613.66443993
3611.45339112
3615.67633904
625.327475639
638.152742437
630.465740662
642.202105831
3624.30978076
3620.98587465
3625.36102292
642.175110742
651.113691478
645.831130107
651.718986952
3628.79050587
3628.62939097
3631.18292933
652.352038776
652.482326543
652.929135423
653.819622144
3631.24300194
3632.12898363
3631.74469232
652.434978663
654.005713945
653.674798014
654.345641428
3630.30863226
3630.40657613
3628.18312754
655.260081412
657.138289598
655.063975237
653.781480003
3624.35023426
3625.51370944
3622.58156927
656.433198372
653.750600973
652.838266239
651.744690096
3614.39875404
3619.51519678
3616.52098138
653.546827224
652.924707724
652.15774918
654.138422381
3620.01594584
3613.20988938
3629.23033428
653.154738317
637.635082825
655.469716759
642.556035252
3626.16472401
3634.63635598
3625.31746434
639.676521035
627.590887808
633.323461308
624.124365371
3614.58909256
3619.58268027
3616.68765921
625.325713683
628.610973214
623.363235075
632.696847973
3618.40386728
3617.66292646
3620.9128292
632.131489665
643.636103823
636.767532987
648.403441419
3626.22712708
3624.2493912
3626.93956788
647.019673464
652.087995538
650.982815644
654.288768208
3630.64917839
3628.92436646
3629.94146603
653.101667543
653.961064728
654.874049044
655.095211489
3629.87135763
3629.52127912
3627.72590298
654.063356905
654.308168472
654.77369534
652.373470736
3625.81894833
3625.65482232
3623.8590126
654.408156586
652.501597901
651.034605016
651.066080721
3621.98673336
3622.88203385
3622.18043585
651.959343993
652.023410324
652.096971153
654.773310774
3620.17534545
3621.96296383
3622.53481261
652.618479795
655.179476629
655.716153218
658.358263149
3633.56324559
3624.18408559
3635.09541027
656.653417863
642.86338286
659.85636893
643.459979191
632.450457115
623.812074937
3618.71860237
3620.02612636
623.262503763
633.364521424
633.694555652
3623.02290037
3621.64711458
3624.60816848
637.846570677
649.760313469
638.825941919
651.376758968
3627.5910109
3626.91808039
3628.11096934
652.075898278
655.093765969
653.731647888
656.165816138
3628.71429762
3628.25928626
3627.42210429
655.55686477
655.011468812
656.214761928
653.688538843
3625.71004884
3626.17365616
3624.35398301
654.356806395
651.665785528
652.389681391
650.936590253
3623.06082339
3622.95801748
3622.854819
650.351365475
651.666842071
651.056523051
654.214811632
3622.76475024
3623.21575255
3623.44669674
652.965405852
655.853030085
655.404129353
658.262016477
3624.15938924
3624.09688819
3625.3859394
656.777273091
659.285601527
659.112744676
661.098885572
3636.50154396
3627.75068098
3637.20174588
660.741003867
643.164379266
662.514078223
642.417777087
3628.97353686
3630.10480218
653.637761689
656.10566627
654.789181727
3627.53953741
3629.79785301
3628.59012077
656.109056756
653.404162052
655.013512946
652.397119491
3624.58033572
3627.0198678
3625.6521996
651.766541206
651.24562576
650.884186219
651.48719861
3623.72701641
3624.93719858
3624.87708864
652.099448945
654.7035591
652.181399964
654.686742058
3624.19088475
3625.03520854
3625.26245232
655.734890773
658.812276191
655.884356471
658.433628496
3626.28574447
3625.88245681
3626.93735363
659.536838638
661.425161341
659.051359418
661.481932311
3637.30365587
3628.89747129
3636.69336304
662.893968689
641.902660481
662.752343643
640.094275125
3625.53621022
654.254802665
3626.07877606
655.384106763
657.729776187
3627.31462989
658.405507329
661.155653326
3635.76540117
662.191741979
639.951737858
-23.0285095906
-22.9655101665
-23.0425844717
-23.0023988686
40.5356461037
40.9551719405
-22.8103344227
-22.799261942
-22.8679627336
-22.8499459598
45.301650467
42.1891348686
44.9172918532
-22.9300671689
-22.934814868
-22.9247220834
-22.8886262498
50.7553959884
47.0704757184
49.9419469012
-22.9841614503
-23.0370217974
-22.9735703285
-23.0443931949
49.0660193518
49.7879862839
48.9942008362
-23.0339212347
-22.9841180407
-23.0658876745
-23.0225766814
48.8882014052
48.8921907461
48.8850913361
-23.0086558508
-22.999225806
-23.0162882759
-22.9957169787
51.0705322245
49.9251609358
51.5905754557
-22.9645491866
-22.926589969
-22.9375539487
-22.8798440172
55.7558798028
53.8746559164
56.2428743919
-22.7705668084
-22.7407176388
-22.7300266878
-22.698477439
59.340594969
57.7209446266
59.8436036525
-22.7937664394
-22.8468310805
-22.7668000408
-22.8354451185
62.3395055517
59.1108964153
63.9811320397
-22.9488449823
-22.8878707798
-22.9515668287
-22.8590626818
35.9296581873
31.5585930688
35.1905831227
-23.0777763685
-23.0636713302
-23.0822932784
-23.099945732
41.0061609753
38.4136379743
40.8410607135
-23.0601334886
-23.0354735965
-23.1378321829
-23.139686648
44.9810389365
43.1426312988
45.8852634476
-22.9774769614
-22.9591088841
-23.0857722438
-23.0337272651
49.4121862834
48.3547268051
49.3185171259
-22.9991503479
-23.0728773257
-23.0176262292
-23.0854783107
48.8132069739
49.4188850444
48.362282695
-23.1062560817
-23.0573082785
-23.103700349
-23.0685988416
48.0895019801
47.8615796424
47.7885895165
-23.0541679757
-22.9941009163
-23.0827558989
-23.0163170924
51.6627867435
49.6217684895
52.0690379267
-22.9226029826
-22.8476910054
-22.8893122008
-22.8155744408
56.2387337027
54.2295963714
56.1135277714
-22.7050870958
-22.6811515197
-22.6990168183
-22.6930020015
59.2919240038
56.5995438006
58.1277038818
-22.7609030518
-22.8314938968
-22.7689322788
-22.824132846
64.0349522721
59.0527459023
63.7366905271
-22.9243551069
-22.8330529148
-22.9153987658
-22.8196956238
34.8189976374
30.9824030689
34.4256053332
-23.0785360135
-23.1311580601
-23.0750390543
-23.1542164071
40.7610580348
37.4535648166
41.1360469051
-23.0455129726
-23.0268328149
-23.0711421949
-23.0432950162
46.8821336164
44.4723523141
48.2152874051
-23.0708720641
-23.0105109259
-23.0918671321
-23.0431551916
49.6193591154
50.2428408228
50.6563059866
-23.0300206641
-23.0672125182
-23.0494385607
-23.0730754742
48.5354207735
50.2321576216
49.8564051447
-23.0758028237
-23.0516977673
-23.0616000295
-23.0289055401
49.3600275077
50.3965219741
51.5281284144
-23.0382256318
-22.9759767977
-22.9945840921
-22.926358573
53.3730816475
53.2978653879
54.8040007152
-22.8932634059
-22.8373262441
-22.8651300634
-22.822537991
56.2081830786
55.7420027691
56.8036203519
-22.719107671
-22.7165693149
-22.7256548957
-22.7205805815
57.8599684182
57.2777001005
58.540398527
-22.7770294333
-22.8187051536
-22.7714899609
-22.8039130281
62.9369936745
58.7197437729
61.9068864741
-22.9043508663
-22.8218596843
-22.900338327
-22.8197213989
40.7209026324
39.6486841605
-23.1069614516
-23.0592168219
-23.0714127545
49.4296659034
44.7758353559
49.4554481436
-23.0791675349
-23.0376741245
-23.0863970482
-23.0222451584
51.9274802251
51.8532581972
52.6975079776
-23.0441564638
-23.0497806121
-23.0322994283
-23.0232406008
51.7672163697
52.7723399898
52.7681395848
-23.0262273803
-22.9807842872
-22.9834379645
-22.9226839484
53.3368467691
53.4406443761
54.2669788392
-22.9416647655
-22.8637530549
-22.8932188041
-22.7866219364
56.0839551292
55.5544614882
56.752514189
-22.8181211599
-22.792823417
-22.8140519843
-22.8156695313
57.9307609252
57.5114053815
58.9814949498
-22.7203641948
-22.7251522903
-22.7281121943
-22.7434879465
59.2903437188
59.5956278747
59.8049494095
-22.7576839582
-22.7856247103
-22.762906837
-22.7872892295
61.3903700749
59.3890536608
61.4900866195
-22.881400176
-22.8093159072
-22.8840568094
-22.806279886
51.9918639256
49.9345365338
-23.0158596006
-23.0056519075
-22.9192792586
-22.9159125108
52.6545250541
50.6085543255
51.6986090068
-22.9646247235
-22.9035042367
-22.8843539907
-22.836020965
54.2295006503
52.57722359
53.4562064764
-22.8438323313
-22.8142076868
-22.8166574367
-22.8548301317
56.4168183542
54.5155260617
55.8003606865
-22.7872324357
-22.7765757965
-22.8092427741
-22.8034872257
59.3050413949
57.0254409094
58.3493475005
-22.7555565988
-22.75851685
-22.784491319
-22.7853780878
60.0738709943
59.0088320879
59.9905102345
-22.7769872075
-22.8043678081
-22.8102569469
-22.8328717904
61.8160130856
60.0710627833
62.3878530739
-22.8993662643
-22.8106185768
-22.9209214615
-22.8469333073
54.2395650227
-22.8320297115
56.6840158224
-22.8230023834
-22.8423282066
-22.8558742496
-22.8882199044
59.8427923133
-22.8680728902
-22.8748752758
-22.9097421657
-22.9063201212
62.9834734088
-22.9723673729
-22.8874577205
-22.9975650695
-22.9168469195
1758.39350055
1759.67620626
618.210729664
619.018932554
1760.07676328
618.524309867
1758.00519493
1759.31364933
1762.35690243
619.933198077
620.744752007
1761.15853086
1760.70610714
619.523838236
1765.49409749
1761.70412455
626.293857312
622.178566313
1762.01683211
626.671956932
1765.03121743
1769.95366522
1774.74076403
631.563123064
636.573952825
1774.94030467
631.707534267
1769.62380727
1766.70514939
1764.69789473
622.945417005
628.490538068
1763.19793597
1768.14910741
627.494646487
1770.95316915
1776.86565559
636.831295335
633.086114591
1775.63485565
1772.31726289
632.270254532
1784.70964574
1779.80933041
646.163754452
641.366944089
1779.92212995
645.817207483
1784.71876493
1788.53304745
1791.3405176
650.089822015
651.837628867
1791.32990122
649.770197493
1788.55686018
1784.91370739
1781.22428699
641.176438679
645.443639579
1780.34507645
1785.42177882
645.346157009
1788.62024178
1791.6296577
651.441399161
649.146893713
1791.39013508
1788.88932342
649.288292685
1794.69708168
1793.37014019
653.222464031
652.638039742
1793.29047196
653.062761148
1794.89307783
1795.36489313
1795.86682062
653.066287144
652.395480503
1795.60577871
652.912677113
1795.63179312
1794.63016528
1793.51709626
652.388693358
652.841023761
1793.31203892
1794.65335024
652.868759293
1795.23486862
1795.54440343
652.307615487
652.73988033
1795.45779379
1795.27695933
652.785999079
1796.59559259
1796.31965097
652.778375258
652.423836565
1796.07695329
652.818371333
1796.81674395
1797.07808433
1797.83974307
653.167860565
653.969795363
1797.63967734
653.217464
1797.31005281
1796.45674694
1795.98481386
652.337362686
652.754173017
1795.91247776
1796.58495402
652.749011035
1796.99029303
1797.94429954
654.00061899
653.243118247
1797.64159263
1797.23200767
653.185594928
1799.26137901
1798.64355263
656.225807474
655.237280462
1798.48703522
656.416944738
1799.35723149
1799.55950472
1799.54883801
656.97312973
657.759745281
1799.13286915
657.217078903
1799.80609724
1799.21726777
1798.74642811
655.350997601
656.451217544
1798.45065644
1799.28089429
656.513934123
1799.32612777
1797.81603462
657.927649927
657.416377098
1798.56307246
1799.07307661
657.475363612
1796.36361885
1798.54066609
657.739855993
657.943501575
1797.93737889
657.832522483
1797.2000404
1794.65369934
1795.13318487
657.646705564
657.304944557
1793.24185172
657.42792887
1795.94003035
1794.93429946
1795.68593063
657.884693579
656.596417983
1796.97453088
1793.13131619
657.432493244
1792.77566924
1788.37773522
656.233347136
655.492453165
1790.86572461
1790.57423892
656.624787053
1790.27743101
1794.65354273
659.099221186
657.46079152
1792.01223408
657.644072591
1793.71672484
1787.24999002
1786.19642532
659.036142279
656.219974673
1782.55652952
657.138431948
1791.07494955
1787.05022866
1786.60532682
656.102556771
654.630175437
1789.20806464
1784.50689733
656.020743376
1783.94333227
1778.0195616
654.297845257
654.222276643
1779.39600906
1781.7126928
655.369656596
1767.91120496
1778.76546218
660.148391967
655.908677646
1775.80499057
657.317428706
1769.36557752
1757.68842852
1762.46804536
663.6894651
621.844462356
659.31473037
1768.62509832
1757.20135916
1767.47964137
1773.42642915
653.859726601
655.807001308
1773.58820077
1768.8312464
655.825283393
1758.71438325
1783.70560559
629.96326156
661.153378357
1761.26383192
660.393237955
1777.03397075
1802.42627007
1815.67725278
641.744398062
645.602938354
1803.62715045
640.598879495
1813.56590705
1790.74010251
1779.0545874
634.885601978
629.631477646
1790.72482617
1779.96224583
634.546660172
1800.67150244
1808.26456728
643.846818893
637.614643071
1798.46132558
639.321723462
1811.04275968
1790.09848678
1779.69056538
629.37609778
632.571091986
1780.18835332
1788.66845774
633.860535363
1766.54275491
1770.36126665
623.105898794
625.857431375
1764.5908533
1771.81750405
623.960565089
1764.70471208
1763.62674654
621.645494089
624.01752879
1762.44557976
1765.62594396
623.004860915
1768.26489207
1773.30233874
625.959605405
624.838046375
1772.83551324
1769.86408627
624.57332041
1766.90818729
1770.28033893
625.602601558
624.983966828
1767.93808782
1769.06725877
624.112134557
1771.72625832
1766.49381534
629.577794746
626.90268518
1769.76637576
1768.30163324
630.788815483
1775.10520463
1777.88312591
633.972835378
639.246697903
1773.53525094
1779.15823222
635.19863942
1773.42111124
1772.24852806
628.811130771
634.239869916
1770.23151208
1774.84133021
632.588027078
1776.66375999
1781.95876572
640.852000127
638.363067382
1780.53260908
1778.3123166
636.846561404
1786.60458037
1782.05009483
645.744223728
643.132184734
1785.85099976
1783.02830638
646.508925047
1789.62404394
1791.55478221
649.085747666
651.313903824
1789.02607233
1792.11239067
649.400785123
1787.37775449
1785.28848468
644.663954472
648.527754079
1784.12545888
1788.32760238
647.582227397
1790.20164561
1793.28965631
651.438851018
650.384532016
1792.62356831
1790.98564467
649.791770695
1795.01628449
1793.3586702
652.888733563
652.60728946
1794.47390524
1793.92685652
653.14926308
1795.69099412
1795.6431345
652.840680199
652.805378198
1795.22474851
1796.12418965
653.044427047
1795.46736022
1794.9337187
652.684705234
653.519462927
1794.39768054
1795.94972551
653.21010323
1796.12079778
1797.05602356
653.308434781
653.643154292
1796.57397757
1796.53277781
653.26983083
1797.19157112
1796.06987073
652.751357907
652.74835438
1796.6717719
1796.57459605
652.905973407
1797.89333592
1798.26015364
653.141072339
653.983720277
1797.38200213
1798.63375171
653.148081146
1797.74461134
1797.88076158
653.364417632
653.683360825
1797.06571536
1798.22170022
653.386328632
1798.19038123
1797.86101811
654.140138552
653.82205717
1798.47232164
1798.20204604
653.533120987
1798.69375592
1798.86016273
656.419508583
655.236567173
1799.04844936
1798.97933164
656.245999347
1797.30655774
1796.52655971
657.236019216
656.37620954
1798.32288322
1794.95910004
656.75108913
1797.35965856
1797.10200056
655.206311339
655.053204787
1798.24675558
1795.57324312
655.763246846
1795.51738765
1790.71828999
655.064619229
654.527162918
1792.94680456
1793.35346808
655.669381594
1788.92474656
1793.99466729
655.517506283
655.243357947
1790.99103112
1792.04282199
654.238970239
1786.35094641
1786.00660377
654.322121058
652.696892839
1788.26353981
1784.38105935
653.18759426
1787.25948505
1788.16422254
653.960586798
652.303914264
1790.08334843
1785.87549565
653.137650361
1785.07244132
1783.43241907
651.955895384
651.877616608
1783.59092484
1784.27265809
652.332027737
1781.594673
1784.24330722
653.508194123
652.637336737
1782.30219461
1782.98193485
652.85818961
1779.95496137
1777.31189663
653.3858913
653.158885386
1779.91267429
1778.26661674
653.153111247
1781.85189136
1782.97540947
652.188715645
652.771374746
1782.64613509
1782.66065766
652.59041268
1780.79488548
1781.31601291
653.503895173
653.527804845
1779.68776203
1782.08453695
653.126401474
1774.13589482
1774.66350558
657.03498976
653.780596635
1771.69658622
1776.4967023
658.337221681
1768.34992469
1788.80336596
663.685097322
639.697636575
1765.78462713
665.351366942
1791.4775761
1776.57832351
1780.2920013
654.623506187
660.069392253
1778.52269229
1778.29013893
659.338688432
1771.10337491
1794.33340493
641.481891924
665.839308295
1772.39074139
665.833484096
1793.24563488
1792.9128275
1805.27247273
635.597736016
637.532418352
1795.84769214
633.365535714
1802.08383955
1784.65716046
1778.79780307
631.097845916
626.192385583
1786.85316459
1777.68142748
629.12946158
1790.49211444
1797.11750018
635.230332582
629.450295747
1788.73754625
631.218431555
1799.28545717
1782.94800016
1777.2117873
624.973074642
626.046915546
1777.1409507
1781.90093641
627.316496528
1772.66194697
1773.4349516
624.879373721
624.525548797
1771.2553499
1773.71376042
624.747722906
1773.0426556
1772.51494228
625.682522517
630.239668296
1771.09357409
1774.01368625
626.904734085
1774.02134587
1775.15186475
623.784925631
625.206982839
1774.4176586
1775.13541328
624.654032868
1774.80469478
1776.99497921
631.611455324
628.803170619
1775.71536999
1775.39354179
627.854945684
1778.36112875
1774.13097415
635.902309105
633.830146558
1776.58875693
1775.728675
637.484745118
1781.69141335
1783.4631945
639.966487395
645.164507437
1779.97776482
1785.1234016
641.551227466
1780.28120502
1779.27446675
635.40690803
640.619187748
1777.60109947
1782.0096253
639.209796066
1783.5013333
1788.16681511
646.839147293
644.916431479
1786.72512704
1785.15453947
643.360233318
1790.41751805
1786.5759999
649.364827767
648.339165989
1789.34052015
1787.95939043
650.338057948
1792.53043239
1793.84484726
650.932191017
652.679959256
1791.76406394
1794.3059325
651.630036357
1791.42830007