/*--------------------------------*- C++ -*----------------------------------*\
| =========                 |                                                 |
| \\      /  F ield         | OpenFOAM: The Open Source CFD Toolbox           |
|  \\    /   O peration     | Version:  v1906                                 |
|   \\  /    A nd           | Web:      www.OpenFOAM.com                      |
|    \\/     M anipulation  |                                                 |
\*---------------------------------------------------------------------------*/
FoamFile
{
    version     2.0;
    format      ascii;
    class       surfaceScalarField;
    location    "0.95";
    object      phi;
}
// * * * * * * * * * * * * * * * * * * * * * * * * * * * * * * * * * * * * * //

dimensions      [0 3 -1 0 0 0 0];
oriented        oriented;


internalField   nonuniform List<scalar> 
92311
(
0.200641071931
-0.000131924686594
0.000382079078632
-0.200640746536
-0.000250479787784
-0.000137371631282
0.200679610896
0.000344219102044
-0.000245441839474
0.200624730897
-0.000297698931655
0.000405387313718
-0.200617120414
-0.000247270152014
-0.000281866139691
0.200668325778
0.000346693422838
-0.000245971474672
0.200637246277
-0.000171574355603
-0.000166366167715
0.000411536805889
-0.200599318379
-0.00024307592025
-8.37802091422e-05
-8.24626351146e-05
-0.000135334141087
-0.000123758069825
-6.1262931703e-05
0.200643343576
0.000351393504615
-0.00025493503272
-6.43970682601e-05
0.0501659862547
-6.0185435513e-05
-3.68441993189e-05
-5.04157270782e-05
-8.65920846345e-05
9.07078594697e-05
-0.050150268682
-4.40573393024e-05
-0.0501716843465
0.0501652537525
-1.15541616883e-05
-3.80071973389e-05
-3.88253987922e-05
-5.95605031838e-05
8.01522591593e-05
-6.11930379995e-05
-2.40368920075e-05
0.0356129583793
0.000189927069919
7.77675128851e-05
4.10087451286e-06
-0.0039091666157
-0.0373803595444
0.00464868761599
0.000780065172714
0.0470369550523
0.00315672715199
-0.00793766181598
-0.0411125074529
-6.88843458374e-05
0.00017513878037
0.000179305051945
-0.000177134917665
-0.00125192427938
-0.00951787678025
0.00914987069505
0.00763658307067
0.0067565104907
-0.00162924400628
-0.00602095037279
-0.00709499869963
0.0079270656676
-4.67035971376e-05
-3.2054183852e-05
-7.10265914023e-05
-5.55554252417e-05
8.78176519098e-05
-5.46600621458e-05
2.39237054743e-05
0.0125014979007
-3.19539484414e-05
-7.17631092922e-07
-0.0125167979156
0.0125230375534
3.49252327008e-05
8.52442963216e-06
-0.0125040323051
-5.87299088584e-05
-3.98851655011e-06
-6.269220494e-05
-4.08212539056e-05
0.0501527326922
-1.5099699651e-05
-1.81211475181e-05
-4.29997169839e-05
6.84346396202e-05
-2.71245225245e-05
0.0501496922824
9.59584439932e-06
1.94224678168e-07
-1.90872162424e-05
-0.0501688964489
-6.83868145939e-05
0.000138881603034
-1.88414311329e-05
0.0124625647484
-5.41413942792e-05
-5.69299749296e-06
-1.74850401217e-05
0.0125343547708
3.1911630251e-05
-6.59771592087e-05
-0.0125236193467
0.0125328541836
-2.15076607561e-06
-5.33371201654e-05
-0.0125219605052
-0.000154281321335
0.200712551287
0.000648125838474
-0.000352739070014
-0.200853656743
0.200759057683
-0.000148720162251
0.000289476623888
-0.000220392085127
-0.000160614370392
0.200867797823
0.000236636017548
-0.000184904108213
-0.000217445266148
0.200751345245
0.000572755408087
-0.000379016970934
-0.200881931268
0.200754950301
-0.000305112902045
0.000292277510271
-0.00022279448209
-0.000336880190415
0.200873027507
0.000241402537256
-0.0001834669577
-0.00015499141403
-0.000167315668833
-4.49129219937e-05
0.000700808104194
0.20067374961
-0.00040625199101
-0.200793979174
-2.46424934522e-05
-0.00013121645921
-0.00014291084513
-7.89461190271e-05
-0.000123515138552
0.200745956925
0.000305354978662
-0.000236987363185
0.0501558742509
-2.6794059075e-05
-2.99559730911e-05
-5.44290245797e-05
-3.17183781687e-05
0.000166070214075
-0.0501808763833
-0.000153276307121
0.0501450300084
-6.9081472156e-05
-3.08103771663e-05
-2.21346840125e-05
-1.44603026514e-05
-5.3032652697e-05
6.59646701327e-05
0.00598571937199
-0.00446519646064
0.0490333005409
-0.000167144543253
0.000137901019578
0.000189923895122
-5.76002862609e-05
-0.00361953031253
-0.00960023499613
0.000103781894857
-0.00246706707032
0.00732574990995
0.00251433796944
-0.00314504953873
0.00701116075491
-0.011532209432
0.0017418843371
0.00357496088023
-0.00900855492298
-0.0030207159554
-0.00763262763329
0.0102852811771
-0.00779511476959
-0.000163837928654
-4.08727822303e-05
-3.29684779842e-05
-4.41828674371e-05
-6.55338241956e-05
0.0501509618654
0.000184899609738
-3.07806610188e-05
-2.46205296606e-05
-2.7437258948e-05
-5.17146362979e-05
0.0501638615249
-8.87080753276e-05
-0.0501494090345
0.000115428891697
-3.15295330286e-05
0.0124997700467
-3.49487220033e-05
-3.04929259255e-06
-0.0125459037917
2.18804295218e-05
7.1587177626e-06
-0.0125157652779
-3.62890575714e-05
-2.30977950005e-06
0.0125250889858
-8.73818775183e-05
0.012541627857
6.44259864143e-05
-1.87936404453e-05
-0.0125307090504
-7.70478113675e-05
-3.15105982516e-05
-3.1127887621e-05
-4.38738687463e-05
-6.27406520747e-05
0.0501721344078
7.6136817489e-05
0.0501352552305
-1.96257486963e-05
-3.74189478063e-05
-2.86427310082e-07
-2.21937600959e-06
-7.40222350073e-05
-3.6990990982e-05
-3.75887978015e-05
-2.77880211934e-05
-6.31823327406e-05
0.0501716405004
-7.1452914038e-05
-1.85539718052e-05
4.35233091813e-05
-6.47359282339e-05
0.0125433121628
1.86088892731e-05
1.25477022772e-05
-0.0125369446064
-3.4265291571e-05
0.012545228053
-5.41952312389e-06
5.38944959083e-07
-4.49269886462e-05
0.0125391603699
-0.0125232247865
-7.6224898428e-05
0.0125322871813
5.13064629667e-05
-2.14373746766e-05
0.0367223906233
0.000121410337372
0.000193117414253
-8.55952450365e-05
-0.00371660941583
0.00215766107025
0.000255783970339
-0.0077013419576
0.000157114626001
-8.38937041672e-05
0.00012018770125
-0.000176854268989
0.0485864093994
0.00499421981169
-0.0427386638105
-0.00256928360378
0.00656152201904
-0.00420659836678
0.00166931986807
-0.00310607226883
0.001959089101
-0.0017129734089
-0.00512017954172
0.00020104306216
0.000123619393379
-8.7007094018e-05
-0.00225378347157
0.00288563310172
-0.000167330982497
-0.00153574054958
0.000236989439159
-3.2721051628e-05
0.012528691235
1.59000064916e-05
-0.0125481383824
-0.0125511039176
-2.40670838198e-05
-7.84357934619e-06
0.0125550626144
-8.9175597148e-06
4.10939389069e-05
0.000124181342864
0.0125258281651
3.80270539726e-07
8.85136342098e-05
0.0124904663018
-0.012526404461
-6.70417489683e-06
-0.0125377939363
-7.9745161903e-06
0.0125207810299
-8.89523313102e-06
0.0125429519699
1.54267629947e-05
0.0125310646479
2.69278467679e-06
-1.38135974865e-05
-1.14944313808e-05
-3.49324045304e-05
-0.0125612202665
0.0125562243264
1.64098893385e-05
4.12530704811e-05
0.000104687495649
-2.84813224611e-06
0.000107711875986
-0.0124892647785
0.0125244008173
-8.58831588685e-06
0.0125459687776
-1.31162927041e-05
-9.99736771682e-06
1.71660156799e-05
-0.0125619526203
1.9140540095e-05
-8.84099393799e-06
0.0125553004436
-1.52070549091e-05
-4.19183233585e-05
0.0125257908198
1.56383249318e-05
6.97769649306e-05
9.66093630696e-05
0.0125037929252
-6.68556436841e-06
8.31251943636e-05
0.0125156913582
-5.03660450811e-06
-1.34694892094e-05
0.01252135491
-3.5343226513e-06
0.012540400551
1.36051729257e-05
1.84179485756e-05
-0.0125600538025
0.0125490063117
9.47556284014e-06
-5.36773287786e-05
-0.0125251628882
0.0125304722651
-1.85557211955e-06
-0.0124621664816
2.87386719479e-06
0.0125146879827
4.50037017937e-05
-1.39536683288e-05
-1.73628615428e-05
7.29523193182e-05
8.99042340412e-05
-4.79340988103e-06
3.25136057437e-07
1.31198557426e-05
3.55234133705e-05
-0.0125500236723
0.0125404371598
-1.84207344936e-05
5.73547933847e-05
-0.0124658163723
0.0125151852197
-0.01251832618
0.0125195959069
8.06233111415e-06
-4.26168826209e-05
5.59702092082e-05
-0.0125524198554
5.46009057725e-05
5.96578032377e-05
-0.01252026263
8.02996118671e-06
-0.0125421004868
-1.51749143868e-05
-0.012526166679
0.00791464788584
-0.00875215895741
8.71343794053e-05
3.74459545218e-05
0.000152581981471
-4.92603573539e-05
0.0389962630007
-0.0425199968558
0.00413330163644
0.000336396128152
0.00347949432008
0.000661327387572
-0.00615618712485
0.0449142414884
0.000357861410891
0.000131204549284
6.37682277695e-05
-2.48502542621e-05
-0.00755282330839
0.00923106568967
-0.0470051531827
0.00326641219143
8.57698249499e-05
0.000142182507481
-7.64854023041e-05
0.0403949911657
-0.0076286758415
-0.00101307561124
-0.00140886707075
-0.000586462695151
0.00347382723255
0.000504742923944
-0.000366024280837
-0.00264856032527
0.050192151694
0.000106030672299
-0.00012470500079
0.000164195862745
-4.74305205391e-05
0.00693278272034
-0.00369397484831
0.00759297646828
0.00176805197106
0.000514571431346
-0.00313558367919
0.00725936332633
-0.00824943085516
8.38250918311e-05
4.79426361388e-05
0.000157010007619
-7.48888954127e-05
0.0443952009909
0.00657590966453
-0.0012851675859
0.00735560800722
-0.000210991189108
0.00261566523213
0.000145669885911
0.000176526518324
-9.73768023487e-05
0.0443093625901
-0.00634495382305
0.000312689188505
-0.00148695284691
3.30803543327e-05
-0.0125410083208
-8.78924848209e-06
0.0125427243598
-5.28025086849e-05
0.0125265520081
-6.12999598148e-05
2.32850668991e-05
-0.0125500317064
6.24870883028e-05
3.56499703979e-05
0.012533814338
-1.0701932267e-06
4.96697353702e-05
0.0125206224902
-0.012535665134
-5.90159877562e-06
0.0125357358217
3.19893589614e-05
-0.0125343486783
-4.99812459034e-05
0.0125316103797
-8.7956482522e-06
2.34907731945e-05
0.0125246342749
7.43760532564e-06
-5.36327626706e-05
-0.0125461318447
-6.34133069729e-05
4.02975953915e-05
0.0125434257164
6.76075512292e-05
3.68565215092e-05
-5.83102763235e-07
8.49408018966e-05
-0.0125050760011
-5.09903811085e-06
0.0125311707074
3.65187840438e-05
-5.59698546207e-05
0.0125365511831
-5.44044100338e-06
0.0124980424027
3.29405031847e-05
5.1743361822e-06
-0.0125364643472
3.919725418e-05
-2.8825586205e-05
0.0125232631858
1.95625700496e-06
2.6051502748e-05
0.0125474288157
-1.73932550062e-05
0.0125225550108
1.11218788845e-06
-0.0125404431516
9.60221544232e-05
-0.0125095548074
0.0125323147783
0.0125367448183
-0.0125299985784
4.63646225462e-05
0.0125137063601
1.03915911762e-05
-6.14124931852e-05
0.0124734584368
-1.99037834193e-06
0.0125258478528
6.5582699405e-07
1.39298938821e-07
1.21663098204e-05
0.0125380409668
-2.14656170737e-05
7.7361532364e-05
5.52020891496e-05
0.0125337643568
-2.69561829839e-06
0.0125252915716
1.25579135132e-05
0.0125356727124
3.61588187243e-07
-6.25377093163e-06
0.0125176374457
1.84664020891e-05
-2.33148529642e-05
-0.0125478437452
-3.99364034205e-05
0.0125498228982
1.94210015307e-05
8.90911533005e-05
5.62424075356e-05
-2.74966613595e-06
9.66458744163e-05
-0.0125109750501
-7.29517493166e-07
0.0125573717633
1.66412092477e-05
-2.5294807647e-05
0.0125370516582
2.38789344806e-06
-0.0125118951476
-6.64591916451e-05
3.88185387995e-05
-2.10905483345e-05
4.88845749829e-05
-1.99161041294e-05
5.59424613838e-05
0.0125210796311
0.0124906001114
9.36568331276e-06
4.07654411188e-05
0.0125401579565
7.5096419376e-06
1.93774128498e-05
0.0125350451453
0.0125343794916
0.0125066540753
3.58672532341e-05
5.35513818574e-06
4.29173160284e-05
-2.46582831208e-05
0.0125326663678
3.59790216059e-06
1.47443794519e-05
0.0125437149699
-2.08539812081e-05
0.0125148856329
2.03467476861e-05
9.41477867843e-05
-0.0125182717642
0.012555876489
0.0125352493435
-0.000147381412442
-0.000140265941568
-0.00013912777974
0.000260639887707
0.200894421175
-0.000130766754761
-0.000188948672016
-8.22320046189e-05
-3.11533246049e-05
-4.24874524184e-05
-6.6733945342e-05
-4.10105668587e-05
8.12359107001e-05
0.0502072206752
-8.88384358748e-05
0.00759185033656
0.000590567188637
0.000178913970515
6.47445356894e-05
-1.04428775018e-05
-0.00679010163586
0.0427728939653
5.80724873018e-05
-0.00992545974698
-0.00282162484718
0.00799513493
-0.00858056543835
-0.000682342069572
-0.00328784179453
-1.73904779426e-05
-3.94309400802e-05
-3.03181869074e-05
-6.29866278454e-05
6.37700859861e-05
0.000164421095425
0.0501763298155
2.75677615551e-05
1.94598896518e-05
-2.89197166034e-05
0.0125042906301
0.0502273431899
-3.03954450129e-05
-5.93614856996e-05
-4.05213160351e-05
-8.59566149064e-05
-6.21246146878e-05
0.0502466331657
-5.02259910348e-05
-2.28722903756e-05
-7.12999394053e-05
-3.77567230959e-05
6.90944471852e-05
-4.55113335034e-05
-9.52307849457e-06
0.0125092902562
-3.49277930833e-05
-8.50058903963e-06
-5.82310411168e-05
4.78522119689e-05
-1.14038759629e-05
0.0125509193047
3.41433231672e-06
0.0125158977458
2.36979429615e-05
7.11612343951e-06
-5.51031734462e-05
-0.0124843171655
-7.5516120809e-06
0.050253533365
-7.04783919677e-06
-4.59888262567e-05
-2.8099096092e-05
-7.4795397205e-05
0.000121273348373
6.1104694853e-05
-3.3436022214e-05
-2.71104965847e-05
-1.1220411302e-05
-5.21968145365e-05
-2.90144726426e-05
0.0001042263792
4.57245459899e-05
0.0502467653569
-2.37749189077e-05
2.83066782358e-05
9.24132990523e-06
-3.35328284348e-05
0.0125144068637
-2.80908089677e-06
5.74094327521e-05
-1.43594400092e-05
-5.39878470949e-05
-0.0125008458391
0.0125159479729
-4.49783819098e-06
8.4138934942e-05
0.000192382321026
-9.68580196536e-06
-0.0070246058981
0.0358137145064
0.00606114809181
0.0397124695552
0.00782696381896
3.60073785097e-05
0.000179816044225
1.25708892378e-05
0.00416248990899
0.00270970648982
0.040961148521
0.000193216354071
-5.68191153238e-07
-4.23155514628e-06
-0.00508038652658
0.000957368673651
-0.000649070858943
0.000438478535335
0.00116595657709
0.00526872133666
-0.00065247410296
0.000529366535202
0.00608104326187
-0.00145575310779
0.0415000297615
5.32316765884e-05
0.000212478318021
-4.88962995964e-05
-0.00259484281922
0.00231207416122
-0.000444061076388
0.000190561180809
4.84521148566e-05
-5.62490109441e-05
-0.00151813006529
0.00346149579577
0.0413245538307
-0.00189269142055
-0.0125491932985
-1.68253542563e-05
-5.6239479704e-05
5.4246125817e-05
0.0125505974326
1.46672762823e-05
0.0125286967573
8.34229761799e-05
0.0124960082715
8.09834872518e-06
5.19218839538e-05
0.000120926096287
0.0125242265959
5.53942806927e-05
5.41575239908e-06
0.0125162001379
0.0125459600519
8.24886077475e-06
-0.0125522504414
-2.21183523665e-05
-2.62477279804e-05
0.012561200519
0.0125293796697
-5.22925315497e-05
2.09562639691e-05
0.000105065039302
5.18204676305e-05
-9.05852722209e-06
0.0125404059303
8.19216439251e-05
0.0125073573347
-2.05364497998e-06
2.33212993105e-05
0.0125526667609
-2.64795722246e-05
1.39512073557e-06
0.0125254485283
-0.0125520853009
-2.44263384599e-05
-4.11999377439e-05
0.0125611539371
6.02225985585e-06
0.0125441241814
-1.78678427704e-05
7.78884592939e-05
0.0125006047927
3.58997544649e-05
0.000130183496378
0.01256617818
-1.33872271844e-06
0.0125261458623
0.0125624006585
-1.52618442705e-05
0.0125475242919
-2.10502105946e-05
-3.92786761831e-05
2.37344935702e-05
-6.54435806941e-06
-0.0125737677529
0.0125745349247
-9.76459457144e-06
0.000121688522549
-0.0125220552525
0.0125457346342
-7.23411957993e-06
1.26946367361e-05
7.5933424215e-05
-7.22231803953e-06
0.0125685075419
2.2842458181e-05
-8.37950339773e-06
-1.24163992115e-05
-0.0125776749714
1.574739106e-05
-3.47312947058e-05
0.0125720475261
1.75454240608e-05
-7.95380579651e-06
0.0125519902194
-6.18570672675e-06
6.61509105102e-05
0.0124963024299
3.10409326836e-06
5.74149971474e-05
0.000121427923525
0.0125504606727
-1.92072253643e-06
2.08398267692e-05
0.0125171917919
3.51325925242e-06
0.0125690557932
-5.2067018971e-06
0.0125491253434
1.28515087155e-05
-3.23776504412e-05
1.52759013225e-05
-1.43121738962e-05
-0.0125774409498
0.0125690285242
-2.61110606349e-06
9.86093476343e-05
-0.0125122515168
3.31809724182e-07
0.012549989644
3.83256006784e-05
6.49790466154e-05
-4.87777112196e-06
1.46866836003e-05
0.0125664789915
3.6518920984e-08
-4.67907894537e-06
-0.000324958934793
-0.0496069878712
0.0495412648149
0.000348172603512
1.03091403177e-05
4.66498495349e-05
4.09252264111e-05
1.36524629516e-05
-6.90234536618e-05
-0.000337811350367
0.0498634417114
-1.10722340027e-05
7.58573983752e-06
5.40384976325e-06
-4.59207101092e-06
4.15681075908e-05
-0.0498360851788
0.000271568669744
-0.000535636311005
-0.0499807604828
0.0501767951532
0.000391942595688
-5.21924808993e-05
-4.65353639277e-05
-5.73969406932e-05
-5.32047206445e-05
0.000156988542733
-0.00029869708078
-5.0106163215e-05
-5.06594908747e-05
-5.88150604558e-05
-5.25267961563e-05
0.00015288195201
0.0501839855069
0.000234194365501
-0.0500602571876
-6.57937749438e-05
-0.00934758357979
-0.0383139816858
0.0397552147668
0.0170008820389
-0.00900035850419
-6.69155401383e-05
1.32606167138e-05
1.97223858471e-05
1.39482231121e-06
-0.0425293445927
0.0500746134004
0.0260616742356
-0.0164508553179
-3.06261874683e-05
-5.07431385843e-06
4.23581415565e-05
-0.0171662062781
-2.00291050554e-05
-0.0163072093613
0.0471085565603
-0.00294209230896
-1.61475541587e-05
-1.27411899697e-07
-2.0774724705e-06
-0.0446408926561
0.0168189776164
5.8174814346e-05
-0.0267914819839
-0.044865980723
0.0426659865787
0.0238745775913
0.00498870037372
4.05857813268e-06
-1.16823077401e-05
7.75963264676e-05
5.86468712664e-05
-0.0149319011155
1.58592622492e-05
-2.08017844212e-05
6.99576457341e-05
0.0306032816801
0.00441911785432
0.0202797554016
-0.040493956951
0.0096595378384
-0.0138378360884
0.00477683182485
0.00983560686903
0.0085123310188
0.0126302611396
0.00201538528635
-0.011607532148
-0.0226257024077
0.0203877815686
0.0231757705526
0.0166149642894
0.0185840578751
-0.0192568351945
-0.000413136908858
0.0011048189167
-0.0175235814199
0.00775178310362
0.012063359586
-0.00238803167659
0.000741218456527
0.000971313289886
-0.0243766706506
0.015573432889
0.010986087641
0.00203918932419
-0.000461189954928
-0.00916927495955
0.0020778388426
0.00131843732602
-0.00531731285465
-0.0127618584367
0.00223352537367
-0.00638386230608
-0.0106233278509
-0.00432422062155
-0.00559705952697
-0.0139531364501
-0.00930417892427
0.00301289915491
-0.0027387679984
0.000128908863711
2.31586396807e-05
4.40190744147e-05
2.14841593919e-05
3.99463429281e-05
0.0494326715619
-9.50143422722e-05
-1.87686335633e-05
-0.0495764315362
0.0495058623406
0.000201417834225
4.14464648869e-05
4.16260455609e-05
4.35545810321e-05
4.07249095234e-05
-0.000132035110781
-0.0496137115323
5.90519000607e-05
-5.22476344373e-05
-0.0123994601411
-1.79943499959e-06
0.0123868872517
7.57157525432e-06
0.0124052660423
4.927340597e-05
3.49488601781e-05
-4.2370613659e-05
-3.40103495559e-05
-0.0124131298063
4.63596119901e-05
4.6519355499e-05
4.43661004074e-05
4.60597977014e-05
-0.000191904793582
0.0123557079265
0.0123339039485
0.0123138721112
0.0123528151809
-0.000166825333186
6.01688512298e-05
1.34360794495e-05
-3.94227078232e-05
-4.25067375224e-05
0.0124135969897
0.000222385404414
2.37242195134e-05
4.84228307021e-05
4.35447345639e-05
2.21448483101e-05
-8.13762308811e-05
-0.0496844313694
0.0497160320348
3.43390208089e-05
2.7431888218e-05
3.50157781587e-05
2.79991950287e-05
-0.000120166137287
-0.0497424833081
0.00024421431626
0.0124168906297
8.38576389395e-05
-7.13779087974e-05
-0.0124241364787
4.40403560015e-05
0.0124507885344
2.3776617619e-05
-2.22019090293e-05
-6.47985699698e-05
-0.0124539791864
6.64232171533e-05
0.000495329058718
1.79551439008e-05
4.04438651665e-05
3.77888000532e-05
1.42113280848e-05
0.0495924220455
-0.0001371598181
-0.000121341926915
-0.000140692757486
-0.000116156786423
-3.97453951222e-05
-3.78720214624e-05
-3.44256671169e-05
-2.95015168415e-05
0.0497226509975
2.01526550685e-05
2.1824191059e-05
2.56200648444e-05
1.89833019057e-05
-8.28354656787e-05
0.0498351117223
0.000438646915805
1.1581714594e-05
-1.92827938227e-06
-4.75080457082e-06
5.77007797461e-06
-6.6417469792e-05
-6.98211775558e-05
0.0124229568748
5.80916571418e-05
0.0124394299027
3.92772679854e-05
-4.69351020904e-05
-0.0124322030828
9.84552907443e-05
-9.80119802479e-05
7.55918886733e-05
-5.50115893283e-07
-1.38585625204e-05
-6.93171108796e-05
0.0124589051338
0.0124814491996
0.000104469852338
-4.1123994531e-05
3.05920857782e-05
-0.000102909943336
-0.0124724493624
0.0501282415968
-8.16006351717e-06
-4.38946959204e-06
-1.64777627031e-06
-8.48828160649e-06
-0.000702901058408
-0.00010309442217
0.000618131655609
-1.76707220834e-05
-1.69756643342e-05
-4.22717191561e-06
-3.91590203198e-05
0.0506378997686
-0.000149364668598
-0.000900311160085
-4.31039205977e-05
0.0124704353233
0.000124776854701
-0.000111304758836
-0.000125289657588
6.57533456281e-06
-0.0124655822505
0.000198127464192
0.0125469689371
-0.000160646405818
0.000119796585546
-7.73131030423e-05
4.03515652461e-05
-0.000111818257669
0.0125104690373
0.000123601985239
-0.000159507809486
7.89611158376e-05
-9.65432738862e-05
-0.012472058106
0.0125257196447
0.000330693135083
-2.90067070353e-05
-2.36961024658e-05
-9.71825963026e-06
-3.80096621535e-05
9.10332733095e-05
0.0500167097894
1.41557960155e-06
-1.49610313237e-05
-1.00923886318e-05
-6.73429425991e-06
-2.71761291291e-05
-0.0499036247957
0.000275170200891
-2.21447926514e-05
0.0124722709254
6.90732271314e-05
-0.0124637143272
0.0124983562074
-2.82287117928e-05
1.82460286514e-05
-0.012485958855
0.000102064247344
0.0125054937083
-4.49245733649e-05
4.39347305592e-05
-6.47388001314e-05
-0.0125036359467
6.39043838646e-05
0.000409156271038
-6.22931347294e-05
-6.14403004741e-05
-5.60999432863e-05
-6.77714090276e-05
0.0504575994187
0.000175714792942
0.0501682301536
-1.95935877044e-05
-1.93740270004e-05
-1.19079395042e-05
-1.84035689896e-05
1.09223363269e-05
-2.33778698253e-05
-1.41840422563e-05
-1.02514741237e-05
-2.46227422306e-05
0.0503360704632
0.000311230848798
2.44392959606e-06
4.11587412201e-05
0.0125211884851
0.000113945986461
-0.000124468945994
7.26677655999e-05
-0.012481316167
0.000129417969691
0.0125274502431
7.2235684308e-05
-7.72251735808e-05
5.10951798792e-05
-6.38595147031e-05
0.0125232901417
6.92625117301e-05
-9.6896412364e-05
4.39999529505e-05
-5.73458437427e-05
-0.0124667929797
0.0125078304161
5.46832805835e-05
0.0125299417865
6.18811846928e-05
-0.0125158121011
3.59719960805e-05
-0.0124730958409
0.0125079804867
-4.8756623644e-05
4.72117483093e-05
-6.20364148976e-05
-5.87357600854e-05
8.86689894841e-07
-2.33981255682e-06
0.0316848952284
0.00454687085398
-0.0337634747295
-0.00228740980559
0.0340663047102
0.00587987208988
-3.89694821463e-05
-4.20559173286e-05
-2.36293157994e-05
-0.0338622048419
-0.00600747118862
-0.00915600139538
-1.97498146441e-05
-1.82245505382e-05
-9.66578329109e-06
-0.00210516043993
0.036038824273
0.000985293832573
0.00129466155198
0.0059590064984
-0.000394993244392
-0.00307372404146
0.000180737642073
0.000982961940668
0.00952284945482
0.000130986150976
0.000752761983555
0.00104977362585
-0.00116605368
0.00074367191717
1.81617180365e-05
0.0127935270589
0.000699090903336
-0.000594317686325
0.0211718491013
9.2628926031e-05
-0.00115582417615
0.00151400860824
0.0228118812933
0.000706193067769
0.00108329498841
-0.000553826497663
0.0162317096374
-0.00057634883033
0.00184481653589
0.0172411742837
0.0114107765047
-9.09604239381e-05
-6.63057302686e-06
-1.10571031804e-05
-0.00630125948992
-0.0373515018241
0.0428644347291
-3.21590956622e-05
-3.3243943343e-05
-1.85295678323e-05
-0.0408036657292
-0.00248030322759
0.0119367147341
0.024220299942
-0.0128432252379
-4.22081956011e-05
1.50317377698e-05
1.89892342914e-05
-0.0141109248482
0.0433459142862
0.000220702945021
-2.34111415107e-05
1.54010795195e-05
-4.79448904556e-06
-0.000525768153444
0.0447206019583
0.0232803960891
2.66081717564e-05
9.6805825156e-06
1.31320897692e-05
0.000796622343567
0.0014098963345
-0.00243381503424
-0.000840916094845
0.000869258155194
0.00407504142886
0.00175687822659
-0.00660073036216
0.00379867677869
-0.000353129770886
0.026820715009
-0.0110656687226
-9.6848423021e-05
2.23379791033e-05
0.000128589220169
0.0538307080585
-0.0196884265823
0.0460464170845
-0.00223770163231
9.34332029168e-06
1.65764905018e-05
7.78707596896e-05
0.000502757886104
0.0248924147899
3.31978101382e-05
-4.55087023932e-05
0.00015720200877
0.0471686344025
0.00144748935542
-0.00200890447828
-0.00162244441982
0.00241739249185
0.00448477286936
-0.00289261127993
-0.00412192815097
0.00702678110837
0.0235277150758
0.00195380647692
-1.07061975447e-05
1.27326785291e-05
9.70362040187e-06
0.0141885385191
0.042286647987
2.33749667762e-05
2.35124710284e-05
5.44861344909e-06
-0.0480934657303
0.0150483143545
0.00498972571679
-0.00624897864319
0.00137948104604
-0.00169867901911
0.00296621923427
0.0069462361291
-0.00704200430587
-0.000180130595501
0.019134937818
0.00713743405095
-4.03494226378e-05
8.97415193313e-06
0.000132297054797
0.0410609134478
0.0346967064085
0.016363651385
7.35510730765e-07
1.83752238534e-05
6.95826956441e-05
0.00971441851673
2.8475041967e-05
-4.40278436213e-05
0.000104569047311
0.0348766988522
0.00905531348502
0.00429547889904
-0.00355725304958
-0.00428387307552
0.00600369015789
0.0075552033231
-0.00175265849469
0.00618086966402
-0.00249747472661
0.0123793836221
1.63836708736e-05
-1.32360615251e-05
3.09832675239e-05
-0.0123903592046
1.3107564931e-05
-0.0123794890172
0.0123647532197
-6.62149939256e-06
-4.96267732888e-06
-4.94784476852e-05
9.16740786458e-06
-0.0124129733039
-8.73427005347e-06
-0.0124009839162
1.83109062718e-05
0.0123904430874
3.75551221021e-05
0.0123676417719
9.84851390961e-06
-0.0124018117069
-8.95118395478e-06
-0.0123933173986
0.0123867224421
4.39685308007e-05
4.15331160441e-05
-0.0123998017746
-5.14598519189e-05
-0.0123942686642
0.0123835912608
6.13853265516e-05
-4.33595773819e-05
-0.0124090014144
0.0123976175454
-4.53512629613e-05
-2.97728210334e-05
4.05996754762e-05
-0.0124207145917
0.0123729857127
5.27227546152e-05
-0.0124076509701
-0.012411075015
-0.0123648798959
7.24564830348e-05
3.58521492087e-05
-5.06716668864e-05
0.0123535998577
-6.01417949736e-05
0.0123764805802
7.43347836444e-05
-3.59567224749e-05
0.0123970121519
-2.57481760195e-05
-3.66750800658e-05
-5.4591765181e-05
7.34581428627e-05
0.0124131048601
-4.36553891644e-05
8.81154102018e-05
0.0123701558049
-3.23849611304e-05
0.0124009115518
-3.81899442337e-05
0.0124121891911
2.80357401108e-05
4.2513030862e-05
-0.0124208252453
-0.0124055972991
4.71794534289e-05
0.0123968368804
-7.03216863289e-05
3.20812441301e-05
-0.0124363460845
-1.83569874919e-05
-0.012433359235
6.09721107375e-05
0.0124280641897
-0.01241785483
5.51408040682e-05
0.0124080083381
4.69329461418e-05
-0.0124313250934
0.0124229906394
4.82503224806e-05
3.50483093812e-05
-0.0124294434338
-5.86723116206e-05
-0.0124338148691
0.012431174641
6.65479130502e-05
-3.44296673584e-05
-0.012447672941
0.0124460078807
-2.76020648523e-05
-5.99904838998e-05
-0.0124588307644
5.91084125201e-05
0.0124200230839
-0.0124407598259
5.55920049556e-05
-0.0124443041372
-7.1182948769e-05
-0.0124055996475
6.09004100908e-06
0.0124035367303
7.74120699369e-05
0.0123889946138
5.89935061611e-05
-6.17382569954e-05
6.56985589383e-05
0.0124255216016
-1.04992569358e-05
0.0124377806658
7.21073286593e-05
0.0123850919275
6.45304325818e-05
0.0124456774428
8.35402967674e-05
-8.98245618901e-05
0.0124115243771
7.21574258862e-06
9.25273473909e-05
-0.0123917394212
0.000105446329746
0.0124017558315
-0.000121947048613
-4.54334713078e-05
8.26652565227e-05
-8.61404370022e-05
-1.67237465943e-06
-0.0124558709231
0.000109358136664
0.0124616173702
-0.000104115352781
0.000109015990638
0.0124205010454
9.87306603326e-05
-0.0124169241539
8.26836064321e-05
1.27846755141e-05
0.0124189829083
-6.90215343133e-05
0.0124284514102
7.97027087672e-05
-2.41934529683e-05
0.0124494957962
-4.51747962756e-06
-8.15878316541e-05
0.0124727819431
8.75608277711e-05
0.0124326207014
9.29693021225e-05
0.0124593825141
0.0124287037768
9.62920770678e-05
-1.93800801336e-06
-0.000110600240403
-0.0124422835184
0.0124615549246
0.000119990247543
2.59615708796e-05
-0.0124703359203
0.0124773722833
1.44727465055e-05
-9.88535532931e-05
9.431092192e-05
0.012448365633
0.000106887553334
-0.000147499210824
-0.0124487008387
-2.24779408493e-06
0.0124843627585
0.000150838045448
-3.68119552986e-05
0.012430512869
0.00013071502236
-5.92257580427e-05
-0.000143338899815
-3.93725414582e-05
0.000118071021884
0.0124904533704
-0.000129378590115
-2.89922163071e-06
0.0124599318072
0.000124253287196
0.0124700432462
-5.63189840773e-05
-0.000170066345241
0.000129414798484
-2.97895803952e-05
0.0124827424103
0.000135537211744
-0.000163292186329
-3.10290880714e-05
0.0125591231877
0.000169195013151
-4.97864352653e-05
-0.0125487116738
0.000177561808248
0.0126485076195
-0.000199871554241
-7.08951153938e-05
-3.93707526619e-05
0.00011615929193
-0.000148813980772
-0.012554945873
4.15724818854e-05
0.000149650869346
0.0125840025003
-0.000186478874054
-9.47916555216e-05
0.000141727914317
0.000179871096864
0.0126388917267
-4.05041720938e-05
-0.0124768716691
0.000143168983701
-3.83192391526e-05
0.0125146073812
-0.000123400894859
0.0124884286245
0.000132466568534
2.41804924839e-05
0.0124748579014
4.0400506131e-05
-0.00015306802956
0.012513306552
0.000126392010522
0.0125178403574
0.00014567381835
0.0124968532842
0.000149867660716
-5.7295253957e-05
0.0125734135817
-0.0125555358575
-0.000150498058542
0.000155096482789
0.0126129284812
-0.0125700212026
7.43132366627e-05
0.0125818134144
4.08913170334e-05
-0.000168782679709
0.000123769955436
0.000148876973329
0.01263786992
-7.57528283442e-05
-0.0124556180007
-1.99688843637e-06
0.0124605095719
6.17914266787e-05
0.0124446144697
6.64747663948e-05
-0.0124459209154
-1.63975265435e-05
7.75325444047e-05
0.012482446545
-7.88838052046e-07
0.0124799072548
-0.0124693832087
5.9121938752e-05
0.0124508523279
-0.0124533315061
5.88567587587e-05
0.0124905908178
6.27024175113e-05
-8.41525042134e-05
0.0124671833439
-1.84149301236e-05
6.69029661296e-05
-0.0124571498295
9.43684274944e-05
0.0124773128547
-6.71815434369e-06
8.6735399685e-05
3.41866859787e-05
-0.0125016986687
7.48315478787e-05
0.0125074015671
7.24038648038e-05
0.0124853472601
6.68535227719e-05
0.0124714335414
6.53713379949e-05
-3.60067340272e-06
-0.0124648905444
-7.09955544742e-05
-0.0124788959341
0.0124968440086
8.20132297849e-05
2.779264597e-05
-0.0125040654467
0.0125095694691
2.97711296644e-05
-6.24116072862e-05