time,root_dist,x,y,z,rel_vel_mag,Re,alpha_deg,alpha_geom_deg,cl,cd,fx,fy,fz,end_effect_factor,c_ref_t,c_ref_n,f_ref_t,f_ref_n
0.00625,0.766685414323,5,-5.4841932227,1.4692838675,2.65305208708,130385.038468,11.5750925506,11.5750925506,0.839295493025,0.0324719143998,3.6681410077,1.00529091828,-0.0338609757711,0.560630659112,0.222120276927,0.810020945665,0.0404538740292,0.14752586189
0.0135416666667,0.766685414323,5,-5.46577588606,1.46830109174,2.65284921783,130375.068398,11.5425580911,11.5750925506,1.28656477959,0.0321504739397,5.59892732613,1.61027827607,-0.117681440778,0.858590486156,0.356594000197,1.23657725358,0.0649351013771,0.225178408155
0.02265625,0.766685414323,5,-5.442831792,1.46605686187,2.65279835289,130372.568625,11.4838034626,11.5750925506,1.28906251797,0.0315978362551,5.61040353921,1.6025375513,-0.196573009777,0.858895333228,0.356602301004,1.23915914935,0.0649341228118,0.225639913597
0.036328125,0.766685414323,5,-5.4086912335,1.46058648662,2.65280794097,130373.039834,11.4177500872,11.5750925506,1.29156027442,0.0310588407113,5.62236818489,1.58299494588,-0.313820140375,0.859303989539,0.356434482253,1.24179187222,0.0649040336689,0.226120943672
0.05,0.766685414323,5,-5.37504578234,1.45261865404,2.65297855621,130381.424771,11.3183960229,11.5750925506,1.29559389661,0.0302481115472,5.64222101006,1.55501897908,-0.429293353797,0.860100070988,0.356253745561,1.24601836341,0.0648794675149,0.226919741726
0.0666666666667,0.766685414323,5,-5.3349645337,1.43959128445,2.65304187783,130384.536731,11.2451395084,11.5750925506,1.29906911325,0.0296581151749,5.65876936945,1.5103244464,-0.567020111842,0.86104025142,0.356252702166,1.24961761231,0.0648823746263,0.227586085855
0.0833333333333,0.766685414323,5,-5.29621285158,1.42302245879,2.65293651859,130379.358819,11.1703529306,11.5750925506,1.3020066954,0.0291675152245,5.67247981543,1.45207368687,-0.699523038997,0.861927730981,0.355956095731,1.25274396296,0.0648232063976,0.228137350218
0.1,0.766685414323,5,-5.25910292912,1.40304565962,2.65291726298,130378.412497,11.1176710771,11.5750925506,1.30450538479,0.0288219222657,5.68423131641,1.383141697,-0.826692399407,0.862835587838,0.35586882096,1.25535747276,0.0648063720103,0.228609978156
0.116666666667,0.766685414323,5,-5.22393373301,1.37982182498,2.65273113706,130369.265283,11.0806324722,11.5750925506,1.30626709479,0.028578949018,5.69177928008,1.30303238919,-0.947084300582,0.863476218313,0.35580622346,1.25720022693,0.0647858809605,0.228913433423
0.133333333333,0.766685414323,5,-5.190988595,1.35353805181,2.65316929724,130390.798796,11.0635975886,11.5750925506,1.30731426965,0.0284672001815,5.69853016885,1.21340008144,-1.06057738927,0.863927167304,0.355846106248,1.25827442547,0.0648145488488,0.229184717165
0.15,0.766685414323,5,-5.16053292926,1.32440608869,2.65462788685,130462.481619,11.0486304995,11.5750925506,1.30794909544,0.0283690160766,5.70785589164,1.11448861811,-1.16623022733,0.86413471967,0.355797138934,1.25894560377,0.0648769036953,0.229559160982
0.166666666667,0.766685414323,5,-5.13281209417,1.29266062993,2.65532115764,130496.552619,11.0453625604,11.5750925506,1.30829527899,0.0283475783961,5.71239086212,1.00609248826,-1.26229822554,0.864317156351,0.35584716341,1.259290641,0.0649199203939,0.229742025715
0.183333333333,0.766685414323,5,-5.10804941562,1.25855742477,2.6550684276,130484.132125,11.0544431362,11.5750925506,1.30816093701,0.0284071469733,5.71054936977,0.888943906718,-1.34756170328,0.864356999601,0.355950438245,1.25912322218,0.0649264006251,0.229667757013
0.2,0.766685414323,5,-5.08644438788,1.22237121708,2.65558993549,130509.761787,11.0572283276,11.5750925506,1.30793369731,0.028425417829,5.71172591743,0.764780153059,-1.42230243863,0.864246296338,0.355927614581,1.25889399638,0.064947744047,0.229716160561
0.216666666667,0.766685414323,5,-5.0681710664,1.18439353189,2.65627463215,130543.411409,11.0640928608,11.5750925506,1.30773519495,0.0284704491667,5.71368063573,0.634583074331,-1.48612225962,0.864212346859,0.355977217816,1.25867475028,0.0649902956052,0.229794604815
0.233333333333,0.766685414323,5,-5.05337666556,1.14493032682,2.65669593152,130564.116293,11.0634069262,11.5750925506,1.30762329521,0.0284659494356,5.71502122961,0.498869233101,-1.53733621684,0.864128683954,0.355933663356,1.2585707051,0.0650029586537,0.229848502486
0.25,0.766685414323,5,-5.04218037272,1.10429952721,2.65765757317,130611.376459,11.0598842158,11.5750925506,1.30771143849,0.0284428404558,5.71959540617,0.359241914778,-1.57688154427,0.864137043231,0.35590419914,1.25867009282,0.0650446404401,0.230033092664
0.266666666667,0.766685414323,5,-5.03467238798,1.06282846482,2.65930040569,130692.113955,11.0390641408,11.5750925506,1.3082226179,0.0283062607633,5.729303606,0.21656182916,-1.60392584972,0.864179975852,0.355726977939,1.25924818029,0.0650926512597,0.230423351987
0.283333333333,0.766685414323,5,-5.03091319752,1.02085124078,2.66008766043,130730.803825,11.0129713038,11.5750925506,1.30916624317,0.0281350917533,5.73732271986,0.0718871678958,-1.61723333784,0.86443380079,0.355592872114,1.26026249049,0.0651066429316,0.230745513769
0.3,0.766685414323,5,-5.03093308632,0.978706033996,2.6612225196,130786.576818,10.9853322617,11.5750925506,1.31006855237,0.0279784214371,5.74668752558,-0.0734354256197,-1.6176473863,0.86475210724,0.355397958319,1.2612512419,0.0651264891386,0.231123627427
0.325,0.766685414323,5,-5.03804001302,0.915915679619,2.66299283137,130873.57932,10.9755002357,11.5750925506,1.30917653693,0.0279304411504,5.75059441369,-0.290008307712,-1.59330816312,0.864100495139,0.354967353699,1.26044495802,0.0651341524084,0.2312832804
0.35,0.766685414323,5,-5.05351365294,0.854648204741,2.66372908626,130909.762786,10.8765634477,11.5750925506,1.31031648366,0.0274476296245,5.76082791376,-0.499635035682,-1.5347606925,0.864220826209,0.353582865565,1.26200705898,0.0649159886365,0.231697980525
0.375,0.766685414323,5,-5.07707375774,0.796013245273,2.66391579288,130918.938539,10.7670122781,11.5750925506,1.31321691324,0.0269130199169,5.77664461882,-0.699166263909,-1.44958314136,0.865433454649,0.352516681303,1.26530429591,0.0647293157961,0.232335902646
0.4,0.766685414323,5,-5.10829362242,0.741072758751,2.66364331027,130905.547299,10.6610664613,11.5750925506,1.31567186775,0.0264884952115,5.78860989881,-0.88419595869,-1.33761590469,0.866779911158,0.351285989517,1.2681846307,0.0644901404967,0.232817155964
0.425,0.766685414323,5,-5.14660781348,0.690821790865,2.66244707585,130846.758001,10.574829774,11.5750925506,1.31789352243,0.0261573463322,5.7951163567,-1.05197097575,-1.20240790682,0.868085741662,0.350327096272,1.27074720887,0.0642563504052,0.23307811128
0.45,0.766685414323,5,-5.19132240967,0.646170453851,2.66174791018,130812.397295,10.5026265885,11.5750925506,1.31971201616,0.0258800861,5.80174732711,-1.20046330028,-1.04727296757,0.869151291785,0.349507116627,1.27285284298,0.0640722868846,0.233341722206
0.475,0.766685414323,5,-5.24162756986,0.607927443139,2.66024376512,130738.475636,10.465211594,11.5750925506,1.32051978114,0.0257865078255,5.79953583766,-1.32673720601,-0.874308364807,0.870045246912,0.348994212077,1.27382906087,0.0639059728979,0.233256835281
0.5,0.766685414323,5,-5.29661220031,0.576785390802,2.65920351048,130687.352011,10.4439386648,11.5750925506,1.32088310374,0.0257354527955,5.79718966412,-1.42970141906,-0.687083620248,0.870509127221,0.348672906666,1.27429262394,0.0637972136857,0.233159265528
0.525,0.766685414323,5,-5.35528045584,0.553308321056,2.65819174298,130637.628394,10.4310881573,11.5750925506,1.32107770591,0.0257046115775,5.7938341375,-1.50696465199,-0.488227669744,0.870773068311,0.34847164446,1.27454876137,0.0637118788574,0.233028705703
0.55,0.766685414323,5,-5.41656977586,0.537921435036,2.65768895399,130612.918679,10.4347339959,11.5750925506,1.32137812717,0.0257133615902,5.7928327654,-1.55898102012,-0.281480565869,0.870932577246,0.348629222446,1.2748172407,0.0637165787665,0.23298962881
0.575,0.766685414323,5,-5.47937012882,0.530903409824,2.6574965146,130603.461187,10.4225980867,11.5750925506,1.32111498937,0.025684235408,5.79112051969,-1.58098686093,-0.069528442461,0.870887317511,0.34831285095,1.27463039856,0.0636495391692,0.232921746236
0.6,0.766685414323,5,-5.54254411634,0.532381351243,2.65745171379,130601.259439,10.4213008009,11.5750925506,1.32132276354,0.025681121922,5.79180380496,-1.57608492864,0.143392785432,0.871037989592,0.348345628057,1.27483673029,0.0636533825229,0.232951596091
0.625,0.766685414323,5,-5.60494757301,0.542328491799,2.65766431679,130611.707876,10.4015519771,11.5750925506,1.32103067792,0.025633724745,5.79193413085,-1.54069384096,0.353292867192,0.871054098598,0.347869315147,1.2746631239,0.0635765169609,0.232957142776
0.65,0.766685414323,5,-5.66545028878,0.560564675472,2.65788455097,130622.531351,10.3862035399,11.5750925506,1.32115662401,0.0255968884957,5.7941030432,-1.47847044913,0.556653844388,0.871299393099,0.347598667483,1.27486673508,0.0635375825563,0.23303297166
0.675,0.766685414323,5,-5.72295647854,0.586759620586,2.65786027327,130621.338216,10.3649014744,11.5750925506,1.32110422867,0.0255457635384,5.79431136066,-1.38855914033,0.749172325817,0.871490114603,0.347158978615,1.27493121877,0.0634560525413,0.233040501294
0.7,0.766685414323,5,-5.77642462828,0.62043890165,2.65788600776,130622.602945,10.3190938821,11.5750925506,1.32077090882,0.025435825317,5.7940990197,-1.27171677229,0.926158759649,0.87175493649,0.346151572458,1.27485758565,0.0632731373248,0.233031554685
0.725,0.766685414323,5,-5.82488635831,0.660992541842,2.65811417771,130633.816426,10.2955484004,11.5750925506,1.32125648311,0.025379316161,5.79785573281,-1.1349556251,1.08767990498,0.872324875058,0.345817936276,1.27545002207,0.0632230054167,0.233179876448
0.75,0.766685414323,5,-5.86746396187,0.7076860605,2.6583059174,130643.23953,10.2699879922,11.5750925506,1.32129017536,0.0253179711814,5.79948241987,-0.977358878806,1.22862483531,0.872618076833,0.345317227669,1.27561935524,0.063140573188,0.233244480164
0.775,0.766685414323,5,-5.90338630163,0.759673775552,2.65812480172,130634.338546,10.2573307928,11.5750925506,1.32156911169,0.0252875939027,5.80014380795,-0.803010569677,1.34784901072,0.87293655982,0.345142560636,1.27595493346,0.0631000365246,0.233274049878
0.8,0.766685414323,5,-5.93200277596,0.816014119947,2.65827480716,130641.710608,10.2580325427,11.5750925506,1.32181925681,0.0252892781025,5.80188326779,-0.614978542078,1.44398275161,0.873094341742,0.345226497997,1.27619134943,0.0631225059712,0.233343606421
0.825,0.766685414323,5,-5.95279510225,0.875686694699,2.65826141822,130641.052605,10.2600424129,11.5750925506,1.3218382992,0.0252941017908,5.80178839902,-0.415566571801,1.51364737601,0.873085592614,0.345271957617,1.27619887012,0.0631301820376,0.23334263096
0.85,0.766685414323,5,-5.96538670366,0.93761074967,2.65784250744,130620.465109,10.2763755623,11.5750925506,1.3220627435,0.0253333013496,5.80050658399,-0.208728730234,1.55699219351,0.873060535204,0.345660924001,1.27632683884,0.0631813833956,0.233292483308
0.875,0.766685414323,5,-5.96954952944,1.00066475741,2.65644232432,130551.652691,10.1533915601,11.5750925506,1.31880109364,0.0250961048082,5.78325906695,0.0021997014004,1.5537529168,0.872856952104,0.342242330022,1.27386668322,0.062490624476,0.232597541421
0.9,0.766685414323,5,-5.96520818525,1.0637067255,2.65587978095,130524.006329,10.0393593585,11.5750925506,1.31812889795,0.0248908468453,5.78069411849,0.209163784466,1.52738512043,0.874391842853,0.339718205055,1.2738425676,0.062003471331,0.232494638041
0.925,0.766685414323,5,-5.95244129865,1.12559487958,2.65727442249,130592.546404,10.0859438757,11.5750925506,1.32150432442,0.0249746989763,5.80021064667,0.415075077238,1.49526085463,0.875819017454,0.341607059585,1.27683281281,0.0624137116423,0.233285211059
0.95,0.766685414323,5,-5.93148009502,1.18520834243,2.65901797129,130678.233632,10.1389003919,11.5750925506,1.32201438996,0.0250700207054,5.80873302695,0.615099996502,1.43299919138,0.875235526277,0.342837036932,1.27703301418,0.0627206624299,0.233628073883
0.975,0.766685414323,5,-5.90270420979,1.24146743449,2.65943270709,130698.615947,10.0952649339,11.5750925506,1.31986878724,0.0249914768811,5.8025037462,0.798739317727,1.3320872293,0.874572995475,0.34134590913,1.2752102414,0.062467348491,0.233367386039
1,0.766685414323,5,-5.86663481273,1.29335322836,2.65889808566,130672.341817,10.0612272368,11.5750925506,1.31979896029,0.0249302090263,5.80066617732,0.967932195241,1.20972808488,0.875118852166,0.340627879341,1.27532876496,0.0623108867681,0.233295249993
1.025,0.766685414323,5,-5.82392516887,1.33992600293,2.65829006969,130642.46069,10.0983239809,11.5750925506,1.32141609691,0.0249969831656,5.80418322744,1.12507292985,1.07211403556,0.875545033997,0.341837101095,1.27668036197,0.0625034936699,0.233435699833
1.05,0.766685414323,5,-5.77534880698,1.38034226296,2.65822039708,130639.036609,10.154066039,11.5750925506,1.32217846372,0.0250973188702,5.80586544285,1.26378288901,0.914915707903,0.875080566834,0.343194399754,1.27710742278,0.0627483807464,0.233501545702
1.075,0.766685414323,5,-5.72178550993,1.41387001593,2.65854824786,130655.148934,10.1858674265,11.5750925506,1.32195931651,0.0251545613677,5.80548936834,1.37788911355,0.738386034035,0.874383412776,0.343787214295,1.27672218503,0.0628722745363,0.233488694128
1.1,0.766685414323,5,-5.66420538067,1.43990202939,2.65845920005,130650.772652,10.1954106059,11.5750925506,1.32160883426,0.0251717390906,5.80331536312,1.46487461941,0.54680423922,0.873986091557,0.343885754513,1.27633307373,0.0628860827678,0.233401896591
1.125,0.766685414323,5,-5.60365127235,1.45796682875,2.65717430277,130587.625991,10.1605848993,11.5750925506,1.32051563558,0.0251090528188,5.79371478775,1.5190161464,0.343797730342,0.873866919367,0.3428663107,1.27547430446,0.0626390641231,0.233019443005
1.15,0.766685414323,5,-5.54121990087,1.46773723635,2.65555783738,130508.184316,10.1320685546,11.5750925506,1.32042505018,0.0250577233983,5.78715157775,1.54682183208,0.136315515687,0.874301942752,0.342255642547,1.2755435225,0.0624514468845,0.232748649377
1.175,0.766685414323,5,-5.47804198185,1.46903629704,2.65399014986,130431.139844,10.1293869508,11.5750925506,1.32089306131,0.0250528965114,5.78232070854,1.54959750207,-0.0725446842561,0.874658421118,0.342330401386,1.27600784611,0.0623913583731,0.232558553056
1.2,0.766685414323,5,-5.41526175191,1.46184048308,2.65256692244,130361.194906,10.1346576946,11.5750925506,1.32108201308,0.0250623838502,5.77668159442,1.52486911457,-0.27978218036,0.874691955797,0.342491097139,1.27616051371,0.0623537165672,0.232336991037
1.225,0.766685414323,5,-5.35401624497,1.44628012029,2.65164027127,130315.654357,10.1520236205,11.5750925506,1.32143812575,0.0250936425169,5.77362821358,1.47438837178,-0.482290698359,0.874626044757,0.342946764232,1.27640743025,0.0623930592368,0.232219611648
1.25,0.766685414323,5,-5.29541469908,1.42263702766,2.6508428957,130276.467097,10.1466952979,11.5750925506,1.32097033773,0.0250840515362,5.76812206749,1.39443173763,-0.675000574917,0.87440894067,0.342707380136,1.27598726264,0.0623120149206,0.232003574934
1.275,0.766685414323,5,-5.24051846661,1.39133941321,2.65049085647,130259.166023,10.1322581793,11.5750925506,1.32069220886,0.0250580647227,5.76573117138,1.28941708816,-0.854960967184,0.874475544423,0.34233365566,1.27579915557,0.0622275320222,0.23190776453
1.3,0.766685414323,5,-5.19032179175,1.35295411859,2.64980360416,130225.390803,10.1065192279,11.5750925506,1.32028943851,0.0250117346102,5.76153238155,1.16014577306,-1.01789962317,0.874656049855,0.341693442437,1.27555297017,0.0620789518438,0.231742789222
1.325,0.766685414323,5,-5.14573380341,1.30817635284,2.64913196158,130192.382727,10.0752283076,11.5750925506,1.31995407477,0.0249554109537,5.75789993619,1.01026605979,-1.16135813553,0.874978013219,0.340958181098,1.27540152531,0.0619139709169,0.231597824376
1.35,0.766685414323,5,-5.10756204969,1.25781710118,2.64853627122,130163.107346,10.0331030644,11.5750925506,1.31943868252,0.024879585516,5.75404498688,0.842293162219,-1.28210192664,0.875369687276,0.339951136685,1.27513554392,0.0617033446728,0.231445403414
1.375,0.766685414323,5,-5.07649787212,1.20278843699,2.64856427109,130164.483408,9.98314228374,11.5750925506,1.31880910867,0.0247963991972,5.75262141523,0.660173572799,-1.37870243982,0.875897428382,0.338746003389,1.27480330707,0.0614859051497,0.231389992617
1.4,0.766685414323,5,-5.05310388448,1.144087003,2.64879475905,130175.810808,9.95539915838,11.5750925506,1.3188381774,0.0247575588217,5.75441971786,0.468360048899,-1.45265209319,0.876523999754,0.338174019839,1.27498447332,0.0613927680775,0.231463156484
1.425,0.766685414323,5,-5.03780378319,1.08277596068,2.64843163162,130157.964802,9.94303384116,11.5750925506,1.31895446446,0.0247402473776,5.75363854448,0.268811498818,-1.50096304243,0.876872244108,0.337947391304,1.27516450699,0.0613348050654,0.231432372241
1.45,0.766685414323,5,-5.03087467354,1.01996573501,2.64871684908,130171.981899,9.97253865184,11.5750925506,1.32016099693,0.0247815541126,5.75971565241,0.0650376656372,-1.52815892388,0.877027530242,0.338895786553,1.27616175663,0.0615201798172,0.23166325419
1.475,0.766685414323,5,-5.03244205097,0.956793903168,2.65001366054,130235.714086,10.0338251623,11.5750925506,1.32139814455,0.0248808852921,5.76895561528,-0.141543383175,-1.53172211305,0.876657075296,0.34050634885,1.27701509046,0.0618730888722,0.232045212814
1.5,0.766685414323,5,-5.04247752819,0.894404591527,2.65119781353,130293.909639,10.0346887161,11.5750925506,1.32026216657,0.0248824396891,5.76875309985,-0.345915731192,-1.49877937556,0.875888377658,0.340210799075,1.2759184678,0.0618746448661,0.232053192572
1.525,0.766685414323,5,-5.06079934928,0.83392775396,2.65204378139,130335.484983,10.0062009401,11.5750925506,1.31949729772,0.0248311616921,5.76982003857,-0.54310436781,-1.43631339637,0.875877554133,0.339415074413,1.27533803854,0.0617693261926,0.232095676494
1.55,0.766685414323,5,-5.08707568155,0.776458706879,2.65288389841,130376.772785,9.98982617597,11.5750925506,1.31953717577,0.0248057566464,5.77440524866,-0.730842833565,-1.35000909556,0.876234725426,0.339085970712,1.27546634149,0.06174853635,0.232266111114
1.575,0.766685414323,5,-5.12083062548,0.723038291587,2.65361120983,130412.516722,9.96927714159,11.5750925506,1.31916932751,0.0247769879982,5.77616963492,-0.904523711092,-1.23832168619,0.876440133546,0.338555118182,1.27522627236,0.0616856760036,0.232349742903
1.6,0.766685414323,5,-5.1614528339,0.674634023251,2.65411438849,130437.245588,9.96658792958,11.5750925506,1.31946882776,0.0247732231014,5.7797007072,-1.06308511226,-1.10615269511,0.876698013732,0.33858114431,1.27552910933,0.0617138157701,0.23249306639
1.625,0.766685414323,5,-5.20820658428,0.632122567908,2.65440492351,130451.524019,9.95135282335,11.5750925506,1.31901740688,0.0247518939527,5.77954848509,-1.20071176951,-0.952381847746,0.876731770984,0.338138605477,1.27517914796,0.0616466475887,0.232480167226
1.65,0.766685414323,5,-5.26024510367,0.59627386487,2.65421813685,130442.344332,9.93567062068,11.5750925506,1.31878810818,0.0247299388689,5.77870629295,-1.3161416924,-0.781597690998,0.876923053983,0.33774782297,1.27504511773,0.0615667376977,0.232423017935
1.675,0.766685414323,5,-5.31662590489,0.567737182095,2.6539977508,130431.513394,9.92681245396,11.5750925506,1.31879218156,0.0247175374355,5.77806354503,-1.40818794539,-0.597380064933,0.877120019787,0.337563734564,1.27509783935,0.0615229628689,0.232394031088
1.7,0.766685414323,5,-5.37632785622,0.547029357073,2.65356684776,130410.336535,9.94276202182,11.5750925506,1.31948558745,0.0247398668305,5.77815513442,-1.47728984991,-0.403336519861,0.877231307863,0.338087372076,1.27567676366,0.0615983917646,0.23242405231
1.725,0.766685414323,5,-5.43826967548,0.534525436211,2.65289160966,130377.151757,9.94773019268,11.5750925506,1.31934804322,0.0247468222697,5.77448320302,-1.51759161917,-0.201260026699,0.877030944294,0.338153563376,1.27551708415,0.0615791002637,0.232276701829
1.75,0.766685414323,5,-5.50132951348,0.530451882238,2.65196979509,130331.848904,9.95027742117,11.5750925506,1.31933816973,0.0247503883896,5.77106389207,-1.53022322225,0.00433278789064,0.87696854737,0.338204130994,1.27549353334,0.0615455154188,0.232111023281
1.775,0.766685414323,5,-5.56436527221,0.534882472665,2.65101884426,130285.114141,9.9529942075,11.5750925506,1.31937962495,0.0247541918905,5.76704329905,-1.51500413529,0.209653792495,0.876936558608,0.338272329566,1.27551840277,0.0615137867038,0.231949113501
1.8,0.766685414323,5,-5.62623528977,0.547736963575,2.65023429419,130246.557193,9.94822050745,11.5750925506,1.31917090001,0.0247475087104,5.76206294726,-1.47137920362,0.410690162965,0.876902442539,0.338115219577,1.27534403237,0.0614488298984,0.231780156496
1.825,0.766685414323,5,-5.68581901741,0.568782542944,2.64943448737,130207.250447,9.93150105225,11.5750925506,1.31870977801,0.0247241014732,5.75682492406,-1.40004704145,0.603304345194,0.876962389725,0.337639179666,1.2749927624,0.0613252835934,0.231576479989
1.85,0.766685414323,5,-5.74203731412,0.597638047183,2.64920642289,130196.04215,9.94806698619,11.5750925506,1.31957194897,0.0247472937807,5.75939679733,-1.30844360584,0.787082808937,0.877172400668,0.33822203537,1.27573054045,0.0614205718818,0.231670592591
1.875,0.766685414323,5,-5.79387199136,0.633780864519,2.6492898475,130200.142078,9.95453721232,11.5750925506,1.31947226826,0.0247563520972,5.75970614934,-1.19147765187,0.956099439644,0.876964317723,0.338330028974,1.27559897114,0.0614440529598,0.231661289351
1.9,0.766685414323,5,-5.84038425381,0.67655640019,2.64970294334,130220.443797,9.95536692963,11.5750925506,1.31937737591,0.0247575137015,5.76114849588,-1.05262491422,1.10775710566,0.876883067182,0.338321339274,1.27550314227,0.0614616374012,0.231716130595
1.925,0.766685414323,5,-5.88073170218,0.725189932037,2.65011179905,130240.537133,9.93074483767,11.5750925506,1.31854989966,0.0247230427727,5.75992848828,-0.892662436015,1.23672648261,0.876872648786,0.337579554331,1.27484317123,0.0613458072004,0.231667713254
1.95,0.766685414323,5,-5.91418359023,0.778800641754,2.65052508921,130260.848401,9.9036227997,11.5750925506,1.31812038125,0.0246850719196,5.76037677498,-0.717266711349,1.34304233074,0.877181901268,0.336895051091,1.27457930973,0.0612405142376,0.231692012429
1.975,0.766685414323,5,-5.94013405951,0.836417567688,2.65123724878,130295.847697,9.88294207969,11.5750925506,1.31795021343,0.0246561189116,5.7618983551,-0.529843578113,1.4255944336,0.877522752835,0.336416326236,1.27452922474,0.0611863586307,0.231807424755
2,0.766685414323,5,-5.95811311232,0.89699719025,2.65198436865,130332.565126,9.89188592618,11.5750925506,1.31863595785,0.0246686402967,5.76772602048,-0.334175172702,1.48627041145,0.877782794388,0.336790716097,1.27513973536,0.0612889794275,0.23204919041
2.025,0.766685414323,5,-5.96779512398,0.959442331456,2.65254501749,130360.118381,9.87878843635,11.5750925506,1.31803477045,0.0246503038109,5.76780928326,-0.131465429558,1.51633190781,0.877670318676,0.336352622156,1.27463336186,0.0612351382475,0.232055126041
2.05,0.766685414323,5,-5.9690047403,1.02262202628,2.65316949321,130390.808427,9.86294297914,11.5750925506,1.31775913079,0.0246281201708,5.7710259079,0.0732905357347,1.519475234,0.877835037312,0.335946217193,1.27445510327,0.0611899507655,0.232131933717
2.075,0.766685414323,5,-5.96172005352,1.08539200596,2.65391281798,130427.339345,9.84238592059,11.5750925506,1.31737970079,0.0245993402888,5.77308696594,0.276366324563,1.49433044389,0.878034380017,0.335413203996,1.27420264722,0.0611271035607,0.2322160137
2.1,0.766685414323,5,-5.94607299904,1.1466154222,2.65466582941,130464.346317,9.82110026072,11.5750925506,1.31706494646,0.024569540365,5.77544602693,0.47402499161,1.4422067369,0.878293101881,0.334882802201,1.27401618683,0.0610650789391,0.232313808016
2.125,0.766685414323,5,-5.92234696596,1.20518343706,2.65540049582,130500.451718,9.81638471293,11.5750925506,1.31731108382,0.0245629385981,5.77867247766,0.663553655959,1.36585036964,0.878561118296,0.334851282533,1.27427879527,0.0610931318508,0.232490321869
2.15,0.766685414323,5,-5.89097166447,1.26003530545,2.65630215726,130544.764139,9.84231568905,11.5750925506,1.31825679582,0.0245992419647,5.78605312225,0.843518126643,1.26825734457,0.878620510793,0.335650807412,1.27504691597,0.0612805994081,0.232788474088
2.175,0.766685414323,5,-5.85251534324,1.31017758668,2.65721677563,130589.713332,9.85205070811,11.5750925506,1.3180883753,0.0246128709914,5.78960164857,1.00743259903,1.14494232879,0.878293985987,0.335808396981,1.27483154927,0.0613515982989,0.232909462101
2.2,0.766685414323,5,-5.80767449768,1.35470213698,2.65762080905,130609.569676,9.84514728387,11.5750925506,1.31767653581,0.0246032061974,5.78918888274,1.15140627524,0.998748838591,0.878171450456,0.335551816916,1.27447312602,0.061323365926,0.232914792678
2.225,0.766685414323,5,-5.75726125547,1.39280255719,2.65716264413,130587.053024,9.83192418612,11.5750925506,1.31737025427,0.0245846938606,5.78618588824,1.27327922387,0.833918735248,0.878258341717,0.335192058938,1.27425079071,0.0612364993966,0.23279387353
2.25,0.766685414323,5,-5.70218866785,1.42378879774,2.65603400313,130531.585624,9.811733087,11.5750925506,1.31695307222,0.0245564263218,5.78182666678,1.37080766379,0.654009206717,0.878424814019,0.334656694515,1.2739596969,0.0610867664483,0.232543020189
2.275,0.766685414323,5,-5.64345417305,1.44709965638,2.654700968,130466.073213,9.8201917023,11.5750925506,1.3176137681,0.0245682683832,5.77825038422,1.44618603013,0.46401606012,0.878679104262,0.335013212582,1.27454924938,0.0610904761813,0.232417163373
2.3,0.766685414323,5,-5.58212153132,1.46231294227,2.65306956035,130385.897196,9.84235687332,11.5750925506,1.31818621405,0.0245992996227,5.77244327473,1.49614897865,0.2657638019,0.87857256114,0.335632429846,1.27497878119,0.0611281917743,0.232209823944
2.325,0.766685414323,5,-5.51930155882,1.46915312247,2.65070843971,130269.859217,9.84755890891,11.5750925506,1.31793926081,0.0246065824725,5.76204058627,1.51605261541,0.0623723414088,0.878293467541,0.335673846214,1.27471269236,0.0610269668119,0.231748317745
2.35,0.766685414323,5,-5.45613200927,1.46749631217,2.64808936612,130141.144061,9.86180383511,11.5750925506,1.31831138804,0.0246265253691,5.75185303,1.50948995772,-0.141644521556,0.878227985822,0.336073122961,1.27499264218,0.0609788759824,0.231341374522
2.375,0.766685414323,5,-5.39375696771,1.4573725184,2.6460394774,130040.401667,9.86599930328,11.5750925506,1.31818079375,0.0246323990246,5.74092429494,1.47439568333,-0.342487276531,0.878048713665,0.336125184311,1.27484399852,0.0608939365671,0.230956421007
2.4,0.766685414323,5,-5.33330612956,1.43896509663,2.64422918933,129951.434518,9.85504025725,11.5750925506,1.3177397565,0.0246170563602,5.73132530571,1.41162596082,-0.536054909225,0.877995924635,0.335775789501,1.27447977014,0.0607474325481,0.23057461643
2.425,0.766685414323,5,-5.27587434034,1.41260742987,2.64302016834,129892.01682,9.87770273225,11.5750925506,1.31869499159,0.0246487838252,5.72950329416,1.32851620759,-0.72164132258,0.878133826076,0.336510280552,1.27527443105,0.0608246543238,0.230507449309
2.45,0.766685414323,5,-5.22250176657,1.37877689072,2.64245186732,129864.087496,9.89315371531,11.5750925506,1.31877680013,0.0246704152014,5.72865914738,1.22066645895,-0.894280496691,0.877848693682,0.336855733628,1.27526824341,0.0608609143822,0.230407214806
2.475,0.766685414323,5,-5.17415505694,1.33808619549,2.64234269551,129858.722215,9.9020837228,11.5750925506,1.31877957019,0.0246829172119,5.72683505756,1.08983345489,-1.05037332133,0.877654377087,0.337043223086,1.27522181088,0.0608897571825,0.230379788405
2.5,0.766685414323,5,-5.13170983502,1.2912723071,2.64257346989,129870.063691,9.88030911811,11.5750925506,1.31789239658,0.0246524327654,5.72561130139,0.937322562514,-1.1851682181,0.877542101182,0.336345506181,1.27448805874,0.0607743229302,0.230287449748
2.525,0.766685414323,5,-5.09593484056,1.23918308767,2.64319152121,129900.438008,9.85640128466,11.5750925506,1.31751450382,0.0246189617985,5.72689951806,0.768631743099,-1.29849192457,0.877815910198,0.335742780126,1.27425560491,0.0606937967237,0.230353160921
2.55,0.766685414323,5,-5.06747800654,1.18276194263,2.64397311024,129938.849435,9.83237723771,11.5750925506,1.31717274992,0.0245853281328,5.72857535226,0.58653985933,-1.38809746469,0.878116697965,0.335147723447,1.27405827769,0.0606220614046,0.230453718583
2.575,0.766685414323,5,-5.04685472429,1.12303073437,2.64522255734,130000.253886,9.83621365192,11.5750925506,1.31775307768,0.0245906991127,5.73638223607,0.39549620932,-1.45668673544,0.878419109513,0.33538598447,1.27459566829,0.0607225083579,0.230768874386
2.6,0.766685414323,5,-5.03443850903,1.06107127498,2.64622318229,130049.429899,9.83605798694,11.5750925506,1.31767547505,0.0245904811817,5.74048626451,0.196458061272,-1.49764857457,0.878370806392,0.335361587174,1.27452185354,0.0607640362792,0.230930121723
2.625,0.766685414323,5,-5.03045423503,0.998005733114,2.64723847694,130099.326858,9.84023482538,11.5750925506,1.31781636276,0.0245963287555,5.74609417244,-0.00642339354115,-1.51237392271,0.878372766242,0.335487269164,1.2746345506,0.0608334624847,0.231127796023
2.65,0.766685414323,5,-5.03497406282,0.934976310089,2.64854674407,130163.622037,9.83637949624,11.5750925506,1.31761014854,0.0245909312947,5.75034838449,-0.209535503947,-1.49852221904,0.878320181443,0.335350506331,1.27445723951,0.0608687816819,0.231324116142
2.675,0.766685414323,5,-5.04791613227,0.873124553054,2.64920111506,130195.781295,9.81246501005,11.5750925506,1.31689314544,0.0245574510141,5.7506073593,-0.408199987401,-1.45450229776,0.87836871839,0.334655678343,1.27389803433,0.0607726837189,0.231336885463
2.7,0.766685414323,5,-5.06904604519,0.81357068005,2.64967016777,130218.833032,9.78458467093,11.5750925506,1.31642355775,0.0245184185393,5.75221479262,-0.598840261008,-1.38429179942,0.87866988431,0.333945779772,1.27359819112,0.0606652442018,0.231364341038