time,root_dist,x,y,z,rel_vel_mag,Re,alpha_deg,alpha_geom_deg,cl,cd,fx,fy,fz,end_effect_factor,c_ref_t,c_ref_n,f_ref_t,f_ref_n
0.00119048,0.534483,5,-1.98414,2.73948,13.3544,39868.9,-7.06586,10.2707,-0.236031,0.0570243,-13.9236,-4.19505,0.277856,0.731042,-0.0701901,-0.232456,-0.280283,-0.928242
