time,root_dist,x,y,z,rel_vel_mag,Re,alpha_deg,alpha_geom_deg,cl,cd,fx,fy,fz,end_effect_factor,c_ref_t,c_ref_n,f_ref_t,f_ref_n
0.00625,0.393419572553,5,-5.49089565984,1.2702967138,1.66215543734,96288.2067217,19.9405219557,19.9405219557,0.649256150601,0.181133659987,1.37504132646,0.32187834057,-0.0108417518681,0.705682321429,0.153715266959,0.656288479693,0.0129526941957,0.0553016245542
0.0135416666667,0.393419572553,5,-5.48028769755,1.26973065757,1.66178762933,96266.899705,19.8974111191,19.9405219557,0.838445264126,0.180562278843,1.72154441074,0.51100668441,-0.0373450997646,0.910527144027,0.244654906952,0.822032343634,0.020606527517,0.0692372465365
0.02265625,0.393419572553,5,-5.4670724271,1.26843803278,1.6614891779,96249.6104956,19.826510576,19.9405219557,0.83982095448,0.179622579299,1.72314043106,0.509344763351,-0.0624780574189,0.910728418009,0.245121816551,0.823091004463,0.0206384386861,0.0693015149272
0.036328125,0.393419572553,5,-5.44740825066,1.26528722246,1.66110249668,96227.2101591,19.7420732127,19.9405219557,0.841435262245,0.178503465843,1.72494198536,0.504244592885,-0.0999637486746,0.910941352911,0.245663441984,0.8243338287,0.020674415195,0.0693738543114
0.05,0.393419572553,5,-5.42802924467,1.26069793416,1.66056010037,96195.7892902,19.6200176956,19.9405219557,0.843967769483,0.176885770001,1.72794525044,0.496954451779,-0.137193980369,0.91146280332,0.246535629388,0.826311294246,0.0207342690157,0.0694948665561
0.0666666666667,0.393419572553,5,-5.40494336735,1.25319446892,1.66015363977,96172.2431393,19.5162677189,19.9405219557,0.84622857909,0.175510691596,1.73081657586,0.4839526117,-0.181690010161,0.912020586262,0.247322587983,0.828093200314,0.0207902726799,0.0696106392031
0.0833333333333,0.393419572553,5,-5.38262328977,1.24365120643,1.65958853449,96139.5067466,19.3933085247,19.9405219557,0.848892081666,0.173881018624,1.73403572224,0.467121991782,-0.225031689664,0.912661584001,0.248240414402,0.830198212243,0.0208532225664,0.0697400869874
0.1,0.393419572553,5,-5.36124882798,1.23214502959,1.65917978074,96115.827754,19.2917062526,19.9405219557,0.851309372675,0.172534405402,1.73721922969,0.44637346699,-0.266793744457,0.913421098409,0.249094863077,0.832134315024,0.0209146934803,0.0698682980379
0.116666666667,0.393419572553,5,-5.34099217994,1.218768635,1.65889297736,96099.2133134,19.212554546,19.9405219557,0.853227870345,0.17148534683,1.73984066319,0.421652501174,-0.306470098115,0.914048537684,0.249772902899,0.833677707443,0.0209643739572,0.0699736881616
0.133333333333,0.393419572553,5,-5.32201653821,1.2036297862,1.65859753626,96082.0984918,19.1424061814,19.9405219557,0.854866688775,0.170555616487,1.74196782085,0.393227986919,-0.343702557908,0.914537226067,0.250341822693,0.834994159083,0.0210046418668,0.0700592217624
0.15,0.393419572553,5,-5.30447477525,1.18685044551,1.65843124376,96072.4652128,19.0872184128,19.9405219557,0.856202314021,0.169824170454,1.74386697187,0.361426314546,-0.37820600958,0.914970240329,0.250809090957,0.836072635181,0.0210396279324,0.0701356442125
0.166666666667,0.393419572553,5,-5.28850821183,1.16856579142,1.65844095099,96073.0275504,19.0431615681,19.9405219557,0.857264433665,0.169240251135,1.74567687569,0.326542471246,-0.409697902357,0.915310843994,0.251178863152,0.836931150416,0.0210708936858,0.07020848439
0.183333333333,0.393419572553,5,-5.27424547855,1.14892312965,1.65856277445,96080.0847497,19.0063609561,19.9405219557,0.858140197732,0.168752504261,1.74740782606,0.288880753972,-0.437918116007,0.915582709829,0.25148150069,0.83763898039,0.0210993807816,0.070278186492
0.2,0.393419572553,5,-5.26180147951,1.12808070633,1.65867073684,96086.3389815,18.9686597796,19.9405219557,0.858989509598,0.16825282151,1.74905912292,0.248766134506,-0.462643647773,0.915809769985,0.251768377184,0.838322535661,0.0211261999209,0.0703446941377
0.216666666667,0.393419572553,5,-5.25127646663,1.10620643318,1.65884533939,96096.453659,18.9151541016,19.9405219557,0.860111216383,0.167543669521,1.75129267529,0.206623785379,-0.483889689529,0.916042358368,0.252135217482,0.839219886472,0.0211614364294,0.0704348184882
0.233333333333,0.393419572553,5,-5.24275523203,1.08347653474,1.65929478867,96122.4901318,18.8765576318,19.9405219557,0.861073117062,0.167032120759,1.75389013083,0.162707854124,-0.501407303382,0.916372397942,0.252469956174,0.840003311613,0.0212010144685,0.0705387786846
0.25,0.393419572553,5,-5.23630642488,1.0600741287,1.65979877463,96151.6859,18.8337586303,19.9405219557,0.862019982988,0.166464872604,1.75653522844,0.117309197805,-0.514925183787,0.916610434509,0.252784434497,0.840766932365,0.0212403195811,0.0706457989478
0.266666666667,0.393419572553,5,-5.23198199836,1.03618775063,1.66009779934,96169.0083189,18.7638451787,19.9405219557,0.863449879919,0.165538255744,1.75956337916,0.0708186953729,-0.52450580323,0.916874350427,0.253241872742,0.841912800198,0.0212864237571,0.0707675726666
0.283333333333,0.393419572553,5,-5.22981679112,1.0120098351,1.66058733353,96197.3668999,18.6995057565,19.9405219557,0.864943784235,0.164685515793,1.76314231422,0.0235634202585,-0.530102240931,0.917305373345,0.253742977383,0.843127256367,0.0213411251542,0.0709114572733
0.3,0.393419572553,5,-5.22982824661,0.987735165359,1.66101934104,96222.392976,18.6343905256,19.9405219557,0.86641929318,0.163822493451,1.76654488764,-0.0241222260157,-0.531368280862,0.917701926947,0.254230878878,0.844326276495,0.0213932869803,0.0710492541968
0.325,0.393419572553,5,-5.23392167293,0.951569365463,1.66191957516,96274.5432903,18.5729664998,19.9405219557,0.867145517415,0.163008393494,1.7695917802,-0.095412339622,-0.524196223141,0.91737088151,0.254382564401,0.844868389544,0.0214292606313,0.0711719569355
0.35,0.393419572553,5,-5.24283413361,0.916280709131,1.66173847075,96264.0519618,18.4237607815,19.9405219557,0.870028733781,0.16103085511,1.7740687786,-0.165467626895,-0.508277425526,0.917750552837,0.25525988023,0.847185533072,0.021498479695,0.0713516004328
0.375,0.393419572553,5,-5.25640421207,0.882508321125,1.66124156672,96235.266448,18.2878161455,19.9405219557,0.873204947634,0.15922907607,1.77847289059,-0.233025249173,-0.483131824502,0.918672417559,0.256300560826,0.849794564444,0.0215732200997,0.0715285410191
0.4,0.393419572553,5,-5.27438613605,0.85086386456,1.66003906287,96165.6057313,18.1399523133,19.9405219557,0.876509232797,0.157269322737,1.78153724269,-0.296564340918,-0.448643963227,0.919511816752,0.257351825058,0.852509303874,0.0216303579871,0.0716531985971
0.425,0.393419572553,5,-5.29645422885,0.821920462868,1.6590441364,96107.9699148,18.0366900293,19.9405219557,0.879131057046,0.155900708099,1.78395706955,-0.354889212772,-0.405640084489,0.920424180382,0.25822069038,0.85469206227,0.0216773783216,0.0717505756606
0.45,0.393419572553,5,-5.32220880778,0.796202319761,1.65759372308,96023.9478705,17.9483746873,19.9405219557,0.881238778232,0.154730196803,1.78450017109,-0.40649775062,-0.354624839846,0.921060918083,0.258897562268,0.856443384185,0.0216962155834,0.0717719399731
0.475,0.393419572553,5,-5.351183423,0.774175225209,1.65603250649,95933.5070238,17.8788843854,19.9405219557,0.882940132347,0.153809188272,1.78410367139,-0.450540713502,-0.296902440601,0.921605196952,0.259446072861,0.857862622442,0.021701245268,0.071755517324
0.5,0.393419572553,5,-5.38285330545,0.756238119353,1.65471786456,95857.3501785,17.8244274727,19.9405219557,0.88427586335,0.153087428836,1.78362220096,-0.486366343153,-0.233737158939,0.922033260154,0.259874875141,0.858978819669,0.0217026139055,0.0717348518829
0.525,0.393419572553,5,-5.41664487122,0.74271586717,1.65369139656,95797.8871701,17.7855755438,19.9405219557,0.885258084073,0.152572494277,1.78306379046,-0.513321550064,-0.166306345598,0.922368590132,0.260192752196,0.859802287233,0.0217022103286,0.0717145651486
0.55,0.393419572553,5,-5.45194610985,0.733853374732,1.6529089328,95752.5592598,17.755207521,19.9405219557,0.886004129825,0.152170003465,1.78266231062,-0.530983884403,-0.0958713687465,0.922607759062,0.260430813466,0.860427114531,0.0217015153463,0.0716987824208
0.575,0.393419572553,5,-5.4881176687,0.72981115363,1.65242038232,95724.2576652,17.7216184763,19.9405219557,0.886755014423,0.151724821967,1.78288974771,-0.539200324064,-0.0237128844224,0.922794660383,0.260660229886,0.861052333927,0.0217077944122,0.0717084729467
0.6,0.393419572553,5,-5.52450443247,0.730662413894,1.65204644628,95702.5956536,17.6972091406,19.9405219557,0.887368955875,0.151401306227,1.78321991911,-0.537684871028,0.0489187669651,0.923001342542,0.260857034898,0.861568120767,0.0217143532643,0.0717189572552
0.625,0.393419572553,5,-5.56044738818,0.736391738062,1.65185775325,95691.664718,17.6417642995,19.9405219557,0.888456888846,0.150666453015,1.78468696973,-0.526754688102,0.120788873895,0.923151510758,0.261165938043,0.862466449324,0.0217351011691,0.0717773369356
0.65,0.393419572553,5,-5.59529556086,0.746895360412,1.65167738945,95681.2162931,17.5836360075,19.9405219557,0.889774676679,0.149896033959,1.78656452426,-0.506428367739,0.190673609997,0.923492520229,0.261567013222,0.863568465063,0.0217637265105,0.07185335668
0.675,0.393419572553,5,-5.62841780347,0.761983046294,1.65158620686,95675.9341107,17.5293167554,19.9405219557,0.89104410866,0.149176099044,1.78857942311,-0.476899361723,0.257302547386,0.923849894365,0.261956897798,0.864633850713,0.0217937604267,0.0719340592199
0.7,0.393419572553,5,-5.65921422792,0.781381537539,1.65132108326,95660.5755736,17.4750434051,19.9405219557,0.892290736333,0.148456772501,1.79018667797,-0.438527570806,0.31936840018,0.924183717804,0.262335038748,0.865680367625,0.0218182137365,0.0719980044546
0.725,0.393419572553,5,-5.68712706976,0.804739501525,1.65141365599,95665.9382865,17.442084581,19.9405219557,0.89317436469,0.148019943803,1.79194043745,-0.392143466739,0.375809026547,0.924517127931,0.262619850921,0.866430126096,0.021844350331,0.0720684409249
0.75,0.393419572553,5,-5.71165079009,0.831633894287,1.65098777413,95641.2670671,17.3949349325,19.9405219557,0.894173665942,0.147395033171,1.79274375081,-0.338328672513,0.425308470164,0.92471953405,0.26290893603,0.867266240565,0.0218571182292,0.0721007853232
0.775,0.393419572553,5,-5.73234123155,0.8615776224,1.65095178345,95639.1821371,17.3760336764,19.9405219557,0.894775880456,0.147144520256,1.79372929238,-0.278361034929,0.467227530644,0.925009001032,0.263113521299,0.867782611601,0.0218731728898,0.0721405688335
0.8,0.393419572553,5,-5.74882366257,0.894028364902,1.65064760396,95621.5611033,17.3592650739,19.9405219557,0.895174078944,0.146922273043,1.79374529563,-0.213121572221,0.500414003462,0.925125012615,0.263234709991,0.868118812942,0.0218751845455,0.0721419270322
0.825,0.393419572553,5,-5.76079956427,0.928398395445,1.65020181968,95595.7369427,17.3714003913,19.9405219557,0.895066671204,0.147083111758,1.79260064933,-0.143916604665,0.524197579394,0.925227920227,0.263226837082,0.868037683459,0.0218627167442,0.0720962277521
0.85,0.393419572553,5,-5.76805203707,0.964065226809,1.64878993805,95513.9470285,17.2810562261,19.9405219557,0.896535440649,0.145885710904,1.79204684893,-0.0722016771222,0.538581571934,0.925153448068,0.263579406905,0.86924354081,0.0218545552411,0.0720728952372
0.875,0.393419572553,5,-5.77044972897,1.00038288498,1.64723660974,95423.9631474,17.1646736188,19.9405219557,0.899058636952,0.144343202508,1.79302808949,0.000769967867228,0.543864644234,0.925707702261,0.264305550834,0.871369019754,0.0218734906692,0.0721130602929
0.9,0.393419572553,5,-5.76794921457,1.03669360858,1.64611171355,95358.798221,17.0518477005,19.9405219557,0.901678375086,0.142847833653,1.79514069336,0.0739038580326,0.539671116532,0.926421102229,0.265078090965,0.873592010819,0.0219074729548,0.0721983219393
0.925,0.393419572553,5,-5.76059578153,1.07233976186,1.64556799168,95327.3005628,16.9651259269,19.9405219557,0.903833014534,0.141698443147,1.79771448403,0.145957259491,0.525794461132,0.927112029449,0.265727997486,0.875432006671,0.0219466792494,0.0723026012945
0.95,0.393419572553,5,-5.74852261037,1.10667574531,1.64626885175,95367.9011936,16.9908069976,19.9405219557,0.903911125957,0.142038814171,1.79945150189,0.215516492972,0.502089029286,0.927642631285,0.265847989701,0.875531378496,0.0219752964422,0.0723724170662
0.975,0.393419572553,5,-5.73194836234,1.13907968833,1.64688861625,95403.8039804,17.007932161,19.9405219557,0.903465255084,0.14226578716,1.800029385,0.281050071501,0.468717643833,0.92748554657,0.265711060636,0.875149503569,0.0219805182315,0.0723953288677
1,0.393419572553,5,-5.71117321926,1.16896471219,1.64767437012,95449.3224854,17.0402988794,19.9405219557,0.902809856454,0.142694768226,1.80061172702,0.341539125745,0.426857867247,0.927380775833,0.265533431277,0.87459672459,0.0219867895411,0.0724186556263
1.025,0.393419572553,5,-5.68657344675,1.19578955914,1.64801415661,95469.0062232,17.0544648276,19.9405219557,0.902374913046,0.142882520456,1.80058516882,0.395713256597,0.377086431642,0.927182714051,0.26539086641,0.874221703215,0.021984049216,0.0724174618709
1.05,0.393419572553,5,-5.65859457959,1.21906839531,1.64724600514,95424.5074204,17.016849224,19.9405219557,0.902933407883,0.142383971869,1.79986603598,0.442550172064,0.320384226973,0.927096010306,0.265509029071,0.874681021858,0.0219733391976,0.0723879818713
1.075,0.393419572553,5,-5.62774335249,1.23837960986,1.64671610367,95393.8103739,17.0104390716,19.9405219557,0.903267194663,0.142299013178,1.79931534395,0.481477976406,0.258015401949,0.927326215354,0.265633119853,0.874974102327,0.0219694673528,0.0723656560078
1.1,0.393419572553,5,-5.59457852242,1.25337345085,1.6457097592,95335.5131163,16.9946545093,19.9405219557,0.903575247398,0.142089808209,1.79760396226,0.511280955181,0.190849503446,0.927365437341,0.265714566325,0.87523340347,0.0219493513931,0.0722986541138
1.125,0.393419572553,5,-5.55970074882,1.26377835978,1.64473729674,95279.1786338,17.0102369271,19.9405219557,0.903402921506,0.142296334002,1.79522973906,0.531611451335,0.12031920189,0.927462009136,0.265691602504,0.875096027653,0.0219215242934,0.0722019011832
1.15,0.393419572553,5,-5.52374171481,1.26940588984,1.64363317509,95215.2171704,17.0081306655,19.9405219557,0.903346067696,0.142268418094,1.7927105021,0.542159341066,0.0477784374576,0.927366674172,0.265659779264,0.875042457535,0.0218894799515,0.0721005806147
1.175,0.393419572553,5,-5.4873526866,1.27015411891,1.64248602448,95148.7630513,17.0233762392,19.9405219557,0.903097983102,0.142470479432,1.78971164287,0.542766491556,-0.0254097103939,0.927379561298,0.26560258616,0.874836596638,0.0218542297607,0.071983033985
1.2,0.393419572553,5,-5.45119271814,1.26600949558,1.64135293206,95083.1233197,17.0131347422,19.9405219557,0.903182211033,0.142334740979,1.78735740115,0.533702433262,-0.0979234407826,0.927286275994,0.265605085824,0.874900693336,0.0218242926499,0.0718890179071
1.225,0.393419572553,5,-5.41591671484,1.25704708451,1.64023163603,95018.1669497,16.9990264883,19.9405219557,0.903484435952,0.142147753416,1.78541609178,0.515174021716,-0.16851980351,0.927348943538,0.265689628856,0.875156632225,0.0218014214117,0.071811830302
1.25,0.393419572553,5,-5.38216357229,1.24342920697,1.6393357584,94966.2690049,17.001112264,19.9405219557,0.903532872808,0.14217539781,1.78354913385,0.487396804673,-0.235933473463,0.927435262238,0.265717710253,0.875202601941,0.0217799142216,0.0717371739303
1.275,0.393419572553,5,-5.35054460504,1.22540250091,1.63830560379,94906.5924324,16.9582669316,19.9405219557,0.904252957522,0.141607535596,1.78250540487,0.451018958573,-0.299052656104,0.927422501504,0.265887744517,0.875802382184,0.0217664695115,0.071696143365
1.3,0.393419572553,5,-5.32163247488,1.2032934541,1.63771685208,94872.4862076,16.9391671112,19.9405219557,0.904835125809,0.141354390956,1.7822266722,0.40677199324,-0.356897441899,0.927684579807,0.266076842642,0.876305188019,0.0217662971416,0.0716857540844
1.325,0.393419572553,5,-5.29595081915,1.17750249095,1.63714191105,94839.1800326,16.91276626,19.9405219557,0.905400600052,0.141004480126,1.78192046702,0.355120587766,-0.408231257199,0.927801377308,0.266233815502,0.876785073706,0.0217638492417,0.0716746598306
1.35,0.393419572553,5,-5.27396476699,1.14849672029,1.63687330021,94823.6194803,16.8945061263,19.9405219557,0.905870484124,0.1407624645,1.78211484875,0.297145033953,-0.45230121484,0.927962787371,0.266376351443,0.877188146757,0.0217683561862,0.0716840812537
1.375,0.393419572553,5,-5.2560725152,1.11680147542,1.63678027309,94818.2304451,16.8865749354,19.9405219557,0.906115135753,0.140657346314,1.78247088708,0.23378218264,-0.488229276166,0.928074403256,0.266455789337,0.877399818009,0.0217723729202,0.0716932294295
1.4,0.393419572553,5,-5.24259811641,1.08299079962,1.6362232833,94785.9641797,16.8767149724,19.9405219557,0.90633116337,0.140526664625,1.78152164821,0.166023378883,-0.514933349718,0.928122877043,0.26651624747,0.877583620518,0.021762494072,0.0716594523617
1.425,0.393419572553,5,-5.23378560998,1.04767704945,1.63626249735,94788.2358389,16.9033999438,19.9405219557,0.905933404695,0.140880341118,1.78087988254,0.0953499346232,-0.532405528028,0.928183134019,0.266433644018,0.877254648087,0.0217567918707,0.071636023545
1.45,0.393419572553,5,-5.22979460219,1.01149980414,1.63706959387,94834.9907181,16.9629355179,19.9405219557,0.904755700472,0.141669411968,1.78060004517,0.0229941693097,-0.540282998837,0.928020041788,0.266122147718,0.876260293701,0.0217527988288,0.0716254323588
1.475,0.393419572553,5,-5.23069737554,0.975114281997,1.63815966482,94898.1382279,17.0166838307,19.9405219557,0.903481658192,0.142381779784,1.78081930906,-0.0497574023607,-0.5384533828,0.927656027765,0.265747494646,0.875174238077,0.0217511125212,0.071631957823
1.5,0.393419572553,5,-5.2364775796,0.939179473493,1.63954963955,94978.6590813,17.0319915987,19.9405219557,0.902899739799,0.142584665432,1.78276666556,-0.121717323709,-0.527375305527,0.927327227379,0.265544904498,0.874668068835,0.0217714298086,0.0717120688209
1.525,0.393419572553,5,-5.24703052713,0.904346206067,1.64015288441,95013.60489,16.9968670559,19.9405219557,0.903408927939,0.142119132795,1.78482187832,-0.191632107603,-0.506797182346,0.9272335543,0.265649511239,0.875086210704,0.0217960364064,0.0717991567848
1.55,0.393419572553,5,-5.26216509014,0.871245356779,1.64074652696,95047.9944392,16.9651578793,19.9405219557,0.904160464308,0.141698866637,1.78757506553,-0.258369853247,-0.477259454265,0.927448473348,0.265870595811,0.875726863986,0.0218299698272,0.0719037430947
1.575,0.393419572553,5,-5.28160716146,0.84047642628,1.64093888431,95059.1376479,16.9255426674,19.9405219557,0.905027009047,0.141173815701,1.78942873781,-0.320469944145,-0.438733530963,0.927642435863,0.266114472987,0.876462789062,0.0218551175588,0.0719810428794
1.6,0.393419572553,5,-5.30500461916,0.812596681053,1.641296944,95079.8799471,16.9069620497,19.9405219557,0.905581173833,0.140927552453,1.79110658889,-0.376877722901,-0.392145750238,0.927884679664,0.266292702179,0.876941294618,0.0218793001279,0.072051774692
1.625,0.393419572553,5,-5.33193370401,0.78811106057,1.64116684233,95072.3431929,16.8867616267,19.9405219557,0.906037608085,0.140659820677,1.79174912225,-0.426291612098,-0.3381264376,0.92799826794,0.266422777944,0.877330174911,0.0218865172946,0.0720722987516
1.65,0.393419572553,5,-5.36190669426,0.767463032167,1.64125131418,95077.236624,16.8859042603,19.9405219557,0.906172823638,0.140648457339,1.79223871802,-0.46799395719,-0.277920681682,0.928121736067,0.266478558808,0.877451054218,0.021893353223,0.0720896493579
1.675,0.393419572553,5,-5.39438073896,0.751026559254,1.6411031809,95068.6553036,16.8705641454,19.9405219557,0.906440405115,0.140445142973,1.79252711363,-0.501146790499,-0.212595984242,0.928126975904,0.266542867,0.877675307993,0.0218946838555,0.0720950577765
1.7,0.393419572553,5,-5.42876768974,0.739099328336,1.64080019237,95051.1032618,16.8768990615,19.9405219557,0.906423559569,0.140529104499,1.79146009197,-0.524874591126,-0.143303692881,0.928220720581,0.266556947199,0.877667073812,0.0218877561593,0.0720677630148
1.725,0.393419572553,5,-5.46444475292,0.731897357519,1.64037732633,95026.6067484,16.8733028309,19.9405219557,0.906447291352,0.140481440884,1.79059296714,-0.539087848062,-0.0714927740268,0.928182009051,0.266555099099,0.877684514148,0.0218763241397,0.072032052618
1.75,0.393419572553,5,-5.50076576918,0.729551084126,1.6400642968,95008.4730342,16.8824829144,19.9405219557,0.906311670969,0.140603111606,1.78995292572,-0.543623907984,0.00153925718243,0.928203985253,0.266527257817,0.877572390615,0.0218656916392,0.0719953652824
1.775,0.393419572553,5,-5.53707291634,0.732103002305,1.63966328758,94985.2426802,16.8875211345,19.9405219557,0.906170689441,0.14066988702,1.78881809245,-0.53813824937,0.0744702421858,0.928147885204,0.266483087125,0.87745091019,0.0218513783053,0.0719502013795
1.8,0.393419572553,5,-5.5727086234,0.739506893406,1.63940585418,94970.3296344,16.8771786667,19.9405219557,0.906317582755,0.140532810323,1.78818266791,-0.523064283099,0.145997275983,0.928117094262,0.266511921435,0.877571892964,0.0218468809899,0.0719375276064
1.825,0.393419572553,5,-5.60702748005,0.751628663059,1.63922113542,94959.6289277,16.8767552386,19.9405219557,0.90638654946,0.140527198304,1.78807041043,-0.498710988291,0.214903140627,0.92818030038,0.266540407923,0.877633569007,0.0218442927145,0.0719263721658
1.85,0.393419572553,5,-5.63940792589,0.768248769802,1.63899880373,94946.7493137,16.8566212758,19.9405219557,0.906733584129,0.140260347377,1.78842062271,-0.465420079587,0.279969378843,0.928182887952,0.266622889545,0.877924252088,0.021845125463,0.0719306788196
1.875,0.393419572553,5,-5.66926350775,0.789066201276,1.63900255549,94946.9666522,16.845433247,19.9405219557,0.907045229185,0.140112063808,1.78898596745,-0.423771721061,0.340054976613,0.928305914724,0.266720123771,0.878192925152,0.0218531921688,0.0719530213293
1.9,0.393419572553,5,-5.6960535011,0.813703925954,1.63927731545,94962.8834211,16.8418742791,19.9405219557,0.907172926224,0.140064894063,1.78981415225,-0.374460469532,0.394073178688,0.928374267952,0.266763407781,0.878304148283,0.0218640672364,0.0719862634527
1.925,0.393419572553,5,-5.71929270334,0.84171572169,1.63958022627,94980.4309614,16.8324899477,19.9405219557,0.907354781789,0.139940516287,1.79079084448,-0.318329944153,0.441025696007,0.928396009919,0.266810414246,0.878457882305,0.0218760023034,0.0720254743842
1.95,0.393419572553,5,-5.73856022144,0.872594257401,1.64033285338,95024.0304427,16.8382301932,19.9405219557,0.907312559766,0.140016596184,1.79235024681,-0.256462775026,0.480212391943,0.928453335844,0.266811561253,0.878426046459,0.0218961848089,0.0720890015556
1.975,0.393419572553,5,-5.75350709487,0.905780281506,1.64071763352,95046.3206503,16.818553319,19.9405219557,0.907615065541,0.139755803405,1.79373432646,-0.189798522556,0.510670938438,0.928418271107,0.266875906376,0.878677439325,0.0219117416149,0.0721434665076
2,0.393419572553,5,-5.76386261576,0.940672750725,1.64118021464,95073.1178473,16.8199054178,19.9405219557,0.907709417741,0.139773723812,1.79488395364,-0.1195954474,0.531910175666,0.928538460745,0.266921329722,0.878763952756,0.0219278304438,0.0721912594103
2.025,0.393419572553,5,-5.76943923178,0.976639715775,1.64139541854,95085.5845498,16.7856285299,19.9405219557,0.908288068703,0.139319425798,1.79631357949,-0.0471262427918,0.543557541177,0.928530202631,0.267055382577,0.87924885032,0.0219445969575,0.072250038398
2.05,0.393419572553,5,-5.77013594296,1.01302976682,1.64158976661,95096.84308,16.7679463125,19.9405219557,0.908795560466,0.139085069742,1.79762176404,0.0263075089639,0.545412964147,0.928739519525,0.267214639412,0.879687651289,0.0219628835536,0.0723032147165
2.075,0.393419572553,5,-5.76594013092,1.04918383135,1.64177580669,95107.6203304,16.7314153565,19.9405219557,0.909526714699,0.138600896827,1.7992982638,0.0993973309187,0.537447743926,0.928847471146,0.267405969958,0.880308525793,0.0219835912972,0.072370646211
2.1,0.393419572553,5,-5.75692778744,1.08444711092,1.64197030935,95118.887816,16.7021361185,19.9405219557,0.91024651172,0.138212836518,1.80098529489,0.170836543326,0.519765029384,0.929070436292,0.2676164893,0.880927304,0.022006111449,0.0724386770076
2.125,0.393419572553,5,-5.7432621381,1.11818094037,1.64223214148,95134.0556795,16.699942422,19.9405219557,0.910459116966,0.138183761768,1.80142772071,0.239162546824,0.492289131482,0.929249082106,0.267700625925,0.88111686544,0.0220200510566,0.0724773739199
2.15,0.393419572553,5,-5.7251906861,1.14977435493,1.64213217447,95128.2646182,16.6655654554,19.9405219557,0.91106112992,0.137728137334,1.80223999165,0.303220504678,0.455902036882,0.929262464713,0.26784230165,0.881624593414,0.0220290225967,0.0725103091275
2.175,0.393419572553,5,-5.70304072959,1.17865515561,1.64219196602,95131.728326,16.6670973459,19.9405219557,0.911240451878,0.137748440659,1.80270079455,0.361826887025,0.411214525964,0.92947214184,0.267924739107,0.881788029073,0.0220374074846,0.0725290325057
2.2,0.393419572553,5,-5.67721343392,1.20430027249,1.64189472667,95114.5093324,16.6708127974,19.9405219557,0.911167631204,0.137797684402,1.80249150518,0.41371771289,0.358865583886,0.92946279987,0.267906122313,0.881726127325,0.0220278998767,0.0724976894282
2.225,0.393419572553,5,-5.64817656595,1.22624523819,1.64152746898,95093.2341956,16.6826428059,19.9405219557,0.910942723674,0.137954476622,1.80129660462,0.457856389622,0.299867471488,0.929440141222,0.267849795455,0.881535348418,0.0220134173519,0.0724495813119
2.25,0.393419572553,5,-5.61645602219,1.24409260004,1.64108687507,95067.7107114,16.7006149012,19.9405219557,0.91056409942,0.138192674652,1.79956558941,0.493493314181,0.235444533506,0.929367990289,0.267748171703,0.881212296232,0.0219932543881,0.0723841588821
2.275,0.393419572553,5,-5.58262630413,1.25751911845,1.6401698871,95014.589851,16.7108247109,19.9405219557,0.910281789278,0.13832799313,1.79690399774,0.519843780199,0.166794490985,0.929258362297,0.267661380793,0.88096819171,0.0219615617944,0.0722832607521
2.3,0.393419572553,5,-5.54730011318,1.26628162121,1.63908579348,94951.788606,16.7274554987,19.9405219557,0.909935897139,0.13854841378,1.7942160596,0.536722518642,0.0953390465488,0.929196074585,0.267569004535,0.88067350799,0.0219249703384,0.0721635922444
2.325,0.393419572553,5,-5.51111725393,1.27022140767,1.63777528073,94875.8709637,16.7421237512,19.9405219557,0.909585294326,0.138742823435,1.79074274866,0.543589253936,0.0223639563614,0.92909460024,0.267467753947,0.880372636619,0.0218816412737,0.0720236287828
2.35,0.393419572553,5,-5.47473304634,1.26926712304,1.6363220812,94791.6875149,16.768970376,19.9405219557,0.9090378865,0.139098642445,1.78662399724,0.540416545125,-0.0507105347627,0.929005086452,0.267322823562,0.87990727888,0.0218309915202,0.0718578686542
2.375,0.393419572553,5,-5.43880645707,1.26343605069,1.6351657731,94724.7029052,16.7689528179,19.9405219557,0.908877842353,0.139098409734,1.78380883871,0.52783047655,-0.122609706762,0.928841219654,0.267253613628,0.879762925971,0.021794504589,0.0717445757496
2.4,0.393419572553,5,-5.40398816471,1.25283379913,1.63418361693,94667.8068688,16.7685341603,19.9405219557,0.908885115875,0.139092860943,1.78149965221,0.505931348644,-0.192123827911,0.928841326839,0.267255331994,0.879769040911,0.0217684708418,0.0716589134882
2.425,0.393419572553,5,-5.37090877509,1.23765238932,1.63342020401,94623.5825687,16.7687035665,19.9405219557,0.90888471597,0.139095106214,1.78000262783,0.475153892214,-0.258100489289,0.928843882581,0.267255735537,0.879768860166,0.0217481700411,0.0715919631409
2.45,0.393419572553,5,-5.34016740021,1.2181667769,1.63249605727,94570.0470023,16.7568257735,19.9405219557,0.909087086872,0.138937680668,1.77835421236,0.435783558604,-0.319262263973,0.928842848423,0.267302734638,0.879938781212,0.0217273881693,0.0715247881415
2.475,0.393419572553,5,-5.31232080747,1.19472987237,1.63202968975,94543.0304606,16.760849798,19.9405219557,0.90908914123,0.138991014167,1.77735844055,0.388769545271,-0.374693175977,0.92891535345,0.267317320059,0.879944895501,0.0217161607689,0.0714844246316
2.5,0.393419572553,5,-5.28787333592,1.16776614941,1.63169901281,94523.8744364,16.7661346503,19.9405219557,0.908974605858,0.139061058387,1.77643575074,0.33476152387,-0.423278745866,0.92889079075,0.267285831011,0.879847200708,0.0217048044828,0.0714475263945
2.525,0.393419572553,5,-5.26726776196,1.13776395711,1.63195589098,94538.7553177,16.7789207592,19.9405219557,0.908724097669,0.139230522542,1.77656961047,0.274915433771,-0.464429779143,0.928858530454,0.267221077714,0.879634878639,0.0217063790768,0.0714527771845
2.55,0.393419572553,5,-5.25087728009,1.10526667529,1.63229669568,94558.4980402,16.7696939191,19.9405219557,0.908805712636,0.139108232119,1.77742964358,0.210154862311,-0.497349714476,0.928780473315,0.267224968992,0.879698664038,0.0217157622196,0.071487807016
2.575,0.393419572553,5,-5.23899874387,1.0708628732,1.63276972636,94585.9005771,16.7721089121,19.9405219557,0.908819479023,0.139140239884,1.7783809831,0.141551768533,-0.521361719129,0.928836802678,0.267239131267,0.879713645755,0.021729501812,0.0715304647522
2.6,0.393419572553,5,-5.23184728946,1.0351756497,1.63337256757,94620.8230026,16.763855653,19.9405219557,0.908946370806,0.13903085308,1.77974658235,0.0703174854379,-0.536047648805,0.92882205977,0.267265878288,0.879819318618,0.021747726876,0.0715918933016
2.625,0.393419572553,5,-5.22955243928,0.998851348143,1.63411571023,94663.8730525,16.7681508741,19.9405219557,0.908922126048,0.139087780955,1.78157772844,-0.00229864286654,-0.541210421985,0.928872442331,0.267270018539,0.879802011375,0.0217678578983,0.0716556434835
2.65,0.393419572553,5,-5.23215575613,0.962547850205,1.63503419489,94717.0806157,16.7662106226,19.9405219557,0.908929692201,0.139062065306,1.78360286331,-0.0750318151232,-0.536600432765,0.928846222385,0.267266685686,0.879806775431,0.0217920630713,0.0717366052997
2.675,0.393419572553,5,-5.23961009045,0.926922660789,1.6358713012,94765.5739539,16.7476849225,19.9405219557,0.909258502337,0.138816529925,1.78600026187,-0.146597431082,-0.522357439823,0.928858066684,0.267345631638,0.880083726867,0.0218208266158,0.0718326845053