time,root_dist,x,y,z,rel_vel_mag,Re,alpha_deg,alpha_geom_deg,cl,cd,fx,fy,fz,end_effect_factor,c_ref_t,c_ref_n,f_ref_t,f_ref_n
0.00625,0.766685414317,5,-5.10149163782,0.751668995559,2.65305208705,130385.038466,11.5750925508,11.5750925508,0.839295493031,0.0324719144019,3.6681410071,-0.53196992427,-0.853676985402,0.56063065912,0.22212027693,0.81002094567,0.0404538740288,0.147525861888
0.0135416666667,0.766685414317,5,-5.11155141491,0.736210502037,2.65244688304,130355.295534,11.5454098084,11.5750925508,1.28645900623,0.0321786489073,5.59673166119,-0.906786519018,-1.33530691334,0.858590486161,0.356596835984,1.23646711915,0.0649159228104,0.225090062402
0.02265625,0.766685414317,5,-5.12496702202,0.717462448648,2.65262013536,130363.810071,11.4870626801,11.5750925508,1.28891816403,0.0316244314693,5.60897009788,-0.971380276833,-1.28938484896,0.858861072359,0.356604102352,1.23900914138,0.0649257263975,0.225582285752
0.036328125,0.766685414317,5,-5.1467747852,0.690631045311,2.65270625264,130368.04233,11.4214108803,11.5750925508,1.29139685847,0.0310887127836,5.62115536216,-1.06319558735,-1.21391459623,0.859264747262,0.356436459239,1.24162208609,0.0648994178838,0.226072694109
0.05,0.766685414317,5,-5.17049785621,0.665477146172,2.65313604785,130389.164745,11.3277663936,11.5750925508,1.29525981889,0.0303245737717,5.64128957557,-1.1495270707,-1.13227431193,0.860055912315,0.356285155643,1.24566386561,0.0648928917179,0.226882116943
0.0666666666667,0.766685414317,5,-5.20182051354,0.637279451438,2.65366914339,130415.363885,11.2527117042,11.5750925508,1.29871675556,0.0297121275062,5.65979006941,-1.24683984458,-1.02498208616,0.860926861717,0.356261901332,1.24924996673,0.0649147350554,0.227626727149
0.0833333333333,0.766685414317,5,-5.23554537853,0.612003923116,2.65365290464,130414.565827,11.1805834091,11.5750925508,1.30164933645,0.0292346271639,5.67380445079,-1.332765056,-0.908400624124,0.861835913305,0.356010239228,1.2523587218,0.0648680856148,0.228190382844
0.1,0.766685414317,5,-5.27140075533,0.589854187111,2.653883423,130425.89472,11.12883171,11.5750925508,1.30407867316,0.0288951360175,5.68631234605,-1.40872815534,-0.785170010617,0.862711287631,0.35591787157,1.2549018222,0.0648625229721,0.22869348457
0.116666666667,0.766685414317,5,-5.30909778416,0.571008687172,2.65415648296,130439.314333,11.0903102473,11.5750925508,1.30585445684,0.0286424352221,5.69592427014,-1.47342446753,-0.655677603063,0.863340424695,0.355836786517,1.25676427102,0.0648610911686,0.229080030645
0.133333333333,0.766685414317,5,-5.34833276844,0.555619247307,2.6544131385,130451.927747,11.0745126057,11.5750925508,1.30690207742,0.0285388026935,5.70187445387,-1.52683318224,-0.521108442283,0.863809295964,0.355896495184,1.25783352951,0.0648845215025,0.22931927624
0.15,0.766685414317,5,-5.38878962143,0.543809848647,2.65475327851,130468.644029,11.070559169,11.5750925508,1.30727791794,0.0285128681489,5.70503098543,-1.56801962341,-0.382253004411,0.864001720607,0.355944669393,1.25820981188,0.0649099363751,0.229446669267
0.166666666667,0.766685414317,5,-5.43014241272,0.535675630627,2.65531610735,130496.304421,11.0727839997,11.5750925508,1.30730312386,0.0285274630378,5.70751199105,-1.5968439101,-0.240245117829,0.864049888585,0.355986962192,1.25822436654,0.0649451779092,0.229546623931
0.183333333333,0.766685414317,5,-5.47205799401,0.531282124519,2.65579244448,130519.714152,11.0704461515,11.5750925508,1.3073122051,0.0285121267536,5.70960526037,-1.61236661996,-0.0961191371679,0.864022781011,0.355952946965,1.25824307768,0.0649622731676,0.229632402878
0.2,0.766685414317,5,-5.514198683,0.530664725494,2.65644587861,130551.827368,11.0847888097,11.5750925508,1.30704796262,0.0286062145913,5.71102242861,-1.6159637872,0.0488873493957,0.864051265647,0.356100438966,1.25792892067,0.0650211747745,0.229688052176
0.216666666667,0.766685414317,5,-5.55622498389,0.533828407472,2.65713248508,130585.570848,11.0891792153,11.5750925508,1.30668959657,0.0286350156525,5.71233027323,-1.60573620522,0.193667940559,0.863876541062,0.356064136233,1.25756749194,0.0650481588906,0.229740773381
0.233333333333,0.766685414317,5,-5.59779832242,0.540747683047,2.65802255496,130629.313598,11.081286074,11.5750925508,1.30677780997,0.0285832366452,5.71663580769,-1.58251108914,0.336997602425,0.863823069888,0.355966264296,1.25768567804,0.0650738531776,0.229916318947
0.25,0.766685414317,5,-5.63858377348,0.551366808826,2.65901202069,130677.941188,11.0755085915,11.5750925508,1.30704702646,0.0285453363602,5.72222412902,-1.54703276197,0.47788180202,0.863919205743,0.355954615028,1.2579678365,0.065120179326,0.230139145949
0.266666666667,0.766685414317,5,-5.6782527594,0.565600234506,2.65985449772,130719.344973,11.0614356695,11.5750925508,1.30745504712,0.0284530179918,5.72790413943,-1.49847538779,0.614888390783,0.863989586498,0.355853432826,1.25841829644,0.0651429284784,0.230367464576
0.283333333333,0.766685414317,5,-5.71648569702,0.583333292091,2.66082651689,130767.115147,11.0338664163,11.5750925508,1.30830538684,0.0282721636906,5.73628698175,-1.43760047169,0.746927782418,0.864161067199,0.35566955794,1.25934962025,0.0651568639878,0.230706480462
0.3,0.766685414317,5,-5.75297457235,0.604423119685,2.66190883014,130820.305755,10.998274883,11.5750925508,1.30955704686,0.0280415814291,5.74709088138,-1.3651868339,0.873047876814,0.86449719015,0.355473124634,1.26070014156,0.0651738660883,0.231141812164
0.325,0.766685414317,5,-5.803799151,0.641973075945,2.66302731693,130875.274122,10.9845036574,11.5750925508,1.30884950353,0.027974377848,5.74914297834,-1.23508905441,1.04801896427,0.863942143229,0.355027994633,1.26008916817,0.0651469668809,0.231223983873
0.35,0.766685414317,5,-5.84912152071,0.686007378635,2.66439604081,130942.540467,10.8799053213,11.5750925508,1.3101170708,0.0274639379681,5.76293319884,-1.07989612961,1.20071286177,0.86411063494,0.353583046332,1.2618003156,0.0649485337315,0.231776045855
0.375,0.766685414317,5,-5.88812083276,0.735728507641,2.66453811848,130949.522917,10.7694294962,11.5750925508,1.31313125198,0.0269248159415,5.77901518419,-0.906276118849,1.3309972968,0.865392442239,0.352534087029,1.26521079198,0.0647627601025,0.232427291472
0.4,0.766685414317,5,-5.92009075744,0.790235946819,2.66384628202,130915.522407,10.657962125,11.5750925508,1.31563531906,0.0264765745599,5.78955374943,-0.716300953417,1.43452324413,0.866750159964,0.351218237813,1.26816523024,0.0644875293144,0.232849076887
0.425,0.766685414317,5,-5.94445227666,0.848542493544,2.6629072879,130869.37526,10.5669941764,11.5750925508,1.31797346037,0.0261272576376,5.79770900799,-0.515334018012,1.51224843787,0.868124058215,0.350204912587,1.27086316928,0.0642561476804,0.23317997136
0.45,0.766685414317,5,-5.96076417073,0.909592138275,2.66145380177,130797.943249,10.5135579204,11.5750925508,1.31982879358,0.0259220624142,5.80070551043,-0.306871323674,1.56397140991,0.869248225906,0.349742849093,1.27291002714,0.0641013337598,0.233300639906
0.475,0.766685414317,5,-5.96873100943,0.972279190295,2.6599986007,130726.426958,10.4582504353,11.5750925508,1.32020278257,0.0257698010448,5.7973158678,-0.0937269722756,1.58482882673,0.869909799995,0.34876579147,1.27356267708,0.0638523750036,0.233165074203
0.5,0.766685414317,5,-5.96820850266,1.03546830325,2.6589016415,130672.51657,10.4142553464,11.5750925508,1.32053863911,0.0256642128314,5.79509326608,0.119554761228,1.5782135205,0.870595481439,0.347983835625,1.27412252133,0.0636566784146,0.23307521585
0.525,0.766685414317,5,-5.9592061137,1.09801503781,2.65932181518,130693.166131,10.3830906635,11.5750925508,1.32086745653,0.0255894175923,5.79926942297,0.329994655135,1.54604402064,0.871141594383,0.34745513098,1.27460605207,0.0635800522297,0.233237365453
0.55,0.766685414317,5,-5.94188688787,1.15878658893,2.65957027035,130705.376534,10.390761932,11.5750925508,1.32157758076,0.0256078286368,5.80329696502,0.535244984681,1.48953222134,0.871528804414,0.347808208775,1.2752460597,0.0636565541058,0.233398084775
0.575,0.766685414317,5,-5.9165644995,1.21668230257,2.65904210306,130679.419595,10.3907526028,11.5750925508,1.32143285781,0.0256078062468,5.80041059332,0.730032664852,1.40346344881,0.871433463925,0.347767244321,1.27510725087,0.0636237789326,0.233279997382
0.6,0.766685414317,5,-5.88369757093,1.27065360991,2.65854570197,130655.023815,10.3438859682,11.5750925508,1.32068155628,0.0254953263238,5.79622738692,0.908542268672,1.28801334554,0.871433579859,0.346620964991,1.2746386513,0.0633903933187,0.23310720818
0.625,0.766685414317,5,-5.84388136618,1.31972301839,2.65899100783,130676.908505,10.3049115351,11.5750925508,1.32093938469,0.0254017876842,5.80024354805,1.07143574712,1.1523936886,0.872016332135,0.345915899794,1.27509540784,0.0632826446161,0.233268865624
0.65,0.766685414317,5,-5.79783700997,1.36300181541,2.66040548826,130746.423568,10.3172123686,11.5750925508,1.32187174172,0.0254313096847,5.8102190332,1.21955416486,1.00062410308,0.872501461586,0.34642286556,1.27592431253,0.0634428345405,0.233668914767
0.675,0.766685414317,5,-5.74639842717,1.39970616405,2.66078705925,130765.175989,10.3478746603,11.5750925508,1.32213186095,0.0255048991848,5.81235035134,1.34592791983,0.829695792448,0.872348298554,0.347108120092,1.27600905584,0.0635865659748,0.233751471997
0.7,0.766685414317,5,-5.69049723931,1.42917129949,2.66091108832,130771.271435,10.3773856681,11.5750925508,1.32202700437,0.0255757256035,5.81174516607,1.44761974439,0.642558263364,0.871966709497,0.347667817547,1.27574942942,0.0636950343813,0.233725699268
0.725,0.766685414317,5,-5.63114589168,1.45086356871,2.66010909621,130731.857292,10.342606715,11.5750925508,1.3209128292,0.025492256116,5.80427423108,1.51548084266,0.440818687141,0.871599719275,0.34666043117,1.27486748445,0.0634721965258,0.233423351043
0.75,0.766685414317,5,-5.56941931655,1.4643900957,2.65912968008,130683.723594,10.3071778146,11.5750925508,1.32099985775,0.025407226755,5.80124870982,1.55672839587,0.232707420544,0.872032248135,0.345978068495,1.27514129706,0.0633006199176,0.233301593184
0.775,0.766685414317,5,-5.50643546475,1.46950589697,2.65802024633,130629.20014,10.2757510073,11.5750925508,1.32116338425,0.0253318024176,5.79779902161,1.56989820415,0.0215184188816,0.8724732397,0.345396772241,1.27546676077,0.063141544735,0.233166456682
0.8,0.766685414317,5,-5.44333505808,1.46611831851,2.65702395535,130580.237122,10.2653594601,11.5750925508,1.32158932021,0.0253068627043,5.79563905274,1.55702513365,-0.189283997775,0.87286473534,0.345308504323,1.27593134825,0.0630780955648,0.233076563453
0.825,0.766685414317,5,-5.38126092929,1.4542887139,2.65621048197,130540.258729,10.277013595,11.5750925508,1.32197262137,0.025334832628,5.7934594008,1.51806854497,-0.396783020974,0.872994252507,0.345648444945,1.27623689725,0.0631015370662,0.232989649034
0.85,0.766685414317,5,-5.32133732388,1.43423133311,2.65582867322,130521.494624,10.3036851747,11.5750925508,1.32218102432,0.0253988444193,5.79198560416,1.45309059916,-0.59786808388,0.872849001044,0.346239476352,1.27629384837,0.0631912653029,0.232933067098
0.875,0.766685414317,5,-5.26464953848,1.40630944212,2.65408493493,130435.798084,10.2514047443,11.5750925508,1.32083838421,0.0252733713862,5.77982719248,1.35230663059,-0.78330936136,0.872516734052,0.344820054103,1.27528503119,0.0628495985301,0.232443418728
0.9,0.766685414317,5,-5.2122242647,1.37102874372,2.65223644193,130344.953343,10.176715697,11.5750925508,1.31988238262,0.0251380882545,5.76936295633,1.22670548388,-0.951452087159,0.873168231191,0.343021339663,1.2747775445,0.0624346919397,0.232027381623
0.925,0.766685414317,5,-5.16501099437,1.32902821855,2.65050010473,130259.620532,10.1326131114,11.5750925508,1.32013494915,0.0250587036004,5.76396237598,1.08376655232,-1.10340043564,0.874100400937,0.342186337666,1.27526182915,0.0622011874367,0.23181170998
0.95,0.766685414317,5,-5.12386482296,1.28106855229,2.64983578783,130226.972479,10.1364419083,11.5750925508,1.32106789638,0.025065595435,5.76500093711,0.926239355689,-1.23952395666,0.874651611454,0.342523834205,1.27613717677,0.0622313292887,0.231854559988
0.975,0.766685414317,5,-5.08953096266,1.22801835864,2.65018976879,130244.368979,10.1629830849,11.5750925508,1.32169197432,0.0251133695528,5.76850696445,0.753183231572,-1.35584870379,0.874603734898,0.34324251546,1.27659113732,0.0623785651208,0.23199900888
1,0.766685414317,5,-5.06263124559,1.17083844755,2.65102635012,130285.483018,10.1396354824,11.5750925508,1.3205782567,0.0250713438683,5.76783230189,0.563360981439,-1.44227774402,0.874271974398,0.342453536507,1.2756492777,0.0622744790103,0.231974226282
1.025,0.766685414317,5,-5.04365286162,1.1105644237,2.65098683412,130283.540993,10.0584783502,11.5750925508,1.31888975046,0.0249252610303,5.76228398419,0.362315175717,-1.49543124356,0.874563804694,0.340320325037,1.27446989721,0.061884713905,0.231752849203
1.05,0.766685414317,5,-5.03293953466,1.04828793026,2.65102362069,130285.34888,10.0347548362,11.5750925508,1.31979827015,0.0248825587052,5.76706140525,0.158134560685,-1.52954167018,0.875579467252,0.340084214001,1.27547220393,0.0618434951872,0.231941548175
1.075,0.766685414317,5,-5.03068529738,0.985136877818,2.65281625573,130373.448465,10.1480627289,11.5750925508,1.32322365244,0.025086512912,5.78680037433,-0.0492082594558,-1.55378926278,0.87587672542,0.343361216978,1.27814445279,0.0625238825008,0.232741933665
1.1,0.766685414317,5,-5.03693097705,0.9222550164,2.65451350584,130456.86033,10.2058181261,11.5750925508,1.32259614645,0.0251904726269,5.78994598349,-0.258481370083,-1.53958120458,0.874458450812,0.344374731433,1.27722400966,0.0627887033609,0.232872020355
1.125,0.766685414317,5,-5.05156345604,0.860781220613,2.65476179788,130469.062716,10.1625761772,11.5750925508,1.32037148439,0.0251126371189,5.78210090207,-0.460899939692,-1.4846012656,0.873736984549,0.342867129652,1.27532491262,0.0625255224334,0.232569265285
1.15,0.766685414317,5,-5.07431772059,0.801828863116,2.65450477879,130456.431436,10.1152616441,11.5750925508,1.31994665247,0.0250274709594,5.78022735161,-0.653848963744,-1.40450280326,0.874277059104,0.341777943854,1.2751758219,0.0623148299508,0.232497052334
1.175,0.766685414317,5,-5.10478166055,0.746465649948,2.65455047839,130458.677357,10.0823435319,11.5750925508,1.31997581692,0.0249682183574,5.78131227748,-0.83490171653,-1.3014744154,0.874868634216,0.341110269182,1.2753836103,0.0621952372757,0.232542944106
1.2,0.766685414317,5,-5.14240353321,0.695694282944,2.65451063638,130456.719309,10.047475049,11.5750925508,1.31968178677,0.0249054550883,5.78103266837,-0.999777130252,-1.17486050811,0.87528059954,0.340313214656,1.27529103186,0.0620480463238,0.232519084225
1.225,0.766685414317,5,-5.18650195614,0.650434299463,2.65437291608,130449.951004,10.0235778431,11.5750925508,1.31971242402,0.0248624401176,5.78144594295,-1.14678744962,-1.02846366686,0.87571731943,0.339831073385,1.27545045557,0.0619537102768,0.232524022038
1.25,0.766685414317,5,-5.23627824793,0.611505418339,2.65436253708,130449.440925,10.0148807139,11.5750925508,1.31993522523,0.024846785285,5.7825565831,-1.27404189546,-0.864857778575,0.87601683101,0.33971388799,1.27571189374,0.0619318621863,0.232569865366
1.275,0.766685414317,5,-5.29083089336,0.579612693672,2.65426972857,130444.879823,9.99009233354,11.5750925508,1.31938202554,0.024806129267,5.77978854811,-1.37570173353,-0.684498076608,0.876125876114,0.33904886309,1.2753157028,0.0618063019098,0.232481379349
1.3,0.766685414317,5,-5.34917187106,0.555333745361,2.65415006268,130438.998807,9.98748504096,11.5750925508,1.31976432486,0.0248024790573,5.78089519963,-1.45521368931,-0.493599763159,0.876436794204,0.339099473223,1.27569768495,0.0618099540992,0.232530043771
1.325,0.766685414317,5,-5.41024454789,0.539108297632,2.65364161657,130414.011071,10.0013510264,11.5750925508,1.32026154316,0.0248224318475,5.7809378611,-1.50974573008,-0.294012475983,0.876469507505,0.339525863713,1.27609908837,0.0618639662436,0.232514100878
1.35,0.766685414317,5,-5.47294281601,0.531230215043,2.65291148947,130378.128756,9.99168630839,11.5750925508,1.31969006996,0.0248083608317,5.77554673711,-1.53309414921,-0.0884895140578,0.8762955556,0.339166933272,1.27560304441,0.0617645645987,0.232295836975
1.375,0.766685414317,5,-5.53613112591,0.531842180206,2.65215261916,130340.833848,9.99689404707,11.5750925508,1.32004426822,0.0248156516659,5.77372583901,-1.53116730397,0.118171258301,0.87641679581,0.339373328076,1.27591474277,0.0617667982866,0.232219688548
1.4,0.766685414317,5,-5.5986650528,0.540933109613,2.65141093396,130304.383506,9.99588108109,11.5750925508,1.31991248753,0.0248142335135,5.76969999217,-1.50027577529,0.322447102337,0.876351463363,0.339315874489,1.27579365817,0.0617218055978,0.232067798983
1.425,0.766685414317,5,-5.65941202363,0.558338354375,2.65075443871,130272.119851,9.9811460692,11.5750925508,1.31944608889,0.0247936044969,5.76546411276,-1.44089299534,0.52007157627,0.876364170674,0.338879382242,1.27542677901,0.0616118855238,0.231886189659
1.45,0.766685414317,5,-5.71727182951,0.583742682231,2.65049006303,130259.127029,9.98463911553,11.5750925508,1.3198395659,0.0247984947617,5.7658017932,-1.35843652973,0.709056579858,0.876549049776,0.33906062693,1.27578577211,0.0616325419332,0.231905192912
1.475,0.766685414317,5,-5.77119655197,0.616685986826,2.65061472076,130265.253371,9.99659494737,11.5750925508,1.32016758962,0.0248152329263,5.76741452642,-1.25228900388,0.886000637181,0.876505217131,0.339401003233,1.27603496013,0.0617002169857,0.231972307598
1.5,0.766685414317,5,-5.82020954216,0.656571620855,2.65083672642,130276.163905,10.0091963528,11.5750925508,1.32029563916,0.024836553435,5.76878243917,-1.12317750544,1.0472406377,0.876355215435,0.339696406142,1.27608925269,0.0617642637148,0.232021039086
1.525,0.766685414317,5,-5.86342310929,0.702677202142,2.65126497951,130297.210532,9.99993794687,11.5750925508,1.31981373594,0.0248199131256,5.76865828216,-0.971759339107,1.1877992641,0.876197158787,0.339373568677,1.2756762546,0.0617255039404,0.23202089658
1.55,0.766685414317,5,-5.90005459786,0.754167696946,2.65186404034,130326.651555,9.99428607189,11.5750925508,1.31980242398,0.0248120005006,5.77059401195,-0.80343899575,1.30747448709,0.876313280463,0.339252224539,1.27569667314,0.0617313210644,0.232129475399
1.575,0.766685414317,5,-5.92944056262,0.810110543542,2.65274905845,130370.146035,9.98094284022,11.5750925508,1.31946951812,0.0247933199763,5.77328611931,-0.620335245525,1.40290631093,0.876384180118,0.338881572492,1.27545042937,0.0617050417148,0.232239603266
1.6,0.766685414317,5,-5.95104878444,0.869492542158,2.65350998902,130407.542195,9.96993468095,11.5750925508,1.31935877224,0.0247779085533,5.77671450652,-0.426285065364,1.47329021445,0.876551600112,0.338620910812,1.27540479589,0.0616929568324,0.232364542486
1.625,0.766685414317,5,-5.96448790953,0.93123820538,2.6541721512,130440.084354,9.95714190991,11.5750925508,1.31914503144,0.0247599986739,5.77875375758,-0.224487728159,1.5164210902,0.876689760067,0.33829468547,1.2752699233,0.0616642863524,0.232455941831
1.65,0.766685414317,5,-5.96951453735,0.994229236667,2.65435792947,130449.214482,9.90977132769,11.5750925508,1.31782489914,0.0246936798588,5.77470662592,-0.0187663091188,1.52684392519,0.876850361807,0.336942673127,1.27426130666,0.0614264399788,0.232304608212
1.675,0.766685414317,5,-5.96603762896,1.0573247842,2.65402874217,130433.036474,9.87716133446,11.5750925508,1.31764341532,0.0246480258682,5.77387679407,0.185986278318,1.5120266982,0.877445463957,0.336211714877,1.27426581916,0.0612779804724,0.232247814481
1.7,0.766685414317,5,-5.95412015582,1.11938210322,2.65407953105,130435.532509,9.88141351942,11.5750925508,1.31839951775,0.0246539789272,5.77587130508,0.387587063093,1.47435078419,0.877855503705,0.336507144564,1.27496982268,0.0613341728946,0.232385020059
1.725,0.766685414317,5,-5.93397795931,1.17927725268,2.65434062381,130448.363991,9.86818600584,11.5750925508,1.31788261413,0.0246354604082,5.77501179503,0.581427974972,1.40746760839,0.87780201947,0.336089488947,1.27454515258,0.0612701010338,0.232353325049
1.75,0.766685414317,5,-5.90597584154,1.23592545133,2.65522762974,130491.956163,9.89928307199,11.5750925508,1.3191589918,0.0246789963008,5.78366188536,0.767934998938,1.32144732876,0.877968412654,0.337088442739,1.27560216379,0.0614932913071,0.232701467938
1.775,0.766685414317,5,-5.87062095831,1.28830072452,2.65627753476,130543.554059,9.92145532184,11.5750925508,1.31930297213,0.0247100374506,5.78958052404,0.940766439326,1.2093891192,0.877577311003,0.337591630524,1.27561859865,0.0616337976509,0.232888530048
1.8,0.766685414317,5,-5.82855363384,1.33545448601,2.65717322305,130587.572928,9.9382417015,11.5750925508,1.31943772884,0.0247335383821,5.79310294082,1.09652905784,1.07397164624,0.877298622133,0.337979691164,1.2756556732,0.0617462657641,0.233052388295
1.825,0.766685414317,5,-5.78053576366,1.37653271811,2.65741225434,130599.320192,9.91309185622,11.5750925508,1.31829113654,0.0246983285987,5.79003846797,1.22802475383,0.914940045159,0.877087722644,0.337139686988,1.27469147623,0.0616038854264,0.232918136566
1.85,0.766685414317,5,-5.72743701559,1.41079143909,2.65676647424,130567.583136,9.89151266763,11.5750925508,1.31805419768,0.0246681177347,5.78777781414,1.33729875454,0.740403057964,0.877403728354,0.336623860204,1.27458219068,0.0614797395348,0.232784987526
1.875,0.766685414317,5,-5.67021907899,1.43761017772,2.65575078707,130517.666886,9.87399395609,11.5750925508,1.31788359835,0.0246435915385,5.78310893403,1.42178633926,0.553038237044,0.877675012242,0.336211131896,1.2745142448,0.0613574193136,0.232594633313
1.9,0.766685414317,5,-5.60991824722,1.45650321075,2.65432145266,130447.421819,9.88942949211,11.5750925508,1.31872395345,0.024665201289,5.78010964627,1.48399269336,0.357320325249,0.877895346492,0.336763409578,1.27523787723,0.0613920719183,0.232476252601
1.925,0.766685414317,5,-5.54762664898,1.46712836009,2.65250044571,130357.927887,9.89134905815,11.5750925508,1.3184956784,0.0246678886814,5.77107830394,1.51633342722,0.154599647643,0.877701207969,0.33674113925,1.2750077505,0.0613038099832,0.23211548502
1.95,0.766685414317,5,-5.48447246843,1.46929319008,2.65024130322,130246.901654,9.90260993635,11.5750925508,1.31883103373,0.0246836539109,5.76168230418,1.52204688029,-0.0503600552605,0.877677069571,0.337068305887,1.27526841703,0.0612588885361,0.231767640113
1.975,0.766685414317,5,-5.42159951224,1.46295849275,2.64810119259,130141.725277,9.90701904585,11.5750925508,1.31876376471,0.0246898266642,5.75259909477,1.49956740289,-0.253946774174,0.877535485874,0.337142095442,1.27517946272,0.0611733823766,0.23137733889
2,0.766685414317,5,-5.36014649374,1.44823899795,2.64637170608,130056.729145,9.90765238319,11.5750925508,1.31870136583,0.0246907133365,5.7447123967,1.44995473868,-0.452395385149,0.87748005966,0.337138261629,1.27511596183,0.0610928085357,0.231063703481
2.025,0.766685414317,5,-5.30122640929,1.4254012954,2.6448969528,129984.251954,9.90705857154,11.5750925508,1.31866981003,0.0246898820002,5.73825681483,1.37447679329,-0.642239905016,0.87747209853,0.337117210451,1.27508887713,0.0610209262481,0.230801341251
2.05,0.766685414317,5,-5.2459063804,1.39485900645,2.64439055159,129959.364715,9.93446120248,11.5750925508,1.31958512874,0.0247282456835,5.73836267178,1.27820432219,-0.822530466569,0.877479562814,0.337941014856,1.27581827413,0.0611466200536,0.230844945823
2.075,0.766685414317,5,-5.1951883268,1.3571652928,2.6442725547,129953.565722,9.9454918916,11.5750925508,1.31943107814,0.0247436886482,5.73709369586,1.15676401515,-0.987204473832,0.877135212797,0.338129524287,1.27560928379,0.0611752688714,0.230786533875
2.1,0.766685414317,5,-5.14999082027,1.31300283801,2.64462462658,129970.8684,9.93475008081,11.5750925508,1.31886844513,0.0247286501131,5.73617398388,1.01281769137,-1.13256317937,0.876996658078,0.33775059906,1.27512745031,0.0611229859382,0.230760796372
2.125,0.766685414317,5,-5.1111324481,1.2631714832,2.64494772196,129986.747019,9.91357035454,11.5750925508,1.31837284222,0.0246989984964,5.73584883091,0.850306103947,-1.25642964422,0.8771315838,0.33717205644,1.27476742819,0.061033196827,0.230752014787
2.15,0.766685414317,5,-5.07931698737,1.20857374086,2.64521281422,129999.775058,9.87627345732,11.5750925508,1.31754241947,0.0246467828402,5.73432037327,0.672023406715,-1.35543827389,0.877397714384,0.336165577963,1.27417353418,0.0608632074398,0.230690746492
2.175,0.766685414317,5,-5.05512065863,1.15019844912,2.64584593097,130030.88977,9.86664399414,11.5750925508,1.3179287816,0.0246333015918,5.73908362833,0.484041379282,-1.43370328564,0.87786667212,0.336069866357,1.27459802206,0.0608750084516,0.230878079628
2.2,0.766685414317,5,-5.03898168976,1.08910286259,2.64666651489,130071.217612,9.88159473602,11.5750925508,1.31860420817,0.0246542326304,5.74636144306,0.287811054617,-1.48913471695,0.877987813327,0.336566860699,1.27516572934,0.0610028543036,0.231124208242
2.225,0.766685414317,5,-5.03119237907,1.02639350405,2.64758961049,130116.583421,9.8772480698,11.5750925508,1.31817828808,0.0246481472977,5.74868046688,0.0852613188562,-1.51443158038,0.87779974023,0.336359631622,1.27477987455,0.0610078279285,0.231215472731
2.25,0.766685414317,5,-5.0318938014,0.963206123846,2.64875765836,130173.987484,9.88696384225,11.5750925508,1.31858108054,0.0246617493792,5.75469379942,-0.119062483978,-1.51475986229,0.877854412692,0.336672801399,1.27511399202,0.0611185218024,0.231480184909
2.275,0.766685414317,5,-5.04107325303,0.900685129952,2.64964807158,130217.747108,9.87328188383,11.5750925508,1.3179459913,0.0246425946374,5.75547169158,-0.321115859924,-1.48385289059,0.877732214857,0.336213290161,1.27457817217,0.0610761459106,0.231538504564
2.3,0.766685414317,5,-5.05856448184,0.839962861181,2.65029015829,130249.302651,9.84404107195,11.5750925508,1.31723917355,0.0246016575007,5.75711871585,-0.516571112553,-1.42487449116,0.877904304113,0.335409475639,1.27405838388,0.0609596596835,0.23155626522
2.325,0.766685414317,5,-5.08405069827,0.782139079032,2.65121486824,130294.747798,9.84319673394,11.5750925508,1.31776339496,0.0246004754275,5.76157409453,-0.703741767386,-1.34361360196,0.878272266513,0.335534733104,1.27456737419,0.0610249869011,0.231810449533
2.35,0.766685414317,5,-5.11707031286,0.728261049536,2.65222748564,130344.513183,9.85133833418,11.5750925508,1.31804820577,0.0246118736678,5.76702785693,-0.879101974941,-1.23881483924,0.878282895112,0.335782551012,1.27479680557,0.0611167181694,0.232029320329
2.375,0.766685414317,5,-5.15702529622,0.679304575864,2.65291893038,130378.494442,9.86184729849,11.5750925508,1.31824141635,0.0246265862179,5.77260590331,-1.03922225703,-1.11141886957,0.878180416275,0.336054936402,1.27492508809,0.0611981924741,0.232173679002
2.4,0.766685414317,5,-5.20319201017,0.636156325231,2.65333775787,130399.077844,9.85144665562,11.5750925508,1.31769952272,0.0246120253179,5.7723616145,-1.17814323425,-0.961078477767,0.878048166773,0.335689720836,1.27446074686,0.0611509876629,0.232162406446
2.425,0.766685414317,5,-5.25473431378,0.599597770163,2.65327364342,130395.92692,9.83747818416,11.5750925508,1.3174347131,0.0245924694578,5.76995147387,-1.29475589376,-0.793100460265,0.878179052951,0.335325660581,1.27428243109,0.0610817165242,0.232118705418
2.45,0.766685414317,5,-5.31071870699,0.570291034988,2.65281018603,130373.150168,9.82593589609,11.5750925508,1.31731729861,0.0245763102545,5.76754629282,-1.38786700091,-0.611337630462,0.878354885961,0.335052525512,1.27423257901,0.0610106437143,0.232028544683
2.475,0.766685414317,5,-5.37013123757,0.548766903874,2.65225288868,130345.761623,9.84989789944,11.5750925508,1.31832676721,0.0246098570592,5.76844846807,-1.46002602818,-0.42020803666,0.878500219738,0.335828405518,1.27507270077,0.0611262351933,0.23208398252
2.5,0.766685414317,5,-5.43189586513,0.535415207623,2.65145462013,130306.530477,9.86592772834,11.5750925508,1.3184033675,0.0246322988197,5.76600838555,-1.50420113718,-0.22050294975,0.878198545765,0.336184443555,1.27505851219,0.0611542111964,0.231941718413
2.525,0.766685414317,5,-5.49489394965,0.530477763312,2.6503937259,130254.392512,9.87205138348,11.5750925508,1.31830269096,0.0246408719369,5.76157056346,-1.51962696818,-0.0165259304283,0.877996825185,0.336284978203,1.27492806503,0.0611235565046,0.231732437287
2.55,0.766685414317,5,-5.55798451157,0.534043994661,2.64941215981,130206.153153,9.87365810805,11.5750925508,1.31824005167,0.0246431213513,5.75636733422,-1.50687826993,0.187518992087,0.877919783717,0.336301459883,1.27485899037,0.0610812845143,0.231548280324
2.575,0.766685414317,5,-5.62002489644,0.546049312449,2.64841041045,130156.921881,9.86452778974,11.5750925508,1.31790831886,0.0246303389056,5.7505372759,-1.46564897171,0.387518668591,0.877899571326,0.336020054201,1.27458993943,0.0609840311649,0.231324385604
2.6,0.766685414317,5,-5.67989146991,0.566276284316,2.64739215771,130106.879545,9.84217821263,11.5750925508,1.31734292504,0.0245990494977,5.74442275092,-1.39672994764,0.579308426678,0.87801443924,0.33539884063,1.2741684006,0.0608244893581,0.23107009606
2.625,0.766685414317,5,-5.73649996827,0.594358572748,2.6467092283,130073.316775,9.85143837874,11.5750925508,1.31807075099,0.0246120137302,5.74476775771,-1.30723463392,0.762153292705,0.878295716611,0.335790790818,1.27481794804,0.0608641558552,0.231068630821
2.65,0.766685414317,5,-5.7888251359,0.629787569945,2.64667814977,130071.789412,9.84995043258,11.5750925508,1.31784669723,0.0246099306056,5.74339744014,-1.19264181773,0.930452105645,0.878179157123,0.335698589128,1.27461053791,0.0608460147561,0.2310256108
2.675,0.766685414317,5,-5.83591929404,0.671921609384,2.64710172326,130092.606058,9.85339494227,11.5750925508,1.31798853926,0.0246147529192,5.74615095808,-1.05766446915,1.08294210152,0.878197884566,0.335809264554,1.27472813318,0.0608855584217,0.231120884434
2.7,0.766685414317,5,-5.87692950449,0.719997587258,2.64756357675,130115.303986,9.82898417378,11.5750925508,1.31711746745,0.0245805778433,5.74441836141,-0.900893402205,1.21275134867,0.878154532559,0.335061787655,1.27402363649,0.0607712340208,0.231073764343