time,root_dist,x,y,z,rel_vel_mag,Re,alpha_deg,alpha_geom_deg,cl,cd,fx,fy,fz,end_effect_factor,c_ref_t,c_ref_n,f_ref_t,f_ref_n
0.00119048,0.224138,5,-1.99306,2.60477,5.88135,29433.8,-19.6431,13.6318,-0.23232,0.389077,-3.52122,-8.07465,0.534818,0.548974,-0.415526,-0.180808,-0.53949,-0.234748
