time,root_dist,x,y,z,rel_vel_mag,Re,alpha_deg,alpha_geom_deg,cl,cd,fx,fy,fz,end_effect_factor,c_ref_t,c_ref_n,f_ref_t,f_ref_n
0.00119048,0.844828,5,-1.97522,2.87418,20.8468,42057.2,-1.77599,9.65798,0.149576,0.0178687,14.8074,-1.22788,0.0813273,0.451114,-0.0124759,0.150122,-0.0820378,0.987158
