time,root_dist,x,y,z,rel_vel_mag,Re,alpha_deg,alpha_geom_deg,cl,cd,fx,fy,fz,end_effect_factor,c_ref_t,c_ref_n,f_ref_t,f_ref_n
0.00625,0.673322084739,5,-5.87037329315,0.802481175025,2.39862143783,120956.123788,12.8378634466,12.8378634466,0.968270067153,0.0393431983297,3.51684635002,-0.510886494597,0.957978124136,0.659456108626,0.285851729908,0.92595010595,0.0436645282098,0.141441069939
0.0135416666667,0.673322084739,5,-5.87784445836,0.817178699845,2.3991948728,120985.040594,12.7941273463,12.8378634466,1.36339180992,0.0389583206471,4.93470057671,-0.690162621296,1.42638807184,0.927863721755,0.417006334425,1.29863801544,0.0637291647817,0.198464889488
0.02265625,0.673322084739,5,-5.88636236358,0.835944562691,2.39909677264,120980.093663,12.7301803559,12.8378634466,1.36519676406,0.0384161995616,4.94184700586,-0.618765308065,1.45723683923,0.928144313128,0.416666900825,1.30062550442,0.0636720834347,0.198752373828
0.036328125,0.673322084739,5,-5.89738715505,0.864820447176,2.39900489735,120975.460636,12.6555272004,12.8378634466,1.36697892788,0.0378368910748,4.94918642141,-0.509130971875,1.49669165368,0.928432356644,0.41610770267,1.3026578213,0.0635817606285,0.199047691843
0.05,0.673322084739,5,-5.90625717756,0.894429321394,2.39904507736,120977.486807,12.5496910965,12.8378634466,1.36976539837,0.0370156029086,4.96124574934,-0.396944758779,1.5275231672,0.929016001978,0.415392503151,1.30578576718,0.0634746034463,0.199532329372
0.0666666666667,0.673322084739,5,-5.91408684149,0.931282096928,2.39905726306,120978.101299,12.4599464794,12.8378634466,1.37220013906,0.0363528296375,4.9716605001,-0.25799302328,1.55463876749,0.929659248676,0.414769848689,1.30851852202,0.0633801017639,0.199951942861
0.0833333333333,0.673322084739,5,-5.91858051946,0.968688480879,2.39914827207,120982.690643,12.369847734,12.8378634466,1.37454342791,0.0357293463192,4.98216302431,-0.117364481682,1.56895887156,0.930360882544,0.414064602278,1.31118142396,0.0632771351581,0.200374056908
0.1,0.673322084739,5,-5.91970200928,1.00634711817,2.39925403245,120988.023858,12.2945470579,12.8378634466,1.37667718896,0.035208265641,4.99170521076,0.0237620388855,1.57126040545,0.931064839902,0.41352645767,1.31357358887,0.0632004678783,0.20075732488
0.116666666667,0.673322084739,5,-5.91744227595,1.0439546215,2.39940816921,120995.796567,12.2503430956,12.8378634466,1.37818901482,0.0349023742212,4.99861934085,0.164483081242,1.56211541449,0.931652809636,0.413291904442,1.31522353158,0.0631727365256,0.201035318475
0.133333333333,0.673322084739,5,-5.91181952444,1.08120801554,2.39967478326,121009.241207,12.2164085439,12.8378634466,1.37871687155,0.0347212934535,5.00235550955,0.303636712644,1.53979291046,0.931997802127,0.412854867925,1.31590905391,0.0631199593746,0.201184804822
0.15,0.673322084739,5,-5.90287905304,1.11780717773,2.40023077824,121037.278561,12.1953879967,12.8378634466,1.3791163704,0.0346094641425,5.00655296579,0.440420667275,1.50615832403,0.932262560205,0.412606911417,1.31640241369,0.0631112852582,0.201353506076
0.166666666667,0.673322084739,5,-5.89069288838,1.15345725617,2.400378635,121044.734585,12.1878863598,12.8378634466,1.37936172419,0.034569555434,5.00820552895,0.573691251457,1.46058321164,0.932426524454,0.412551528169,1.31667575998,0.0631105886196,0.20142012951
0.183333333333,0.673322084739,5,-5.87535920522,1.18787104502,2.40054257564,121053.001678,12.1809189846,12.8378634466,1.37945087376,0.0345324889983,5.00935158937,0.702276671382,1.40312208936,0.9324850314,0.412455264087,1.31679833727,0.0631044814157,0.20146639754
0.2,0.673322084739,5,-5.85700153551,1.22077129828,2.40129948906,121091.170816,12.1832721419,12.8378634466,1.37953037774,0.0345450077947,5.01273303797,0.825914290749,1.33555707782,0.932539368077,0.41252315472,1.31686068644,0.063154676175,0.201603011293
0.216666666667,0.673322084739,5,-5.83576777317,1.25189296338,2.40226868772,121140.044936,12.1688293108,12.8378634466,1.37950861752,0.0344681719334,5.01700708068,0.942494529272,1.25632445254,0.932521016811,0.412256907107,1.31691925463,0.0631648729868,0.201774757485
0.233333333333,0.673322084739,5,-5.81182898264,1.2809853165,2.40288677673,121171.213528,12.1537164207,12.8378634466,1.37968086887,0.0343877713584,5.02052555617,1.05133827396,1.16674333187,0.932633644259,0.41204114816,1.31716510392,0.0631643060303,0.201916289399
0.25,0.673322084739,5,-5.78537802073,1.30781398244,2.40361765641,121208.069853,12.1393432133,12.8378634466,1.37986055264,0.0343113058945,5.02453495273,1.1518629378,1.06790589155,0.932751481459,0.411840963566,1.31741391793,0.0631720307209,0.202077306189
0.266666666667,0.673322084739,5,-5.75662798294,1.33216282284,2.40482804017,121269.106299,12.1051079263,12.8378634466,1.38003909524,0.0341291741681,5.03097838726,1.24255155318,0.959991536882,0.93286353642,0.411283567802,1.31777028794,0.0631500847825,0.202335595006
0.283333333333,0.673322084739,5,-5.72581048667,1.35383567742,2.40609224466,121332.856782,12.0735427445,12.8378634466,1.38044563267,0.0339612474009,5.03839988834,1.32361076753,0.844700550718,0.933130378976,0.41084703455,1.31832781404,0.063149400009,0.202634079039
0.3,0.673322084739,5,-5.69317380529,1.3726579443,2.40718261175,121387.841105,12.0128407383,12.8378634466,1.38083215514,0.0336383127279,5.04564682393,1.39200197372,0.721568726369,0.933376334485,0.409879719843,1.31902524313,0.0630578314515,0.202925071515
0.325,0.673322084739,5,-5.64138645704,1.39522137122,2.40815574598,121436.913686,11.9977057043,12.8378634466,1.38053696647,0.0335577943471,5.04900338857,1.476165746,0.528083398384,0.933163141556,0.409513208822,1.31882803017,0.0630523942353,0.203058810059
0.35,0.673322084739,5,-5.58703841095,1.41062681052,2.40827860225,121443.109003,11.8737502165,12.8378634466,1.38154508121,0.0328983511519,5.05577269769,1.52671782538,0.323610368552,0.933281553154,0.407604548157,1.32045736215,0.0627649230398,0.20333042182
0.375,0.673322084739,5,-5.53111398283,1.41859524911,2.40812949354,121435.589845,11.7555331468,12.8378634466,1.38377490685,0.0322694363411,5.06572160074,1.55072060475,0.115264314102,0.934250692776,0.406179835379,1.32321285161,0.0625377940822,0.203729495246
0.4,0.673322084739,5,-5.47462603887,1.41898236788,2.40727949842,121392.726843,11.6388235578,12.8378634466,1.38438930434,0.031813082462,5.06701971643,1.54316471891,-0.0934554878451,0.935173825958,0.404109720113,1.32447769037,0.0621751521208,0.203780304657
0.425,0.673322084739,5,-5.41859765129,1.41178115562,2.40580933226,121318.59026,11.539701471,12.8378634466,1.38503151646,0.0314324536488,5.06535597768,1.5083000094,-0.298166056543,0.936084006439,0.402379801972,1.32566617053,0.061833397283,0.203714109369
0.45,0.673322084739,5,-5.3640435691,1.3971220359,2.40388081742,121221.340366,11.4706906798,12.8378634466,1.38478181268,0.0312284155964,5.05799226413,1.44694625096,-0.495368250044,0.936856040477,0.400899073221,1.32584909238,0.0615071269791,0.203415707163
0.475,0.673322084739,5,-5.31195183972,1.37527050499,2.40165032,121108.862291,11.4091444909,12.8378634466,1.38324467542,0.0311200943039,5.04454502627,1.35866927342,-0.680829572005,0.93739297979,0.39910124197,1.32478394125,0.0611177212796,0.202875278658
0.5,0.673322084739,5,-5.26326591401,1.34662232333,2.40003627564,121027.47031,11.3899065138,12.8378634466,1.38322176497,0.0310862354642,5.03813698202,1.2519399629,-0.855042629606,0.937871430948,0.398681504318,1.32488560383,0.0609714081981,0.202618230572
0.525,0.673322084739,5,-5.21886755922,1.31169634782,2.39917456367,120984.016458,11.339731148,12.8378634466,1.38154076584,0.0309979268204,5.02960165037,1.12046899405,-1.0105995316,0.938020902711,0.397086078248,1.32360810121,0.0606838160409,0.202277528537
0.55,0.673322084739,5,-5.17956088893,1.27112513458,2.39885307661,120967.804718,11.3433616154,12.8378634466,1.38225229919,0.0310043164431,5.03078248787,0.975103593755,-1.15246168258,0.938410559183,0.397383607181,1.3242616641,0.0607130110129,0.202323174745
0.575,0.673322084739,5,-5.1460577995,1.22564348253,2.39884907034,120967.602692,11.3752914353,12.8378634466,1.38342126418,0.0310605129262,5.03413218584,0.813649107534,-1.27628217894,0.938382374548,0.398429714498,1.32516901271,0.0608726339216,0.20246112491
0.6,0.673322084739,5,-5.1189650767,1.17607512524,2.39860426381,120955.257748,11.3629674433,12.8378634466,1.38258864181,0.0310388227003,5.03037396584,0.633946407701,-1.37189009808,0.938134429913,0.397907892188,1.32445614133,0.0607805017975,0.2023109128
0.625,0.673322084739,5,-5.09877340597,1.12331781194,2.39812292528,120930.985121,11.3237224526,12.8378634466,1.38124213793,0.0309697515166,5.02442190097,0.442415082909,-1.4394408567,0.93823014252,0.396650915781,1.32342624279,0.0605641837419,0.202072469641
0.65,0.673322084739,5,-5.08584848546,1.06832704814,2.39941080637,120995.929552,11.2750324278,12.8378634466,1.37984451198,0.0308840570729,5.0259813066,0.24448383342,-1.48189264211,0.938534823201,0.395177626001,1.3224066493,0.0604040549937,0.202133720921
0.675,0.673322084739,5,-5.08042440278,1.01209879011,2.40152035894,121102.308699,11.2956860984,12.8378634466,1.38118335072,0.0309204075332,5.03914329628,0.0434608597537,-1.50718510049,0.938912593582,0.396032116854,1.32354904795,0.0606411568926,0.202664233672
0.7,0.673322084739,5,-5.08259939532,0.955651406811,2.40247925217,121150.663144,11.3339369625,12.8378634466,1.38239835725,0.030987729054,5.04664311692,-0.159915654949,-1.50509601939,0.93875238082,0.397226633164,1.32446081836,0.0608726454787,0.20296583138
0.725,0.673322084739,5,-5.09233407106,0.900007235849,2.40188304249,121120.597869,11.2944575609,12.8378634466,1.38046442358,0.0309182453072,5.0380679316,-0.359072704863,-1.46392300513,0.938455538548,0.395784356202,1.32287289868,0.0606215256106,0.202621887526
0.75,0.673322084739,5,-5.10945212199,0.84617406758,2.40093435091,121072.757866,11.2273736887,12.8378634466,1.37955186014,0.0307422543351,5.03229942658,-0.54962903017,-1.39545035124,0.938761912064,0.394122654535,1.32241285316,0.0603193280827,0.202391448024
0.775,0.673322084739,5,-5.13364351733,0.795126892677,2.4002898688,121040.258341,11.1573982034,12.8378634466,1.38131534801,0.0304399602388,5.03741832783,-0.730161128499,-1.30568265557,0.939282101837,0.393334274199,1.32447983396,0.0601663548766,0.202598982454
0.8,0.673322084739,5,-5.16447011854,0.747790243752,2.39988603032,121019.893837,11.1157202735,12.8378634466,1.3827078791,0.0302599115815,5.04156262514,-0.897711526396,-1.1942798983,0.939824155513,0.392966969401,1.32603684042,0.0600899452635,0.202768902637
0.825,0.673322084739,5,-5.20137361465,0.705021450825,2.39954116862,121002.503375,11.1050079105,12.8378634466,1.38333554223,0.0302136341735,5.04264672954,-1.04961432534,-1.06259432379,0.940146727394,0.392954465294,1.32669396407,0.0600707652531,0.202811085551
0.85,0.673322084739,5,-5.24368563399,0.667595113937,2.39935563647,120993.14748,11.0776641166,12.8378634466,1.38384826892,0.0300955089836,5.04421157742,-1.18148694902,-0.911033775328,0.940229602757,0.392589868327,1.32733378106,0.0600057491388,0.20287751752
0.875,0.673322084739,5,-5.2906398493,0.636189074104,2.39901896394,120976.169977,11.0697746711,12.8378634466,1.38427230442,0.0300614265789,5.04460303941,-1.29270967189,-0.743908091951,0.940441081276,0.392568586287,1.32778138532,0.0599856586003,0.202888982099
0.9,0.673322084739,5,-5.34138585695,0.611372136709,2.39861170353,120955.632913,11.0523028661,12.8378634466,1.38461186328,0.0299859483813,5.04450536043,-1.37961874718,-0.563076058075,0.940502081322,0.392338801834,1.32820157868,0.0599301940165,0.202884287588
0.925,0.673322084739,5,-5.39500457886,0.593593769682,2.39802822293,120926.209533,11.027022222,12.8378634466,1.38517215616,0.0298767359989,5.044602486,-1.44088133817,-0.372253010965,0.940637142812,0.392026866174,1.32887526041,0.0598534152643,0.202888448876
0.95,0.673322084739,5,-5.45052490828,0.583175963025,2.39760242278,120904.737559,11.0165368447,12.8378634466,1.38560978456,0.029831439169,5.04456351385,-1.47702395331,-0.175315934513,0.940832499835,0.391959605026,1.32935023898,0.0598218961222,0.202888896933
0.975,0.673322084739,5,-5.50694129777,0.580307397151,2.39719228457,120884.055376,11.0052172364,12.8378634466,1.38589097193,0.0297825384614,5.04399247686,-1.48615473157,0.0245795195161,0.940913501867,0.391828821247,1.32968077392,0.0597814776563,0.202869919632
1,0.673322084739,5,-5.56323197108,0.585040025623,2.39681879944,120865.22151,10.9910330774,12.8378634466,1.38540921761,0.029771118984,5.04122214256,-1.46725255549,0.223581253325,0.941000932569,0.391364559105,1.32931516265,0.0596920404829,0.20275094578
1.025,0.673322084739,5,-5.61837742882,0.597288134211,2.39655101557,120851.717879,10.9907122557,12.8378634466,1.38554596258,0.029771516803,5.04063004002,-1.42375755952,0.418514509941,0.941110465036,0.391398165409,1.32944779278,0.0596838276608,0.202725868338
1.05,0.673322084739,5,-5.67137891301,0.616829893288,2.39650564393,120849.429907,10.984147929,12.8378634466,1.38504797438,0.0297796565681,5.03876252037,-1.35352665394,0.605386283041,0.941112942172,0.39108727359,1.32902049033,0.0596341620888,0.202653036014
1.075,0.673322084739,5,-5.72127649587,0.64331137546,2.3965611447,120852.228664,10.9872438303,12.8378634466,1.3853591597,0.0297758176504,5.03986151216,-1.26054393997,0.781995070027,0.941163623828,0.391257003426,1.32929475962,0.0596628063744,0.202704245964
1.1,0.673322084739,5,-5.76716646545,0.676252965668,2.39665301351,120856.861365,10.9633355801,12.8378634466,1.38349689523,0.0298054638807,5.03416156648,-1.14086113524,0.941475302474,0.94113972179,0.390110676187,1.32769186376,0.0594925637235,0.202475342593
1.125,0.673322084739,5,-5.80821769303,0.715058047657,2.39673725916,120861.10965,10.965470012,12.8378634466,1.38393133716,0.0298028171851,5.03616356263,-1.004684711,1.08675328886,0.941324273677,0.390294096731,1.32809061134,0.05952472021,0.202550391399
1.15,0.673322084739,5,-5.84368668596,0.759023809492,2.3969506306,120871.869406,10.9871849584,12.8378634466,1.38556688307,0.0297758906515,5.04217267117,-0.852011403942,1.21516144482,0.9413078007,0.391318488497,1.32949314841,0.0596915794991,0.202800399916
1.175,0.673322084739,5,-5.87293105336,0.807353972426,2.39757445703,120903.32732,10.9951305648,12.8378634466,1.38592735465,0.0297660380996,5.04585295081,-0.682010161956,1.32025960412,0.941140176325,0.391621480505,1.32977940479,0.0597688963578,0.202949662826
1.2,0.673322084739,5,-5.89542114061,0.859173212571,2.39826793745,120938.2977,11.036228238,12.8378634466,1.38569088792,0.029916505988,5.04702121518,-0.499787506698,1.40333064162,0.941078826246,0.392360036926,1.32931856062,0.0599162597583,0.202996708849
1.225,0.673322084739,5,-5.91074962216,0.913543014181,2.39887513284,120968.916955,11.0175789996,12.8378634466,1.3854901251,0.0298359412784,5.04941108609,-0.306671171872,1.45696807238,0.940761369506,0.391943188707,1.32923045668,0.0598829148701,0.203086050666
1.25,0.673322084739,5,-5.9186388787,0.969478667435,2.39891836748,120971.097164,10.9415343339,12.8378634466,1.3814868643,0.029832497426,5.03698765946,-0.107443729013,1.47372733939,0.940905451608,0.388972363948,1.3259322887,0.0594311605419,0.202589443419
1.275,0.673322084739,5,-5.91894602525,1.02596710284,2.39786004484,120917.728757,10.8363371206,12.8378634466,1.37430655071,0.0299629419704,5.00934099034,0.0902224013004,1.45562316465,0.941492495157,0.384255896797,1.31983471654,0.0586587398171,0.201479904106
1.3,0.673322084739,5,-5.91166549897,1.08198523929,2.39710108259,120879.456301,10.7885330986,12.8378634466,1.37183237151,0.0300222189578,4.99827032653,0.283256568602,1.42229208167,0.942303304453,0.382356759205,1.31781208745,0.0583318826528,0.20104381103
1.325,0.673322084739,5,-5.89692915993,1.1365185134,2.39741401635,120895.236722,10.8208219945,12.8378634466,1.37483957972,0.0299821807268,5.00919294276,0.473829684785,1.37766530011,0.942671244493,0.38404011449,1.3204529494,0.0586039914158,0.201499297578
1.35,0.673322084739,5,-5.87500390294,1.18857925465,2.39819016141,120934.375661,10.8066315705,12.8378634466,1.3733912554,0.0299997768525,5.00802313587,0.653678060181,1.29988754219,0.942422757537,0.383261927153,1.31917164244,0.0585231155606,0.201434134218
1.375,0.673322084739,5,-5.84628682372,1.23722457339,2.3989561026,120973.000046,10.8533374543,12.8378634466,1.37712499687,0.0299418615566,5.02300517571,0.827580626199,1.20805472355,0.942531981685,0.385515040449,1.32240233124,0.0589047685421,0.202056457124
1.4,0.673322084739,5,-5.81129802699,1.28157343783,2.39937540733,120994.144472,10.8756775005,12.8378634466,1.37830869443,0.0299141598994,5.02844707017,0.984929110872,1.08890416408,0.942172377659,0.386413394178,1.32337235988,0.0590626737788,0.202275364046
1.425,0.673322084739,5,-5.77067120666,1.32082263073,2.39937769056,120994.259609,10.9014913498,12.8378634466,1.38003142385,0.0298821507263,5.03399929594,1.12555130146,0.949603611923,0.942000266148,0.387559470304,1.32483105742,0.0592379624358,0.202498709042
1.45,0.673322084739,5,-5.72514216877,1.3542612967,2.39915640398,120983.100713,10.9176618963,12.8378634466,1.38097657769,0.0298620992486,5.03601890792,1.24480142637,0.791103333688,0.941801306001,0.388237676712,1.3256166714,0.0593306801512,0.202581417136
1.475,0.673322084739,5,-5.67553550509,1.3812838168,2.39872279626,120961.235025,10.8922274046,12.8378634466,1.3788489298,0.0298936380183,5.02712733916,1.33490820952,0.61456525686,0.941676625141,0.386977989271,1.32376963125,0.059116799517,0.202226033694
1.5,0.673322084739,5,-5.62274965865,1.40140077703,2.39793045484,120921.279346,10.8992265411,12.8378634466,1.37967135347,0.029884959089,5.026564154,1.40591962678,0.429934778776,0.941872718351,0.387395883571,1.324503901,0.0591415488464,0.202204554773
1.525,0.673322084739,5,-5.56774065172,1.41424783235,2.39670581251,120859.523879,10.8919219861,12.8378634466,1.37903370181,0.0298940167372,5.01936613466,1.44806450898,0.236797457725,0.941818765663,0.38702624728,1.32394799251,0.0590247834768,0.201913291778
1.55,0.673322084739,5,-5.51150477099,1.41959230539,2.39510003067,120778.548555,10.8910385198,12.8378634466,1.37904857992,0.0298951122355,5.01257649503,1.46467594129,0.0401598433983,0.94187507251,0.387009271026,1.32396847683,0.0589431317528,0.201645940315
1.575,0.673322084739,5,-5.45506052347,1.41733740061,2.39333700921,120689.644054,10.8937948481,12.8378634466,1.37926935653,0.0298916943883,5.00590519536,1.45515785495,-0.156693438396,0.941881882176,0.387142753058,1.32415934087,0.0588766881401,0.201378214997
1.6,0.673322084739,5,-5.39943018997,1.40752395735,2.39206810079,120625.656365,10.8898928339,12.8378634466,1.37893982214,0.029896532886,4.9995084328,1.41872036975,-0.350115460694,0.941860636331,0.386948674992,1.32387293903,0.0587847896494,0.201121226852
1.625,0.673322084739,5,-5.34562131024,1.39032971018,2.39094476057,120569.009293,10.8895832878,12.8378634466,1.37896018139,0.0298969167231,4.99484435267,1.35756701284,-0.536929194064,0.941890712844,0.386947290492,1.32389455844,0.0587293805739,0.20093565525
1.65,0.673322084739,5,-5.29460843505,1.36606606992,2.39031839154,120537.423163,10.8797892003,12.8378634466,1.37821460574,0.0299090613916,4.98981420692,1.27099154122,-0.713125206457,0.941893098719,0.386484891989,1.32325336942,0.0586284689722,0.200733122354
1.675,0.673322084739,5,-5.2473154758,1.33517248355,2.39006975948,120524.885307,10.8805907475,12.8378634466,1.37838636352,0.0299080674731,4.989338413,1.16369248108,-0.877300778948,0.941968581376,0.386556073289,1.32341144843,0.0586270686941,0.200715340565
1.7,0.673322084739,5,-5.20459897123,1.29820847523,2.38985102518,120513.855116,10.885881329,12.8378634466,1.37878198723,0.0299015071521,4.99016604747,1.03592564327,-1.02617305063,0.941962404379,0.386803698213,1.32375102172,0.0586538875135,0.200730096125
1.725,0.673322084739,5,-5.16723257436,1.25584351259,2.38948947366,120495.623031,10.8387073736,12.8378634466,1.37511425153,0.0299600028568,4.97649543881,0.883282059328,-1.14885655693,0.941921631126,0.384555960938,1.32058832323,0.058295404005,0.200189927206
1.75,0.673322084739,5,-5.13589304063,1.20884488177,2.3892916871,120485.649179,10.8139447258,12.8378634466,1.37375013359,0.02999070854,4.97220016533,0.719122538647,-1.25374162267,0.942285052561,0.383546623331,1.31946233742,0.0581327721238,0.199986126122
1.775,0.673322084739,5,-5.1111479709,1.15806379082,2.38936991969,120489.594241,10.8001092309,12.8378634466,1.37296925376,0.0300078645536,4.97015063945,0.543501341945,-1.33706523504,0.942475695671,0.382977526641,1.31881509614,0.0580503174971,0.199901116189
1.8,0.673322084739,5,-5.09344553149,1.10441995323,2.38951169145,120496.743415,10.7855310908,12.8378634466,1.3720085922,0.0300259414474,4.9676856872,0.358490216524,-1.395765799,0.942582174716,0.38233694724,1.31800136306,0.0579600982796,0.199801481617
1.825,0.673322084739,5,-5.08310633723,1.04888493062,2.38986918896,120514.771067,10.7807663464,12.8378634466,1.37180713187,0.0300318497305,4.96835396245,0.167795394469,-1.43096933365,0.942694339579,0.382161371863,1.31784270871,0.0579508183376,0.199837212844
1.85,0.673322084739,5,-5.08031764477,0.992464536541,2.39050687379,120546.927824,10.794477568,12.8378634466,1.37291006069,0.0300148478157,4.97473550254,-0.0259244436862,-1.44384371905,0.942730993108,0.38282349473,1.3187983537,0.0580822059762,0.200088862557
1.875,0.673322084739,5,-5.08512996106,0.936180619783,2.39164915855,120604.530217,10.8096353124,12.8378634466,1.3739166342,0.0299960522126,4.98268075109,-0.22015178366,-1.43113860947,0.942625508599,0.38349222526,1.31965161843,0.0582392846581,0.200409711574
1.9,0.673322084739,5,-5.09745612862,0.881052557355,2.39265758506,120655.382494,10.8036938837,12.8378634466,1.37329191225,0.0300034195842,4.98472078762,-0.410307669742,-1.38856989411,0.942508864179,0.383161026353,1.31909761175,0.0582380674472,0.20049454511
1.925,0.673322084739,5,-5.11707290406,0.828078792197,2.39370660985,120708.282035,10.7900701665,12.8378634466,1.3723158398,0.0300203129935,4.98508399405,-0.59249515734,-1.31968855304,0.942554589572,0.382538789373,1.31826251482,0.0581944867958,0.200543350487
1.95,0.673322084739,5,-5.14362500134,0.778218750045,2.39467281946,120757.005426,10.8002031927,12.8378634466,1.37324408839,0.0300077480411,4.99146572459,-0.765881329278,-1.23067643342,0.942659419,0.38306219422,1.31907662651,0.0583211645105,0.20082922851
1.975,0.673322084739,5,-5.17663152648,0.732375462946,2.39543881417,120795.63251,10.7875476791,12.8378634466,1.37216188461,0.030023440878,4.99204827122,-0.923439515133,-1.11578418663,0.942581451672,0.382431645006,1.31813340807,0.0582624189274,0.200814032589
2,0.673322084739,5,-5.21549468715,0.691379214142,2.39571768118,120809.695034,10.786182889,12.8378634466,1.37219916814,0.0300251332176,4.99258516541,-1.06491442283,-0.981702545345,0.942678825678,0.38240980089,1.31817859558,0.0582726563871,0.200867676975
2.025,0.673322084739,5,-5.25951061955,0.655972500529,2.39565516996,120806.542759,10.7758302994,12.8378634466,1.37142199856,0.0300379704287,4.99015926519,-1.18561301088,-0.828792288055,0.942689325266,0.381926693814,1.31750999174,0.0581960020793,0.200755316298
2.05,0.673322084739,5,-5.30788213627,0.626796585043,2.39541837491,120794.601812,10.7492259592,12.8378634466,1.36955521543,0.0300682661487,4.982949401,-1.28182376339,-0.659857957453,0.942768960951,0.380727913765,1.31591483176,0.0580018702925,0.200472617394
2.075,0.673322084739,5,-5.35973316444,0.604379882536,2.39494700715,120770.831985,10.7732667648,12.8378634466,1.37163918411,0.0300411492116,4.9883457308,-1.36269763931,-0.483143493616,0.942973539405,0.381929725633,1.31773525669,0.058162063041,0.20067095051
2.1,0.673322084739,5,-5.4141246126,0.58912838947,2.39424825004,120735.595515,10.7612404489,12.8378634466,1.37044961902,0.0300560618434,4.9817190411,-1.41208338453,-0.295136496623,0.94278867815,0.381283044291,1.31668476306,0.058029706674,0.200393990046
2.125,0.673322084739,5,-5.47007137888,0.581318330783,2.39356007099,120700.892469,10.7655612375,12.8378634466,1.37091486675,0.0300507040655,4.97997455519,-1.43888821236,-0.102856043902,0.942881164767,0.381526659217,1.31709833536,0.0580334083733,0.200341715886
2.15,0.673322084739,5,-5.52656019251,0.581091157082,2.39267855452,120656.439929,10.7673147269,12.8378634466,1.37100080324,0.0300485297386,4.97702379513,-1.43899660052,0.091237096984,0.942847938795,0.381594758561,1.31716800632,0.0580010212272,0.200204766392
2.175,0.673322084739,5,-5.58256796553,0.588450982788,2.39200726437,120622.588545,10.7672086622,12.8378634466,1.37097307487,0.0300486612589,4.97483796701,-1.41308129614,0.283502676172,0.942834454049,0.381583897202,1.31714229431,0.0579668302861,0.20008853727
2.2,0.673322084739,5,-5.63708032228,0.603264511613,2.39139897728,120591.914239,10.7790416265,12.8378634466,1.37188017167,0.0300339883832,4.97525975167,-1.36351462685,0.471122523558,0.942835269725,0.382141532538,1.3179245407,0.0580220200423,0.200105556722
2.225,0.673322084739,5,-5.68910997104,0.625263450738,2.39095431164,120569.490929,10.760101107,12.8378634466,1.37029783463,0.0300574746273,4.96713087998,-1.28401083199,0.647973227417,0.942744259973,0.38121011087,1.31654793256,0.0578590756372,0.199822208903
2.25,0.673322084739,5,-5.73771458532,0.654049369955,2.39068929785,120556.126986,10.788287551,12.8378634466,1.37266759177,0.0300225234368,4.97406523358,-1.18950005785,0.817346431622,0.942889925618,0.382601048999,1.31861067291,0.05805731629,0.200090922648
2.275,0.673322084739,5,-5.78201387052,0.689100917766,2.39081878023,120562.656439,10.7799236963,12.8378634466,1.37171177225,0.0300328946166,4.97165811687,-1.06778942687,0.968582560647,0.942673133592,0.382112437351,1.31775765834,0.0579894535641,0.199983143879
2.3,0.673322084739,5,-5.82120550736,0.729783263762,2.39089399341,120566.44924,10.7716652649,12.8378634466,1.37117321207,0.0300431350715,4.96936257218,-0.927080998118,1.10201731583,0.942737474982,0.381751524088,1.3173019173,0.0579383265124,0.199926558989
2.325,0.673322084739,5,-5.85457968287,0.775359596247,2.39126776214,120585.297407,10.7701678407,12.8378634466,1.37115096404,0.0300449918775,4.97159477661,-0.770979998728,1.21693977966,0.942800995462,0.381708665916,1.31729122145,0.0579499363318,0.199987449146
2.35,0.673322084739,5,-5.88153194609,0.825004466885,2.39192096193,120618.236542,10.7325173393,12.8378634466,1.36950505948,0.03003083884,4.96925963758,-0.598802284914,1.3055316157,0.942812511979,0.380364889072,1.31596675884,0.0577774800267,0.199895535338
2.375,0.673322084739,5,-5.90157415551,0.877818740671,2.39254636024,120649.773721,10.7269090687,12.8378634466,1.36988743695,0.0300182763139,4.97386629358,-0.41833962788,1.37496031472,0.943101970189,0.380362233821,1.31636516891,0.0578072937538,0.200060629684
2.4,0.673322084739,5,-5.91434331988,0.932845880473,2.39313695659,120679.555931,10.707474876,12.8378634466,1.36981806865,0.0299747437222,4.9767067958,-0.229795923189,1.41784906689,0.943145068938,0.37993657549,1.31641491372,0.0577711132399,0.200166975114
2.425,0.673322084739,5,-5.91960817258,0.989089271194,2.39402572096,120724.373963,10.6799565223,12.8378634466,1.36984803285,0.02991310261,4.98122169679,-0.0373085122309,1.43482226675,0.943294381844,0.379372043792,1.31660748866,0.0577281279107,0.200344982603
2.45,0.673322084739,5,-5.91727336008,1.04553026981,2.39456152534,120751.393158,10.6639308858,12.8378634466,1.37004605506,0.0298772051842,4.98433701234,0.155638518594,1.42638749761,0.943505708893,0.379096961773,1.3168919219,0.0577120936405,0.200477971534
2.475,0.673322084739,5,-5.90738116895,1.10114665434,2.39554556266,120801.015553,10.6532576527,12.8378634466,1.37015216917,0.0298532971421,4.98761611699,0.345764866497,1.39261250331,0.943628725098,0.378906019808,1.31705672399,0.0577304445027,0.200667886326
2.5,0.673322084739,5,-5.89011076001,1.15493113768,2.39669093038,120858.773412,10.650076849,12.8378634466,1.37024948775,0.0298461721417,4.99230810773,0.53002540502,1.334583975,0.943710633468,0.378868637132,1.31716855735,0.0577799612127,0.20087687577
2.525,0.673322084739,5,-5.86577492346,1.20590961091,2.39775753001,120912.559206,10.6395924801,12.8378634466,1.37021368567,0.0298226871553,4.99784202407,0.704763817317,1.25193248724,0.943735040185,0.378639393362,1.31719670014,0.0577964079929,0.201060003853
2.55,0.673322084739,5,-5.83481441385,1.2531587857,2.39838692475,120944.297914,10.643054187,12.8378634466,1.37035399641,0.0298304413788,5.00099265443,0.867215205647,1.14693294153,0.943815477129,0.37875326835,1.31731009729,0.0578441455608,0.201182889717
2.575,0.673322084739,5,-5.79778996741,1.2958229163,2.3988006994,120965.163474,10.6567625386,12.8378634466,1.37040859012,0.0298611480865,5.00256290399,1.01451382953,1.02125975909,0.943788920491,0.379055350804,1.31728069638,0.0579102567719,0.201247820949
2.6,0.673322084739,5,-5.75537214639,1.33312929824,2.39854254166,120952.145263,10.6334785331,12.8378634466,1.37009765876,0.0298089919141,5.00086229187,1.14046233777,0.874262085661,0.943683738238,0.37847745045,1.31712223808,0.0578095230572,0.201180303611
2.625,0.673322084739,5,-5.70832919426,1.36440226306,2.3978369211,120916.562688,10.6323942232,12.8378634466,1.37034964727,0.02980656306,4.99885670883,1.24696267105,0.712889997864,0.943862376043,0.378529683518,1.31736929738,0.0577834879209,0.201099665883
2.65,0.673322084739,5,-5.65751312179,1.38907541552,2.39676990559,120862.755923,10.6369399175,12.8378634466,1.37039261418,0.0298167454153,4.99446194274,1.33058603631,0.538673871519,0.943870692976,0.378637240573,1.31738331375,0.0577484773552,0.200922868409
2.675,0.673322084739,5,-5.60384427603,1.40670189185,2.39525647604,120786.437681,10.6384966077,12.8378634466,1.37035256872,0.0298202324012,4.98882946754,1.38942323785,0.354765131704,0.943835825133,0.37865780587,1.31733582465,0.0576787029395,0.200661971109
2.7,0.673322084739,5,-5.54829467154,1.41696245299,2.3934445287,120695.065977,10.6491473322,12.8378634466,1.37040760844,0.029844090024,4.98086239866,1.42310897173,0.164831581018,0.943823883778,0.378896262173,1.31732505688,0.0576277388639,0.200356857419