time,root_dist,x,y,z,rel_vel_mag,Re,alpha_deg,alpha_geom_deg,cl,cd,fx,fy,fz,end_effect_factor,c_ref_t,c_ref_n,f_ref_t,f_ref_n
0.00119048,0.155172,5,-1.99504,2.57484,4.23363,22797,-24.5955,15.3949,-0.189569,0.51854,-1.02834,-5.89288,0.39031,0.451114,-0.543921,-0.0947099,-0.39372,-0.0685561
