time,root_dist,x,y,z,rel_vel_mag,Re,alpha_deg,alpha_geom_deg,cl,cd,fx,fy,fz,end_effect_factor,c_ref_t,c_ref_n,f_ref_t,f_ref_n
0.00119048,0.102299,5,-1.99656,2.55189,2.98466,6267.78,-4.44643,40.9816,0,1.1,0.232691,-0.894333,0.0592354,0.36172,-1.0647,0.276414,-0.149382,0.0387819
