time,root_dist,x,y,z,rel_vel_mag,Re,alpha_deg,alpha_geom_deg,cl,cd,fx,fy,fz,end_effect_factor,c_ref_t,c_ref_n,f_ref_t,f_ref_n
0.00119048,0.431034,5,-1.98711,2.69457,10.8593,38163.3,-9.90469,10.9101,-0.309813,0.134502,-13.9767,-7.23762,0.479378,0.722137,-0.155578,-0.299784,-0.483565,-0.931783
