time,root_dist,x,y,z,rel_vel_mag,Re,alpha_deg,alpha_geom_deg,cl,cd,fx,fy,fz,end_effect_factor,c_ref_t,c_ref_n,f_ref_t,f_ref_n
0.00119048,0.568966,5,-1.98315,2.75444,14.1865,40271.1,-6.31972,10.0898,-0.174742,0.0462053,-11.0583,-3.55152,0.235232,0.722137,-0.0553788,-0.172055,-0.237287,-0.73722
