time,root_dist,x,y,z,rel_vel_mag,Re,alpha_deg,alpha_geom_deg,cl,cd,fx,fy,fz,end_effect_factor,c_ref_t,c_ref_n,f_ref_t,f_ref_n
0.00625,0.486782902132,5,-5.78257783712,0.849302194882,1.90170877788,105289.289411,16.7371658884,16.7371658884,1.08183424442,0.0848536699131,2.6661759004,-0.466392369273,0.874545895719,0.733575616371,0.378119613058,1.01714848273,0.039861697227,0.107228674348
0.0135416666667,0.486782902132,5,-5.78827799354,0.860515732282,1.90214917449,105313.672244,16.6840413806,16.7371658884,1.42227571283,0.0841651762924,3.47786388482,-0.594776473675,1.22924951495,0.963771187054,0.520729776835,1.32619473673,0.0549212126675,0.139873359301
0.02265625,0.486782902132,5,-5.79477676459,0.874833225019,1.90186525717,105297.952985,16.6127217578,16.7371658884,1.4238754019,0.0832408739808,3.48131639775,-0.533420262511,1.25624311382,0.963979338205,0.520587751581,1.32790760075,0.0548898437744,0.140012208376
0.036328125,0.486782902132,5,-5.80318817487,0.896864200614,1.90164899404,105285.979442,16.5313593631,16.7371658884,1.42562049059,0.0821864173451,3.48545505092,-0.439262124071,1.29129829296,0.964162329842,0.520388168307,1.32979116581,0.0548563224002,0.140178922888
0.05,0.486782902132,5,-5.80995559527,0.919454413761,1.90139159661,105271.728473,16.4082382562,16.7371658884,1.42838942722,0.0806164610889,3.49232042448,-0.342770944183,1.31905144659,0.964548990798,0.52010785339,1.33277274523,0.054811932081,0.140455193504
0.0666666666667,0.486782902132,5,-5.81592926977,0.947571391402,1.90115421695,105258.585801,16.3018939127,16.7371658884,1.43093985066,0.0792680148125,3.4985824216,-0.222977379848,1.3436381906,0.964996141858,0.519916143744,1.33549971091,0.0547780485079,0.140707436818
0.0833333333333,0.486782902132,5,-5.81935773998,0.976110746875,1.90097086459,105248.434383,16.1923901199,16.7371658884,1.43358381033,0.0779048550679,3.50534538731,-0.101537444531,1.35737892853,0.965497277205,0.519694246777,1.33833837184,0.0547441087162,0.140979319632
0.1,0.486782902132,5,-5.82021338528,1.00484256008,1.90072591871,105234.872802,16.0915503916,16.7371658884,1.43606028728,0.0766705767931,3.51141962791,0.0205687426025,1.36010428215,0.966010487375,0.519479927179,1.34100265894,0.0547074313257,0.141223571949
0.116666666667,0.486782902132,5,-5.81848931238,1.03353536042,1.90065807135,105231.116391,16.0202654542,16.7371658884,1.43797161604,0.0757980491594,3.51649286733,0.14240639765,1.35245052082,0.966480535261,0.519389494223,1.34303472259,0.0546940027884,0.141427475294
0.133333333333,0.486782902132,5,-5.81419941084,1.06195799161,1.9005586753,105225.613267,15.9553873772,16.7371658884,1.43956773429,0.0750182175358,3.52064771174,0.262994785857,1.33369085452,0.966811323267,0.519231903925,1.34476065696,0.0546716892096,0.1415944131
0.15,0.486782902132,5,-5.80737824118,1.0898814739,1.90072985617,105235.090802,15.9155330402,16.7371658884,1.44069275461,0.074543153839,3.5244091441,0.381559311991,1.30486322865,0.967111294902,0.519188764833,1.34595517066,0.0546769949907,0.14174571776
0.166666666667,0.486782902132,5,-5.79808075641,1.11708084881,1.90094185948,105246.828497,15.8810476055,16.7371658884,1.44155358508,0.0741320874577,3.52763050859,0.497054039901,1.26546950841,0.967295049578,0.519104447988,1.34688636385,0.0546803111918,0.141875427577
0.183333333333,0.486782902132,5,-5.78638185937,1.14333699146,1.90121296995,105261.838697,15.8638543986,16.7371658884,1.44208281903,0.0739271444318,3.53009514957,0.608693640362,1.21614675134,0.967453731085,0.519102764091,1.34744216943,0.0546957317837,0.141974461689
0.2,0.486782902132,5,-5.77237579928,1.16843837587,1.90157923586,105282.117237,15.8400892333,16.7371658884,1.44260526603,0.0736438636614,3.53296241691,0.715442312361,1.15691671006,0.967532733078,0.519014989226,1.34801958932,0.0547075558782,0.142090033117
0.216666666667,0.486782902132,5,-5.75617541241,1.19218277909,1.90209895742,105310.891944,15.801359282,16.7371658884,1.44342749311,0.0731822026409,3.5373051075,0.816500843188,1.08837764353,0.967641811036,0.518859257653,1.34893425837,0.054721040168,0.142264177901
0.233333333333,0.486782902132,5,-5.73791121308,1.21437891032,1.90274401662,105346.606048,15.7714883065,16.7371658884,1.44420101993,0.0728261406131,3.54188757092,0.911306574888,1.01134039907,0.967819270776,0.518794956376,1.34976739699,0.0547513754975,0.142448612267
0.25,0.486782902132,5,-5.7177303422,1.23484795205,1.90340342648,105383.114686,15.7273828635,16.7371658884,1.44504241311,0.0723239255549,3.54687864338,0.998550012776,0.925767647043,0.967955880659,0.518555485062,1.3507325919,0.0547640407665,0.142649295703
0.266666666667,0.486782902132,5,-5.69579538186,1.25342500062,1.90409706497,105421.518412,15.666661722,16.7371658884,1.44607189024,0.0716632795357,3.55268778898,1.07746910663,0.832449342621,0.968157176603,0.518143693175,1.35195660086,0.0547604417113,0.142882643585
0.283333333333,0.486782902132,5,-5.67228304552,1.26996039474,1.90453752308,105445.904649,15.6115608563,16.7371658884,1.44714629395,0.0710637821169,3.55760083981,1.1475990086,0.732373548437,0.968433496627,0.517824748185,1.35319621172,0.0547520555889,0.143079824721
0.3,0.486782902132,5,-5.64738275437,1.28432092117,1.90495154717,105468.82735,15.5437124204,16.7371658884,1.44833473857,0.0703255911344,3.56284772832,1.20812402135,0.626252352967,0.968683424441,0.517375360992,1.35460028775,0.0547283265935,0.143290563372
0.325,0.486782902132,5,-5.60787138265,1.30153578113,1.90585105868,105518.629364,15.4762511968,16.7371658884,1.44762012438,0.0697540548352,3.56546598841,1.27910907564,0.457588363231,0.968506626598,0.516017457443,1.3543247898,0.0546362481786,0.143396748042
0.35,0.486782902132,5,-5.56640631592,1.31328942482,1.90595909431,105524.610824,15.3336555152,16.7371658884,1.44222097516,0.0691779682816,3.55566618637,1.31627984484,0.279004933737,0.96881327885,0.511023050523,1.35042303532,0.0541135717527,0.142999838742
0.375,0.486782902132,5,-5.523738542,1.31936897802,1.90517033062,105480.940432,15.1900155532,16.7371658884,1.43662446551,0.0686864398163,3.54204870151,1.32719456798,0.0986497316734,0.969457567069,0.50587092473,1.3463663281,0.0535236715572,0.142452284996
0.4,0.486782902132,5,-5.48064083133,1.3196643319,1.90400060136,105416.177644,15.0566269056,16.7371658884,1.43064232677,0.0683449648783,3.52599721251,1.31321469717,-0.0795295010741,0.970101157615,0.5006926983,1.34190734525,0.0529107575478,0.14180621055
0.425,0.486782902132,5,-5.4378937411,1.31417013719,1.90251695701,105334.034752,14.9399069786,16.7371658884,1.42369362777,0.0682721116257,3.50633813198,1.27476079779,-0.251999202906,0.970693875748,0.495301029797,1.33650346683,0.0522594533586,0.141015132993
0.45,0.486782902132,5,-5.39627147828,1.30298590112,1.90048404809,105221.481485,14.8585111575,16.7371658884,1.41783974203,0.068369786611,3.48666042738,1.21615604723,-0.416356234722,0.971208568841,0.491024793649,1.33185532766,0.0516976066973,0.140224554438
0.475,0.486782902132,5,-5.35652787771,1.28631418516,1.89869869404,105122.634247,14.8189798915,16.7371658884,1.41514965881,0.0684172241302,3.47458729019,1.14238354864,-0.572448731788,0.971565284599,0.489012756388,1.32973531106,0.0513890809454,0.139738431449
0.5,0.486782902132,5,-5.31938274917,1.26445693638,1.89734047897,105047.435825,14.7769995239,16.7371658884,1.41199066847,0.0684676005713,3.46301617865,1.04881631746,-0.71631443091,0.971737869056,0.486761831588,1.3272032171,0.0510793803692,0.139272871359
0.525,0.486782902132,5,-5.2855088406,1.23781001879,1.89621471113,104985.106989,14.7656707807,16.7371658884,1.41133579959,0.0684811950632,3.45753983792,0.940975932223,-0.848706962357,0.971920670261,0.486231994925,1.32670149634,0.0509632499117,0.139055061415
0.55,0.486782902132,5,-5.2555196538,1.20685604371,1.89537807235,104938.785962,14.7474545063,16.7371658884,1.40988456118,0.0685091637775,3.45143896119,0.816071886616,-0.964504269676,0.971969916477,0.485219981243,1.32552991334,0.0508123100838,0.138809693718
0.575,0.486782902132,5,-5.22995833304,1.17215562902,1.89461263593,104896.407099,14.7330403452,16.7371658884,1.4085869793,0.0685610547573,3.44590095614,0.677385435504,-1.06254029115,0.972049027702,0.484334327873,1.324476559,0.0506786070514,0.138587383176
0.6,0.486782902132,5,-5.20928782803,1.13433724564,1.89374813695,104848.543575,14.6759976643,16.7371658884,1.40308804923,0.0687664084086,3.43105565902,0.524131026642,-1.13424440428,0.97211156097,0.480693840082,1.3199690621,0.0502517919567,0.137989724784
0.625,0.486782902132,5,-5.19388250926,1.09408583508,1.89377177623,104849.852378,14.5971188336,16.7371658884,1.39571319782,0.0690503721989,3.4154370954,0.363327382704,-1.18212126852,0.972358458491,0.475763886759,1.31393759689,0.0497376557493,0.137362623959
0.65,0.486782902132,5,-5.18402138766,1.05213040421,1.89448077745,104889.106672,14.5405030858,16.7371658884,1.39065002462,0.0692541888911,3.40727837334,0.200004979615,-1.21229245931,0.972698357386,0.472324936988,1.30981402785,0.0494151184172,0.137034084424
0.675,0.486782902132,5,-5.17988306133,1.009230822,1.89600524908,104973.509992,14.5488143496,16.7371658884,1.39181236629,0.0692242683413,3.41536858731,0.0355224613416,-1.23188829605,0.972941233267,0.472990882648,1.31080635001,0.0495644623074,0.137358698256
0.7,0.486782902132,5,-5.18154248089,0.966164057253,1.89666980852,105010.303739,14.5637277736,16.7371658884,1.39322398656,0.0691705800149,3.42076238514,-0.130557197319,-1.22877974673,0.972905635983,0.473926419941,1.31196470774,0.049697316776,0.137576473764
0.725,0.486782902132,5,-5.18896959204,0.923710106686,1.89659314551,105006.059243,14.5557855274,16.7371658884,1.39235361001,0.0691991721012,3.4185867604,-0.294005100079,-1.19864535455,0.97284171213,0.473382350404,1.31123844172,0.049636251228,0.137489200131
0.75,0.486782902132,5,-5.20202987985,0.88263786812,1.89536068009,104937.823029,14.4936144398,16.7371658884,1.3867403473,0.0693701155783,3.40216142778,-0.44813139209,-1.13775851377,0.97287576311,0.469641291295,1.30663616255,0.0491800047299,0.136828626114
0.775,0.486782902132,5,-5.22048680506,0.843691214726,1.89460474958,104895.970466,14.4617533102,16.7371658884,1.38616443157,0.0692210054916,3.39857399226,-0.595335276294,-1.06458549239,0.973141688114,0.468830942581,1.30630812836,0.0490559928247,0.136685180844
0.8,0.486782902132,5,-5.24400608806,0.807575522484,1.89408343736,104867.10769,14.3771040339,16.7371658884,1.38382041323,0.0688248468788,3.39240773403,-0.728624733505,-0.969333518663,0.973277538748,0.466368774921,1.30468232202,0.0487715139596,0.136439949463
0.825,0.486782902132,5,-5.27216176317,0.774944894885,1.89368394005,104844.989273,14.3787739419,16.7371658884,1.38438164627,0.0688326620479,3.39232684674,-0.852279184604,-0.862818848765,0.97363704816,0.466614525379,1.30519016339,0.0487766315371,0.136435486301
0.85,0.486782902132,5,-5.30444389347,0.746390316235,1.89336857328,104827.528796,14.3315224187,16.7371658884,1.38295462126,0.0686115249196,3.38855463429,-0.957179378117,-0.738072259906,0.973629976024,0.465196886094,1.30417133958,0.0486122459681,0.13628358194
0.875,0.486782902132,5,-5.34026780641,0.722428948143,1.89286146775,104799.452583,14.3329889698,16.7371658884,1.38328240643,0.0686183883789,3.3875051955,-1.04739761265,-0.602739792609,0.973829775607,0.46534922063,1.30446494856,0.0486021197439,0.13624125457
0.9,0.486782902132,5,-5.378984683,0.703494763032,1.89235233349,104771.264048,14.2942439494,16.7371658884,1.38211150267,0.0684370616833,3.38351199586,-1.11545230341,-0.455259460093,0.973823584167,0.46418775823,1.30362784657,0.0484547371564,0.136080591388
0.925,0.486782902132,5,-5.41989330883,0.689930684317,1.89192741644,104747.738251,14.2650529458,16.7371658884,1.38146766113,0.0683004477863,3.38092807921,-1.16398952619,-0.300717758206,0.973986946083,0.46340442665,1.30321686119,0.0483512469332,0.135976604104
0.95,0.486782902132,5,-5.46225277397,0.681982375605,1.89152486591,104725.450791,14.2483668134,16.7371658884,1.38039346956,0.0683209358281,3.37725106461,-1.19122787564,-0.141393257548,0.974109735346,0.462596789174,1.30236634313,0.0482464410786,0.135830041425
0.975,0.486782902132,5,-5.50529589186,0.679793791396,1.89129606363,104712.78301,14.2328734088,16.7371658884,1.3729340181,0.0691836085956,3.35964638303,-1.18876657521,0.0196610155154,0.974179811889,0.458607551474,1.29592179682,0.0478188137175,0.135125212822
1,0.486782902132,5,-5.54824309407,0.683404569879,1.89099018696,104695.847958,14.2063602419,16.7371658884,1.36008979417,0.0706598617336,3.32977056713,-1.1574330001,0.176370673088,0.974244806178,0.45175900106,1.28481550008,0.0470894831595,0.133923834859
1.025,0.486782902132,5,-5.59031654932,0.692749315026,1.89073846213,104681.911056,14.1932793693,16.7371658884,1.35386192746,0.0713882047189,3.31495132578,-1.11468709061,0.327663033883,0.974355864241,0.448425402219,1.2794346615,0.0467295590776,0.133327454922
1.05,0.486782902132,5,-5.63075425108,0.707658781003,1.89073657977,104681.806838,14.1991659806,16.7371658884,1.35681053304,0.0710604381976,3.32155858676,-1.06426966327,0.476011502049,0.974410580981,0.449980748748,1.28199131596,0.0468915454161,0.133593613022
1.075,0.486782902132,5,-5.66882381847,0.727862937443,1.89080091368,104685.368725,14.2016230765,16.7371658884,1.35797525019,0.0709236271006,3.32442533659,-0.992168445882,0.615504790206,0.974385963776,0.450605008805,1.28299729814,0.0469597937715,0.133707542865
1.1,0.486782902132,5,-5.70383576071,0.752995860049,1.8909386495,104692.994554,14.1768389359,16.7371658884,1.34586707428,0.0723036080504,3.29770210889,-0.887806472952,0.732646456121,0.974375685431,0.444175555172,1.27251486025,0.0462964925838,0.132634437227
1.125,0.486782902132,5,-5.73515596472,0.782602357981,1.89115710129,104705.089274,14.1877469561,16.7371658884,1.35133348762,0.0716962494843,3.31075601288,-0.786642020537,0.850899584334,0.974479279025,0.447056345209,1.27725611025,0.0466075246698,0.13315937981
1.15,0.486782902132,5,-5.7622171797,0.816146217963,1.89139021074,104717.995524,14.1824962863,16.7371658884,1.34870798475,0.0719886067785,3.30563176792,-0.663360693234,0.946102757187,0.974433707647,0.445671628542,1.27497936734,0.0464746171414,0.132954790401
1.175,0.486782902132,5,-5.78452929086,0.85301991583,1.89162827093,104731.175874,14.2195540108,16.7371658884,1.36682279592,0.0699252326773,3.34714632735,-0.541908637244,1.04904607407,0.974455648209,0.455295597992,1.29065875121,0.0474901566962,0.13462371832
1.2,0.486782902132,5,-5.80168819602,0.892555619596,1.89188823126,104745.568739,14.2016634176,16.7371658884,1.35787599836,0.0709213809064,3.32790165808,-0.392132922212,1.1010522231,0.974300624186,0.450570261242,1.28290432569,0.0470101929981,0.133851665625
1.225,0.486782902132,5,-5.81338312447,0.934037284791,1.89242479755,104775.276066,14.1717429588,16.7371658884,1.3433801712,0.0725873520552,3.29716679315,-0.236747440998,1.12476650689,0.974375516664,0.442855731043,1.27036136966,0.0462315111057,0.132618190649
1.25,0.486782902132,5,-5.8194022654,0.976713622979,1.8918703545,104744.578982,14.0700744979,16.7371658884,1.29393531862,0.0782482519553,3.18417314992,-0.0785917025367,1.07798511594,0.974500556882,0.416669627269,1.22750878588,0.0434723529403,0.128069558434
1.275,0.486782902132,5,-5.81963660413,1.0198117086,1.89107988259,104700.814013,13.970431588,16.7371658884,1.25209670195,0.0830465142523,3.08737305583,0.0632239484753,1.02003762518,0.974923456698,0.394341082745,1.19127578043,0.041108377201,0.124185422912
1.3,0.486782902132,5,-5.81408189647,1.06255097768,1.89005880445,104644.281386,13.8899437532,16.7371658884,1.23033043231,0.0854869054037,3.03549927941,0.193274417411,0.970472370086,0.975334939203,0.382240669205,1.17256686567,0.0398039419852,0.122103133589
1.325,0.486782902132,5,-5.8028387456,1.1041573649,1.89007570807,104645.217266,13.9237648857,16.7371658884,1.24011842112,0.0844614486667,3.05743117645,0.32631459259,0.948763459883,0.975665138896,0.387559858829,1.18102700669,0.0403585680724,0.122986314911
1.35,0.486782902132,5,-5.78611078002,1.14387732293,1.89032083373,104658.7888,13.9600150429,16.7371658884,1.24998545559,0.0833623439005,3.08012713946,0.457233213174,0.909242322612,0.975526626795,0.393037570908,1.189510146,0.0409396068582,0.123901838744
1.375,0.486782902132,5,-5.76420096557,1.18099147022,1.89061075615,104674.840535,13.9458313882,16.7371658884,1.2458657597,0.0837923923098,3.0718548739,0.572074175895,0.835081064651,0.975377782999,0.39079561612,1.18595170333,0.0407185675164,0.123569079364
1.4,0.486782902132,5,-5.73750611827,1.21482761992,1.8908336938,104687.183617,13.9749938443,16.7371658884,1.25401890445,0.0829081866414,3.09120520489,0.687086644646,0.759619651993,0.975436068552,0.395287734618,1.19297308729,0.0411963333029,0.124329981988
1.425,0.486782902132,5,-5.70650971753,1.24477295411,1.89091732528,104691.813926,13.9830965869,16.7371658884,1.2561091325,0.0826625114852,3.09608929985,0.785268873724,0.662514589831,0.975316164119,0.396471203287,1.19476099222,0.0413233279623,0.124527329876
1.45,0.486782902132,5,-5.67177314961,1.27028512274,1.89068858965,104679.149835,14.0168217699,16.7371658884,1.26896419619,0.0812133638539,3.1236896641,0.88184509497,0.56043524666,0.975282803411,0.403364721333,1.2058866627,0.0420316536992,0.125656528512
1.475,0.486782902132,5,-5.63392554021,1.2909020663,1.89035755655,104660.821982,14.0422866833,16.7371658884,1.28121909553,0.0797954774744,3.15013007729,0.964010596229,0.443811353815,0.975143737801,0.409840471305,1.21651982189,0.0426914904074,0.126720145869
1.5,0.486782902132,5,-5.59365236017,1.30625038438,1.88971878494,104625.455994,14.0404683239,16.7371658884,1.28019293215,0.0798967237243,3.14616148736,1.01305750577,0.309796268815,0.975038507418,0.409320706754,1.21562082453,0.0426085382081,0.126540938422
1.525,0.486782902132,5,-5.55168301063,1.31605209841,1.88891575466,104580.995723,14.0426664008,16.7371658884,1.28127613404,0.0797743348042,3.14538299722,1.04586540571,0.17102709697,0.975046027982,0.409889646854,1.21656193988,0.0426315070756,0.126531297743
1.55,0.486782902132,5,-5.50877761265,1.32012968624,1.88787507151,104523.377653,14.0483971752,16.7371658884,1.28406251619,0.0794552452834,3.14814304365,1.06197819447,0.0291183030866,0.975036936818,0.41135907278,1.21898047348,0.0427372076719,0.126643181324
1.575,0.486782902132,5,-5.46571324036,1.31840929731,1.88675795206,104461.52764,14.04449977,16.7371658884,1.28212824201,0.0796722528055,3.14006462375,1.05241443852,-0.113325462547,0.975013227752,0.410344847443,1.21729930707,0.0425813985875,0.126318893286
1.6,0.486782902132,5,-5.42326984714,1.31092209015,1.8857704543,104406.854213,14.0397099969,16.7371658884,1.2798106256,0.0799389473726,3.13153974172,1.0235123236,-0.252585002896,0.975029352965,0.409121192676,1.21528816435,0.0424099919429,0.125978224011
1.625,0.486782902132,5,-5.38221613962,1.2978036681,1.88485960418,104356.424429,14.0380974118,16.7371658884,1.27904919663,0.0800287361102,3.12681705789,0.978412507734,-0.386970392084,0.97504916406,0.408716413209,1.214628478,0.0423271133521,0.125788237535
1.65,0.486782902132,5,-5.34329565533,1.27929162333,1.88390233156,104303.424435,14.0458895407,16.7371658884,1.28286290253,0.0795948703758,3.1321244049,0.921151856937,-0.516837907141,0.975055832367,0.410723444723,1.21794040167,0.0424917698062,0.126003138731
1.675,0.486782902132,5,-5.30721329631,1.25572123373,1.88311005384,104259.559486,13.9906953641,16.7371658884,1.25783649607,0.0824321165616,3.07419553938,0.815695053176,-0.614947606149,0.975023603417,0.397493807838,1.19622170914,0.0410885041491,0.123652141719
1.7,0.486782902132,5,-5.27462256233,1.22751939057,1.88253449002,104227.693037,14.0090465068,16.7371658884,1.26512598141,0.0816462905026,3.08842234751,0.732300769767,-0.725406615598,0.9752514997,0.401353021484,1.20254963213,0.0414620698794,0.124230276619
1.725,0.486782902132,5,-5.24611371517,1.19519686696,1.88212591638,104205.072103,13.9685372959,16.7371658884,1.2518962007,0.0831039491885,3.05798788934,0.616806786118,-0.802260742315,0.975175829332,0.394173023999,1.19112467478,0.0407026614829,0.122996606742
1.75,0.486782902132,5,-5.22220308818,1.15933906703,1.88207923337,104202.48747,13.997890449,16.7371658884,1.26024121088,0.0822139615865,3.07612408226,0.509293856115,-0.887919473057,0.975342732956,0.398752281538,1.19831701275,0.0411734771854,0.123733155821
1.775,0.486782902132,5,-5.2033237348,1.12059542349,1.88213644281,104205.654906,13.9896602169,16.7371658884,1.25780553911,0.0824635022238,3.07096418803,0.384211637556,-0.94519734144,0.975221843039,0.397431460758,1.19621203698,0.0410395896497,0.123523314028
1.8,0.486782902132,5,-5.18981758537,1.07966763555,1.88216853876,104207.431918,13.9702959023,16.7371658884,1.25248590524,0.0830506282434,3.05946220204,0.251952839547,-0.980967234782,0.975255765085,0.394480942673,1.19163884442,0.0407363023981,0.123055273562
1.825,0.486782902132,5,-5.18192925431,1.03729696017,1.88259286594,104230.925056,13.9784145,16.7371658884,1.25483711596,0.0828044723612,3.06594357756,0.118385922075,-1.00960234672,0.975335497496,0.395763112797,1.19366843251,0.0408871358783,0.123320445528
1.85,0.486782902132,5,-5.17980160986,0.994250786963,1.88350977636,104281.690372,13.9958141805,16.7371658884,1.25961359012,0.0822769140473,3.07952829646,-0.0183892194735,-1.02417468843,0.975302082963,0.398414054956,1.19777382164,0.0412011148205,0.123865150189
1.875,0.486782902132,5,-5.18347318649,0.951308739694,1.88465236436,104344.950468,14.0053882768,16.7371658884,1.26331195093,0.0818499807498,3.09160281492,-0.156715120604,-1.01875649634,0.975230402587,0.400403762492,1.20097182802,0.0414571283578,0.124346591846
1.9,0.486782902132,5,-5.19287748705,0.909248556269,1.88547548266,104390.522924,13.9972479245,16.7371658884,1.25986710593,0.0822334429293,3.08612024952,-0.290965944215,-0.984691684174,0.975190921997,0.398579825466,1.19798229807,0.0413043365596,0.124145430527
1.925,0.486782902132,5,-5.20784418707,0.868832002864,1.88618811788,104429.978416,13.989691773,16.7371658884,1.25781769557,0.0824625454433,3.08386491137,-0.41965362944,-0.934711590725,0.975224492025,0.39743758527,1.1962227186,0.0412171068344,0.124056811479
1.95,0.486782902132,5,-5.22810221961,0.830791077315,1.88673478238,104460.244836,13.9719190058,16.7371658884,1.25293529347,0.0830014157431,3.07513637917,-0.538037435346,-0.864559516818,0.975255635061,0.394729450164,1.19202548035,0.0409599860848,0.123693195599
1.975,0.486782902132,5,-5.25328468459,0.795814751661,1.88709195931,104480.020159,13.9385755049,16.7371658884,1.24379338515,0.0840123906921,3.05532909404,-0.641018087388,-0.774536754741,0.975328818711,0.389662599899,1.18416347055,0.0404495236261,0.122923904659
2,0.486782902132,5,-5.28293549389,0.764536493937,1.88725462292,104489.026131,13.9400022338,16.7371658884,1.24436340041,0.08396913227,3.05710813159,-0.739868282073,-0.682055346569,0.975465862036,0.389946441841,1.18466571654,0.0404859669932,0.122997242574
2.025,0.486782902132,5,-5.31651763171,0.737522795225,1.88716938136,104484.30668,13.9226805991,16.7371658884,1.23955730522,0.0844943242338,3.04715289348,-0.819340114516,-0.572752459673,0.975460004979,0.387296273624,1.18052666222,0.0402071824703,0.122556435864
2.05,0.486782902132,5,-5.35342288062,0.715262909735,1.88713455599,104482.378551,13.9461763126,16.7371658884,1.24615712081,0.0837819342018,3.06169164063,-0.897104231338,-0.461811820485,0.975531072784,0.390921998288,1.18621539928,0.0405820894363,0.123142467385
2.075,0.486782902132,5,-5.39298283719,0.698159993766,1.88686606003,104467.513105,13.9327101922,16.7371658884,1.24230352034,0.0841902269729,3.05212975326,-0.945565010191,-0.335249412112,0.975434651858,0.388816708207,1.18288951234,0.0403520519112,0.122762263039
2.1,0.486782902132,5,-5.43448101771,0.686523804,1.88663693845,104454.827646,13.9261335571,16.7371658884,1.24055194185,0.0843896305491,3.04754726125,-0.979319990389,-0.204685554834,0.975489934064,0.387838104544,1.18138576885,0.0402407161606,0.122576427751
2.125,0.486782902132,5,-5.47716583463,0.680565087396,1.88606961154,104423.417239,13.9328887879,16.7371658884,1.24245776678,0.0841848119518,3.04929939931,-0.999809417758,-0.0714693750934,0.975516913101,0.388883377126,1.18302920665,0.0403249069716,0.122673134181
2.15,0.486782902132,5,-5.52026420882,0.68039176428,1.88559401861,104397.085741,13.9339114315,16.7371658884,1.24270578392,0.0841538053982,3.04857413107,-1.00030326138,0.0634225026234,0.975489201237,0.389026431549,1.18324045058,0.0403193992273,0.122633168957
2.175,0.486782902132,5,-5.56299557108,0.686006973767,1.88531455965,104381.613322,13.9334590622,16.7371658884,1.24257511466,0.084167521235,3.0476790825,-0.982354373602,0.197087099396,0.975485004863,0.388955274097,1.18312758482,0.0403000761473,0.122585127225
2.2,0.486782902132,5,-5.6045859993,0.697309016902,1.88488376424,104357.762065,13.9369856625,16.7371658884,1.24355448248,0.0840605947141,3.04797961065,-0.947727607536,0.32745950305,0.97548686118,0.389495279849,1.18397101377,0.0403375860848,0.12261646074
2.225,0.486782902132,5,-5.6442822352,0.71409319857,1.88457467936,104340.649389,13.9536022913,16.7371658884,1.24813940578,0.083556778528,3.05701129128,-0.900669829562,0.45452103811,0.975472387988,0.392029938998,1.1879167641,0.0405867706716,0.122984753166
2.25,0.486782902132,5,-5.68136532685,0.736055534791,1.88430149157,104325.524177,13.9286704829,16.7371658884,1.24114560505,0.0843127109597,3.04070600607,-0.823112717406,0.565589079172,0.975404142729,0.388184746933,1.18188986307,0.0401770281584,0.12232531722
2.275,0.486782902132,5,-5.71516364987,0.762798258284,1.88415019917,104317.147779,13.9351849964,16.7371658884,1.24308066426,0.0841151909104,3.04455998054,-0.741595202989,0.672694599327,0.975506507531,0.389229404756,1.18356468926,0.0402786811846,0.122478991047
2.3,0.486782902132,5,-5.74506507142,0.793837022561,1.88429320445,104325.065356,13.9186239777,16.7371658884,1.2384586009,0.0846173209968,3.03499505725,-0.640486415763,0.761343531104,0.975479778403,0.386686072318,1.17958199318,0.0400215636652,0.122085379376
2.325,0.486782902132,5,-5.77052803678,0.828609674087,1.88460480622,104342.317381,13.9245197064,16.7371658884,1.240178282,0.0844385625034,3.03942027117,-0.53384836528,0.842643535611,0.975547703331,0.387619114549,1.18106878039,0.0401314020692,0.122279692404
2.35,0.486782902132,5,-5.79109137757,0.866486433638,1.8850533767,104367.152765,13.9218606517,16.7371658884,1.23941086568,0.0845191850403,3.03939511729,-0.415651088114,0.906218380095,0.975523531532,0.387201335072,1.18040582544,0.0401072337706,0.122269238499
2.375,0.486782902132,5,-5.8063826642,0.906781302441,1.88543619734,104388.347868,13.8946554084,16.7371658884,1.23188745712,0.0853440480159,3.02400967551,-0.287221063674,0.944011845361,0.975534434646,0.383053660172,1.17392512835,0.039693725017,0.121647346261
2.4,0.486782902132,5,-5.81612495102,0.94876448653,1.88602510804,104420.953275,13.8698852867,16.7371658884,1.22516477719,0.0860950781071,3.01148350046,-0.156453547854,0.965323987289,0.975645863401,0.37933038284,1.16813935572,0.0393324617105,0.121123428441
2.425,0.486782902132,5,-5.82014179218,0.991675614292,1.88685750298,104467.039339,13.8375138444,16.7371658884,1.2163214129,0.0870765802389,2.99453675348,-0.0251150802358,0.965883499476,0.97574712323,0.374450595773,1.1605200824,0.038860760127,0.120439633569
2.45,0.486782902132,5,-5.81836043732,1.03473750781,1.88740246353,104497.211419,13.8038264033,16.7371658884,1.20714956038,0.0880979834534,2.97475228468,0.10341065767,0.94773241581,0.975879176244,0.369393294869,1.15261438023,0.0383580571803,0.119688280534
2.475,0.486782902132,5,-5.81081314915,1.07717025861,1.88802836019,104531.864577,13.7796014948,16.7371658884,1.20060426082,0.0888324826767,2.96211065442,0.22763046568,0.916810998908,0.976016258815,0.365781135925,1.14697252002,0.0380081639283,0.119181431956
2.5,0.486782902132,5,-5.79763661916,1.11820535281,1.88881645269,104575.497808,13.7755239293,16.7371658884,1.1995948892,0.0889561144631,2.96267706286,0.348455277751,0.877397244146,0.976114621843,0.365208073898,1.14610826332,0.0379803045963,0.119191069564
2.525,0.486782902132,5,-5.77906949193,1.15709958998,1.88950070775,104613.382015,13.784057159,16.7371658884,1.20198080731,0.0886973869377,2.97046161921,0.465145489658,0.826277875636,0.976131160779,0.366509627102,1.14817062358,0.0381432824333,0.119492076437
2.55,0.486782902132,5,-5.75544804297,1.19314854347,1.88984733596,104632.573302,13.7392075165,16.7371658884,1.18992251396,0.0900049924792,2.94471300958,0.561801728538,0.743009237931,0.976096543492,0.35990380047,1.13775469338,0.0374695465485,0.118451520625
2.575,0.486782902132,5,-5.7272000883,1.22569931851,1.8895970432,104618.715687,13.769046565,16.7371658884,1.19800003191,0.0891525081504,2.96180000151,0.664277254932,0.668694314063,0.976278238355,0.364301196962,1.14474315201,0.0379173134425,0.119147522072
2.6,0.486782902132,5,-5.69483723617,1.25416237704,1.88903027261,104587.336081,13.739896601,16.7371658884,1.19016112677,0.0899874346072,2.94253636142,0.738830555261,0.566376916451,0.976157423028,0.360022699087,1.13796524648,0.0374495219381,0.118371020969
2.625,0.486782902132,5,-5.65894562111,1.27802221499,1.88849754888,104557.8415,13.7710869658,16.7371658884,1.19856233809,0.089090643198,2.95953174679,0.817991376544,0.46764661382,0.976275451402,0.364609193361,1.14522877938,0.0379052202916,0.119059392788
2.65,0.486782902132,5,-5.62017528828,1.2968466988,1.88760576385,104508.467267,13.7658922058,16.7371658884,1.19696715697,0.0892481483188,2.95354192362,0.870643870096,0.352471085235,0.976149151679,0.363764090742,1.14384058904,0.037781654638,0.118802793338
2.675,0.486782902132,5,-5.57922842024,1.31029489188,1.88650538726,104447.544233,13.7620096783,16.7371658884,1.19591661385,0.0893658665539,2.9476843449,0.907556412665,0.231728793285,0.976170207615,0.363185484319,1.14293442916,0.0376775921804,0.118570315088
2.7,0.486782902132,5,-5.53684661956,1.31812322947,1.88491912045,104359.719584,13.77826676,16.7371658884,1.2004429483,0.0888729518367,2.95265528911,0.935162719197,0.108315211678,0.976185939277,0.365656657252,1.14684649482,0.0378701899634,0.11877616271