time,root_dist,x,y,z,rel_vel_mag,Re,alpha_deg,alpha_geom_deg,cl,cd,fx,fy,fz,end_effect_factor,c_ref_t,c_ref_n,f_ref_t,f_ref_n
0.00119048,0.0477011,5,-1.99813,2.52819,1.73944,1565.5,25.542,72.5735,0,1.1,0.40199,-0.839363,0.0555945,0.243706,-0.992496,0.47429,-0.0202699,0.00968651
