time,root_dist,x,y,z,rel_vel_mag,Re,alpha_deg,alpha_geom_deg,cl,cd,fx,fy,fz,end_effect_factor,c_ref_t,c_ref_n,f_ref_t,f_ref_n
0.00119048,0.775862,5,-1.9772,2.84425,19.1813,41766.3,-2.77063,9.60937,0.125185,0.019061,11.3412,-1.27266,0.0842939,0.548974,-0.0141516,0.125835,-0.0850302,0.756078
