time,root_dist,x,y,z,rel_vel_mag,Re,alpha_deg,alpha_geom_deg,cl,cd,fx,fy,fz,end_effect_factor,c_ref_t,c_ref_n,f_ref_t,f_ref_n
0.00625,0.580146231718,5,-5.18593755846,0.804291580889,2.14806499105,113115.10328,14.4804494508,14.4804494508,1.03282476357,0.0545589034744,3.11356247093,-0.561907250433,-0.901718811046,0.71797868625,0.334019087372,0.978843662419,0.0427304704268,0.125221736574
0.0135416666667,0.580146231718,5,-5.19386561833,0.792108819676,2.1474483976,113082.634043,14.4433250172,14.4804494508,1.38556458852,0.0542529981416,4.15307094034,-0.830159682479,-1.22246850824,0.963040257775,0.464826875038,1.30639526676,0.0594303459106,0.16702890209
0.02265625,0.580146231718,5,-5.20443839101,0.777333572829,2.14749845598,113085.27007,14.3726618779,14.4804494508,1.38617591618,0.0536707338738,4.1562078429,-0.887588508452,-1.17816184063,0.963181325066,0.463982730548,1.30731948812,0.0593251837062,0.167154860924
0.036328125,0.580146231718,5,-5.22162497979,0.75618787843,2.14751422368,113086.100383,14.2894406428,14.4804494508,1.38694747355,0.052984990897,4.15987947377,-0.969846110728,-1.10733186247,0.963383187905,0.463005600601,1.30845577589,0.0592011164721,0.167302604302
0.05,0.580146231718,5,-5.24032101307,0.736364216677,2.14745247873,113082.848951,14.1709977963,14.4804494508,1.38953256172,0.0518889384914,4.16903497274,-1.04697217634,-1.03125862,0.963793368952,0.462268931932,1.31141169607,0.0591035252594,0.167670913942
0.0666666666667,0.580146231718,5,-5.26500624222,0.71414175488,2.14751982741,113086.39547,14.077113452,14.4804494508,1.39228784815,0.0509726272912,4.17877710865,-1.13458402157,-0.93270062102,0.964247712698,0.461980339408,1.31439637357,0.0590703321492,0.168063061865
0.0833333333333,0.580146231718,5,-5.29158463917,0.694222237776,2.14752815276,113086.833875,13.9715338665,14.4804494508,1.39403977429,0.050089055786,4.18567043736,-1.21112697598,-0.825493207462,0.964706979712,0.461018401558,1.31655529289,0.0589477926448,0.168340413633
0.1,0.580146231718,5,-5.3198420818,0.676766141921,2.14754092023,113087.506198,13.8859092094,14.4804494508,1.39286513305,0.049695182363,4.18396872147,-1.27465214853,-0.710441285071,0.965220988178,0.458991291732,1.31600527512,0.0586892955092,0.168272086801
0.116666666667,0.580146231718,5,-5.34955092115,0.661914097938,2.14767519679,113094.577077,13.8327182229,14.4804494508,1.39227225426,0.0494505038253,4.18380867263,-1.32987733975,-0.591798769268,0.965635904123,0.457782892083,1.31578957513,0.0585421025922,0.168265546025
0.133333333333,0.580146231718,5,-5.38047181548,0.649785757564,2.14774015309,113097.997615,13.7868842447,14.4804494508,1.39161552691,0.0492396675257,4.1830284219,-1.37437557519,-0.46907463332,0.965892769279,0.456689591641,1.31546681314,0.0584058221584,0.168234446657
0.15,0.580146231718,5,-5.41235565841,0.640478829709,2.1480236845,113112.928115,13.7608621226,14.4804494508,1.39135037448,0.0491199657641,4.18386375038,-1.40947357527,-0.34360252942,0.966113558342,0.456108086394,1.31538361291,0.0583468558537,0.168268224889
0.166666666667,0.580146231718,5,-5.44494558583,0.634068293284,2.14838682741,113132.050883,13.7396515562,14.4804494508,1.39115109338,0.0490141184037,4.18510354553,-1.4336434444,-0.215691612715,0.966238683719,0.455648021462,1.31532833504,0.0583077127236,0.168318050522
0.183333333333,0.580146231718,5,-5.47797904521,0.630605793156,2.14889183099,113158.643902,13.7294745279,14.4804494508,1.39116400887,0.0489591624505,4.1872994143,-1.44732285307,-0.0862802678486,0.966340550994,0.455470301097,1.31540149916,0.058312374814,0.168406557057
0.2,0.580146231718,5,-5.51118991086,0.630119224081,2.14943180617,113187.078492,13.7149652242,14.4804494508,1.39104362259,0.0488808122105,4.18931668051,-1.44898952877,0.043835918803,0.966389388841,0.455166939179,1.31537627743,0.0583028260956,0.168487971669
0.216666666667,0.580146231718,5,-5.54431062781,0.63261250598,2.15014905335,113224.848061,13.7063099268,14.4804494508,1.39103001939,0.048834073605,4.19223720007,-1.43967635154,0.17363945159,0.966458972711,0.455006941041,1.31541551047,0.058321234891,0.168605465204
0.233333333333,0.580146231718,5,-5.57707436739,0.638065552357,2.15091559311,113265.213332,13.6914639473,14.4804494508,1.39089458681,0.0487539053152,4.19508455486,-1.41832936916,0.302034911564,0.966500457302,0.454692188599,1.3153781618,0.0583224533113,0.168720913514
0.25,0.580146231718,5,-5.60921717682,0.646434432124,2.15178982839,113311.249747,13.6719635952,14.4804494508,1.39074058716,0.0486486034143,4.19841337184,-1.38542719162,0.427961488065,0.966571570829,0.454287418211,1.31535128732,0.0583179117339,0.168854643994
0.266666666667,0.580146231718,5,-5.64048010567,0.657651723516,2.15263715494,113355.869175,13.6246371551,14.4804494508,1.39025268445,0.0483930406373,4.20119310922,-1.33951369163,0.549659624034,0.966664896847,0.453264427989,1.31517898832,0.0582324223146,0.168965516679
0.283333333333,0.580146231718,5,-5.67061129205,0.671627057259,2.15352750873,113402.754377,13.5763075621,14.4804494508,1.38994235092,0.0481320608353,4.20466911698,-1.28312515329,0.666667717621,0.966891004542,0.452287590378,1.31517769513,0.0581550018991,0.169105151202
0.3,0.580146231718,5,-5.69936799169,0.688247844611,2.15435660825,113446.413986,13.519808851,14.4804494508,1.38953033618,0.0478269677954,4.20768824105,-1.21597433632,0.777625293638,0.96712133194,0.451128485578,1.31512929536,0.0580506372821,0.169229157867
0.325,0.580146231718,5,-5.73942258721,0.71784077681,2.15574138467,113519.335024,13.4771082624,14.4804494508,1.38836509956,0.0476339270666,4.21045946692,-1.09899447639,0.932537656917,0.96692915051,0.449913660251,1.31430755115,0.0579687655972,0.169340904903
0.35,0.580146231718,5,-5.77514091947,0.752543989909,2.1561665342,113541.723003,13.3470123618,14.4804494508,1.38508502869,0.0471447664802,4.20499631204,-0.956301355501,1.06329053859,0.967133363761,0.446224582895,1.31208490096,0.0575161290206,0.169121216854
0.375,0.580146231718,5,-5.8058760817,0.791728962306,2.15603441649,113534.765807,13.2017200266,14.4804494508,1.37540358082,0.0472873786293,4.17920329549,-0.792385960346,1.16373315958,0.967752712399,0.439358186897,1.30419917571,0.0566241448791,0.168084185703
0.4,0.580146231718,5,-5.831071419,0.834686001743,2.15531674576,113496.973934,13.0664509806,14.4804494508,1.35422374639,0.0487089333317,4.11781925971,-0.611641206179,1.22492302034,0.968439309047,0.427545420421,1.28588468727,0.0550650477449,0.165613519212
0.425,0.580146231718,5,-5.85027061012,0.880637098784,2.15442037733,113449.772007,12.961554261,14.4804494508,1.33791851224,0.0498113024936,4.06913551803,-0.431905120449,1.26742621461,0.969073625204,0.41848763691,1.27176067285,0.0538536425691,0.163658227074
0.45,0.580146231718,5,-5.86312593202,0.928750017606,2.1528051597,113364.71615,12.882423484,14.4804494508,1.32561723537,0.0506428950225,4.02892247859,-0.253243571249,1.29065727105,0.969562205224,0.411689522638,1.26108583946,0.0528994090657,0.162041276302
0.475,0.580146231718,5,-5.86940455765,0.978153368901,2.15089239361,113263.991668,12.8044095294,14.4804494508,1.31332098634,0.0514627507634,3.98764455645,-0.0762441924615,1.28921260498,0.969928836842,0.404958825843,1.25038745085,0.051942134311,0.160381225863
0.5,0.580146231718,5,-5.86899277268,1.0279523919,2.14945155271,113188.118327,12.7383331996,14.4804494508,1.30296490632,0.0521571529201,3.95359566085,0.0960618848779,1.26808973529,0.970288646299,0.399301608754,1.24136865634,0.0511479151955,0.159011176937
0.525,0.580146231718,5,-5.86189803509,1.0772451597,2.14886079438,113157.009543,12.6961543269,14.4804494508,1.29644859971,0.0526004145286,3.9333801115,0.262947509838,1.23192427211,0.970592107621,0.395733960904,1.23569430179,0.0506630628205,0.158197335138
0.55,0.580146231718,5,-5.84824884008,1.12513891435,2.14927733507,113178.944188,12.6694300291,14.4804494508,1.2923187494,0.0528812626029,3.92343213191,0.423714843089,1.17915520837,0.970785194592,0.393477559174,1.23209560847,0.0503937226404,0.157797777566
0.575,0.580146231718,5,-5.82829239281,1.1707662359,2.14925175268,113177.597043,12.6747066394,14.4804494508,1.29334772761,0.0528258102263,3.92632569772,0.578967630652,1.11304595916,0.970907280833,0.39399605348,1.23300690208,0.0504589263668,0.157910730151
0.6,0.580146231718,5,-5.80239013124,1.21330075252,2.14899807276,113164.238494,12.6537713375,14.4804494508,1.28987800167,0.0530458212167,3.91576487702,0.719626910374,1.02019366223,0.970883190932,0.39214988491,1.22996649796,0.0502106332569,0.157484163896
0.625,0.580146231718,5,-5.77101117997,1.25197210725,2.14881539014,113154.618598,12.6106107606,14.4804494508,1.28291713725,0.0534993996431,3.89575888005,0.841869703665,0.905481579957,0.97097872407,0.388416756204,1.22387539819,0.0497241907096,0.156677621993
0.65,0.580146231718,5,-5.73472385378,1.28607991011,2.14883354774,113155.57476,12.5519417017,14.4804494508,1.27354033526,0.0541159581167,3.86974467833,0.943476312004,0.774106772523,0.971175295031,0.383386380355,1.21566788467,0.0490810434037,0.155629545725
0.675,0.580146231718,5,-5.69418536466,1.31500642319,2.14889807523,113158.972717,12.5025697299,14.4804494508,1.26577796221,0.0546348126562,3.84840567537,1.02763414475,0.633483943318,0.971441669743,0.37921021235,1.20887486003,0.0485493269096,0.15476919888
0.7,0.580146231718,5,-5.65012991888,1.33822774865,2.14869719563,113148.394585,12.4956335749,14.4804494508,1.26492922203,0.0547077053402,3.84535531579,1.10171271572,0.489019725022,0.971665089345,0.378706692158,1.20814738798,0.0484757981563,0.154647145496
0.725,0.580146231718,5,-5.60335541948,1.35532331722,2.14839067229,113132.253351,12.4959251721,14.4804494508,1.26501793307,0.0547046409182,3.84455248398,1.15719935544,0.336602803721,0.971696422378,0.378745890257,1.20822784248,0.0484669845344,0.154613321654
0.75,0.580146231718,5,-5.55470901521,1.3659835053,2.14765604375,113093.568496,12.4734855687,14.4804494508,1.2613284909,0.054940460751,3.83156269911,1.18495834183,0.177133403559,0.971695105403,0.376797571457,1.20498614363,0.0481846941656,0.15409305474
0.775,0.580146231718,5,-5.50507175749,1.37001524263,2.14650692897,113033.057181,12.4494280611,14.4804494508,1.25750592901,0.0551932832853,3.81681093256,1.19024681716,0.0163145798344,0.971796382218,0.37475675349,1.20163423541,0.0478724453776,0.153500020381
0.8,0.580146231718,5,-5.45534264347,1.36734550903,2.14512450475,112960.260008,12.4243784314,14.4804494508,1.25352867855,0.0554565321206,3.80080576441,1.17345148661,-0.142653823487,0.97190480379,0.372635835766,1.19814527868,0.047540219311,0.152857250558
0.825,0.580146231718,5,-5.4064223339,1.35802265698,2.14360959261,112880.486144,12.408362901,14.4804494508,1.25104119214,0.0556248407861,3.78855869105,1.13796927382,-0.297435111044,0.97201752315,0.37130021132,1.19596586089,0.0473029400857,0.152363773942
0.85,0.580146231718,5,-5.35919684102,1.34221553577,2.14214746824,112803.492036,12.367121726,14.4804494508,1.24435349572,0.0560582480434,3.76474482678,1.07590671589,-0.442677343751,0.972089497531,0.36777124121,1.19008506571,0.046789461849,0.151407814259
0.875,0.580146231718,5,-5.31452148166,1.32021043352,2.14067115234,112725.750615,12.3276969481,14.4804494508,1.23810737966,0.0564725666184,3.7422073749,0.996268673233,-0.577078127489,0.972274502109,0.364455389003,1.18459752818,0.0463037158383,0.150502006508
0.9,0.580146231718,5,-5.27320538633,1.29240589206,2.13955726562,112667.094377,12.3218115915,14.4804494508,1.23736406214,0.0565344163657,3.73623703843,0.90772764501,-0.704047853184,0.972450906039,0.364024827343,1.18395603279,0.0462008950539,0.150264004845
0.925,0.580146231718,5,-5.23599684478,1.25930548882,2.13909278894,112642.635467,12.3461857967,14.4804494508,1.24140640562,0.0562782656278,3.7458566652,0.809286111408,-0.823947413741,0.972477201678,0.366134298688,1.18751959243,0.0464484490089,0.150650849795
0.95,0.580146231718,5,-5.20356975346,1.22150871638,2.13872741143,112623.395028,12.3329841647,14.4804494508,1.23909624286,0.0564170027787,3.73809437121,0.68884582068,-0.921836123604,0.972368233927,0.364950640464,1.18547602561,0.0462824729894,0.15034022701
0.975,0.580146231718,5,-5.17651141035,1.17970012484,2.13867885885,112620.838293,12.3083773622,14.4804494508,1.23512454614,0.0566755979027,3.72686635142,0.555597309149,-1.00016285528,0.972427274436,0.362859603081,1.18198040437,0.0460152015676,0.149890112028
1,0.580146231718,5,-5.15531187825,1.13463692369,2.13836252559,112604.180479,12.2408868894,14.4804494508,1.22416314701,0.0573848614167,3.69532062215,0.409562703061,-1.04853404987,0.972537188392,0.357117317238,1.17232062788,0.0452736110005,0.148621154765
1.025,0.580146231718,5,-5.14035510902,1.08713526779,2.13818250251,112594.700631,12.186028169,14.4804494508,1.21551539977,0.0579613766969,3.67070487277,0.261633207377,-1.0798732675,0.972837764369,0.352554708547,1.16470699566,0.0446876602556,0.147631074717
1.05,0.580146231718,5,-5.13191198977,1.03805547565,2.13887991671,112631.425813,12.2066245605,14.4804494508,1.21920909833,0.057744927346,3.68339368988,0.114942283781,-1.11176843283,0.973081116059,0.354415835273,1.16798746474,0.0449528755524,0.148143479844
1.075,0.580146231718,5,-5.13013543668,0.988286447956,2.14067688128,112726.052295,12.3075567154,14.4804494508,1.23570405829,0.0566842221541,3.73551236672,-0.0363000326139,-1.14620190873,0.972989853145,0.363029833615,1.18253412662,0.0461228472313,0.150240657427
1.1,0.580146231718,5,-5.1350576255,0.938729568352,2.14271389557,112833.319572,12.4024805633,14.4804494508,1.25074719899,0.0556866588073,3.78449255068,-0.19442648771,-1.15805392881,0.972540851081,0.371019729996,1.1957482677,0.0472277147977,0.152208773796
1.125,0.580146231718,5,-5.14658940881,0.89028237821,2.14264884869,112829.894264,12.3715669635,14.4804494508,1.24511815923,0.0560115326377,3.76834992473,-0.345451047946,-1.11272972464,0.972115914733,0.368166012379,1.19076039133,0.0468616150565,0.151564656179
1.15,0.580146231718,5,-5.16452193058,0.843822320938,2.14222129068,112807.379457,12.299697324,14.4804494508,1.2334779045,0.0567668172131,3.73455646465,-0.483372975187,-1.03831119466,0.972254584366,0.362039984982,1.18051567618,0.0460634811316,0.150200706637
1.175,0.580146231718,5,-5.18853040887,0.80019085031,2.14178996243,112784.666113,12.2449200817,14.4804494508,1.22487531485,0.0573424762319,3.70879979831,-0.61032147194,-0.951390762733,0.972575919146,0.357479008902,1.17295202575,0.0454648599706,0.149178268583
1.2,0.580146231718,5,-5.21818001802,0.760178190614,2.14158742572,112774.000718,12.2212430766,14.4804494508,1.22128692442,0.0575913000315,3.69820009301,-0.728473474561,-0.856045503114,0.972819838932,0.355555768947,1.16980280593,0.0452117066235,0.148749608045
1.225,0.580146231718,5,-5.25293376396,0.724509024631,2.14132613336,112760.241306,12.1930010632,14.4804494508,1.21677177819,0.0578880979175,3.68499984356,-0.831104834677,-0.745352703412,0.972925003766,0.353186492628,1.16582326855,0.0448994762828,0.14820740682
1.25,0.580146231718,5,-5.29216220987,0.693829368662,2.14125305963,112756.393311,12.1586713914,14.4804494508,1.21127878258,0.0582488715594,3.66943513446,-0.916074999207,-0.62185913324,0.973050232827,0.350310373781,1.16097883796,0.044530805011,0.147581476669
1.275,0.580146231718,5,-5.33515487613,0.668694872308,2.14117418557,112752.239876,12.1462164063,14.4804494508,1.2094178571,0.0583797621303,3.66367017855,-0.988292690378,-0.491737728607,0.973202144032,0.34931248696,1.15934487369,0.0444006842683,0.147362913198
1.3,0.580146231718,5,-5.38113310805,0.649560754913,2.14113741602,112750.303626,12.1575617402,14.4804494508,1.21135373447,0.0582605329844,3.66894944671,-1.04829113815,-0.355574072255,0.973257173522,0.350301971244,1.16106015721,0.0445249271512,0.147575872138
1.325,0.580146231718,5,-5.42926417836,0.636773560935,2.14070863142,112727.724228,12.1410276446,14.4804494508,1.20856990344,0.058434291299,3.65974128411,-1.08168932762,-0.210651470059,0.973207048603,0.348872685119,1.15859554094,0.0443254999732,0.147203632756
1.35,0.580146231718,5,-5.478676369,0.630564883558,2.14020241819,112701.067511,12.1313686841,14.4804494508,1.20707065967,0.0585357981925,3.65370896125,-1.09712268158,-0.0633254343865,0.973280085543,0.348080826849,1.15727514234,0.0442039783577,0.146966340573
1.375,0.580146231718,5,-5.52847475912,0.631047170233,2.13971123244,112675.202126,12.1265612897,14.4804494508,1.20633215877,0.0585863195373,3.6501375855,-1.09400311607,0.0844321351927,0.973322715724,0.347689447373,1.15662512609,0.0441340108647,0.146816379579
1.4,0.580146231718,5,-5.57775743326,0.638211686104,2.13922440753,112649.56638,12.137417436,14.4804494508,1.20814557119,0.0584722313093,3.65341177083,-1.07510970573,0.23106819094,0.973343923195,0.348622120915,1.15823026201,0.0442322656866,0.146953235615
1.425,0.580146231718,5,-5.6256318163,0.651928672206,2.13900121065,112637.813039,12.1438963839,14.4804494508,1.20915262081,0.0584041434563,3.65548720391,-1.03572071009,0.373829912433,0.973296022516,0.349153899926,1.15911718931,0.0442904928395,0.1470350799
1.45,0.580146231718,5,-5.67123083912,0.671949695575,2.13863421976,112618.487641,12.1230907492,14.4804494508,1.20569235224,0.0586227917635,3.64469026122,-0.970858769327,0.506754480935,0.973267419017,0.347371351737,1.15605528585,0.0440492559114,0.146596358277
1.475,0.580146231718,5,-5.71372864244,0.697912148701,2.13861766822,112617.616052,12.1271314759,14.4804494508,1.20647127819,0.0585803273983,3.64676490006,-0.894976819559,0.633200507179,0.973359229039,0.347753072455,1.15675079444,0.0440969783532,0.146682283445
1.5,0.580146231718,5,-5.75235553419,0.729345816835,2.13905670573,112640.735359,12.1484914133,14.4804494508,1.20996543192,0.0583558538748,3.65801681368,-0.806360361505,0.751843172701,0.973341408212,0.349564138213,1.15983906875,0.0443448328529,0.147134285292
1.525,0.580146231718,5,-5.78641192971,0.765681394208,2.13939116922,112658.347895,12.1577938048,14.4804494508,1.21137942649,0.058258094197,3.66325170268,-0.699861492826,0.855453539472,0.973247125297,0.350317566425,1.16108213453,0.0444543093888,0.147338042339
1.55,0.580146231718,5,-5.81528102213,0.806260794916,2.1402039322,112701.147237,12.1593140194,14.4804494508,1.21157848802,0.0582421181238,3.66619600099,-0.579223882751,0.942598570663,0.973206022925,0.350430021796,1.16125508687,0.0445023736465,0.147471976031
1.575,0.580146231718,5,-5.83843995357,0.850349071741,2.14073661293,112729.197708,12.1521107907,14.4804494508,1.21038451063,0.0583178175089,3.66452253673,-0.446827892751,1.0105143552,0.973199303503,0.349813398226,1.16019921472,0.0444461827795,0.147411238734
1.6,0.580146231718,5,-5.85546928481,0.897147727023,2.14144792348,112766.65466,12.1431828302,14.4804494508,1.20895455981,0.058411642257,3.66284453803,-0.306633633551,1.05976110457,0.973231136167,0.349066191019,1.15893737619,0.0443807234022,0.147348785005
1.625,0.580146231718,5,-5.86606059189,0.945809174528,2.14183984744,112787.293011,12.0998490137,14.4804494508,1.20187051252,0.058867041274,3.64417491229,-0.159910432024,1.08019958887,0.97327056984,0.345397310464,1.15267460948,0.043930332909,0.146606177281
1.65,0.580146231718,5,-5.87002205207,0.995452090358,2.14187758061,112789.280005,12.0399363298,14.4804494508,1.19224250113,0.0594966691163,3.61732068303,-0.0132261788154,1.07609390053,0.973461639484,0.340396009015,1.14416458265,0.0432957537098,0.145528932954
1.675,0.580146231718,5,-5.86728191801,1.04517737491,2.14162112195,112775.77513,12.0031657989,14.4804494508,1.18650943528,0.0598830939684,3.60097215247,0.130213076372,1.05860308464,0.973724903683,0.337393956214,1.13910313109,0.0429036396698,0.144850461554
1.7,0.580146231718,5,-5.8578898172,1.09408443679,2.14157205178,112773.191141,12.0153593653,14.4804494508,1.18871409124,0.0597549506701,3.60695057332,0.272039038988,1.03481516452,0.973885955102,0.338489551545,1.14106821371,0.0430409851673,0.145093695911
1.725,0.580146231718,5,-5.84201585315,1.14128750368,2.14183209746,112786.884904,12.0057947365,14.4804494508,1.18707364751,0.0598554662236,3.60249092736,0.407538682285,0.986532329323,0.97383259267,0.337659606492,1.13961068423,0.042945880375,0.144943556108
1.75,0.580146231718,5,-5.81994752457,1.18593166492,2.14221817167,112807.215213,11.9917535153,14.4804494508,1.18481196336,0.0600030266941,3.5974574108,0.534649036807,0.920013467922,0.973874453856,0.336490736813,1.13760877976,0.0428126456034,0.144741106351
1.775,0.580146231718,5,-5.79208451842,1.22720835504,2.14256083319,112825.25945,12.0130086319,14.4804494508,1.18838779215,0.0597796547415,3.60936797978,0.657216389853,0.844875324654,0.973935858602,0.338311060566,1.14078252877,0.0430580219296,0.145191348632
1.8,0.580146231718,5,-5.758931471,1.26436999797,2.14288985703,112842.585539,12.0382179976,14.4804494508,1.19242641284,0.0595147272255,3.62233634006,0.769798444289,0.753962420397,0.97384288355,0.340405822959,1.14435424083,0.0433379369788,0.145690668683
1.825,0.580146231718,5,-5.72108882833,1.29674354666,2.14285272139,112840.63001,12.0315711849,14.4804494508,1.1911965497,0.0595845791841,3.61876447069,0.862498926001,0.642604966916,0.973732438696,0.339798338086,1.14325702777,0.0432590971507,0.145545935012
1.85,0.580146231718,5,-5.67924197129,1.32374267285,2.14250709746,112822.429776,12.0247424704,14.4804494508,1.19010757728,0.0596563427652,3.61419772442,0.939011480707,0.51988904455,0.973761577267,0.339232504298,1.14229428466,0.0431731316106,0.145376462646
1.875,0.580146231718,5,-5.63414880243,1.34487838625,2.14174822558,112782.468289,12.0393142506,14.4804494508,1.19254404272,0.0595032066024,3.61840938222,1.0032595179,0.390242091765,0.973791499703,0.340477702127,1.14445483082,0.0433009138022,0.145548268419
1.9,0.580146231718,5,-5.58662601935,1.35976789083,2.14066361913,112725.353923,12.0385464848,14.4804494508,1.19233938868,0.0595112751232,3.61452671871,1.0453406859,0.251700345664,0.973727631646,0.3403866996,1.14426906993,0.04324550702,0.145377290459
1.925,0.580146231718,5,-5.53753432319,1.36814151774,2.13913284504,112644.744784,12.0305843496,14.4804494508,1.19103227121,0.0595949499258,3.60570960586,1.06603228574,0.108688638523,0.973730998322,0.339714257063,1.14311139119,0.0430983695417,0.145022577476
1.95,0.580146231718,5,-5.48776283025,1.3698476094,2.1375038733,112558.964648,12.0329706206,14.4804494508,1.19146796032,0.059569872387,3.60142830618,1.0700179018,-0.0354037456812,0.973765902286,0.339930364362,1.14349981091,0.0430601298713,0.144850991637
1.975,0.580146231718,5,-5.43821296881,1.3648552662,2.13594166405,112476.700163,12.0490950407,14.4804494508,1.19411067143,0.0594004193906,3.60345449366,1.05823099051,-0.179207914131,0.973755443445,0.341291246893,1.14583986239,0.0431693470013,0.144935327459
2,0.580146231718,5,-5.38978215315,1.35325490617,2.13465297722,112408.839114,12.0775621435,14.4804494508,1.19871181966,0.0591012560194,3.61201575078,1.0305351611,-0.321533727006,0.973684727396,0.343675638677,1.14990870961,0.043418505448,0.145274532012
2.025,0.580146231718,5,-5.3433475301,1.33525662734,2.13355970569,112351.268453,12.0640674167,14.4804494508,1.19633590901,0.0592430733299,3.60129525783,0.973522434291,-0.45488942322,0.973559693993,0.342479965154,1.1477965074,0.0432231413218,0.144859190888
2.05,0.580146231718,5,-5.29975009279,1.3111864026,2.13286264266,112314.561762,12.0621628025,14.4804494508,1.19609515574,0.0592630890933,3.59820375788,0.902653991282,-0.580862070102,0.973618995306,0.34234278054,1.14758753737,0.0431776005006,0.144738195296
2.075,0.580146231718,5,-5.25977944912,1.28148017592,2.13248561145,112294.70765,12.0666238558,14.4804494508,1.19684002058,0.0592162074793,3.59908675164,0.817126269209,-0.697351143435,0.973627360648,0.342724384569,1.14824761716,0.0432104490026,0.144770250784
2.1,0.580146231718,5,-5.2241595209,1.24667596679,2.1323320235,112286.619851,12.0589028042,14.4804494508,1.19554455657,0.0592973487124,3.59459402082,0.714529212105,-0.79900803779,0.973607765379,0.342061893639,1.14709922118,0.0431207105779,0.144604629866
2.125,0.580146231718,5,-5.19353543268,1.20740412599,2.13229922563,112284.892746,12.0418168911,14.4804494508,1.19277267152,0.0594769061262,3.58689528696,0.598253438072,-0.88399148361,0.97364167656,0.340628536442,1.14464682258,0.0429386990131,0.144291038867
2.15,0.580146231718,5,-5.16846182765,1.16437591909,2.13252136784,112296.590548,12.029543068,14.4804494508,1.19084324817,0.059605892849,3.5825928439,0.472872845006,-0.953761351762,0.973716656287,0.339620330288,1.14294292746,0.042820527973,0.144106271716
2.175,0.580146231718,5,-5.14939282233,1.11837064445,2.13322110171,112333.437882,12.0357416853,14.4804494508,1.19192991366,0.0595407510168,3.58791596238,0.341291988362,-1.01088763486,0.973770465616,0.340166733525,1.14390935546,0.0429175712301,0.144322787638
2.2,0.580146231718,5,-5.13667378191,1.07022151912,2.13377102309,112362.39623,12.0161263567,14.4804494508,1.18866627631,0.0597468902873,3.5808713168,0.201586325896,-1.04300787457,0.973743295977,0.33849654599,1.1410159051,0.0427288714507,0.144031962836
2.225,0.580146231718,5,-5.13053506522,1.02080058817,2.13457178645,112404.563683,12.0127910423,14.4804494508,1.1882218533,0.0597819414105,3.58246745016,0.0597159742222,-1.0606891663,0.973829234634,0.338249458996,1.1406280536,0.0427297345851,0.144091092223
2.25,0.580146231718,5,-5.13108785263,0.971002930743,2.13563495697,112460.549253,12.0162758666,14.4804494508,1.18881363218,0.0597453190746,3.58721139605,-0.0833929554265,-1.06095805712,0.973843836016,0.338549954381,1.14115348819,0.0428103083904,0.144301105695
2.275,0.580146231718,5,-5.13832213243,0.921730449024,2.13662404394,112512.633653,12.0264681746,14.4804494508,1.19047369156,0.0596382071837,3.59499544916,-0.225863892324,-1.04370051851,0.973828580031,0.339405691893,1.1426233423,0.0429582814126,0.144620836537
2.3,0.580146231718,5,-5.15210688213,0.873875533554,2.13733072978,112549.847071,12.0152072411,14.4804494508,1.18856451797,0.0597565493567,3.59206813118,-0.363162286053,-1.00172205718,0.973783939216,0.338435331077,1.14092856272,0.0428638039354,0.144501870006
2.325,0.580146231718,5,-5.17219244147,0.828304900854,2.13804544248,112587.483177,11.9881772368,14.4804494508,1.1841728261,0.0600406101294,3.58224683763,-0.49140480163,-0.938210869576,0.973833258678,0.336172259382,1.13703929965,0.0426056593763,0.144105611771
2.35,0.580146231718,5,-5.19821503412,0.785843896029,2.13860997264,112617.21081,11.9815125929,14.4804494508,1.18321878126,0.0601106494779,3.58094997042,-0.612222577385,-0.862733147465,0.973951488979,0.33565754982,1.13620155948,0.0425628940709,0.144075491956
2.375,0.580146231718,5,-5.22970335612,0.747261544666,2.13897960749,112636.675437,11.9831063963,14.4804494508,1.18351669785,0.060093900053,3.58391328633,-0.723264012009,-0.773510445136,0.97398060717,0.335803756953,1.13646772402,0.0425961545186,0.144159062475
2.4,0.580146231718,5,-5.26608711184,0.713256624749,2.13888321613,112631.599558,11.9763045231,14.4804494508,1.18238779582,0.060165381557,3.58075059774,-0.81916617854,-0.668240466031,0.973973644953,0.335227141572,1.13546621984,0.0425191793626,0.144019042239
2.425,0.580146231718,5,-5.3067073428,0.684445010857,2.13880762552,112627.619027,11.9686406186,14.4804494508,1.18116138105,0.0602459222259,3.57712262616,-0.899717792429,-0.551120561582,0.974003352349,0.334592837587,1.13438062936,0.042435726582,0.143871179595
2.45,0.580146231718,5,-5.35082836231,0.66134851985,2.13857186538,112615.204117,11.975922117,14.4804494508,1.18240147889,0.0601694002979,3.57951606574,-0.967089537492,-0.42599054946,0.974036808258,0.335220307887,1.13548269877,0.0425059349757,0.143979205986
2.475,0.580146231718,5,-5.39765107968,0.644385460072,2.13831612776,112601.737212,11.9874224756,14.4804494508,1.18425735652,0.0600485419835,3.58392558856,-1.01821276003,-0.293050381662,0.974005022112,0.336177837627,1.13712610355,0.0426171553124,0.144153106899
2.5,0.580146231718,5,-5.44632747288,0.633863055221,2.13757810258,112562.873493,11.9714006011,14.4804494508,1.18155711746,0.0602169173198,3.57350060094,-1.0432259412,-0.152927950661,0.973954787232,0.334806010781,1.13472826443,0.0424139563304,0.14374985366
2.525,0.580146231718,5,-5.49597594733,0.629971880123,2.13683738341,112523.867911,11.9723636984,14.4804494508,1.1818006625,0.0602067960421,3.5716688526,-1.05391164279,-0.0114612802027,0.974024761874,0.33491535898,1.13494905899,0.0423984095027,0.143678197125
2.55,0.580146231718,5,-5.54569730275,0.632782409162,2.13626175935,112493.556084,11.978348454,14.4804494508,1.18278145094,0.0601439017015,3.57314658828,-1.04710896373,0.130304365922,0.97402055775,0.335418431443,1.13581852664,0.0424392217514,0.143710809552
2.575,0.580146231718,5,-5.59459101891,0.642243739899,2.13567040834,112462.41609,11.9983798351,14.4804494508,1.18604946924,0.0599333900962,3.58029161151,-1.02467847673,0.270925744636,0.973994426857,0.337098702539,1.13871410788,0.0426282099519,0.143997421824
2.6,0.580146231718,5,-5.6417715652,0.658184514979,2.13528663856,112442.20713,11.9858708853,14.4804494508,1.18388246959,0.0600648477871,3.57294787644,-0.975500871988,0.404599240054,0.973906887799,0.336007317884,1.13678695017,0.042474928432,0.143702061774
2.625,0.580146231718,5,-5.68638443884,0.680316025648,2.13515885582,112435.47821,11.9735353884,14.4804494508,1.18191699198,0.0601944826454,3.56710511359,-0.909478422442,0.530250619379,0.973961567043,0.334988746392,1.13504788069,0.0423411019486,0.143465052335
2.65,0.580146231718,5,-5.72762164102,0.708237440647,2.13483041365,112418.182751,11.974289974,14.4804494508,1.18210667573,0.0601865526372,3.56603742195,-0.829881135283,0.647440529319,0.974015442704,0.335074055009,1.13521979879,0.0423388559729,0.14344264153
2.675,0.580146231718,5,-5.76473631085,0.741443065808,2.13484333785,112418.863328,11.9793286405,14.4804494508,1.18293270723,0.0601336008326,3.56872723435,-0.736442287068,0.754042875854,0.974012148323,0.335497733157,1.13595207242,0.0423929038371,0.143536907139
2.7,0.580146231718,5,-5.79705625202,0.779331502849,2.13518035938,112436.610567,11.9577739926,14.4804494508,1.17935532523,0.0603601205864,3.55959943322,-0.625252957862,0.841693774259,0.973990146114,0.333671734628,1.13277778086,0.0421754869637,0.143181005675