time,root_dist,x,y,z,rel_vel_mag,Re,alpha_deg,alpha_geom_deg,cl,cd,fx,fy,fz,end_effect_factor,c_ref_t,c_ref_n,f_ref_t,f_ref_n
0.00119048,0.603448,5,-1.98216,2.76941,15.0187,40615.5,-5.57279,9.99975,-0.114181,0.0383021,-7.69454,-3.00987,0.199356,0.70732,-0.0439562,-0.112126,-0.201097,-0.512969
