time,root_dist,x,y,z,rel_vel_mag,Re,alpha_deg,alpha_geom_deg,cl,cd,fx,fy,fz,end_effect_factor,c_ref_t,c_ref_n,f_ref_t,f_ref_n
0.00119048,0.123563,5,-1.99595,2.56112,3.48445,15207.5,-25.0978,18.235,-0.167797,0.53167,-0.245543,-2.75271,0.182324,0.399591,-0.555325,-0.0494268,-0.2207,-0.0196434
