time,root_dist,x,y,z,rel_vel_mag,Re,alpha_deg,alpha_geom_deg,cl,cd,fx,fy,fz,end_effect_factor,c_ref_t,c_ref_n,f_ref_t,f_ref_n
0.00625,0.0595238095238,5,-5.49689115987,1.09229765768,0.942079946444,47909.1938576,47.3981174913,47.3981174913,0,1.1,0.724813340358,-0.450495444913,0.0151739313146,0.273035911694,-0.580905326905,0.934103313972,-0.0138041718446,0.0221972876981
0.0135416666667,0.0595238095238,5,-5.49326888101,1.09210436763,0.941431596736,47876.2222272,47.3682548595,47.3981174913,0,1.1,0.723582214516,-0.449310195688,0.032836232079,0.295423843263,-0.581392103793,0.93380041853,-0.0137967294815,0.0221595575174
0.02265625,0.0595238095238,5,-5.48875629005,1.09166297773,0.940759572512,47842.0466363,47.3258912965,47.3981174913,0,1.1,0.722215088407,-0.447047941968,0.0548365056382,0.295452678773,-0.582082381579,0.9333702915,-0.0137933966754,0.0221177398305
0.036328125,0.0595238095238,5,-5.48204160454,1.09058707707,0.93996988033,47801.8870766,47.2770505367,47.3981174913,0,1.1,0.720622087152,-0.441663544897,0.0875573961996,0.295458168883,-0.582877804768,0.93287376676,-0.013789066721,0.022068877056
0.05,0.0595238095238,5,-5.4754242956,1.08901998233,0.938780124524,47741.382401,47.2039878814,47.3981174913,0,1.1,0.71822123571,-0.433805537704,0.119760489539,0.295533541336,-0.584066916143,0.932129732101,-0.0137822416055,0.0219954885655
0.0666666666667,0.0595238095238,5,-5.467541209,1.08645778963,0.937655839785,47684.2072369,47.1341686017,47.3981174913,0,1.1,0.715949639752,-0.421125425131,0.158102840901,0.295593854028,-0.585202353424,0.931417310096,-0.0137759789046,0.0219260656423
0.0833333333333,0.0595238095238,5,-5.45991961845,1.0831990716,0.936358822892,47618.2478308,47.0529130528,47.3981174913,0,1.1,0.713331794853,-0.40504310696,0.195125762326,0.295702002944,-0.586522678974,0.930586453291,-0.0137688891354,0.0218459441818
0.1,0.0595238095238,5,-5.45262092536,1.07927008128,0.935046667672,47551.5185696,46.9737749406,47.3981174913,0,1.1,0.710713170009,-0.385677043715,0.23051599222,0.295828282512,-0.587807464289,0.929775448657,-0.0137604028912,0.0217657745932
0.116666666667,0.0595238095238,5,-5.44570392981,1.07470247159,0.933722976366,47484.2026443,46.8967979138,47.3981174913,0,1.1,0.708099112284,-0.363195217498,0.263981533684,0.295951702666,-0.58905608912,0.928984888936,-0.0137506181068,0.0216857387109
0.133333333333,0.0595238095238,5,-5.43922435683,1.06953304033,0.9324210315,47417.9926276,46.8229928946,47.3981174913,0,1.1,0.705547625646,-0.337804086465,0.295259067137,0.296072161896,-0.590252263219,0.928225331353,-0.0137401432996,0.0216076241666
0.15,0.0595238095238,5,-5.43323440745,1.06380343369,0.931240955412,47357.9802111,46.7566835016,47.3981174913,0,1.1,0.703249459915,-0.309749222069,0.324129739685,0.296188037427,-0.591326118864,0.927541600765,-0.0137303205727,0.0215370894617
0.166666666667,0.0595238095238,5,-5.42778233819,1.05755981083,0.930038442966,47296.8268004,46.6872965788,47.3981174913,0,1.1,0.70088376695,-0.279242653366,0.350352984394,0.296292462749,-0.592448965918,0.926824806953,-0.0137208882142,0.0214649029738
0.183333333333,0.0595238095238,5,-5.42291207227,1.05085247189,0.928839814938,47235.8709306,46.6171446701,47.3981174913,0,1.1,0.698528850932,-0.246538023177,0.373730216186,0.296402057736,-0.593583308972,0.926098728706,-0.0137117474788,0.021392838573
0.2,0.0595238095238,5,-5.41866284575,1.04373545287,0.927706195817,47178.2210693,46.5484410367,47.3981174913,0,1.1,0.696286812922,-0.211911698678,0.394103487907,0.296513197693,-0.594693371219,0.925386294597,-0.0137038782437,0.0213242348465
0.216666666667,0.0595238095238,5,-5.41506889145,1.03626609024,0.926586787106,47121.2938742,46.4799075645,47.3981174913,0,1.1,0.694071293829,-0.175622239319,0.411287551927,0.296622372074,-0.595799832223,0.924674299374,-0.0136962622171,0.0212564371198
0.233333333333,0.0595238095238,5,-5.41215916317,1.02850455901,0.92549468396,47065.7552954,46.4107753135,47.3981174913,0,1.1,0.691895962802,-0.137968545809,0.425169619978,0.296731601063,-0.596915096763,0.923954743078,-0.0136895729191,0.0211898574821
0.25,0.0595238095238,5,-5.40995710238,1.020513388,0.924423782024,47011.2948978,46.3407586949,47.3981174913,0,1.1,0.689749377031,-0.0992470002772,0.435641712794,0.296842114019,-0.598043742447,0.923224610872,-0.013683734828,0.021124141706
0.266666666667,0.0595238095238,5,-5.40848044943,1.01235695608,0.923370101464,46957.7102881,46.2697144546,47.3981174913,0,1.1,0.687624261729,-0.0597627899837,0.442622248244,0.296954378934,-0.59918804022,0.922482353467,-0.0136786813282,0.0210590687681
0.283333333333,0.0595238095238,5,-5.40774110061,1.00410097346,0.922333061697,46904.971941,46.1978231607,47.3981174913,0,1.1,0.68552177454,-0.0198275298395,0.446056552264,0.297068640276,-0.600345043552,0.921729802427,-0.0136743270262,0.0209946511319
0.3,0.0595238095238,5,-5.40774501229,0.995811952379,0.92119666433,46847.1807929,46.1216324952,47.3981174913,0,1.1,0.683239521792,0.0202398401932,0.445846460496,0.297184622388,-0.60157020838,0.920930662097,-0.0136684891833,0.0209247908525
0.325,0.0595238095238,5,-5.40914278608,0.983462491775,0.920038062401,46788.2604383,46.0414557281,47.3981174913,0,1.1,0.680897793625,0.0798915810123,0.438925040444,0.297093551724,-0.602858321974,0.920087954288,-0.0136633228142,0.02085308982
0.35,0.0595238095238,5,-5.41218610552,0.971412547562,0.918410331919,46705.4826916,45.9363886036,47.3981174913,0,1.1,0.677675825216,0.138001040154,0.423906565444,0.297222746602,-0.604544534576,0.918980906066,-0.013653100918,0.0207543668574
0.375,0.0595238095238,5,-5.41681985204,0.959880360347,0.916946631855,46631.0466627,45.8450040117,47.3981174913,0,1.1,0.674811919708,0.193522865092,0.401231434046,0.297392730275,-0.606009504641,0.918015512006,-0.0136425964984,0.020666532643
0.4,0.0595238095238,5,-5.42296010229,0.949074793463,0.91565158323,46565.1873523,45.7686750649,47.3981174913,0,1.1,0.67232003763,0.245447730941,0.37131450947,0.297541207779,-0.60723193893,0.917207376956,-0.0136315294815,0.0205900556247
0.425,0.0595238095238,5,-5.43049564812,0.939191550179,0.91443586177,46503.3622011,45.7044776903,47.3981174913,0,1.1,0.670041576007,0.29280097152,0.33467292482,0.297665674361,-0.608259247653,0.916526424957,-0.0136183565078,0.0205201707201
0.45,0.0595238095238,5,-5.43929001072,0.930409629247,0.912914789715,46426.0085368,45.6418692892,47.3981174913,0,1.1,0.667331753554,0.334524028138,0.291835636783,0.297770677009,-0.609260393574,0.915861219193,-0.0135954288716,0.0204371171884
0.475,0.0595238095238,5,-5.44918391242,0.922888083003,0.911210551224,46339.3399981,45.5738251634,47.3981174913,0,1.1,0.664316299199,0.36995648989,0.243798132939,0.297873361679,-0.610347634992,0.9151370195,-0.0135688869922,0.020344784002
0.5,0.0595238095238,5,-5.45999816143,0.916763136706,0.909738382134,46264.4732795,45.5134440325,47.3981174913,0,1.1,0.661704421365,0.398680535534,0.191597253822,0.297985276887,-0.611311712616,0.914493296869,-0.0135464417105,0.0202648336111
0.525,0.0595238095238,5,-5.47153689723,0.912145721328,0.908440585473,46198.4742185,45.4558428548,47.3981174913,0,1.1,0.659373052622,0.420227062449,0.136145515551,0.298084864102,-0.61223077127,0.91387826471,-0.0135281275816,0.0201934668089
0.55,0.0595238095238,5,-5.4835911379,0.909119464435,0.907289762069,46139.9494385,45.3995129773,47.3981174913,0,1.1,0.657267720252,0.434236272967,0.0784031814741,0.298180108436,-0.613128947194,0.913275913464,-0.013513670353,0.0201290604405
0.575,0.0595238095238,5,-5.495942565,0.907739175588,0.906269461702,46088.0623686,45.3439948028,47.3981174913,0,1.1,0.655361332735,0.440473764988,0.0193711001535,0.29827347977,-0.614013600692,0.912681378229,-0.0135027479974,0.0200707388863
0.6,0.0595238095238,5,-5.50836747768,0.908029853663,0.905108950485,46029.0449178,45.2761059268,47.3981174913,0,1.1,0.653159246207,0.438731091185,-0.0399159157462,0.298365727762,-0.615094591353,0.911953202576,-0.0134918997913,0.0200033968702
0.625,0.0595238095238,5,-5.52064084414,0.909986234091,0.904039755866,45974.6713453,45.2092605113,47.3981174913,0,1.1,0.651108870768,0.429128585861,-0.098402462879,0.298478831003,-0.616158123307,0.911234968097,-0.0134833161169,0.0199404481851
0.65,0.0595238095238,5,-5.53254037732,0.913572884208,0.903200867929,45932.0099502,45.1535271367,47.3981174913,0,1.1,0.649480606599,0.41186147505,-0.155068553164,0.298590519395,-0.617044218063,0.910635181044,-0.0134776588491,0.0198903578493
0.675,0.0595238095238,5,-5.54385056073,0.918724844982,0.902574012418,45900.1314007,45.1107625985,47.3981174913,0,1.1,0.648256278513,0.387201754942,-0.208907802977,0.298683887262,-0.617723727829,0.910174376742,-0.0134737787875,0.0198527070562
0.7,0.0595238095238,5,-5.55436655185,0.925348807512,0.902137889568,45877.9525037,45.0824397349,47.3981174913,0,1.1,0.647414993707,0.35556107923,-0.258946028938,0.298755680923,-0.618173576311,0.909868907894,-0.0134705635077,0.019826869632
0.725,0.0595238095238,5,-5.563897892,0.93332480298,0.901758306358,45858.6489131,45.0620354587,47.3981174913,0,1.1,0.64671220521,0.317470043239,-0.304246068154,0.298803302458,-0.618497561259,0.909648705115,-0.01346628414,0.0198053940678
0.75,0.0595238095238,5,-5.57227195587,0.942508375439,0.900674839036,45803.5495065,45.0142234985,47.3981174913,0,1.1,0.644795891411,0.273421960153,-0.343715106137,0.298837645789,-0.619256425954,0.909132267008,-0.0134504267167,0.0197466129066
0.775,0.0595238095238,5,-5.57933707796,0.952733198109,0.89914686681,45725.844936,44.9454075873,47.3981174913,0,1.1,0.642081291046,0.224426088533,-0.376698007263,0.298918238293,-0.620347905279,0.90838784471,-0.0134284556797,0.019663556222
0.8,0.0595238095238,5,-5.58496529946,0.963814085778,0.897693014368,45651.909705,44.8771002566,47.3981174913,0,1.1,0.639482238005,0.171556183696,-0.402817583444,0.299034526438,-0.621430433097,0.907647628114,-0.0134084225802,0.0195840472296
0.825,0.0595238095238,5,-5.58905468575,0.97555034875,0.89626326461,45579.2002088,44.805558899,47.3981174913,0,1.1,0.63689876984,0.115756174335,-0.421626861804,0.299150295618,-0.622563266464,0.906870982693,-0.0133901105963,0.019505010027
0.85,0.0595238095238,5,-5.59153117258,0.987729427605,0.894843500789,45506.9985444,44.7296221973,47.3981174913,0,1.1,0.634301578385,0.0580222625431,-0.43281157188,0.299271910481,-0.62376463668,0.906045075053,-0.0133734791628,0.0194255560819
0.875,0.0595238095238,5,-5.59234990745,1.00013074294,0.893458651424,45436.5724442,44.6508930782,47.3981174913,0,1.1,0.631743778132,-0.000617547317096,-0.436202815994,0.299401406215,-0.625009027965,0.905187115994,-0.0133587150775,0.0193471393746
0.9,0.0595238095238,5,-5.59149606199,1.01252969034,0.891869332448,45355.7481031,44.5529381949,47.3981174913,0,1.1,0.628751514458,-0.0591176792754,-0.431697408371,0.299536109926,-0.626555653591,0.904117256197,-0.0133441708555,0.0192555841942
0.925,0.0595238095238,5,-5.58898510048,1.02470170829,0.890424551347,45282.2741924,44.4676151278,47.3981174913,0,1.1,0.626065686282,-0.116419451011,-0.419387858631,0.299704344355,-0.627901341254,0.903183207135,-0.0133295393945,0.0191734200088
0.95,0.0595238095238,5,-5.58486249979,1.03642634527,0.8891196483,45215.9137383,44.3965773355,47.3981174913,0,1.1,0.623690351141,-0.171479267528,-0.399495452939,0.299851460389,-0.629020664069,0.902404013829,-0.0133141917572,0.0191007716739
0.975,0.0595238095238,5,-5.57920292572,1.04749125242,0.8879491697,45156.3893993,44.3411632604,47.3981174913,0,1.1,0.6216269571,-0.223288062651,-0.372385796106,0.299974356049,-0.629893137059,0.901795229465,-0.0132975786295,0.0190376625271
1,0.0595238095238,5,-5.57210888075,1.05769602947,0.886861205581,45101.0613095,44.2998519321,47.3981174913,0,1.1,0.619788587869,-0.270880906029,-0.33854875506,0.300070482326,-0.630543184493,0.901340830368,-0.0132787021894,0.018981469869
1.025,0.0595238095238,5,-5.5637088475,1.06685585427,0.886197833305,45067.3257108,44.2874277938,47.3981174913,0,1.1,0.618773393832,-0.313516532371,-0.298758832265,0.300142293098,-0.630738618325,0.901204080857,-0.0132629541928,0.0189502086847
1.05,0.0595238095238,5,-5.55415496182,1.07480483012,0.885505359879,45032.1101819,44.2813924366,47.3981174913,0,1.1,0.617757223558,-0.350295230706,-0.253596255943,0.300163914591,-0.630833544828,0.901137635836,-0.0132442279564,0.0189192099357
1.075,0.0595238095238,5,-5.54362025736,1.08139899046,0.884852387093,44998.9034462,44.2830498554,47.3981174913,0,1.1,0.616862045405,-0.380598505143,-0.20395590473,0.300174421955,-0.630807476982,0.901155883842,-0.0132241560542,0.0188917006725
1.1,0.0595238095238,5,-5.53229553169,1.08651890622,0.884290650914,44970.3365209,44.2910345085,47.3981174913,0,1.1,0.616133504118,-0.403940150072,-0.15078163245,0.300171536172,-0.630681887138,0.901243783466,-0.0132047415368,0.0188695623976
1.125,0.0595238095238,5,-5.52038589075,1.09007184887,0.883766319095,44943.671783,44.3020417603,47.3981174913,0,1.1,0.615474830117,-0.419906817968,-0.0950371800292,0.30015763671,-0.630508735046,0.901364928889,-0.013185465895,0.0188497254172
1.15,0.0595238095238,5,-5.50810703406,1.09199346987,0.883254042075,44917.6200884,44.3139438868,47.3981174913,0,1.1,0.614838388841,-0.428232312566,-0.037738482423,0.300138483372,-0.630321479739,0.901495885837,-0.0131662729349,0.0188306146373
1.175,0.0595238095238,5,-5.49568134815,1.0922489661,0.882588064397,44883.7519928,44.3195254652,47.3981174913,0,1.1,0.613950524395,-0.428712598937,0.0200702570086,0.300117783036,-0.630233655796,0.901557285536,-0.0131445938399,0.018803509195
1.2,0.0595238095238,5,-5.4833338788,1.09083371017,0.881711428115,44839.170917,44.3172751494,47.3981174913,0,1.1,0.612710978739,-0.421318378559,0.0773032737386,0.300108079109,-0.63026906435,0.901532532149,-0.013119231942,0.0187656590836
1.225,0.0595238095238,5,-5.47128825519,1.08777333428,0.880994487562,44802.7111196,44.3226381655,47.3981174913,0,1.1,0.611752518675,-0.406405410839,0.132940243671,0.300111991147,-0.630184676081,0.901591522826,-0.0130961517858,0.0187363797944
1.25,0.0595238095238,5,-5.45976263968,1.0831232659,0.880442459315,44774.6378882,44.3361027057,47.3981174913,0,1.1,0.611085014582,-0.38426248037,0.186009388749,0.300102668489,-0.629972784171,0.901739591681,-0.0130753470117,0.0187159800735
1.275,0.0595238095238,5,-5.44896577658,1.07696772401,0.880055922883,44754.9806936,44.3586046142,47.3981174913,0,1.1,0.610715644813,-0.355294176249,0.235581376538,0.300079272183,-0.629618593251,0.901986932851,-0.0130565237917,0.018704679269
1.3,0.0595238095238,5,-5.43909321152,1.0694181937,0.879754114412,44739.6323141,44.3850731333,47.3981174913,0,1.1,0.610491446586,-0.320011625235,0.280774813218,0.300040202394,-0.629201841667,0.902277696966,-0.0130389337242,0.0186978777119
1.325,0.0595238095238,5,-5.43032374986,1.06061140706,0.87947255381,44725.3136339,44.4128807683,47.3981174913,0,1.1,0.610265570454,-0.279020925546,0.320750379292,0.29999429354,-0.628763860825,0.902582964231,-0.0130215185206,0.0186922333126
1.35,0.0595238095238,5,-5.42281621827,1.05070686677,0.879499740818,44726.6962211,44.4484131266,47.3981174913,0,1.1,0.61055544308,-0.233228193078,0.355009786504,0.299946118001,-0.62820399713,0.902972722728,-0.0130107282649,0.0187014612764
1.375,0.0595238095238,5,-5.4167065882,1.03988395731,0.87973064323,44738.4386942,44.4858064484,47.3981174913,0,1.1,0.611143119867,-0.183368862474,0.382946407576,0.299884643083,-0.627614550351,0.903382519306,-0.0130053463531,0.0187197740179
1.4,0.0595238095238,5,-5.41210551322,1.02833869604,0.880092108595,44756.8209072,44.5198068315,47.3981174913,0,1.1,0.611893303966,-0.130283632492,0.404083977474,0.299820049388,-0.627078355859,0.90375479839,-0.0130049157862,0.0187428810685
1.425,0.0595238095238,5,-5.40909632494,1.01628018309,0.880523137798,44778.7407683,44.5472203634,47.3981174913,0,1.1,0.612689366574,-0.074866959227,0.41803471724,0.299761406398,-0.62664587684,0.904054724582,-0.0130086794146,0.0187674706242
1.45,0.0595238095238,5,-5.4077335238,1.00392681424,0.880984697781,44802.2132632,44.566526572,47.3981174913,0,1.1,0.613468587465,-0.0180680240026,0.424535718586,0.299714186377,-0.626341213788,0.904265825911,-0.0130159897863,0.0187915380548
1.475,0.0595238095238,5,-5.40804179194,0.991502325541,0.881275540946,44817.0040054,44.5581593478,47.3981174913,0,1.1,0.613807808663,0.0391332535828,0.423483376782,0.299680964543,-0.626473262123,0.904174348146,-0.0130273311584,0.0188020453073
1.5,0.0595238095238,5,-5.41001554622,0.979231741087,0.88158717354,44832.8519877,44.5401160097,47.3981174913,0,1.1,0.614105141706,0.0957521202259,0.414873594982,0.299695359364,-0.626757969713,0.903977017076,-0.0130424707172,0.0188112386981
1.525,0.0595238095238,5,-5.41361903931,0.967337297579,0.882005849456,44854.1436262,44.5247322005,47.3981174913,0,1.1,0.614570619799,0.150792065859,0.398790135188,0.29972641836,-0.627000663249,0.903808701156,-0.0130599168084,0.0188256044047
1.55,0.0595238095238,5,-5.41878700712,0.956034419296,0.882502284484,44879.389681,44.5139563321,47.3981174913,0,1.1,0.615177586499,0.203255492944,0.37545249347,0.299752918325,-0.627170635423,0.903690762409,-0.0130781668054,0.0188443429328
1.575,0.0595238095238,5,-5.42542585084,0.94552781648,0.883026781104,44906.0627997,44.5082080566,47.3981174913,0,1.1,0.615860540242,0.252161717328,0.345217399129,0.299771491108,-0.627261296247,0.903627836131,-0.013095609656,0.0188654353251
1.6,0.0595238095238,5,-5.43341533215,0.93600777776,0.883433793093,44926.7612727,44.500591605,47.3981174913,0,1.1,0.616489672433,0.296618493584,0.308635068174,0.299781402073,-0.627381411904,0.903544444948,-0.0131101947308,0.0188810879577
1.625,0.0595238095238,5,-5.44261075084,0.92764672377,0.883247290013,44917.2767144,44.4691357597,47.3981174913,0,1.1,0.6158723793,0.335430842064,0.266057394679,0.299794537837,-0.627877370521,0.903199871339,-0.0131150194059,0.0188659193597
1.65,0.0595238095238,5,-5.45284556559,0.92059608438,0.88300861549,44905.1389929,44.4371002676,47.3981174913,0,1.1,0.615302062499,0.368215743932,0.218666863081,0.299848833773,-0.628382273812,0.90284866836,-0.0131184730344,0.0188483927756
1.675,0.0595238095238,5,-5.46393441022,0.914983556099,0.882911603386,44900.2054713,44.4118660881,47.3981174913,0,1.1,0.614995641502,0.394416351546,0.167318905454,0.29990420544,-0.628779845028,0.90257182899,-0.0131238887637,0.0188384732408
1.7,0.0595238095238,5,-5.4756764509,0.910910789321,0.882889414899,44899.0770825,44.3904138644,47.3981174913,0,1.1,0.614831292402,0.41353060131,0.112904040868,0.299947874884,-0.629117734613,0.902336343053,-0.0131302812128,0.018832611578
1.725,0.0595238095238,5,-5.4878590236,0.908451547299,0.882906289104,44899.9352151,44.3708829108,47.3981174913,0,1.1,0.614734062047,0.425187390688,0.0563875185664,0.299985036503,-0.62942528597,0.902121837327,-0.0131372022546,0.0188288543524
1.75,0.0595238095238,5,-5.50026148561,0.907650370194,0.882938002732,44901.5480022,44.3526288047,47.3981174913,0,1.1,0.614679657224,0.429161646829,-0.00121516021942,0.300018899591,-0.629712664854,0.901921260268,-0.0131441445661,0.0188260203326
1.775,0.0595238095238,5,-5.51265921177,0.908521768397,0.882650418797,44886.9230072,44.318350116,47.3981174913,0,1.1,0.614031725852,0.425205533977,-0.0588420524485,0.300050574452,-0.630252149951,0.901544356914,-0.0131468370048,0.0188058965192
1.8,0.0595238095238,5,-5.52482766268,0.911049959719,0.88251970122,44880.2754039,44.2911291251,47.3981174913,0,1.1,0.613647637314,0.413613652421,-0.115447505238,0.300110122336,-0.630680398848,0.901244824955,-0.0131518737628,0.0187940804706
1.825,0.0595238095238,5,-5.53654645141,0.915189155236,0.882540317748,44881.3238513,44.271273028,47.3981174913,0,1.1,0.613534193707,0.394584632977,-0.170033303578,0.300157472033,-0.630992691213,0.901026205854,-0.0131590009346,0.0187903993977
1.85,0.0595238095238,5,-5.54760333502,0.920864388579,0.882700246208,44889.4569653,44.2588472558,47.3981174913,0,1.1,0.613663691371,0.368428172953,-0.221624745587,0.300192045607,-0.6311880825,0.90088934088,-0.0131678468045,0.0187943548958
1.875,0.0595238095238,5,-5.55779805857,0.927972873684,0.882923558294,44900.8134346,44.2508403114,47.3981174913,0,1.1,0.613919985249,0.335573333198,-0.269280313673,0.300213696384,-0.631313973408,0.900801125099,-0.0131771379126,0.0188020242815
1.9,0.0595238095238,5,-5.56694598198,0.936385866378,0.883094997776,44909.5319382,44.2419683165,47.3981174913,0,1.1,0.613999984141,0.296513612492,-0.312043783807,0.300227653851,-0.631453450859,0.900703358159,-0.0131851680672,0.0188072852241
1.925,0.0595238095238,5,-5.57488142412,0.94595099611,0.882770715298,44893.0406498,44.209151688,47.3981174913,0,1.1,0.613390733145,0.251986138923,-0.34911061414,0.300243124829,-0.631969232505,0.900341540287,-0.013186248315,0.0187859258139
1.95,0.0595238095238,5,-5.58146066352,0.95649502559,0.882548953237,44881.7630065,44.1791863279,47.3981174913,0,1.1,0.612857424424,0.202877106954,-0.379876185894,0.300300401453,-0.632440019454,0.90001090093,-0.0131894422671,0.0187695930878
1.975,0.0595238095238,5,-5.58656454136,0.967826988342,0.882454605949,44876.9650034,44.1530374718,47.3981174913,0,1.1,0.612529802158,0.150097992868,-0.403852895393,0.300352771817,-0.632850703821,0.899722171936,-0.0131951853614,0.0187595601312
2,0.0595238095238,5,-5.59010061958,0.979741647364,0.882426965344,44875.5593487,44.1287847326,47.3981174913,0,1.1,0.612309015467,0.0945630181759,-0.420576474297,0.300398526911,-0.63323149065,0.899454211869,-0.0132022978216,0.0187527982378
2.025,0.0595238095238,5,-5.59200485507,0.992023212246,0.882429385438,44875.6824218,44.1060777678,47.3981174913,0,1.1,0.612141484631,0.0372556367915,-0.429709247538,0.300441009906,-0.63358790478,0.899203184446,-0.0132098011871,0.0187476673776
2.05,0.0595238095238,5,-5.59224275959,1.00444924742,0.882290120359,44868.6001379,44.0789308777,47.3981174913,0,1.1,0.611711335885,-0.0207865385631,-0.430951012033,0.300480825115,-0.634013878465,0.898902887921,-0.0132145103799,0.0187354913614
2.075,0.0595238095238,5,-5.59081002437,1.01679470078,0.881949632461,44851.2847277,44.0468075839,47.3981174913,0,1.1,0.610969463664,-0.078461701114,-0.424247450697,0.300528476153,-0.634517755208,0.898547282187,-0.0132148070324,0.0187136275481
2.1,0.0595238095238,5,-5.58773259815,1.02883597964,0.881744898107,44840.8730234,44.0255936767,47.3981174913,0,1.1,0.610497669056,-0.134718077954,-0.409875688089,0.300584933693,-0.634850401111,0.8983122888,-0.0132155970628,0.018700048428
2.125,0.0595238095238,5,-5.58306621724,1.04035500035,0.881654376339,44836.2695659,44.0166693924,47.3981174913,0,1.1,0.610273381224,-0.188526522024,-0.388060584824,0.300622260172,-0.634990312864,0.898213394784,-0.0132157956472,0.0186941508122
2.15,0.0595238095238,5,-5.57689539605,1.05114313802,0.88164503762,44835.7946482,44.0211470409,47.3981174913,0,1.1,0.610271446771,-0.238885115496,-0.359171655792,0.30063797281,-0.63492011581,0.898263016349,-0.0132140547263,0.0186947875191
2.175,0.0595238095238,5,-5.56933189639,1.06100500507,0.881616266057,44834.331479,44.0343060722,47.3981174913,0,1.1,0.610319330006,-0.284832556223,-0.323710837383,0.300630088441,-0.634713796416,0.898408813759,-0.0132088986161,0.0186966015293
2.2,0.0595238095238,5,-5.56051270336,1.06976198988,0.881362089835,44821.4054232,44.048882717,47.3981174913,0,1.1,0.610225787861,-0.325493244192,-0.28233822118,0.300606926371,-0.634485211292,0.898570262502,-0.0131965289802,0.0186891802974
2.225,0.0595238095238,5,-5.55059754434,1.07725549176,0.880745402567,44790.0439767,44.0587409079,47.3981174913,0,1.1,0.609443522524,-0.359862664539,-0.235687673568,0.300581284251,-0.634330595798,0.898679417387,-0.0131748569541,0.0186653029984
2.25,0.0595238095238,5,-5.53976599612,1.08334979336,0.880211149659,44762.8747049,44.0797870779,47.3981174913,0,1.1,0.608856720979,-0.387574274005,-0.184910801261,0.300563951519,-0.634000445628,0.898912362215,-0.0131520294784,0.0186474977548
2.275,0.0595238095238,5,-5.52821423252,1.08793451872,0.879721629592,44737.9803083,44.1074239196,47.3981174913,0,1.1,0.608370275204,-0.408148164979,-0.130956391164,0.300526972418,-0.633566778022,0.899218070207,-0.0131284186046,0.0186330970184
2.3,0.0595238095238,5,-5.51615147145,1.09092663235,0.879244947425,44713.7387793,44.139285689,47.3981174913,0,1.1,0.607928923215,-0.421231993807,-0.0748242439445,0.300478463647,-0.633066631408,0.899570253064,-0.0131038425108,0.018620199421
2.325,0.0595238095238,5,-5.50379618562,1.09227194305,0.87878216792,44690.204266,44.173358679,47.3981174913,0,1.1,0.607519554879,-0.426636983258,-0.017552390535,0.300422610206,-0.632531557787,0.899946569749,-0.0130789882261,0.0186083847438
2.35,0.0595238095238,5,-5.49137214579,1.09194608546,0.878060528753,44653.505522,44.1946863927,47.3981174913,0,1.1,0.606625482083,-0.424168866519,0.0398023159078,0.300362964572,-0.632196518918,0.900181960199,-0.0130506003179,0.0185826948178
2.375,0.0595238095238,5,-5.47910436794,1.08995496129,0.877368830547,44618.3294167,44.2143661541,47.3981174913,0,1.1,0.605788682033,-0.414108330717,0.0961931969687,0.300325674031,-0.631887290163,0.900399051827,-0.0130236735788,0.018557903481
2.4,0.0595238095238,5,-5.46721503794,1.08633463246,0.876863570967,44592.6345919,44.2387968495,47.3981174913,0,1.1,0.605251627447,-0.396729789069,0.150655313071,0.300291294996,-0.631503306111,0.900668404226,-0.0130007726511,0.0185420805308
2.425,0.0595238095238,5,-5.45591948745,1.08115066798,0.876537786707,44576.0669308,44.2674845753,47.3981174913,0,1.1,0.604994975172,-0.372353111004,0.202259776702,0.300248656654,-0.631052266564,0.900984482033,-0.0129818353358,0.0185348073457
2.45,0.0595238095238,5,-5.44542229399,1.07449695636,0.8763590849,44566.9791039,44.2999949282,47.3981174913,0,1.1,0.604985736579,-0.341405292063,0.250119180323,0.300198645423,-0.630540934967,0.901342404046,-0.0129660279154,0.0185346107193
2.475,0.0595238095238,5,-5.43591357578,1.06649400523,0.876240994175,44560.9736354,44.3298081534,47.3981174913,0,1.1,0.605232525186,-0.304516005807,0.293490245672,0.300142044311,-0.630071846077,0.901670377012,-0.0129528903317,0.018536358324
2.5,0.0595238095238,5,-5.42756554843,1.05728675873,0.875874886131,44542.3553204,44.3403152359,47.3981174913,0,1.1,0.604816561654,-0.262067798953,0.331363437441,0.30009020807,-0.629906484299,0.901785906431,-0.0129386720933,0.0185232450094
2.525,0.0595238095238,5,-5.42052940587,1.04704197241,0.875584657233,44527.5958166,44.3463213323,47.3981174913,0,1.1,0.604460036796,-0.215026444082,0.363256011368,0.300071955157,-0.629811950087,0.901851932153,-0.0129281583218,0.0185123266716
2.55,0.0595238095238,5,-5.41493258205,1.03594519306,0.875513608619,44523.9826605,44.3524880897,47.3981174913,0,1.1,0.604409768884,-0.16425230462,0.388717329242,0.300061525045,-0.629714879917,0.901919713728,-0.0129240680795,0.0185107135852
2.575,0.0595238095238,5,-5.41087644295,1.02419739819,0.875590989599,44527.9178471,44.3555402888,47.3981174913,0,1.1,0.60453909653,-0.110581620602,0.407292854188,0.300050818719,-0.629666832927,0.901953257941,-0.0129253664544,0.0185146743866
2.6,0.0595238095238,5,-5.40843445066,1.01201135607,0.875764003661,44536.7164255,44.3537221447,47.3981174913,0,1.1,0.604765437697,-0.0549159186235,0.418637681322,0.300045520733,-0.629695453933,0.901933276521,-0.0129310627282,0.0185215816669
2.625,0.0595238095238,5,-5.40765083294,0.999607772235,0.875991037476,44548.2621622,44.3461914044,47.3981174913,0,1.1,0.605029332159,0.00179455022587,0.422522915219,0.300048676572,-0.629813995187,0.901850503946,-0.012940203674,0.018529485362
2.65,0.0595238095238,5,-5.40853978213,0.987211292166,0.875984875485,44547.9487961,44.3125338639,47.3981174913,0,1.1,0.604777525849,0.0585607360007,0.418805225882,0.300061750648,-0.630343664949,0.90148037364,-0.0129509041039,0.0185216200618
2.675,0.0595238095238,5,-5.4110851982,0.975046432701,0.876135116876,44555.589277,44.2817200421,47.3981174913,0,1.1,0.604761771459,0.114392732982,0.407605335876,0.300120234816,-0.630828392298,0.901141242797,-0.0129653094596,0.0185210038456
2.7,0.0595238095238,5,-5.41524098024,0.963333515712,0.876417518935,44569.9507493,44.2562892359,47.3981174913,0,1.1,0.604969231494,0.16830393035,0.38905492126,0.300173851534,-0.631228302858,0.900861160041,-0.0129818935405,0.0185271852062
2.725,0.0595238095238,5,-5.42093186149,0.952284677793,0.876803370094,44589.5730945,44.2387794906,47.3981174913,0,1.1,0.605375726079,0.219309247468,0.363413116629,0.300218154929,-0.631503578987,0.900668212899,-0.012998993199,0.018539530675
2.75,0.0595238095238,5,-5.42805477248,0.942100028175,0.877208571036,44610.1794672,44.2274628646,47.3981174913,0,1.1,0.605851459907,0.266441004538,0.331073713637,0.300248686934,-0.631681459794,0.900543465554,-0.0130146754557,0.0185540999442
2.775,0.0595238095238,5,-5.43648070776,0.932964024484,0.877441174311,44622.0084372,44.2161141846,47.3981174913,0,1.1,0.606027277799,0.308702124588,0.292507721645,0.300268432066,-0.631859819696,0.900418329586,-0.0130252551304,0.0185613613991
2.8,0.0595238095238,5,-5.44605706237,0.925042131965,0.877205213227,44610.0087069,44.1895272123,47.3981174913,0,1.1,0.605475052334,0.345208529842,0.24842705217,0.300288242718,-0.632277572956,0.900125030614,-0.0130268575796,0.018545336857
2.825,0.0595238095238,5,-5.45661039573,0.918477826687,0.877054094189,44602.3235934,44.1700600956,47.3981174913,0,1.1,0.605127371702,0.375495091771,0.199854625724,0.300334691508,-0.63258336769,0.899910152694,-0.0130286677457,0.0185345220555
2.85,0.0595238095238,5,-5.46794957286,0.913389996998,0.87699231663,44599.1819141,44.1566411459,47.3981174913,0,1.1,0.604945615674,0.399008624657,0.147654963753,0.300368735031,-0.632794113664,0.89976197392,-0.0130311723012,0.0185288596385
2.875,0.0595238095238,5,-5.47986922608,0.909870790298,0.876966800636,44597.8843058,44.1461898707,47.3981174913,0,1.1,0.604836945198,0.415307825337,0.0927609147605,0.300392218189,-0.632958227964,0.899646531507,-0.0130337934515,0.0185254042888
2.9,0.0595238095238,5,-5.49215347454,0.907983944128,0.876959900039,44597.5333781,44.1368431096,47.3981174913,0,1.1,0.604768440544,0.424101206652,0.0361645680449,0.300410517246,-0.63310498046,0.899543263949,-0.0130366101948,0.0185229863093