time,root_dist,x,y,z,rel_vel_mag,Re,alpha_deg,alpha_geom_deg,cl,cd,fx,fy,fz,end_effect_factor,c_ref_t,c_ref_n,f_ref_t,f_ref_n
0.00625,0.860048743903,5,-5.05922624236,0.725331259383,2.90997204511,139971.589824,10.3720518974,10.3720518974,0.616333459964,0.0238870283488,3.19478669045,-0.413060717771,-0.662857827572,0.426920579477,0.146473765287,0.59915186729,0.0314113739906,0.12848842483
0.0135416666667,0.860048743903,5,-5.07035294928,0.708233253611,2.9093261411,139940.521412,10.3483187679,10.3720518974,1.05372775742,0.0237826025788,5.43521176691,-0.79766463395,-1.17461726427,0.729802770711,0.266398788156,1.01977423218,0.0571039982621,0.218594034848
0.02265625,0.860048743903,5,-5.08519140216,0.687496800565,2.90986944681,139966.654778,10.2981185946,10.3720518974,1.05439255051,0.0235617218161,5.44156925386,-0.853073519409,-1.13234754422,0.730070288089,0.265899588135,1.02058621112,0.0570182820157,0.218849802722
0.036328125,0.860048743903,5,-5.10931207474,0.657819685618,2.90993987784,139970.042557,10.246278009,10.3720518974,1.05526298253,0.0233380896289,5.44724266656,-0.932475382744,-1.06466344595,0.730498552142,0.265428672617,1.0216027841,0.0569200563703,0.219078396791
0.05,0.860048743903,5,-5.13555119076,0.629997989276,2.91015930037,139980.596927,10.1688372694,10.3720518974,1.05611947303,0.023090279262,5.45402159892,-1.0049892157,-0.989905763611,0.731310994138,0.264518679729,1.02271763961,0.0567334671925,0.219350549132
0.0666666666667,0.860048743903,5,-5.17019589758,0.598809675442,2.91064860568,140004.132837,10.1139706386,10.3720518974,1.05720361147,0.0229147060435,5.46250431366,-1.0879346424,-0.894351848169,0.732217491833,0.264001574088,1.02396666388,0.0566416016402,0.219692295656
0.0833333333333,0.860048743903,5,-5.20749758777,0.570853450047,2.91078406216,140010.648384,10.05811833,10.3720518974,1.05822583185,0.0227359786561,5.46937850252,-1.16142677996,-0.791618002766,0.733084285131,0.263451022765,1.02515969221,0.0565287418502,0.219968732662
0.1,0.860048743903,5,-5.24715574972,0.546354535354,2.91100027912,140021.048564,10.0167084703,10.3720518974,1.05933374374,0.0226034671049,5.47671626222,-1.2264437011,-0.683571780806,0.733969697947,0.263135632139,1.0263812822,0.0564694567366,0.220263568788
0.116666666667,0.860048743903,5,-5.28885088745,0.525510300676,2.91150640105,140045.393365,10.001883735,10.3720518974,1.06022309669,0.0225560279521,5.48348581883,-1.28333522551,-0.571087411084,0.734628150745,0.263154720061,1.027293231,0.0564931923337,0.220535942006
0.133333333333,0.860048743903,5,-5.33224709464,0.508488672321,2.91180346158,140059.682174,9.98848079554,10.3720518974,1.06043763336,0.0225218931411,5.48598449649,-1.32888642095,-0.453549176719,0.734864290528,0.263004881994,1.02755225754,0.0564725475955,0.220636565111
0.15,0.860048743903,5,-5.3769947607,0.495426780735,2.91204244515,140071.177442,9.9848090823,10.3720518974,1.06070819645,0.0225129341608,5.48833819127,-1.36450145631,-0.332639192399,0.735077970883,0.263020284999,1.02782733954,0.056485125724,0.220731859129
0.166666666667,0.860048743903,5,-5.42273338738,0.486429855746,2.91269313732,140102.476169,9.99364512975,10.3720518974,1.06088364997,0.0225344941166,5.49150306385,-1.39042753259,-0.209189780095,0.735136539447,0.263205143509,1.02796156281,0.0565500887798,0.220859352763
0.183333333333,0.860048743903,5,-5.469094493,0.481570378805,2.9132232484,140127.974864,10.0102623669,10.3720518974,1.06078791236,0.022582839574,5.49267014513,-1.40529945008,-0.083775097383,0.734995615789,0.263430963776,1.02780596757,0.0566192104655,0.220906310941
0.2,0.860048743903,5,-5.51570458101,0.480887499062,2.91361528338,140146.832007,10.0071613131,10.3720518974,1.06039295921,0.0225729162018,5.49214998909,-1.40670898803,0.0425568161496,0.734730802409,0.263278734331,1.02743713799,0.0566017226062,0.220886476182
0.216666666667,0.860048743903,5,-5.56218814905,0.484386717963,2.91424539165,140177.140633,10.0228155838,10.3720518974,1.06052866576,0.0226230098683,5.49490396139,-1.3992571143,0.168764484949,0.734780200177,0.263547704907,1.02750934726,0.0566840574252,0.220997556649
0.233333333333,0.860048743903,5,-5.60817071398,0.492039844936,2.91525118008,140225.519725,10.026963767,10.3720518974,1.06018595804,0.0226362840543,5.49681906306,-1.37927235135,0.293717673567,0.73453093542,0.263517081058,1.02716377222,0.0567165995669,0.221075750098
0.25,0.860048743903,5,-5.65328182889,0.503785224498,2.91602950035,140262.957448,10.0217393383,10.3720518974,1.06006919257,0.0226195658826,5.49930802864,-1.34755451023,0.416262533995,0.734464924195,0.263408107607,1.02707083819,0.0567234214525,0.221173799642
0.266666666667,0.860048743903,5,-5.6971580675,0.519528232967,2.91678399067,140299.248934,10.0173042267,10.3720518974,1.06017094754,0.0226053735254,5.50273507547,-1.30527857841,0.535611496283,0.734548064813,0.263369641299,1.02718541314,0.0567444905781,0.221312952815
0.283333333333,0.860048743903,5,-5.73944595197,0.539142040776,2.91782408846,140349.278329,9.99895709038,10.3720518974,1.06019093228,0.0225474553005,5.5071484565,-1.25161749733,0.650297422775,0.734618665641,0.263101862536,1.02727338648,0.0567272312838,0.221489785076
0.3,0.860048743903,5,-5.77980480066,0.56246863424,2.91887880191,140400.010747,9.96727463913,10.3720518974,1.06028675706,0.0224701501195,5.51231446943,-1.18701488949,0.759105496246,0.734910934188,0.262633945118,1.02749030444,0.0566672890382,0.221696742359
0.325,0.860048743903,5,-5.83601978292,0.604001101035,2.92007216139,140457.412131,9.9646833072,10.3720518974,1.05926401051,0.0224638272696,5.51158719447,-1.07392895465,0.911268630171,0.734220505728,0.262319394055,1.02651517426,0.0566457097081,0.22166748586
0.35,0.860048743903,5,-5.88614899751,0.652705637511,2.92105982315,140504.919319,9.88220803952,10.3720518974,1.0584758826,0.0222625876164,5.51288981367,-0.937100104247,1.04194108774,0.734261879606,0.260825258237,1.02607845778,0.0563611703659,0.221723092152
0.375,0.860048743903,5,-5.92928453731,0.707700139373,2.9211555403,140509.523377,9.79314920467,10.3720518974,1.05946208001,0.0220452840594,5.5202011839,-0.785358189742,1.15341186403,0.735582220586,0.259701089816,1.02737589882,0.0561219290445,0.222018002836
0.4,0.860048743903,5,-5.96464516,0.767988582642,2.92108260129,140506.014962,9.69783138765,10.3720518974,1.05983568758,0.0218627904537,5.52396387637,-0.619903577645,1.24146992547,0.737015654584,0.258266095642,1.02811881129,0.0558090367889,0.222167452603
0.425,0.860048743903,5,-5.99159043741,0.832479062978,2.91997313216,140452.64876,9.6156416027,10.3720518974,1.06008792027,0.021741149572,5.52282098473,-0.445011645876,1.30588733286,0.738558743565,0.256974532635,1.02869974525,0.0554877672295,0.222124159262
0.45,0.860048743903,5,-6.00963235453,0.900003571531,2.91860730328,140386.951482,9.55992669564,10.3720518974,1.06067279516,0.0216586915095,5.52193906316,-0.264595864684,1.34851429775,0.739896754103,0.25620649426,1.02949216103,0.055270184933,0.222087352983
0.475,0.860048743903,5,-6.01844414812,0.969339149141,2.91726075289,140322.181514,9.52748609964,10.3720518974,1.06120004711,0.0216106794275,5.52029578401,-0.0809293288273,1.36843354842,0.740807712402,0.255807373755,1.03013355881,0.0551331760681,0.222020710496
0.5,0.860048743903,5,-6.0178662248,1.03923003577,2.91643367702,140282.398615,9.47858666166,10.3720518974,1.06074934047,0.0215477301281,5.51593838192,0.10311092034,1.3611423495,0.741339602547,0.254871758527,1.02989992459,0.0549003835465,0.221844511929
0.525,0.860048743903,5,-6.00790905154,1.10841041398,2.9174346749,140330.547278,9.46119231583,10.3720518974,1.06145023172,0.0215296400085,5.52380003414,0.285014225172,1.33530810808,0.742143407303,0.254758500594,1.03064941964,0.054913663612,0.222158379014
0.55,0.860048743903,5,-5.98875296606,1.1756273346,2.91786785611,140351.383582,9.48442934468,10.3720518974,1.06246039886,0.0215538065185,5.53017794868,0.463060655773,1.28865059356,0.742429932283,0.255415769776,1.03152772637,0.0550716896601,0.222413732998
0.575,0.860048743903,5,-5.9607449107,1.23966340931,2.91685405601,140302.619123,9.48196132878,10.3720518974,1.06184900512,0.0215512397819,5.52327400411,0.630968324712,1.21301555907,0.742047235349,0.255214884556,1.03094768457,0.0549901435401,0.222134227223
0.6,0.860048743903,5,-5.92439214879,1.29935885913,2.91692401488,140305.984191,9.44064530077,10.3720518974,1.06084015867,0.0215082711128,5.51935286806,0.78520788899,1.11316586461,0.742087855155,0.254251355894,1.03014595859,0.0547851637027,0.221972129826
0.625,0.860048743903,5,-5.88035307747,1.35363251965,2.91755373717,140336.274252,9.44088017241,10.3720518974,1.06181965566,0.0215085153793,5.52691399457,0.928926606951,0.999116523692,0.742768794285,0.254509282646,1.0310909865,0.054864422051,0.222271700537
0.65,0.860048743903,5,-5.82942530322,1.40150142228,2.91816240806,140365.551727,9.47406952263,10.3720518974,1.06267200037,0.0215430323035,5.53288979528,1.0583650185,0.868371063687,0.742764918292,0.255294633375,1.03177542749,0.0550566847364,0.222512058632
0.675,0.860048743903,5,-5.77253119615,1.44209859717,2.91853990454,140383.709558,9.50158824934,10.3720518974,1.06259717468,0.021572350609,5.53322652894,1.16770685756,0.719831613761,0.742217784781,0.255742374469,1.03158807664,0.0551675145903,0.222529216706
0.7,0.860048743903,5,-5.71070118462,1.47468877519,2.91842190757,140378.033825,9.44768532043,10.3720518974,1.06056035376,0.0215155927332,5.52357080214,1.24663620865,0.553347244939,0.741765000459,0.254298285508,1.02984638014,0.0548515670857,0.222135543286
0.725,0.860048743903,5,-5.64505509284,1.49868170463,2.91724767615,140321.552514,9.38226857554,10.3720518974,1.06013883262,0.0214475593186,5.51842499805,1.30232499701,0.378816530866,0.742652640592,0.253079165896,1.02971125954,0.0545446869557,0.221927704351
0.75,0.860048743903,5,-5.57678185933,1.51364284145,2.91623892099,140273.03072,9.32931145332,10.3720518974,1.06031176607,0.0213924839115,5.51672666539,1.33595669867,0.199705380932,0.743733945951,0.252225048998,1.03009766736,0.0543230158775,0.221857472768
0.775,0.860048743903,5,-5.50711800366,1.51930121945,2.91508790484,140217.666078,9.29747775473,10.3720518974,1.0607395037,0.0213593768649,5.51520554994,1.34728401842,0.0184670711667,0.744612576809,0.251794540306,1.03064253122,0.0541874949112,0.22179963413
0.8,0.860048743903,5,-5.43732523142,1.51555435783,2.91400291623,140165.477404,9.28458580324,10.3720518974,1.06115961829,0.0213459692354,5.51366189001,1.33600320292,-0.16241486526,0.745142157326,0.251683400503,1.03110176598,0.0541232654482,0.221733314444
0.825,0.860048743903,5,-5.36866758306,1.50247011728,2.91315139522,140124.518678,9.30784101756,10.3720518974,1.06206867904,0.0213701546583,5.51461312754,1.30458483625,-0.340984018251,0.745356929064,0.252312149975,1.03188426748,0.0542267690425,0.221771919651
0.85,0.860048743903,5,-5.30238854042,1.48028547088,2.91281928098,140108.543762,9.35979910932,10.3720518974,1.06286383466,0.0214241910737,5.51616425401,1.25204683324,-0.515149462497,0.744969638737,0.253400652522,1.03243723116,0.0544482924329,0.221840171765
0.875,0.860048743903,5,-5.23968850561,1.44940221226,2.91305101218,140119.690187,9.40422794134,10.3720518974,1.06278269437,0.021470397059,5.51563039046,1.175121341,-0.680676650042,0.744106386188,0.254135538725,1.03217399762,0.0546148865122,0.221818900354
0.9,0.860048743903,5,-5.18170306011,1.41037967853,2.91203721621,140070.925927,9.3772755678,10.3720518974,1.061034372,0.0214423665905,5.50334128586,1.06849116391,-0.828738569586,0.743370470955,0.253225661065,1.03059714643,0.0543814783508,0.221325896322
0.925,0.860048743903,5,-5.12948239789,1.36392461997,2.91029086734,139986.925386,9.32139806857,10.3720518974,1.06022485359,0.0213842539913,5.49369820099,0.942058058475,-0.95912470254,0.743816661361,0.252068370579,1.03004638878,0.0540680368349,0.220942381475
0.95,0.860048743903,5,-5.08397230498,1.31087839982,2.9084167146,139896.777393,9.27869978405,10.3720518974,1.06044022796,0.0213398477754,5.48864647829,0.801567610648,-1.07268412876,0.744744123209,0.251398851934,1.03043072713,0.0538549972197,0.22074024411
0.975,0.860048743903,5,-5.04599703004,1.25220175606,2.90836815322,139894.441558,9.30170391749,10.3720518974,1.06204927749,0.0213637720742,5.49620541684,0.652329556635,-1.17429616956,0.745455044605,0.252202804654,1.03189089729,0.0540254168903,0.221045661993
1,0.860048743903,5,-5.01624435608,1.18895740121,2.90909375786,139929.343624,9.27946367464,10.3720518974,1.06092659912,0.0213406422216,5.49371081201,0.487702722165,-1.24858271171,0.745071790202,0.251536592605,1.03089767402,0.0539095944158,0.220943103805
1.025,0.860048743903,5,-4.99525314382,1.1222907751,2.90937979654,139943.102274,9.18411674287,10.3720518974,1.05833247753,0.021254658064,5.48333350796,0.31280666139,-1.29108821818,0.745442309059,0.249242547787,1.02878449923,0.0534284374782,0.220533567738
1.05,0.860048743903,5,-4.98340357219,1.0534092995,2.90916923218,139932.973988,9.1507063379,10.3720518974,1.05939805808,0.0212265933238,5.48871868565,0.136428887442,-1.31959558654,0.747036690212,0.248940782493,1.02995305745,0.0533560260452,0.220752106619
1.075,0.860048743903,5,-4.98091025278,0.983560510053,2.9110268815,140022.328156,9.25069301733,10.3720518974,1.06377473153,0.021310720738,5.51615049466,-0.0425262265635,-1.34279885027,0.747597653888,0.251777085811,1.03376937724,0.0540328765027,0.221853124215
1.1,0.860048743903,5,-4.98781834294,0.914009461756,2.91259028354,140097.528833,9.30529702544,10.3720518974,1.06280838412,0.0213675089065,5.51578186405,-0.223281242752,-1.32992023589,0.745922396823,0.252458971276,1.03260965501,0.0542374240484,0.221842335221
1.125,0.860048743903,5,-5.00400272792,0.846015817113,2.91272309353,140103.917082,9.26915666769,10.3720518974,1.06057420788,0.0213299229344,5.50517518278,-0.397960365815,-1.28186708625,0.745011978445,0.251271161334,1.03059954372,0.0539871621527,0.22143068224
1.15,0.860048743903,5,-5.02917028685,0.780811031965,2.91279592186,140107.420173,9.24844613682,10.3720518974,1.06087883152,0.0213086947549,5.50744598079,-0.565884223452,-1.21554980161,0.745614198802,0.250997124707,1.03097933977,0.053930980517,0.22152336108
1.175,0.860048743903,5,-5.06286520159,0.719576052179,2.91350322466,140141.441908,9.23305776585,10.3720518974,1.06081974469,0.0212957685233,5.5100635909,-0.723508289279,-1.12783038911,0.745959926645,0.250717602415,1.03098628717,0.0538970861261,0.221632450928
1.2,0.860048743903,5,-5.10447721216,0.663419925134,2.91371766326,140151.756547,9.21202130582,10.3720518974,1.06043197921,0.0212780978969,5.50991550123,-0.867017430325,-1.01885160994,0.746217103145,0.250257104302,1.03069885113,0.0538060117998,0.221603277561
1.225,0.860048743903,5,-5.15325266941,0.613359713398,2.91381872664,140156.617763,9.19181124068,10.3720518974,1.06020792824,0.0212611214422,5.50948770342,-0.99441245473,-0.891810491908,0.746569077799,0.249852797881,1.03056608996,0.0537228113303,0.22159010459
1.25,0.860048743903,5,-5.20830818456,0.570302074356,2.9136614,140149.050247,9.1747561915,10.3720518974,1.06007731054,0.0212467952009,5.50866635188,-1.10360594534,-0.749160753437,0.74690766678,0.249526598029,1.03051045968,0.0536468789282,0.221554216269
1.275,0.860048743903,5,-5.26864662861,0.535026839438,2.9136158389,140146.858727,9.17117359677,10.3720518974,1.06035483323,0.0212437858213,5.50960682933,-1.19412394294,-0.594151713451,0.747193735168,0.249535758566,1.03079366315,0.0536471705868,0.22160817273
1.3,0.860048743903,5,-5.33317519164,0.508172890326,2.91348674076,140140.649021,9.17174276134,10.3720518974,1.06046058093,0.0212442639195,5.50941386775,-1.26310826315,-0.428438753781,0.747253866112,0.249572471525,1.03089356576,0.0536503087766,0.221610010834
1.325,0.860048743903,5,-5.40072517506,0.490226587955,2.91305073087,140119.676656,9.17677619425,10.3720518974,1.06062756041,0.0212484920032,5.50892511245,-1.3095798603,-0.255031565617,0.747244312236,0.249701492496,1.03103418224,0.0536619793877,0.221573906037
1.35,0.860048743903,5,-5.47007315833,0.481512963862,2.91223479759,140080.429723,9.18259653668,10.3720518974,1.06071639645,0.0212533810908,5.50631681327,-1.33190817879,-0.0768771491112,0.747159837069,0.249824144551,1.03109595902,0.0536582663246,0.221463068251
1.375,0.860048743903,5,-5.53996315673,0.482189833434,2.91135945355,140038.325093,9.17624381142,10.3720518974,1.06034996648,0.0212480448016,5.50109481834,-1.32825313372,0.102510903771,0.747062188872,0.249621616096,1.03076795623,0.0535825407842,0.221259548423
1.4,0.860048743903,5,-5.60912936891,0.492244937656,2.91052580481,139998.226034,9.18088352179,10.3720518974,1.06066764344,0.0212519421583,5.49926976851,-1.30250248828,0.279940634948,0.747168770679,0.249782282721,1.03105591804,0.0535863273118,0.221194631177
1.425,0.860048743903,5,-5.67631910227,0.511496165145,2.90974532631,139960.684499,9.16956091906,10.3720518974,1.06015110169,0.021242431172,5.49427435374,-1.25089510031,0.451494308507,0.747090924481,0.249456169049,1.03060332768,0.0534876676973,0.220978974097
1.45,0.860048743903,5,-5.74031546088,0.539594850421,2.90936176922,139942.235148,9.164951526,10.3720518974,1.06025540178,0.0212385592818,5.49331575752,-1.17835231861,0.615058890586,0.747280938047,0.249403556363,1.03072327008,0.0534622892564,0.220946430804
1.475,0.860048743903,5,-5.79995938508,0.576032088717,2.90930664601,139939.583685,9.16848133976,10.3720518974,1.06049183386,0.0212415243254,5.49421597493,-1.0855737789,0.768048794513,0.747358330911,0.2495243982,1.03093729525,0.0534861661362,0.220983935229
1.5,0.860048743903,5,-5.85417064364,0.620147952912,2.9095843641,139952.94211,9.1666390755,10.3720518974,1.06034164998,0.0212399768234,5.49470734596,-0.972559037165,0.90680532805,0.74729906243,0.249454504979,1.03079969016,0.0534813934001,0.22099662522
1.525,0.860048743903,5,-5.90196739817,0.671143445706,2.9101776945,139981.481696,9.15901545025,10.3720518974,1.06011206516,0.0212335729782,5.49594275806,-0.841697504371,1.02882229792,0.747329993914,0.249265110714,1.03060921784,0.0534625863301,0.221045914221
1.55,0.860048743903,5,-5.94248398552,0.728094970521,2.91081246132,140012.014402,9.15141929097,10.3720518974,1.06002115699,0.0212271922044,5.49750091589,-0.695738462441,1.1322082873,0.747458032363,0.249111518755,1.0305527149,0.053452954448,0.22113022955
1.575,0.860048743903,5,-5.97498659609,0.789971059073,2.91152175537,140046.131918,9.15410751602,10.3720518974,1.06029863455,0.0212294503135,5.50116599616,-0.537888772256,1.21645119896,0.747585670958,0.249228281851,1.03080994733,0.0535040745694,0.221293233173
1.6,0.860048743903,5,-5.99888656415,0.855651052644,2.91241337085,140089.019215,9.13900800153,10.3720518974,1.05969275968,0.0212167667213,5.5020495343,-0.369314526975,1.27639348139,0.747540493582,0.248814893386,1.03028638976,0.053448049255,0.221316324587
1.625,0.860048743903,5,-6.01375102931,0.923945398709,2.91316803141,140125.31889,9.12532020493,10.3720518974,1.05956130861,0.0212052689721,5.5042538219,-0.194465817278,1.31362221473,0.747794350439,0.248546495062,1.03021573951,0.053418066956,0.221415849532
1.65,0.860048743903,5,-6.01931077622,0.99361719532,2.91353394526,140142.919589,9.0916245864,10.3720518974,1.0586778227,0.0211769646526,5.50215483178,-0.0162727620457,1.32396667445,0.748024682821,0.247744120644,1.0294999013,0.0532589960482,0.22131758781
1.675,0.860048743903,5,-6.01546511043,1.06340459306,2.91334681003,140133.91826,9.06127893398,10.3720518974,1.05839112938,0.0211514743045,5.49928003412,0.161200701924,1.31052552522,0.748592549167,0.247151001675,1.02934714746,0.0531246647966,0.221256324262
1.7,0.860048743903,5,-6.0022836821,1.13204364882,2.91356973288,140144.640998,9.06634664116,10.3720518974,1.05929786873,0.0211557311786,5.50461997949,0.33618584775,1.27882459313,0.749104996747,0.247467273598,1.0302036149,0.0532007875584,0.221474309962
1.725,0.860048743903,5,-5.98000522451,1.1982912175,2.91397105104,140163.944668,9.06856921703,10.3720518974,1.0592566648,0.0211575981423,5.50680155649,0.505134225238,1.22278268422,0.749019349791,0.247495006554,1.03015462316,0.0532214081364,0.221524791171
1.75,0.860048743903,5,-5.94903323033,1.26094746704,2.91471247548,140199.607676,9.08489079874,10.3720518974,1.05979033543,0.0211713082709,5.51108116933,0.666089594814,1.14619377551,0.748981795741,0.24791034054,1.03060382418,0.0533378536732,0.221734179581
1.775,0.860048743903,5,-5.9099286438,1.31887760894,2.9158325638,140253.484669,9.10495118694,10.3720518974,1.06012127113,0.021188158997,5.5165838476,0.815993737862,1.04898932047,0.748706177785,0.248338781675,1.030841354,0.0534711055918,0.221955775559
1.8,0.860048743903,5,-5.86339970128,1.37103245087,2.91681047514,140300.522855,9.09796386483,10.3720518974,1.05939117226,0.0211822896465,5.51734175222,0.949043219507,0.929519834899,0.748367813522,0.248033686167,1.03016388783,0.0534412421034,0.221958712892
1.825,0.860048743903,5,-5.81028910415,1.41646739889,2.91724150998,140321.255917,9.08552353649,10.3720518974,1.05911099454,0.0211718397707,5.5180545448,1.06440137374,0.793032418866,0.748485621907,0.24774915761,1.02994402783,0.0533957154129,0.221976933169
1.85,0.860048743903,5,-5.75155875636,1.45435956532,2.91666816372,140293.677581,9.06564809355,10.3720518974,1.05869369979,0.0211551443986,5.5151271842,1.15889938585,0.641631233293,0.748695498654,0.247302471842,1.02962195855,0.0532784956427,0.221820302174
1.875,0.860048743903,5,-5.68827234304,1.48402267234,2.91547041184,140236.064919,9.05687456958,10.3720518974,1.05885289473,0.0211477746385,5.51176671835,1.23302868912,0.479616376682,0.749031153986,0.247192177316,1.02981197727,0.0532110040066,0.221679058956
1.9,0.860048743903,5,-5.62157606579,1.50491948142,2.91396138102,140163.479533,9.06288153259,10.3720518974,1.05927855183,0.0211528204874,5.50775181724,1.28593776715,0.309632050928,0.74917945518,0.24740290022,1.03019915411,0.0532012484611,0.2215328968
1.925,0.860048743903,5,-5.55267788339,1.5166715234,2.91197257198,140067.816497,9.07443400524,10.3720518974,1.05955035153,0.0211625245644,5.50081571597,1.31535469537,0.134108612776,0.749077909004,0.247670009886,1.03041465734,0.0531860130206,0.221276881312
1.95,0.860048743903,5,-5.48282563407,1.51906595308,2.90958113365,139952.786723,9.0777698141,10.3720518974,1.05939418059,0.0211653266438,5.49090783612,1.31937588094,-0.0436542679032,0.74888272593,0.247687758808,1.0302498605,0.0531024968073,0.220878254909
1.975,0.860048743903,5,-5.41328443548,1.51205940414,2.90719856481,139838.183578,9.0876619638,10.3720518974,1.05967005006,0.0211736360496,5.4831605288,1.30070229833,-0.220269627217,0.748826392828,0.247927466671,1.03047605947,0.0530668718591,0.220565077907
2,0.860048743903,5,-5.34531377175,1.49577877454,2.9051601639,139740.135139,9.08424429164,10.3720518974,1.05931093534,0.021170765205,5.47423667192,1.25694542694,-0.392175214414,0.748659410176,0.247777834236,1.03014271045,0.0529604988759,0.22018463446
2.025,0.860048743903,5,-5.28014468249,1.47051892827,2.90357594699,139663.933253,9.09215923526,10.3720518974,1.05967699926,0.0211774137576,5.46957121607,1.19261506699,-0.557262946224,0.748717089753,0.248006456533,1.03046427553,0.0529515675768,0.220013218542
2.05,0.860048743903,5,-5.21895746707,1.43673735492,2.90278960556,139626.109707,9.09412574726,10.3720518974,1.05955862882,0.0211790656277,5.4654944937,1.10631294531,-0.711917560659,0.748583529364,0.248010230415,1.03034167456,0.0529236962768,0.219867905265
2.075,0.860048743903,5,-5.1628603078,1.39504588396,2.90275541871,139624.465297,9.10916030528,10.3720518974,1.06005187246,0.0211916946564,5.46752261466,1.00221743916,-0.855311478172,0.748550355916,0.248393486032,1.03075687547,0.0530042319095,0.219951325385
2.1,0.860048743903,5,-5.11286919925,1.3461996037,2.90313948665,139642.93922,9.10105995567,10.3720518974,1.05940195294,0.0211848903628,5.46572683527,0.877440173936,-0.981179971059,0.748296871644,0.248089570146,1.03016157114,0.052953389759,0.219882468897
2.125,0.860048743903,5,-5.06988954726,1.29108318561,2.90364542306,139667.275098,9.08299710768,10.3720518974,1.05894635925,0.0211697175704,5.46562274742,0.736730867484,-1.08860855805,0.748433414441,0.247664106979,1.02979514411,0.0528810034821,0.219880875214
2.15,0.860048743903,5,-5.03469977082,1.23069486171,2.90429297634,139698.422841,9.07704018719,10.3720518974,1.05916342419,0.0211647137572,5.46959899201,0.58406839756,-1.17803733131,0.748738141411,0.247616823731,1.03002961747,0.0528944921321,0.220029045991
2.175,0.860048743903,5,-5.00793720383,1.16612834534,2.90493174996,139729.148277,9.06949837488,10.3720518974,1.05903460814,0.0211583786349,5.47131097945,0.420494792653,-1.24548187743,0.748838713305,0.247454779246,1.02993597395,0.0528831317988,0.220105831138
2.2,0.860048743903,5,-4.99008655218,1.09855302244,2.9060519367,139783.030004,9.07340225673,10.3720518974,1.05935510569,0.0211616578957,5.47814501623,0.249841651666,-1.29268098382,0.748966097668,0.24760288515,1.03023000683,0.0529556006455,0.22033850204
2.225,0.860048743903,5,-4.98147111505,1.0291927725,2.90713328621,139835.043634,9.08613235933,10.3720518974,1.05971944206,0.0211723511818,5.48349597708,0.0741502437482,-1.31707405341,0.748900151878,0.247913708855,1.0305301341,0.0530615441281,0.220566746545
2.25,0.860048743903,5,-4.98224692952,0.959303802406,2.90844575689,139898.174346,9.08442253903,10.3720518974,1.05935386547,0.0211709149328,5.48697757924,-0.1034187205,-1.31573373567,0.748685223555,0.247791765866,1.03018350827,0.0530833425558,0.220691691967
2.275,0.860048743903,5,-4.99239994455,0.89015189488,2.90943100004,139945.565197,9.07191843559,10.3720518974,1.05894532173,0.0211604114859,5.48785906927,-0.278929767221,-1.28891404323,0.748714081188,0.2474737226,1.02983965453,0.0530511336915,0.220767524807
2.3,0.860048743903,5,-5.01174627546,0.822989483451,2.91022997995,139983.996661,9.04655253534,10.3720518974,1.05833207577,0.0211391041297,5.48928715476,-0.448728531925,-1.23774214829,0.748925215203,0.246883478385,1.02935037399,0.0529536745894,0.220783849529
2.325,0.860048743903,5,-5.03993553433,0.759032969216,2.91097604592,140019.88293,9.02592348101,10.3720518974,1.058196052,0.021121775724,5.49008702311,-0.610017154749,-1.16467060011,0.749354036767,0.246495305522,1.02930320034,0.0528975271352,0.220886940849
2.35,0.860048743903,5,-5.07645717598,0.699440690185,2.91169397826,140054.415953,9.01979009431,10.3720518974,1.05846853074,0.0211166236792,5.49433623217,-0.761139900415,-1.07258478567,0.749703288116,0.246458810633,1.02959195657,0.0529157869134,0.22105790595
2.375,0.860048743903,5,-5.12064974463,0.645291942231,2.91264064168,140099.951093,9.02428499425,10.3720518974,1.05877703445,0.0211203993952,5.50133625188,-0.899731835872,-0.962237801568,0.749807214816,0.246613741261,1.0298721001,0.0529834868763,0.221261859218
2.4,0.860048743903,5,-5.17171285376,0.597567431601,2.91311031727,140122.542801,9.0234322559,10.3720518974,1.05863879345,0.021119683095,5.50243093955,-1.02091439178,-0.832817963938,0.749731047377,0.246564240689,1.02974181775,0.0529899375438,0.221305224377
2.425,0.860048743903,5,-5.22872168217,0.55713151301,2.91311922245,140122.971147,9.01609260384,10.3720518974,1.05839505692,0.0211135177872,5.50117737935,-1.12260937285,-0.687652409689,0.74974549562,0.246376850798,1.02953597535,0.0529499886893,0.221262338866
2.45,0.860048743903,5,-5.29064372373,0.524716535023,2.9127500934,140105.215794,9.04246063088,10.3720518974,1.05951973992,0.0211356669299,5.50340873092,-1.20771772721,-0.531984183742,0.749869886168,0.247113214768,1.03051630496,0.0530947859567,0.221416902726
2.475,0.860048743903,5,-5.35635748745,0.500909576246,2.91217381857,140077.496591,9.06112261151,10.3720518974,1.05956002311,0.0211513429937,5.50094000762,-1.26938597308,-0.365340190664,0.749423276728,0.247443873069,1.0304787002,0.0531447960816,0.221321222099
2.5,0.860048743903,5,-5.42467280919,0.486141812541,2.91142324217,140041.393368,9.07651501457,10.3720518974,1.05966723116,0.0211642726122,5.49916027898,-1.30801096762,-0.191743158235,0.749107639117,0.247735326926,1.03051917742,0.0531799695824,0.221215840264
2.525,0.860048743903,5,-5.49435240709,0.480680707859,2.9102237858,139983.698719,9.08620018689,10.3720518974,1.05964749152,0.021172408157,5.49415306063,-1.321644004,-0.0143728673669,0.74884758172,0.247896650657,1.03046025044,0.053170762083,0.221020964451
2.55,0.860048743903,5,-5.56413429046,0.484625170112,2.90900502497,139925.075512,9.08453219415,10.3720518974,1.05935618643,0.0211710070431,5.48811037763,-1.30997122627,0.163015479694,0.748684078854,0.247794236136,1.03018530266,0.0531042888201,0.220776958753
2.575,0.860048743903,5,-5.63275461605,0.497903759811,2.90791049403,139872.427847,9.07261061549,10.3720518974,1.05896757973,0.021160992917,5.48259531345,-1.27378271571,0.336789089062,0.748712230381,0.247491233594,1.02985834551,0.052999447696,0.22054083583
2.6,0.860048743903,5,-5.698970578,0.520275983938,2.90675481756,139816.83904,9.05635440908,10.3720518974,1.05866790975,0.0211473377036,5.4768700503,-1.21427565299,0.503633590212,0.748913523252,0.247136492651,1.02963513296,0.0528814231946,0.220317811498
2.625,0.860048743903,5,-5.76158291667,0.551336651594,2.90560806388,139761.679426,9.03027721297,10.3720518974,1.05811850212,0.0211254328589,5.47127257252,-1.13227103083,0.660144760541,0.749188250178,0.246550411674,1.02921034922,0.05271439789,0.220053187067
2.65,0.860048743903,5,-5.81945763887,0.590523212544,2.90542153268,139752.707151,9.02605601832,10.3720518974,1.05858987292,0.0211218870554,5.47309286343,-1.03344118387,0.806250050347,0.749629541134,0.246596922511,1.02968374318,0.0527175730016,0.220126136802
2.675,0.860048743903,5,-5.87154655597,0.637125945762,2.90578608428,139770.242325,9.01762835475,10.3720518974,1.05838756908,0.021114807818,5.47331439391,-0.915278724581,0.93715341149,0.749701042793,0.246401310153,1.02952245039,0.0526889745123,0.220146890107
2.7,0.860048743903,5,-5.91690626804,0.69030081342,2.90647066856,139803.171284,8.99782133697,10.3720518974,1.05785863439,0.0210986056557,5.47306740147,-0.779945920493,1.04993605753,0.74984385387,0.245927897367,1.02909159495,0.0526125243473,0.220158457722