time,root_dist,x,y,z,rel_vel_mag,Re,alpha_deg,alpha_geom_deg,cl,cd,fx,fy,fz,end_effect_factor,c_ref_t,c_ref_n,f_ref_t,f_ref_n
0.00625,0.113517060369,5,-5.60689868842,0.942991290898,1.03245580424,63927.9377364,31.9065772605,31.9065772605,0.200711396979,0.297210848321,0.308614683925,0.0131565381029,-0.0246702072287,0.382076654487,-0.0323582806475,0.357172640205,-0.00112446509199,0.0124119130462
0.0135416666667,0.113517060369,5,-5.60905504736,0.947233351963,1.03251390355,63931.5351488,31.8325101208,31.9065772605,0.225446127287,0.295644066508,0.321098421497,0.00477339432242,-0.0098653744983,0.42992558316,-0.0126824611974,0.371578424492,-0.000440770945534,0.0129139739483
0.02265625,0.113517060369,5,-5.61151352078,0.952649633758,1.03181581698,63888.3107953,31.7945392863,31.9065772605,0.225331432042,0.294840849141,0.320057687559,0.0042189458804,-0.00993592122831,0.430099174743,-0.0125084747876,0.370875880379,-0.000434136518937,0.0128721340051
0.036328125,0.113517060369,5,-5.61469554219,0.96098391227,1.03112557299,63845.5720407,31.739328279,31.9065772605,0.225025833411,0.293672941181,0.318674938618,0.00343082950654,-0.0100856050239,0.430086811813,-0.0123611551758,0.369766985988,-0.000428449632188,0.0128164825122
0.05,0.113517060369,5,-5.61725564517,0.969529749344,1.03015437651,63785.4371783,31.6511722703,31.9065772605,0.224629243404,0.291808129987,0.316601166163,0.00260719896245,-0.0100330253232,0.430241994222,-0.0120509891512,0.368055777538,-0.000416912502825,0.0127331502391
0.0666666666667,0.113517060369,5,-5.61951547552,0.980166351502,1.02920186969,63726.4595475,31.5689789439,31.9065772605,0.224258646303,0.290069450601,0.31464544665,0.00165270664799,-0.0099590360766,0.430385680347,-0.0117577279018,0.36646143378,-0.000406015056007,0.0126545588402
0.0833333333333,0.113517060369,5,-5.62081245964,0.990962738436,1.02809782344,63658.0988491,31.4711001729,31.9065772605,0.22384864264,0.287998968619,0.312362292361,0.000727204660554,-0.00972146076354,0.430617777564,-0.0113784550873,0.364584903002,-0.000392075566936,0.0125627628219
0.1,0.113517060369,5,-5.62113614872,1.00183193178,1.02692027108,63585.1867754,31.3720052449,31.9065772605,0.223454964557,0.285902760617,0.310037909397,-0.000141813631434,-0.00937740002056,0.430895187661,-0.0109715061495,0.36270116593,-0.000377187511043,0.0124692406097
0.116666666667,0.113517060369,5,-5.62048393504,1.01268636664,1.02582257406,63517.2192104,31.2806144414,31.9065772605,0.223104808944,0.283969522079,0.307902515189,-0.000945057648236,-0.00897532505264,0.431177178745,-0.0105805341851,0.360974372415,-0.000362969136655,0.0123833592915
0.133333333333,0.113517060369,5,-5.61886107299,1.02343859698,1.02478152238,63452.7590305,31.1950139215,31.9065772605,0.222774678739,0.282158768508,0.305901406224,-0.00168163610062,-0.00852785989904,0.431438261779,-0.0102110206269,0.359357570104,-0.000349582211816,0.012302885165
0.15,0.113517060369,5,-5.61628063675,1.0340020002,1.02375964404,63389.4860319,31.1126100054,31.9065772605,0.222453301813,0.280415634405,0.303968514675,-0.0023494123445,-0.00803456155009,0.431683690082,-0.00985350469601,0.357800653928,-0.000336669938648,0.0122251653521
0.166666666667,0.113517060369,5,-5.61276341495,1.04429147489,1.02274372643,63326.5821116,31.0319882383,31.9065772605,0.222136816599,0.278710199054,0.302073928418,-0.00294503043432,-0.00749786927922,0.431920766396,-0.00950098392198,0.356277801231,-0.000323981216367,0.0121489854477
0.183333333333,0.113517060369,5,-5.60833774321,1.05422412651,1.02172700086,63263.6281637,30.9522744232,31.9065772605,0.221822558359,0.277023970097,0.300199526921,-0.00346509210628,-0.00692312228789,0.432153489933,-0.00914926243329,0.354772911032,-0.000311367604856,0.0120736280527
0.2,0.113517060369,5,-5.60303927582,1.06371993517,1.02073045701,63201.923834,30.8739683248,31.9065772605,0.221514544577,0.275367519324,0.298367812068,-0.00390846072182,-0.00632023496725,0.432384348093,-0.00879916421159,0.353296672595,-0.000298869206141,0.011999946078
0.216666666667,0.113517060369,5,-5.59691069856,1.07270240027,1.01986882353,63148.5729289,30.8021082735,31.9065772605,0.221239494308,0.273847425232,0.296727414196,-0.00428462850893,-0.0057113154491,0.432611863154,-0.00846854986316,0.351948305595,-0.000287154271605,0.0119339746437
0.233333333333,0.113517060369,5,-5.59000138475,1.08109915687,1.0190121976,63095.5320832,30.7295881194,31.9065772605,0.220951199774,0.272313367633,0.295079343216,-0.0045861446318,-0.00508956422553,0.432821291345,-0.00813964849153,0.350582014649,-0.000275538326004,0.0118676846481
0.25,0.113517060369,5,-5.58236699753,1.0888425586,1.018107068,63039.4879712,30.6507277901,31.9065772605,0.220629236159,0.270645192916,0.293303911674,-0.00479630940555,-0.00444671575383,0.43303326796,-0.00778452381588,0.349092368129,-0.000263048940342,0.0117962742089
0.266666666667,0.113517060369,5,-5.57406904141,1.09587022272,1.01722103604,62984.626353,30.568432646,31.9065772605,0.220297891778,0.268904359726,0.291494213743,-0.00491551248641,-0.00379770994147,0.433264491209,-0.00740604943554,0.347542610672,-0.000249824411047,0.0117234740033
0.283333333333,0.113517060369,5,-5.56517436679,1.10212553262,1.01642188959,62935.1445405,30.4907406428,31.9065772605,0.219996719356,0.267260899237,0.289819573155,-0.00496669181659,-0.0031696382468,0.433506581539,-0.00703584236495,0.346088777209,-0.000236963643917,0.0116560965287
0.3,0.113517060369,5,-5.55575463135,1.10755809399,1.01538889637,62871.1833267,30.4044562515,31.9065772605,0.219641646759,0.265435679369,0.287869085615,-0.00492333258056,-0.00255209610807,0.433735879064,-0.00663569797576,0.344462654559,-0.000223032951061,0.0115777605697
0.325,0.113517060369,5,-5.54080755037,1.11407044461,1.01434306933,62806.4274646,30.3174531941,31.9065772605,0.219081217922,0.263595257172,0.285803093627,-0.0050103314994,-0.00179239553033,0.433567532597,-0.0063805005613,0.342692761614,-0.000214013950419,0.0114945576743
0.35,0.113517060369,5,-5.52512139008,1.11851682691,1.01280191179,62711.0015659,30.2012977792,31.9065772605,0.218576228647,0.261138159566,0.283106516824,-0.00475642474029,-0.00100819440077,0.433824380859,-0.00584763872717,0.340491572924,-0.000195545199428,0.0113860475377
0.375,0.113517060369,5,-5.50898024781,1.12081671097,1.01131914899,62619.1913716,30.0989852158,31.9065772605,0.218190151998,0.258973887202,0.28070560874,-0.00440377597228,-0.000327330542505,0.434168723588,-0.00532659986655,0.338594217339,-0.000177600479921,0.0112894711457
0.4,0.113517060369,5,-5.49267646125,1.12092844281,1.00955075439,62509.6953337,30.0000185757,31.9065772605,0.217801612482,0.256880392941,0.278201437415,-0.00398089332644,0.00024108659523,0.434473390816,-0.00482754190054,0.33675179809,-0.00016039837617,0.0111888084451
0.425,0.113517060369,5,-5.47650531377,1.11884999882,1.00762765407,62390.6201759,29.9133072984,31.9065772605,0.217693555706,0.255988799028,0.276525098905,-0.00390050616573,0.000771065792471,0.434769313236,-0.00483117352871,0.336002096996,-0.000159908074273,0.0111214072447
0.45,0.113517060369,5,-5.46075968647,1.11461902239,1.00581844845,62278.5971877,29.8411528243,31.9065772605,0.217610426312,0.255247051034,0.275024981826,-0.00374528379989,0.00128221395972,0.43502957951,-0.00482748482776,0.335383437414,-0.000159212701594,0.011061102219
0.475,0.113517060369,5,-5.44572475374,1.10831214218,1.00409642155,62171.9721607,29.7785877834,31.9065772605,0.217533941747,0.254603882414,0.273642702246,-0.00352624195119,0.00176700087759,0.435246859677,-0.00482633784272,0.334844529917,-0.000158630304496,0.0110055473675
0.5,0.113517060369,5,-5.4316728183,1.10004358421,1.00238622973,62066.0799415,29.7214734704,31.9065772605,0.217290319709,0.254038427438,0.272232677491,-0.0033419271798,0.00228244986863,0.435435784094,-0.00496898703311,0.334254266723,-0.000162762985487,0.0109487551489
0.525,0.113517060369,5,-5.41885837951,1.08996310313,1.00074314158,61964.3426694,29.6670070289,31.9065772605,0.216892582854,0.253519906915,0.27080749975,-0.00315969625193,0.0028498669479,0.435608672932,-0.00524163004981,0.333597453548,-0.000171131205806,0.0108914467326
0.55,0.113517060369,5,-5.40751352399,1.07825326993,0.999246719008,61871.686685,29.6025760516,31.9065772605,0.216402084827,0.252906524012,0.269358459552,-0.0029158044558,0.00344614965097,0.435773924103,-0.00557751930373,0.332806946267,-0.000181553298635,0.0108331671507
0.575,0.113517060369,5,-5.39784372224,1.06512616536,0.998030527827,61796.3821598,29.5374935716,31.9065772605,0.215920567831,0.252286938801,0.268065969787,-0.00256272417293,0.00401986453528,0.435969884819,-0.00590457825392,0.332017359573,-0.000191731793262,0.0107811736939
0.6,0.113517060369,5,-5.39002410731,1.05081953883,0.996962767912,61730.2682506,29.4664718093,31.9065772605,0.215305028404,0.251573260051,0.266718667301,-0.00212965351056,0.00460867121898,0.436168353353,-0.00630180126974,0.33106743683,-0.000204192686367,0.0107273375344
0.625,0.113517060369,5,-5.38419630288,1.03559250248,0.996278270816,61687.8853345,29.4047708226,31.9065772605,0.214712176477,0.250916761553,0.265636583509,-0.00157513616796,0.00512485998487,0.43638553895,-0.00666408446025,0.330175907561,-0.000215635077552,0.0106837642676
0.65,0.113517060369,5,-5.38046585828,1.01972083831,0.995977154915,61669.2407412,29.3563800147,31.9065772605,0.214255984493,0.250401883356,0.264922082363,-0.000908382053753,0.00550598648151,0.436574735648,-0.00694033561473,0.329482263287,-0.000224438225432,0.0106548758718
0.675,0.113517060369,5,-5.37890033686,1.00349200339,0.995976277917,61669.1864389,29.3209971043,31.9065772605,0.213927204187,0.25002540919,0.264520309636,-0.00016543264478,0.00573706131986,0.436723454039,-0.00713802336922,0.328978118656,-0.00023083069259,0.0106385539873
0.7,0.113517060369,5,-5.3795280923,0.987199923609,0.995560835103,61643.4629143,29.2908988622,31.9065772605,0.213638717294,0.249705163894,0.263945591098,0.00062067291193,0.00584165652393,0.436832382501,-0.00731226385876,0.328543301863,-0.000236268084855,0.0106156312495
0.725,0.113517060369,5,-5.38233775511,0.971139670334,0.995349964986,61630.4061891,29.2812680981,31.9065772605,0.213574688443,0.249602692564,0.263737839274,0.00140545801644,0.00572998809174,0.43692516629,-0.00734684952788,0.328423013019,-0.000237285038821,0.0106072496923
0.75,0.113517060369,5,-5.38727843854,0.955602116229,0.995349631731,61630.3855545,29.2833691257,31.9065772605,0.213613081921,0.249625047498,0.26377235594,0.00215454293306,0.00547015810225,0.436954879223,-0.00732110850314,0.328465545341,-0.000236453509158,0.0106086162772
0.775,0.113517060369,5,-5.39426066021,0.940868667177,0.995488495493,61638.9837665,29.2936170725,31.9065772605,0.213726335958,0.249734085652,0.26397382053,0.00284272118609,0.00508338721734,0.43694839611,-0.00725066671505,0.328623626738,-0.000234243761649,0.0106166836126
0.8,0.113517060369,5,-5.40315796274,0.927206165647,0.994657607646,61587.5365798,29.2652262586,31.9065772605,0.213388357501,0.249432007391,0.263171501366,0.00359639410516,0.00478450043224,0.436916782163,-0.00746372167039,0.328169484089,-0.000240724477763,0.0105843212226
0.825,0.113517060369,5,-5.41380920408,0.914862057813,0.993656655408,61525.5592902,29.227394226,31.9065772605,0.213092181874,0.249037612643,0.262244994143,0.00429557610241,0.00434869711048,0.437004397734,-0.00763757179133,0.327673126734,-0.000245836065773,0.01054705272
0.85,0.113517060369,5,-5.42602147602,0.904059911979,0.992752562118,61469.5793448,29.1854968094,31.9065772605,0.212841510261,0.2486069072,0.261373394221,0.00491927165464,0.0037932053596,0.437121308077,-0.00777586739812,0.327179520576,-0.000249832238444,0.010512009505
0.875,0.113517060369,5,-5.43957359796,0.894995369451,0.992100941563,61429.2320892,29.1548282698,31.9065772605,0.212679370664,0.248291634614,0.26075202909,0.00543566272814,0.00312802911313,0.437250993335,-0.00786076764351,0.326832462979,-0.000252228572991,0.010487078296
0.9,0.113517060369,5,-5.45422012286,0.88783260122,0.991291582749,61379.1179442,29.1095787326,31.9065772605,0.212393145662,0.247826469371,0.259892911597,0.00591459367548,0.00241397567165,0.437346063173,-0.00802028171588,0.326288955263,-0.000256927186078,0.0104525634003
0.925,0.113517060369,5,-5.46969578256,0.882701334596,0.990770112852,61346.8293998,29.0758480263,31.9065772605,0.212213459438,0.24747971771,0.259314378468,0.00625055078018,0.00161483550824,0.43748655143,-0.00811362301748,0.325906324219,-0.000259643957513,0.010429324559
0.95,0.113517060369,5,-5.48572029217,0.879694503681,0.990482244278,61329.0050588,29.052097168,31.9065772605,0.212089736003,0.247235558887,0.258950595597,0.00645709065344,0.000766426894794,0.437591446427,-0.00817700072706,0.325638778949,-0.000261520071134,0.0104147082136
0.975,0.113517060369,5,-5.50200342638,0.878866566205,0.990213395691,61312.3584036,29.0268347714,31.9065772605,0.21193982748,0.24697586145,0.258569024977,0.00656204586582,-0.000108529704929,0.437665393441,-0.00825775896208,0.325341937087,-0.000263959560434,0.0103995666498
1,0.113517060369,5,-5.51825027587,0.880232517222,0.989684473258,61279.6084106,28.9870466276,31.9065772605,0.211710296736,0.246568911872,0.257925159976,0.00657776697274,-0.00100232599931,0.437744125658,-0.00838093955103,0.32488034397,-0.000267610914428,0.0103737206789
1.025,0.113517060369,5,-5.53416658845,0.883767617533,0.989369069353,61260.079128,28.9571614312,31.9065772605,0.211608085794,0.246266473684,0.257524363469,0.00641168063532,-0.00188471791502,0.437868294061,-0.00842317419197,0.32458312983,-0.00026878810155,0.010357625436
1.05,0.113517060369,5,-5.54946409842,0.889407841743,0.989168186267,61247.6407831,28.9314028963,31.9065772605,0.211513334261,0.246005797311,0.257213152634,0.00612782017507,-0.00274076485174,0.437961691329,-0.00846426077135,0.324322523378,-0.000269989525185,0.0103451070872
1.075,0.113517060369,5,-5.56386574741,0.897051037848,0.989015030223,61238.1576168,28.9067419669,31.9065772605,0.211418305015,0.245756228705,0.256940671915,0.00573122044574,-0.00355543824517,0.43804228388,-0.00850657495749,0.324070149543,-0.000271255227648,0.0103338561792
1.1,0.113517060369,5,-5.5771107023,0.906558777345,0.988818489773,61225.9881607,28.8850785357,31.9065772605,0.211337893021,0.245536994781,0.256664195993,0.00522107111122,-0.00430859580706,0.438119522117,-0.00854129731033,0.323850531995,-0.00027225420526,0.0103227491103
1.125,0.113517060369,5,-5.58895907924,0.917758862355,0.988670694885,61216.8369482,28.8587029697,31.9065772605,0.211227341026,0.245270074053,0.256367874039,0.00462152212622,-0.00499903533448,0.438187436671,-0.00859271197578,0.323574665454,-0.000273811180491,0.0103108729089
1.15,0.113517060369,5,-5.59919628828,0.93044844436,0.98858532723,61211.5511257,28.8290941462,31.9065772605,0.211106328789,0.244970432759,0.256078884788,0.00393281425475,-0.00560908484317,0.438270205229,-0.0086478415999,0.323267087432,-0.000275520328018,0.0102992929435
1.175,0.113517060369,5,-5.60763691987,0.944397698057,0.98801374531,61176.1597286,28.7677704207,31.9065772605,0.210817797857,0.244349836658,0.255251831291,0.00319160051593,-0.00617841414805,0.438363226773,-0.00878902877956,0.322604617979,-0.000279694843524,0.0102663047771
1.2,0.113517060369,5,-5.61412810288,0.959353983807,0.98691000546,61107.8180019,28.6706729851,31.9065772605,0.21052175698,0.24342432606,0.253971421276,0.00236510602104,-0.00664087378256,0.438556246279,-0.00892958014164,0.321706504874,-0.000283533085021,0.0102148630004
1.225,0.113517060369,5,-5.61855227332,0.975046423271,0.986013157222,61052.286658,28.58268699,31.9065772605,0.210344586297,0.242597257706,0.252922750053,0.00145997573765,-0.00693621778429,0.438862860439,-0.00899504982044,0.320963180925,-0.000285093025873,0.0101727468186
1.25,0.113517060369,5,-5.62082930353,0.991190805384,0.985279549594,61006.8628998,28.5056430836,31.9065772605,0.210194062327,0.241873044986,0.252035760781,0.000517615286998,-0.00709975171943,0.439141759657,-0.00904712544246,0.32031588042,-0.000286317009615,0.0101371298096
1.275,0.113517060369,5,-5.62091795345,1.00749473379,0.984304117044,60946.4657467,28.4317767837,31.9065772605,0.209559100196,0.241162328195,0.250783763165,-0.00045884556353,-0.00740288688368,0.439386802945,-0.00944501478964,0.319351024283,-0.000298317578856,0.010086593456
1.3,0.113517060369,5,-5.61881661751,1.02366292255,0.983251539255,60881.2918893,28.3775892125,31.9065772605,0.209090238796,0.240639960008,0.249688368556,-0.00149026566304,-0.00748294404088,0.439622468431,-0.00973690301869,0.318640096397,-0.000306879384447,0.0100426261261
1.325,0.113517060369,5,-5.61456335372,1.03940254413,0.982373073607,60826.8987646,28.3389709699,31.9065772605,0.208758267021,0.24026768015,0.248845532179,-0.00252938976033,-0.00735423004318,0.439795805233,-0.00994251308934,0.318134749136,-0.0003127999477,0.010008790735
1.35,0.113517060369,5,-5.60823519438,1.05442853294,0.981614988517,60779.959403,28.3116804832,31.9065772605,0.208524079324,0.240004599858,0.248181303622,-0.00353928234453,-0.00703812672955,0.439919573964,-0.0100871048399,0.317777831081,-0.000316859328117,0.00998213775361
1.375,0.113517060369,5,-5.59994675091,1.06846874822,0.981161071429,60751.8536156,28.31076969,31.9065772605,0.208555815431,0.239995819811,0.247930546719,-0.00443688719933,-0.00647671340925,0.440007156462,-0.0100629062038,0.317792793492,-0.000315806920166,0.00997337760398
1.4,0.113517060369,5,-5.58984813811,1.0812689029,0.98102973986,60743.7217843,28.337865349,31.9065772605,0.208848107336,0.240257021965,0.24817175907,-0.00516687181408,-0.00571231794395,0.440010081134,-0.009875470679,0.31818774901,-0.000309841616899,0.0099830995236
1.425,0.113517060369,5,-5.57812225536,1.09259716906,0.980783376733,60728.4673912,28.3587982419,31.9065772605,0.209031528172,0.240458815052,0.248264013491,-0.00581628817089,-0.00490707820056,0.439923120291,-0.00976153756154,0.318464022914,-0.00030611317551,0.00998674980508
1.45,0.113517060369,5,-5.56498147408,1.10224837664,0.980601693885,60717.217893,28.3870769962,31.9065772605,0.209303139114,0.240731422243,0.248479066265,-0.00630727190595,-0.00400843357464,0.439856004449,-0.00958980387637,0.318853347732,-0.000300616354333,0.00999525456388
1.475,0.113517060369,5,-5.5506637914,1.11004772938,0.980108474638,60686.6785816,28.4010346246,31.9065772605,0.209409807802,0.240865973781,0.248351090125,-0.00673538763226,-0.0031008388447,0.439765427575,-0.00952502560627,0.319026893563,-0.000298285430223,0.00999063709987
1.5,0.113517060369,5,-5.5354285197,1.11585397055,0.979657975064,60658.7844009,28.4187868837,31.9065772605,0.209579005074,0.241037105558,0.248310138555,-0.00700448472668,-0.0021419941325,0.439720760027,-0.00941787256419,0.319270338898,-0.000294658766318,0.00998907168687
1.525,0.113517060369,5,-5.51955159013,1.11956194137,0.979327270046,60638.3076989,28.444686517,31.9065772605,0.20982979154,0.241286778024,0.2484180968,-0.00710137961028,-0.00116126638528,0.439663985774,-0.00925837857278,0.319628116869,-0.000289473112547,0.00999351507614
1.55,0.113517060369,5,-5.5033205551,1.12110448552,0.979065284272,60622.0859777,28.4758759237,31.9065772605,0.210124826732,0.241587443905,0.248613248902,-0.0070435783891,-0.000193127364919,0.439581229242,-0.00907101159752,0.320054140123,-0.000283463160807,0.0100014818869
1.575,0.113517060369,5,-5.48702938039,1.12045366548,0.978426618625,60582.5408683,28.4854572454,31.9065772605,0.210179988363,0.241679807846,0.248370354205,-0.00697220938105,0.000750777283364,0.439481687123,-0.00903945914339,0.320160967651,-0.000282108755479,0.00999177170937
1.6,0.113517060369,5,-5.47097312094,1.11762126845,0.977899523181,60549.9039994,28.501804572,31.9065772605,0.210327973905,0.241836962977,0.248268957047,-0.00673023145809,0.0016609038242,0.43945113357,-0.00894560467189,0.320379383584,-0.000278878973062,0.00998781823714
1.625,0.113517060369,5,-5.45544257709,1.11265859294,0.977467790157,60523.1718122,28.521456051,31.9065772605,0.210375569902,0.242021686879,0.248179149579,-0.00642616483303,0.00254160234607,0.439399031865,-0.00892570040529,0.320550634384,-0.000278012815603,0.00998433516272
1.65,0.113517060369,5,-5.44071902777,1.10565551965,0.977094414244,60500.0529997,28.5423554525,31.9065772605,0.210422732497,0.242218141254,0.248129078718,-0.00600945694303,0.00337177320563,0.439336445524,-0.00890694938586,0.32073044844,-0.000277216863572,0.00998230540186
1.675,0.113517060369,5,-5.42706913613,1.09673888358,0.976663169473,60473.3510443,28.5627330564,31.9065772605,0.210466070023,0.24240969073,0.248094540662,-0.00548839672353,0.00413766935774,0.439269940152,-0.00889049169934,0.320904010489,-0.000276460444497,0.00997889299951
1.7,0.113517060369,5,-5.41474011998,1.08607017695,0.976324230446,60452.3645063,28.5838042502,31.9065772605,0.210512765825,0.242607759952,0.248070091256,-0.00486971347601,0.00482386816654,0.439205150136,-0.008871957435,0.321084783407,-0.000275692648249,0.00997758554394
1.725,0.113517060369,5,-5.40395527429,1.0738426243,0.975969367459,60430.3919832,28.5954096218,31.9065772605,0.210523491474,0.242716850445,0.247962253271,-0.00417528880064,0.00543066381243,0.439138211834,-0.00887274357103,0.321174227443,-0.000275516684668,0.00997311120711
1.75,0.113517060369,5,-5.39490992703,1.06027768297,0.975834796216,60422.0595568,28.6134638367,31.9065772605,0.210572421048,0.242886560065,0.248010704427,-0.00339855723033,0.00592515521034,0.439101368971,-0.00885012310061,0.32133518464,-0.000274738493038,0.00997535778703
1.775,0.113517060369,5,-5.38776790155,1.04562103218,0.975758637404,60417.3439304,28.6199623066,31.9065772605,0.210568918059,0.242947645682,0.248007930777,-0.00257396326115,0.00633219557567,0.439044088236,-0.00885752512863,0.321378860605,-0.000274925359638,0.00997515644028
1.8,0.113517060369,5,-5.38265854947,1.03013812349,0.97592064531,60427.3751892,28.6286895147,31.9065772605,0.210591218786,0.243029681438,0.248151633378,-0.00169906907693,0.00661525028708,0.43902348088,-0.00884753575556,0.32145576461,-0.000274706501127,0.00998085690783
1.825,0.113517060369,5,-5.37967440799,1.01410937307,0.976276744185,60449.4242363,28.6384068794,31.9065772605,0.210613781209,0.243121024666,0.2484001065,-0.000795166609983,0.00678122923277,0.438995814598,-0.00883805881231,0.32153986718,-0.000274612546602,0.00999075516871
1.85,0.113517060369,5,-5.37886952392,0.99782508303,0.976646240694,60472.3028426,28.6382752469,31.9065772605,0.210598522251,0.243119787321,0.248569546559,0.000122815262424,0.00684010994923,0.43896502106,-0.0088492162271,0.321528630037,-0.000275167395095,0.00999796968515
1.875,0.113517060369,5,-5.38025847476,0.981580183648,0.976859427211,60485.5029954,28.616181049,31.9065772605,0.210517254186,0.24291210186,0.248516965606,0.00104573868138,0.00679802351539,0.438965438111,-0.00889281343825,0.321317166378,-0.000276643789829,0.00999575660294
1.9,0.113517060369,5,-5.38381610478,0.965668891777,0.977240825552,60509.1185432,28.5981810032,31.9065772605,0.210484457937,0.24274290143,0.248594618425,0.0019529425069,0.00660917981777,0.439035470991,-0.00890358467715,0.321167478752,-0.000277195194685,0.00999890325384
1.925,0.113517060369,5,-5.38947798053,0.95037938219,0.977684166642,60536.5694825,28.5823701501,31.9065772605,0.210453517863,0.242594279411,0.248707758947,0.00282862410064,0.00630030946271,0.439092573432,-0.00891454050709,0.32103457532,-0.000277788157165,0.0100038362037
1.95,0.113517060369,5,-5.39714155786,0.935988568356,0.978092081788,60561.8269065,28.5667234262,31.9065772605,0.210419857036,0.242447200207,0.248812533003,0.00365735973725,0.00587692409394,0.439142765802,-0.00892755208514,0.320901012677,-0.000278425801686,0.0100080202125
1.975,0.113517060369,5,-5.40666803915,0.92275708716,0.978223048821,60569.9361663,28.5466791976,31.9065772605,0.210369725442,0.242258784458,0.248752399789,0.00442544982954,0.00534723374681,0.439192469211,-0.00894927792334,0.320725194605,-0.000279178120014,0.0100052157993
2,0.113517060369,5,-5.41788488707,0.910924578423,0.978348874137,60577.7270596,28.5277379885,31.9065772605,0.210330358065,0.242080737092,0.248698278942,0.00511309774478,0.00471356285816,0.439256188397,-0.00896380213196,0.320564491244,-0.000279703152,0.0100027753068
2.025,0.113517060369,5,-5.43058894951,0.900705344702,0.97847850326,60585.7534782,28.5128697156,31.9065772605,0.210304345235,0.241940975326,0.24867112447,0.00570617862915,0.0039888536973,0.439316449357,-0.00897153052423,0.320441671458,-0.000280018494835,0.0100015927362
2.05,0.113517060369,5,-5.44455013891,0.892284469988,0.978484798196,60586.1432501,28.4986915202,31.9065772605,0.210265480075,0.241807386254,0.248524289406,0.00620093108485,0.00319211878945,0.439363785211,-0.00898897534823,0.320314817766,-0.000280566590855,0.00999776202953
2.075,0.113517060369,5,-5.45951559946,0.885814467585,0.978350899513,60577.8524675,28.4818252278,31.9065772605,0.210106261701,0.241644795196,0.248269950582,0.00664544743559,0.00235613873393,0.439408950995,-0.0090902812796,0.320084699787,-0.000283650934765,0.0099878454259
2.1,0.113517060369,5,-5.47521428664,0.881412517889,0.978367713404,60578.8935555,28.4753003039,31.9065772605,0.210062002874,0.24158189493,0.248217588526,0.00692189183913,0.00144672965472,0.439462714174,-0.00911668319477,0.320007411003,-0.000284484551752,0.0099857769467
2.125,0.113517060369,5,-5.49136187624,0.879158346096,0.978504968226,60587.3921447,28.4764789617,31.9065772605,0.210084588692,0.241593257191,0.248304509934,0.00704341425959,0.000503484370791,0.43948352308,-0.00910118156344,0.320031256005,-0.000284080516296,0.00998932323271
2.15,0.113517060369,5,-5.50766591381,0.879092778273,0.978420935438,60582.1889749,28.4639711122,31.9065772605,0.209948666138,0.241472681521,0.248119731147,0.00711425250788,-0.00045106690722,0.439479763761,-0.00918932160757,0.319848487104,-0.000286782419791,0.00998190367205
2.175,0.113517060369,5,-5.52383111143,0.88121700194,0.978306086951,60575.0777485,28.4497609211,31.9065772605,0.209815334551,0.24133569528,0.247909825476,0.00705185168109,-0.00141479391815,0.439519666721,-0.00927385314486,0.31965510801,-0.00028935255784,0.0099735268269
2.2,0.113517060369,5,-5.53956469576,0.885492544566,0.978315999737,60575.6915317,28.4406516763,31.9065772605,0.209739287446,0.241247882159,0.247824263376,0.00683278465182,-0.00236086851199,0.439565025415,-0.00932106260759,0.319537520702,-0.000290831429199,0.0099700600394
2.225,0.113517060369,5,-5.55458171052,0.891841970355,0.978390205776,60580.2862456,28.4339338725,31.9065772605,0.209681112214,0.241183122531,0.247801469797,0.00648025414625,-0.00327024592713,0.439594115895,-0.00935739283723,0.31944938036,-0.000292009281234,0.00996882203968
2.25,0.113517060369,5,-5.56861017751,0.900150282715,0.978415596439,60581.858393,28.4256422376,31.9065772605,0.209602407327,0.241103191171,0.247776593648,0.00601589067588,-0.00413372554678,0.43961557625,-0.0094072782502,0.319335906321,-0.000293581255791,0.00996579817282
2.275,0.113517060369,5,-5.58139602243,0.910267006997,0.978442065759,60583.497329,28.4167978893,31.9065772605,0.209520164653,0.241017931653,0.247698800438,0.00543653571428,-0.00493143456073,0.439642072448,-0.00945919727719,0.319216018335,-0.000295217511341,0.00996259574163
2.3,0.113517060369,5,-5.59270767651,0.922008915794,0.978459713755,60584.5900635,28.4020611882,31.9065772605,0.209375543718,0.240875869854,0.247546466473,0.00477122995057,-0.00567154114267,0.439670344803,-0.00955119831425,0.319011093218,-0.00029809957771,0.00995655927604
2.325,0.113517060369,5,-5.60234027059,0.935163347434,0.978632398598,60595.2824203,28.3954020638,31.9065772605,0.209326541532,0.240811675895,0.247566252224,0.00398008398193,-0.00628229335655,0.439717475803,-0.00958072604676,0.318929575182,-0.000299126714544,0.00995752884795
2.35,0.113517060369,5,-5.61011934549,0.949492057565,0.978501156817,60587.1561486,28.3609442652,31.9065772605,0.208966965192,0.240479502716,0.247069223695,0.00317357694876,-0.00691915369381,0.439738782407,-0.00981106025461,0.318435749979,-0.000306235990421,0.00993944433625
2.375,0.113517060369,5,-5.61590401177,0.964735534086,0.978462694276,60584.7746123,28.3248183644,31.9065772605,0.208631687061,0.240131249032,0.246686936234,0.00226324068533,-0.00743861187814,0.439849127047,-0.0100213055637,0.317946176329,-0.000312773859164,0.00992338293099
2.4,0.113517060369,5,-5.61958950138,0.980617697247,0.978580296242,60592.0563295,28.2944045555,31.9065772605,0.208360142994,0.239838059915,0.246451223264,0.00126527722777,-0.00780680576013,0.439964981224,-0.0101899682319,0.317541192162,-0.000318114425951,0.00991312551338
2.425,0.113517060369,5,-5.62110906518,0.996850899834,0.978786794084,60604.8423308,28.2683114514,31.9065772605,0.208126222002,0.239586522392,0.246299179164,0.000208599894303,-0.00802239905475,0.440062650301,-0.0103350287185,0.317193021957,-0.00032277916231,0.00990643574449
2.45,0.113517060369,5,-5.62043518183,1.01314113684,0.978588264314,60592.5496992,28.223950496,31.9065772605,0.207639031555,0.239135959218,0.245685150772,-0.00089506098044,-0.00820300657937,0.440146541395,-0.0106308941364,0.316523235333,-0.000331884828485,0.00988150745575
2.475,0.113517060369,5,-5.61758005627,1.02919337028,0.97848392737,60586.08933,28.1898711123,31.9065772605,0.207274273588,0.238777444101,0.245232291509,-0.00202747805983,-0.00816592884305,0.440289371346,-0.0108420875106,0.316005919947,-0.000338405880346,0.00986325386414
2.5,0.113517060369,5,-5.61259539863,1.04471687274,0.978426286419,60582.5202987,28.1660482396,31.9065772605,0.207023855058,0.238526827481,0.244925420259,-0.00314644435575,-0.00792262819022,0.440399274361,-0.0109860177575,0.315647321238,-0.000342857868319,0.00985090048908
2.525,0.113517060369,5,-5.60557148774,1.05943049282,0.978355374644,60578.1295601,28.1523495424,31.9065772605,0.206886235112,0.238382717186,0.244733153624,-0.0042108122149,-0.00748002732252,0.440476192429,-0.0110639804894,0.315445435008,-0.000345240925094,0.0098431729795
2.55,0.113517060369,5,-5.59663553601,1.0730677472,0.978192397113,60568.0382638,28.1508308291,31.9065772605,0.206887757347,0.238366740322,0.244605647057,-0.00517282805965,-0.00684130866688,0.440520456172,-0.0110603390278,0.315434487545,-0.000345012321554,0.00983955234759