time,root_dist,x,y,z,rel_vel_mag,Re,alpha_deg,alpha_geom_deg,cl,cd,fx,fy,fz,end_effect_factor,c_ref_t,c_ref_n,f_ref_t,f_ref_n
0.00625,0.988282714659,5,-5.00117497631,0.689156537407,3.26582997958,139565.383743,8.85451127182,8.85451127182,0.16562303713,0.0200153383242,0.495682548982,-0.0335303398917,-0.0538077026019,0.119708675599,0.0211656040316,0.165479972814,0.0050792586402,0.0397113912005
0.0135416666667,0.988282714659,5,-5.01376710491,0.669806671435,3.26265707933,139429.789715,8.84966716472,8.85451127182,0.331463698024,0.01999886836,0.975416424614,-0.103759192312,-0.152792706896,0.239576657993,0.0617784322874,0.326269157518,0.0147966111542,0.0781450366522
0.02265625,0.988282714659,5,-5.0305598279,0.646339163439,3.26486398615,139524.101972,8.80728286878,8.85451127182,0.331427439025,0.0198547617538,0.976662200507,-0.111084928146,-0.147451236879,0.239568064393,0.0616679513724,0.326244421678,0.0147901379941,0.0782448566729
0.036328125,0.988282714659,5,-5.0578572676,0.612753480739,3.26707641867,139618.650371,8.76159747549,8.85451127182,0.331646109012,0.0196994314167,0.978654472763,-0.121687785183,-0.13893829167,0.239745128288,0.0616116784453,0.326467778349,0.0147966753173,0.0784045791266
0.05,0.988282714659,5,-5.08755215629,0.581267581008,3.26627349993,139584.337604,8.71708334791,8.85451127182,0.331985304417,0.0195915333637,0.979226872353,-0.131375227288,-0.129403472849,0.240116291112,0.061544995482,0.326818426744,0.0147733966049,0.0784502167603
0.0666666666667,0.988282714659,5,-5.12675967806,0.545971669858,3.26521437053,139539.075663,8.68633890298,8.85451127182,0.332129529336,0.0195275849182,0.979060497813,-0.142174998124,-0.116876940379,0.240333902724,0.0614665832453,0.326975855338,0.014745007205,0.078437113115
0.0833333333333,0.988282714659,5,-5.16897411613,0.514333523183,3.26657012029,139597.013688,8.65192657592,8.85451127182,0.332301986029,0.0194560072779,0.98043305229,-0.151997214542,-0.103599928534,0.240585701855,0.0613812998281,0.327162776258,0.0147367789587,0.0785471394503
0.1,0.988282714659,5,-5.21385538056,0.486608025713,3.26703262675,139616.778921,8.6331613741,8.85451127182,0.332596801216,0.0194169756581,0.981600940301,-0.160724773568,-0.0895817065137,0.240868522704,0.0613831384095,0.327459556956,0.0147413938926,0.0786406566697
0.116666666667,0.988282714659,5,-5.26104189679,0.46301854091,3.26772293707,139646.279362,8.62034735452,8.85451127182,0.33274488702,0.0193903224974,0.982468171949,-0.168148759228,-0.0748266218178,0.241023185169,0.0613714572929,0.327610574729,0.0147448176902,0.0787101758838
0.133333333333,0.988282714659,5,-5.31015351857,0.443755111497,3.26794051281,139655.57747,8.62226317418,8.85451127182,0.332900731306,0.0193943074023,0.98304936217,-0.174330784768,-0.0594991284897,0.241128976772,0.0614161072157,0.327760732605,0.0147575100815,0.0787567388266
0.15,0.988282714659,5,-5.36079459055,0.428972928422,3.26811075638,139662.852837,8.63032971197,8.85451127182,0.332920114822,0.0194110858009,0.983190806668,-0.1790822539,-0.0436568066931,0.24111315067,0.0614506427323,0.32777494049,0.0147673470188,0.0787683590451
0.166666666667,0.988282714659,5,-5.41255713571,0.418791080608,3.26881331823,139692.876847,8.64467252682,8.85451127182,0.332901450466,0.0194409188558,0.983532605699,-0.182497626934,-0.0274567624355,0.241046550666,0.0614992360597,0.327748636934,0.0147853795167,0.078795905342
0.183333333333,0.988282714659,5,-5.46502414221,0.413291595537,3.26903509977,139702.354691,8.64343447026,8.85451127182,0.332731778353,0.0194383436981,0.983172659579,-0.184112755976,-0.0109756422807,0.240928273631,0.0614536963131,0.327584689418,0.0147764359395,0.078767177051
0.2,0.988282714659,5,-5.51777292287,0.412518778421,3.26942789013,139719.140604,8.66555707574,8.85451127182,0.33285886823,0.0194843587175,0.98373656905,-0.184736435842,0.00558878531605,0.240938476021,0.061566251698,0.327695381484,0.0148070573265,0.0788127288155
0.216666666667,0.988282714659,5,-5.57037852046,0.416478855265,3.26972451354,139731.816818,8.66954391632,8.85451127182,0.332627642624,0.0194926513459,0.983236828324,-0.183402185826,0.022120148694,0.24075637483,0.061525090074,0.327468739555,0.0147998428134,0.0787725116028
0.233333333333,0.988282714659,5,-5.6224171313,0.425139922711,3.27067881591,139772.598971,8.67775635469,8.85451127182,0.332624276267,0.0195097332177,0.9837886234,-0.180872604047,0.0385170343048,0.240723603108,0.0615546380543,0.327460784501,0.0148155949513,0.0788165847281
0.25,0.988282714659,5,-5.67346951946,0.438432205059,3.27123570968,139796.39785,8.68291107949,8.85451127182,0.332557358266,0.0195204550453,0.983912157962,-0.176757384258,0.0546007423928,0.240656141049,0.0615574975635,0.327392912562,0.0148213291309,0.0788270853151
0.266666666667,0.988282714659,5,-5.72312439429,0.456248616397,3.27178637084,139819.930378,8.68559571717,8.85451127182,0.332512580005,0.0195260390917,0.984121516403,-0.171206928556,0.0702535080979,0.240613827151,0.0615565789389,0.327347933633,0.0148260981732,0.078842792834
0.283333333333,0.988282714659,5,-5.77098172383,0.478445623309,3.2730436277,139873.659303,8.6668060534,8.85451127182,0.332386300748,0.0194869565911,0.984535255607,-0.164076216087,0.0852483611705,0.240591798822,0.0614566154001,0.327236120906,0.0148133998358,0.0788764475257
0.3,0.988282714659,5,-5.81665595761,0.50484440122,3.27407589783,139917.773411,8.65669372919,8.85451127182,0.332547871315,0.0194659229567,0.985648350425,-0.15587438284,0.0996829119716,0.240746106766,0.0614583072802,0.327398664229,0.0148231532342,0.0789654122169
0.325,0.988282714659,5,-5.88027462677,0.551846822244,3.27597926785,139999.114011,8.65574496413,8.85451127182,0.331886229743,0.0194639495254,0.984853706833,-0.140865665483,0.11952975238,0.240270613828,0.061294951,0.326757163359,0.0148009472088,0.0789023475191
0.35,0.988282714659,5,-5.93700601384,0.60696589669,3.27476975446,139947.425404,8.61010302572,8.85451127182,0.331664489597,0.0193690142935,0.983566149789,-0.123004141229,0.136765611409,0.240278400264,0.0610733772755,0.326567810665,0.0147365559025,0.0787984063188
0.375,0.988282714659,5,-5.98582263753,0.669203344403,3.27709608158,140046.841093,8.52706232227,8.85451127182,0.331759164456,0.0191962896303,0.98536450828,-0.103191130481,0.151551070218,0.240653915961,0.0607903755582,0.326706551779,0.0146891171323,0.0789439243121
0.4,0.988282714659,5,-6.02584036351,0.737431961966,3.27695130818,140040.654196,8.45617774308,8.85451127182,0.332129124727,0.0190751430598,0.986510031748,-0.0816336218913,0.163486210017,0.241341866743,0.060591926769,0.327111960933,0.0146398712587,0.0790349020177
0.425,0.988282714659,5,-6.05633441723,0.810416037863,3.27547542455,139977.582246,8.40040611105,8.85451127182,0.332382702047,0.0189926010443,0.986478923801,-0.0587161798381,0.172302716558,0.241934005969,0.060413838751,0.327397537563,0.0145836972779,0.0790326633112
0.45,0.988282714659,5,-6.0767525106,0.886833732871,3.27476280829,139947.128559,8.36039157996,8.85451127182,0.332623674244,0.0189333795383,0.986832696086,-0.0349671392104,0.178210219699,0.242403106864,0.060299726295,0.327659769482,0.0145498178978,0.0790615525363
0.475,0.988282714659,5,-6.08672484463,0.965301020328,3.27267437239,139857.879162,8.34265925762,8.85451127182,0.332908858726,0.0189071357013,0.986442629519,-0.010706391348,0.181034308765,0.242741431345,0.0602912036768,0.32794932346,0.0145292121002,0.0790305216694
0.5,0.988282714659,5,-6.08607080702,1.04439675271,3.27184386229,139822.387277,8.31449408471,8.85451127182,0.332830536647,0.0188654512454,0.985778483513,0.0136601677735,0.180324574706,0.242891831716,0.0601520243204,0.327892978494,0.0144883158787,0.0789768440964
0.525,0.988282714659,5,-6.07480224327,1.12268840053,3.27357655406,139896.433934,8.29449661939,8.85451127182,0.332956444384,0.0188358549967,0.987253878323,0.0377548292379,0.176883555794,0.243131320471,0.060095990805,0.328029351095,0.014490154663,0.0790933965427
0.55,0.988282714659,5,-6.05312324214,1.19875799733,3.27350975417,139893.579238,8.3198971669,8.85451127182,0.333447006537,0.018873447807,0.988598683692,0.0613900250559,0.170842180696,0.243301807899,0.0603206015177,0.328488261941,0.0145437185155,0.0792008152623
0.575,0.988282714659,5,-6.02142643933,1.27122782097,3.27379275095,139905.673117,8.29260633202,8.85451127182,0.332874334824,0.0188330573714,0.987166363911,0.0834392406044,0.160409157046,0.243085320788,0.0600685555556,0.327950873558,0.0144854526994,0.0790849192677
0.6,0.988282714659,5,-5.98028590633,1.33878534602,3.2746920324,139944.103949,8.29441972831,8.85451127182,0.333211236221,0.0188357411979,0.988701905603,0.104431935936,0.14805004877,0.243317942788,0.0601556574124,0.328277032355,0.0145144278783,0.0792070690469
0.625,0.988282714659,5,-5.93044675322,1.40020701536,3.2744815736,139935.109983,8.34453002335,8.85451127182,0.333697224498,0.0189099044346,0.98990038892,0.12402715382,0.133398675246,0.243302464151,0.060485528952,0.328714044286,0.0145921438674,0.0793023175717
0.65,0.988282714659,5,-5.87281163371,1.4543804004,3.27381947904,139906.815344,8.35686709921,8.85451127182,0.3332368968,0.0189281633068,0.9881314967,0.140629559606,0.115384237127,0.24287595068,0.0604296847369,0.328258066097,0.0145727764726,0.0791602908964
0.675,0.988282714659,5,-5.80842439691,1.50032434868,3.27523119211,139967.144962,8.27380311517,8.85451127182,0.332254426781,0.0188052286105,0.986289551737,0.153477083552,0.0946107801056,0.242771301776,0.0598422207531,0.327361496443,0.0144435564391,0.0790121788655
0.7,0.988282714659,5,-5.73845118179,1.53720675387,3.2749305234,139954.295872,8.19199951135,8.85451127182,0.332167945026,0.0187119995113,0.986033264719,0.16366551543,0.0726465840042,0.243478623328,0.0594452050841,0.327340724966,0.0143450983402,0.0789926602786
0.725,0.988282714659,5,-5.66415929685,1.56435962626,3.27326939046,139883.307285,8.13052301639,8.85451127182,0.332262254103,0.0186505230164,0.985493723212,0.170991030182,0.0497373766239,0.244181544889,0.0591756788964,0.327481734662,0.0142655744865,0.0789465396243
0.75,0.988282714659,5,-5.58689426749,1.58129119103,3.27261415015,139855.305562,8.13145993679,8.85451127182,0.332999970684,0.0186514599368,0.987234550958,0.17657075638,0.0263946654854,0.244713991824,0.0593517941357,0.328198449061,0.0143023030999,0.0790876461908
0.775,0.988282714659,5,-5.50805546674,1.5876947949,3.27082696574,139778.93016,8.11694477445,8.85451127182,0.332784299404,0.0186369447745,0.985577565455,0.177965877743,0.00243935835695,0.244705849947,0.0592326298895,0.32800033719,0.0142580020455,0.0789536018798
0.8,0.988282714659,5,-5.42907077071,1.58345446003,3.26886302207,139695.000943,8.09488312303,8.85451127182,0.33264484674,0.018614883123,0.984028640803,0.176058854116,-0.0214030737402,0.24483208234,0.0590954238083,0.327882355154,0.0142078974699,0.0788304505495
0.825,0.988282714659,5,-5.35137069788,1.56864698456,3.26706471663,139618.150283,8.07457729788,8.85451127182,0.332619467236,0.0185945772979,0.98293816888,0.171108118049,-0.0447231425865,0.245024333344,0.0589930890302,0.327873883889,0.0141676927694,0.0787417056882
0.85,0.988282714659,5,-5.2763625005,1.54354055167,3.26628301541,139584.744248,8.11452645344,8.85451127182,0.333424469298,0.0186345264534,0.984680308711,0.164513136985,-0.0676882460317,0.245201700726,0.0593699254101,0.32862491424,0.0142513710177,0.0788843096254
0.875,0.988282714659,5,-5.20540467733,1.50858987245,3.26675673,139604.988462,8.18580955155,8.85451127182,0.33395583244,0.0187058095515,0.986352405363,0.15518334861,-0.0898883189238,0.244853133246,0.0598335610888,0.329084108244,0.0143668301834,0.079017451296
0.9,0.988282714659,5,-5.13978236946,1.46442795043,3.26853687814,139681.063168,8.27651463295,8.85451127182,0.334285168806,0.0188092416568,0.988166988278,0.143041982587,-0.110945613818,0.244234992306,0.0603313776899,0.329333397215,0.0145021548992,0.0791635152848
0.925,0.988282714659,5,-5.08068408464,1.41185461709,3.26891527702,139697.234061,8.28472605426,8.85451127182,0.333301345363,0.0188213945603,0.985504467113,0.126465999881,-0.128757100931,0.24345543193,0.0601352636206,0.328371408291,0.0144583610908,0.0789505542524
0.95,0.988282714659,5,-5.02918017185,1.35182204581,3.26662199705,139599.230643,8.21251038052,8.85451127182,0.332328090866,0.0187325103805,0.981431768574,0.106882310223,-0.143033421384,0.24338524237,0.0595799296554,0.327479921379,0.0143047498853,0.0786257787627
0.975,0.988282714659,5,-4.98620343584,1.28541750674,3.26467223326,139515.907404,8.17110775619,8.85451127182,0.332592028426,0.0186911077562,0.981123202978,0.0864089568053,-0.155549761558,0.244004703826,0.0594451300504,0.327769875667,0.0142553528205,0.0786014803503
1,0.988282714659,5,-4.95253224278,1.2138436749,3.26462483676,139513.881913,8.14641589516,8.85451127182,0.332731610614,0.0186664158952,0.981550691481,0.0646454850872,-0.165500891017,0.244362082041,0.0593604003007,0.327925452901,0.0142346207159,0.0786365055067
1.025,0.988282714659,5,-4.92877642299,1.13839684811,3.26526260983,139541.137172,8.08191758933,8.85451127182,0.332114258767,0.0186019175893,0.980304181243,0.0415376398174,-0.17144378301,0.244575996443,0.0589108126167,0.327376584946,0.0141323297453,0.0785355632328
1.05,0.988282714659,5,-4.91536622616,1.0604434693,3.26578237531,139563.349372,8.03362950227,8.85451127182,0.332194963037,0.0185536295023,0.980943209514,0.0180817239218,-0.174893774563,0.245137538487,0.058700511198,0.327493481797,0.0140863632433,0.0785886195924
1.075,0.988282714659,5,-4.91254452888,0.981395378423,3.26792645591,139654.976748,8.14091844744,8.85451127182,0.334285787006,0.0186609184474,0.988059067974,-0.00566734593783,-0.178950878654,0.245560593844,0.0596961986404,0.329441316686,0.0143441145057,0.0791598808142
1.1,0.988282714659,5,-4.92036243586,0.902684242124,3.26896345646,139699.293011,8.16287981849,8.85451127182,0.333319823753,0.0186828798185,0.985827991339,-0.0296037784641,-0.176327682313,0.244623702433,0.0595758119191,0.328484212009,0.0143242739811,0.0789800037922
1.125,0.988282714659,5,-4.93867835435,0.825735624354,3.26865959803,139686.307608,8.12662473176,8.85451127182,0.33254993471,0.0186466247318,0.983466893918,-0.0526880549758,-0.169713090332,0.244433298684,0.0592241104312,0.327764641829,0.0142370645564,0.0787923420218
1.15,0.988282714659,5,-4.96716055857,0.751943167494,3.26894553634,139698.527194,8.11629305143,8.85451127182,0.332832266079,0.0186362930514,0.984421697827,-0.0750279429116,-0.161164063852,0.244747877163,0.0592406826495,0.328047512232,0.0142435400902,0.0788741399151
1.175,0.988282714659,5,-5.00529319771,0.682643351628,3.26967745383,139729.805719,8.11660804009,8.85451127182,0.332958932822,0.0186366080401,0.985307619769,-0.0960891052861,-0.149787106257,0.244837754877,0.0592716239839,0.328170456768,0.0142573617814,0.0789390371588
1.2,0.988282714659,5,-5.05238563868,0.619091289106,3.27088790563,139781.534429,8.13056888541,8.85451127182,0.333152087137,0.0186505688854,0.98655144351,-0.115631617246,-0.135881304424,0.244835013194,0.0593829528187,0.328347105664,0.0142947192161,0.0790400183571
1.225,0.988282714659,5,-5.10758497438,0.562437992778,3.27170348477,139816.388238,8.11869463487,8.85451127182,0.332819494897,0.0186386946349,0.98610249458,-0.132596857828,-0.118915715951,0.244713593201,0.05924912794,0.328033165945,0.0142696182195,0.0790038301676
1.25,0.988282714659,5,-5.16989147103,0.513709529608,3.27176843222,139819.16377,8.1138363828,8.85451127182,0.332891424639,0.0186338363828,0.986373286351,-0.147354753059,-0.100028817613,0.244816853747,0.0592427551941,0.328107019756,0.0142686498857,0.0790247545814
1.275,0.988282714659,5,-5.23817667463,0.473788437237,3.2716565575,139814.382799,8.11910761862,8.85451127182,0.333023270186,0.0186391076186,0.986683110164,-0.159591326481,-0.0794067153924,0.244859141182,0.0592984677927,0.328231026162,0.0142810915912,0.0790492153032
1.3,0.988282714659,5,-5.31120384882,0.443397740038,3.27129647292,139798.994569,8.12561285773,8.85451127182,0.333052601076,0.0186456128577,0.986482957313,-0.168869570004,-0.0572795462075,0.244813260085,0.0593362298209,0.328254330958,0.0142870405387,0.0790374270081
1.325,0.988282714659,5,-5.38765037381,0.423087854183,3.27096121418,139784.667272,8.13062375483,8.85451127182,0.333046264473,0.0186506237548,0.986197712729,-0.17505222035,-0.0340902018837,0.244756675143,0.059358589791,0.328244143686,0.0142894950286,0.0790187751409
1.35,0.988282714659,5,-5.46613170079,0.413226618868,3.2699149843,139739.956594,8.12538538806,8.85451127182,0.332913155727,0.0186453853881,0.985181983253,-0.177761434853,-0.0102603111469,0.244713116362,0.0593027124071,0.328118893015,0.0142669125328,0.0789381017664
1.375,0.988282714659,5,-5.54522642797,0.413992634254,3.26869018518,139687.614751,8.13332577305,8.85451127182,0.333087049202,0.018653325773,0.984932488075,-0.177630415368,0.0137090242472,0.244758653068,0.059380933767,0.328281637643,0.0142750309557,0.0789181011862
1.4,0.988282714659,5,-5.62350204405,0.425372026777,3.26773273064,139646.697891,8.13199638901,8.85451127182,0.332974391871,0.018651996389,0.984117351033,-0.173999076025,0.0373967898421,0.24468963827,0.0593483926989,0.328173141642,0.0142588511746,0.0788458081741
1.425,0.988282714659,5,-5.69954087294,0.447158700419,3.2669860539,139614.788628,8.13124122961,8.85451127182,0.332979465694,0.0186512412296,0.983694313777,-0.167320425033,0.0603921300681,0.244701188535,0.0593459824867,0.328178682635,0.0142517568206,0.0788111104181
1.45,0.988282714659,5,-5.77196574975,0.478958069383,3.26640902255,139590.129169,8.12084367927,8.85451127182,0.332841839674,0.0186408436793,0.982932154937,-0.157417942414,0.0821666860498,0.244707750445,0.0592645373395,0.328053175422,0.0142271709373,0.0787531433261
1.475,0.988282714659,5,-5.83946496309,0.520194204568,3.26634274674,139587.296869,8.10581717829,8.85451127182,0.33275292538,0.0186258171783,0.982692886434,-0.144732020013,0.102398616897,0.244798155201,0.0591724627705,0.327978734165,0.0142044908814,0.0787320777367
1.5,0.988282714659,5,-5.90081601194,0.570120264414,3.26664913909,139600.39056,8.08878818369,8.85451127182,0.332690528008,0.0186087881837,0.982740307816,-0.129487756436,0.120733223349,0.244928992246,0.0590770703132,0.327931660849,0.0141842523674,0.0787355468387
1.525,0.988282714659,5,-5.95490774675,0.627832021205,3.26745047385,139634.635635,8.07574465377,8.85451127182,0.332708159554,0.0185957446538,0.983261950001,-0.112044096469,0.136953554216,0.245077529373,0.0590191889952,0.327959229911,0.0141773082642,0.0787808029847
1.55,0.988282714659,5,-6.00076049386,0.692284237841,3.26810679651,139662.683611,8.07257955707,8.85451127182,0.33281817192,0.0185925795571,0.98390577475,-0.0926863679298,0.150832934436,0.245191493244,0.0590296415666,0.328068774789,0.0141855162159,0.0788387799958
1.575,0.988282714659,5,-6.0375437987,0.762309598477,3.26838544486,139674.591661,8.07855488651,8.85451127182,0.332940142162,0.0185985548865,0.984536371942,-0.0716839733728,0.162115403506,0.245219172259,0.0590863164055,0.328182649938,0.0142015572684,0.078879594822
1.6,0.988282714659,5,-6.06459146641,0.83663985018,3.26932940708,139714.931926,8.08039637546,8.85451127182,0.332895210528,0.0186003963755,0.984743655723,-0.0492828213083,0.170327098633,0.245166925712,0.0590846559359,0.328137470233,0.0142093623998,0.0789142994511
1.625,0.988282714659,5,-6.08141362757,0.913928772678,3.27036947956,139759.379468,8.06854780889,8.85451127182,0.332706047087,0.0185885478089,0.984798944443,-0.025937381795,0.175207763476,0.245150831268,0.0589845057936,0.327962918566,0.0141943040999,0.0789225125647
1.65,0.988282714659,5,-6.08770561033,0.992776560217,3.27099525758,139786.122119,8.0421062589,8.85451127182,0.33247313471,0.0185621062589,0.984613921671,-0.00217109757824,0.176642467486,0.245254444336,0.0588050255649,0.327757389026,0.0141565292351,0.0789032402453
1.675,0.988282714659,5,-6.08335345847,1.07175517391,3.27098613461,139785.732248,8.02030897706,8.85451127182,0.332479045424,0.0185403089771,0.984563869939,0.0215268760098,0.175008670263,0.245486163484,0.0587029041365,0.327780456631,0.0141318660277,0.0789083533043
1.7,0.988282714659,5,-6.06843599529,1.14943420544,3.2714843141,139807.02197,8.03544191145,8.85451127182,0.3329525999,0.0185554419114,0.986197333035,0.0449824025655,0.171109530766,0.245677697427,0.0588841791179,0.328229175508,0.0141798235892,0.0790404464365
1.725,0.988282714659,5,-6.04322339599,1.22440678365,3.2723192964,139842.704974,8.04964576236,8.85451127182,0.332973211436,0.0185696457624,0.986861300026,0.0676772013386,0.163826772723,0.245544674025,0.05895649581,0.328237905916,0.0142044861377,0.0790829020686
1.75,0.988282714659,5,-6.00817229446,1.29531505488,3.2731813187,139879.543534,8.05772439502,8.85451127182,0.332918376724,0.018577724395,0.987075335116,0.0891363381865,0.153384044424,0.245420021816,0.058982225346,0.328178113984,0.0142181731837,0.0791101595837
1.775,0.988282714659,5,-5.96391751304,1.3608747755,3.27420266776,139923.19093,8.03607930555,8.85451127182,0.332516430855,0.0185560793055,0.986559381005,0.108629920388,0.139647672626,0.245349212218,0.0587864173815,0.327804304424,0.0141798170632,0.0790693714009
1.8,0.988282714659,5,-5.911260565,1.41989857129,3.27504204623,139959.061805,8.02703585341,8.85451127182,0.332645847165,0.0185470358534,0.987559293019,0.126445830878,0.123844631546,0.245539076055,0.0587733622311,0.327937408765,0.014183937669,0.0791420396702
1.825,0.988282714659,5,-5.85115513809,1.47131744238,3.27540960966,139974.769644,8.02180618049,8.85451127182,0.332679511681,0.0185418061805,0.98785137614,0.141914575729,0.105733478028,0.245618538247,0.0587562891924,0.327974319954,0.0141830004132,0.0791687150321
1.85,0.988282714659,5,-5.78468982199,1.51420012422,3.27516292657,139964.227631,8.02274581098,8.85451127182,0.332755096778,0.018542745811,0.987994774648,0.154872485554,0.0857460320735,0.245664526499,0.0587782032221,0.328047116555,0.0141861531098,0.0791743600108
1.875,0.988282714659,5,-5.71306839246,1.54776995411,3.2738307933,139907.298859,8.01521382265,8.85451127182,0.332637325859,0.0185352138227,0.987093018516,0.164710779614,0.0640682475732,0.245656261677,0.0587152334474,0.327938509583,0.0141594299305,0.0790837756285
1.9,0.988282714659,5,-5.63758800938,1.57141893753,3.27203873487,139830.715165,8.01734151331,8.85451127182,0.332757181021,0.0185373415133,0.986224936678,0.171721005277,0.041347511839,0.24572253611,0.0587530000484,0.328053440062,0.0141530303549,0.0790249058157
1.925,0.988282714659,5,-5.55961572343,1.58471875976,3.26985773281,139737.509949,8.02284036449,8.85451127182,0.332809643192,0.0185428403645,0.985100206355,0.175606698346,0.0179041978504,0.245703808775,0.058791245296,0.328100114305,0.0141433696582,0.0789308200249
1.95,0.988282714659,5,-5.480563717,1.58742854323,3.26705085905,139617.558079,8.03566179363,8.85451127182,0.332925533505,0.0185556617936,0.983753005661,0.176387002862,-0.00583612720898,0.245655430049,0.0588789703196,0.328202666501,0.0141401662345,0.0788199969827
1.975,0.988282714659,5,-5.40186372765,1.57949921013,3.26446156664,139506.904557,8.03347778332,8.85451127182,0.332741924678,0.0185534777833,0.981608573908,0.173564587358,-0.0293925881461,0.245542742845,0.0588261631995,0.328025764994,0.0141050997368,0.0786526926085
2,0.988282714659,5,-5.32494111745,1.5610743713,3.26216245521,139408.651932,8.03864246533,8.85451127182,0.332840972364,0.0185586424653,0.980541918081,0.167951723481,-0.0524020389078,0.245561926658,0.0588735995462,0.328118020491,0.0140965967918,0.0785640332953
2.025,0.988282714659,5,-5.25118905773,1.53248772521,3.26043981262,139335.034727,8.04868237007,8.85451127182,0.332921475153,0.0185686823701,0.979595232466,0.159386017988,-0.0744749286079,0.245516568899,0.0589399472993,0.328188341041,0.0140975822302,0.078497900606
2.05,0.988282714659,5,-5.18194329695,1.49425701425,3.25959220667,139298.812251,8.04967115313,8.85451127182,0.332815991135,0.0185696711531,0.978839683016,0.14782573977,-0.0951265557416,0.245428470251,0.0589202487063,0.328084929454,0.0140855442088,0.0784323705265
2.075,0.988282714659,5,-5.11845796844,1.44707464773,3.25927389636,139285.209246,8.03067220611,8.85451127182,0.332535660069,0.0185506722061,0.977786386399,0.133323394802,-0.113780728041,0.245419799164,0.0587651843948,0.327827310882,0.0140457307224,0.0783554783246
2.1,0.988282714659,5,-5.0618828764,1.39179516141,3.25969384887,139303.155934,8.02779169802,8.85451127182,0.332720891467,0.018547791698,0.978780597022,0.11694994945,-0.130776948019,0.245586577026,0.0587942841623,0.32800982355,0.0140563075564,0.0784193060098
2.125,0.988282714659,5,-5.01324267142,1.32941974072,3.26055030432,139339.756595,8.04440026873,8.85451127182,0.332990156155,0.0185644002687,0.97998148094,0.098613301224,-0.145713025459,0.245611893786,0.0589354664477,0.328258574676,0.0140974659132,0.0785200210696
2.15,0.988282714659,5,-4.97341829267,1.26107808794,3.26172073717,139389.775093,8.05733946956,8.85451127182,0.332975349612,0.0185773394696,0.980471940846,0.0782770326276,-0.157880938268,0.245466032978,0.0589935813104,0.328233847059,0.0141214999628,0.078570484383
2.175,0.988282714659,5,-4.94313101291,1.18800796182,3.26244998882,139420.939693,8.0596870076,8.85451127182,0.332854632791,0.0185796870076,0.980735346032,0.0563885824566,-0.167019803267,0.245352584661,0.0589768014879,0.328114535225,0.014123796764,0.0785770488384
2.2,0.988282714659,5,-4.92292937527,1.11153276006,3.26392803565,139484.104087,8.05523709011,8.85451127182,0.332763850906,0.0185752370901,0.981359070871,0.0334576262807,-0.173109795618,0.245332019449,0.0589346391395,0.328029767266,0.0141264909688,0.0786279446593
2.225,0.988282714659,5,-4.91317925844,1.03303755086,3.26516820275,139537.102682,8.05171309947,8.85451127182,0.332766926729,0.0185717130995,0.98213782863,0.00991560353838,-0.176123280035,0.24537100677,0.0589186034628,0.328035568526,0.0141333814201,0.078689098805
2.25,0.988282714659,5,-4.91405725007,0.953943987416,3.26648331088,139593.303884,8.06487021872,8.85451127182,0.332994795123,0.0185848702187,0.983566819093,-0.0138611289429,-0.176346747247,0.245401895436,0.0590338997378,0.328246751182,0.0141724482133,0.078803197874
2.275,0.988282714659,5,-4.92554744855,0.875684559961,3.26765081744,139643.197327,8.04846677,8.85451127182,0.332606633457,0.01856846677,0.983180796407,-0.0373347487596,-0.172521141993,0.245286631845,0.0588661000387,0.327882208795,0.0141422680705,0.0787719602499
2.3,0.988282714659,5,-4.94744175104,0.799676651388,3.26881280377,139692.854862,8.03461671549,8.85451127182,0.3326057338,0.0185546167155,0.983594135242,-0.0601176079639,-0.165824305648,0.245430361073,0.0588001070449,0.327892353326,0.0141364621795,0.0788304321997
2.325,0.988282714659,5,-4.97934362242,0.727296866577,3.26955499636,139724.572494,7.99839898323,8.85451127182,0.332254756799,0.0185188472679,0.983113520046,-0.0815242887071,-0.15564962643,0.245551921973,0.0585467534875,0.327579683094,0.0140819445439,0.0787910286437
2.35,0.988282714659,5,-5.02067527714,0.659856100233,3.27005377572,139745.887851,7.96787546099,8.85451127182,0.332187761753,0.0184968703319,0.983619283522,-0.101457181981,-0.142971653083,0.245870692434,0.0583782157428,0.32754057336,0.0140456914764,0.0788056603118
2.375,0.988282714659,5,-5.07068814365,0.598575794833,3.27059557711,139769.041757,7.95459986321,8.85451127182,0.332335114768,0.0184873119015,0.984410042655,-0.119708197324,-0.128024538012,0.246140350175,0.0583454723858,0.327695308268,0.0140424656022,0.078869017701
2.4,0.988282714659,5,-5.12847642206,0.544565818664,3.27134241731,139800.958005,7.96392341636,8.85451127182,0.332646311031,0.0184940248598,0.985758571559,-0.136153767247,-0.111068375698,0.24625792065,0.0584637952513,0.327990216078,0.0140773702315,0.0789760514898
2.425,0.988282714659,5,-5.19299348935,0.498804364631,3.27171191118,139816.748341,7.999880154,8.85451127182,0.333122499863,0.0185199137109,0.987286629065,-0.150613302996,-0.092257915568,0.24617533171,0.0587541748454,0.328422797712,0.0141504861196,0.0790980769047
2.45,0.988282714659,5,-5.26307085515,0.462120233868,3.27147367799,139806.567435,8.02646961718,8.85451127182,0.333069392519,0.0185464696172,0.986654031467,-0.161883772338,-0.0713077274168,0.245857630575,0.0588684789873,0.328349956524,0.0141759506839,0.0790690174237
2.475,0.988282714659,5,-5.33743932463,0.435177825046,3.27083593393,139779.313416,8.05299718981,8.85451127182,0.333127541929,0.0185729971898,0.986537526856,-0.170357340784,-0.0490303065285,0.24562351627,0.0590081431015,0.328385374924,0.0142040432832,0.0790467185347
2.5,0.988282714659,5,-5.41475198536,0.418465101223,3.26975983595,139733.326323,8.05688925592,8.85451127182,0.332866713461,0.0185768892559,0.985151978776,-0.175164565971,-0.0256776188593,0.245390638656,0.0589662973372,0.328128519826,0.0141846324173,0.0789329269352
2.525,0.988282714659,5,-5.49360860165,0.412284752178,3.26845967079,139677.763709,8.05696411729,8.85451127182,0.332821502888,0.0185769641173,0.984079418343,-0.176826843134,-0.00192299042372,0.245356529297,0.0589561896228,0.328084477057,0.0141709245706,0.0788595804256
2.55,0.988282714659,5,-5.57258097471,0.416748712299,3.26693117778,139612.443495,8.05819807299,8.85451127182,0.332838052013,0.018578198073,0.983403698253,-0.175384027638,0.0218251445701,0.245355873371,0.0589658854878,0.328099592594,0.0141600019768,0.0787894702385
2.575,0.988282714659,5,-5.65023880925,0.431776133297,3.26569716249,139559.707799,8.0643581433,8.85451127182,0.332910439696,0.0185843581433,0.982811332988,-0.170861580892,0.0451759279465,0.245345062386,0.0590119302672,0.328165097645,0.0141603554952,0.0787456777423
2.6,0.988282714659,5,-5.72517561802,0.457094848481,3.26444640461,139506.256607,8.05076800655,8.85451127182,0.332645225873,0.0185707680066,0.981384935832,-0.162786094743,0.0675172438239,0.245291114748,0.0588859581235,0.327917922134,0.0141193059648,0.0786261041085
2.625,0.988282714659,5,-5.79603419519,0.492246302057,3.2632343573,139454.459714,8.01534937277,8.85451127182,0.332306030575,0.0185353493728,0.979768853757,-0.15149863025,0.0883278157489,0.245410181478,0.058639435966,0.327616046131,0.014049757622,0.0784954010115