time,root_dist,x,y,z,rel_vel_mag,Re,alpha_deg,alpha_geom_deg,cl,cd,fx,fy,fz,end_effect_factor,c_ref_t,c_ref_n,f_ref_t,f_ref_n
0.00119048,0.672414,5,-1.98017,2.79934,16.6835,41170.1,-4.33228,9.79039,-8.91056e-05,0.027872,0.0899414,-2.14716,0.142215,0.660228,-0.0278478,0.00116396,-0.143457,0.00599609
