time,root_dist,x,y,z,rel_vel_mag,Re,alpha_deg,alpha_geom_deg,cl,cd,fx,fy,fz,end_effect_factor,c_ref_t,c_ref_n,f_ref_t,f_ref_n
0.00119048,0.465517,5,-1.98612,2.70954,11.6907,38833.7,-8.76976,10.7506,-0.313132,0.104833,-15.6166,-6.35536,0.420942,0.731042,-0.124706,-0.305762,-0.424619,-1.04111
