time,root_dist,x,y,z,rel_vel_mag,Re,alpha_deg,alpha_geom_deg,cl,cd,fx,fy,fz,end_effect_factor,c_ref_t,c_ref_n,f_ref_t,f_ref_n
0.00119048,0.741379,5,-1.97819,2.82928,18.3487,41592.2,-3.26899,9.64352,0.0954132,0.0212165,8.25938,-1.48195,0.0981557,0.591062,-0.0172988,0.0962007,-0.0990131,0.550625
