/*--------------------------------*- C++ -*----------------------------------*\
| =========                 |                                                 |
| \\      /  F ield         | OpenFOAM: The Open Source CFD Toolbox           |
|  \\    /   O peration     | Version:  v1906                                 |
|   \\  /    A nd           | Web:      www.OpenFOAM.com                      |
|    \\/     M anipulation  |                                                 |
\*---------------------------------------------------------------------------*/
FoamFile
{
    version     2.0;
    format      ascii;
    class       volScalarField;
    location    "6.75";
    object      alpha.water;
}
// * * * * * * * * * * * * * * * * * * * * * * * * * * * * * * * * * * * * * //

dimensions      [0 0 0 0 0 0 0];


internalField   nonuniform List<scalar> 
28582
(
0.999999036575
0.999998651252
0.999999141227
0.999998421615
1.00000086618
1.00000063529
1.0000013062
0.999998136999
0.0408781855995
0.0475360687054
6.76425374628e-05
1
0.907479673581
0.88592690599
0.999995911368
0.999997613384
0.880592983609
0.99876080167
0.998671300916
0.999999376981
0.999996418967
0.999993132457
0.999999361819
0.99999671044
0.999994826512
1.00000122062
1.00000204255
1.00000487044
0.999996692162
0.0481274613258
2.28851977339e-05
-1.73917933454e-23
1.00000322933
1.00000738676
0.927777955987
0.91421572421
0.999689234224
0.999998392653
0.999998853606
1.00000272969
0.998766930008
0.884179967198
0.998684514842
0.998869053272
0.0440725544402
0.0480874886474
0.000860911986817
0.000894428125989
0.0464106804178
0.00098174541511
0.999559655514
0.999430138755
0.900182835528
0.905836343057
0.999548234585
0.898464653172
0.999448442864
0.999304345994
0.999210012779
0.892665361302
0.883167739239
0.999164235012
0.89072844945
0.999333942282
0.998915091093
0.99907783823
0.876192106813
0.877482096834
0.999021296497
0.873133637685
0.998987583503
0.998816860864
0.874676763194
0.872736968905
0.998797509511
0.874191061032
0.871955238909
0.998857839527
0.998711110153
0.872475575807
0.869948850713
0.998676313754
0.867011578503
0.998682546351
0.870701693836
0.0366489784981
0.00046877531521
0.0332802907413
0.036066740804
0.00028672567161
0.000422735313609
0.0486315743968
0.000343396432305
0.000436894325279
0.0488215095868
0.000177998838805
0.0482721536561
0.000260485397938
0.999715805251
0.999800493611
0.923975387498
0.926992220359
0.999757192871
0.999765495611
0.923438878601
0.999660090984
0.99963826133
0.919438985251
0.913962299172
0.999704131625
0.999591796679
0.918743898488
0.919380536066
0.914410288173
0.999611688198
0.999680593627
0.914067504285
0.999610406001
0.918899645874
0.998827239952
0.876130783464
0.874725714856
0.998805167298
0.878366835524
0.99886754516
0.877410452021
0.998879914874
0.999055642674
0.88117297409
0.883460560013
0.998945016314
0.998988988996
0.880494785168
0.998807274419
0.998747557063
0.874803613401
0.872944024777
0.875823105654
0.998722296962
0.877773768812
0.878886576427
0.882188258223
0.998954548742
0.998792052999
0.883476141772
0.998904367438
0.880839334604
1.00000208517
1.00000021827
0.0487065769073
-8.97143487821e-28
1.00000372393
0.908225709999
1.00000570733
1.00000578791
0.885986030795
0.884044388164
0.887340378872
1.00000538251
1.00000115852
0.887087483005
0.880187402798
0.0396491689416
0.0496415143982
0.0498904379925
0.000201917036058
0.000144958637105
9.12616831728e-05
0.0505628592153
0.0509666548716
0.999433658526
0.999524289055
0.908581667924
0.901512956178
0.999535129166
0.902766657258
0.999427702407
0.999220682012
0.999166856246
0.88755750482
0.885161898732
0.999274122383
0.999109578401
0.886733826416
0.999108553681
0.999037661553
0.884899317951
0.885423113117
0.999013176138
0.886239455294
0.99909254768
0.999177652744
0.999211398792
0.887615685528
0.886367192863
0.999224858558
0.887201905471
0.9991522214
0.99917381688
0.999228322974
0.886943557781
0.886119709205
0.999217794849
0.885629124363
0.999187788158
0.999096276481
0.999000782058
0.879690453529
0.883523806682
0.998985622875
0.882906915769
0.999108345763
1.00000172538
1.00000049108
1.00000302415
1.00000278955
0.0296881705372
0.0306790114965
0.0286054285229
0.0303019315145
0.0291763259718
1.86063528096e-06
2.5506391157e-05
7.23783035984e-25
9.94333185114e-06
9.40395480658e-38
3.72033244438e-06
1.0000016148
0.999998789445
0.941517210973
0.938259424088
1.00000353815
0.938383078242
0.999997851152
1.0000014171
0.940568133989
0.941334517651
1.00000404094
1.00000387648
1.00000514041
0.94063043566
0.941728296584
0.940468325593
0.938353556287
1.00000554484
1.00000538442
0.941956229324
0.939538323434
0.937836456267
0.938573999203
1.00000248198
1.0000038775
0.94018860108
0.93770087466
0.937632524507
1.00000408868
1.000004734
1.00000578956
0.936995123471
0.937187217783
0.937127120126
0.936310125642
0.93707560033
0.936315529184
0.0299758165197
0.029725945888
0.0311736511458
0.000206566874257
0.000170727504645
0.000192997145316
0.000168509368883
0.000167507166985
0.000349737308821
0.000206652609932
0.000383750278402
0.0286047804027
0.0278105076772
0.0306758505926
0.0289466016744
0.0301616405091
0.000110190555579
9.08174849478e-05
5.51926832149e-05
3.53658563919e-05
0.0305122808222
0.0305308460166
0.0300447202752
0.000121508136622
0.000224467473756
4.7246290356e-05
7.26454473252e-05
0.0296135513997
0.0290025637068
4.0913869941e-05
2.24098795085e-05
2.36176781111e-05
0.0300637551321
0.0296838163032
0.0296621892772
2.62028406059e-05
3.354421379e-05
2.53806567911e-05
3.0787135248e-05
0.999797325609
0.999810507711
0.942754264332
0.938272455956
0.999809519981
0.939643738393
0.999808732822
0.999765473681
0.999788822307
0.937644307073
0.938965552258
0.999779745643
0.999766312066
0.938622918847
0.99981327166
0.999813556529
0.937928254027
0.939059928008
0.99978995582
0.999832780292
0.9389159921
0.999750086413
0.999790544987
0.941172350307
0.941233805154
0.999762562434
0.999761160745
0.942221296154
0.999798466028
0.999794957106
0.941579848175
0.942323169056
0.999795884796
0.99979864899
0.942562003025
0.999805721149
0.999815039146
0.940819718592
0.940776550098
0.999825139596
0.999789897118
0.940286204882
0.999811617089
0.999834307479
0.941101235036
0.940262362926
0.999827089123
0.999810366268
0.940102950504
0.99980306938
0.999798606663
0.94096918471
0.939874440052
0.999801754343
0.999813912326
0.940329961316
0.999804779314
0.999826072189
0.939070331206
0.939205008968
0.99981104699
0.999830403483
0.939327228615
0.999837711591
0.999842628024
0.941819375328
0.940586845049
0.999862313444
0.99981909157
0.941336014157
0.999869219475
0.999879692044
0.940757017953
0.939470712188
0.999858895809
0.940579119553
0.99987991085
0.999819175635
0.999812797454
0.939068741532
0.937874579422
0.999815362017
0.999806180664
0.939283121728
0.999815380517
0.999818798804
0.939835345146
0.938032108003
0.999811525336
0.93945801114
0.999823266931
0.999892670078
0.99986855015
0.939659562927
0.939977778245
0.999874547693
0.999896771395
0.939201639856
0.999879384484
0.999862431969
0.938876686197
0.93773750912
0.999872983502
0.999867177671
0.938392544797
0.999903375753
0.999891997847
0.937765263205
0.937982614311
0.999892034248
0.999885023117
0.938166310128
0.999829427589
0.999834229301
0.936994468136
0.937044196792
0.999808385732
0.999849053794
0.936742507995
0.999816587482
0.999806839554
0.937051686214
0.936700040778
0.99980424352
0.936682733772
0.999818052975
0.99983525734
0.99989191432
0.937050554945
0.93667359813
0.999865371786
0.99988060072
0.936581433227
0.999831159194
0.999849018028
0.936436285179
0.936436068255
0.999858913925
0.936422514942
0.999831538666
0.999874787813
0.999893741127
0.93663970081
0.936924962117
0.999888378798
0.999878468427
0.9365601598
0.999863147604
0.93635292172
0.999872728713
0.999998898787
0.999998188623
0.999994414744
0.99999362501
0.999993121239
0.999991772974
0.99999914391
0.99999846762
0.999996701918
0.999994546571
0.999994936865
0.999994446389
0.99999592111
1.00000318538
1.00001043782
1.00000469098
0.999995871286
0.999939105656
0.99989652769
0.999957251563
0.999997931893
0.999996157459
0.999994192251
0.999993178493
0.999981175356
0.999982054113
0.99998462899
0.999985936534
0.999999799096
0.999999641666
0.999998433572
0.999994725438
0.999991459536
0.9999931248
0.999995340748
0.999996808896
0.999999117631
0.99999864063
0.999996786836
0.999992982764
0.999992418043
0.999995509718
0.999998124597
0.999998722269
0.9999925172
0.999995224291
0.999997976279
0.999997360995
0.999986889857
1.00002981963
1.00002656272
0.999993765018
0.99980438625
0.999756654225
0.99984000455
0.999971899743
0.999999788167
1.00000556164
1.00001023692
1.00000408679
0.999982467517
0.999904064853
0.999904965335
0.999969789247
0.99999971786
0.999999881668
0.999999493763
0.999999097402
0.999995772723
0.999988956835
0.999987699455
0.999992692295
0.999999782192
0.999999335871
0.999998613457
0.999997990606
0.999998004508
0.999998256193
0.999998448752
0.999998714439
0.999996505263
0.999997478328
0.999998673718
0.999999326232
0.999991116323
1.00002508102
1.00003996161
1.0000042328
0.999868670808
0.999830525927
0.999918451555
0.999989165132
0.999983312049
1.00000595416
1.00002765183
1.00002012932
1.00000505207
0.999983682051
0.999972683055
0.999985344168
1.00000375519
1.00000490848
1.00000534917
1.00000491138
1.00000313244
1.00000101153
0.999999809478
0.999999826946
1.00000099151
1.00000106119
1.0000007352
1.00000096521
1.00000131968
1.00000130261
1.00000105662
1.00000097014
1.00000117762
1.0000015383
1.00000171016
1.0000019187
1.0000018946
1.00000171382
1.00000172532
1.00000202979
1.00000149867
1.00000162353
1.00000272613
1.00001608552
1.00002429672
1.00004875884
1.00004043911
1.00001568734
0.999947705461
0.999956784403
0.999990735614
1.00001174308
1.00001488356
1.00001659717
1.00000854113
0.999995936242
0.999995899809
0.999993042515
0.99999392109
0.999993574768
1.0000053289
1.00000750669
1.00000649831
1.0000055247
0.999999917379
0.999997369322
0.999999142072
0.999998768472
0.999997344485
0.999997732473
1.00000516811
1.00000517536
1.0000020829
0.999998030899
0.999996691814
0.999999991149
1.00000108951
0.999998725374
0.999997663455
1
0.999995239802
0.999996316557
0.999999772518
0.999999987748
0.999996785486
0.999997496719
1.00000003165
0.999996695509
0.999999409018
0.0308332530544
0.037321322166
0.0468709094423
0.052478449457
0.0560862056157
0.0525147512037
0.0502704435654
0.0519055513049
0.0297055696797
0.0299874758765
0.0310930827207
0.0366651806069
0.0460754732058
0.0483163176493
0.0525818386976
0.0532082806913
0.0512738805406
0.0517955237947
0.0292618363349
0.0285390581357
0.0314366614996
0.0374436421272
0.044416811621
0.0480406719291
0.05068623408
0.0506274714199
0.050391938849
0.0512131422245
0.0286341014088
0.0317405632889
0.0379633040167
0.0440027473625
0.0476115247632
0.0492962857301
0.0485470573661
0.0491682699459
0.050091168819
0.0389552222066
0.0446926638234
0.0474158609477
0.0480128800328
0.0488390707341
0.0495363388382
0.0493986408662
0.0498536807579
0.0506124766724
0.0501775421129
2.21623979617e-05
2.59811980736e-06
1.50383638864e-06
2.10490346758e-05
8.05960192352e-05
5.5926518376e-05
0
-2.72994176339e-28
-3.76460489228e-25
6.51191894896e-05
1.75447208803e-05
5.02310457288e-06
1.94019835738e-06
9.50625494616e-06
3.24815190924e-05
6.31168132876e-05
4.24126597782e-05
-8.8782322923e-27
-1.00310182141e-25
7.44785410943e-05
1.68201614836e-05
7.11755935769e-07
2.92772652387e-06
1.2925263589e-05
1.95729813129e-06
3.52648305247e-38
2.99460226218e-05
0
-1.91485472937e-27
4.68737991077e-05
7.44462551298e-25
4.01746325234e-06
4.35399261087e-06
1.1319828551e-06
-1.41059322099e-37
3.02095534137e-05
0
-2.38995073128e-26
3.80439326914e-05
3.57295253681e-05
4.89451331976e-05
5.85193764179e-05
3.66729148911e-05
-5.67454891543e-28
-5.96412794213e-27
5.22163820426e-05
-7.5712467024e-27
-4.33061389927e-26
7.05344492943e-05
0.999998286133
0.999997623215
0.999997202735
0.999968477954
0.999996946102
0.999987377525
0.999995845444
1.00000377444
0.999992509779
0.999988430834
1.0000109147
1.00002730625
1.00000184735
1.00000641565
0.999996609755
0.999997746561
0.999997820251
0.999996900118
0.999998174668
0.999997818938
0.999997252358
0.999992200294
0.99999653753
0.999993593179
0.999993787908
0.999991131202
0.999996214785
0.999993408495
1.0000022055
0.999985351365
0.999995076144
0.999992038652
1.00000129397
0.999997579873
0.999999996261
1.00004107819
1.00000777996
1.00002436236
1.00002110842
1.00004267162
1.00001675363
1.00003423807
0.999999401772
1.0000001908
1.00000057065
0.999999370286
1.00000177771
0.999998882318
0.999999459881
1.00000857283
0.999998904871
0.999996772811
1.00000600483
1.00001602364
1.00000152306
1.00000515186
0.999999982883
0.999989002633
0.999999281649
0.999977657314
0.999991621461
0.999972883616
0.99998582959
1.00004802036
1.00001775762
1.00004097938
1.00001416259
1.00004744779
1.00000985774
1.00003961044
0.999993128863
0.99999758132
1.00000076251
0.999995228011
1.00000551902
1.00000749736
1.0000108225
1.00002520757
1.00000475426
1.00001135965
1.00001838166
1.00003223615
1.00001270706
1.00001474844
1.00004198508
1.00001738596
0.915710031545
0.917020385691
1.00000926241
1.00001285498
1.00001676033
0.918642275007
0.918277778152
0.919305452522
0.920971368751
1.00004410255
1.00002735513
1.000037493
0.916936082793
0.896292366148
0.91908379024
0.896172338202
1.00004541498
1.00005341527
1.00004955458
0.883588738844
0.843397615681
0.883584852719
0.851612455045
1.00003954362
1.00003928337
1.00002651065
0.840784075225
0.846164450886
0.853156311592
0.857973247092
0.999989663116
1.00001486986
1.00000191454
0.854407146878
0.875237888764
0.862215599108
0.872912736065
0.99994244461
0.999986887539
0.999978061757
0.878500599386
0.886643948732
0.875216870311
0.881468920246
0.999980744516
0.999978017537
0.999980751731
0.885689839216
0.87702388053
0.879993186184
0.870463948494
0.999990885632
0.999982536502
0.999991636905
0.87841902251
0.861333676289
0.871965097354
0.856609570339
1.00000548699
1.00000835506
0.937505375865
0.925058623657
0.938815916391
0.934594388229
1.0000113419
1.00001081958
1.00001274921
0.920841591938
0.917692272086
0.931807192089
0.924177931113
1.00001613767
1.00001200614
1.00001399813
0.919659638551
0.921702052026
0.923130072443
0.921913986697
1.00001213791
1.0000130017
1.00001229957
0.919966042639
0.897293381034
0.920672438985
0.900412344992
1
1.0000012493
0.999996211319
0.884463780547
0.853566604354
0.887023903332
0.857148959864
0.999997828075
1.00000030869
0.99999975051
0.855476843844
0.860944204171
0.859285481739
0.868695271735
0.999994579451
1.00000177551
1.00000003389
0.864491123716
0.872523892945
0.871603529535
0.878284022862
0.999992980184
0.999996814432
0.999997261507
0.874376428217
0.880037953572
0.878973711838
0.880641595453
0.999993196764
0.999996244052
0.999996335572
0.878555556034
0.868891950832
0.878693723161
0.867462659497
0.999998696013
0.999999442583
1.00000042141
0.870714422157
0.857541900576
0.869299526497
0.858304194076
1.00000682942
1.00000620774
1.00000724638
0.937276644521
0.936980884279
0.936250658706
0.936376430501
1.00000762142
1.00000779684
1.0000082186
0.934887413357
0.926658010711
0.936153826089
0.933285037696
1.00000608723
1.00000707732
1.00000731693
0.924743403574
0.921821581988
0.931639454491
0.92275455239
1.00000144909
1.00000348779
1.00000116252
0.920077094748
0.89974404983
0.916948182104
0.893350708854
0.999996169873
0.999999235307
0.999993311866
0.886983950376
0.858100311519
0.884749113239
0.865872282091
1.00000026329
0.999998412377
1.00000011941
0.860156494772
0.869733102168
0.866698567099
0.875736058695
0.99999984027
1.00000375842
1.00000482899
0.872786138073
0.880221044437
0.878487636611
0.885584136442
0.99999784325
1.00000386518
1.00000346893
0.880758750033
0.882276808443
0.886259249736
0.886166733721
0.999996134774
1
0.999998610923
0.879976804248
0.867432635437
0.883428304402
0.869087507412
1
1.00000144506
1.00000258952
0.869585373379
0.85779999663
0.870782888588
0.857710492996
0.936263743776
0.936180688539
1.0000065217
1.00000908396
0.935927421619
0.934497183272
0.932706906207
1.0000039178
1.00000883372
1.00000662402
0.932752735092
0.919983477536
0.929143065369
0.914265639092
0.999999474387
1.00000218369
0.999999980102
0.913739093073
0.892742668707
0.908800753727
0.89139618067
0.999998274894
0.999998910873
0.999996172799
0.885260515656
0.86904781886
0.885297746997
0.874468274498
0.999999997257
0.999998040715
1
0.869667707992
0.877206453404
0.874847165522
0.88080990427
1.00000191334
1.00000246116
1.0000043414
0.87968805905
0.886688651038
0.883273525246
0.889146254926
0.999999883128
1.00000378521
1.00000209319
0.887311455943
0.886970538615
0.888964954514
0.88407618073
0.999995984407
0.999999833832
0.999996650418
0.884463677713
0.869714795718
0.881377206744
0.870737781402
1.00000060796
1.00000120712
1.00000358123
0.871218471241
0.858352177751
0.872753037416
0.861791569213
0.999999115221
1
0.908612245196
0.891715252728
0.888647479632
0.999996622308
1
0.999999501171
0.885793836706
0.875648487469
0.883095122366
0.875690435653
0.999998435128
1.0000003904
1.00000164251
0.876114595975
0.88208034175
0.876874699848
0.885070316731
1.00000072463
1.00000364752
1.0000053538
0.884363406184
0.888842115662
0.886879363807
0.887965183575
0.999998436078
1.00000274672
1
0.888081582249
0.883073193908
0.886628982674
0.88009500422
0.999996077494
0.99999647543
0.999995945057
0.88074697579
0.871956131867
0.878199684001
0.873331799652
1.00000139697
1.00000007448
1.00000299804
0.874276974494
0.863524549629
0.87568946671
0.868129134743
1.00000196065
0.888258487485
0.999998700111
0.887355661588
0.879768207461
0.999997859121
0.877570579093
0.873523774734
1.0000027006
0.875880750317
0.869082729363
0.000461580040549
0.000424641818668
0.000480945872314
0.000418962084298
0.0301839903551
0.0305082185556
0.000254961086894
4.92138500616e-05
0.000223099145976
7.58205668595e-05
0.0334820354622
0.0309336747355
0.033135805042
2.38845026438e-05
8.04547535373e-05
2.41718816007e-05
4.87460785415e-05
0.0423446469323
0.0370057367349
0.0419329782755
0.000344654994053
0.000618496871421
0.000286910619907
0.000611745221748
0.0504836641447
0.0465693865147
0.0496324481491
0.00101008045239
0.00134852431962
0.000991653799494
0.00125576261532
0.0562095107451
0.0498688366078
0.0529627610243
0.00120422048601
0.000693675687635
0.00127539664695
0.000779026334257
0.0540993450195
0.0547178664273
0.0542358049353
0.000183216903176
8.59174848644e-05
0.0002072732918
0.00010173411762
0.0502193631713
0.0531535686361
0.0510742757956
3.64217426964e-05
2.65785197873e-05
3.39233511663e-05
3.07535587027e-05
0.0510052911187
0.0509053779264
0.0515152940477
3.28965908294e-05
4.93403167803e-05
3.78227236287e-05
5.59434908612e-05
0.0531277888351
0.0517442178487
0.0541779302887
0.00012976296879
0.00131735660138
0.000150920520222
0.00136008254409
0.0296598210401
0.02914405659
0.028774757222
0.000370944869317
0.000332043687994
0.000194676144821
0.000272881739592
0.0307190538148
0.0292193336421
0.03025453024
0.000206385261212
0.000132053537124
0.000227906202876
0.000168218908619
0.0326840264347
0.0315815481302
0.0333497489653
4.84220771513e-05
2.32745444027e-05
0.000112622729833
8.09128154419e-05
0.0415186111717
0.0368960173318
0.0410939530248
0.000168883745739
0.000528492681743
0.000178118385003
0.000471343475302
0.0485227544721
0.0450962075327
0.0473501613908
0.00085348147679
0.00102284226815
0.000780229974102
0.000909300674161
0.0507972290512
0.0476571042831
0.0498222784581
0.00128029356398
0.00091962767147
0.000934884776647
0.000686006863492
0.053563526422
0.0508848191729
0.0519028989909
0.000500222655918
0.000155080597838
0.000674848686678
0.000185844478264
0.0516262628535
0.0520259230734
0.0511611257718
3.42854520824e-05
3.53538709326e-05
3.43040714049e-05
3.64481154045e-05
0.051947938877
0.0510113833937
0.0517365422172
4.53885694417e-05
6.37736022997e-05
4.91444237888e-05
6.31262654028e-05
0.0540598133882
0.0516905153689
0.0536982995408
0.000186162329112
0.00147457866762
0.000197406763138
0.00154064120148
0.0284107219285
0.0292004381575
0.028574551758
8.40823789886e-05
0.00021738814175
5.5421688304e-05
0.000133245154044
0.0296027269629
0.0283071284044
0.0291184616703
0.000194502584205
0.000163118865059
0.000131515323962
0.000125914767268
0.0340085104879
0.0312131199315
0.034239037279
0.000129657518037
0.000133123247377
0.000129135265919
0.00016278232938
0.0407552837318
0.037495715167
0.040560330638
0.000240730502063
0.000487186513014
0.000303043682489
0.000509078269525
0.0467213256355
0.043988749231
0.0460411043697
0.000591996617131
0.000614179173724
0.000528468151192
0.000546017370057
0.0496740224497
0.0478093110304
0.0488646912352
0.000427027293153
0.000231579978634
0.000380415312159
0.000192632547531
0.0505860758509
0.0500908587129
0.0495888185846
0.000385544719487
0.000158032947239
0.000325996465481
0.000159159244522
0.0501528336908
0.0494127776999
0.0491741852809
2.47695470518e-05
2.60032578249e-05
1.99558060883e-05
2.00418452424e-05
0.0514573622231
0.049652459601
0.0508543462003
4.15140547514e-05
6.98561994724e-05
3.7213821387e-05
7.45905035432e-05
0.0538446647642
0.0507085751332
0.0534544376037
0.000164867160367
0.00111824142601
0.000151956002178
0.00102101682229
0.0294403686372
0.0301181853035
0.000114843546106
7.48245778396e-05
0.000119874939781
0.0350083646023
0.0327175035107
0.0356941813093
0.000122418016822
0.000229206969167
0.000195639815006
0.000311272229126
0.0409462405265
0.0385710133784
0.041629165866
0.000365879687767
0.000465948689402
0.000395234051804
0.000472705530036
0.0458294701199
0.044356711665
0.046061003272
0.00048904771944
0.000509355294685
0.000499114315469
0.000515456994109
0.0484394417993
0.0477144412948
0.048382028573
0.00038038676678
0.000209445570991
0.000395003212445
0.000246537732677
0.0488461873281
0.0487001659821
0.0484129638425
0.000367777777953
0.00019638333255
0.0004735193783
0.00025596464429
0.0487502780091
0.0484288371433
0.0489284881208
2.28458747109e-05
3.940811114e-05
5.36988976196e-05
0.000100520658047
0.0503267897105
0.0492608996855
0.0501448835013
6.89857786625e-05
9.8319948989e-05
0.000131753745824
0.000145287733725
0.053515082962
0.0496382856953
0.0526291729324
0.000158227113536
0.000869419762741
0.000202602781269
0.000765849473168
0.0420177608187
0.0428014314825
0.000530249333923
0.000637554073481
0.000586313977296
0.000715384312662
0.0461921999874
0.0453937864354
0.0466273834151
0.000745284987011
0.00080936807758
0.000887784798632
0.000973974581056
0.0478349018699
0.0471785960191
0.0472882511087
0.000742890060471
0.000583111928137
0.000990574588668
0.000863102902137
0.0482767189625
0.0478590749223
0.0484781687304
0.000695936329962
0.00033691920294
0.000658188795363
0.00033953726186
0.049292733632
0.0493257465306
0.049841879421
0.000138961553087
0.000167874697304
0.00018439924304
0.000212632272666
0.0501378322907
0.0499877467042
0.050343685784
0.000181920252845
0.000181478470594
0.000228579677029
0.000229578004851
0.0511613258365
0.049584731399
0.0500713318043
0.000244709976558
0.00091067796761
0.000330782049283
0.00118153321269
0.0489677859793
0.000127780391274
0.0503250109271
0.000146927199927
0.000213627743621
0.000122366111606
0.000201864257438
0.0508518251243
0.000253361995297
0.000265232804596
0.000253345246637
0.000289064506774
0.0503419962071
0.000397772813249
0.0014846458406
0.000487814893644
0.00162156644985
0.999902174441
0.999963992495
0.911679947353
0.916399693565
0.999962344773
0.913387929851
0.999869628199
0.999883568572
0.999914630748
0.916625549581
0.91587063308
0.999948700098
0.999880131377
0.913884980937
1.0000217378
1.0000107727
0.919029612866
0.918688422205
1.00001929273
0.919485724465
1.00004177453
1.00002327952
1.00001167645
0.918722906585
0.918670616709
1.00001714747
0.919252960203
1.00003726694
1.00001197987
0.9999662816
0.919105974927
0.920953766858
0.999999778076
1.00000755728
0.920255718971
1.00001327575
1.00004140609
0.919741782804
0.921128283718
1.00000319543
1.0000417374
0.920157061697
0.999900814317
0.99997436061
0.914026224996
0.917118889928
0.999991051939
0.913694801282
0.999897952048
0.999786248808
0.999611315079
0.906628742759
0.895180167456
0.999604580949
0.905809268577
0.999783799643
0.999872462012
1
0.917978428411
0.915045334612
0.99996316982
0.999911028828
0.914060024439
0.999766109847
0.999603971774
0.89555320093
0.906744707439
0.999624247428
0.999780368024
0.90592380194
0.999022402631
0.999365086935
0.869477850386
0.882575298371
0.999358802956
0.870160901573
0.998983420003
0.998576891096
0.998023192395
0.85575043092
0.846352434042
0.998156883619
0.858603113234
0.998511525905
0.999164173396
0.999407972925
0.882952428968
0.871911069153
0.999446653487
0.999136937688
0.870597725546
0.998825616943
0.998462227424
0.84942811868
0.86123215059
0.998453968047
0.99879049936
0.860114006202
0.997674200808
0.997504550922
0.83918369068
0.843554276886
0.997728373344
0.842864420434
0.997549649834
0.997758865213
0.997889858173
0.840882805594
0.849786575092
0.997943685174
0.8448296972
0.997669918768
0.99785101378
0.998158564812
0.848988941661
0.853878148472
0.997962135564
0.997960513043
0.848892331512
0.997878437328
0.997970947897
0.85364066676
0.855128652963
0.997975742855
0.997945563323
0.850141676895
0.998421472387
0.998166293366
0.864182191681
0.856770298502
0.998159658583
0.864838501604
0.99849606286
0.998687411362
0.999035388637
0.870885979819
0.874957550963
0.998922142692
0.870880073135
0.998846343078
0.998305558936
0.998044228271
0.858520014059
0.8671870847
0.998120679724
0.998180525026
0.864931971258
0.998513291725
0.998538507943
0.8734296536
0.870595347518
0.998672381985
0.99836751976
0.86989929097
0.999032492328
0.999058361876
0.882077988709
0.877995428349
0.998979244377
0.881045051752
0.999071561244
0.999083110532
0.999222149347
0.88560219515
0.885327370425
0.999147688456
0.88395715485
0.999149434076
0.998805715231
0.99864678029
0.876281734295
0.877966636138
0.998741796482
0.998719590144
0.879210348828
0.998919393695
0.998914397947
0.88319400255
0.880341330155
0.99904613368
0.998863051327
0.882025697128
0.99907098652
0.999213552312
0.884319165373
0.884290039512
0.999133959489
0.882380038403
0.999132077712
0.998975465946
0.998967226557
0.881398853061
0.875206299353
0.998890692303
0.879322994947
0.999015545495
0.999003569709
0.99890053683
0.881848614152
0.877441077213
0.999046308374
0.998841383561
0.879708272991
0.998930506091
0.998761424961
0.872959026895
0.874368835652
0.998870407777
0.998770609118
0.876685416381
0.998579196578
0.998927078123
0.874794648515
0.876812661423
0.998823585639
0.873374955805
0.998734896701
0.997722660082
0.998183880265
0.849840774374
0.859891738261
0.848494098458
0.997914513872
0.998003364569
0.998542498646
0.998726697209
0.8744250413
0.868560490726
0.998799066552
0.998508896348
0.870666001132
0.997783600372
0.99799477678
0.858149930274
0.842955224195
0.997761537338
0.844666919336
0.998017836464
0.999945283509
0.999914235226
0.934366405901
0.937455990838
0.999925026428
0.935026542056
0.999902545168
0.999940358932
0.999899835136
0.930017844582
0.927903584217
0.999923829197
0.999918280646
0.932037427108
0.999909425768
0.999845819013
0.938841169691
0.938714510228
0.999895888348
0.93720596577
0.999859779781
0.999926051133
0.999928558079
0.930975141656
0.936905462227
0.999909539925
0.999926628206
0.934661155097
0.999864880795
0.999866568139
0.91765244424
0.923432862636
0.999857089072
0.999862097734
0.921346215259
0.999851104622
0.999845661063
0.917076800359
0.919627527162
0.999843819165
0.999832477589
0.920803186244
0.999889098702
0.999909155859
0.926887650254
0.928646911936
0.999892018286
0.999892471068
0.924813233566
0.999865008146
0.999829170812
0.921920072493
0.926161405225
0.999840926467
0.999865333496
0.923615560165
0.999863941027
0.999871287249
0.921589440674
0.920326507396
0.999936963941
0.999824221406
0.921764778124
0.999897941136
1
0.921960512925
0.922567628604
0.999996791861
0.99992447348
0.922407897158
0.999815478814
0.999800379636
0.921000645203
0.922058543275
0.999805760236
0.999793902677
0.921026034789
0.999846694389
0.999806158244
0.922221691328
0.922117001433
0.99984532234
0.999795304354
0.921623727273
0.999788083904
0.999963527316
0.9163453406
0.920811033061
0.999836603892
0.999895127728
0.917147949606
0.999659697559
0.999506565042
0.908115870041
0.898643462526
0.999697935681
0.999483546603
0.909235359103
0.999748568845
0.999791843766
0.921223895562
0.918206544069
0.99982101527
0.999750615312
0.918203468344
0.999642174581
0.999480505688
0.899436688823
0.911171321401
0.999459277422
0.999656016188
0.910547968547
0.998990945195
0.999296904301
0.872465810042
0.885341562673
0.999018807001
0.999254890389
0.873341469548
0.99871493203
0.998477590998
0.862515310899
0.854793295258
0.998703010103
0.998513266118
0.863684761889
0.998957870351
0.999261645259
0.886304647502
0.874462747728
0.999216971971
0.99897997697
0.874288576565
0.998670469123
0.998656463077
0.856266346046
0.865068751601
0.998549178962
0.998702238736
0.864605958259
0.998335003645
0.998266917571
0.856998077538
0.857048180951
0.99820465028
0.998379241664
0.859700796135
0.998290323048
0.997958488113
0.858334997998
0.864058659563
0.998098379845
0.998176673239
0.861756296652
0.998616079396
0.998645015813
0.858255909239
0.862536944828
0.998549952854
0.998712390671
0.861199575236
0.9986621925
0.99880508487
0.866567081286
0.86572422409
0.998640336106
0.998804597054
0.863932845492
0.99801799548
0.997924407278
0.86869618437
0.86704553268
0.997950336397
0.998037365617
0.871077470532
0.998034513359
0.998145315797
0.87095432923
0.874151197246
0.99802925948
0.998102935272
0.873237683599
0.998447173442
0.998743328588
0.86962025763
0.875481859122
0.998520892967
0.998659483242
0.873660711535
0.998443478129
0.998616062497
0.87614199044
0.877566731693
0.998455329422
0.998637105121
0.875599144196
0.998298516789
0.998276285312
0.876737120348
0.875223402558
0.998409690854
0.998188859168
0.876702894488
0.998432625515
0.998671221315
0.878817008969
0.879459210688
0.998587289681
0.998523886306
0.878509595386
0.998485272574
0.998585731731
0.876761976175
0.879735360661
0.998469375495
0.998558996553