/*--------------------------------*- C++ -*----------------------------------*\
| =========                 |                                                 |
| \\      /  F ield         | OpenFOAM: The Open Source CFD Toolbox           |
|  \\    /   O peration     | Version:  v1906                                 |
|   \\  /    A nd           | Web:      www.OpenFOAM.com                      |
|    \\/     M anipulation  |                                                 |
\*---------------------------------------------------------------------------*/
FoamFile
{
    version     2.0;
    format      ascii;
    class       volVectorField;
    location    "6.75";
    object      U;
}
// * * * * * * * * * * * * * * * * * * * * * * * * * * * * * * * * * * * * * //

dimensions      [0 1 -1 0 0 0 0];


internalField   nonuniform List<vector> 
28582
(
(0.813321083888 0.00240021373389 -0.000802226431419)
(0.815223688436 0.00070863261814 -0.000614449308094)
(0.81376051888 0.0023924771902 -0.00218151030027)
(0.815592638541 0.000790290907057 -0.00131667434935)
(0.814707598146 0.00171781149786 -0.00541770522245)
(0.816939946527 0.000934725681607 -0.00336122973745)
(0.813893537433 0.000955097789734 -0.00839608526426)
(0.818608825626 0.000603391383596 -0.00527488067501)
(0.0495857234966 0.111303705376 -0.0165673733359)
(-0.208441863039 0.080551147809 0.00461224229474)
(-0.20539169166 -0.276834622274 0.644497887485)
(0.818527287145 0.00051892598333 -0.00747312365294)
(0.786466171895 0.00184165324831 -0.00812514622389)
(0.78732614007 0.0017841454212 -0.00810252419256)
(0.819436373837 4.9545864141e-05 -0.00168269331923)
(0.819187743848 0.000960950376221 -0.000823760556079)
(0.787782883804 0.00237919405709 -0.00741375923367)
(0.819502885946 0.000549580955163 -0.00110373582288)
(0.819386424292 0.00165916093166 -0.000947132082164)
(0.812287243062 0.00507385665619 -0.000969919084919)
(0.815644969099 -0.00101181718574 -0.000463159209315)
(0.814489211913 -0.00188385169417 -0.000415115263467)
(0.812184865637 0.00478020334917 -0.00212610128308)
(0.815926072959 -0.000922746722349 -0.000207719623281)
(0.814608034527 -0.00173074724704 2.33652670203e-05)
(0.812137755891 0.00446634540453 -0.00405815765736)
(0.817053359746 -0.000671951233299 -0.000744342632667)
(0.810196311625 0.00402504967027 -0.00474471787016)
(0.818749224437 -0.000402459099865 -0.000231792987072)
(-0.217669624572 0.0847376325193 0.0083280084245)
(0.300256188244 0.172462279612 0.2683567443)
(-0.171900517978 -0.196122356931 -0.499729146746)
(0.813154770992 0.0032150209058 -0.00715843700558)
(0.812335623887 0.00231920807768 -0.00728030735614)
(0.789720987548 0.00967979615553 -0.00364184743471)
(0.789714433126 0.00803676812854 -0.00640068698215)
(0.809371322471 0.00163427598324 -0.00845883684573)
(0.816543675535 -0.00104037635993 0.00054188186064)
(0.81844790698 0.00103399572727 0.000365185965851)
(0.815979647348 0.000584406932216 0.00166190682136)
(0.818093903828 0.000274792532478 -0.000853492464444)
(0.779289888794 0.0015713300385 0.000616633473101)
(0.81777586486 0.00157519459129 -0.000803461551449)
(0.81525665929 0.00322692623962 0.00146619903612)
(-0.04392678718 0.067237597119 -0.0148880096774)
(-0.238513536697 0.0414480606847 0.0101675609924)
(-0.150493939608 -0.018313624164 0.0653845170488)
(-0.160759684326 0.0430403819662 0.0707289487467)
(-0.138813380845 0.0545683960249 -0.00476227259057)
(0.00400896267866 0.0644289990698 0.102055466868)
(0.812837686245 2.82401567466e-05 -0.0115009458154)
(0.816034964706 -0.000954765757028 -0.014190027005)
(0.786386730249 0.0015382777807 -0.00891067700245)
(0.785741255152 0.00105579930036 -0.00916973620557)
(0.812546382871 -0.00110570748428 -0.012419381532)
(0.786084058916 0.00111552427542 -0.00990622653425)
(0.815799629275 -7.32563069989e-05 -0.0130007673065)
(0.81741932496 -0.000748682441508 -0.0125154997177)
(0.820545321485 0.00051789986095 -0.0107608283186)
(0.786585780894 0.00152389641642 -0.0086821697701)
(0.787308592672 0.00207266807733 -0.00886582817618)
(0.820943904549 -6.39674476611e-07 -0.0115059197786)
(0.786372723946 0.00141206320661 -0.00963056266915)
(0.817186721585 6.94540424443e-05 -0.0114986504714)
(0.821841359398 0.000812005854121 -0.00621842355677)
(0.820776538339 0.000818464684245 -0.0089062228476)
(0.787958147824 0.00287386545352 -0.00564214804351)
(0.787770689031 0.00303910256066 -0.00804229076012)
(0.820979638094 0.000581324449187 -0.00949907846869)
(0.787653509437 0.00368398555234 -0.00605459490404)
(0.821898882118 0.000953954821205 -0.00589519786337)
(0.819889791155 0.000330663870692 -0.000672071750697)
(0.786950715023 0.00372638463305 -0.00212798896248)
(0.78610874425 0.00452082099664 -0.0022921831348)
(0.820377822073 0.000871654885389 -0.00463545014978)
(0.787966914103 0.00338603036568 -0.00423461587124)
(0.787551907764 0.00422908039274 -0.00454289079446)
(0.820657120197 0.000767200272357 -0.00422197178484)
(0.819305028336 0.00290964313948 -0.000466969999145)
(0.785732091053 0.00417944236536 -0.00316936352355)
(0.78489571469 0.0037984267132 -0.00219134274531)
(0.820280113602 0.00189767915407 -0.00448611493174)
(0.786820007617 0.00396626223252 -0.00487377451699)
(0.82049383196 0.00288324123919 -0.00456215772397)
(0.78722605559 0.00405383324463 -0.0051328992115)
(0.129699047269 0.156091919859 -0.010136398627)
(0.140489695369 0.134304211404 0.157927415265)
(0.229453866512 0.158467331397 -0.00625537800813)
(0.105741402584 0.146384238007 -0.0104407226313)
(0.15227383106 0.139882518049 0.138271099139)
(0.0496902052502 0.174904529743 0.138974262488)
(-0.215789631859 0.0139603252805 0.0141266473666)
(-0.147051814026 0.0134445204636 0.028608930221)
(-0.179359536298 -0.0529843027122 0.104189042745)
(-0.122375484479 -0.0247891560335 0.0158334768285)
(-0.0269412275985 -0.0167033389375 -0.0599762805789)
(-0.169829146497 0.0491917718383 0.0103735810334)
(-0.0173344811137 -0.0840511146679 0.0186276903187)
(0.808730742272 0.00351404196566 -0.00777388568812)
(0.808189353154 0.00449021503939 -0.00576238735056)
(0.78964115376 0.00932438949933 -0.00486427746345)
(0.78902389494 0.00835367679944 -0.00413461395653)
(0.809087090518 0.0042436327876 -0.00737196426191)
(0.807868573937 0.00390549411611 -0.00619316027271)
(0.788796103148 0.0082596966013 -0.00488469018392)
(0.810592726551 0.00295321469359 -0.00788198597789)
(0.812543193871 0.00347676173727 -0.00931745079962)
(0.789826202593 0.00863092289815 -0.00538170986843)
(0.788549080668 0.00685432861538 -0.00659084543492)
(0.811094828477 0.00388133322594 -0.00750722004142)
(0.812058572756 0.00244499002989 -0.0097979168697)
(0.78877965247 0.00744561361243 -0.00557524382097)
(0.787675138034 0.00433962445824 -0.00608433552038)
(0.787255997768 0.00407716249285 -0.00750300813161)
(0.8111688807 0.00116332631113 -0.0108953002594)
(0.810050094944 0.00228816236674 -0.00779783367364)
(0.787843305203 0.00515103589728 -0.0068800779359)
(0.811624024937 0.00176266901504 -0.0100495749819)
(0.78831147917 0.00566081955467 -0.00556041508953)
(0.81866674518 -0.000119414805164 -0.000253662227164)
(0.785717926006 0.00362119412497 -0.00063757068666)
(0.784390569366 0.00416500403742 -0.00136755989199)
(0.816976974531 -0.000179695213159 0.000765463966503)
(0.783996513339 0.00327831129472 0.000148642713197)
(0.817226259461 -0.000681008956283 0.00154968163279)
(0.782684872699 0.00367319875694 -0.000358430633077)
(0.815990743277 -0.000353617060314 0.000132574606757)
(0.814583521434 -0.000787170146944 0.00115118216876)
(0.781941410494 0.00255863116635 0.000469222104919)
(0.77761090667 0.00186671871828 0.000597266213189)
(0.816202432325 -0.000826174568194 0.000923575313079)
(0.814558727777 -0.00054432475775 0.000663035061342)
(0.780189022979 0.00283668362444 4.2649044495e-05)
(0.816746464154 0.00325785492229 0.00194362479205)
(0.817850148358 0.00316562468028 -0.00013101744084)
(0.783659029746 0.00387641738515 -0.00256564803487)
(0.782715608064 0.0029202617917 -0.00108341313567)
(0.780696126074 0.00215806609629 -1.65079773479e-05)
(0.816632933541 0.00147493357009 0.000696935028637)
(0.781896267636 0.00337342738011 -0.00208467607108)
(0.778086571373 0.000910647620014 0.000455786493858)
(0.775252947331 -9.58816245817e-05 0.00138603451557)
(0.813698095469 0.00263239202302 0.00243257281688)
(0.81544012056 0.00129544368186 1.89049296203e-05)
(0.776324360687 0.00188322335441 -0.000965388123858)
(0.813982985548 0.000900079328398 0.000800097144854)
(0.779193079509 0.00248577909384 -0.0016776595423)
(0.81518869107 -0.00161783839991 -0.000548128332813)
(0.816174106883 -0.00122274647534 -0.000637208991579)
(-0.122945307906 0.0240360173354 0.0026054771102)
(-0.0197238405511 -0.110195107917 -0.492839277505)
(0.814484271089 0.00183815367561 -0.00655636270385)
(0.787378406833 0.00329077937539 -0.00779232095223)
(0.815566932569 0.000294269744233 0.000447373379209)
(0.813830066962 -0.000401495604953 -5.03054808793e-05)
(0.776939759818 0.000396946998222 -6.2955979434e-05)
(0.773041539261 -0.00123596858225 0.00130756233821)
(0.770638398555 -0.00318053752618 0.000317504665249)
(0.813211297767 -0.00138528563175 -0.00229815305655)
(0.812460649362 -0.00251288418083 -0.00373993777228)
(0.771297752955 -0.00348730004329 -0.000260746401335)
(0.774679250655 -0.00442849243619 -0.00439995992719)
(0.0459427656494 0.127917220736 -0.0124390995298)
(-0.0551029589393 -0.0479069316211 0.00735848409962)
(-0.000567424558391 -0.0422904218059 0.00147210413437)
(0.0733444145784 -0.0836580466802 0.0574784082324)
(0.0478288541865 0.0215963162199 -0.0175651855071)
(0.0578628105168 0.0302999095083 0.0215236429835)
(0.00131530261809 -0.0170596836012 -0.00674397696166)
(-0.0232110830016 0.0110664371746 -0.0105224042618)
(0.815981497754 0.000908315124766 -0.0109259430148)
(0.813070156518 0.000773908782636 -0.010177351228)
(0.78801972511 0.00460587447132 -0.0072034347164)
(0.786969546161 0.00279080714802 -0.00831600801434)
(0.813516764827 0.00126997691818 -0.00948868961201)
(0.787826738651 0.003946327193 -0.00764083553087)
(0.815641940861 0.000511772078313 -0.0116650397521)
(0.81332188708 -0.000872429409282 -0.000473779758772)
(0.813974120968 -0.000759191292465 0.000114944504678)
(0.77484781938 -0.000671384398057 -0.00022175233838)
(0.775377355742 0.00070181757221 0.00040019691487)
(0.8136140364 -0.00087973082874 -0.000393579400882)
(0.813917737572 -0.00068210273812 -9.46193336373e-05)
(0.773514687279 -0.000108038177164 0.000312969570634)
(0.812809340124 0.000273037037079 -0.000121865750153)
(0.813132814624 0.0021788152512 0.00160060577312)
(0.773977691921 0.000690115998496 -0.00102243260093)
(0.771600425673 -0.00197944360751 0.00150010776448)
(0.813468629025 0.000577704295161 0.000157788725423)
(0.772441317489 -0.000145978996018 -0.000918316748806)
(0.812228853095 0.00168475369105 0.00168202177474)
(0.81208959318 -0.000380928160776 -0.000431135330981)
(0.810797124933 0.000224546026963 -0.000479092105062)
(0.771186701346 -0.00183662876335 -0.000742957801546)
(0.770768484338 -0.00281321164202 0.00107091409585)
(0.811441527688 -0.000780227116497 -0.00109217248255)
(0.771463982228 -0.00110302911772 -0.000634215350981)
(0.81138515879 0.000753554796123 0.000907140950592)
(0.810370019768 -0.00182576066673 -0.00346588024832)
(0.809881221749 -0.000444187788989 -0.00118768338182)
(0.771622787583 -0.00230564019275 -0.0010313620981)
(0.772772201032 -0.00366147956269 -0.00176129588946)
(0.810556739894 -0.0014084207198 -0.00152438304979)
(0.772923792368 -0.00268474624507 -0.00240322363444)
(0.809697201103 -0.000933211521655 -0.00332855026384)
(0.810465083516 -0.00232454904121 -0.00410356785277)
(0.810802471623 -0.00198651186535 -0.00574848181129)
(0.774944144229 -0.00347782656721 -0.00501163517264)
(0.7736829553 -0.00401555974827 -0.00340778600946)
(0.811201436626 -0.00278090637102 -0.00576408553253)
(0.774024917306 -0.00328082775709 -0.0037397426626)
(0.809963871131 -0.00143523197324 -0.00396683079565)
(0.792089635913 0.012587427869 0.00158259055086)
(0.798067225184 0.0132452037747 0.00138849305508)
(0.800058829124 0.0183381360853 0.00179167877782)
(0.802284456101 0.00982218177974 0.000980770197216)
(0.318265014996 -0.119576588883 0.00701667967995)
(0.373092110992 -0.134757322047 0.00147915956735)
(0.314912894781 -0.0171804174443 0.00547954970601)
(0.471114294253 -0.0155682318946 0.00258608326849)
(0.437830631005 0.147966255798 0.000503819452008)
(0.329258895547 -0.0171741803668 -0.248909556285)
(0.382871297754 -0.0658415814776 0.53409447204)
(0.221213186868 0.036991099437 -0.343317610288)
(0.359720300985 -0.0551716026842 0.193049142051)
(0.200119782204 0.0142268088232 -0.355268082947)
(0.462722953484 -0.0490839052716 0.0138557970353)
(0.787299339554 0.00241804838072 -0.00013412727034)
(0.788968952167 0.00576027231036 0.000331442120587)
(0.781191017053 -0.000147861332942 -0.00220963151098)
(0.782830831572 0.00279527446985 -0.00130027963036)
(0.787338166477 0.0087317258078 0.00206271608753)
(0.781129111483 0.00375560831577 -0.000922336316179)
(0.790968036025 0.00940904069382 0.00115074826155)
(0.794560960825 0.0108686712338 0.00104338571906)
(0.784176810075 0.00317933620775 -0.00297921172494)
(0.787277773204 0.000776315582533 0.000914693262815)
(0.790522821102 0.016599283297 0.00356469052062)
(0.795435601321 0.0143968819712 0.00204331550409)
(0.795530969403 0.0179568544624 0.00307795268273)
(0.781947431516 0.00434976837975 -0.00252675449579)
(0.777929482838 0.00848270173896 -0.00206768177867)
(0.78551568782 0.00127597933256 0.00160305710386)
(0.782051577142 0.00437277163804 0.00438496333503)
(0.796933047538 0.0218550689391 0.00283430161502)
(0.799288087857 0.0265086003433 0.0040013407916)
(0.777679119579 0.010035546024 -0.00154671086997)
(0.781089053843 0.0141204163258 -0.0036268566708)
(0.781792155561 0.00546639917509 0.00419468734914)
(0.784179120156 0.00882448205618 0.00282295320346)
(0.798837975653 0.0155650695785 0.00249632366909)
(0.800699225924 0.0121660155761 0.00205588619775)
(0.786206094336 0.0017418600147 0.00281980827718)
(0.783306867343 0.00437209519199 0.00596529301293)
(0.785419980877 0.00821802775796 0.00456523259103)
(0.801451911696 0.0207674884504 0.00201142691685)
(0.801681452381 0.0136648398332 0.00189403108269)
(0.802642380683 0.0148008982288 0.00202979111299)
(0.782875503802 0.00539198144771 0.00590015460773)
(0.785280833957 0.00784513411445 0.00491501698899)
(0.784783105992 0.00888860948763 0.00528013800428)
(0.786844924197 0.0105386746476 0.00608757172024)
(0.78527941775 0.0108556436247 0.00486115096354)
(0.786827714695 0.0120215538786 0.00563468641574)
(0.383319090117 -0.0294577989397 -9.7191741052e-05)
(0.36409254644 -0.0776008800326 0.0053080915185)
(0.338050468431 -0.099056057961 0.00485007546954)
(0.206964013758 -0.0405498175121 0.143127452733)
(0.333358805509 -0.00661840910665 0.0889290107525)
(0.227605823927 -0.0750206455444 0.0917642887476)
(0.363122897494 -0.0523666350964 0.0331947609099)
(0.326979032238 0.0392173802995 0.0371097505829)
(0.209844942606 0.0376016178887 0.0365024327277)
(0.359960365719 -0.0324833657291 0.0367924714423)
(0.252136220526 -0.0249388115654 0.0436753464923)
(0.30659759559 -0.102234524793 0.00621454032387)
(0.26567351129 -0.0992689003835 0.00588453432228)
(0.343550094847 -0.129484847117 0.00492407594234)
(0.304666965684 -0.0920308292326 0.00985737508355)
(0.376661750859 -0.100291689778 0.00976926588523)
(0.227975891934 -0.0826931796919 -0.00932696136424)
(0.354712109017 -0.0733955552515 -0.029341445236)
(0.23317725294 -0.0402958623504 -0.197648931534)
(0.365973836939 -0.0373031108017 -0.243562821827)
(0.390564932251 -0.125632883725 -0.00537360458068)
(0.438382693129 -0.109521263161 0.00687813993649)
(0.509027524983 -0.108139659775 0.00249803023427)
(0.363288496739 -0.0623872680605 0.00909081257694)
(0.303933207016 -0.0518191337207 0.0475272799892)
(0.367577846667 -0.0308753145991 -0.227487196371)
(0.303754080025 -0.017550367742 -0.152039877449)
(0.394836158366 -0.00618698482559 0.00465005107987)
(0.380492661717 0.0696189355987 0.00360472733385)
(0.232440773465 -0.0315772948061 -0.231572675462)
(0.355240726268 -0.0378913648709 -0.300635193167)
(0.351560075001 -0.00839744606866 -0.240965684311)
(0.536406143641 -0.0188374173252 -0.000591365902603)
(0.46267065701 0.072691937133 0.0010427783542)
(0.533253349434 0.0671548307082 -0.0019061499723)
(0.383956035646 -0.0266075156524 -0.291055864395)
(0.362718575113 -0.0135566963522 -0.244240793824)
(0.401948807571 -0.00197675022107 -0.27946408378)
(0.392102164122 -0.00278530234502 -0.239170926112)
(0.792582686137 0.00343072158206 -0.00268807533708)
(0.791465452968 0.00198621282906 -0.00252389269274)
(0.783583231213 -0.000107936908165 -0.00305929865497)
(0.781494943093 0.00131513157444 -0.0018078292315)
(0.791919376527 0.0042900905896 -0.00185654443829)
(0.783845631559 0.000880601454701 -0.00283162937835)
(0.792170328355 0.00197929758742 -0.00303694949956)
(0.793316501214 0.00499551273427 -0.00225740595308)
(0.793697364072 0.00727365559183 -0.000963867605196)
(0.782163218031 0.00269213833959 -0.00147594292231)
(0.785367710125 0.00161904408886 -0.00241762665335)
(0.792576996419 0.00592876527627 -0.000877656923529)
(0.794101392014 0.00640781167476 -0.0023418580619)
(0.78465042463 0.0016642163937 -0.00253480935728)
(0.789871588389 0.008099402761 0.000655329054177)
(0.792253148415 0.00856866671929 -0.00088031288894)
(0.780429362053 0.00356349961543 -0.001043028244)
(0.779264351812 0.00437359923036 -0.00020869598034)
(0.791095609142 0.00652214680957 -0.000764618738995)
(0.791145213837 0.010076698462 0.000957371173297)
(0.778325170471 0.00442506418886 -0.000227364629009)
(0.796386960771 0.0096005073615 -0.00199762554008)
(0.794825324013 0.00897604147095 -0.00194875740848)
(0.786171623986 0.00172814835599 -0.00319524905604)
(0.785311020072 0.00162000757723 -0.00230477531085)
(0.795199573362 0.00793122617979 -0.00285359916604)
(0.79615064679 0.0108774104989 -0.00139796678656)
(0.786939138144 0.000875953411691 -0.00231500239562)
(0.797714012252 0.0108230612572 -0.000778958752605)
(0.79891819219 0.0124665062938 0.00169249528212)
(0.786538216919 0.00146899193556 -0.00122992909603)
(0.788781691759 0.000674609534895 0.000724710683482)
(0.79759141147 0.0120907586618 -0.000615607010927)
(0.799072956667 0.0113113219049 0.00099408668761)
(0.787984731767 0.000627288552461 -0.00127074792742)
(0.79511861177 0.0141377750092 0.000644848709103)
(0.793909582147 0.0103859829167 -0.00198256941312)
(0.780303174238 0.00555051899431 -0.00236130021427)
(0.782991801876 0.00282579969475 -0.000908542585291)
(0.792926939431 0.0122345951518 -0.000867489987453)
(0.795632365081 0.0123757014192 -0.000816828237355)
(0.781795342929 0.00408131013369 8.86590447655e-05)
(0.794184934088 0.0161226888654 0.000399807896524)
(0.791502250784 0.0164142199811 0.000151501753814)
(0.778819363037 0.00731342699613 -0.00206516137732)
(0.779058481672 0.00707495263956 0.000451834603043)
(0.791907422409 0.0141402150883 -0.00115418099846)
(0.793973238634 0.0183869208931 0.00163898517893)
(0.779895528081 0.00546936450919 0.00027922821469)
(0.796976448047 0.0152145600676 0.00104374193474)
(0.798755587499 0.0139055926661 0.00206498380573)
(0.784505282592 0.00278847922231 -0.000688016758682)
(0.784195053683 0.00203042481408 0.00234561798633)
(0.797282186563 0.0135455458252 -3.02869881825e-05)
(0.798781559552 0.0153987939502 0.00314918531516)
(0.783033772344 0.00388172012167 0.000168702916999)
(0.796366269432 0.0171736552444 0.00111961433061)
(0.798149689518 0.0191070883497 0.0050253093766)
(0.780619998838 0.00679734223353 0.00112894051962)
(0.783072258456 0.00284502381902 0.0036185324155)
(0.796248894537 0.0193023297346 0.00227118990138)
(0.798378660145 0.0172044979808 0.00361365294083)
(0.78156321498 0.00503943793123 0.00061248737066)
(0.79452778234 0.0230143391795 0.00116692717414)
(0.791165563949 0.0189669364145 -0.000526996021766)
(0.77807237207 0.01149908164 -0.0021762574162)
(0.778884919093 0.00838195463085 8.77723088642e-05)
(0.792181108698 0.0214262679494 0.000477540837473)
(0.793545396937 0.0207078366465 0.000557412755499)
(0.779504265093 0.00999806025672 -0.000427109816848)
(0.796118362899 0.0251163624967 -0.000768824324302)
(0.796625824109 0.0256223378618 -0.000338298008148)
(0.779061573888 0.0130118042973 -0.00273248178274)
(0.781861498441 0.0127744812752 -0.00217967712827)
(0.793831221514 0.0237762215258 -0.00107982202472)
(0.780179784146 0.0115603761653 -0.00113579416474)
(0.79856760071 0.0265562009622 -0.000332547707874)
(0.796627157623 0.0233906740394 0.00203878974225)
(0.797949790093 0.020835769698 0.00409957462477)
(0.780447957158 0.0079947638693 0.000976498802171)
(0.782277039359 0.00662883896354 0.00423348654349)
(0.795999065482 0.0212816059044 0.00132629176095)
(0.798390451849 0.0224845161062 0.00449483379839)
(0.781057910473 0.00936888542507 0.00105745528443)
(0.797939828449 0.0250984264735 0.000646527049266)
(0.800728835718 0.0252694748226 0.00245243119242)
(0.782987172058 0.0114757932824 -0.00117541868122)
(0.782935391702 0.00762409640619 0.00350590783125)
(0.79914564894 0.0240779216202 0.0031168309281)
(0.781748871743 0.0104532443576 0.000633588044228)
(0.79971342336 0.0263824309422 -0.000196748440508)
(0.801312654717 0.0128399968578 0.00514810917643)
(0.800279570782 0.0134562396306 0.00306227588416)
(0.784989070617 0.00255550179908 0.00369493663414)
(0.786740300587 0.00340995807858 0.0041578094831)
(0.800328354559 0.0146810786164 0.00417179276498)
(0.80135922718 0.0120943779669 0.00410300969031)
(0.785470840329 0.00394555999927 0.0046626418151)
(0.801166737407 0.0139212663249 0.00536957138811)
(0.799918824581 0.0173863242483 0.0063838303032)
(0.783996089996 0.00318857317777 0.00495116923923)
(0.784203731913 0.00545087210508 0.00593485520707)
(0.800093135684 0.0159771631311 0.00496959375727)
(0.801097011393 0.014832357552 0.0064621750195)
(0.784697588116 0.0046251296253 0.00518382135915)
(0.802035806343 0.0120325122507 0.00447636667201)
(0.802838128483 0.0111915899186 0.00506394917187)
(0.784725229574 0.00744430821962 0.00500193816272)
(0.786025787812 0.00754451461133 0.00379518407765)
(0.802160290384 0.0128575831421 0.00566607294906)
(0.802719322695 0.0105889696804 0.00415998026365)
(0.785431825161 0.00657478102066 0.00415889918304)
(0.801166570918 0.0174486984956 0.00674049580885)
(0.7996346664 0.0189295786599 0.00587397042008)
(0.783260471444 0.0062478462251 0.00569803130538)
(0.783771752611 0.00623297741708 0.00640821871997)
(0.799955422797 0.020351200676 0.00596625601663)
(0.800936659747 0.0161899476233 0.00639712694707)
(0.784184630197 0.00700818190768 0.00656463596242)
(0.801452374407 0.0185395810652 0.00602462910987)
(0.801611445417 0.0227691610337 0.00457204923062)
(0.784100495168 0.00708493839292 0.00542013675616)
(0.786076384888 0.00826818778548 0.00642286820614)
(0.800443437064 0.0217538324975 0.00498003178047)
(0.784915760947 0.00764395130329 0.00655162972325)
(0.802267773331 0.0193849776176 0.00588831612408)
(0.802188839299 0.0147860945316 0.00680903199697)
(0.802805066582 0.0118020537105 0.00557620037777)
(0.784269538106 0.00805181443962 0.00590057567123)
(0.785066207928 0.00949962682039 0.00593753352364)
(0.80208221321 0.0138564038309 0.00620809190847)
(0.802836186071 0.012479376126 0.00625964007415)
(0.784548820947 0.00855867279405 0.00639008527776)
(0.802285729976 0.0157060576859 0.00642797665705)
(0.803359894156 0.0136364475407 0.00618947477784)
(0.786527292298 0.00928440861565 0.00642882066904)
(0.78568567424 0.0101780983747 0.00617728292644)
(0.802832105409 0.0131746114985 0.00612715017512)
(0.785287555206 0.00894031430856 0.00646663920994)
(0.802940271965 0.0163045377867 0.00635924786292)
(0.803417487771 0.00837837662583 0.00472400933909)
(0.803142686345 0.00988934161553 0.00491761022568)
(0.785476885489 0.0114240522606 0.00546473060055)
(0.7857400787 0.0116547061981 0.004445416689)
(0.80322885707 0.0103519893616 0.00548799480668)
(0.803331398261 0.00809157603277 0.00447221642004)
(0.785828339137 0.0122395704335 0.00467474593998)
(0.803659827242 0.0111065574631 0.00545057571714)
(0.785922806911 0.0117970216343 0.00559349015999)
(0.803230008265 0.0107367012369 0.00536174628765)
(0.815394618729 0.00281527369018 -0.000948350561243)
(0.817219631025 0.000798915133795 -0.000556404828989)
(0.817117828731 -0.00129273869206 -0.000442460937708)
(0.813782934304 -0.00356481912526 -0.00029547685598)
(0.809370464336 -0.00462257225569 -0.000245151488183)
(0.818932795112 -0.035643551384 -0.000109672500019)
(0.815922490019 0.00268313237047 -0.00206623363042)
(0.817627414678 0.00100010615471 -0.00114311530987)
(0.817472852417 -0.000730507795637 -0.000365007323835)
(0.814026561206 -0.00342322439509 0.000301828773176)
(0.80966269361 -0.00473515318634 0.00142340732299)
(0.81958157672 -0.0367059013385 0.00228115269368)
(0.814462123474 0.00591192588223 -0.000426791412679)
(0.811902797877 0.0062565970688 -0.000509441204272)
(0.792809361935 0.00947938873959 0.00139189361284)
(0.790494514686 0.00907063071953 0.00176200730012)
(0.788957081589 0.00863905704295 0.00529063997542)
(0.784182562605 0.00305872360288 0.0103867612592)
(0.787205649832 0.00175330782024 0.0104648685871)
(0.752476652334 -0.0264239305335 0.0213008254531)
(0.824765717188 0.00533294796062 0.000217556847228)
(0.822648454984 0.00273047993407 -9.1178717313e-05)
(0.821105384792 -0.000201003517741 -0.00133150633632)
(0.819731459169 -0.00473909545932 -0.00286633597701)
(0.820293024289 -0.00896337563387 -0.00168217357778)
(0.81659497346 -0.0140299649865 0.00212269928816)
(0.811015643564 -0.0109411073419 0.00405604107556)
(0.808429019493 -0.061812651086 0.00821504504535)
(0.818571947099 0.00482375842541 -0.000840449891378)
(0.821310836054 0.00346807351036 -0.00110892183599)
(0.822066459862 0.00219253480832 -0.00164053601735)
(0.82163856317 -0.00102414387313 -0.00181085140328)
(0.820473727808 -0.00405813761549 -0.00102877800256)
(0.819001588331 -0.00783844330561 0.000541691639544)
(0.812093174166 -0.00805258004968 0.00205166787327)
(0.814122061458 -0.0497003925653 0.00372294752573)
(0.814730436459 0.00565699570406 -0.000567675162251)
(0.817648602235 0.00225639241919 -0.000650423414897)
(0.819301065204 8.59781982367e-05 -0.000860461574261)
(0.81926179575 -0.00227899033029 -0.00099294613891)
(0.817696007991 -0.00395213306858 -0.000925272271249)
(0.816794701986 -0.00741375939825 -0.00027294572443)
(0.810987476557 -0.00841523629109 0.0004818864264)
(0.81705762133 -0.053163328475 0.00116648764789)
(0.815571114489 -0.00266021275837 -0.000392671394332)
(0.814931990286 -0.00483283155151 -0.000337957971581)
(0.810353203511 -0.00574171410185 -0.000226754089155)
(0.819458028287 -0.0413782673786 -3.39573574437e-06)
(0.637166953115 0.0419418116169 0.00987910130305)
(0.635745798404 0.0399562751012 0.0118874008802)
(0.650611087921 0.0227071051411 0.0147060686754)
(0.651642792456 0.0204628298855 0.0169188961675)
(0.656428577657 0.0203243302105 0.0244856036321)
(0.662091092321 0.0100242260663 0.0296394734402)
(0.711797980893 0.00710767555214 0.0244705203298)
(0.621870532209 -0.05155490862 0.0340315351918)
(0.772267690467 0.013381656386 0.00652505523644)
(0.768909131366 0.00867275275572 0.00654019826019)
(0.778578528673 0.0010732638498 0.00902899607127)
(0.777837136885 -0.00115623400326 0.0120604876095)
(0.780991993591 -0.00652516597351 0.0164594560718)
(0.787256911584 -0.0152627138796 0.017476468829)
(0.796207949647 -0.0120331861504 0.0168458188519)
(0.789613770395 -0.101946414095 0.0207705318407)
(0.819647214207 0.00522373975421 -0.00136833287453)
(0.821086027891 0.00386674864969 -0.00176744684809)
(0.821696361936 0.00356117580386 -0.00124330780842)
(0.821697260341 0.00249347899316 -0.000579501907512)
(0.821853349408 -0.000553631981044 0.000834773273414)
(0.821261603153 -0.00773526429797 0.0014747423363)
(0.814984657103 -0.00953125580646 0.00465381049792)
(0.822267501584 -0.0660702992297 0.00769678304678)
(0.814979957246 0.00576890408826 -0.00159984790056)
(0.817913348906 0.00284541247133 -0.00171576420982)
(0.819157589178 0.000422472718512 -0.00100115785766)
(0.81939900829 -0.00219873112912 -0.000489736831647)
(0.818233297894 -0.00447150718135 0.000551802033496)
(0.817830038122 -0.00773714064 0.00135975411905)
(0.812442728484 -0.00902587972418 0.00317693426435)
(0.820290750992 -0.0585524607168 0.0049275200349)
(0.815685710749 -0.00216821299389 0.000142135299234)
(0.815307114355 -0.00493170280544 0.000512802680789)
(0.81065676453 -0.00644403263789 0.00179574451661)
(0.820900346714 -0.0458564516444 0.00294128371372)
(0.632864191964 -0.0151475175019 0.0177737008308)
(0.629347375991 -0.015778083587 0.0162471240378)
(0.640708925443 -0.0212565525358 0.0168247231088)
(0.641419379903 -0.021481614841 0.0210589569583)
(0.649160399213 -0.0238367865173 0.0279966392564)
(0.654273649952 -0.0279054534795 0.0224035600418)
(0.707527288605 -0.0193656862713 0.0164006101877)
(0.622826885494 -0.0993491810417 -0.00432938532595)
(0.732819367007 0.00521142118744 0.0211105772277)
(0.732586199702 -0.00115830833355 0.0192100932487)
(0.787535387698 -0.00163608628853 0.00418422926501)
(0.786712532559 -0.00230359965686 0.00741494651016)
(0.787334582876 -0.00813694284838 0.0112403849144)
(0.791673005275 -0.0152127709911 0.00825334043941)
(0.800269773534 -0.0118435904656 0.00571520844193)
(0.801928934837 -0.10761111157 0.000890726581947)
(0.819654790468 0.00411865916895 -0.00237091557361)
(0.82156884097 0.00325557811007 -0.00548068882604)
(0.823229506149 0.000916622965423 -0.00467018616803)
(0.823613842728 -0.00177057825196 -0.00154366596126)
(0.822826520501 -0.00623610673655 0.0012888423117)
(0.822622641946 -0.0123258996117 -0.000179593375025)
(0.817975609566 -0.0134020421139 -0.00239958837621)
(0.833293932682 -0.078299487035 -0.00315054124846)
(0.809477207671 0.00880743051068 -0.00150102753901)
(0.814739723706 0.00532635977856 -0.00334894950952)
(0.818411866106 0.00202886736334 -0.00438635909749)
(0.820942060736 0.000579893788107 -0.00292759656014)
(0.821068326571 -0.00228521902335 -0.000623891015161)
(0.81892018719 -0.00494990770593 0.000525814031251)
(0.819280717895 -0.00852300625035 -0.000649045533776)