/*--------------------------------*- C++ -*----------------------------------*\
| =========                 |                                                 |
| \\      /  F ield         | OpenFOAM: The Open Source CFD Toolbox           |
|  \\    /   O peration     | Version:  v1906                                 |
|   \\  /    A nd           | Web:      www.OpenFOAM.com                      |
|    \\/     M anipulation  |                                                 |
\*---------------------------------------------------------------------------*/
FoamFile
{
    version     2.0;
    format      ascii;
    class       volScalarField;
    location    "5.9";
    object      alpha.water;
}
// * * * * * * * * * * * * * * * * * * * * * * * * * * * * * * * * * * * * * //

dimensions      [0 0 0 0 0 0 0];


internalField   nonuniform List<scalar> 
28582
(
0.999998514745
0.999997851668
0.999998970689
0.999998034927
1.00000059249
1.0000005629
1.00000520206
1.00000241567
0.0331673188721
0.0380282143755
2.69446229488e-05
1.00000444726
0.929194584167
0.919039755405
1.00000040574
1.00000242108
0.914355110906
0.999458926942
0.999359268016
0.999999566497
0.999996581806
0.999996712021
0.999999850529
0.999997417167
0.999997114422
1.00000136868
1.00000135651
1.00000412597
1
0.0395725757408
1.15657681704e-05
2.05318354875e-06
1.00000375852
1.00000775826
0.932127670351
0.928234345506
0.999799245039
0.999997776568
1
1.00000464114
0.999398646138
0.884983935112
0.999269112001
0.9991404135
0.0349433548248
0.0380572924458
0.00049533161735
0.000505598308171
0.0365282157088
0.000462254489913
0.999813220097
0.999765984974
0.926889213915
0.931329145732
0.999817105414
0.929263848942
0.999766296825
0.999706253332
0.999624664366
0.923240530794
0.921311122328
0.999648616817
0.926000215246
0.999699211296
0.999554473287
0.999585842124
0.909437849512
0.916015336737
0.999597584657
0.910218384571
0.999548848148
0.999472073894
0.898525407044
0.898187203693
0.999514859877
0.904036997723
0.904316841291
0.999516917775
0.999369879743
0.897125507724
0.896035103409
0.999456455448
0.904447371488
0.999497093858
0.904131791244
0.0321893881931
0.000270193569852
0.0307734090242
0.0321991218513
0.000199665999962
0.000247447375042
0.0397273574409
0.000389660125285
0.000395935102805
0.0415502549532
0.000391025248403
0.0413010395705
0.000402221274927
0.999783137415
0.999806790323
0.931420526919
0.932275378831
0.999777012412
0.99979872638
0.931357597984
0.999752781893
0.999707471815
0.930123728718
0.928705764673
0.999742401273
0.999715684514
0.930029377379
0.931082402048
0.929890430284
0.999789907193
0.999795637985
0.92948694024
0.999786840639
0.930886308671
0.999419085018
0.893569446873
0.89287000642
0.999347745937
0.889432588454
0.999380663485
0.888321040571
0.999302066642
0.999347094363
0.886826012641
0.884176623603
0.999354831457
0.999310471033
0.885577856437
0.999200111033
0.999253487621
0.891425740844
0.889770229575
0.884682525834
0.99922614834
0.886781610472
0.882232658118
0.881523629481
0.999186162008
0.99917839922
0.883398490483
0.999188666619
0.884296925431
1.00000183925
0.999999155261
0.0435871682626
6.09633685901e-26
1.00000665774
0.928127954458
1.00000598123
1.00000775367
0.885141043738
0.881925314322
0.887294629253
1.00000864213
1.00000767542
0.888526165985
0.891734357879
0.033829925836
0.0440072778321
0.0451462064372
0.000346226405657
0.000313602200875
0.000175509803169
0.0463343679509
0.0468988101787
0.999725482062
0.999775128734
0.92754883626
0.925710592354
0.99975875568
0.925182175029
0.999750690717
0.999253830275
0.999298771607
0.886292833809
0.884496797914
0.999253601255
0.999288104774
0.88571250689
0.999170272256
0.999183457208
0.88371243625
0.883395522929
0.999171227428
0.88496742394
0.999178051401
0.999184264828
0.999237528651
0.888137523104
0.885522925237
0.999218942222
0.886708238739
0.999194255589
0.999246738944
0.999239244592
0.889354268404
0.889926315999
0.999234775795
0.891110822325
0.999236210928
0.999256222132
0.999265552912
0.892354769702
0.890841849453
0.999270966516
0.892337143425
0.999249715472
1.00000325923
1.00000180161
1.00000588988
1.00000363616
0.0253004782793
0.026969613283
0.0288494648493
0.0294339268653
0.0287949298139
2.82525527094e-07
2.68776520921e-05
6.20385459414e-26
1.61857725796e-05
1.46548289988e-07
1.13699097453e-05
1.0000071052
1.00000882337
0.958766868658
0.955510107282
1.00000794229
0.952323691206
1.00000426889
0.999996900217
0.94963161776
0.933710339361
1.00000562746
1.00000125288
1.00000140996
0.947069925043
0.945335232361
0.934265845757
0.934572643428
1.0000026126
1.00000467556
0.944587305621
0.940310265572
0.934892311393
0.933742302221
1.00000514946
1.00000389942
0.931963337456
0.932185987363
0.930531555207
1.00000604075
1.00000627471
1.00000633426
0.932772444757
0.931927908822
0.930967283451
0.931229719039
0.931420980624
0.931729367235
0.0222799206288
0.0226488851747
0.0238969571631
2.52932942633e-05
4.0435566436e-05
3.98418843949e-05
5.73541718614e-05
0.000105926992244
0.000375663871907
0.000147457623129
0.000388112431315
0.0245203203938
0.0264169628663
0.026263323327
0.0271814092075
0.028242814928
8.14830137905e-05
8.94882838809e-05
0.000124209819031
0.000108657753714
0.0270599266524
0.0282484320347
0.0286442971364
0.00014078093335
0.000290163584131
0.000125306316549
0.000209339753665
0.0297381221273
0.0296265950251
0.000141160889293
0.000110728251329
0.000104139911693
0.0296767134816
0.0295752502745
0.0297322670376
0.000112740426388
0.000143534082358
0.000104748006051
0.000114419736119
0.999999313846
0.999987040961
0.959756924108
0.960430629405
0.99999818941
0.961323672398
1
1
0.999968791695
0.959297671983
0.95768151415
0.999994934023
0.999995201932
0.960710210547
0.999981848832
0.999961824929
0.956489390218
0.949125001381
0.999978556718
0.999930829696
0.953073782536
0.99989587085
0.999919729642
0.952531649395
0.94344139592
0.99993078455
0.999864473138
0.947292364823
0.999800725015
0.999782798979
0.938467094621
0.936054195329
0.999806355694
0.999777539573
0.941450846275
0.999891114752
0.999891512677
0.945137282054
0.941159497074
0.999897770554
0.999844536025
0.940915800052
0.99989623736
0.999935383661
0.945151730876
0.941466040475
0.999920152097
0.999942056222
0.941209680523
0.999786253418
0.999769910543
0.937567401034
0.934345969198
0.99979046172
0.999797958672
0.937854743697
0.99982792947
0.999842471821
0.938804238422
0.934406159397
0.999876624115
0.999812624206
0.938391511451
0.999956705541
0.999951037074
0.943412366228
0.941417883391
0.999957407497
0.999963242263
0.940858126381
0.999924308007
0.999966308684
0.941836503128
0.938826027334
0.999962974719
0.939856988051
0.999906630448
0.999933498218
0.999886256957
0.938806388249
0.934924919771
0.999930022155
0.999899699149
0.938159292829
0.999923736662
0.999857872202
0.936303666945
0.934525989291
0.999889375806
0.937017721376
0.999890533093
0.999784126261
0.999765285284
0.931995965821
0.930107146605
0.999772551432
0.999790323631
0.930307769415
0.999787737945
0.999817028463
0.932036311227
0.930659617523
0.999789001838
0.999801941329
0.930543408666
0.999809373399
0.999834699143
0.930362177225
0.930437106775
0.999828987628
0.999819878635
0.93034185243
0.999854723834
0.999862630348
0.932955030557
0.930944325661
0.999887011199
0.999829956035
0.931451921652
0.999857625994
0.999871959174
0.932589991147
0.931456316843
0.999888513067
0.931578725739
0.999856491989
0.999862869306
0.999842694315
0.930579860735
0.931370778183
0.999853504323
0.999849192384
0.931136960979
0.999861810816
0.999858325311
0.931335331145
0.931363845352
0.999860627837
0.931416171729
0.999850408152
0.999877181505
0.999852213103
0.931639700882
0.932451625919
0.999856800552
0.999870474216
0.932479366485
0.99985763726
0.931723824793
0.99985595439
0.999998723123
0.999996271685
0.99999578505
0.999996801125
0.999993293883
0.999991990184
0.999999147805
0.999997774238
0.999997827808
0.999996548334
0.999995898018
0.999994239614
1.00001023658
1.00001540373
1.00000941617
0.999990590961
0.999921387275
0.999906633237
0.999958130334
0.999993429912
1.00000371844
1.00000035544
0.999992628544
0.999980785085
0.99998638967
0.999988968042
0.999985438063
0.999987144181
1.00000001286
0.999998385425
0.999994809225
0.99999480367
0.999996036093
0.999997600832
0.999998003906
0.999997789699
0.999999904093
0.999997210034
0.999994786913
0.999995131622
0.999997998695
0.999999561743
0.999999598639
0.999998857778
0.999997782212
0.999998847146
0.999998477263
0.999996896495
1.00004887609
1.00007072497
1.00000143156
0.999777408626
0.999741508777
0.999863985781
0.999981016961
0.999997467305
1.00002100475
1.00003243464
1.00000680521
0.999965734543
0.999886900571
0.999913264003
0.999975799841
0.999997976814
1.00000192754
1.00000174518
1.00000028479
0.999994137816
0.999987898594
0.99998894007
0.999993681405
0.999998581802
1.00000013078
0.99999926999
0.999998722264
0.999999024884
0.999999633948
0.999999893386
0.999999582599
0.999998836201
0.999998777203
0.999999581163
0.999999593994
0.9999994109
1.00004650691
1.00008656764
1.00000584193
0.999817579022
0.999819333292
0.999942207032
0.999996877937
1.0000002727
1.00002316504
1.00006144534
1.00002006313
0.999997060009
0.999966861604
0.999971483185
0.999991386694
0.999999273342
1.00000692347
1.00000657979
1.00000479432
1.00000211935
1.00000014172
0.999999581671
0.999999787926
1.00000042277
1.00000113512
1.00000115438
1.00000099767
1.0000007695
1.00000106052
1.00000150204
1.00000158637
1.00000114069
1.000001023
1.00000140626
1.00000138083
1.00000168544
1.00000199692
1.00000197242
1.00000165873
1.00000171968
1.00000186508
1.00000146745
1.00000132342
1.00003466579
1.00009137749
1.00006961577
1.00000857281
0.999911738497
0.999981769917
0.999998723564
0.999998571019
1.00001413078
1.00001671265
1.00001656446
1.00001179324
0.99999626676
0.999991826281
0.999998805273
0.999999946528
0.999999897803
1.00000610875
1.00000650967
1.00000723625
1.00000638381
1.00000360501
0.999997611778
0.9999926773
0.999999961806
1.0000022762
1
1.00000337795
1.00000316422
1.00000387728
1.00000450201
0.99999999626
0.999999623896
1.00000212384
1.0000019882
1
1.00000168073
1.00000322217
1
0.999999989594
1.00000098039
1.00000106224
1
0.999999581451
1.00000029796
0.999998750938
0.0325868230376
0.0333099124467
0.0355312673529
0.0423345071216
0.0459208117402
0.0515053596443
0.0540709110005
0.0549753053713
0.027620364741
0.0294253268163
0.0319852570378
0.0332938227531
0.0377568641099
0.0443339544212
0.0468347775018
0.0516946105675
0.0545781917191
0.0550681821147
0.0298457493253
0.029300275993
0.0300179086005
0.0324672007871
0.0372651348949
0.0428719127271
0.047047129439
0.0516099163209
0.0531578713142
0.0541348005582
0.0292333356775
0.0301736511723
0.0328651693457
0.037897911512
0.040575117019
0.0442313619822
0.0484793309478
0.0497899188411
0.0520397559221
0.0339028692611
0.0376230809322
0.0392199481619
0.043014652173
0.0458217478611
0.0471541815682
0.048988744562
0.0456508780399
0.0467735750502
0.0469357592195
1.46255001107e-05
1.71673524035e-06
2.50447927152e-06
4.56865539322e-06
1.58333439786e-05
4.78164050045e-05
3.27199572941e-05
-2.75103300146e-28
-4.10177900261e-25
8.31853124153e-05
1.10134693928e-05
3.10334761485e-06
7.87803446373e-07
3.31179567418e-06
2.30579445268e-05
5.21221035012e-05
8.99812553892e-05
-1.75082118696e-26
-6.39251472381e-26
9.86513665712e-05
2.21909914796e-05
2.7568460519e-06
5.2731521038e-07
1.21366720502e-06
7.37017079849e-06
3.98009980537e-06
5.28023520954e-05
0
-4.67504695469e-28
6.48259642811e-05
6.03281695477e-07
1.7151184463e-06
5.10089553948e-06
4.34691363054e-06
1.61974146374e-06
4.59081990603e-05
0
-2.50588532509e-26
5.23613456819e-05
1.58737845837e-05
2.68245278564e-05
4.27731624175e-05
4.91128978809e-05
-5.30408002443e-28
-2.62270919228e-27
6.56457083384e-05
-1.29384035385e-26
-4.29048167986e-26
7.67496818133e-05
1.00001334997
1.0000047695
1.00000351626
1.00003977516
1.00005663383
1.00002268109
1.00003194131
1.00001427882
1.00000114971
0.999998402416
1.00006162055
1.00005317417
1.00003379942
1.00002843523
1.00000184298
1.00000135729
1.00000061847
1.00000807972
1.00000590118
1.00000173064
1.000000602
0.999998998268
0.999999750654
0.99999846351
1.00000271188
1
0.999999559056
0.999998504177
1.00006876228
1.00003446045
1.00006051311
1.00004556673
1.00007256651
1.00004330267
1.00007134146
1.00004440488
1.00006730264
1.00004252147
1.00008111831
1.00005332717
1.00007504015
1.00004699869
1.00002982953
1.00000578873
1.00000405416
1.00002347242
1.00004165268
1.00000796033
1.00001293175
1.00002718905
1.00000119447
0.999999529397
1.00005065657
1.00004431885
1.00001538471
1.00001528943
1.0000794692
1.00004466769
1.0000675106
1.00003969903
1.0000772803
1.00004224062
1.00008041999
1.00006002112
1.00007340854
1.00005147853
1.00008780638
1.00006297918
1.00009523633
1.0000705943
1.00004918787
1.00001517422
1.00002286048
1.00003505088
1.00004851943
1.00001584799
1.00001577862
1.00006084073
1.00002737762
1.00002772402
1.00005726541
1.00005561994
1.00001468572
1.00001376433
0.99998601783
1.00001392189
0.913083791359
0.914949402031
1.00007367225
1.00003536011
1.00005355376
0.913236645569
0.917963085889
0.915047881932
0.918480036415
1.00009026988
1.00006401314
1.00006368475
0.919600103176
0.924348946466
0.920319398527
0.922023752361
1.00005049032
1.00006281942
1.00004711257
0.927264017475
0.917304884704
0.920316969717
0.900610212936
0.999939364566
1.00001476456
0.999993662921
0.904708634018
0.867041475888
0.889268841323
0.864179931481
0.999942875062
0.999982559773
0.999979656266
0.868872552402
0.875020661457
0.865989110299
0.872963415566
0.999997379032
0.999985180335
0.999990864147
0.876925374131
0.882739104705
0.875187497082
0.880399030111
0.999998774252
0.999994929167
0.999997248928
0.883121397991
0.883735117304
0.880672847643
0.878739459341
0.999999018836
0.999999707027
1.00000562254
0.882291567595
0.855844180441
0.877094163013
0.853768914667
1.00000749074
1.00001220641
0.938747666751
0.927882681112
0.933115478426
0.931082681324
1.00001727886
1.00001540501
1.00001536601
0.924915578818
0.916603707182
0.92932937511
0.925070406601
1.00001796324
1.00001732602
1.00001675254
0.916631384543
0.919162882627
0.924005270462
0.923837312527
1.00001655417
1.00001749247
1.00001498565
0.920817381987
0.923222828071
0.924144715241
0.925527060437
1
1.00001097961
1.00000030344
0.920497933423
0.898197871471
0.923126421082
0.898667059185
0.999991087457
0.99999536062
0.999985802334
0.887667989597
0.865244651403
0.888491657093
0.868360585776
0.999997895045
0.999992349374
0.999998313465
0.866761848321
0.872990961759
0.868929722776
0.87386551762
1.00000059776
1.00000356414
1.0000049208
0.875054843969
0.879686722041
0.875610963926
0.880803358416
0.999998115232
1.00000361908
1.00000220881
0.880055153837
0.877400133207
0.881268483102
0.877386456253
1.00000298536
0.999999956477
1.00000074751
0.875963432417
0.855059026996
0.875694180341
0.856054086937
1.00000643102
1.00000581404
1.00000510365
0.931545889565
0.930693836267
0.931121879123
0.930726151074
1.00000773818
1.00000573703
1.00000697445
0.929806545369
0.927462197808
0.930445495317
0.93035750237
1.00000938052
1.00000864125
1.00000825927
0.926191041435
0.925046301864
0.929391597694
0.927935037136
1.00000939278
1.00000820928
1.00000743681
0.925066375574
0.925882415778
0.927409762877
0.925646448812
1.00000015437
1.00000506657
1.00000127165
0.92394010411
0.899227489655
0.92238262292
0.899752864618
0.999993884269
0.999999866797
0.99999437709
0.888907856201
0.869249196521
0.890109540291
0.87564666721
0.999998628654
1.00000117044
1.00000266655
0.869540369046
0.874362081959
0.875916592442
0.881758103257
1.00000235098
1.00000632316
1.00000736311
0.876142210571
0.881519393302
0.88294086751
0.88690730868
1.00000175338
1.00000582456
1.00000540825
0.882010451994
0.879600934343
0.886895771258
0.885089551918
1.00000044457
1.00000174032
1.00000093066
0.87742503186
0.856142596139
0.882552403582
0.859942066164
0.931642183279
0.931533808747
1.00000396965
1.00000763392
0.931190705586
0.930862845154
0.9323165886
1.00000537249
1.00000709918
1.00000736189
0.930191212764
0.92881766931
0.932095482216
0.92809567084
1.00000610692
1.00000600797
1.00000479157
0.928289786315
0.922948367693
0.925613164107
0.917819747785
1.00000146856
1.00000180935
1.00000098506
0.919374223073
0.899360068785
0.914522752018
0.899109108739
1.00000028598
1.00000077912
1.00000024537
0.891186206307
0.878919914303
0.893551175403
0.884666840304
1.000003352
1.0000055417
1.0000050575
0.879179489752
0.884052024541
0.885014443512
0.889605792052
1.00000296188
1.00000627904
1.00000722258
0.885090557474
0.888410220257
0.890585041849
0.893043575066
1.00000198279
1.00000585149
1.00000566442
0.88835314943
0.887340741921
0.89288401382
0.889423210643
0.999999729286
1.00000288985
1.00000108335
0.884741053966
0.86257481753
0.887220118036
0.867186597077
1.0000024024
1.00000590136
0.925796640803
0.918034373728
0.918313516563
1.00000121718
1.00000412047
1.0000018184
0.914491821709
0.898476967567
0.913905641817
0.898682817162
1.00000075642
1.00000193227
1.0000022891
0.893317510322
0.885442855914
0.893913444024
0.885775088248
1.00000146695
1.00000346692
1.00000227089
0.885815740485
0.89034998712
0.885951439188
0.890197540513
1.00000115796
1.00000336395
1.00000475719
0.891229787562
0.893690602905
0.89110981004
0.893749336202
1.00000058292
1.00000433856
1.00000367089
0.893582982752
0.89005419401
0.893572840206
0.889833620577
0.999999857897
1.00000254889
1.00000103697
0.888940813002
0.870583744407
0.890462325743
0.877513824068
0.999999263232
0.889362419271
1.00000011143
0.890515493654
0.893568599925
1.00000035363
0.893402184721
0.890282548439
0.999999928192
0.891501575126
0.879273651534
0.000375873347316
0.000282916516366
0.000379798521869
0.000261291036938
0.0314620563989
0.0315513421056
0.000133993018772
2.57867518423e-05
0.00010325456742
4.24510046784e-05
0.032918462939
0.0326397157106
0.0332467667809
5.06284542391e-05
0.000137552052982
4.1708989103e-05
0.000118641067716
0.0338634302535
0.0334354888357
0.034662497323
0.000165370343417
0.000150726476932
0.000189043145092
0.000228828710975
0.0393092038512
0.0378509057613
0.0412348554817
0.000209775726162
0.000452967721114
0.000360586746412
0.000553754742773
0.0445344850767
0.0437431914566
0.045408034929
0.000710059455375
0.000900378000324
0.000774130880074
0.00100980756527
0.0487533365051
0.0464652493986
0.0492021601037
0.000784347141056
0.000359242863215
0.000994003823143
0.000434898567182
0.0530619437076
0.0517771366608
0.0535821965346
9.90220273157e-05
7.28695583069e-05
0.000103980998829
8.1021081321e-05
0.0541857558305
0.0546171011972
0.0549374439469
8.53799089193e-05
9.49782026014e-05
9.99376862442e-05
0.000115914306348
0.0539509771432
0.0552588488431
0.0539906364774
0.000271085794171
0.00160131770297
0.000325659315083
0.00179786884715
0.0286677784497
0.0286926235071
0.0288484234075
0.000303607776681
0.000210901527368
0.000282666124962
0.000234131621527
0.0311782190757
0.0293255903586
0.0301448337451
0.000119241167828
7.51996980621e-05
0.000163454642796
0.000100313208599
0.0327408433076
0.030829784675
0.0316558485442
2.61589658273e-05
2.56789861172e-05
4.76342250118e-05
2.32107170721e-05
0.0345522034864
0.0327647516842
0.0343332167794
7.61864054767e-05
0.000237748784099
3.50117321098e-05
0.00011876991984
0.0413777688455
0.0374634413208
0.0407942740187
0.000425556957092
0.000600475867075
0.000408673504056
0.00059988954559
0.0461017624403
0.043728614962
0.0458788997613
0.000819469826443
0.00103488774522
0.00075859573066
0.000915178888632
0.0493586302319
0.0471605610381
0.0495510087591
0.00128551150835
0.000548949436191
0.00126476246665
0.000546884692785
0.0536773782551
0.0517094426019
0.0533827553983
0.000108288426192
8.60867814167e-05
0.000105474404226
8.40067864593e-05
0.0551181613081
0.0540657041994
0.0546305457356
0.000107152269337
0.000134769865087
0.00010665824474
0.000131284048005
0.0535665386075
0.0546036837679
0.0531728894596
0.000389125151621
0.0020108198588
0.00039352731227
0.00206772124419
0.0294701337286
0.0298919140505
0.0296978472736
0.000245341447578
0.000304877415662
0.000177425425335
0.000267732696422
0.0292904364087
0.0294362711381
0.0293875618713
0.000216448548908
0.000112865161999
0.000217858383895
0.000125850312884
0.0311411854996
0.030022809289
0.0311018741368
4.93457098912e-05
2.74394181659e-05
6.51485670403e-05
4.20697079046e-05
0.034424209408
0.0325396905012
0.0346028937129
2.52734985579e-05
6.82842980609e-05
3.50733530455e-05
0.000127371564823
0.0400493500137
0.0374999472063
0.0394452188806
0.000308810160109
0.000498400424341
0.000276918589415
0.000454700278266
0.0450177407343
0.041645901246
0.0434597319204
0.000539303180203
0.000602838120688
0.000500891927227
0.000524231749642
0.0493228396761
0.0457284815678
0.0479014206018
0.000958635165088
0.000430729926292
0.000809742553228
0.000345860333228
0.0524563909823
0.0503354984634
0.0507904269183
8.68808850383e-05
6.60456976385e-05
6.70346457355e-05
5.11293950511e-05
0.0535911829549
0.0515850909637
0.0521695937338
8.58703185231e-05
0.000100185499325
6.60527188867e-05
7.57706370712e-05
0.0535412996407
0.0532201825113
0.0530013277756
0.000295200407086
0.00153502466562
0.000243776801513
0.00136218568635
0.0295003516773
0.0295856581083
0.000183736686893
0.000107590587935
0.00012629111423
0.03118611538
0.0303656711291
0.0317957638679
7.33097899102e-05
6.28832438202e-05
0.000140542922973
0.000189117658383
0.0354600991668
0.0336900081214
0.0360458600531
0.000149199121554
0.000253955117346
0.000257346740524
0.000314959803011
0.0390758552128
0.0379070469998
0.0386570006506
0.00031749882433
0.00043104264205
0.000353743684393
0.000421202742228
0.0421183345774
0.0396188935233
0.041271182209
0.000448715762708
0.00046223218607
0.000405772064389
0.000436520886643
0.0461599599752
0.0433081297091
0.0450491956699
0.000756368010695
0.000324280481613
0.000774245426022
0.000339825259005
0.0489075954136
0.0468537831544
0.0472093738902
5.83467748228e-05
4.46037886347e-05
6.78741131691e-05
5.16309695662e-05
0.0505862925809
0.0481449228972
0.0492613887027
5.37803415611e-05
5.85453640148e-05
6.32209146673e-05
7.45759818836e-05
0.0524979766244
0.0504693321827
0.0514506168337
0.000203967869325
0.00117336467412
0.000199564149754
0.00112716034033
0.0359753420793
0.0355691165083
0.000302539173169
0.000356396333307
0.000314172906075
0.000375907217951
0.0383837119313
0.037071463169
0.0381009110588
0.000407168641935
0.000521988410461
0.000471772803742
0.00055260466635
0.0408063301456
0.0391578859559
0.0408092388184
0.000599502593422
0.000703195214246
0.00065832771788
0.000781152994807
0.0444505285001
0.0431117087244
0.0443783268931
0.000877841799561
0.000411164371766
0.000786506900205
0.000428442356426
0.0464013524306
0.0454820170708
0.0461258887203
8.89265811512e-05
6.07583916523e-05
0.000117913098384
7.88419031454e-05
0.0481578159553
0.0467063367134
0.0474316040698
6.97270813714e-05
8.99635159296e-05
0.000102711015111
0.000120697470007
0.0495073143895
0.0477136561174
0.047916192084
0.000206577850914
0.00129083795011
0.000271295914769
0.00140785765519
0.0447703960538
0.000207610303443
0.0462854574145
0.000126895822178
8.99735305902e-05
0.000110192740934
8.48264875585e-05
0.0471998756034
0.000111926001231
0.00012976923181
0.000116196763027
0.000166846049511
0.0469215827843
0.00028052389826
0.0016547214578
0.000364784470225
0.00166325259662
0.999966063213
0.99992348947
0.913115551219
0.913087215192
0.999940956506
0.913002132268
0.99995500079
0.99994103378
0.999897037927
0.913768044088
0.916023963255
0.999895214664
0.999963438847
0.914246939454
0.999878794486
0.999893607195
0.914311413511
0.913663122257
0.999891841333
0.914626220863
0.999882473488
0.999880998952
0.999880550374
0.916208291756
0.917533333815
0.999886225694
0.915811221499
0.99988213472
0.999852302195
0.999876430874
0.914103721097
0.915613685581
0.999860368105
0.999865742045
0.915005689508
0.999855982997
0.99984750043
0.917949980192
0.916774871147
0.999861373856
0.999849927407
0.91611235171
0.999825672228
0.999870705724
0.919976132792
0.919289144906
0.999873136741
0.919790109909
0.999814883642
0.99976246304
0.999753796314
0.921715569596
0.923322857976
0.999726965429
0.921764125177
0.999745600744
0.999877759955
0.999862756436
0.919551607872
0.921295551402
0.999882394648
0.999864154085
0.920372681279
0.999819982405
0.999733890302
0.922363197691
0.922598874118
0.999758472662
0.999830369109
0.921572711348
0.999815151997
0.999828005687
0.929231859284
0.925086472473
0.999759682403
0.925706767023
0.999906616465
0.999785032318
0.999805161239
0.925172856955
0.912847551566
0.999682800499
0.921025373684
0.999893484806
0.999655975356
0.999642062646
0.921844192997
0.917127751209
0.999686407581
0.999523879706
0.920099370287
0.9996424884
0.999268120504
0.905776041967
0.910301035824
0.999541296386
0.999397936986
0.914397429305
0.999313135834
0.999630912637
0.88965396065
0.900104693501
0.999527917342
0.885668136317
0.999385310466
0.99909002196
0.998986296144
0.877364660657
0.864561040027
0.998946591587
0.873924393151
0.999097966917
0.999140557355
0.999127461379
0.894283508691
0.878446068097
0.99936799129
0.998932929072
0.88169850408
0.998871341526
0.998722502559
0.864272713062
0.870409534247
0.998732261556
0.998749340123
0.871957241794
0.998969247251
0.99888791881
0.871222314346
0.866634777803
0.99890575545
0.869456020456
0.998992411635
0.999065164496
0.999132177563
0.873108779378
0.873723558403
0.999090422437
0.871717339642
0.999127131568
0.998840371345
0.998672271201
0.866131183176
0.868449088125
0.998739715391
0.998763831026
0.868629390367
0.999004862227
0.998967443833
0.873029997796
0.870687025205
0.999070263047
0.998921498115
0.870885828284
0.999014432157
0.999075969314
0.879973045085
0.875716987071
0.999049967586
0.878846476101
0.999060000583
0.998987648694
0.99903759106
0.881850416517
0.881582628219
0.998942848765
0.88076812961
0.999060421444
0.999034472382
0.998963998271
0.87510673841
0.878268598995
0.99905391193
0.998977496359
0.87825083091
0.999018995759
0.998992589234
0.880839569707
0.87989564444
0.99898640573
0.999006890611
0.880124166883
0.998693391323
0.998940267584
0.884401237185
0.882058997152
0.998814795604
0.883130136478
0.998857812661
0.998645647365
0.998893701357
0.884705780952
0.882664952738
0.99862117748
0.883471763004
0.998860813238
0.998804243788
0.998924721279
0.881215019041
0.881673247362
0.998888738662
0.998852474038
0.882357223241
0.99880338162
0.998792470209
0.880341813485
0.880695755543
0.998770031118
0.998846657052
0.881799291608
0.998316093319
0.998847773746
0.875977933685
0.881449015253
0.998550649899
0.875200266853
0.998628983239
0.997700912057
0.998312769333
0.85175600979
0.854893501719
0.851177483748
0.998081031232
0.998006144827
0.99846164508
0.998702706828
0.878877642035
0.870713038647
0.998699859503
0.998442848029
0.872458344374
0.997909825901
0.998233429963
0.855516146245
0.846990063046
0.99787883001
0.848660118575
0.998246548941
0.999919544777
0.999971493737
0.934804307652
0.937161916964
0.999980432328
0.935332710649
0.999924509352
0.99993237457
0.99995664805
0.93053333635
0.929200555125
0.999970697436
0.999918677142
0.932603775456
0.999899176989
0.999829361036
0.935726858479
0.932717774819
0.99983187254
0.934792791869
0.99989181406
0.999883273554
0.999858040565
0.929891274662
0.932079358314
0.999885338824
0.999857652274
0.932754857513
0.999909681008
0.99994902264
0.920957311042
0.926282414923
0.999946979559
0.99992670849
0.92360480981
0.999875141173
0.999823542781
0.917846624077
0.91911002484
0.999905771773
0.999809808192
0.920722859857
0.99988355107
0.999858842442
0.927591184128
0.927336914396
0.999890205998
0.999866463604
0.925797313507
0.999831803901
0.999860132868
0.921764900383
0.926096136621
0.999804804114
0.999872296825
0.923358927946
0.999804583128
0.999800395062
0.916952653448
0.919079518977
0.999804280297
0.999801384903
0.919299748208
0.999808897433
0.999819907062
0.917729307489
0.920292258148
0.999810064804
0.999806963613
0.919711474556
0.99980459599
0.999852399468
0.921679943981
0.923563154788
0.999801052831
0.999854049618
0.921737615437
0.99980228225
0.999850560482
0.922149368969
0.923636094539
0.999799997926
0.999857552834
0.921864835582
0.999809009638
0.999832650205
0.922536022744
0.92132485101
0.999857444505
0.999807254208
0.922734790013
0.999803439723
0.999799930915
0.92384875878
0.924667836422
0.999851958893
0.999784432909
0.924330459852
0.99978971036
0.999829852264
0.922736137102
0.924581000852
0.999796182985
0.999817884611
0.923722670227
0.999790137495
0.999816932877
0.925545774742
0.925043449132
0.999790521862
0.999824772036
0.924691530899
0.999487556705
0.999663211075
0.91591195496
0.921699078402
0.999450459692
0.999701239873
0.915637155921
0.999225368436
0.998934830074
0.908091727783
0.896547200654
0.999206326778
0.998928498497
0.907090495992
0.999598726903
0.999771851162
0.922694181935
0.917898741338
0.999739320507
0.999666077033
0.916537465517
0.999394244414
0.999282818591
0.897850057913
0.909178477597
0.999129396772
0.999511279275
0.907962008236
0.998457581488
0.99873945104
0.877653656701
0.886530007037
0.998561511277
0.998658006945
0.87714175386
0.998314794065
0.998489170346
0.870552456343
0.865736209128
0.998444747627
0.99833258581
0.870398317907
0.998647242162
0.999028569068
0.88791271644
0.87938576213
0.998886454742
0.998751861891
0.878721926238
0.998452545328
0.998477807168
0.867244480145
0.873391741492
0.998432058635
0.998528665705
0.872084768066
0.9984736018
0.998510408488
0.868978402547
0.867262647829
0.998601979631
0.998371398324
0.869464937317
0.998602369347
0.998824510775
0.870952762719
0.87313704391
0.998731389115
0.998725059623
0.871224171389
0.998470491997
0.998419180896
0.868328860179
0.870535564785
0.998412545502
0.998459054072
0.870160344984
0.998573207508
0.998663857686
0.87340385036
0.872129804699
0.998690381218
0.998552545572
0.871731981604
0.998872460053
0.998872641926
0.877893186119
0.87508626693
0.99893637631
0.998800106274
0.877929664147
0.998938752493
0.998960938097
0.879257551027
0.879911238529
0.998972670215
0.998978348485
0.879387471111
0.998883187829
0.998755563526
0.875241175977
0.878346245439
0.99877995066
0.998865396154