/*--------------------------------*- C++ -*----------------------------------*\
| =========                 |                                                 |
| \\      /  F ield         | OpenFOAM: The Open Source CFD Toolbox           |
|  \\    /   O peration     | Version:  v1906                                 |
|   \\  /    A nd           | Web:      www.OpenFOAM.com                      |
|    \\/     M anipulation  |                                                 |
\*---------------------------------------------------------------------------*/
FoamFile
{
    version     2.0;
    format      ascii;
    class       surfaceScalarField;
    location    "5.9";
    object      alphaPhi0.water;
}
// * * * * * * * * * * * * * * * * * * * * * * * * * * * * * * * * * * * * * //

dimensions      [0 3 -1 0 0 0 0];
oriented        oriented;


internalField   nonuniform List<scalar> 
92311
(
0.202972034473
-0.000323120072179
-0.00034252701161
-0.20259721619
0.000290570495171
-0.000371426048399
0.203238551749
0.000233918658779
-0.000129007380114
0.202946143446
-0.000737782723138
-0.000322559572431
-0.20249503725
0.000285926542219
-0.00088499917351
0.203393726901
0.000223568376538
-0.000157600156288
0.202922345772
-0.000322173146917
-0.000413345273413
-0.00015276206418
-0.202224914333
0.000181732687447
-0.000315103454156
-0.000413619395696
-0.000419195715576
-0.000454681579874
-0.000482444629139
0.203788725179
0.000266605106616
-0.000227767337272
-0.000433918550809
0.0505495173285
-9.27310902469e-05
-0.000109192349196
-9.26348673602e-05
-0.000111302345348
-7.25842225765e-05
-0.0504672183038
7.40133573823e-05
-0.0507119757092
0.0509485573694
-0.000174337225992
-0.000148987822017
-0.00015296645032
-0.000164573058707
6.24752771098e-05
-7.72220032211e-05
6.81538758878e-06
0.00046615128873
9.88905076256e-06
5.31253232239e-06
8.63970133745e-06
-0.000245051880652
-0.000667761375511
5.82378390742e-06
0.000230877508563
-0.000296731262559
0.000157769836653
4.59270475708e-06
8.08840842953e-05
1.76998519972e-05
1.8939681169e-05
1.6934995439e-05
1.80105443475e-05
-0.000128711862721
-3.7697951908e-08
-1.27703242518e-06
-1.33357833695e-06
-1.49650487439e-06
-5.03041005492e-08
-2.39905901598e-07
-8.22192088336e-09
-1.33840741902e-06
-0.000131043446279
-0.000157288861976
-0.000161318318262
-0.000132520648651
8.49207463781e-06
-2.02469023254e-06
9.0415471418e-05
0.0114833166438
4.45457640803e-05
-4.24551575997e-05
-0.0115233513909
0.0112782340631
-1.54904504463e-05
0.000178721969818
-0.0113565154735
2.7772898277e-05
-3.21466338201e-05
-0.000143016798382
-0.000152661848943
0.0511077258998
-0.000143158809034
-0.000154286707857
-0.00014547115162
0.000124969551583
-0.00016509991437
0.0510841062437
-0.000176110087699
-0.000170739732944
-0.00017869289019
-0.0509014435578
-0.000117250914223
-1.61308204138e-05
0.000173482211732
0.0112131353002
2.03065835065e-05
-2.78914689802e-05
-5.2692862864e-05
0.0128035608241
4.29985604217e-05
-0.000169318278769
-0.0127755410827
0.0128046310755
-5.26946905761e-05
-0.000194028806947
-0.0127740948767
-0.000226122713617
0.203051811195
-0.00103363350288
0.000886719305729
-0.202678878417
0.203282293572
-0.000269308843155
0.000725678805633
-0.000499718868867
-7.50909816139e-05
0.203071316893
0.00100922531764
-0.000722812243759
-0.000362698810351
0.202965304649
-0.00107097511812
0.000864700708893
-0.202622488099
0.20346013669
-0.000521288615016
0.000680250344566
-0.000494497535826
-9.62012956861e-05
0.203171336951
0.000982664414985
-0.000672573903483
-0.000130054140535
-0.000169895256039
-0.000157837420157
-0.000856006878666
0.2026906542
0.000732501738755
-0.202353661881
-0.000118412345688
-0.000330199545603
-0.000174258372531
-0.000326537174722
-0.000131349851109
0.204006530049
0.000775411414699
-0.000552352546543
0.0505206360926
-4.119446525e-05
-2.75275079507e-05
-3.48714270876e-05
-3.42041787546e-05
-0.000192274123839
-0.050509554021
0.000188966063417
0.0511906461503
-0.000130697152582
-0.000116383604175
-0.000108391814219
-9.0928600164e-05
-8.56431207027e-05
0.000118924495731
0.000203785138068
3.5042437825e-06
-0.000413625394936
1.44677353573e-05
1.45403060448e-05
1.10106253666e-05
1.12302142732e-05
-0.00022523194639
-8.57710737774e-07
-4.87856221919e-07
-7.37126977828e-07
-8.27071378771e-09
4.57117131377e-07
-1.35843133478e-07
-4.23743472404e-08
-5.996789845e-07
1.30591366666e-07
1.49030904548e-07
4.09207342946e-08
3.44003246377e-08
3.14587538188e-08
4.65225699467e-09
1.20257386208e-07
0.000101395592483
-6.7883822962e-05
-7.06402522167e-05
-5.92309976791e-05
-7.87863609928e-05
0.0505942397017
-6.82871317865e-05
-6.06749120502e-05
-6.83251655869e-05
-5.85595569138e-05
-6.92224460268e-05
0.050532333591
0.000128266910083
-0.0504601806513
-1.48316647545e-06
2.82340311244e-05
0.0116073295954
9.86589213715e-05
-0.000105833347634
-0.0116185133151
-6.07489885502e-06
9.16331576121e-05
-0.0115614015872
6.64239798476e-05
-7.44465938734e-05
0.0115192235269
-6.32331767314e-05
0.0125866808149
-3.5020135897e-05
4.24533831403e-05
-0.0125911925786
-0.000145716123952
-6.11154973264e-05
-1.12881515244e-05
-5.58507515859e-05
-1.87783671478e-05
0.0511417077011
0.000167390655976
0.0511745841149
-0.000121336385655
-9.87129673649e-05
-0.000133542636789
-9.1956769058e-05
-0.000102163439602
-6.44807692166e-05
-3.12642762541e-06
-5.79681325806e-05
-8.07411066604e-06
0.0511308138793
-9.9840675813e-05
-4.88076905507e-05
4.02512573354e-05
-0.000133026064425
0.0128301044829
5.28626575472e-06
-1.21986248198e-05
-0.0108814221151
-2.03801259027e-06
0.0108702153293
1.31894640081e-05
-4.65433212514e-05
-0.000150459541287
0.0128330978123
-0.0128299772178
-5.23542076128e-05
0.0128101479588
2.46148279256e-05
-1.63429961632e-05
0.000196316238657
1.28854542742e-05
1.54685207048e-05
1.12779838041e-05
-0.000148214204355
0.000189488075363
5.95570273069e-06
4.40704103131e-06
2.07255829146e-05
2.56358536657e-05
2.46891124131e-05
2.03069242211e-05
-0.000337858423899
0.000169462686849
0.000136537456986
-1.8629315604e-06
-2.63554649097e-06
8.68853238903e-07
2.19377492283e-06
3.01121493748e-07
-2.89120629584e-06
-7.07674899974e-07
5.72484352556e-06
1.78748843247e-05
1.64941278373e-05
1.91777064236e-05
-9.75935933549e-05
0.000147332159666
-4.30768420821e-07
-2.4903917139e-06
1.31505041415e-06
2.06556174442e-05
0.0125864483985
-2.37041243774e-05
-0.0125854851491
-0.0125731145726
-0.000126602307428
-8.07318375084e-06
0.0125934392403
5.30841501224e-06
4.15976176359e-05
0.000129341621579
0.0114186002906
-3.76253672389e-05
8.68869869683e-05
0.0115038341226
-0.0115426973741
4.23700607639e-05
-0.0125750664815
1.6958746505e-05
0.0114409203124
4.08634149085e-05
0.0126086006469
-1.19998522837e-05
0.0126124023515
-0.000148560139389
9.36133614995e-06
-1.03290988584e-05
-2.18330915961e-05
-0.0126285896691
0.0126588120397
1.40029356833e-05
3.19853380164e-05
0.000146572485753
-3.33270501221e-05
0.000189597546904
-0.011377033739
0.011286787987
2.07404650277e-05
0.0126470467483
-2.72308207498e-05
2.34323693379e-05
3.80508102556e-06
-0.0126925682264
-0.00020168362392
4.27425706225e-05
0.0127328850314
-5.39181825669e-05
-3.64306826809e-05
0.0126977599949
2.34449182379e-05
1.07471149559e-05
0.000184764277712
0.0111388533458
-2.03231630686e-05
0.000188386496622
0.0112134207176
6.6911424793e-06
-4.50780260093e-05
0.0111301304059
-2.09314679944e-06
0.0127341550077
2.82430887029e-05
-0.000157894449826
-0.0127733383653
0.0128016631231
3.10070530587e-05
3.7857705342e-06
-0.0110688436876
0.0110011262094
-5.654010907e-06
-0.0110560286616
-3.30787941678e-06
0.0109850413857
-0.000183914715871
4.35341705433e-05
-5.47321459712e-05
9.44157077594e-06
0.000167591380061
-1.49384701097e-05
-2.00917623778e-06
2.82216168633e-05
-0.000215852381987
-0.012779852608
0.0128138772923
-4.53056733723e-05
-2.17626157413e-05
-0.0110424060603
0.0109662375183
-0.0110334024283
0.0109487800034
-2.72268695664e-05
-5.66669094377e-05
-0.000213701063242
-0.0127275446306
0.00023972442504
2.22472087161e-05
-0.0111359124173
-2.93885712505e-05
-0.0127249917739
-4.88037527026e-05
-0.0111273455943
4.14345271738e-06
-0.000334330579876
4.85505430361e-06
6.03844191982e-06
5.89764330299e-06
3.84934647964e-06
0.000716909560363
-0.00081340278932
0.000289727483564
-1.66635785128e-06
2.65438120667e-06
7.72674386933e-07
-2.48754584947e-06
0.000748916888151
2.5198783284e-06
2.59245887499e-06
1.35926441167e-06
2.53199494579e-06
-0.000358813795036
0.000343305612836
-0.000806672066991
3.83347471172e-06
4.24730604577e-06
5.61548058446e-06
4.15023971922e-06
0.000633993148588
-0.000344990467223
1.72856508401e-06
-1.41387812558e-06
-1.70450124445e-06
1.3927563786e-06
-1.76184404134e-06
1.22802795625e-06
3.2098312405e-06
-0.000439728306183
1.46274087082e-05
1.82682038813e-05
1.26358316202e-05
1.06189502742e-05
0.0001715198008
-1.61995794697e-06
-1.21461072088e-06
4.26824231054e-06
-1.48944498787e-06
5.49073505464e-07
2.15394345519e-06
-0.000201735433568
3.81569307495e-06
-1.76795765488e-05
-1.04842455374e-05
4.76710675433e-06
-0.00048357193155
0.000152191561532
-1.90565321669e-06
3.47093322535e-07
4.78604433927e-06
2.75936299445e-06
5.56076850481e-06
-3.21807424045e-06
5.96699792504e-06
-0.000472742949046
-0.000250318420762
3.46229947945e-07
3.05249433138e-07
-2.95420685268e-05
-0.0126009188847
-4.90251485256e-05
0.0126034258269
3.49615110497e-05
0.0126103424879
4.00289060449e-05
-3.67266111319e-05
-0.0126131111013
4.40936510511e-05
8.89901297193e-05
0.0115905189021
-9.5941113106e-05
3.31693283402e-05
0.0115961835369
-0.0116090304008
8.556131049e-05
0.0126128032682
-2.28427172052e-05
-0.0126056971656
4.38674527651e-05
0.0115785447526
7.58613075262e-05
-2.22957746163e-05
0.0126016364338
-7.36007277436e-05
2.99198363285e-05
-0.01261201303
8.65615316736e-06
1.64873302363e-06
0.012622997768
6.7944141961e-05
7.46673175751e-05
-8.35914610198e-05
9.81130921669e-05
-0.0115505739311
5.00765392007e-05
0.0115157159902
-1.2631031781e-05
1.77776598707e-05
0.0126121533122
6.1373771003e-05
0.0115481416822
-5.47224887934e-05
5.65301548208e-05
-0.0115692372268
8.17904538944e-05
-4.83254801309e-05
0.0115149353043
5.02494962449e-05
-2.43630842625e-05
0.012594702529
3.03245621317e-05
0.0125956224177
-6.05334562321e-05
-0.0125982676569
8.41427584056e-05
-0.0115518782559
0.0115161995256
0.0126044208366
-0.0115766171706
-0.00012611577335
0.0128292682003
3.17303592788e-05
2.25510433491e-06
0.0109455906586
9.46287466516e-07
0.0109240604245
-5.19734952687e-08
3.74659118392e-05
-7.7659769407e-05
0.0128231916947
-4.30433911941e-05
7.45649345654e-05
5.3025472837e-07
0.0109130260035
6.64549227654e-06
0.0128244045664
3.21641621399e-05
0.0108897252319
4.24416617746e-06
3.83954946267e-05
0.0128088618706
-4.64299517382e-05
-3.82201680153e-05
-0.0128118681631
-3.79314744964e-05
0.0127865083366
3.94166014675e-05
4.31095675146e-05
-1.14912109198e-06
1.28710180936e-05
-7.00513311318e-06
-0.0108627417278
6.8381411683e-06
0.010854941614
3.84116002439e-05
-3.77743581279e-05
0.0127827633118
8.09448757807e-06
-0.0128434725567
-9.17832276235e-05
3.53287257468e-05
-2.77368098937e-05
-0.000169609968845
-3.8473058146e-05
-1.42893668884e-05
0.0109022623937
0.0108795929529
-1.83318502116e-05
5.87023633934e-06
0.0108478006509
-8.98521300511e-06
-8.91892993692e-05
0.0128236535107
0.0108699715837
0.0108179724575
-3.71905727195e-06
2.26828573038e-06
-1.16775782853e-05
-3.79598685306e-06
0.0108106289329
2.76867498752e-06
2.27833703249e-05
0.0127847542621
-1.2128000779e-05
0.0128077394537
-5.51554386994e-05
-1.97956737411e-06
-0.010845819845
0.0108393665768
0.0127826896624
-3.45191727655e-05
1.63983371102e-05
8.67236689331e-05
0.00106068450586
0.203401292072
1.33175553761e-05
-0.000633707382352
-0.00014232550687
1.95026188467e-05
6.14767359544e-06
2.09865130084e-05
2.96529173407e-07
0.000179439273553
0.0510230222236
-3.48722122834e-05
0.000165951671596
1.66903938894e-06
-3.53894683412e-05
-2.97862947461e-05
-3.61126854675e-05
-0.000246485448538
-0.000444562742919
0
0
1.86663259359e-08
0
5.69245392392e-28
1.27924278829e-08
4.22241097492e-27
-0.000103899166962
-9.17723695822e-05
-9.45888781434e-05
-0.000104616588519
0.000275958943705
-3.91911984047e-05
0.0506180279991
-7.30596513349e-06
9.97022027588e-05
-4.20145269352e-05
0.011470442722
0.0509990039355
3.17307716048e-05
1.43730517659e-05
1.12489104105e-05
3.7139430192e-05
-8.88037051671e-05
0.0508573437059
3.4716685249e-05
5.42103072691e-05
4.6013226312e-05
3.79995354522e-05
0.000161659407313
-0.000106169529443
-2.88240690801e-05
0.0108538078165
-3.47302068565e-06
1.28265036554e-05
4.66756146094e-05
-3.09725391316e-05
-4.12106847848e-06
0.0107972578774
2.0104455633e-06
0.0108076206064
7.81845837754e-05
-7.10288099993e-05
7.37473129408e-06
-0.0108135421596
-1.42538328449e-05
0.05073492078
2.69937673261e-05
4.1624359878e-05
3.1923395124e-05
3.94957238812e-05
-7.71323642045e-05
0.00019009197434
-0.000130516480774
2.23623000984e-05
1.96462655246e-05
1.48266566612e-05
3.04678646926e-05
-6.97167331768e-05
0.000210320626953
0.0506664134207
-0.000159337282556
8.13190209731e-05
-5.90665214415e-05
1.24308382976e-05
0.010789466009
-2.43600985519e-05
2.04798223913e-05
-1.21388669865e-05
1.77917477812e-05
-0.0107805763324
0.0107748415939
-2.07101091911e-05
8.38053315427e-06
1.00369082122e-05
1.09510383436e-05
-0.000263917827143
0.000537255674572
5.63572599169e-06
-0.000401695888085
-1.82873486885e-07
-3.5248211975e-05
-5.35634083537e-05
-4.19178957621e-05
9.01123664595e-05
-1.54668290998e-06
-0.000196890351217
-5.909863367e-05
-7.19639390092e-05
-5.8628068402e-05
-0.00012527142503
6.84318545762e-05
1.03820452582e-06
1.81859091366e-06
3.40162563327e-07
3.22062711675e-07
3.77875865118e-06
-2.05239525734e-07
2.36337516358e-07
1.79848295327e-06
-6.45101154949e-05
-5.52591689918e-05
-7.12336330471e-05
-4.8545519969e-05
-0.000118678374834
-7.13145186359e-07
0.000107943518998
-1.76404298508e-05
-2.82314798237e-05
-1.87980177131e-05
-0.000169138751729
-6.83811876073e-08
-6.58165106801e-05
0.000191993241289
-0.012609877391
-0.000132356524313
7.76658145821e-06
1.9992578778e-07
0.0126310252959
-1.86228128284e-05
0.0125981558364
0.000107315675455
0.0114715134695
-3.88456798242e-05
-3.43589191334e-05
0.000130237176444
0.0114084218119
-1.0852200655e-05
-2.78260191645e-05
0.0114137926031
0.0126203785882
3.80191193216e-05
-0.0127583691419
4.79481745657e-05
-3.38646957875e-05
0.0127253694763
0.012759513394
-3.87003749445e-05
4.20323546323e-05
-4.52546063891e-05
-4.50481300313e-06
1.22133849869e-05
0.0108675158385
-2.09200318925e-05
0.0108414908936
4.5887712887e-06
4.43132770404e-05
0.0127286104121
-3.54829146376e-05
2.75511710495e-06
0.0108551536207
-0.0127584414866
4.83713598829e-05
-1.70107963925e-05
0.0127248702734
1.79990424669e-05
0.012757179611
-7.30733005003e-06
-1.77860152779e-05
0.0108244350904
-2.95952779295e-06
-6.21606162401e-05
0.0108171836047
1.74298875934e-06
0.010840318058
0.012723030466
-7.97855449008e-06
0.0126969787542
4.54062354709e-05
-1.67880170861e-05
3.42566607563e-05
1.97524917088e-05
-0.0126951960508
0.0126715616751
-1.27997083311e-05
-5.07914913024e-05
-0.0108328656279
0.010824044737
6.8720613831e-06
3.43876548542e-06
-5.8122256436e-05
-7.93420108305e-06
0.0126743750207
3.78632704834e-05
2.6691834488e-06
-8.80004754854e-06
-0.0126528412789
2.09915274856e-05
-2.38951045835e-05
0.0126410470731
4.17756060879e-05
2.18097104469e-05
0.012647287285
-1.51004014852e-05
-3.61662405068e-05
0.0108075862918
1.19694684462e-05
1.85459066708e-05
-4.76255837121e-05
0.0107702958809
-2.56313487855e-05
3.92309038627e-05
0.0107913933775
1.59067789631e-05
0.0126329501368
-1.77133039451e-05
0.0126316923908
1.47910375522e-05
-3.1489147052e-05
4.85561420724e-05
3.81890303566e-05
-0.0126229258738
0.0126203315186
-2.80411443346e-05
-5.49858210006e-06
-0.0107888059448
1.55486260298e-05
0.0107738619166
2.01274181531e-05
-3.21692737478e-05
-2.61690024359e-05
5.25453469531e-05
0.0126266865906
1.65230859891e-05
-2.29187971238e-05
-0.00060658459174
-0.049553896701
0.0494969487282
0.000775754458435
-2.60670266909e-05
-4.61375906623e-05
-2.77318513989e-05
-5.17713383455e-05
3.94016507288e-05
-0.000837614919858
0.0500157156193
3.12903140308e-05
-3.46902398869e-06
1.83647315654e-05
1.54755079503e-05
-2.71361100095e-05
-0.0499280284806
0.000715603736817
-0.0011562447169
-0.0500920338468
0.0502120847412
0.000911659635224
7.14108326016e-05
5.16609099434e-05
5.89815732292e-05
6.4759790995e-05
-0.000122242496386
-0.000672951766108
4.97568355551e-05
5.71325643267e-05
5.86991242631e-05
4.44385679787e-05
-7.55443536552e-05
0.0503134446985
0.000478890911171
-0.0502538636325
4.74177807466e-06
6.02014066809e-05
-0.000667884498994
0.000616169734086
-9.62932300186e-05
1.9454170163e-06
2.53973500836e-06
2.60897940425e-06
1.11548139029e-06
7.30264605508e-07
-0.000601763683063
0.000666178186182
-0.000137845042363
-6.79643229929e-07
1.48338889902e-06
-7.17909806403e-06
-1.87676324911e-05
0.000124764042179
-2.71068834304e-05
8.12706358013e-05
0.000561880441786
-1.25643631226e-06
-5.11206256208e-05
-5.2059694457e-05
-6.35556826685e-05
-0.000536521613141
2.62583811901e-05
-5.33182216898e-05
6.45973295984e-05
-0.000652645759959
0.000783300622308
7.97545482994e-05
-2.83607546021e-06
-6.86400316153e-05
-8.88746979794e-05
-9.48396042675e-05
-6.53742203533e-05
-0.000236216020164
-6.7159778049e-05
-4.46426896989e-05
-4.45699951754e-05
0.000729390243436
0.000323464737958
-2.25956641805e-06
-0.000635428704103
5.77379038762e-08
-4.44471362075e-28
-3.8721993869e-09
-7.89848841602e-09
-1.08378333766e-08
-5.69274515021e-09
1.64341741847e-09
-2.82571070151e-11
-2.80973007887e-07
-3.2460352838e-07
-1.18153217783e-06
-4.69836824988e-07
-1.18503381983e-06
1.71713046694e-07
-6.13499143371e-08
0
0
6.62793995794e-09
8.05964668344e-09
0
0
-1.46875866414e-08
-1.16267968908e-07
-1.3076012272e-07
-3.90880386009e-07
2.10963883967e-07
8.83925677447e-08
2.1638349552e-07
2.23598052177e-08
4.05199151098e-09
2.33469947306e-07
3.4650197277e-07
-7.5460923503e-08
-2.55574459339e-09
4.77540098038e-09
1.41851735898e-07
1.18449838485e-07
1.8457007162e-07
1.87064532108e-07
8.41869896032e-07
-3.25415902183e-07
0.000189223382276
-2.36192252778e-05
-2.91078080677e-05
-2.85900329781e-05
-2.48580721034e-05
0.0491189742799
0.000172907119755
1.54492532496e-05
-0.0493904426953
0.0492138365536
0.000393278741393
-3.37548869838e-05
-4.66039505936e-05
-3.83307367972e-05
-4.9703155348e-05
0.000185930391703
-0.0494355397907
-2.959727544e-06
4.20814084024e-05
-0.0117149623619
1.62235275173e-05
0.01167897781
1.25415035408e-05
0.0116520023091
8.5945909128e-05
-5.75418565757e-06
7.84374258042e-05
-6.46816644636e-05
-0.0116925762709
-1.85918960218e-05
-3.53209858412e-05
-2.2834647232e-05
-1.87528714876e-05
-0.000311140100171
0.0123174825204
0.0122750061276
0.0121873848744
0.0122261855057
7.72946820639e-06
0.000108786858697
-6.36128837871e-06
7.52736506335e-05
-8.27649623911e-05
0.0116085468094
0.000564472444748
-7.18153153786e-05
-6.042048036e-05
-6.21327927291e-05
-6.71841092029e-05
0.000132175069045
-0.0495955048157
0.0497304027762
-6.03629922143e-05
-4.49686887813e-05
-5.20864683668e-05
-5.84829395736e-05
0.000110851994057
-0.0497271364344
0.000666483390885
0.0116037326503
-6.46995009861e-06
0.000100578338279
-0.0116411140864
9.12645391425e-05
0.0114811281708
-2.20138476407e-06
4.36845241834e-05
-6.14720692726e-05
-0.0114910467898
4.73653767389e-05
0.00103278381534
-4.75777327528e-06
1.43831399992e-05
-2.13139502897e-06
1.08542490457e-05
0.0494339782015
-0.000226011108365
-0.000185745184933
-0.000227744748743
-0.000181958844061
-5.79877661327e-05
-2.99397739652e-05
-4.53108335094e-05
-3.34142304231e-05
0.0497595348898
-9.12176796003e-06
-3.41511788206e-05
-3.74946894299e-05
-4.71621965059e-08
-1.01128594649e-05
0.0498789189735
0.000973531301208
5.53293872125e-06
2.7645964447e-05
1.23480050026e-05
1.87361853738e-05
-0.000124434546047
8.20473643426e-05
0.0115698349009
0.000113011023356
0.0115328551386
4.35152687864e-06
4.30340581462e-06
-0.0115429259393
0.000154127918378
-0.000152586555788
6.42707584786e-05
7.4861239109e-06
3.58995929679e-05
-8.1314787045e-05
0.0114641324236
0.0114303510529
0.000102530763327
5.85248738811e-05
-3.48108392909e-05
-0.00012984587955
-0.0114317719681
0.050004833771
5.06307176507e-05
5.02319266369e-05
4.22140473352e-05
6.09192130041e-05
-0.00124044624417
-0.000245629345191
0.00131566097286
7.04843021184e-05
9.06315643704e-05
8.23000490794e-05
7.8215368872e-05
0.0504428562249
-0.000437271636534
-0.00163791468392
-1.63035969272e-05
0.0115319068147
0.00016720043468
-0.000157214019635
-2.71756174997e-06
-3.05788507395e-05
-0.0115701459027
0.000181154671082
0.0116124118058
-0.000180070718484
0.00012273439608
5.52305514945e-05
-5.84261701418e-05
-0.00014869631388
0.0114521318854
0.000147774176994
6.75112167469e-05
-9.79695936122e-05
-0.000166743703491
-0.011487804736
0.0115142021735
0.000809297710342
4.59731638026e-05
3.9375679088e-05
3.64303808057e-05
5.62758450025e-05
-8.99097653901e-05
0.050187835814
5.48629914428e-05
6.07784888215e-05
6.19686119818e-05
5.48277420678e-05
-8.23797459455e-05
-0.0501438543129
0.000615248789862
-1.17734552809e-06
0.011447381739
6.12451502797e-05
-0.0114726464569
0.0114232660569
4.49473116461e-05
-5.57089485541e-05
-0.0114170715051
0.000102432807494
0.0114471460983
5.84425157119e-05
-9.06644810949e-05
-9.84023867219e-05
-0.0114365514381
0.000110280320503
0.000988306675319
8.71829145787e-05
8.47106228174e-05
7.65133762828e-05
9.62888630294e-05
0.0504154296653
-0.000220675390446
0.0502879044049
7.50036131505e-05
6.82827026115e-05
7.04029309019e-05
7.06674894881e-05
-0.000145630437267
9.07285228034e-05
8.90883816467e-05
8.24326238354e-05
9.8822608603e-05
0.0503984519145
0.000711521217191
-0.000194859562085
-7.14567789111e-05
0.0114427603483
0.000117358413325
6.82362205212e-05
-0.000111008685014
-0.0114673985421
0.000143678621702
0.011492773171
0.000116696994909
7.29313720217e-05
-9.84306987283e-05
-0.000108196917444
0.0114571506756
0.000150293482987
7.67073952986e-05
-0.000119226357918
-0.000142948092231
-0.0114782053071
0.0114955638951
-8.9688374029e-05
0.0114681646697
0.000124336420826
-0.0114600665686
-9.46736920494e-05
-0.011493805692
0.0115090714546
6.78613457489e-05
0.000148861742928
2.47122525038e-05
2.13611708478e-06
2.77279631044e-06
1.53049942128e-06
0.000709899157187
-5.99567207558e-05
-0.00071565743245
1.20306933943e-06
0.000700504520886
-3.3723818779e-05
3.6890044173e-06
4.21163309715e-06
2.07663365685e-06
-0.000715598329028
1.82883355049e-06
2.21306415136e-06
5.33418787369e-06
5.17982057242e-06
6.11301148263e-06
-1.12976702034e-06
0.000672232284248
5.36689364511e-07
-6.96342848743e-08
-1.98902960279e-06
7.58952059892e-09
-1.31514429875e-07
-5.49820555185e-08
1.18322478036e-06
-1.85411299565e-06
-4.95490871618e-08
8.91957954957e-07
-2.9809023395e-07
-2.87937237658e-07
1.7731842658e-06
-3.06585187703e-07
-1.80361216352e-06
2.45219661292e-06
-3.38740758181e-08
-1.16844645713e-06
-2.45010380034e-07
-9.05543162643e-08
3.45261195167e-06
-6.32793394113e-07
-8.74864979348e-07
3.71925423462e-06
-3.32201675757e-07
-1.08608781151e-06
-5.92005573282e-07
4.01630426577e-06
-6.41594723171e-07
-9.45321249031e-05
5.82797285266e-06
6.8616122063e-06
6.90730349069e-06
2.15395437867e-06
-0.000708407319805
0.000593393184838
3.24450309715e-06
3.92124467808e-06
5.31391150863e-06
-0.000636674519656
6.58224512697e-07
-7.93758825112e-05
-0.000127664374361
1.46894684611e-06
8.04656738739e-07
-1.59429352307e-05
-6.2981284097e-06
8.58785764874e-05
0.000546701956291
9.03737181593e-07
-2.9235999378e-06
-3.68938202842e-05
-2.04700615962e-05
-6.35366882296e-07
0.000582048725662
-9.32191560962e-05
-1.5505135004e-05
-5.94043364108e-05
-1.4456600981e-05
1.6083361318e-06
-4.57026928717e-07
-7.9800047905e-07
-2.74557315378e-07
2.46629067947e-06
2.48263272553e-06
-3.60746491034e-07
-1.61230435143e-06
2.77195805494e-06
-1.60784259689e-07
-0.000150255636824
8.37116264429e-08
2.62792252366e-06
3.10810176023e-07
-8.97981651179e-06
0.000689522788334
0.000114948717601
0.000714007964684
-2.42913044547e-06
-2.04861093586e-05
-6.91584064055e-05
-3.22247475336e-05
-3.3912767299e-06
-6.78304559847e-05
-2.3503996325e-05
-7.30349060127e-05
-2.83479784563e-05
0.000808897573671
3.49969422884e-06
-1.05750387755e-07
6.53642799144e-08
3.95136749879e-06
2.7468600762e-06
6.15513394308e-08
3.95364371005e-07
3.55181892694e-06
5.11520425578e-05
-2.2944411599e-06
-5.93150460346e-05
-8.07126996464e-05
-7.66865552429e-05
-2.33736931459e-06
0.000686366726927
-7.29097847133e-05
-6.55606304326e-05
-7.14097420715e-05
-0.000583435632019
0.000197482531503
2.65219543202e-06
-2.2471916912e-06
-1.75449275173e-07
-8.23236922419e-08
2.83981109593e-06
2.7751534899e-06
-2.49781298056e-06
-5.47274512529e-08
9.46515239964e-05
-3.74597849724e-06
-7.27390968616e-05
-9.36922668907e-05
-8.59056759798e-05
0.000922255099094
0.000814578978975
-2.65403026244e-06
-8.82284739134e-05
-7.89049181907e-05
-9.0747750224e-05
-3.0556918376e-06
-9.64195446041e-05
-7.52131087837e-05
-8.62531133668e-05
0.000944713830339
0.000273279989013
2.49904327356e-06
7.21411733168e-08
1.99101638595e-07
3.04021814424e-06
2.5364581527e-06
-7.3689394324e-08
2.759942673e-06
-1.45579300707e-07
0.0123653403769
-2.47764649548e-05
-1.07767367777e-05
2.93316181247e-05
-0.0123826957703
1.47945542751e-05
-0.0123622050332
0.0123444088132
1.62004452064e-05
1.78401216477e-05
2.75194673599e-05
7.31532583463e-06
-0.0117385518445
4.20944124986e-05
-0.0117317692073
4.3136435812e-05
0.011696572491
4.40004630482e-05
0.0123496853353
3.9482774757e-05
-0.0117553811715
1.21520186628e-05
-0.0123824723934
0.0123773577019
5.17861852258e-05
-4.3575556907e-05
-0.0123899915991
-7.37162415907e-05
-0.0123985381717
0.0123985112736
0.000105853312205
6.03601432178e-05
-0.0117243999422
0.0116841978177
7.25210613605e-05
-5.27924387035e-05
6.42396293268e-05
-0.011726113845
0.0123698050582
7.92635092527e-05
-0.0124030383314
-0.0117525776949
-0.0123652595579
0.000130954904475
-5.17610355868e-05
-8.42668298986e-05
0.0123519469829
-9.96943883642e-05
0.0123979170903
0.000140677000395
6.12518880183e-05
0.011645408934
-5.06376011249e-05
4.59958452675e-05
-0.000105399104979
0.0001314322219
0.0115793105026
-5.63810039933e-05
0.000171539193638
0.0123847846883
-6.28694497949e-05
0.0116074568218
-0.00011559895655
0.0124604451216
-0.000114208768562
0.000146992778463
-0.0124488939746
-0.012429011261
0.000143811533743
0.0124316110809
0.000102363353295
6.66987338101e-05
-0.0116779855193
9.92863578132e-05
-0.0115866951705
8.37585017308e-05
0.011546444822
-0.012424807984
0.000171767514029
0.0124650507253
5.65435261289e-05
-0.0116299338028
0.0124884193234
0.000173638622204
-9.81012366356e-05
-0.0124766049979
-0.000189509583039
-0.0125078949062
0.0125050973113
0.000191262666034
6.94974822864e-05
-0.0115423983992
0.011517141892
7.54040310465e-05
-4.21234312216e-05
-0.0115297634561
2.88508636021e-05
0.0124885887984
-0.0124989978219
0.0001819951967
-0.0115800106593
-0.0002010155016
-0.0124592666746
-3.05469610974e-05
0.012448056515
0.000217206702484
0.0124322912608
0.000176333789467
4.25257533039e-05
0.000132550908417
0.0115558655864
6.62938206685e-05
0.0115159242917
0.000103390506588
0.0124179966131
0.00019694864686
0.0115107710097
0.000122679999213
-0.000228847938023
0.012448046916
-2.05400350591e-05
0.000244767674079
-0.0124137272176
0.000260240219497
0.0124080807479
-0.000235839317891
2.43088398205e-05
0.000140604021933
-0.0001385489113
5.47289454869e-06
-0.0114996802884
0.000142139001788
0.0114890846469
-0.000202173443834
0.000273746482972
0.0124513603334
0.000130003316458
-0.0124821882451
0.000227911827776
-1.47518735344e-05
0.0124771709671
-0.00021254431293
0.0125033808349
0.000216058637923
4.6915887232e-05
0.0114912139266
5.58338016863e-06
-0.000101769643539
0.0114452701785
7.48948096354e-05
0.0125060813616
0.000231059364152
0.0114831830123
0.0124791597165
0.000257608385896
-8.69968672336e-06
-0.000281916149616
-0.0125066786272
0.0125105385493
0.000271360198287
5.56698232391e-07
-0.011476766519
0.0114723687025
-2.21308797777e-05
-0.000117751756938
8.8053762946e-05
0.0124844773497
0.000253816864651
-0.000332252516791
-0.0124546688045
4.59624917753e-05
0.0124613281823
0.000336549674565
-5.72160158703e-05
0.0124092188769
0.000296082855138
-4.04974702724e-05
-0.000272936091815
-1.99452545473e-05
0.000174933408525
0.0115439145066
-0.000164753955935
-2.69099069937e-05
0.0115091879004
0.000161198941837
0.0124236467547
-5.38629408633e-05
-0.00031280278251
0.00030607159595
-4.03345992588e-05
0.0115233373354
0.000170713539127
-0.000362595420642
4.92366476516e-05
0.0125093398753
0.000368780977776
-0.000104184328021
-0.0124892803978
0.000381872947523
0.0125668157332
-0.00037180627815
-0.000118014260256
-1.77896399003e-05
0.000181810130232
-0.000175276877702
-0.0115488396843
-4.99088786087e-05
0.00018146512017
0.0115834852427
-0.000341123596974
-0.000104698538686
0.000177676134644
0.000392428972599
0.0125660661495
-0.000117385406068
-0.012490112192
0.000331309303749
4.62180617558e-05
0.0124996028866
-0.000309207479557
0.01251881048
0.000293128913713
-3.3649100192e-05
0.0114918437446
-7.39495109331e-05
-0.000158641233436
0.0114677877389
0.000135533448482
0.012528091559
0.000308895283359
0.0114962474134
0.000354259353749
5.72591956413e-05
0.0125270897114
-0.0125428683652
-0.000371286200982
0.000340615214828
0.0125656504579
-0.0115187855954
-5.86290725074e-05
0.0115565702946
-9.46873214276e-05
-0.000164229652296
0.000142654319561
0.000326615374751
0.0125676238674
-0.000216159963418
-0.0125410347284
5.60829537416e-05
0.0125415893807
0.000190718767869
0.0125267610551
0.000206610035426
-0.0125221406439
-3.4396107727e-05
7.0498198469e-05
0.0114277520645
-3.56206596555e-05
0.0114312507588
-0.0114561818442
6.15712932408e-05
0.0125257538897
-0.0125366626369
0.000181895403911
0.0114211408487
6.73414526277e-05
-0.000235429439908
0.012542599351
7.61898352284e-05
0.000204280275714
-0.0125262534817
0.000250944551521
0.0125307320144
-5.45194405454e-05
8.54974191486e-05
-8.96424312847e-05
-0.0114153713472
9.4247280219e-05
0.0114199812588
0.000215060597317
0.0125452771327