/*--------------------------------*- C++ -*----------------------------------*\
| =========                 |                                                 |
| \\      /  F ield         | OpenFOAM: The Open Source CFD Toolbox           |
|  \\    /   O peration     | Version:  v1906                                 |
|   \\  /    A nd           | Web:      www.OpenFOAM.com                      |
|    \\/     M anipulation  |                                                 |
\*---------------------------------------------------------------------------*/
FoamFile
{
    version     2.0;
    format      ascii;
    class       volScalarField;
    location    "5.9";
    object      p;
}
// * * * * * * * * * * * * * * * * * * * * * * * * * * * * * * * * * * * * * //

dimensions      [1 -1 -2 0 0 0 0];


internalField   nonuniform List<scalar> 
28582
(
17105.3230642
17102.6859847
12207.8594882
12204.7056417
7311.14966974
7306.10789063
3642.04410287
3634.51110119
20.1956238065
26.5797312629
-27.4332296367
3638.90849703
630.130448681
630.619171986
3629.59238082
3629.52425339
629.80843541
1788.57080494
1787.88426226
17107.2107854
17100.6844981
17099.7016887
12209.7209176
12202.2252701
12201.2264388
7313.19025011
7301.75514155
3642.31116951
3626.11649065
28.3798547506
-27.2269942856
-27.1364847235
3641.72495488
3642.57870403
625.656659934
628.507750381
1808.55704606
3624.45749238
3625.39742764
3623.51680713
1785.42485164
625.721628287
1784.48845417
1781.55850638
22.5502068879
26.6039680426
-23.1019365051
-23.1122985117
24.6790743715
-23.1321597577
1808.61164483
1808.62973346
630.863313181
629.827250872
1809.49088119
630.820465164
1807.5367594
1806.79490156
1803.01352691
631.023441841
630.932327615
1803.9816342
631.272459471
1805.61451703
1796.61762096
1799.95120204
628.663741038
629.963668982
1800.59192022
628.755062577
1796.36755475
1788.95709957
625.720654498
625.534920889
1792.59412141
627.206132044
627.156215727
1792.7159537
1786.93396501
625.06950572
624.736018007
1792.37899816
627.123942669
1792.07096221
627.004392416
18.8839464833
-23.2179684424
17.0857405646
18.9263139796
-23.2220366853
-23.2014800084
28.6255220163
-23.0542509215
-23.0522582313
30.7716823158
-23.0742679622
30.4716345411
-23.0605769717
1807.78159595
1807.18242701
626.611245412
625.983011915
1807.29921726
1807.63975658
626.981899017
1807.73182724
1806.92631727
627.613108528
629.007212543
1807.21102932
1807.53750696
627.959558464
628.117796596
629.181105388
1808.51916785
1808.2637034
629.402295014
1808.09930265
628.362901709
1785.97097045
624.400784981
624.158165668
1783.7216899
623.814494242
1784.32104333
623.597682302
1783.48986287
1784.804017
623.886663393
625.412485306
1784.04282186
1784.48332299
623.631975157
1781.59353506
1783.21934658
623.487106344
622.767149847
622.024124767
1782.79791467
622.952697028
622.391171208
624.854453127
1782.73878017
1782.70290906
625.216351063
1783.88383334
623.107976785
7301.17457974
3624.77988652
32.7754557987
-27.3392323035
3641.17193879
630.247245658
3623.98096916
3626.51882751
628.368064942
627.932984557
635.561552214
3628.81797218
3630.75078664
637.951687262
641.949692555
21.0162946255
33.2486891519
34.7414213024
-23.1165850456
-23.1271656379
-23.1416777804
36.2369029059
37.0399332932
1806.49875724
1808.06460011
630.312816575
630.915586104
1807.56363368
630.952584721
1806.94232072
1787.37473122
1785.87748053
630.834023959
628.268161366
1787.76693826
1785.55271407
630.748005782
1786.89059526
1784.00605373
628.201193682
630.708394554
1784.86597703
630.744565841
1786.27559522
1789.17525
1791.17380994
635.342710052
633.226384198
1791.4448636
633.097293879
1788.75329026
1795.25804413
1793.25665293
637.53823771
639.877683049
1793.43568193
639.317760564
1795.0857251
1796.41969222
1796.73777496
641.609286625
641.09888471
1796.88736235
640.731389778
1796.2619666
3652.54766014
3645.44210551
3644.58253914
3643.10616558
10.4089271261
12.3086176718
14.4304994224
15.225005934
14.4869883074
-26.995930173
-27.2227823247
-27.0210226912
-27.1973299535
-27.1065272064
-27.2112793502
3657.84566156
3656.56093492
623.014361337
622.4616015
3656.8503407
622.049720909
3652.95083954
3649.1677922
621.290619008
619.439070259
3652.24417465
3648.37525871
3647.92622897
620.763483163
623.03102794
620.084139384
623.226013542
3646.9494825
3644.79010764
623.681446992
622.208011949
623.213483568
623.437102043
3645.1774864
3643.84707757
620.37961498
623.41048093
622.457756205
3643.80628197
3643.60112507
3643.32273198
623.295114144
623.596926678
622.601244968
623.394151408
621.976774142
622.955760389
6.68617290236
7.1645362745
8.64969023605
-23.2607543799
-23.2619559127
-23.2569905423
-23.2640846168
-23.2768929006
-23.2130213221
-23.2847472264
-23.2230244004
9.33138058509
11.5530911923
11.4915020966
12.593692969
13.6766650632
-23.241318391
-23.2589662888
-23.2396146083
-23.265191982
12.8415331641
13.8438327656
14.4411355416
-23.2901071549
-23.2392935175
-23.2832483653
-23.2429159236
15.430385447
15.3901550646
-23.2346279139
-23.2541420868
-23.2487666854
15.5346583153
15.3681587637
15.5837028621
-23.2778588797
-23.2466385733
-23.2823536745
-23.2544516313
1820.63706225
1819.91039531
622.398213141
623.505018861
1820.32040042
622.841953247
1820.15987215
1819.995177
1817.48974766
623.245886768
622.458224982
1819.4771336
1818.26482567
622.848965867
1818.28322505
1816.71117755
623.101418742
621.822112927
1818.77143117
1816.34184059
622.849647456
1813.17651632
1814.80973156
621.802986483
620.2068896
1815.87771566
1811.98739553
621.181146536
1810.59890312
1808.19288823
619.69133556
619.145692788
1809.74357281
1808.40729977
620.236274339
1812.20848219
1814.18682351
621.108882292
619.987292909
1814.13079709
1811.65955153
621.044879052
1812.82344827
1815.0613641
622.05402333
622.955153024
1814.65254502
1813.08919159
622.130778223
1810.62389538
1808.5544605
619.901847789
621.168547189
1809.94186842
1809.09205552
621.137191781
1811.01022094
1809.46066983
623.085769157
622.648795492
1811.22569051
1809.2807453
622.481180336
1812.00962016
1814.87931557
623.561773855
623.665039676
1813.91163959
1812.89577239
623.54476047
1810.55490976
1809.64637967
622.856127001
622.699240656
1811.98998518
623.204913485
1808.93440742
1810.37340979
1809.3494725
623.342879242
623.337445399
1811.02984198
1808.98620453
623.404061606
1809.3901735
1807.63852987
623.095297519
623.60037215
1808.39641875
623.36393973
1808.31534916
1806.57611765
1807.44781184
621.667955244
620.286483185
1807.6283465
1806.09184547
621.813389151
1806.97938507
1808.13195631
622.94988286
623.298680594
1807.93619766
1807.19883401
622.970113685
1806.29301889
1806.05504468
622.953448997
622.074082041
1806.53091779
1805.79624912
622.630770024
1807.25850156
1808.10395027
623.390451658
623.184281257
1807.98247647
1807.23614981
623.440406199
1807.13990004
1807.14089152
623.63126464
623.814966179
1807.65160764
623.733621727
1806.84450783
1806.79341483
1806.24634621
623.00069056
622.902761964
1806.66462295
1806.42080904
623.302428207
1806.79249544
1806.39538849
623.74849348
623.191808204
1806.46601947
623.60686798
1806.6296601
1805.79747443
1805.88526419
622.261012365
621.291887217
1806.0485764
1805.66600817
621.617735461
1806.16453226
622.692518416
1806.15399966
17104.4677215
17102.2055049
17100.8043734
17099.3496962
17099.2852718
17101.8107344
12206.9315877
12204.2917053
12202.4987719
12201.3406052
12201.7248221
12204.2036456
18321.861642
18324.5091171
17094.7212912
17097.8981724
17100.166466
17101.9846122
17105.0668355
17100.1907717
18322.8616793
18325.2659899
17100.4089909
17100.3253629
17100.7602915
17101.2017031
17101.3703893
17101.4248085
17103.2076114
17101.3175906
17100.5297987
17100.4248624
17100.0263751
17099.9596773
17100.0327798
17101.2678042
17105.7643585
17103.1334874
17101.7064833
17100.9509238
17100.5166291
17100.2035269
17100.1584862
17102.0146829
17100.1106135
17099.6968267
17099.5103891
17101.8488667
13421.9445895
13424.7078453
12200.6000234
12199.7743984
12200.1060262
12203.3373858
12207.9698136
12190.2199287
13425.4193373
13427.067864
12204.5898382
12202.8147837
12201.6625172
12202.2985117
12202.8584395
12197.5532762
12205.1817992
12204.2748737
12203.429544
12202.2504951
12201.1000593
12201.2814645
12201.2741028
12200.842047
12208.1739729
12205.8444064
12204.1534143
12202.8554787
12202.0708799
12201.9794083
12202.1369301
12203.5044367
12201.6908288
12201.6450376
12201.8484359
12204.1129565
8522.57551748
8526.54041608
7305.13635664
7301.25197833
7299.82988639
7304.03591008
7309.64882409
7289.06468069
8527.16559028
8530.43867555
7303.49410249
7300.37147338
7300.26959219
7302.81428678
7303.81488167
7296.11097412
7308.59601176
7307.72033539
7305.67036151
7302.03718884
7301.01895443
7302.43506652
7302.07142011
7301.0664652
7314.06235145
7311.6368755
7308.93474701
7305.62553657
7302.46788264
7301.76681125
7302.95034806
7303.09608998
7303.87377416
7309.91876913
7305.7577184
7302.33399794
7301.81917662
7302.91543369
7303.06455825
7304.90199872
7302.47033186
7302.91728013
7305.25090132
3627.40416753
3633.07196233
3637.28022183
3630.4436533
3623.21810553
3628.36922977
3635.50795914
3639.0534744
3629.7455501
3630.50635795
3635.37145728
3635.16708476
3626.20287756
3622.51172372
3627.81644164
3633.13283871
3631.38260694
3642.50479083
3638.19757591
3635.99205297
3637.63986718
3636.27222185
3626.68687726
3622.47397787
3628.17354952
3632.37439948
3631.36312273
3641.12036029
3639.92925433
3639.44049186
3635.35114152
3626.78343426
3624.24185621
3629.46545401
3632.98599196
3632.78630917
3640.42581143
3634.20590666
3626.70716459
3625.4238973
3630.00702324
3633.04972072
3633.03497708
3629.22750482
3632.47222628
3633.1689948
18.8779529101
20.0820843566
23.4209746571
32.4249761885
36.3123920085
42.3825295584
45.5249713757
46.7193598774
13.5321848881
15.4052269649
18.1866645049
20.0219812145
26.0930078262
34.6270229522
38.1568243937
42.6452186975
46.1261944971
47.1219916675
15.9257875351
15.3918585477
16.0611695438
19.0051755725
25.3900480658
32.6362366236
37.5607132096
42.428044353
44.328916654
45.742418687
15.3386331198
16.2643188952
19.7883945201
26.1034889927
29.7841839112
34.0373357389
38.5648280279
40.2097949586
42.9775390937
21.1338045801
25.8213500688
28.2793244675
32.8075671815
35.3583163843
37.0546737959
39.3129565257
35.4165043736
36.6977237543
37.1005940442
-27.1208088491
-27.1574516898
-27.1987244044
-27.1620250666
-27.3307567817
-27.491090944
-27.5309893065
-27.1774518732
-27.3543018249
-27.8472623109
-27.1308675742
-27.1465089447
-27.1737172887
-27.1262306807
-27.4137873911
-27.6050699081
-27.9036130345
-27.2074015349
-27.4011414566
-27.9174531465
-27.2389008838
-27.0986148249
-27.1372514791
-27.1038400646
-27.1708439416
-27.2429532864
-27.7952801163
-27.1453110479
-27.3879832828
-27.7620488714
-27.0709732415
-27.114812491
-27.0715855524
-27.1675356364
-27.1922200474
-27.7190161198
-27.1184861148
-27.3556984415
-27.6747099201
-27.2814274254
-27.4418590498
-27.5695916385
-27.6643083829
-27.1512871244
-27.3167801918
-27.7089767516
-27.0985195161
-27.2474220157
-27.6978979068
18323.4805838
18321.5469259
18323.507484
15872.2632589
15874.2130066
15872.4965582
15874.2801061
18324.7990316
18324.9389574
18325.4207385
15875.5653354
15871.2905314
15875.2381889
15873.6625121
18324.0077377
18325.1397662
18324.9038856
15873.8939411
15875.3588847
15875.94987
15876.254211
18325.4514992
18325.5146377
18325.7692216
15876.2995975
15875.77913
15876.9594884
15877.4677934
13423.6840908
13423.1302849
13424.4588234
10971.767518
10973.8949553
10973.3427449
10975.1203831
13424.7356091
13424.895096
13425.8087192
10975.113932
10975.096357
10976.0963352
10975.8303705
13426.5555441
13427.0936923
13427.5154811
10976.2009126
10977.6798066
10978.2395345
10978.4436497
13426.7129182
13428.0558148
13430.9487656
10978.5598101
10974.5807683
10978.6275855
10980.9795422
8524.97664844
8524.44941819
8526.46471743
6074.49171775
6077.23478434
6076.2842465
6078.45606004
8527.18623896
8528.03151219
8528.77242268
6079.30313814
6080.8448078
6080.30121047
6082.69464879
8529.00276424
8529.42032265
8529.91261947
6078.62441459
6080.73138727
6080.8343882
6081.98205524
8527.14110909
8530.35252656
8531.86054048
6082.27180118
6082.06634068
6082.96086248
6084.43468113
3624.50977541
3626.67771842
617.044747994
618.513786547
3630.26327413
3629.00474437
3631.52537266
618.588151516
622.844700091
619.784236922
624.100487897
3635.89918494
3633.97548196
3635.97142054
624.175620805
629.495140787
625.416454765
631.651579451
3635.54609715
3635.38284044
3632.72314633
632.864530291
638.98510566
634.593449962
635.688821857
3624.96277261
3628.08664824
3623.39867189
635.810216147
624.031085855
632.598293836
625.07796581
3625.05195845
3622.11849135
3624.24915643
625.190856669
637.482957656
626.285372402
637.820799869
3632.48581706
3627.75768428
3631.72587261
641.838440974
650.414289294
642.101052439
651.008618283
3637.67265748
3634.20064685
3635.40595009
652.08843561
653.523251879
652.588632819
653.015199262
3622.6667088
3634.10481088
3623.90055042
653.828014118
614.502071693
652.40028104
616.916373296
3642.12135887
3638.54927988
621.992270591
619.044392596
623.159844528
621.507678845
3629.07828933
3634.97717649
3633.07509043
618.206607692
619.014514755
620.971244901
620.357425296
3632.96304568
3633.07877427
3634.61480009
620.010834758
623.960793278
620.65059281
623.758076864
3636.68272618
3636.55430478
3637.75611497
625.460670955
631.956621372
625.431320205
632.52293287
3631.13898658
3636.36376948
3632.52642401
634.538259497
634.572301364
635.013982339
632.926788615
3622.92218122
3627.30242652
3623.30372895
632.081024977
626.200477162
630.487819431
627.086905725
3624.38634531
3622.41215745
3624.76031922
627.410752176
638.037084146
628.844610892
638.89581412
3631.25529339
3628.03488706
3630.97124103
642.006401993
650.842733645
642.450537751
649.979565183
3633.47748193
3632.60857141
3632.7802588
652.360807606
652.444257923
651.220091697
651.016827485
3626.06345857
3630.77284406
3628.80003004
651.590180557
617.040812837
650.095034711
617.623466431
3640.54586288
3642.5683252
3641.38178581
623.605323542
622.148879726
623.556402191
623.058187846
3636.65363654
3639.89411179
3638.88845294
621.609741276
620.76686068
622.623322303
622.383875462
3636.43856543
3638.22055106
3638.18962309
620.979135127
623.98754193
622.670549021
625.454299663
3638.13585197
3638.56599188
3638.30545366
625.607165458
632.842474565
627.01686661
633.435783892
3631.89251528
3636.13805876
3631.88881135
635.237016242
632.314899676
635.181999767
629.969640474
3623.14167724
3626.93811242
3623.71142997
629.592074805
626.570854319
626.736626869
624.953467998
3625.05776273
3623.26653079
3625.99448913
628.723799764
639.001420581
627.907703618
638.211094832
3630.79266726
3628.91968301
3631.19744399
642.709412019
649.380473998
641.777899205
646.658935852
3632.81956255
3632.61876022
3633.41078521
650.568160667
650.777440737
647.784140868
649.221657643
3630.58698293
3632.19642639
3631.73277661
650.12933914
617.559255052
649.103935087
618.486150867
623.009357568
622.882733742
3640.47956095
3641.61976104
622.634493295
622.854096635
624.23512834
3639.72263271
3641.36317189
3640.92794143
623.282913047
626.229721879
625.115558355
628.004781289
3638.18754515
3639.91785573
3637.8472947
627.992485266
633.165638492
628.926949718
632.082455725
3631.03491838
3634.48886711
3630.33422574
634.242628974
629.054239613
632.347742045
626.98764725
3624.30901319
3626.79900676
3624.88310896
626.013078359
624.917903101
624.640096279
625.278522291
3626.83550347
3625.07307442
3627.52168506
627.840932286
637.497201542
628.054851189
636.145155859
3631.59133401
3629.98007721
3631.94898104
640.913381097
645.484315803
638.668234221
642.58827884
3633.56466517
3633.18296227
3633.63569687
646.576949465
648.488435214
643.572912434
645.260857309
3632.92405943
3632.98437437
3633.97612726
648.606071629
618.863814871
645.433735651
619.545662056
3637.93240349
3638.32468885
629.325153164
631.97247336
630.840524294
3629.92916308
3634.21159531
3629.72352948
631.930367215
626.357911137
630.142323419
625.77717742
3625.11076058
3626.51939051
3625.04252785
624.214025964
625.397298048
624.280166426
625.757687651
3627.69412101
3625.32302345
3627.56559626
628.280390663
635.854779012
628.528522815
635.198513296
3632.06405991
3629.7859014
3631.8438023
638.032433152
641.973334374
637.037365132
640.810298452
3633.29489969
3632.99085247
3633.01548145
642.908194788
644.118960194
641.401098093
641.734802066
3634.87159393
3633.12415009
3635.7086716
644.375287271
619.011760648
642.092694471
619.583873727
3627.06276158
635.065569073
3631.38441402
636.957780394
640.909885123
3632.83401911
641.462181126
641.445622588
3635.93530593
641.715431529
618.703687701
-23.1842607152
-23.2030431535
-23.1900097592
-23.206461596
17.5256795248
17.6107862083
-23.1892139084
-23.201840617
-23.1833807765
-23.1979700047
19.4320143032
18.9391974593
19.7394623579
-23.2242125146
-23.234520689
-23.2139298117
-23.2137023792
20.9547386767
20.3526385003
22.0532394453
-23.2497838627
-23.2152421227
-23.2190005908
-23.1926791061
28.2610128965
26.0401372728
30.453091008
-23.143408635
-23.065845358
-23.1535279575
-23.0821082903
35.1300657247
33.999561303
36.20844331
-23.0104840894
-23.0329629654
-23.0436075341
-23.0716402661
39.2456636885
37.2751476265
39.857220152
-23.0693071999
-23.0861520212
-23.0986613874
-23.120948681
44.3990016345
42.7528746354
45.0770931559
-23.0808256301
-23.1509953457
-23.1101892933
-23.1873534063
45.5155572222
46.164168779
46.4253985649
-23.2012943903
-23.1885992276
-23.2258165831
-23.2019802208
47.888286181
47.2001605889
48.1867679868
-23.2333762414
-23.161322731
-23.2476656764
-23.1748640514
14.6286637967
14.7134699078
14.9164022879
-23.2118295812
-23.2151297247
-23.2222461769
-23.2129030797
17.241618841
15.3060077147
16.169291661
-23.1821662299
-23.1937719831
-23.1823299922
-23.1864422342
19.0936177972
16.9019454938
17.9379575257
-23.2029667366
-23.2044768086
-23.1942200748
-23.1916640963
21.9314650041
19.3779664402
21.5401454372
-23.196376724
-23.1698393878
-23.1717588291
-23.165878193
30.7088176739
25.7367472322
30.0871718646
-23.1197622181
-23.0730764951
-23.1190213695
-23.0611906012
36.9468949917
33.9486951134
36.4720871668
-23.0753011975
-23.0982484237
-23.0980179745
-23.1030710128
40.2419313011
38.2881420622
40.4137832901
-23.1892063645
-23.203616781
-23.1779631015
-23.231088071
45.1820749737
42.6181950275
44.7955169079
-23.1329513791
-23.1988854975
-23.1598009243
-23.2289609519
46.6226085724
45.4845122998
46.0284920449
-23.2405272009
-23.2052795302
-23.2598297719
-23.2120428259
48.1359043811
46.5773020914
47.7482037602
-23.2618713966
-23.1821079006
-23.2644472783
-23.1868211044
15.6287132462
15.9522131205
15.8832779055
-23.2371003739
-23.2184255697
-23.2369100938
-23.2003246782
15.4024562075
15.5910477726
15.4774795527
-23.168834149
-23.1692945202
-23.1440940244
-23.1606476608
17.3637915825
16.0664669879
17.3133828528
-23.1711412324
-23.1729873018
-23.1699457419
-23.1706984202
21.498704057
19.0819627618
21.8218165944
-23.1599530309
-23.1623320771
-23.1542429619
-23.1637942765
29.1743133977
25.616914288
28.4031496776
-23.0787697293
-23.0167246877
-23.0718602474
-23.0195695197
35.0247666397
31.2129507152
33.1717466452
-23.0077143462
-23.0228397544
-23.0114584977
-23.0348481311
39.8998869803
35.8450399877
38.1476850293
-23.1345221313
-23.1969648961
-23.1398883552
-23.2042852933
43.6515339286
40.8328696047
41.6228596217
-23.1628204059
-23.2300419386
-23.1728303062
-23.2352233641
44.7677011817
42.4200984841
43.0222580881
-23.2664609341
-23.2156036663
-23.2692575072
-23.2162308748
47.0553533865
44.5245621874
46.1866262565
-23.2528332005
-23.1941144005
-23.2512573233
-23.1918615639
15.5411516312
15.6135997794
-23.1194356672
-23.1693445172
-23.2010232598
17.540470996
16.6012396187
18.3644700371
-23.1852959785
-23.1696832401
-23.2029249367
-23.1784506282
23.0275888008
20.8392661894
23.7913155779
-23.1365317479
-23.119492838
-23.1362878193
-23.1133328003
27.9039690852
26.1891689276
27.3474955402
-23.0674946871
-23.0308072876
-23.0692011454
-23.0500434591
31.4610869727
28.6060642373
30.3581833115
-23.031662227
-23.0556107503
-23.0449179438
-23.0576033132
36.0600303131
32.9937238812
34.7184426194
-23.1340442111
-23.1994556258
-23.127380167
-23.2024369584
39.2900142283
36.5827167055
37.2849434182
-23.1773486601
-23.2394357133
-23.1767437071
-23.2279076049
41.09089877
38.2043279401
39.4630344665
-23.2679561881
-23.2186252578
-23.2582430941
-23.2190663108
45.1711197258
41.0920982228
43.7185692458
-23.2511458588
-23.192633086
-23.2517211545
-23.1851266314
23.7171211662
23.2872007408
-23.1727345281
-23.1533552266
-23.1931329422
-23.1614313669
27.0708646658
25.2775999953
26.7370410431
-23.1251071708
-23.0960644677
-23.1260529804
-23.097396272
30.154908762
28.2685721176
30.3137798286
-23.1048456025
-23.1122771891
-23.1018054945
-23.1236101725
34.1572795922
32.8735983441
34.0998269368
-23.1362945503
-23.1973867421
-23.1818547247
-23.2021797773
36.2909189944
35.0466532717
35.9864964764
-23.1705217664
-23.2245473829
-23.1599678195
-23.2122039206
38.1299384967
36.5444611947
37.2902557565
-23.2476471749
-23.2174502913
-23.2357621025
-23.2101195042
41.8175328405
37.8965827956
40.1677658626
-23.2631618013
-23.177801758
-23.262731989
-23.1773076292
34.268450274
-23.1404590799
36.2579937127
-23.1407100368
-23.1813778265
-23.1368436829
-23.1712702911
37.1083659694
-23.2115925292
-23.2069047375
-23.1938633144
-23.1872855148
39.5114085888
-23.2531567222
-23.1693320969
-23.2435991943
-23.1650652185
1788.30293249
1789.09946721
615.314070247
617.413739629
1789.45261578
615.479522548
1787.77112606
1789.38262355
1791.5717488
617.961444001
617.158053987
1790.32975951
1790.88147191
616.343620229
1792.84767035
1790.66686833
620.160293953
619.10964102
1791.02854095
620.640744722
1792.44619276
1794.6915742
1796.31812871
621.639527921
623.21294392
1796.5005456
622.008696161
1794.38317801
1793.64726352
1792.95005741
619.458128349
621.299448816
1791.84347386
1794.61182073
621.042181423
1795.45872874
1797.99366434
623.764803661
622.80210027
1797.16537263
1796.32881864
622.527524314
1799.99563991
1798.16538933
625.189536641
624.523233042
1798.21131206
625.7096831
1799.83231782
1802.07814711
1804.45300273
626.793916861
630.242009664
1804.30916859
627.623014183
1801.90525608
1800.47652572
1799.54515065
624.925446928
626.840325925
1798.71082577
1801.25029079
626.300616495
1802.424004
1804.32055563
631.146583831
629.016663894
1804.27003151
1802.98529759
628.415088153
1806.38178491
1806.62159567
636.384139363
633.544870777
1805.99921954
636.961662451
1807.66793008
1804.11147316
1801.41375266
639.216046063
638.539348259
1799.3900365
639.257180781
1805.94470398
1804.75990863
1804.62324268
634.436320025
636.664924463
1805.24917555
1803.31730761
637.106293159
1801.81783911
1794.74843624
637.016682103
637.146813361
1796.90349701
1799.8963258
638.123581277
1784.99197254
1794.58100244
631.268730716
635.147909555
1792.69719901
630.543458955
1786.64192458
1779.76780924
1779.00705538
626.201415943
623.979667755
1778.00523667
625.877605774
1781.1692411
1783.50679013
1788.67616919
633.771833985
629.571181725
1790.57893279
1782.39693067
629.774625266
1778.73579276
1777.29275053
624.334433923
626.487757434
1777.3917628
1778.28193685
625.882075172
1781.25392243
1780.07315078
628.818043748
625.164976947
1779.22425667
628.741690508
1782.04366386
1784.3013154
1788.24382987
633.294138895
637.564808062
1787.68203409
633.330603393
1784.95451311
1780.79917392
1778.53569533
625.647164259
629.450525058
1778.64778177
1780.79345768
628.982346081
1783.95668047
1787.33728888
637.633389917
633.77385203
1787.39900793
1783.92094105
633.448140772
1795.22342942
1791.80484093
645.61363294
642.018224697
1791.35744732
645.945296684
1795.55936811
1798.16844978
1800.70341107
648.452323145
650.831688836
1800.33727653
648.899160198
1798.47304922
1794.93449341
1790.99576565
641.994362796
645.951774529
1791.10324491
1794.72370826
645.983353978
1797.91720641
1799.61634099
651.057158409
649.046338426
1800.05316203
1797.60267385
649.105804776
1801.93883336
1801.89608837
652.963599111
652.550700102
1801.51128271
653.456844241
1802.48070707
1801.63275629
1800.88619313
653.407153881
653.762694599
1800.08010302
653.87720477
1802.27825552
1801.34698679
1800.57041992
652.66245503
653.542627303
1801.12772105
1800.66389801
653.640338204
1800.80391468
1797.82295215
653.458177232
653.515982084
1799.01094567
1799.95716856
653.806389815
1790.57164976
1797.57303101
654.69870586
653.837489406
1796.75551641
654.502789468
1791.80671753
1782.56078302
1781.41196937
656.398029636
615.305688919
656.20553135
1781.58886166
1783.91189563
1788.83675372
1793.76172525
653.067365072
652.396959317
1795.24080627
1787.36646745
653.145812974
1780.2896898
1782.5594401
616.182960077
652.873823644
1777.35054683
653.898709819
1781.96831071
1804.78297777
1806.85149047
621.071572804
622.216650637
1803.47819717
621.679491036
1807.0425946
1802.25797185
1797.4158305
619.766869219
620.10098588
1800.16753252
1799.66044697
621.101406489
1805.481625
1806.79081345
622.697717141
622.839439155
1805.65627031
622.240935961
1807.07595717
1803.57814617
1802.76523021
620.907965046
622.231240172
1801.4197875
1804.30079619
621.728455506
1795.72688775
1795.02467853
617.685303212
619.09619028
1793.29185155
1797.34545414
618.769010904
1794.81072493
1793.01192774
618.034172536
619.528879837
1792.63370236
1794.7438365
618.976080656
1797.88957768
1801.13349067
620.024846971
620.493990642
1799.39772504
1799.76328204
619.682714619
1796.89988328
1798.32851307
619.959625449
620.266637862
1796.5102479
1798.81387256
619.707145918
1796.56654254
1794.08151939
621.307605269
620.254091585
1795.47779126
1795.43180064
621.254695524
1797.97362338
1798.6856257
622.608494418
623.879701626
1797.03492252
1799.49739802
622.536567942
1797.69220109
1798.31757298
620.475926998
621.413265588
1796.83653584
1798.89701018
621.280988584
1798.90057191
1801.20192853
623.738188661
622.440975525
1800.30381462
1799.9177122
622.368313952
1802.73814838
1800.38591306
627.217091062
625.427244527
1802.03751642
1801.14303147
627.385719412
1804.21368834
1804.63966814
629.491946446
632.233944333
1803.61710648
1805.09993348
629.904585589
1803.41275854
1802.67034979
625.330251239
627.441474351
1801.85278256
1804.1057238
627.33467651
1804.63757732
1806.04735274
632.329564735
629.868943519
1805.61160868
1805.13875252
629.839384473
1802.14458386
1804.44824322
635.915347493
634.642142371
1802.45543874
1804.62264425
635.402153582
1797.99757279
1793.41832585
636.012379554
633.673306752
1798.6732172
1792.69360036
635.08333049
1802.35345203
1805.2866014
634.860487325
635.652960781
1804.95011163
1802.65591476
635.464177783
1798.02887533
1792.63660364
633.379331855
634.761820219
1792.71628447
1798.15002936
634.84412222
1781.93363886
1787.61264002
629.674964228
631.491444374
1781.97299639
1787.13950768
629.636255679
1778.70519375
1777.58557538
627.249911512
626.864449186
1778.3781011
1778.13950289
627.563423878
1782.31131028
1787.16010781
631.151144171
628.717167025
1787.29215042
1782.3426789
629.44932025
1779.36016095
1779.6170042
627.229758407
627.261537074
1778.9576995
1779.80050515
627.715152314
1781.78852596
1778.73319617
630.19884878
628.111745731
1781.32409093
1779.28215537
630.797663757
1784.48378657
1787.45718682
634.281386529
638.326630835
1784.17357696
1787.63129422
634.730751388
1782.29051784
1780.76707209
628.742859655
631.955295959
1780.05874909
1782.51305128
631.525264854
1784.83633191
1788.19475434
638.701950885
635.526672651
1787.89996651
1785.17374827
635.256759462
1794.47600525
1790.98924058
645.804883737
642.095185559
1794.56902831
1791.03059168
645.735571418
1797.14338333
1799.20558327
648.94845469
650.588575184
1797.32998132
1798.86692331
648.84414238
1794.53113736
1791.44452568
642.291305085
645.817213896
1791.19282866
1794.6897849
645.791338244
1797.10242187
1798.66884792
650.360854084
648.507044557
1798.70920832
1797.13666295
648.770138014
1799.59236861
1800.0717909
653.345283711
652.07503396
1800.10836313
1799.65468991
652.954628155
1798.69224482
1796.8310461
653.168869414
651.877286388
1799.29963798
1796.01274327
652.72103803
1799.21765859
1799.32044424
651.710393648
652.044339398
1799.43774751
1799.08540285
652.569345937
1798.34094905
1795.58534768
651.303874703
651.773903754
1795.61700007
1798.23687728
652.227198159
1785.56788715
1792.7495917
651.478123127
650.913507862
1786.40779723
1791.87485177
650.633009019
1775.04472667
1783.00449309
652.016343226
617.519999817
1775.98072137
650.88948507
1783.70049856
1785.32139317
1791.51515749
650.349763556
649.843673449
1791.51111002
1785.29258746
650.170873046
1775.08054707
1784.95099941
617.659080303
650.157582416
1775.16043581
650.701410351
1784.52026668
1805.85050692
1806.58271725
623.367782689
623.89629157
1805.79810316
623.744987711
1806.40814671
1805.16361125
1803.65036684
622.814585595
622.691350587
1804.80676609
1804.33591762
623.239137646
1805.91005201
1806.23665173
623.836837489
623.562178404
1805.91827492
623.780428051
1806.32338792
1805.43519501
1805.13931141
623.024025825
623.430069558
1804.82046286
1805.56537697
623.490024877
1802.5595226
1802.39657624
621.065343853
622.21359606
1801.27475999
1803.42419008
621.63560966
1801.84463263
1799.98713364
620.711988088
621.282798564
1800.46731839
1801.39061699
621.234438743
1803.44107402
1804.55012122
622.637644219
622.382383169
1804.11632237
1804.08651687
622.133340611
1802.86897895
1803.5440726
621.800871461
622.289014105
1802.49736771
1803.77397649
621.72659996
1801.37315872
1799.81333137
621.670645501
621.643454454
1800.15227092
1801.22298536
622.131487065
1801.92858893
1802.07076331
622.692597741
624.389916706
1800.93143551
1802.96200296
623.000237687
1802.51857074
1803.41566333
622.190807389
623.317104168
1802.37447557
1803.54663681
622.693304853
1802.98107579
1804.66783302
624.856329893
624.243092173
1803.79769133
1803.99229591
623.555077516
1805.23148108
1803.38028224
627.573559791
625.955819383
1804.6490026
1804.09827224
627.862121365
1806.05535774
1806.31301157
630.004335229
633.040342891
1805.60732737
1806.70916357
630.341510787
1805.65382869