/*--------------------------------*- C++ -*----------------------------------*\
| =========                 |                                                 |
| \\      /  F ield         | OpenFOAM: The Open Source CFD Toolbox           |
|  \\    /   O peration     | Version:  v1906                                 |
|   \\  /    A nd           | Web:      www.OpenFOAM.com                      |
|    \\/     M anipulation  |                                                 |
\*---------------------------------------------------------------------------*/
FoamFile
{
    version     2.0;
    format      ascii;
    class       surfaceScalarField;
    location    "12.65";
    object      alphaPhi0.water;
}
// * * * * * * * * * * * * * * * * * * * * * * * * * * * * * * * * * * * * * //

dimensions      [0 3 -1 0 0 0 0];
oriented        oriented;


internalField   nonuniform List<scalar> 
92311
(
0.204078626286
7.44540128263e-06
-0.0012980082843
-0.203846796304
0.00106107960035
-7.03626151825e-05
0.204234064319
-0.000993459180494
0.000909439783555
0.204131847408
7.65576317867e-05
-0.00135881756588
-0.203937213142
0.00109560996026
-1.59366344465e-05
0.204202155016
-0.00100826794585
0.000884129496514
0.203913024764
0.000128430965439
0.000101798601355
-0.00145117743465
-0.203953682567
0.00109409567549
0.000126826446712
0.000117381199022
-1.32874497049e-05
-6.1020932448e-05
-6.06007921958e-05
0.204135430108
-0.00101607992851
0.000901898942482
1.08174896537e-05
0.051281355938
5.2124803209e-05
5.60394090641e-05
4.70204258444e-05
6.29568394393e-05
-0.00039043741524
-0.0512790111411
0.000298404531287
-0.051262550736
0.0512185618922
1.7713764545e-05
3.3626125369e-05
3.05964032852e-05
1.63268440744e-05
-0.000286316677051
0.000218724145094
-3.22742284525e-05
-0.000687373331807
-3.45148378088e-05
-3.01281875422e-05
-3.05253860699e-05
-2.66011348983e-05
0.000547875489039
-1.46079114849e-06
0.000265938137111
-0.00123572938321
9.04379942075e-07
-6.95966654954e-08
0.00108085912744
1.90828663822e-06
1.07016917116e-06
-8.63513467384e-06
-1.20968416357e-05
0.000166313519475
1.21293049861e-29
0
0
0
7.18817093916e-29
-5.31257789681e-29
0
0
4.67646755517e-05
5.28482469985e-05
4.83295706821e-05
5.38518580443e-05
-0.000340259368588
0.000259059925696
-7.06405808401e-05
0.0100602217893
0.000105697852468
-8.65787687337e-05
-0.0100543117795
0.010092589132
4.04047617911e-05
-7.41937203171e-05
-0.0100863338654
9.42674250855e-05
-7.41696447725e-05
0.000158138868713
-2.05329227553e-05
0.0512478721848
-1.84292846662e-05
6.77816070814e-07
2.54686180903e-06
-0.000212775466642
-2.9185900835e-05
0.0511946170051
-3.09672630903e-05
-1.75251952506e-06
-7.48097534462e-06
-0.0511751142132
0.000147493739355
2.17833325492e-05
-6.16633549169e-05
0.0101018033642
7.94061483433e-05
-5.61839645942e-05
4.12272232021e-05
0.0127450650852
-4.79498416779e-05
-2.23240664166e-05
-0.0127372746055
0.0127397205261
4.10594349235e-05
-3.82067805512e-05
-0.0127303792616
-0.000130863946531
0.204266501752
-0.0020945232197
0.00177814952032
-0.20381691253
0.204308251235
-3.54155858922e-05
-0.000579868049278
0.000541219013132
-5.87251371585e-05
0.20440491443
-0.00042375593256
0.000385842119281
-0.000138516759616
0.204352890698
-0.00210147690456
0.00177560845055
-0.204019068428
0.204396224961
-0.000106535744812
-0.000703666931376
0.000580927612652
-0.000124920328771
0.204616862549
-0.000512846712014
0.000358436739777
7.39288739001e-06
8.39229221773e-05
0.000107365481155
-0.00225461169069
0.204348940238
0.00185082152179
-0.204293821705
1.16377526615e-05
-0.000108152758521
-0.000105971318236
-0.000134998515991
-0.000146360500418
0.204560008268
-0.00059125897009
0.000555628158495
0.0513527893612
5.57861926441e-06
-8.6898516613e-06
2.49108302249e-06
-1.12113979633e-05
-0.000630110741942
-0.0512564021577
0.00055286456329
0.0513075403779
0.000122938057123
-2.6960589083e-05
-2.46706463921e-05
-3.29808936965e-05
-3.4628528842e-05
-0.000171552661112
-0.000239199043752
4.72173544938e-07
-0.00127865775555
3.93391596619e-06
4.25386170133e-06
3.62111901954e-06
4.45740237275e-06
0.00027086143322
0
0
0
4.32370583453e-34
-2.08886659095e-31
0
0
0
7.96171386581e-10
0
2.29119785346e-10
0
5.34246459617e-30
0
-1.02529117193e-09
0.000531273836735
2.15006754591e-05
3.1939600466e-05
1.75450200899e-05
3.9097011839e-05
0.0513952267996
-0.000599970319099
3.51260006405e-05
5.31471817473e-05
3.43286425121e-05
5.12427082292e-05
0.0513421435517
0.000427369861264
-0.0513047289759
-5.32129455764e-06
1.74639826155e-05
0.0100778555034
-1.22527262142e-06
1.61494651337e-05
-0.0101025951492
7.2305718471e-06
-3.98185899686e-05
-0.0100572432958
1.74131105166e-05
-1.05219105856e-06
0.0100653374755
5.14895490152e-05
0.0128113963813
-0.000127359580904
0.000103147343581
-0.012803041608
9.81873003006e-05
-3.08670432895e-05
-3.90822491126e-05
-3.33961506653e-05
-3.52035780665e-05
0.0513944512742
-0.000152502908083
0.051260930298
-4.47079127728e-05
-5.98248488892e-05
-4.64673973092e-05
-5.95032281638e-05
0.000132221119397
-5.8781928498e-05
-6.91419678492e-05
-5.81314313707e-05
-6.38052277431e-05
0.0513593737015
0.000103271584457
3.24458732262e-05
-3.89457938214e-05
-3.1472399278e-05
0.0127551088861
-3.55919387369e-06
3.10042313245e-05
-0.00994022248463
-0.000107666125066
0.00990684937531
0.000115481266683
3.38718746569e-05
-5.50761285695e-05
0.0127490488713
-0.0127585543408
-7.93004673813e-05
0.0127768798255
-1.91987223706e-05
2.20709650894e-05
-0.000864263386135
-4.50361523015e-05
-4.1157145938e-05
-4.20947200977e-05
-6.90128087668e-06
0.00031413085236
-1.36788831463e-06
-1.67067519932e-07
2.67151621882e-07
-1.42643443303e-07
-2.4601703114e-05
-2.65160498461e-05
-0.000381150049269
0.00020244408306
0.00020792538034
-3.26896694311e-06
-4.8928621133e-07
9.90177705035e-07
1.40185471797e-06
2.1236339582e-06
-8.06372122824e-07
-4.50376726375e-06
-7.94592259682e-07
-1.10272966233e-05
-2.71254914216e-05
-2.03222482031e-05
2.65523000631e-05
0.000272378668497
-2.06578789841e-06
2.33537905427e-06
2.34751194264e-06
8.26933546429e-05
0.012794282332
-9.47448647259e-05
-0.0127992565164
-0.012787465447
7.08587532139e-05
-8.0491702856e-05
0.012784632541
7.03078433364e-05
0.000104268982317
-8.31428826657e-05
0.0100761061411
-8.52764936089e-05
-6.29396272081e-05
0.0100697658178
-0.0100630334714
0.000120838154109
-0.0127899158077
7.08766115139e-05
0.0100839203981
0.000119844472383
0.0127900878653
-9.47602760466e-05
0.0127706979476
7.35552526819e-05
-8.03839475947e-05
6.89081163421e-05
7.78975908204e-05
-0.0127762617831
0.0127675156505
-9.0670919616e-05
9.88292994244e-05
-8.26746480931e-05
-8.12679124028e-05
-7.0282856845e-05
-0.0100891529009
0.0100956936775
0.000112117947201
0.0127607492846
6.63028116696e-05
0.00011801564446
-9.43072787624e-05
-0.0127421370259
3.13318706676e-05
-6.64315449071e-05
0.0127395775643
5.50259026275e-05
7.43298766084e-05
0.0127504075814
-8.5613901453e-05
6.40093882606e-05
-2.98631793805e-05
0.0100911374219
-3.93136581438e-05
-6.14058052534e-05
0.0101083099951
9.73351864205e-05
6.18883653388e-05
0.0101017705772
8.14657541216e-05
0.0127460612159
-7.63189882472e-05
-1.5942406142e-05
-0.0127427896401
0.0127468503305
-5.60172025398e-05
7.8841969663e-06
-0.010073201558
0.0100480882349
1.36905012617e-05
-0.0100896818762
2.31493577894e-05
0.0100649697237
1.10984802309e-05
-5.72520018902e-05
4.85562911672e-05
3.81839034872e-05
-1.33983110857e-05
-1.6775758847e-05
5.38031189611e-05
-6.60214163082e-05
-4.37177997988e-05
-0.0127278990121
0.0127375260817
4.44026698977e-05
2.60830471953e-05
-0.0101386698611
0.0101096659711
-0.010143186915
0.010113196259
2.37752382947e-05
4.29060530987e-05
1.0464227851e-05
-0.0127370734063
-1.97279191332e-06
-5.17526279016e-05
-0.0101546962937
4.96681203326e-05
-0.0127366035793
4.20387446012e-05
-0.0101451104068
-1.54359335774e-06
0.000151923720389
-1.80974780461e-05
-2.9265101736e-05
-1.97852681417e-05
-1.05070375509e-05
-0.000512757342845
0.00040966032972
2.43674627726e-05
-1.99474860443e-06
-3.58666317648e-06
5.07689561864e-06
5.19651852566e-06
-0.000513697132278
-1.15797872236e-06
4.73084493241e-06
6.82456008051e-06
4.47365753448e-06
6.26382791614e-05
-1.13450942607e-05
0.000508796594713
-1.32665463286e-06
1.42804639861e-06
-1.36937353648e-05
2.98716328549e-07
-0.000640057512058
0.000335016720576
-4.85259778014e-06
6.85170618375e-07
5.5608986046e-06
2.14405556633e-06
1.12292510511e-06
-3.88665039496e-06
2.02949631864e-06
-0.000665178198263
6.11641370134e-06
5.09115694143e-06
6.48867808669e-06
7.81846961267e-06
-1.37496167301e-06
-2.98150618701e-07
-6.38259863101e-07
4.0664532691e-07
-6.85466064637e-07
-6.77706459117e-07
2.85037177844e-07
0.000398719174283
1.22403844071e-05
1.43929901232e-05
1.17346589073e-05
1.20760188716e-05
-0.000888468049033
-0.000203630058716
-2.13123135116e-07
-8.02645587134e-07
6.01568682242e-07
-4.6411933381e-08
3.80852993438e-06
7.5525366691e-06
6.1714619191e-06
-0.0012488424687
0.000365650093622
-4.80100594158e-07
3.98080559759e-08
-0.000153828589222
-0.0128062942394
4.4958353782e-06
0.0128137066657
0.00014780042333
0.0128088550834
0.000152051877542
-0.000158979976781
-0.0127932139399
6.03534777795e-07
7.79837669214e-06
0.0100645779563
9.71731353777e-06
1.85186433614e-05
0.0100541192188
-0.010076134455
1.74140328537e-05
0.0128174979634
-0.000159314601093
-0.0127911552789
0.000144365712087
0.0100462722483
2.77569507798e-05
-0.000153385655275
0.0128230249027
2.08735962104e-05
0.000145150502776
-0.0128283788936
0.000151234261294
-0.000155881765263
0.0128257834636
-1.15462443182e-05
1.21927542232e-05
2.84241698294e-06
-5.28269325178e-05
-0.0100416582549
3.63171391916e-05
0.010050832706
-0.000157988431238
0.000141072303536
0.0128201242596
3.17607559171e-05
0.0100275612393
-5.97399580541e-05
8.71852739496e-05
-0.0100270135713
-7.99314607721e-05
-6.46119060947e-05
0.010043800146
8.8781891982e-05
-0.000123154249257
0.0128101344496
9.85533985841e-05
0.0128188917491
4.42326005206e-05
-0.0128105305404
-7.22165018857e-05
-0.0100397689545
0.0100501829643
0.0128166504782
-0.0100391555771
-2.52089248525e-05
0.0127571515929
-5.04560463035e-05
-1.77547919477e-05
0.0100150210425
4.09989540728e-05
0.0100357762588
-3.18326222428e-06
-3.34135917845e-05
-3.75832765311e-05
0.0127650618254
2.66309552073e-05
3.21806425642e-05
-5.16413426206e-05
0.00997469559166
7.39354417015e-05
0.0127691739575
-4.97580560002e-05
0.010000183059
-3.46452634512e-05
-3.08973661491e-05
0.0127801112152
-3.74728563182e-05
2.14644704563e-05
-0.0127858158117
2.92648378698e-05
0.0128000528645
-5.15354150599e-05
3.05314162434e-05
-8.03716205426e-05
9.47833533327e-05
4.1383002891e-05
-0.009967557364
-9.2164229541e-05
0.00993053681228
-5.16267987064e-05
1.86925761686e-05
0.0127971638624
-6.46250284984e-05
-0.0127444489397
-7.67951688755e-05
-2.84264497188e-05
3.22458085964e-05
-5.77298376794e-05
3.89724665127e-05
1.56476433843e-06
0.010071904048
0.010081426777
-2.91262169181e-06
2.98857192663e-05
0.0100353949614
-3.21564503197e-05
-7.58312001292e-05
0.0127638595567
0.0100206640883
0.00999344124724
5.91310142871e-05
-6.04738774376e-05
9.09508890729e-05
8.97296758338e-05
0.00994242140143
-8.68033239849e-05
-1.15659237588e-05
0.01279743015
1.34264780105e-05
0.0127816000146
-7.36424083233e-05
7.38268750776e-05
-0.00997700368141
0.00993715446989
0.0127992338365
-0.000148554328898
-0.00017639036254
-0.000182712446615
-0.000306000633562
0.205182880174
-0.00014898492581
0.000214878006489
9.15212693011e-05
-4.1211302606e-05
-3.76110680328e-05
-3.98966985742e-05
-3.53434856092e-05
-0.000135978654547
0.0514443887954
3.91467894727e-06
-0.000441215144205
-1.76271016137e-07
3.38399742186e-06
8.43610054698e-06
8.21790734357e-06
0.000341381639605
-0.00115094641125
0
0
0
-1.40752575696e-29
-3.68966669939e-29
0
-1.2004352131e-29
6.03667528763e-05
5.46540245004e-05
5.34324670685e-05
6.37991457297e-05
-0.000109115108994
-0.000503726988111
0.0513322114601
3.59938540784e-05
-8.81110243054e-05
-6.09436656284e-05
0.010055231033
0.0514406537362
-6.05600539197e-05
-6.4637063416e-05
-5.8923128749e-05
-6.63423404814e-05
8.42334095024e-05
0.051447134206
-4.67998668204e-05
-4.50728338554e-05
-3.95743159648e-05
-5.23149726708e-05
-7.72849303994e-05
7.1557078793e-05
2.68787139937e-05
0.00987692196974
-0.000127590045958
0.000133814155936
-1.81580688674e-05
8.78773436088e-05
0.000111785813064
0.00989841034647
-0.000105668168308
0.00979803158844
-1.12786253154e-05
3.43954834846e-05
0.00015409244773
-0.00981911900776
-0.000140436803752
0.0514358766544
-1.82341783206e-05
-2.98175684565e-05
-2.67376463443e-05
-2.06269838684e-05
0.000113370253182
-8.48508282461e-05
7.80071148144e-05
-6.8710965887e-06
-1.1813790596e-06
-3.88114715985e-06
-4.09829052417e-06
4.67614880325e-05
-4.38045814553e-05
0.0514008213878
4.80931153493e-05
-6.35154872237e-06
2.02124044498e-05
0.000155335494634
0.0097862907361
-0.000145150190437
4.04233712283e-06
-5.78684510851e-06
0.000149685442118
-0.00978657618423
0.00978863155685
-0.000148618847132
-3.10243273881e-05
-3.66140990601e-05
-3.0152841881e-05
0.000319934818313
-0.000711584269624
-2.3059780142e-06
-0.000977445035644
6.16745578067e-07
1.30371684095e-05
1.81208288239e-05
1.21222652906e-05
-0.000401164918644
1.47637278991e-07
-0.000943277509163
7.1459683702e-06
1.44431249193e-05
9.56145208631e-06
0.000413162320156
-0.000483536451477
4.47280631112e-07
-3.197820735e-07
4.04223833451e-08
-2.07152688439e-07
4.59722972133e-07
-3.66559418337e-08
4.48285767909e-07
2.52041467252e-08
-0.000794817354296
4.03429545845e-06
3.50395015247e-06
1.09303602176e-06
0.000167790283683
3.99065738684e-08
-0.000336690166559
-5.04551279251e-06
-2.69817483842e-06
-2.71921932123e-06
-0.000223985863668
9.5145902413e-07
-0.000566921043395
-2.30453639182e-05
-0.0128081601909
8.47834949277e-05
0.000118339650845
-0.000135709347691
0.0128019344784
-0.000119958674242
0.0128032208748
-8.21325615383e-05
0.0100576113619
-3.34908408144e-05
-5.54165888621e-05
-9.44446883397e-05
0.0100665127681
-0.000138941462357
-2.78238442055e-05
0.0100701758397
0.0127973026757
-2.51483140774e-05
-0.0128163403948
-4.02855190557e-05
1.422312997e-05
0.0128273973384
0.0128130844026
2.8997137181e-05
-5.20539071887e-05
2.64001614917e-05
-0.000146495166448
0.000150294587939
0.00984891344607
4.14167812453e-05
0.00989477188246
-0.00011496731638
-4.65899470742e-05
0.0128218263976
1.66233565368e-05
-0.000136268899476
0.00985838095432
-0.0128212857835
-5.95319796131e-05
5.221797871e-06
0.0128309029311
-6.12471015659e-06
0.0128190339749
9.01178567974e-06
6.91729642379e-05
0.00990095077382
0.00013050636118
7.65280594068e-05
0.00985808104731
-0.000118367445806
0.00986551168833
0.0128303659196
5.73927320019e-06
0.012839767015
-4.46854889566e-05
8.78763251244e-06
-1.81897704376e-05
-7.20789068976e-06
-0.0128441017877
0.0128355179266
6.01239084161e-06
2.62462030221e-05
-0.00983566391301
0.00981853241283
0.000160643556572
0.000145477839131
6.19794780944e-05
-0.000130086760882
0.0128363817151
-1.58060925825e-05
0.000152999191855
6.2067915379e-06
-0.0128323864417
-2.60615193276e-06
7.85753870813e-06
0.012822044182
-1.28836947227e-05
-9.93696347656e-06
0.0128273848107
8.90521855279e-06
1.39257371888e-05
0.00980613953743
0.000163216404303
0.000156186714738
6.84393156962e-06
0.00978386518152
-0.000148099516502
-1.77313136172e-05
0.00980028561212
0.000161099499137
0.0128143992084
7.13276940496e-06
0.0128175563167
-5.32053039407e-07
6.82086336871e-06
-8.75366723698e-06
4.05087855243e-06
-0.0128081161052
0.0128013330832
-4.28666232626e-06
-8.61060809261e-07
-0.0097974073021
0.00014737457917
0.00979551312757
0.000153583885748
-3.42466248404e-06
-0.000149337150212
2.54248127557e-06
0.0128143216345
0.000155281141481
5.66172030125e-06
-0.000467210910049
-0.049660945616
0.0494990343935
0.000557379689924
5.40170316759e-05
6.09944182449e-05
6.7358641711e-05
5.35171300249e-05
-0.000163932567033
-0.000619842043856
0.050072183694
-1.24856928419e-05
-1.27383512151e-06
-2.61815204872e-06
-9.68773988735e-06
4.22966378334e-05
-0.0500700417632
0.000601508394433
-0.00105198161306
-0.0501269591934
0.0502310033402
0.000913109942519
-5.53242538689e-05
-2.09738337115e-05
-4.18741508158e-05
-3.38436906794e-05
0.000186963037344
-0.000818825764352
-6.04965126193e-05
-4.74551306589e-05
-5.94844086911e-05
-4.888262959e-05
0.000214423042869
0.0504550737655
0.000742700977092
-0.0503768847252
-5.9025675041e-05
-0.000312649715679
-0.000155431226295
0.000454428899377
0.000389475409974
-4.75815173928e-07
-5.68678748206e-05
-4.0493066427e-05
-3.743967274e-05
-5.23308036386e-05
-0.000704625590436
0.000895558793462
0.000393455987404
-2.00061035985e-07
-5.24200913592e-05
-4.01974323791e-05
-3.39885827663e-05
-0.000292803343894
2.81845761839e-07
-0.0003504179
-0.000341214356133
-4.10240175665e-07
-2.60563272581e-06
2.92796550943e-06
3.39997686191e-06
0.000603841449714
0.000192185168741
1.68975512993e-06
-0.000387724307428
9.78052961803e-05
9.76825494373e-05
0.00022952695215
-1.15089733155e-07
3.39475276856e-06
5.66297001351e-06
8.22542202033e-06
9.8207601278e-06
-3.49203621192e-05
1.03893566261e-05
9.4068720239e-06
9.75816847589e-06
-0.000475050510356
-0.000109147516216
-8.69239479849e-09
0.000599618159751
-4.02665831115e-09
4.55997171316e-26
1.82511101648e-09
0
2.20154729467e-09
0
1.44206269443e-28
3.44499443295e-28
1.46985001461e-26
6.57565775309e-08
2.2908618001e-09
7.88192827544e-09
3.38504059706e-09
-9.76018333307e-08
7.91734405142e-08
-3.65580724381e-26
1.36266378389e-28
0
0
0
0
-4.91156719198e-27
1.07095369366e-28
0
0
0
0
0
-2.18740065257e-28
0
0
0
1.57427980402e-29
4.04917797795e-30
0
0
0
0
0
0
1.95484229412e-29
9.69480138482e-05
9.38657575003e-05
0.000119719567754
0.000107003768165
0.00010756182646
0.0494135985237
-0.000217886068693
-2.38071044445e-05
-0.0496968435502
0.0494349160366
0.000284243847693
7.49871141527e-05
7.5370384465e-05
8.62341664044e-05
6.49274118341e-05
-0.0002020052693
-0.0497214745963
9.33578066647e-05
-0.000154580460372
-0.0104980866024
7.20069745236e-05
0.010515981209
-5.47015594002e-05
0.0105951325865
8.06770236728e-05
5.27714669968e-05
-7.00627512186e-05
-8.57525593897e-05
-0.0105842920808
0.000116984946727
9.21163483531e-05
0.000109568202001
0.00010479432544
-0.000253137017545
0.0123082116383
0.0122199210989
0.0122442698736
0.0123037006577
-0.00027889745568
9.20144738773e-05
6.12465973453e-05
-8.66661070395e-05
-9.83569280829e-05
0.0106118235999
0.000387389721056
3.8731346334e-05
5.39007843362e-05
4.46947625657e-05
4.40397398002e-05
-0.000142026332091
-0.0498033260818
0.0498845340101
1.8301468153e-05
1.23618514077e-05
2.41503071227e-05
1.07832994402e-05
-0.000102617886631
-0.0499234839028
0.000463522256176
0.0106134593347
5.05915493824e-05
-5.39982473522e-05
-0.0106022582672
6.16338289274e-05
0.0106474312951
1.14595818838e-05
-1.30411515621e-06
-2.54125902075e-05
-0.0106483776194
7.97675021687e-06
0.000821996520852
6.96609805994e-05
8.46227059157e-05
8.18244547085e-05
6.53273639337e-05
0.0493248796258
-0.000206651622729
-0.000150456869466
-0.00020718644787
-0.000166171845018
-6.92802809967e-05
-5.02058343866e-05
-5.36646088912e-05
-4.5552714811e-05
0.0497762945575
2.82303640514e-05
1.64958661716e-05
2.63086991995e-05
1.77161852924e-05
-4.27642941425e-05
0.0498126695922
0.000808225225095
3.81883561847e-05
1.59722065823e-05
2.84648664238e-05
2.70457440556e-05
-0.000131975564203
-6.48538913288e-05
0.0106246961167
7.30128895351e-05
0.0107016709022
5.69346693422e-05
-8.2406695132e-05
-0.0106717577967
0.000122864699738
-0.000138233013052
1.38995110556e-05
1.31340944469e-05
-9.12948847447e-06
-3.56900349453e-05
0.0106567420234
0.0107083604108
4.57887179421e-05
7.60270134219e-06
-5.98822550788e-06
-7.29030182277e-05
-0.010690845419
0.049918052707
7.03665498486e-06
8.8585420178e-06
2.57058278422e-05
-1.07504409002e-05
-0.00114003457669
-4.78594545157e-05
0.00126681096828
1.37616691007e-06
-4.28556267235e-05
-1.61756962423e-05
-2.3035319156e-05
0.0504367195976
-0.00010442950889
-0.00160009835877
-8.52828582099e-05
0.0107335433115
0.000145225379634
-0.0001559086999
2.48322913055e-05
-3.14192556431e-05
-0.0107811802823
0.000195829387335
0.0107871744077
-0.000212741115274
5.6068413412e-05
5.46150843473e-06
-4.02137427199e-06
-8.78321784138e-05
0.01073117142
8.99930587842e-05
-5.424733286e-06
7.45848728302e-05
-0.000139215291837
-0.0107404649167
0.0107280278596
0.000743455064197
-9.65292203752e-06
-6.49259454267e-06
3.26736395837e-06
-1.91682485466e-05
4.21425027954e-05
0.050285978618
-2.05980056132e-05
-3.71271210155e-05
-2.8258977619e-05
-2.83037258992e-05
8.18871451986e-05
-0.0502227008667
0.000712722330642
-1.15917190732e-06
0.0106465940176
1.8415648486e-07
-0.0106384939722
0.0106907789939
-9.84347256645e-07
4.53476190119e-07
-0.0106742959915
2.64734846467e-05
0.010586079743
-1.01295424541e-05
4.22083644591e-05
-3.92167045893e-06
-0.01057956875
9.17834198264e-07
0.00108311600337
-6.27162876561e-05
-7.62656718508e-05
-5.02106117916e-05
-8.59876191073e-05
0.050485960158
0.000204016138936
0.0503849206247
-5.52510960686e-05
-4.6447253942e-05
-3.8302550119e-05
-6.15902845309e-05
0.000197108762037
-6.05572270761e-05
-8.23277139789e-05
-6.56823023288e-05
-8.12756414637e-05
0.0505751343755
0.00093462391411
0.000248416758308
6.15674233397e-06
0.0107095921346
3.41272050942e-05
-9.4697918604e-06
9.01665178142e-05
-0.0107054291598
5.64663154329e-05
0.0106825044305
6.77339491928e-06
-1.04216798913e-05
4.55158658367e-05
-9.91210578044e-06
0.0105937154849
5.9079610967e-06
-1.22101051162e-05
8.52716505024e-05
-1.57618450132e-05
-0.0105772027582
0.0105477450884
4.08652620727e-05
0.0105694957581
4.34405086434e-06
-0.0105608161498
7.93510204388e-05
-0.0105517201531
0.0105243754185
-1.11652149716e-05
-1.63528480014e-06
0.00018310281988
-9.61973172654e-05
-7.77584463414e-05
-7.81285807226e-05
0.000424054336584
-1.43275731709e-06
-2.83683122562e-05
-2.11956583465e-06
0.000307325436244
0.000274511668597
-6.70278756714e-05
-5.28178305153e-05
-7.0128358281e-05
6.38559871798e-05
-1.64761355781e-06
-4.73216875606e-07
-7.37608426517e-05
-6.2808432868e-05
-7.85203530503e-05
-0.000169593730107
0.000648125240395
-1.89969925289e-07
-5.13101948508e-08
5.92817992574e-07
1.73680452891e-08
2.95808755141e-07
2.28001182913e-08
-7.61110224914e-08
5.32388596645e-07
-1.39358918086e-07
-1.27619683899e-07
-1.18224127964e-07
2.83548252975e-07
-1.34583084689e-08
-4.363063123e-08
3.94361203689e-07
-5.70711279118e-08
-9.32823613135e-08
5.36854510283e-07
7.51269621824e-08
-1.62435033235e-07
-6.54907686252e-07
2.38884465721e-07
2.5315446766e-07
-1.86516311753e-08
-9.24162940335e-08
3.14340699191e-07
-7.65526950602e-08
-2.72788458596e-07
2.6226458234e-07
0.000311352032344
-5.36727197419e-05
-3.48670385064e-05
-3.62595179433e-05
-1.45743732853e-06
0.000174611813733
-0.000196941621055
-2.8765530957e-05
-1.33316335944e-05
-2.85268922478e-05
0.000471768270165
-1.10795664567e-06
0.000275356174302
0.000422992129832
-3.54162028886e-07
-6.03874553986e-05
-3.25963208118e-05
-3.92099767805e-05
-0.000320431140558
8.76411291395e-05
-5.9063781835e-07
-2.97309803745e-05
-1.34088905982e-05
-3.10541945317e-05
-4.28017513775e-07
0.000344214761438
0.000392547957197
-3.17674631601e-05
-1.72016606213e-05
-3.76618024406e-05
-6.74554873264e-08
-2.34577044173e-07
1.86381991576e-07
-1.43062236195e-07
4.27654264218e-08
-4.36918700897e-08
-4.23784051465e-07
2.26040023532e-07
9.40310645715e-08
-3.04044237135e-07
0.000318671524397
-1.50052763629e-07
-3.7530576844e-05
3.13918564234e-07
-1.71106543001e-05
0.000959329906012
-0.000211322065679
0.000510919364433
-2.52309413129e-07
-3.39320704627e-05
7.29109900907e-07
-2.47581491605e-05
-8.97400519263e-08
0.000320379061504
2.57021623585e-06
3.60914319658e-06
3.84360820177e-07
0.00057039044274
4.91667996569e-08
-1.39469355724e-07
-6.21682267464e-08
4.78142033608e-08
1.47928082299e-07
-3.27494980392e-07
-1.11822185249e-07
2.00718294259e-07
0.00022425277435
-2.47463767142e-07
1.57408522364e-07
5.17838351339e-06
4.06910829643e-06
-9.45612890027e-08
-0.000424494752756
8.03286366723e-06
9.51122237107e-06
6.94092897116e-06
0.000629456985154
2.57942648239e-05
2.50088663947e-07
-1.10958883044e-07
-4.32292083234e-07
-3.49535140349e-07
3.98560349098e-07
5.18036794453e-07
-3.08325560139e-07
-3.4581004009e-07
0.000211629083146
-1.27674542399e-08
6.93319081321e-06
1.25357564396e-05
1.03536419047e-05
0.00020617378263
-0.000243886715985
-5.8710961716e-09
8.6522633615e-06
1.18712194143e-05
1.03848916996e-05
5.33206111911e-07
1.25044854743e-05
1.20886143784e-05
1.15869660259e-05
-0.000120488132732
5.86761094543e-05
4.66024456543e-07
-4.24937170632e-07
-2.51076769372e-07
5.88745094343e-07
6.88786680531e-07
-4.65554230364e-07
1.02275427079e-06
-4.50361192679e-07
0.012418423153
0.000118415733563
5.69146330428e-06
1.35141162505e-07
-0.0124488903902
6.9353156325e-07
-0.012406186233
0.012372093873
-1.7105302127e-06
6.76047090815e-05
-0.000146360580916
-5.55566059692e-05
-0.0104878497258
-0.000130053248818
-0.010519761736
8.6779400958e-05
0.0105385226698
8.64495745076e-06
0.0123872600858
7.93143216735e-05
-0.0105128675859
2.21973472453e-06
-0.0124415250239
0.0124307613987
1.42958259659e-05
8.44035720195e-05
-0.0124542754756
-2.69986792063e-05
-0.0124457994617
0.012424737841
5.334006019e-05
-9.38486764909e-05
-0.0105520581838
0.0105659173679
-6.03525569918e-05
-7.28572096742e-05
6.64239923056e-05
-0.0105819864909
0.0124046864793
3.6258506098e-05
-0.0124631184941
-0.0105476004973
-0.0123822514008
7.10047686914e-05
0.000125576492236
-4.88588949881e-05
0.0123510580982
-4.26583768099e-05
0.0124036185163
6.90669987698e-05
-0.000116514992629
0.0105927560297
-9.83349052863e-05
-9.80356334071e-05
-0.000107843409574
0.00010637877757
0.0106326377794
-2.74934488682e-05
0.000100979278441
0.0123799988047
-0.000104405742246
0.0106186845055
-4.68657288931e-05
0.0124820623679
3.24508130563e-05
6.21660256239e-05
-0.0124911009147
-0.0124643584419
6.64722421934e-05
0.0124511268552
-4.63555915187e-05
4.92252453496e-05
-0.0106044936017
-3.68549639566e-05
-0.0106322627198
4.75842292181e-05
0.0106378417098
-0.0124765723735
8.30194358864e-05
0.0124726773953
3.75969874693e-05
-0.0106355600938
0.0125004897658
7.37990842494e-05
1.09988799256e-05
-0.0125047406719
-9.37266153222e-05
-0.0125160783735
0.0125154374047
0.00010544098936
-1.85033588183e-05
-0.0106374301953
0.0106390803911
1.27560263075e-06
-1.65085204497e-05
-0.0106582769612
1.01650582457e-06
0.0124954621104
-0.0125179695006
8.78603093308e-05
-0.01064385725
-0.000110574413179
-0.012459235509
4.75726792498e-05
0.0124464461288
0.000129655049789
0.0124340081416
8.22323060832e-05
-7.27735529518e-05
8.79441250959e-05
0.0106446655176
-4.86272456892e-05
0.0106473565203
5.99654258246e-05
0.0124187930683
0.000100469446203
0.0106637289099
7.10723264161e-05
-0.000140468501689
0.012437863627
5.79414274712e-05
0.000160535468694
-0.0124002195229
0.000176951101002
0.0123896830508
-0.00016448725165
-8.35254072008e-05
0.000107254338566
-0.000123524905154
-4.966413335e-05
-0.0106897269481
0.0001066824327
0.0107120758107
-0.000123815780044
0.000195973386193
0.0124341294089
9.10791824936e-05
-0.0124860661752
0.000134896531116
3.16398251269e-05
0.0124773437773
-0.000110258739667
0.0125090963366
0.000123922822633
-2.58712270837e-05
0.0106484330784
-1.22563926658e-05
-4.46311504403e-05
0.0106692487908
2.22473551153e-05
0.0125040199155
0.00014538091384
0.0106654598202
0.012473187454
0.000162378858755
4.03949181245e-05
-0.000190960239405
-0.0125020181879
0.0125059842889
0.000196796685143
-3.12262422854e-05
-0.0106882699686
0.0107081078011
-2.01044323693e-05
-6.04903972999e-05
3.34583428507e-05
0.0124752222649
0.000171219335958
-0.000259431191894
-0.0124317962327
4.33400885524e-05
0.012441820501
0.000267840264493
-6.28134630094e-05
0.0123823664066
0.000215651468677
-8.93964233111e-05
-0.000204730316977
-7.62145238773e-05
0.000161801301475
0.0107563896858
-0.000174591395077
-5.650146943e-05
0.010734691843
0.000124615589415
0.012392701229
-8.70305564496e-05
-0.000259767550896
0.000232792035052
-7.19872511648e-05
0.0107488834138
0.000141898579214
-0.00030103361484
3.32775306145e-05
0.0124829853946
0.00030642822001
-8.106257208e-05
-0.0124402111847
0.000332973288978
0.0125179521224
-0.000345623591888
-9.73938817204e-05
-6.52845717127e-05
0.000182642205206
-0.000195662674615
-0.0107698644433
-5.249877229e-06
0.000183169205898
0.0107754879049
-0.000304403306406
-0.000110474078614
0.000164374786084
0.000333129770551
0.0125424799463
-6.61235567885e-05
-0.0124751894131
0.000250899279333
1.00273504556e-05
0.0124883534789
-0.000224841522827
0.0125065605081
0.000228751286196
-3.31894552748e-05
0.0107301534681
2.47564466883e-05
-0.000104719527028
0.0107349376124
7.08219926042e-05
0.012517889408
0.000253010060453
0.0107411592464
0.000281174823596
-4.04139924072e-06
0.0125178911139
-0.0125447739089
-0.000307911659744
0.000299386875197
0.0125841432669
-0.0107673667933
4.77241360257e-05
0.0107646526181
4.13139662959e-05
-0.000127284483122
8.37977651557e-05
0.000278709513456
0.0125664995144
-0.000141312510068
-0.0125472499585
-1.80733443886e-05
0.0125478676692
0.000146342092396
0.0125288306941
0.000124715519529
-0.0125322327405
-2.99224121598e-06
5.06172036266e-06
0.0106553907396
1.53225221128e-05
0.0106333769302
-0.0106302271138
-1.10718876978e-05
0.012527225435
-0.0125478161783
0.00013088563342
0.010641734364
-9.01865969725e-06
-0.000165458220228
0.012549927218
-1.37802922901e-05
0.000167678764506
-0.0125278340831
0.000184624092287
0.0125338911377
-8.4048917432e-06
1.61204049695e-05
2.60649221574e-05
-0.0106595004257
8.35816468552e-06
0.0106689412461
0.000186090124299
0.0125555574327
1.81556773494e-06
0.0125678331291
0.000166246119289
-2.21068907921e-05
-0.0125644561851
-0.000183125567758
-0.012583949562
0.012589201302
0.000183749198522
3.15885684643e-05
-0.0106167316867
0.0106254466763
3.55719913678e-05
1.28268978233e-06
-0.0105708917355
-1.52136394577e-06
0.0125745925887
-0.0125793026042
0.000169651409803
-0.0106028182361
-0.000235510930171
-0.0125570406435
-6.27855637394e-05
0.0125680951508
0.000232167216297
0.0125353902723
0.000212305559563
3.57088651236e-05
4.34507632545e-05
0.0107088476337