/*--------------------------------*- C++ -*----------------------------------*\
| =========                 |                                                 |
| \\      /  F ield         | OpenFOAM: The Open Source CFD Toolbox           |
|  \\    /   O peration     | Version:  v1906                                 |
|   \\  /    A nd           | Web:      www.OpenFOAM.com                      |
|    \\/     M anipulation  |                                                 |
\*---------------------------------------------------------------------------*/
FoamFile
{
    version     2.0;
    format      ascii;
    class       volVectorField;
    location    "12.65";
    object      force.turbine;
}
// * * * * * * * * * * * * * * * * * * * * * * * * * * * * * * * * * * * * * //

dimensions      [1 -2 -2 0 0 0 0];


internalField   nonuniform List<vector> 
28582
(
(0 0 0)
(0 0 0)
(0 0 0)
(0 0 0)
(0 0 0)
(0 0 0)
(0 0 0)
(0 0 0)
(0 0 0)
(0 0 0)
(0 0 0)
(0 0 0)
(0 0 0)
(0 0 0)
(0 0 0)
(0 0 0)
(0 0 0)
(0 0 0)
(0 0 0)
(0 0 0)
(0 0 0)
(0 0 0)
(0 0 0)
(0 0 0)
(0 0 0)
(0 0 0)
(0 0 0)
(0 0 0)
(0 0 0)
(0 0 0)
(0 0 0)
(0 0 0)
(0 0 0)
(0 0 0)
(0 0 0)
(0 0 0)
(0 0 0)
(0 0 0)
(0 0 0)
(0 0 0)
(0 0 0)
(0 0 0)
(0 0 0)
(0 0 0)
(0 0 0)
(0 0 0)
(0 0 0)
(0 0 0)
(0 0 0)
(0 0 0)
(0 0 0)
(0 0 0)
(0 0 0)
(0 0 0)
(0 0 0)
(0 0 0)
(0 0 0)
(0 0 0)
(0 0 0)
(0 0 0)
(0 0 0)
(0 0 0)
(0 0 0)
(0 0 0)
(0 0 0)
(0 0 0)
(0 0 0)
(0 0 0)
(0 0 0)
(0 0 0)
(0 0 0)
(0 0 0)
(0 0 0)
(0 0 0)
(0 0 0)
(0 0 0)
(0 0 0)
(0 0 0)
(0 0 0)
(0 0 0)
(0 0 0)
(0 0 0)
(0 0 0)
(0 0 0)
(0 0 0)
(0 0 0)
(0 0 0)
(0 0 0)
(0 0 0)
(0 0 0)
(0 0 0)
(0 0 0)
(0 0 0)
(0 0 0)
(0 0 0)
(0 0 0)
(0 0 0)
(0 0 0)
(0 0 0)
(0 0 0)
(0 0 0)
(0 0 0)
(0 0 0)
(0 0 0)
(0 0 0)
(0 0 0)
(0 0 0)
(0 0 0)
(0 0 0)
(0 0 0)
(0 0 0)
(0 0 0)
(0 0 0)
(0 0 0)
(0 0 0)
(0 0 0)
(0 0 0)
(0 0 0)
(0 0 0)
(0 0 0)
(0 0 0)
(0 0 0)
(0 0 0)
(0 0 0)
(0 0 0)
(0 0 0)
(0 0 0)
(0 0 0)
(0 0 0)
(0 0 0)
(0 0 0)
(0 0 0)
(0 0 0)
(0 0 0)
(0 0 0)
(0 0 0)
(0 0 0)
(0 0 0)
(0 0 0)
(0 0 0)
(0 0 0)
(0 0 0)
(0 0 0)
(0 0 0)
(0 0 0)
(0 0 0)
(0 0 0)
(0 0 0)
(0 0 0)
(0 0 0)
(0 0 0)
(0 0 0)
(0 0 0)
(0 0 0)
(0 0 0)
(0 0 0)
(0 0 0)
(0 0 0)
(0 0 0)
(0 0 0)
(0 0 0)
(0 0 0)
(0 0 0)
(0 0 0)
(0 0 0)
(0 0 0)
(0 0 0)
(0 0 0)
(0 0 0)
(0 0 0)
(0 0 0)
(0 0 0)
(0 0 0)
(0 0 0)
(0 0 0)
(0 0 0)
(0 0 0)
(0 0 0)
(0 0 0)
(0 0 0)
(0 0 0)
(0 0 0)
(0 0 0)
(0 0 0)
(0 0 0)
(0 0 0)
(0 0 0)
(0 0 0)
(0 0 0)
(0 0 0)
(0 0 0)
(0 0 0)
(0 0 0)
(0 0 0)
(0 0 0)
(0 0 0)
(0 0 0)
(0 0 0)
(0 0 0)
(0 0 0)
(0 0 0)
(0 0 0)
(0 0 0)
(0 0 0)
(0 0 0)
(0 0 0)
(0 0 0)
(0 0 0)
(0 0 0)
(0 0 0)
(0 0 0)
(0 0 0)
(0 0 0)
(0 0 0)
(0 0 0)
(0 0 0)
(0 0 0)
(-0.00330972676617 6.83817991189e-05 0)
(0 0 0)
(0 0 0)
(0 0 0)
(0 0 0)
(-2.39866460223e-05 3.26030745338e-07 0)
(0 0 0)
(-2.39450759267e-06 3.20224487954e-08 0)
(0 0 0)
(0 0 0)
(0 0 0)
(0 0 0)
(0 0 0)
(0 0 0)
(0 0 0)
(0 0 0)
(0 0 0)
(0 0 0)
(0 0 0)
(0 0 0)
(-0.0160631484606 0.000498899338809 0)
(0 0 0)
(0 0 0)
(0 0 0)
(-0.0280496727125 0.000669728631372 0)
(0 0 0)
(0 0 0)
(-0.207410926474 -0.0160283181823 0.0355781955882)
(-1.68504056138 -0.148319253281 0.320537361384)
(-0.0762885272152 0.00182150470862 0)
(-0.756575038398 0.0157224390782 0.0038033956758)
(-0.00562620429341 7.76473327828e-05 0)
(-0.0757253533619 0.00180805807565 0)
(0 0 0)
(0 0 0)
(0 0 0)
(0 0 0)
(0 0 0)
(-0.0160631820756 0.000498900382842 0)
(0 0 0)
(0 0 0)
(0 0 0)
(-0.0277692480925 0.000663033066726 0)
(0 0 0)
(0 0 0)
(0 0 0)
(0 0 0)
(0 0 0)
(0 0 0)
(0 0 0)
(0 0 0)
(-1.43651402419e-05 1.96540364483e-07 0)
(0 0 0)
(-8.68066459736e-06 1.187667475e-07 0)
(-0.000122177999652 2.15710179958e-06 0)
(-0.000554167490898 9.78405028143e-06 0)
(-7.35142538849e-05 1.29792376533e-06 0)
(-0.00033212991766 5.86388748478e-06 0)
(0 0 0)
(0 0 0)
(-0.000352158559349 4.84180468893e-06 0)
(0 0 0)
(0 0 0)
(0 0 0)
(0 0 0)
(0 0 0)
(0 0 0)
(-0.014813119288 0.000306051773768 0)
(-0.000692955740345 1.24593156674e-05 0)
(-0.00332884815945 6.87768635356e-05 0)
(-2.63123225516e-05 4.3052447739e-07 0)
(-0.000121437319784 2.14402479814e-06 0)
(-3.36689272728e-06 4.50264389593e-08 0)
(-2.67656655913e-05 4.37942115072e-07 0)
(0 0 0)
(0 0 0)
(0 0 0)
(0 0 0)
(0 0 0)
(-0.000360563531804 4.95736409808e-06 0)
(0 0 0)
(0 0 0)
(0 0 0)
(0 0 0)
(0 0 0)
(0 0 0)
(0 0 0)
(0 0 0)
(0 0 0)
(0 0 0)
(0 0 0)
(0 0 0)
(0 0 0)
(0 0 0)
(0 0 0)
(0 0 0)
(0 0 0)
(0 0 0)
(0 0 0)
(0 0 0)
(-0.00510434683613 7.06220376465e-05 0)
(0 0 0)
(0 0 0)
(0 0 0)
(0 0 0)
(0 0 0)
(-0.00438197718503 6.04757351472e-05 0)
(0 0 0)
(0 0 0)
(0 0 0)
(0 0 0)
(0 0 0)
(0 0 0)
(0 0 0)
(0 0 0)
(0 0 0)
(0 0 0)
(0 0 0)
(0 0 0)
(0 0 0)
(0 0 0)
(0 0 0)
(0 0 0)
(0 0 0)
(0 0 0)
(0 0 0)
(0 0 0)
(0 0 0)
(0 0 0)
(-0.0359910922621 0.000953762496853 0)
(-0.00825875482206 0.000161310861907 0)
(-0.0136231076208 0.00026608796114 0)
(-0.0102069053077 0.000211413074696 0)
(-0.019265080353 0.00051052385423 0)
(0 0 0)
(0 0 0)
(0 0 0)
(0 0 0)
(0 0 0)
(0 0 0)
(0 0 0)
(0 0 0)
(0 0 0)
(0 0 0)
(-0.00497190670829 6.86173616546e-05 0)
(0 0 0)
(-0.00794941326399 0.000164654207079 0)
(0 0 0)
(0 0 0)
(-0.223108431932 -0.0053185835502 0.0183798286492)
(-0.100844798612 0.0026544865042 0)
(-0.186082056735 0.00443318352452 0)
(-0.0408063336942 0.000974313329657 0)
(-0.457149853597 -0.0146724336495 0.0443127074315)
(-0.0523666602804 0.00138771439047 0)
(-0.0978624859735 0.00233661581243 0)
(-0.604252807632 -0.0246874058874 0.0671898877836)
(-2.11460857817 -0.092610574262 0.248084507139)
(-0.39392970621 0.0093849063904 0)
(-0.392893026302 0.00936020872546 0)
(-1.19814204938 -0.055955439766 0.146238010958)
(-0.210434152743 0.00501334322773 0)
(-1.10859218455 -0.0453295637782 0.123855723571)
(-0.0655135953733 0.00127996782057 0.000695172477814)
(-0.00900791699919 0.000186578729987 0)
(-0.0192519170155 0.000459668822741 0)
(-0.0192178788667 0.00045885611013 0)
(-0.0247370269818 0.000655530219729 0)
(-0.0247364274162 0.000655514331267 0)
(-0.0461624741693 0.00110219933626 0)
(-0.222628535927 -0.00521968643243 0.0181714158891)
(-0.105745349908 0.00228050250903 0.000786606245033)
(-0.185204068848 0.00441226650812 0)
(-0.0406206858216 0.000969880704118 0)
(-0.0523628938143 0.00138761457927 0)
(-0.0976688718532 0.0023319929806 0)
(-0.417201030323 -0.0101596921941 0.0348064186844)
(0 0 0)
(0 0 0)
(0 0 0)
(0 0 0)
(0 0 0)
(0 0 0)
(0 0 0)
(0 0 0)
(0 0 0)
(0 0 0)
(0 0 0)
(0 0 0)
(0 0 0)
(0 0 0)
(0 0 0)
(0 0 0)
(0 0 0)
(0 0 0)
(0 0 0)
(0 0 0)
(0 0 0)
(0 0 0)
(0 0 0)
(-0.00495029004962 6.83190298127e-05 0)
(0 0 0)
(-0.00794904612051 0.000164646602528 0)
(0 0 0)
(0 0 0)
(0 0 0)
(-0.0359832204858 0.000953553895097 0)
(-0.0135237254428 0.000264146818058 0)
(-0.00814949177043 0.000159176724569 0)
(-0.0192630163949 0.000510469159424 0)
(0 0 0)
(-0.0102040962501 0.000211354891391 0)
(0 0 0)
(0 0 0)
(0 0 0)
(0 0 0)
(0 0 0)
(0 0 0)
(0 0 0)
(0 0 0)
(0 0 0)
(0 0 0)
(0 0 0)
(0 0 0)
(0 0 0)
(0 0 0)
(0 0 0)
(0 0 0)
(0 0 0)
(0 0 0)
(0 0 0)
(0 0 0)
(0 0 0)
(0 0 0)
(0 0 0)
(0 0 0)
(0 0 0)
(0 0 0)
(0 0 0)
(0 0 0)
(0 0 0)
(0 0 0)
(0 0 0)
(0 0 0)
(0 0 0)
(0 0 0)
(0 0 0)
(0 0 0)
(-0.0150714473348 0.000309856765245 0)
(0 0 0)
(0 0 0)
(0 0 0)
(0 0 0)
(0 0 0)
(0 0 0)
(0 0 0)
(-0.00336280247685 6.91364986047e-05 0)
(0 0 0)
(0 0 0)
(0 0 0)
(0 0 0)
(0 0 0)
(0 0 0)
(0 0 0)
(0 0 0)
(0 0 0)
(0 0 0)
(0 0 0)
(0 0 0)
(0 0 0)
(0 0 0)
(0 0 0)
(0 0 0)
(0 0 0)
(0 0 0)
(0 0 0)
(0 0 0)
(0 0 0)
(0 0 0)
(0 0 0)
(0 0 0)
(0 0 0)
(0 0 0)
(0 0 0)
(-0.322933529967 0.00896006932899 0)
(-0.00773655294736 0.000159057270159 0)
(0 0 0)
(0 0 0)
(0 0 0)
(0 0 0)
(0 0 0)
(0 0 0)
(-0.0708945593858 0.0019827318635 0)
(0 0 0)
(0 0 0)
(0 0 0)
(0 0 0)
(0 0 0)
(0 0 0)
(0 0 0)
(0 0 0)
(0 0 0)
(0 0 0)
(0 0 0)
(0 0 0)
(0 0 0)
(0 0 0)
(0 0 0)
(0 0 0)
(0 0 0)
(0 0 0)
(0 0 0)
(0 0 0)
(0 0 0)
(0 0 0)
(0 0 0)
(0 0 0)
(0 0 0)
(0 0 0)
(0 0 0)
(-1.52151063756 0.0539061510424 0)
(-0.043485190471 0.00156068702615 0)
(0 0 0)
(0 0 0)
(0 0 0)
(0 0 0)
(0 0 0)
(0 0 0)
(-0.333759221929 0.0116994519075 0)
(-0.00658124333776 0.000255074495244 0)
(0 0 0)
(0 0 0)
(0 0 0)
(0 0 0)
(0 0 0)
(0 0 0)
(0 0 0)
(0 0 0)
(0 0 0)
(0 0 0)
(0 0 0)
(0 0 0)
(0 0 0)
(0 0 0)
(0 0 0)
(0 0 0)
(0 0 0)
(0 0 0)
(0 0 0)
(0 0 0)
(0 0 0)
(0 0 0)
(0 0 0)
(0 0 0)
(0 0 0)
(0 0 0)
(0 0 0)
(0 0 0)
(0 0 0)
(0 0 0)
(0 0 0)
(0 0 0)
(0 0 0)
(-2.56792640927 0.0778282440585 0)
(-0.077534878818 0.00234991292971 0)
(0 0 0)
(0 0 0)
(0 0 0)
(0 0 0)
(0 0 0)
(0 0 0)
(-2.56760334249 0.0778184526097 0)
(-0.572907394055 0.017363572541 0)
(-0.0160630012268 0.000498894765926 0)
(0 0 0)
(0 0 0)
(0 0 0)
(0 0 0)
(0 0 0)
(0 0 0)
(-0.0470270738896 0.00142528795639 0)
(-0.0775340713129 0.00234988845599 0)
(-0.0160629793545 0.000498894086605 0)
(0 0 0)
(0 0 0)
(0 0 0)
(0 0 0)
(0 0 0)
(0 0 0)
(0 0 0)
(0 0 0)
(0 0 0)
(0 0 0)
(0 0 0)
(0 0 0)
(0 0 0)
(0 0 0)
(0 0 0)
(0 0 0)
(0 0 0)
(0 0 0)
(0 0 0)
(0 0 0)
(0 0 0)
(0 0 0)
(0 0 0)
(0 0 0)
(0 0 0)
(0 0 0)
(-0.0761510538393 0.00157330118292 0)
(-0.00227074159831 4.69154727253e-05 0)
(0 0 0)
(0 0 0)
(0 0 0)
(0 0 0)
(0 0 0)
(0 0 0)
(-0.0413780843418 0.000854882312981 0)
(-0.0703049740705 0.00145251960799 0)
(-0.0158506438391 0.000327487922566 0)
(-0.000388665626309 5.34373793262e-06 0)
(0 0 0)
(0 0 0)
(0 0 0)
(0 0 0)
(0 0 0)
(0 0 0)
(-0.00119297496542 2.14496407377e-05 0)
(-0.00214813427113 4.43822999863e-05 0)
(-0.000390446869962 5.36822813353e-06 0)
(0 0 0)
(0 0 0)
(0 0 0)
(0 0 0)
(0 0 0)
(0 0 0)
(0 0 0)
(0 0 0)
(0 0 0)
(0 0 0)
(0 0 0)
(0 0 0)
(0 0 0)
(0 0 0)
(0 0 0)
(0 0 0)
(0 0 0)
(0 0 0)
(0 0 0)
(0 0 0)
(0 0 0)
(0 0 0)
(0 0 0)
(0 0 0)
(0 0 0)
(0 0 0)
(-0.000187496070115 2.77941369814e-06 0)
(-0.000188490832491 2.7941599068e-06 0)
(-2.41800942562e-05 3.28660128029e-07 0)
(0 0 0)
(0 0 0)
(0 0 0)
(0 0 0)
(0 0 0)
(0 0 0)
(0 0 0)
(-2.44535566464e-05 3.3237707732e-07 0)
(-2.43207417372e-05 3.30571833527e-07 0)
(-2.40375441221e-06 3.21461092114e-08 0)
(0 0 0)
(0 0 0)
(0 0 0)
(0 0 0)
(0 0 0)
(0 0 0)
(0 0 0)
(0 0 0)
(0 0 0)
(0 0 0)
(0 0 0)
(0 0 0)
(0 0 0)
(0 0 0)
(0 0 0)
(0 0 0)
(0 0 0)
(0 0 0)
(0 0 0)
(0 0 0)
(0 0 0)
(0 0 0)
(0 0 0)
(0 0 0)
(0 0 0)
(0 0 0)
(0 0 0)
(0 0 0)
(0 0 0)
(0 0 0)
(0 0 0)
(0 0 0)
(0 0 0)
(0 0 0)
(0 0 0)
(0 0 0)
(-0.00336288981055 6.9138294115e-05 0)
(-0.0091411200169 0.000187934032892 0)
(-0.00203966076692 4.19337753963e-05 0)
(-0.0868885566829 0.00211194746634 0)
(-0.017804875983 0.000366053847062 0)
(-0.0526998819297 0.00128094407787 0)
(-0.0107991529852 0.000222021849464 0)
(0 0 0)
(0 0 0)
(0 0 0)
(-0.00240944828358 4.95363076014e-05 0)
(0 0 0)
(0 0 0)
(0 0 0)
(0 0 0)
(0 0 0)
(0 0 0)
(-0.0178042495968 0.000366040969069 0)
(-0.00397269822317 8.16754617777e-05 0)
(-0.00397266416111 8.16747614891e-05 0)
(0 0 0)
(0 0 0)
(0 0 0)
(0 0 0)
(0 0 0)
(0 0 0)
(0 0 0)
(0 0 0)
(-0.0708943710102 0.00198272659514 0)
(-0.19587037014 0.00543459236372 0)
(-0.04300000125 0.00120259542266 0)
(-0.805377747308 0.0256562876737 0)
(-0.177716072351 0.00569800040523 0)
(-0.48847879104 0.0155610859964 0)
(-0.10778895676 0.00345597058934 0)
(0 0 0)
(-0.004692925688 9.64827558308e-05 0)
(0 0 0)
(-0.0228891996843 0.000754588381746 0)
(0 0 0)
(-0.0122215272221 0.000392743220782 0)
(0 0 0)
(-0.0149658989242 0.000409073852523 0)
(-0.0149655101902 0.000409063226972 0)
(-0.00284653701203 5.85224982781e-05 0)
(-0.177717742004 0.00569805393827 0)
(-0.0377412046364 0.00124421451709 0)
(-0.0377411865035 0.0012442139193 0)
(-0.00741375537784 0.000238243724559 0)
(0 0 0)
(0 0 0)
(0 0 0)
(-0.00336280395561 6.91365290069e-05 0)
(0 0 0)
(0 0 0)
(0 0 0)
(-0.333744750391 0.0116989446284 0)
(-0.907243630471 0.0318021271793 0)
(-0.20242449556 0.00709570101767 0)
(-2.23470434873 0.0777231120968 0)
(-0.492850777099 0.0170122290562 0)
(-1.33985842519 0.046249249248 0)
(-0.298937635218 0.0103187328907 0)
(0 0 0)
(-0.0263747504399 0.000946591940462 0)
(0 0 0)
(-0.0666844819733 0.00230181575141 0)
(0 0 0)
(-0.0404525841513 0.00139634278665 0)
(0 0 0)
(-0.0744686352289 0.00261039144159 0)
(-0.0744681213036 0.00261037342668 0)
(-0.0140863087776 0.000547020256398 0)
(-0.492861444676 0.0170125972797 0)
(-0.109969326818 0.00379592254676 0)
(-0.109967334278 0.00379585376823 0)
(-0.024537027642 0.00084696941549 0)
(0 0 0)
(0 0 0)
(0 0 0)
(-0.0134619439537 0.000494712407025 0)
(0 0 0)
(0 0 0)
(0 0 0)
(-7.17050097933 0.222448657329 0)
(-4.25931510091 0.129784274178 0)
(-3.99083400222 0.0950768701623 0)
(-1.91204258954 0.0455521389589 0)
(-0.572940627528 0.0173645797751 0)
(-1.55742454859 0.0472021384385 0)
(-0.347496575286 0.0105318626629 0)
(-2.43663445261 0.0580499157206 0)
(-0.258610228388 0.00616108089021 0)
(-1.16447940993 0.0277423359637 0)
(-0.123395199578 0.00293974376344 0)
(0 0 0)
(-0.0470270055002 0.00142528588366 0)
(0 0 0)
(-0.0933076394357 0.00222786191826 0)
(0 0 0)
(-0.044535544759 0.00106335392019 0)
(0 0 0)
(0 0 0)
(0 0 0)
(0 0 0)
(0 0 0)
(0 0 0)
(0 0 0)
(0 0 0)
(0 0 0)
(0 0 0)
(0 0 0)
(0 0 0)
(0 0 0)
(0 0 0)
(0 0 0)
(0 0 0)
(0 0 0)
(0 0 0)
(0 0 0)
(0 0 0)
(0 0 0)
(0 0 0)
(0 0 0)
(0 0 0)
(0 0 0)
(0 0 0)
(0 0 0)
(0 0 0)
(0 0 0)
(0 0 0)
(0 0 0)
(0 0 0)
(0 0 0)
(0 0 0)
(0 0 0)
(0 0 0)
(0 0 0)
(0 0 0)
(0 0 0)
(0 0 0)
(0 0 0)
(0 0 0)
(0 0 0)
(-1.90468532429 -0.141661266835 0.320535700521)
(-0.751792078927 0.000470826738247 0.0355779715849)
(-1.23091466952 0.027028530848 0.00379428458054)
(-2.50326451856 0.0596372977379 0)
(-0.126575972708 0.00301552189746 0)
(-0.2646107702 0.00630403665698 0)
(-1.5573258959 0.0471991484907 0)
(-0.572903478437 0.0173634538672 0)
(-0.347483847564 0.0105314769134 0)
(-2.48222215733 0.0591359885265 0)
(-1.16235763362 0.0276917871685 0)
(-0.263108457472 0.00626824584429 0)
(-0.12291959766 0.00292841311381 0)
(-0.127832250961 0.00387431648758 0)
(-0.127831639809 0.0038742979649 0)
(-0.0285230539874 0.000864471504718 0)
(-0.706712443256 0.0168365828226 0)
(-0.0736268065669 0.00175795207665 0)
(-0.0733141883281 0.00175048784035 0)
(-0.00542475717234 7.4867157938e-05 0)
(0 0 0)
(0 0 0)
(0 0 0)
(-0.0270190310205 0.0006451204922 0)
(0 0 0)
(0 0 0)
(0 0 0)
(0 0 0)
(0 0 0)
(0 0 0)
(0 0 0)
(0 0 0)
(0 0 0)
(0 0 0)
(0 0 0)
(0 0 0)
(0 0 0)
(0 0 0)
(0 0 0)
(0 0 0)
(0 0 0)
(0 0 0)
(0 0 0)
(0 0 0)
(0 0 0)
(0 0 0)
(0 0 0)
(0 0 0)
(0 0 0)
(0 0 0)
(0 0 0)
(0 0 0)
(0 0 0)
(0 0 0)
(0 0 0)
(0 0 0)
(0 0 0)
(0 0 0)
(0 0 0)
(0 0 0)
(0 0 0)
(0 0 0)
(0 0 0)
(0 0 0)
(0 0 0)
(0 0 0)
(0 0 0)
(0 0 0)
(0 0 0)
(-0.0775341640948 0.00234989126801 0)
(0 0 0)
(0 0 0)
(-0.0456531466334 0.00109003836608 0)
(-0.0956011108815 0.00228262204 0)
(0 0 0)
(0 0 0)
(-0.047026596835 0.00142527349791 0)
(0 0 0)
(0 0 0)
(-0.0951260707547 0.00227127973389 0)
(-0.0445066876648 0.00106266491314 0)
(0 0 0)
(0 0 0)
(0 0 0)
(0 0 0)
(0 0 0)
(-0.0269612112215 0.00064373995649 0)
(0 0 0)
(0 0 0)
(0 0 0)
(0 0 0)
(0 0 0)
(0 0 0)
(0 0 0)
(0 0 0)
(0 0 0)
(0 0 0)
(0 0 0)
(0 0 0)
(0 0 0)
(0 0 0)
(0 0 0)
(0 0 0)
(0 0 0)
(0 0 0)
(0 0 0)
(0 0 0)
(0 0 0)
(0 0 0)
(0 0 0)
(0 0 0)
(0 0 0)
(0 0 0)
(0 0 0)
(0 0 0)
(0 0 0)
(0 0 0)
(0 0 0)
(0 0 0)
(0 0 0)
(0 0 0)
(0 0 0)
(0 0 0)
(0 0 0)
(0 0 0)
(0 0 0)
(0 0 0)
(0 0 0)
(0 0 0)
(0 0 0)
(0 0 0)
(0 0 0)
(0 0 0)
(0 0 0)
(0 0 0)
(0 0 0)
(0 0 0)
(0 0 0)
(0 0 0)
(0 0 0)
(0 0 0)
(0 0 0)
(0 0 0)
(0 0 0)
(0 0 0)
(0 0 0)
(0 0 0)
(0 0 0)
(0 0 0)
(0 0 0)
(0 0 0)
(0 0 0)
(0 0 0)
(0 0 0)
(0 0 0)
(0 0 0)
(0 0 0)
(0 0 0)
(0 0 0)
(0 0 0)
(0 0 0)
(0 0 0)
(0 0 0)
(0 0 0)
(0 0 0)
(0 0 0)
(0 0 0)
(0 0 0)
(0 0 0)
(0 0 0)
(0 0 0)
(0 0 0)
(0 0 0)
(0 0 0)
(0 0 0)
(0 0 0)
(0 0 0)
(0 0 0)
(0 0 0)
(0 0 0)
(0 0 0)
(0 0 0)
(0 0 0)
(0 0 0)
(0 0 0)
(0 0 0)
(0 0 0)
(0 0 0)
(0 0 0)
(0 0 0)
(0 0 0)
(0 0 0)
(0 0 0)
(0 0 0)
(0 0 0)
(0 0 0)
(0 0 0)
(0 0 0)
(0 0 0)
(0 0 0)
(0 0 0)
(0 0 0)
(0 0 0)
(0 0 0)
(0 0 0)
(0 0 0)
(0 0 0)
(0 0 0)
(0 0 0)
(0 0 0)
(0 0 0)
(0 0 0)
(0 0 0)
(0 0 0)
(0 0 0)
(0 0 0)
(0 0 0)
(0 0 0)
(0 0 0)
(0 0 0)
(0 0 0)
(0 0 0)
(0 0 0)
(0 0 0)
(0 0 0)
(0 0 0)
(0 0 0)
(0 0 0)
(0 0 0)
(0 0 0)
(0 0 0)
(0 0 0)
(0 0 0)
(0 0 0)
(0 0 0)
(0 0 0)
(0 0 0)
(0 0 0)
(0 0 0)
(0 0 0)
(0 0 0)
(0 0 0)
(0 0 0)
(0 0 0)
(0 0 0)
(0 0 0)
(0 0 0)
(0 0 0)
(0 0 0)
(0 0 0)
(0 0 0)
(0 0 0)
(0 0 0)
(0 0 0)
(0 0 0)
(0 0 0)
(0 0 0)
(0 0 0)
(0 0 0)
(0 0 0)
(-0.00192747836668 3.40382438233e-05 0)
(-0.00381629847933 6.73938034209e-05 0)
(-0.00100308561357 1.77098805702e-05 0)
(-0.00190377146107 3.36195924665e-05 0)
(-0.206135315084 0.00425881085963 0)
(-0.119997656071 0.00247918373715 0)
(-0.00380975956576 6.72783296815e-05 0)
(-0.00216605198843 3.82513272215e-05 0)
(-0.0019336097946 3.41465215825e-05 0)
(-0.00113580360233 2.00530701232e-05 0)
(-0.0167343579333 0.000345746215148 0)
(-0.0441280281171 0.00091169688844 0)
(-0.00976734139969 0.000201801666635 0)
(-0.000755683835212 1.33419025151e-05 0)
(-0.000165725057524 2.92594264792e-06 0)
(-0.000403139081138 7.11758286989e-06 0)
(-8.87704997401e-05 1.56727893143e-06 0)
(0 0 0)
(-0.00126167664686 2.268489414e-05 0)
(0 0 0)
(-2.24402638456e-05 3.07022246983e-07 0)
(0 0 0)
(-1.30814376359e-05 1.78977056793e-07 0)
(0 0 0)
(0 0 0)
(0 0 0)
(0 0 0)
(0 0 0)
(0 0 0)
(0 0 0)
(0 0 0)
(0 0 0)
(0 0 0)
(0 0 0)
(0 0 0)
(0 0 0)
(0 0 0)
(0 0 0)
(0 0 0)
(0 0 0)
(0 0 0)
(0 0 0)
(0 0 0)
(0 0 0)
(0 0 0)
(0 0 0)
(0 0 0)
(0 0 0)
(0 0 0)
(0 0 0)
(0 0 0)
(0 0 0)
(0 0 0)
(0 0 0)
(0 0 0)
(0 0 0)
(0 0 0)
(0 0 0)
(0 0 0)
(0 0 0)
(0 0 0)
(0 0 0)
(0 0 0)
(0 0 0)
(0 0 0)
(0 0 0)
(-0.0693267039609 0.00143230828532 0)
(-0.00920953253309 0.000190276856112 0)
(-0.0154014131198 0.00031820642987 0)
(-0.000380609863294 6.71982045365e-06 0)
(-0.000728919032103 1.28693591348e-05 0)
(-8.73876147987e-05 1.54286354073e-06 0)
(-0.000162629721161 2.87129323757e-06 0)
(-0.0431346894896 0.000891174246153 0)
(-0.0156263246394 0.000322853295136 0)
(-0.0095866687673 0.000198068814793 0)
(-0.000713551043232 1.25980311007e-05 0)
(-0.000403714556782 7.1277431242e-06 0)
(-0.000142510728435 2.51608431666e-06 0)
(-8.47453800782e-05 1.4962138224e-06 0)
(-0.00357783420255 7.39211291458e-05 0)
(-0.00357595005138 7.38822009635e-05 0)
(-0.000765895801104 1.37707749553e-05 0)
(-0.000137773263422 2.43244246351e-06 0)
(-2.98818152646e-05 4.88928823179e-07 0)
(-2.86125947547e-05 4.68161728383e-07 0)
(-3.6750729026e-06 4.91478223761e-08 0)
(0 0 0)
(0 0 0)
(0 0 0)
(0 0 0)
(0 0 0)
(0 0 0)
(0 0 0)
(0 0 0)
(0 0 0)
(0 0 0)
(0 0 0)
(0 0 0)
(0 0 0)
(0 0 0)
(0 0 0)
(0 0 0)
(0 0 0)
(0 0 0)
(0 0 0)
(0 0 0)
(0 0 0)
(0 0 0)
(0 0 0)
(0 0 0)
(0 0 0)
(0 0 0)
(0 0 0)
(0 0 0)
(0 0 0)
(0 0 0)
(0 0 0)
(0 0 0)
(0 0 0)
(0 0 0)
(0 0 0)
(0 0 0)
(0 0 0)
(0 0 0)
(0 0 0)
(0 0 0)
(0 0 0)
(0 0 0)
(0 0 0)
(0 0 0)
(0 0 0)
(0 0 0)
(0 0 0)
(0 0 0)
(0 0 0)
(-0.00210607982207 4.35134189302e-05 0)
(0 0 0)
(0 0 0)
(-1.01848358939e-05 1.39346454338e-07 0)
(-1.92338296958e-05 2.63152592676e-07 0)
(0 0 0)
(0 0 0)
(-0.00125115071789 2.24956383706e-05 0)
(0 0 0)
(0 0 0)
(-1.65940867271e-05 2.27036269656e-07 0)
(-1.024688149e-05 1.40195347135e-07 0)
(0 0 0)
(0 0 0)
(0 0 0)
(0 0 0)
(0 0 0)
(0 0 0)
(0 0 0)
(0 0 0)
(0 0 0)
(0 0 0)
(0 0 0)
(0 0 0)
(0 0 0)
(0 0 0)
(0 0 0)
(0 0 0)
(0 0 0)
(0 0 0)
(0 0 0)
(0 0 0)
(0 0 0)
(0 0 0)
(0 0 0)
(0 0 0)
(0 0 0)
(0 0 0)
(0 0 0)
(0 0 0)
(0 0 0)
(0 0 0)
(0 0 0)
(0 0 0)
(0 0 0)
(0 0 0)
(0 0 0)
(0 0 0)
(0 0 0)
(0 0 0)
(0 0 0)
(0 0 0)
(0 0 0)
(0 0 0)
(0 0 0)
(0 0 0)
(0 0 0)
(0 0 0)
(0 0 0)
(0 0 0)
(0 0 0)
(0 0 0)
(0 0 0)
(0 0 0)
(0 0 0)
(0 0 0)
(0 0 0)
(0 0 0)
(0 0 0)
(0 0 0)
(0 0 0)
(0 0 0)
(0 0 0)
(0 0 0)
(0 0 0)
(0 0 0)
(0 0 0)
(0 0 0)
(0 0 0)
(0 0 0)
(0 0 0)
(0 0 0)
(0 0 0)
(0 0 0)
(0 0 0)
(0 0 0)
(0 0 0)
(0 0 0)
(0 0 0)
(0 0 0)
(0 0 0)
(0 0 0)
(0 0 0)
(0 0 0)
(0 0 0)
(0 0 0)
(0 0 0)
(0 0 0)
(0 0 0)
(0 0 0)
(0 0 0)
(0 0 0)
(0 0 0)
(0 0 0)
(0 0 0)
(0 0 0)
(0 0 0)
(0 0 0)
(0 0 0)
(0 0 0)
(0 0 0)
(0 0 0)
(0 0 0)
(0 0 0)
(0 0 0)
(0 0 0)
(0 0 0)
(0 0 0)
(0 0 0)
(0 0 0)
(0 0 0)
(0 0 0)
(0 0 0)
(0 0 0)
(0 0 0)
(0 0 0)
(0 0 0)
(0 0 0)
(0 0 0)
(0 0 0)
(0 0 0)
(0 0 0)
(0 0 0)
(0 0 0)
(0 0 0)
(0 0 0)
(0 0 0)
(0 0 0)
(0 0 0)
(0 0 0)
(0 0 0)
(0 0 0)
(0 0 0)
(0 0 0)
(0 0 0)
(0 0 0)
(0 0 0)
(0 0 0)
(0 0 0)
(0 0 0)
(0 0 0)
(0 0 0)
(0 0 0)
(0 0 0)
(0 0 0)
(0 0 0)
(0 0 0)
(0 0 0)
(0 0 0)
(0 0 0)
(0 0 0)
(0 0 0)
(0 0 0)
(0 0 0)
(0 0 0)
(0 0 0)
(0 0 0)
(0 0 0)
(0 0 0)
(0 0 0)
(0 0 0)
(0 0 0)
(0 0 0)
(0 0 0)
(0 0 0)
(0 0 0)
(0 0 0)
(0 0 0)
(0 0 0)
(0 0 0)
(0 0 0)
(0 0 0)
(0 0 0)
(0 0 0)
(0 0 0)
(0 0 0)
(0 0 0)
(0 0 0)
(0 0 0)
(0 0 0)
(0 0 0)
(0 0 0)
(0 0 0)
(0 0 0)
(0 0 0)
(0 0 0)
(-7.07993587873 0.186874743932 0)
(-5.49967978309 0.144765282519 0)
(-5.78127400747 0.137731972283 0)
(-3.54197109286 0.0843832455891 0)
(-4.85451188622 0.127782855078 0)
(-5.13525266206 0.122341282632 0)
(-8.02948268961 0.212201918391 0)
(-5.50131404015 0.144808300239 0)
(-2.59861140654 0.0684019305234 0)
(-2.77053723061 0.0660047519911 0)
(-2.77959567796 0.0662205587179 0)
(-3.7808480301 0.0995213457555 0)
(-3.78112286355 0.0995285800571 0)
(-4.0196257865 0.0957628001544 0)
(-1.57540767753 0.0414686575427 0)
(-3.33525156924 0.0877921360398 0)
(-1.3113526319 0.0312414156667 0)
(-2.16134012744 0.0514913560822 0)
(-2.94398825234 0.0774931101249 0)
(-1.16233467583 0.0276912402263 0)
(-1.78475542056 0.0469792120406 0)
(-0.74408309217 0.0195861219751 0)
(-0.351373968916 0.00924903883245 0)
(-0.620637355887 0.0147859463137 0)
(-0.229440325419 0.00546614267036 0)
(-0.310172953039 0.00816452538099 0)
(-0.550676493359 0.0131192120322 0)
(-0.842922911596 0.0221878324287 0)
(-1.22733807602 0.0323065978983 0)
(-1.57605683136 0.04148574489 0)
(-1.68982636235 0.0402581018304 0)
(-0.62567474255 0.0149059560553 0)
(-2.2931260309 0.0603607938657 0)
(-0.843541950878 0.0222041270859 0)
(-0.909371046443 0.0216646828367 0)
(-0.579751128301 0.0152604950087 0)
(-0.166110831104 0.00437245118672 0)
(-0.179447257107 0.0042751173202 0)
(-0.296134611288 0.00705505465083 0)
(-0.241691406963 0.00636192036469 0)
(-0.398466339417 0.0104886274247 0)
(-0.430666040509 0.010260105831 0)
(-0.0359410499535 0.000952436377688 0)
(-0.129271698078 0.00340275336601 0)
(-0.030131457679 0.000719434416203 0)
(-0.082769127197 0.00197623889753 0)
(-0.114111865675 0.00300370878391 0)
(-0.0267172328848 0.000637914602332 0)
(-0.0407179525161 0.0010790241034 0)
(-0.0089952313403 0.00018631597511 0)
(0 0 0)
(-0.00778563835033 0.000152069901559 0)
(0 0 0)
(0 0 0)
(-0.00533770640768 7.36657689838e-05 0)
(-0.0101913862862 0.00021109163309 0)
(-0.0280021606892 0.000742056131603 0)
(-0.0611087146205 0.00160853371202 0)
(-0.0647348424703 0.00154564289908 0)
(-0.0130565757893 0.000255022402226 0)
(-0.0889140662826 0.00234043988613 0)
(-0.0192457421769 0.00051001139334 0)
(-0.0208918488679 0.000498824691914 0)
(-0.00509923147776 7.05512632569e-05 0)
(0 0 0)
(0 0 0)
(0 0 0)
(0 0 0)
(0 0 0)
(-0.00417443765848 5.76114789199e-05 0)
(0 0 0)
(0 0 0)
(0 0 0)
(0 0 0)
(0 0 0)
(0 0 0)
(0 0 0)
(0 0 0)
(0 0 0)
(0 0 0)
(0 0 0)
(0 0 0)
(0 0 0)
(0 0 0)
(0 0 0)
(0 0 0)
(0 0 0)
(0 0 0)
(0 0 0)
(0 0 0)
(0 0 0)
(0 0 0)
(0 0 0)
(0 0 0)
(0 0 0)
(0 0 0)
(0 0 0)
(0 0 0)
(0 0 0)
(0 0 0)
(0 0 0)
(0 0 0)
(0 0 0)
(0 0 0)
(0 0 0)
(0 0 0)
(0 0 0)
(0 0 0)
(0 0 0)
(0 0 0)
(0 0 0)
(0 0 0)
(0 0 0)
(0 0 0)
(0 0 0)
(0 0 0)
(0 0 0)
(0 0 0)
(0 0 0)
(0 0 0)
(0 0 0)
(0 0 0)
(0 0 0)
(0 0 0)
(0 0 0)
(0 0 0)
(0 0 0)
(0 0 0)
(0 0 0)
(0 0 0)
(0 0 0)
(0 0 0)
(0 0 0)
(0 0 0)
(0 0 0)
(0 0 0)
(0 0 0)
(0 0 0)
(0 0 0)
(0 0 0)
(0 0 0)
(0 0 0)
(0 0 0)
(0 0 0)
(0 0 0)
(0 0 0)
(0 0 0)
(0 0 0)
(0 0 0)
(0 0 0)
(0 0 0)
(0 0 0)
(0 0 0)
(0 0 0)
(0 0 0)
(0 0 0)
(0 0 0)
(0 0 0)
(0 0 0)
(0 0 0)
(0 0 0)
(0 0 0)
(0 0 0)
(0 0 0)
(0 0 0)
(0 0 0)
(0 0 0)
(0 0 0)
(0 0 0)
(0 0 0)
(0 0 0)
(0 0 0)
(0 0 0)
(0 0 0)
(0 0 0)
(0 0 0)
(0 0 0)
(0 0 0)
(0 0 0)
(0 0 0)
(0 0 0)
(0 0 0)
(0 0 0)
(0 0 0)
(0 0 0)
(0 0 0)
(0 0 0)
(0 0 0)
(0 0 0)
(0 0 0)
(0 0 0)
(0 0 0)
(0 0 0)
(0 0 0)
(0 0 0)
(0 0 0)
(0 0 0)
(0 0 0)
(0 0 0)
(0 0 0)
(0 0 0)
(0 0 0)
(0 0 0)
(0 0 0)
(0 0 0)
(0 0 0)
(0 0 0)
(0 0 0)
(0 0 0)
(0 0 0)
(0 0 0)
(0 0 0)
(0 0 0)
(0 0 0)
(0 0 0)
(0 0 0)
(0 0 0)
(0 0 0)
(0 0 0)
(0 0 0)
(0 0 0)
(0 0 0)
(0 0 0)
(0 0 0)
(0 0 0)
(0 0 0)
(0 0 0)
(0 0 0)
(0 0 0)
(0 0 0)
(0 0 0)
(0 0 0)
(0 0 0)
(0 0 0)
(0 0 0)
(0 0 0)
(0 0 0)
(0 0 0)
(-1.5582186955 0.00043244060767 0.0671748483306)
(-2.73509687103 -0.0762711537428 0.248073427787)
(-1.75286091659 0.0417598250607 0)
(-0.646070612489 0.0153918633812 0)
(-2.98059688661 -0.00902254595722 0.146214211916)
(-0.936481361923 0.022310553836 0)
(-1.44066455366 -0.0365835764947 0.123847387879)
(-1.67041349111 0.0327823252283 0.0183728791407)
(-3.33783058708 0.0878600222187 0)
(-2.23182273181 0.053170520242 0)
(-1.34403132725 0.0320199466888 0)
(-3.16121320875 0.0565141633501 0.0442979259442)
(-1.78654602682 0.0470263452611 0)
(-1.1947551705 0.0284636199246 0)
(-0.673155938216 0.00664396575233 0.0181637932895)
(-0.171124410577 0.0040015271585 0.000786473652407)
(-0.304713260895 0.00725943076729 0)
(-0.183612178308 0.00437434161068 0)
(-0.241779489078 0.00636423890555 0)
(-0.441988307499 0.0105298453662 0)
(-0.574023510085 -0.00602861077174 0.0348012774397)
(-0.749047171479 0.0192725452155 0.00069475080186)
(-0.351669654173 0.00925682200556 0)
(-0.635593532224 0.0151422594139 0)
(-0.234745190337 0.00559252476313 0)
(-0.843735019773 0.0222092091405 0)
(-0.310395525554 0.00817038404446 0)
(-0.564525432378 0.0134491465212 0)
(-1.57614284367 0.0414880089483 0)
(-3.33725019969 0.0878447449758 0)
(-2.17462064149 0.0518077485229 0)
(-1.33452584564 0.0317934899029 0)
(-2.94459500485 0.0775090813636 0)
(-1.78627603561 0.0470192384195 0)
(-1.17027608503 0.0278804348485 0)
(-1.22738000163 0.0323077014848 0)
(-1.57574103844 0.0414774324331 0)
(-1.68991435819 0.0402601982267 0)
(-0.623250140251 0.0148481927914 0)
(-2.29286704853 0.0603539768041 0)
(-0.843489173015 0.0222027378409 0)
(-0.908156903256 0.0216357573204 0)
(-0.744405007275 0.0195945955832 0)
(-0.351623963518 0.00925561931363 0)
(-0.63128973992 0.0150397266847 0)
(-0.230901828327 0.00550096123765 0)
(-0.843611462312 0.0222059568001 0)
(-0.310266493179 0.00816698759068 0)
(-0.553820435389 0.0131941127091 0)
(-0.579679760665 0.0152586164346 0)
(-0.166029885545 0.00437032049781 0)
(-0.294887607731 0.00702534627528 0)
(-0.179226653721 0.0042698617071 0)
(-0.398358399948 0.0104857861888 0)
(-0.241603215628 0.0063595989489 0)
(-0.429786840505 0.0102391599374 0)
(-0.273806829932 0.00720727836057 0)
(-0.955735597074 0.025157343551 0)
(-0.379331963044 0.00903713253387 0)
(-0.378484416622 0.00901694074913 0)
(-0.511574923114 0.0134659273258 0)
(-0.511555372537 0.0134654127059 0)
(-0.202955063235 0.00483516282192 0)
(-0.129336979656 0.00340447173991 0)
(-0.100740094672 0.00265173043548 0)
(-0.179494463482 0.0042762419559 0)
(-0.0393600482458 0.000939781063135 0)
(-0.24165989846 0.00636109098235 0)
(-0.0523037704015 0.00138604781121 0)
(-0.0944518093697 0.00225518071701 0)
(-0.129328791914 0.00340425621811 0)
(-0.100701834018 0.00265072331968 0)
(-0.178909081811 0.00426229593432 0)
(-0.0392699709985 0.000937630331746 0)
(-0.241612901154 0.0063598538961 0)
(-0.0522940441456 0.00138579006582 0)
(-0.0943300476413 0.00225227347041 0)
(-0.0610937721755 0.00160814038961 0)
(-0.00899673051025 0.000186347027042 0)
(-0.0185776654715 0.000443570040828 0)
(-0.018547476346 0.000442849229505 0)
(-0.0247088331176 0.000654783083464 0)
(-0.024704439172 0.000654666644081 0)
(-0.0445778205567 0.00106436331921 0)
(0 0 0)
(-0.0359525140771 0.000952740176503 0)
(-0.00792303422069 0.000154753532051 0)
(-0.01310751126 0.000256017279162 0)
(-0.0101952353661 0.000211171358118 0)
(-0.0192409103617 0.000509883350432 0)
(0 0 0)
(0 0 0)
(0 0 0)
(0 0 0)
(0 0 0)
(0 0 0)
(0 0 0)
(0 0 0)
(0 0 0)
(0 0 0)
(-0.00478754441871 6.60729748343e-05 0)
(0 0 0)
(-0.0079401857447 0.000164463079782 0)
(0 0 0)
(0 0 0)
(0 0 0)
(0 0 0)
(0 0 0)
(0 0 0)
(0 0 0)
(0 0 0)
(0 0 0)
(0 0 0)
(0 0 0)
(0 0 0)
(0 0 0)
(0 0 0)
(0 0 0)
(0 0 0)
(0 0 0)
(0 0 0)
(0 0 0)
(0 0 0)
(0 0 0)
(0 0 0)
(0 0 0)
(0 0 0)
(0 0 0)
(0 0 0)
(0 0 0)
(0 0 0)
(0 0 0)
(0 0 0)
(0 0 0)
(0 0 0)
(0 0 0)
(0 0 0)
(0 0 0)
(0 0 0)
(0 0 0)
(0 0 0)
(0 0 0)
(0 0 0)
(0 0 0)
(0 0 0)
(0 0 0)
(0 0 0)
(0 0 0)
(0 0 0)
(0 0 0)
(0 0 0)
(0 0 0)
(0 0 0)
(0 0 0)
(0 0 0)
(0 0 0)
(0 0 0)
(0 0 0)
(0 0 0)
(0 0 0)
(0 0 0)
(0 0 0)
(0 0 0)
(0 0 0)
(0 0 0)
(0 0 0)
(0 0 0)
(0 0 0)
(0 0 0)
(0 0 0)
(0 0 0)
(0 0 0)
(0 0 0)
(0 0 0)
(0 0 0)
(0 0 0)
(0 0 0)
(0 0 0)
(0 0 0)
(0 0 0)
(0 0 0)
(0 0 0)
(0 0 0)
(0 0 0)
(0 0 0)
(0 0 0)
(0 0 0)
(0 0 0)
(0 0 0)
(0 0 0)
(0 0 0)
(0 0 0)
(0 0 0)
(0 0 0)
(0 0 0)
(0 0 0)
(0 0 0)
(0 0 0)
(0 0 0)
(0 0 0)
(0 0 0)
(0 0 0)
(0 0 0)
(0 0 0)
(0 0 0)
(0 0 0)
(0 0 0)
(0 0 0)
(0 0 0)
(0 0 0)
(0 0 0)
(0 0 0)
(0 0 0)
(0 0 0)
(0 0 0)
(0 0 0)
(0 0 0)
(0 0 0)
(0 0 0)
(0 0 0)
(0 0 0)
(0 0 0)
(0 0 0)
(0 0 0)
(0 0 0)
(0 0 0)
(0 0 0)
(0 0 0)
(0 0 0)
(0 0 0)
(0 0 0)
(0 0 0)
(0 0 0)
(0 0 0)
(0 0 0)
(0 0 0)
(0 0 0)
(0 0 0)
(0 0 0)
(0 0 0)
(0 0 0)
(0 0 0)
(0 0 0)
(0 0 0)
(0 0 0)
(0 0 0)
(0 0 0)
(0 0 0)
(0 0 0)
(0 0 0)
(0 0 0)
(0 0 0)
(0 0 0)
(0 0 0)
(0 0 0)
(0 0 0)
(0 0 0)
(0 0 0)
(0 0 0)
(0 0 0)
(0 0 0)
(0 0 0)
(0 0 0)
(0 0 0)
(0 0 0)
(0 0 0)
(0 0 0)
(0 0 0)
(0 0 0)
(0 0 0)
(0 0 0)
(0 0 0)
(0 0 0)
(0 0 0)
(0 0 0)
(0 0 0)
(0 0 0)
(0 0 0)
(0 0 0)
(0 0 0)
(-0.0280108504477 0.000742286409855 0)
(-0.0611420514559 0.00160941122063 0)
(-0.0662119054936 0.00158091002705 0)
(-0.0133951329987 0.000261635137008 0)
(-0.0889401555093 0.00234112661962 0)
(-0.0214051873594 0.000511081429769 0)
(-0.0192558309077 0.000510278744301 0)
(-0.0359587551548 0.000952905564811 0)
(-0.129351617355 0.00340485704064 0)
(-0.0847208608962 0.0020228395104 0)
(-0.0309483787491 0.000738939650213 0)
(-0.114175196115 0.00300537579897 0)
(-0.0407379820347 0.00107955488484 0)
(-0.0274073793779 0.000654392900352 0)
(-0.0051015047938 7.05827160981e-05 0)
(0 0 0)
(0 0 0)
(0 0 0)
(0 0 0)
(-0.00429165511643 5.92291988764e-05 0)
(0 0 0)
(-0.00900033695276 0.000186421726383 0)
(0 0 0)
(-0.00803435857963 0.000156927931059 0)
(0 0 0)
(-0.0101969435131 0.000211206738538 0)
(0 0 0)
(-0.00549891915153 7.5890668564e-05 0)
(-0.0359401284041 0.000952411956666 0)
(-0.129329995908 0.00340428791023 0)
(-0.0835570681998 0.00199505218832 0)
(-0.0308142220181 0.000735736454056 0)
(-0.114120255186 0.00300392961677 0)
(-0.0407305324202 0.00107935747035 0)
(-0.0270696160093 0.000646328285804 0)
(-0.027986596011 0.000741643668257 0)
(-0.0610726230975 0.00160758369316 0)
(-0.0648816678402 0.00154914857828 0)
(-0.0130923446714 0.000255721043769 0)
(-0.0888674145198 0.00233921189543 0)