/*--------------------------------*- C++ -*----------------------------------*\
| =========                 |                                                 |
| \\      /  F ield         | OpenFOAM: The Open Source CFD Toolbox           |
|  \\    /   O peration     | Version:  v1906                                 |
|   \\  /    A nd           | Web:      www.OpenFOAM.com                      |
|    \\/     M anipulation  |                                                 |
\*---------------------------------------------------------------------------*/
FoamFile
{
    version     2.0;
    format      ascii;
    class       surfaceScalarField;
    location    "12.65";
    object      phi;
}
// * * * * * * * * * * * * * * * * * * * * * * * * * * * * * * * * * * * * * //

dimensions      [0 3 -1 0 0 0 0];
oriented        oriented;


internalField   nonuniform List<scalar> 
92311
(
0.20407291919
9.97360380251e-06
-0.00129703352075
-0.203844908975
0.00105904964771
-7.08084934012e-05
0.204228494366
-0.000989297126207
0.000904757472921
0.204122834825
8.23604498036e-05
-0.00135778050114
-0.203929615409
0.00109241417189
-1.93081044239e-05
0.204196773816
-0.00100297232047
0.000877812271033
0.203893063862
0.000133562618773
0.000105432434839
-0.00144753165262
-0.20394304003
0.00109049398405
0.000130531201655
0.000120009777094
-1.40430790865e-05
-6.57143128433e-05
-6.51463915898e-05
0.204124399215
-0.00100828324471
0.000892831370891
9.82901102869e-06
0.0512732492275
5.34108438036e-05
5.65844379995e-05
4.84551846071e-05
6.34751385424e-05
-0.000390841715754
-0.0512699453666
0.00029917794109
-0.0512589499576
0.0512166971313
1.73140600697e-05
3.34308465948e-05
2.99821525722e-05
1.61049144991e-05
-0.000283142384481
0.000214541142028
-4.83095090572e-05
-0.011046015805
-5.17716782086e-05
-4.57349526716e-05
-4.60512967729e-05
-0.000390139175805
0.00893946747317
-0.0015874526354
0.00427594804417
-0.0200102068142
2.12639431285e-05
-0.000130476822946
0.0174262217427
1.17481371334e-05
7.48666148451e-06
-1.13558612961e-05
-1.62608467768e-05
0.00270170332454
-0.0131401071765
0.00398281170347
0.00439519451061
0.00512304990743
-0.0184442635652
0.0369711530421
0.0451237399485
0.00509935480415
4.70236989993e-05
5.27558278119e-05
4.80674817344e-05
5.4172998159e-05
-0.000338843856939
0.000256554115384
-7.1618864301e-05
0.0118078598437
0.000122604029349
-0.000100301513816
-0.0118068218414
0.0118055209639
5.82357039865e-05
-7.37024848479e-05
-0.0118137438984
0.000111182496693
-8.7502038463e-05
0.00015094886421
-2.20052240971e-05
0.0512459858638
-1.94975745636e-05
3.65599671051e-07
2.20898513267e-06
-0.000206999610697
-3.13738852353e-05
0.0511911128024
-3.37307062639e-05
-2.71601616718e-06
-9.04291584012e-06
-0.0511698937052
0.000141456558448
2.91252964228e-05
-6.12424775211e-05
0.0118097292222
9.43867775134e-05
-6.6478623777e-05
3.83652640507e-05
0.0127680046793
-4.52688928958e-05
-2.41326874086e-05
-0.0127589691379
0.0127606472234
3.8468153069e-05
-4.22064557884e-05
-0.0127498635151
-0.000128732138816
0.204264867339
-0.00209744251728
0.00177995373165
-0.203818646665
0.204305401163
-3.78483491776e-05
-0.000574951335566
0.000536279160202
-5.94521827184e-05
0.204402738577
-0.000418480493035
0.000380876172925
-0.00013049061898
0.204349869079
-0.0021084355965
0.0017792559708
-0.204018671688
0.204394225068
-0.000112639015482
-0.000697640071373
0.00057532429791
-0.000125648524248
0.204614461511
-0.000507352535291
0.000353574814731
8.80165607902e-06
8.84595426166e-05
0.000112506579868
-0.00226203396758
0.204348403572
0.00185608229058
-0.204296786351
1.42366742603e-05
-0.000114165754357
-0.000109873713988
-0.000141892572872
-0.000153032372054
0.204562994319
-0.000580751605942
0.000548643734652
0.0513513660967
7.21809183394e-06
-8.54351613539e-06
3.8614282678e-06
-1.0764353071e-05
-0.000634752136558
-0.051257919696
0.000558319261883
0.0513081555341
0.000114606109088
-2.92062738033e-05
-2.61167893416e-05
-3.56945034856e-05
-3.63550213928e-05
-0.000163502619379
-0.00389628246104
0.00015084945198
-0.0207140601104
2.11654411706e-05
2.41991058703e-05
1.96121517336e-05
2.55936679985e-05
0.00435893207244
0.0089741454361
0.0103137972626
0.0108292017829
-0.0291907250788
0.000969999446633
0.0673020832098
0.0194788893011
0.00729346112277
0.000739335759602
0.000899197733988
0.0011985751563
0.00154169293578
-0.00363780803574
0.0324928073843
-0.0102652768405
0.000532261859472
2.33064838851e-05
3.3306258973e-05
1.91756037257e-05
4.06026025361e-05
0.0513926127259
-0.00060145367566
3.78789012782e-05
5.48830646099e-05
3.66972607703e-05
5.25480139949e-05
0.0513358852643
0.000427769299111
-0.0513008992057
-2.97853064037e-05
1.79152965771e-05
0.0117746547631
-2.22829884963e-06
1.98267467359e-05
-0.011780363821
1.2780667861e-05
-4.11884261453e-05
-0.0117793508496
1.865065062e-05
6.27067954866e-07
0.0117885154108
5.60340563987e-05
0.0128344382128
-0.000128301630788
0.000103314718201
-0.0128276178927
9.11790350186e-05
-3.29221072532e-05
-4.01657157512e-05
-3.45041983041e-05
-3.72476469587e-05
0.0513972115443
-0.000145245802967
0.0512624779175
-4.76923661672e-05
-6.41572880127e-05
-4.9853477362e-05
-6.33001609081e-05
0.000126404914753
-6.2404404327e-05
-7.26321280395e-05
-6.13011754841e-05
-6.6605774827e-05
0.0513647324354
9.88343920524e-05
2.9550148504e-05
-3.59926718275e-05
-3.49531976033e-05
0.0127802417893
-1.89622735852e-05
3.33839578971e-05
-0.0116397139769
-0.000122213735499
0.0116159055007
0.000131631512156
3.13451140246e-05
-6.05207416622e-05
0.0127717297004
-0.0127824818161
-8.69646505506e-05
0.0128032605243
-1.72517002023e-05
2.09943552243e-05
-0.013828784734
-6.52626712862e-05
-5.90586732502e-05
-6.06590652628e-05
-0.000105034177522
0.00504824741073
-0.00191700243537
-0.000305351951913
5.94956820146e-06
7.08802798643e-06
-3.12895848637e-05
-3.54111887887e-05
-0.00624672738821
0.00335680156313
0.00327038889515
-0.0120301343101
-0.00299345353865
0.00611380318313
0.0125894197219
0.0061466739197
-0.0026700430205
-0.0112419949187
-0.00113701258475
-1.36057450435e-05
-3.6740900594e-05
-2.69527721748e-05
0.000452767819023
0.00438828899302
-0.00864881398994
0.00936581422993
0.00941653902167
8.23779502891e-05
0.0128174240224
-9.43687015053e-05
-0.0128237017421
-0.0128111668417
7.10809658558e-05
-7.99060404461e-05
0.0128065827176
6.99837153308e-05
0.00012171009934
-8.35262716884e-05
0.0118172340916
-9.93177242238e-05
-6.41704355541e-05
0.0118147536474
-0.0118139446553
0.000140270076055
-0.012815256124
7.06843243794e-05
0.0118214227818
0.000140028956307
0.0128113947514
-9.40121536453e-05
0.012791544246
7.32791345584e-05
-7.9590017925e-05
6.83494687764e-05
7.66942638788e-05
-0.0127966952579
0.0127885657232
-8.95119950245e-05
0.00011592029459
-8.26736409766e-05
-9.5028278667e-05
-6.94235829658e-05
-0.0118115272801
0.0118007789373
0.00013233170472
0.012781539352
6.53226726989e-05
0.000138439930255
-9.34109254545e-05
-0.0127635438839
3.11690445057e-05
-6.4539910608e-05
0.0127612639676
5.29628907461e-05
7.27569570339e-05
0.0127722087504
-8.42236661072e-05
7.64711741048e-05
-2.99745748575e-05
0.011796561005
-4.69220181668e-05
-6.03709042683e-05
0.0118030297189
0.000115781230116
6.03741522533e-05
0.0117859471041
9.77621312673e-05
0.0127685787279
-7.47821717168e-05
-1.63310991539e-05
-0.0127660143394
0.0127716341509
-5.40116476203e-05
1.21270746616e-05
-0.0117735209424
0.0117429783331
1.38095399227e-05
-0.0117628330522
2.96261166787e-05
0.0117287264995
1.16491013208e-05
-5.49767081924e-05
4.60528103555e-05
4.7094502695e-05
-1.40477684433e-05
-2.13236868149e-05
6.55849732312e-05
-6.41849023033e-05
-4.91860636387e-05
-0.0127460901149
0.0127575018273
4.25228586159e-05
3.34040152496e-05
-0.0117739098661
0.0117338871948
-0.0117581108067
0.0117171863653
3.22775470737e-05
4.0520026303e-05
1.01823032228e-05
-0.012757179816
-6.17605132001e-07
-6.35937201802e-05
-0.0117876258676
6.24259734553e-05
-0.0127552318282
4.00036996062e-05
-0.011797130687
-0.0013795767243
0.00267602143067
-3.22565265076e-05
-4.70080877265e-05
-3.1208228603e-05
-1.88551588634e-05
-0.00847122535308
0.00698040241127
0.000323738895055
-0.00517500476016
-0.00919353700161
0.0106437375109
0.0113227265036
-0.00889153957458
-0.00108358871758
2.37262966883e-05
3.56625741901e-05
2.02438969324e-05
0.00123478980353
-0.000323733842237
0.00895489883582
-0.00125856374874
4.33959376653e-06
-2.29955445764e-05
-2.1882419228e-06
-0.0107943246844
0.00587089155904
-0.0122328910246
0.00179576138428
0.0143275981867
0.00534307149012
0.00273651118385
-0.0105660460221
0.000689716737133
-0.010967775457
3.62926972206e-05
3.14292704359e-05
3.95178517943e-05
4.54075923262e-05
-1.72731773959e-05
-0.00180043533243
-0.00324833467157
0.00348992387846
-0.00258621470004
-0.000832889674184
0.00015107847012
0.00648205945212
6.89612228124e-05
7.82208274349e-05
6.18420111243e-05
6.57177997956e-05
-0.0145176018522
-0.00335786701043
-0.0011030384985
-0.00376784995195
0.00297673443683
-5.06485055807e-06
2.03857337127e-05
4.09638457065e-05
3.40347154538e-05
-0.0201816551462
0.00584028439414
-0.00213016268224
-2.30964859321e-05
-0.000156036778828
-0.0128324074198
7.66581147276e-06
0.0128383692745
0.00014962929632
0.0128348734626
0.000154317518826
-0.00016089552278
-0.0128189008665
-8.77108258192e-07
8.07201993854e-06
0.0117788363367
1.23350143316e-05
1.80654042625e-05
0.0117757674283
-0.0117800013984
1.95830928934e-05
0.012842954003
-0.000161131809814
-0.0128172216877
0.000146415224717
0.0117802299441
3.15763030899e-05
-0.000154941619731
0.0128465747241
2.35571278551e-05
0.00014647593131
-0.0128528767301
0.000152053172685
-0.000156698238023
0.0128495914352
-1.38163667818e-05
1.27070797168e-05
4.9362496046e-06
-5.44693693657e-05
-0.011778925041
4.06539418822e-05
0.0117884787337
-0.00015958406382
0.000141738900041
0.0128429938771
3.53814854574e-05
0.0117899616653
-6.85886752068e-05
0.000100357057668
-0.011797953107
-8.23524602494e-05
-7.41238868536e-05
0.0117971845183
0.000102249916135
-0.000123809637323
0.0128320146954
9.87172951971e-05
0.0128415380952
4.78182585866e-05
-0.0128345706817
-7.35541589611e-05
-0.0117868236054
0.011795641632
0.012838438825
-0.0117911790759
-2.67352018384e-05
0.0127843963423
-4.80676535322e-05
-1.77344841353e-05
0.0117100760367
4.50892039805e-05
0.0117013286644
-1.00118624117e-06
-3.04656840464e-05
-4.19714876232e-05
0.0127930583844
2.39211041262e-05
3.44077329923e-05
-5.68590630278e-05
0.0116690640441
8.3126732458e-05
0.0127993120787
-4.72193150277e-05
0.0116654127542
-3.73561355186e-05
-2.84339863849e-05
0.0128108220076
-4.15069597164e-05
1.93015802819e-05
-0.0128184972303
2.73988005462e-05
0.0128339650955
-4.96746001905e-05
3.27666002551e-05
-9.03660602764e-05
0.000107363925956
4.51510705146e-05
-0.0116398711897
-0.000104321521346
0.0116177068355
-4.93362050954e-05
1.71856659757e-05
0.0128288789708
-7.22474735788e-05
-0.0127662017791
-8.50218341132e-05
-2.59913630663e-05
3.06244453389e-05
-6.4271786949e-05
3.72129234063e-05
5.15441521849e-06
0.011703502877
0.0116898172293
-3.41553313712e-07
3.15463848449e-05
0.0116470594966
-3.44418506365e-05
-8.27098126809e-05
0.0127892157931
0.0116603843123
0.0116317502646
6.63317872831e-05
-6.88978978579e-05
9.7887506097e-05
0.000102401690688
0.0116097554263
-0.000100036585949
-1.01946933624e-05
0.012826372653
1.25083195698e-05
0.0128099907553
-7.98951878896e-05
7.91108787088e-05
-0.0116403214378
0.0116212362589
0.0128295859556
-0.000148761366637
-0.000178749536633
-0.000181146804527
-0.000300308150354
0.205182058124
-0.000148349416853
0.000212804753141
8.71245182483e-05
-4.1504540861e-05
-3.77810770457e-05
-3.96542711137e-05
-3.6306315269e-05
-0.000131685162375
0.0514482745938
2.10463997572e-05
-0.00709478726279
-0.000221583132208
1.76951685607e-05
4.56848423793e-05
4.30844810836e-05
0.00539253714306
-0.0183854192435
0.00320453790849
0.00254636524414
0.00290839135412
0.00930334209485
0.0249773214537
0.003194740102
0.00793398381089
6.11463775207e-05
5.60129568091e-05
5.46218992106e-05
6.44157721372e-05
-0.000114103108979
-0.000503695502146
0.0513265882648
5.40055146445e-05
-8.94120285333e-05
-7.03397785704e-05
0.0118026137386
0.0514470731969
-6.10087079756e-05
-6.65318572784e-05
-6.03113429589e-05
-6.74667613241e-05
8.12932672516e-05
0.0514522027396
-4.6521924355e-05
-4.40782573267e-05
-3.87657410747e-05
-5.24253970609e-05
-7.47507894145e-05
7.01886957505e-05
2.87384851792e-05
0.0116001817957
-0.000145918996379
0.000154008148379
-9.5933653685e-05
9.31993669266e-05
0.000128490966029
0.0116066967993
-0.000122509064677
0.0116031208028
-5.43082971769e-05
3.41929776272e-05
0.000180432090263
-0.0115982054855
-0.000165217092143
0.0514377007652
-1.69147685886e-05
-2.86216795945e-05
-2.60443545342e-05
-1.90216101341e-05
0.000110984152933
-8.42453938936e-05
7.83200020983e-05
-5.86008263165e-06
-3.48345025249e-07
-3.44304963614e-06
-2.84262237266e-06
4.64122658004e-05
-4.53489270794e-05
0.0513996768478
4.93522572195e-05
-2.96150620719e-05
1.91045757159e-05
0.00018284070689
0.0116019637456
-0.000171213573921
6.89847790555e-06
-7.40451250025e-06
0.000179786780669
-0.0115977974561
0.0115966137195
-0.000178148543341
-4.64782989153e-05
-5.49501629869e-05
-4.55056643773e-05
0.00532838940907
-0.0115462606697
-0.00244272630003
-0.0156914152995
0.000253218095016
6.82605663924e-05
9.21449640397e-05
6.1571001892e-05
-0.00649175846921
0.000100486376202
-0.0148686362452
3.54090645286e-05
7.31351695271e-05
4.89480421391e-05
0.00653583352559
-0.00767065948145
0.00211809296058
-0.00154203008613
0.000274426642219
-0.000930023046764
0.00208742698758
-0.000179472323439
0.00220743506551
5.90014589117e-05
-0.0123231583764
1.98402512705e-05
1.46500977392e-05
4.24373719798e-06
0.00258947200719
5.01158734734e-05
-0.00525347726202
-7.95698763439e-06
-5.21684622518e-06
-5.21920933583e-06
-0.00345927813636
0.000254401320567
-0.0086839630741
-0.000408941221543
-0.0128287912554
8.57636438188e-05
0.000117672238477
-0.000135193843761
0.0128216853808
-0.000119793644679
0.0128239514148
-8.32092913061e-05
0.011799973227
-3.79129358788e-05
-6.40854046583e-05
-9.5054995304e-05
0.0118075150677
-0.000138809831896
-3.14321179286e-05
0.0118075575479
0.0128169066185
-2.44598683777e-05
-0.012848848395
-4.2451007494e-05
1.38262894325e-05
0.0128604159129
0.0128477249073
2.79484259106e-05
-5.07758544481e-05
2.75747081745e-05
-0.000169024269247
0.000174473248085
0.0115848731128
4.44029039532e-05
0.0116040915516
-0.000131054297493
-4.56866234141e-05
0.0128568042167
1.59593463065e-05
-0.000156579206824
0.0115923016659
-0.0128528739005
-6.23531952992e-05
5.2318298449e-06
0.012862795615
-5.51940151626e-06
0.0128498348893
8.80459305792e-06
7.31018318911e-05
0.0116138628835
0.000150738357116
8.02046523686e-05
0.0116059857246
-0.000137978004944
0.0116073516391
0.0128616348601
6.12219946619e-06
0.0128715447554
-4.63710616054e-05
9.54608741725e-06
-1.84224731943e-05
-8.41023583201e-06
-0.0128755729617
0.0128668064339
7.24716395686e-06
2.6400193164e-05
-0.0116015859533
0.0116033123491
0.000187780853588
0.000169010328491
6.40345001595e-05
-0.000152098835726
0.0128674228497
-1.66155207265e-05
0.000177419579044
7.08013424238e-06
-0.0128624173714
-1.45050037072e-06
9.62335486752e-06
0.0128516202513
-1.42877620163e-05
-1.14435693399e-05
0.0128583429878
1.03852438402e-05
1.37008754443e-05
0.0116004157594
0.000191876686257
0.000184753926823
5.14560456436e-06
0.0116023140993
-0.000175600709212
-1.88326855946e-05
0.0115974506615
0.000190562171356
0.0128449954868
9.01189963305e-06
0.0128464417712
9.33742554212e-07
8.87872862961e-06
-1.05280709842e-05
1.78268566002e-06
-0.0128378087134
0.0128305486115
-2.29256332046e-06
-1.67241202958e-06
-0.0115912691234
0.000177322525698
0.0115874509238
0.000183232304497
-5.87137172223e-06
-0.000178059622903
5.36024415568e-07
0.0128426074928
0.000185120937296
7.37272126072e-06
-0.00046479543867
-0.0496589555437
0.0494975619668
0.000557935410435
5.0885782223e-05
5.74509056116e-05
6.42336192551e-05
4.98991735956e-05
-0.000153666693924
-0.00062039457937
0.0500745987089
-1.59098391626e-05
-5.99233523897e-06
-6.3306194947e-06
-1.34047761474e-05
5.11679491327e-05
-0.0500692013142
0.000605613916164
-0.0010579374831
-0.0501308231379
0.0502363849653
0.000919306148277
-5.65319998352e-05
-2.28464221756e-05
-4.33820686686e-05
-3.53168550181e-05
0.000191144216541
-0.000823472006172
-5.90602836608e-05
-4.66294481935e-05
-5.83965820385e-05
-4.7934064712e-05
0.000213152042088
0.0504617792359
0.000744093718808
-0.050383525495
-7.39447231815e-05
-0.00641208992363
-0.00340265967203
0.00939725076104
0.00810120611567
-0.00741869366832
-7.27864666199e-05
-5.05226710785e-05
-4.71475980075e-05
-6.65016509924e-05
-0.0144130279112
0.0182235000561
0.00804428837286
-0.00555873650932
-6.66120513222e-05
-5.11141450475e-05
-4.37139454553e-05
-0.00602737184844
6.03442059494e-06
-0.00727158287826
-0.00698734154717
-0.00224507684503
6.34391486676e-07
2.43796828127e-05
2.70528431635e-05
0.0125339950596
0.003912115789
1.66243605783e-05
-0.0078273161466
0.00199683039535
0.00188359143341
0.00448762016025
-0.000685763053043
2.82041344909e-05
4.20392298939e-05
5.81235888562e-05
6.60965240684e-05
-0.000633298762463
6.82008579301e-05
6.0745276949e-05
6.18404702629e-05
-0.00931137857854
-0.00211032309601
-8.2720669492e-05
0.0118807758462
-0.00696233197214
-0.0223702980213
0.0126196391411
0.0121564402349
0.0113693905216
0.0115268276526
0.00303717606801
0.0425668754616
-0.0464557065686
0.00616063556036
0.000219576752821
0.00629963894543
0.00241444969846
-0.0224601509414
0.062637521808
0.0182688054124
-0.0228693976544
0.00996725270283
0.00988283752298
0.0076421631331
0.00751865277536
0.00203840564212
-0.0222990744764
0.00676687197961
0.00367056821334
0.00430579946078
0.00197592742474
0.0199907934319
0.0370270183095
0.00693787486309
0.00608870684488
0.00458543869145
-0.00492168487106
-0.007763287391
0.00522269483897
0.00373450717629
0.00249458778282
0.00277050754945
0.00212228458222
0.0656322217462
-0.00712269787002
9.50499262846e-05
8.86940954009e-05
0.000113732923512
0.000100840454024
0.000102342397691
0.0494157678684
-0.000205585149292
-1.98484346013e-05
-0.0496908689209
0.0494345798919
0.000282952674841
7.00823066669e-05
6.99305863943e-05
8.03525366266e-05
6.00602318663e-05
-0.000188387162526
-0.0497142640633
0.000117127786186
-0.000147853557699
-0.0117334665632
8.3804616876e-05
0.0117445746089
-6.44152006146e-05
0.0117796135502
9.25470366052e-05
6.36990162239e-05
-6.40912269342e-05
-9.82557169354e-05
-0.0117735861157
0.000113680748779
8.80418849552e-05
0.000105422110398
0.000101749779179
-0.00024718716821
0.0123094143917
0.0122201071272
0.0122444626318
0.0123040699646
-0.000269622714057
0.000105219873988
7.64973563696e-05
-8.18585833394e-05
-0.00011253599157
0.0117924192266
0.000386483012634
3.43832437805e-05
4.91221058967e-05
4.02899341174e-05
3.91252360983e-05
-0.000129210570099
-0.0497961423111
0.0498829955832
1.4160212202e-05
7.73642809789e-06
1.96642336668e-05
6.65138776774e-06
-9.01817577369e-05
-0.0499173627539
0.000462915311123
0.0117912692164
6.20954647662e-05
-4.89589219501e-05
-0.0117828820694
7.1039117217e-05
0.0118182998347
1.23668927144e-05
3.27770775873e-06
-2.9926966481e-05
-0.0118139147245
9.72774078657e-06
0.000822353073818
6.74000088601e-05
8.28002265893e-05
7.96506647543e-05
6.32555954318e-05
0.0493211722502
-0.000204334641504
-0.000149041420664
-0.000204984869431
-0.000164398872616
-6.87950333401e-05
-4.95240971326e-05
-5.31615073542e-05
-4.47013299827e-05
0.0497775587384
2.48582335418e-05
1.27811781653e-05
2.28619797456e-05
1.40450335028e-05
-3.11057673421e-05
0.0498136513307
0.000810368424839
3.58713098153e-05
1.39524766248e-05
2.64992507526e-05
2.45021397041e-05
-0.000124765398936
-6.07276919163e-05
0.011799641337
8.36959074712e-05
0.0118650578652
7.41506286612e-05
-8.08715961171e-05
-0.0118399994436
0.000138317587906
-0.000156687583809
1.58143181795e-05
1.58468909651e-05
-5.51086754262e-06
-4.11780996758e-05
0.0118334493234
0.0119042937498
5.0732318846e-05
9.38018977636e-06
-4.28036946384e-06
-8.15060297692e-05
-0.0118786019837
0.0499175120172
6.12074797758e-06
7.20306332629e-06
2.42005635999e-05
-1.23980683311e-05
-0.0011426626449
-4.41089389696e-05
0.00127877399153
-1.31170092564e-06
-4.4008802677e-05
-1.77283957872e-05
-2.43893601522e-05
0.0504420414716
-9.83923925828e-05
-0.00161745765543
-8.37872898046e-05
0.0118953233772
0.00016327177888
-0.000176297062415
3.2485654637e-05
-3.04540393033e-05
-0.0119487785812
0.000219682053659
0.0119666130481
-0.000239305024911
6.2217042386e-05
5.31690228672e-06
-2.47589556794e-06
-9.79526498851e-05
0.0119372081626
0.0001021962464
-3.9867178682e-05
7.81388517029e-05
-0.000156252320606
-0.0119870477673
0.0120029478479
0.000748883932312
-1.25046660646e-05
-8.85064274196e-06
4.9658977441e-07
-2.15249383935e-05
4.76969886469e-05
0.0502913304795
-2.24323410383e-05
-3.79563200813e-05
-2.97272265487e-05
-2.95711433017e-05
8.67506212628e-05
-0.0502268289429
0.000717296915654
3.61522071701e-06
0.0118337560834
7.69215313569e-07
-0.0118163487162
0.0119068988595
-9.52310525493e-06
3.26651643461e-06
-0.011879913306
3.00039661236e-05
0.0119030529436
-6.7369274429e-05
4.32185315458e-05
-5.53467901518e-06
-0.0118755913643
2.22036939086e-06
0.00109157295994
-6.41042535718e-05
-7.7577454453e-05
-5.17663795937e-05
-8.71633673423e-05
0.05049266502
0.000211584915896
0.050390750695
-5.56185364205e-05
-4.66404062529e-05
-3.89945538618e-05
-6.15519144326e-05
0.000199390779975
-6.08113508719e-05
-8.19026264012e-05
-6.56383003e-05
-8.12308586736e-05
0.0505805448246
0.000940849549391
0.000250689760841
9.59645923937e-06
0.0119374105698
3.86691736148e-05
-6.82024438155e-05
9.32687261377e-05
-0.011983864213
6.58837493065e-05
0.0119949472235
8.9140076206e-06
-6.95412719364e-05
4.58477021411e-05
-1.25432289494e-05
0.011930344467
8.6253861904e-06
-7.69038171989e-05
8.52043487466e-05
-2.0672537574e-05
-0.0119682420079
0.0119720026798
4.04669661441e-05
0.0119291451516
6.59805274894e-06
-0.0119010973865
7.92101246012e-05
-0.0119606071434
0.0119618907342
-7.13737358969e-05
-4.21203597368e-07
0.00372762885145
-0.000120753551481
-9.69552429552e-05
-9.77763176542e-05
0.00830676128718
-0.000208242317196
-0.000951725433723
-0.0104430310271
0.00627673084356
0.00567754457451
-8.20405465145e-05
-6.44914113911e-05
-8.66638446862e-05
0.000856054163104
-0.00878580986912
-0.00922093609448
-9.21053067747e-05
-7.96811834152e-05
-9.99496600869e-05
-0.00348392141861
0.0129169534506
-0.00995408613472
-0.00269539369025
0.0104708428315
0.000639984978896
0.0141951807552
0.00158015245319
-0.00399407326149
0.00975227838498
-0.0051578429928
-0.00786421345444
-0.00616978893947
0.0135725742585
-0.00106218928621
-0.00275333112348
0.00908216168489
-0.00276249309849
-0.00607232284873
0.00862420296718
0.00235850511821
-0.00602240179626
-0.00405210056943
0.00236363659563
0.00518617381422
-0.00152928641789
-0.00733544171725
0.00807680568353
-0.00476872079662
-0.00434094214737
0.00398005056385
0.00658895092357
-6.58055148298e-05
-4.14338665746e-05
-4.33151102578e-05
-0.0072715104293
0.00317167983459
-0.00386198421688
-3.52039490116e-05
-1.49808623985e-05
-3.37687174617e-05
0.0095461324754
-0.00486694770966
0.00586781318321
0.00871478948667
-0.00691404538912
-7.8697030343e-05
-4.15901746893e-05
-4.99649090119e-05
-0.00655555429849
0.00198004471637
-0.00490567337282
-3.67741169253e-05
-1.64619974928e-05
-3.99014675256e-05
-0.00436475473992
0.00714819653674
0.00802865122926
-4.03459524173e-05
-2.16222803054e-05
-4.73605066574e-05
-0.00319215901382
-0.00728506738594
0.0067435175355
-0.00574086289527
0.0027177443325
-0.00111097565797
-0.0078765574088
0.00443396382627
0.00300309829157
-0.006673284909
0.00644449029736
-0.00301242266532
-5.02240868755e-05
1.24792909584e-06
-2.47606406618e-05
0.0193032928078
-0.00440849992167
0.0103537338108
-0.0029188598396
-4.26673396867e-05
7.21839035916e-06
-3.12255990566e-05
-0.000876950135055
0.00632000714637
2.09854059237e-05
2.76275901185e-05
5.5048782831e-06
0.0112603475113
0.00379895568263
-0.00725026080158
-0.00272767746627
0.0023484096921
0.00497046259986
-0.00782865732629
-0.00298330723445
0.00635344842524
0.00446729704164
-0.00151589646644
5.17013056489e-06
3.85641845164e-05
3.26041188546e-05
-0.000489380464316
-0.00848782922854
5.72068450855e-05
6.55206359901e-05
5.10778463639e-05
0.0127423021544
0.00046186782936
0.00427525624067
-0.0017345474569
-0.00572368848597
-0.00522041789597
0.00738369684222
0.00697475543924
-0.00392904262811
-0.00416029817667
0.00406331291138
-8.33584988245e-05
5.25849581808e-05
8.45674595819e-05
7.34349333554e-05
0.00394492579243
-0.00484658510039
-6.61224048168e-05
6.14953062478e-05
7.72421570618e-05
7.18240673095e-05
0.000257756486284
8.30414245147e-05
7.88368432453e-05
7.95624442552e-05
-0.00243157974333
0.00107253290942
0.00885971759527
-0.00627788600836
-0.00373850268409
0.0120393104832
0.00892498588098
-0.0055279597906
0.0124360250789
-0.00485768986969
0.0124273481667
0.000112007494541
6.14622177685e-06
3.85162821654e-08
-0.0124568056558
-6.68407315549e-08
-0.0124159324362
0.0123823577872
-4.79497636809e-07
7.83070588076e-05
-0.000139503175936
-6.50230277343e-05
-0.0117278731961
-0.000123203852032
-0.0117399422558
9.97280429698e-05
0.0117503427838
8.19095398604e-06
0.012396820721
9.06454560207e-05
-0.0117378765907
3.1134979996e-06
-0.0124499327495
0.0124391511352
1.44209641604e-05
7.84313771884e-05
-0.0124618148745
-2.72504994473e-05
-0.0124538608976
0.012433165316
5.39063757124e-05
-8.72888554714e-05
-0.0117559714149
0.0117626701951
-5.490458576e-05
-8.32276544838e-05
7.58836331205e-05
-0.0117756699829
0.0124132131572
3.64123352484e-05
-0.0124705609192
-0.0117565278838
-0.0123919511271
7.013879059e-05
0.000121560294741
-4.73444247682e-05
0.0123613071274
-4.23896061296e-05
0.0124128523452
6.9057932884e-05
-0.000111048020852
0.0117819311476
-0.000112655208513
-9.46710309132e-05
-0.000122883102959
0.000120989472089
0.0118089220126
-2.65589627666e-05
0.000100695140871
0.0123893532772
-0.000119644718231
0.0118001739749
-4.72890622719e-05
0.0124896006444
2.75433344231e-05
6.26637205945e-05
-0.0124981068485
-0.012472289009
6.71185708299e-05
0.012459292018
-4.11923838167e-05
5.65401388533e-05
-0.0117880503573
-3.18431008725e-05
-0.011802105568
5.52663694366e-05
0.0118082308524
-0.0124839437464
8.35687893193e-05
0.0124804718394
4.36865055539e-05
-0.0118049178928
0.0125078237565
7.36608068693e-05
6.92880777061e-06
-0.0125115237512
-9.38549171017e-05
-0.0125233504225
0.0125229836045
0.000105219091119
-1.41697015016e-05
-0.0118055166186
0.0118097936425
5.97729790199e-06
-2.03624646984e-05
-0.0118170871207
2.55180373154e-06
0.012503073022
-0.0125246639474
8.76702091989e-05
-0.0118090472883
-0.000110543605793
-0.0124671824275
4.46039139006e-05
0.0124543227471
0.000129663881646
0.0124424065298
8.2674733628e-05
-6.96045361733e-05
9.95865256589e-05
0.0118179725749
-4.48777616747e-05
0.0118176148258
6.88379324144e-05
0.0124272082417
0.00010094819169
0.0118340929467
8.06619515519e-05
-0.000140295943771
0.0124456547229
5.57278615255e-05
0.000160622655656
-0.0124083936167
0.000176629407414
0.0123973766625
-0.000163659004566
-8.16117003193e-05
0.000120812062178
-0.000140060948283
-4.77823841556e-05
-0.0118583471741
0.000119561466076
0.0118833034312
-0.000123468680531
0.000196086709145
0.0124416539645
0.000102200287581
-0.012493969665
0.000135088899848
2.82531437571e-05
0.0124851161521
-0.000110716782516
0.0125168484533
0.000124176001589
-2.22241321888e-05
0.011822601058
-8.54577867986e-06
-5.02519934684e-05
0.011851645087
2.40653383367e-05
0.012511729755
0.000145664396876
0.0118410022697
0.0124808637147
0.000162880812671
3.78396375451e-05
-0.000191442698875
-0.0125098767129
0.0125135528488
0.00019733014736
-2.91496848664e-05
-0.0118657182172
0.0118922249016
-1.73527723607e-05
-6.77360039261e-05
3.63775822513e-05
0.0124827434928
0.000171803235488
-0.000259502830793
-0.012439465868
4.23705257192e-05
0.0124497506331
0.00026911190458
-6.23553914e-05
0.0123899269317
0.000215573267464
-8.84579312048e-05
-0.000203490328048
-7.45067294838e-05
0.000181275046905
0.0119187809788
-0.000196808452233
-5.48368507159e-05
0.0119111168608
0.000139164675798
0.0124000536716
-8.62283148572e-05
-0.000258033357598
0.000233622322752
-7.08136592741e-05
0.0119329101032
0.000157851765358
-0.000301968713723
3.3111176413e-05
0.0124921736515
0.000308545247007
-8.22440940058e-05
-0.0124491708875
0.000334346619891
0.012528939234
-0.000345920263206
-9.88512732038e-05
-6.42334221347e-05
0.000204647866376
-0.000220843050187
-0.0119632042986
-4.86191773369e-06
0.000204567747072
0.0119843808734
-0.000303374754578
-0.000112138718317
0.000182670429982
0.000335612728057
0.0125537924152
-6.79368845098e-05
-0.0124829340842
0.000252282393272
9.2988273599e-06
0.0124964878442
-0.000225759519098
0.0125142830012
0.000229674790504
-3.16756229015e-05
0.0119221653506
2.73127265802e-05
-0.000116494476486
0.0119554197463
7.82318742584e-05
0.0125263040169
0.00025500444495
0.011941378833
0.000283186930821
-6.26593973362e-06
0.0125266108932
-0.0125542820794
-0.000310894356642
0.000303197113349
0.0125960796861
-0.0119807530785
5.10465894084e-05
0.0119981983523
4.41686940535e-05
-0.000141936067644
9.37197172598e-05
0.000281606979626
0.0125778145001
-0.000141743330048
-0.0125554470639
-2.31564214155e-05
0.0125563229361
0.000148114253411
0.0125369266147
0.000125135214717
-0.0125402764835
7.00050092066e-07
6.39843644248e-06
0.0118514174849
2.07447359461e-05
0.0118338158353
-0.0118176310823
-1.16887703059e-05
0.0125351784942
-0.0125553522878
0.000132481937904
0.011853588794
-9.5113982421e-06
-0.000166258288351
0.0125589015367
-1.86181917189e-05
0.000169772440656
-0.0125359807161
0.000185967453053
0.0125417152446
-5.27590597343e-06
1.83451752632e-05
2.95549373746e-05
-0.0118837174192
1.00726308357e-05
0.0119127078976
0.000188261492959
0.0125646002842
2.27051745094e-06
0.0125771734608
0.000168792402142
-2.50971489151e-05
-0.0125735061878
-0.000185633741824
-0.0125938815884
0.0125992356235
0.000185660032057
3.40315127879e-05
-0.0118782239853
0.0119059309673
3.7323082431e-05
7.95228432339e-07