/*--------------------------------*- C++ -*----------------------------------*\
| =========                 |                                                 |
| \\      /  F ield         | OpenFOAM: The Open Source CFD Toolbox           |
|  \\    /   O peration     | Version:  v1906                                 |
|   \\  /    A nd           | Web:      www.OpenFOAM.com                      |
|    \\/     M anipulation  |                                                 |
\*---------------------------------------------------------------------------*/
FoamFile
{
    version     2.0;
    format      ascii;
    class       volScalarField;
    location    "13.4";
    object      alpha.water;
}
// * * * * * * * * * * * * * * * * * * * * * * * * * * * * * * * * * * * * * //

dimensions      [0 0 0 0 0 0 0];


internalField   nonuniform List<scalar> 
28582
(
0.999979143026
0.999985886881
0.999991077198
0.999991880173
0.999999358907
0.999999522087
0.999989529662
0.999990259156
0.0606635985385
0.0604207438323
5.686994063e-26
0.999989309524
0.855226632714
0.854522774686
0.999989836023
0.999987939472
0.854651215647
0.998209686346
0.99798192948
0.999980057715
0.999994399291
0.999997800058
0.999995033479
0.999994057758
0.999997290597
0.999999365614
0.999999765345
0.999988767507
0.999988483115
0.0613724758535
-1.82184331182e-28
3.94614684426e-07
0.999991713124
0.999993581733
0.858669591269
0.857907917398
0.998114911164
0.999985473396
0.999987432813
0.999988561027
0.998187736937
0.848808369736
0.997972170944
0.997629339115
0.060769930869
0.0615676909441
0.000263291150306
0.000301405263681
0.0604538651885
0.000205312682277
0.99789714165
0.997750356199
0.854868616668
0.855087510776
0.997832354931
0.854261941427
0.997837840029
0.99773924338
0.997845547737
0.854721669266
0.854233281533
0.997748756072
0.854250713816
0.99783208197
0.997909196835
0.997901930204
0.854647123785
0.854459986063
0.997798016616
0.854716649648
0.998021704823
0.998316424279
0.854954112459
0.854929634401
0.99811198406
0.855025423491
0.855191326185
0.998205431963
0.997911050251
0.853587704921
0.8527745851
0.997861792568
0.854376892883
0.997831082427
0.855139886168
0.0591112473201
0.000197100356231
0.0567258381749
0.0577432106409
0.000199636705833
0.000189655608032
0.0621022309792
0.000317314067073
0.000351132397111
0.0630576714731
0.000361960042461
0.0626636888035
0.000322512969836
0.998046388818
0.998011824129
0.858439609886
0.857302305799
0.998028992491
0.998040613817
0.857212584465
0.998043139997
0.998033104335
0.85803953328
0.857447653415
0.998035693008
0.998036992575
0.857175726212
0.856317924699
0.856542691545
0.998082558212
0.998112032665
0.856837281153
0.998106078049
0.85646785955
0.998304159362
0.853955219532
0.853302322243
0.998105987403
0.852222015356
0.998248465182
0.851044290243
0.997960729167
0.997917693487
0.850552215329
0.847215840898
0.998125120394
0.99775360303
0.849087499622
0.997798873769
0.997884861176
0.851798478884
0.850884471469
0.848777328523
0.997897586522
0.849717304501
0.847059625649
0.845224711698
0.997377984626
0.99774253517
0.846535129588
0.997506715094
0.848133111789
0.999999696099
0.999981148237
0.0636134359543
-1.14242881733e-27
0.99999544405
0.856345593615
0.999986061857
0.999986576677
0.847323393803
0.843449110548
0.841420245488
0.999985960829
0.999983788166
0.841689818735
0.843198905484
0.0596955380651
0.0640070539101
0.0647128127188
0.000291038456387
0.000332575324906
0.000259805199386
0.0654026387211
0.065760689723
0.998097627353
0.998054965847
0.856628356569
0.856155568706
0.998100898822
0.856172734057
0.998050246453
0.99731287747
0.997648209959
0.846017394893
0.845706420418
0.997357227196
0.997517990317
0.844698849186
0.997079098351
0.997107626056
0.845023674649
0.842060957341
0.997248069576
0.844197999912
0.996953125267
0.996978299775
0.997020586841
0.843184218142
0.841102539366
0.996996347435
0.843505448818
0.996958808568
0.997176601995
0.997133311803
0.842744950422
0.842135785164
0.997062381159
0.842909558252
0.997277145399
0.997312809539
0.997539437524
0.8434537368
0.842576354538
0.997445407031
0.8431328571
0.997409978968
0.999990981646
0.999992838233
0.999990974695
0.999992633456
0.0430544696225
0.0459972938723
0.0451724487383
0.0481644320487
0.0487982841719
4.00213633739e-26
2.81156776719e-06
-2.41351509076e-25
1.06351183642e-06
-4.3343458697e-27
1.84889543799e-08
0.999994576657
0.999992815136
0.898720790009
0.900048660161
1
0.900839258399
0.999994595098
0.999990874344
0.900560759697
0.894800916741
0.999991984196
0.99998878289
0.999984164075
0.901242101554
0.90316500409
0.894877323221
0.892925001497
0.999977854558
0.999977264222
0.902853569696
0.889869829745
0.890491400046
0.878500891414
0.9999902942
0.999991165635
0.891186749159
0.888769794568
0.882724074502
0.999988884636
0.999990424816
0.999988188222
0.886885069191
0.877417650423
0.880982696381
0.874376863508
0.88093307241
0.874203416823
0.0438823264693
0.0431534159994
0.0438273738843
6.73174016543e-06
1.2683226174e-05
5.94115098613e-06
5.6022897857e-06
2.34532094435e-05
0.000296781543489
1.23841940815e-05
0.000226397794757
0.0424411590239
0.0431231490533
0.0441720428784
0.0438983138273
0.0451590070768
1.21032135456e-05
1.03321607071e-05
3.37362834156e-05
3.94993376151e-05
0.0489080168523
0.0470491749639
0.0495046911027
2.07936318249e-05
0.000167803092593
7.25284723332e-05
0.000151713181567
0.0464758861927
0.0470144036109
5.01905941763e-05
4.75583615452e-05
5.68683789248e-05
0.0501425242036
0.0487439301548
0.0505694686509
6.71853302193e-05
0.000108555370588
6.44064425009e-05
7.9710618066e-05
0.998857259245
0.998948733531
0.897890323675
0.898865918378
0.998942254618
0.89802954201
0.998871720345
0.998862711828
0.998957449559
0.899454608456
0.899333722393
0.99895441915
0.99887990328
0.898693012804
0.999242560209
0.999108669257
0.900367053514
0.901628726128
0.999094051214
0.999280539088
0.901447053365
0.99886144789
0.998990739368
0.899886048294
0.900790314747
0.998899726706
0.998941279669
0.900267801748
0.998783280517
0.998791671291
0.897861038869
0.894854023426
0.998851017716
0.99874443441
0.897550964007
0.999216100298
0.999133662055
0.901894479826
0.901162529926
0.999275641348
0.999077795193
0.901492567975
0.999322339437
0.999387238804
0.902487694584
0.901805116995
0.999382155283
0.999349777559
0.901776500832
0.999090824955
0.998887690185
0.898113113313
0.894781230069
0.998965842479
0.998975918177
0.898336430547
0.999200893354
0.99908362764
0.897365697311
0.894118664604
0.999204860149
0.99905746465
0.898012044905
0.999288745091
0.999385508657
0.902075588633
0.900733930304
0.999357963392
0.99933916757
0.897961921581
0.999213673741
0.999158084737
0.897403484264
0.885122087237
0.999275526775
0.892488831791
0.999053719459
0.999154067874
0.999081632007
0.895411726056
0.887380073328
0.999189471437
0.999047041078
0.892465380841
0.999091114176
0.998912036213
0.882184826164
0.883074090448
0.998999273324
0.887908643423
0.998968635199
0.998915844092
0.998839532118
0.890743964947
0.888215980134
0.998948788752
0.998803992362
0.887616881639
0.999018572017
0.999050565921
0.889900673669
0.88533277813
0.999047199481
0.999027531887
0.886593949625
0.99907144378
0.999122862937
0.883732504106
0.883821836144
0.999093771553
0.999091381903
0.884866658499
0.999017292537
0.999050348214
0.88430749393
0.883426052136
0.999039003296
0.999027811199
0.881440533428
0.998988054149
0.998946214415
0.881056410159
0.875651832653
0.999016325067
0.878668242528
0.998928058566
0.999101384858
0.999138681385
0.881998700393
0.879182768659
0.999107435781
0.999140592542
0.880088609604
0.999089405874
0.999097196479
0.875059892963
0.876706072632
0.999125225034
0.877603404748
0.999055238155
0.9992652476
0.999229212878
0.8790593875
0.881018520216
0.9992315976
0.999272764905
0.879090846373
0.99917049394
0.876598139857
0.999211918687
0.999985316126
0.999994184089
0.999997953705
0.999997456996
0.999992076381
0.999986638104
0.999993773863
0.999994251981
0.999996875639
0.999997373801
0.99999500016
0.999987423711
0.999963910996
0.999997008538
0.999942014897
0.999940005941
0.999979373196
0.999986759885
0.999954819589
0.999948652546
0.999976403803
0.999943893387
0.999974733136
0.999989791227
0.999992600709
0.999992065019
0.999990075991
0.999983894227
0.999976991602
0.999983372023
0.999991252496
0.999993760341
0.999995481337
0.999996871419
0.999996045682
0.99998694932
0.999980099681
0.999979683771
0.999988992054
0.999997404809
0.999999022945
0.999998029811
0.999992793855
0.999986638104
0.999999019949
0.999998388431
0.999992567075
0.999986698765
0.999997927865
0.999999764193
0.999854458551
0.999881673713
0.999946429597
0.999903125696
0.999910388541
0.999969095733
0.999940176543
0.999986991538
0.999937161011
0.999908504064
0.99995932637
0.999970216088
0.999930648391
0.999947118686
0.99999147623
0.999993533306
0.99998342755
0.999965678344
0.999972976723
0.999989109176
0.999985254984
0.99998312585
0.999993370135
0.999994070915
0.999995855601
0.999997269294
0.999997498855
0.99999712121
0.999994964026
0.999994723961
0.999999165385
0.999998853189
0.999995909752
0.999991293952
1.00000885608
1.00002905836
0.999822305537
0.999801431579
0.999933265999
0.99995348931
0.999942762096
0.999973924409
1.00002202086
1.00003536121
0.999956773241
0.999891199558
0.999935560902
0.999982725672
0.999973723027
0.99997500835
0.999998081066
0.999998521568
0.999998909992
0.999998609673
0.99999856657
0.999998583593
0.999997765119
0.999998196657
0.999999534138
0.99999931031
0.999999905823
1.00000002295
0.999999952317
0.999999846328
0.999999667247
0.999999330129
0.999999528743
0.999999784123
1.00000032417
1.00000047383
1.00000044935
1.00000035642
1.00000015133
1.00000008161
0.999999523981
0.999998959556
0.999998404295
1.00004060814
1.00002404285
0.999972764152
0.999793900654
0.999874141738
0.999976022124
0.999970781756
0.999964950204
0.999975722917
0.999980743051
0.999973159071
0.999972126595
0.999966736169
0.999968222158
0.999971792107
0.999970653483
0.999950531243
0.999988172237
0.99998119173
0.999971735252
0.99997477667
0.999980080357
0.999977997506
0.999972224806
0.999960422776
0.999958795582
0.999959616325
0.999981086939
0.999983698924
0.999993114594
0.999994835243
0.999985870226
0.999968689939
0.999954018062
0.999956100302
0.999969208918
0.999991813071
0.999991908438
0.99998914034
0.999967408183
0.999949465303
0.999957894797
0.999972922601
0.999975550347
0.999975682433
0.999981349299
0.0620214220797
0.0641788869896
0.0625791862188
0.0596539781788
0.0585700358156
0.0615275595536
0.0654965207991
0.0684995522411
0.0515393699076
0.0580259766444
0.0615967014812
0.0633021670576
0.0615151202054
0.0596252280184
0.0615071115141
0.062757321773
0.0655008837182
0.0673883576022
0.0519927882014
0.0556640180324
0.057131663472
0.0580391038838
0.0597212363801
0.0611942151467
0.0616966560005
0.0643973991694
0.0659672948994
0.0681052476479
0.0540173703427
0.0550220178945
0.0566604742455
0.0586472299616
0.0604887263544
0.061940106389
0.0635021401301
0.0647424111555
0.0651038514839
0.0584948906098
0.0588007102508
0.0594027800094
0.0622115588937
0.0635642630813
0.0644268191606
0.0631853803476
0.0647864402409
0.0654510133677
0.0638429370854
3.94081346731e-06
4.48145382847e-05
6.25495756377e-05
8.05443699224e-05
3.75218235955e-05
-5.39142273508e-25
-5.73620688687e-27
-3.02453639777e-28
-1.65149092194e-27
3.34030337216e-05
4.526618656e-05
4.73542733696e-05
4.56832169404e-05
3.89541857872e-05
-4.80398870736e-24
5.83401766872e-05
8.73435267902e-09
-5.62726337614e-26
-6.03226162746e-26
2.94206371823e-05
3.95578052845e-05
5.18809574998e-07
4.01631243897e-07
1.14947981062e-06
3.37274191445e-06
-1.32348898008e-24
5.59883345536e-05
-7.00382194915e-25
-1.9822475308e-24
3.68562752442e-05
-1.64438933892e-30
-4.36246404855e-30
-8.92153937358e-29
-1.3643212519e-27
-2.43855688958e-25
-5.94595900174e-24
-5.49093494877e-25
-1.15280734797e-24
3.71697478676e-05
-1.54305632187e-30
-3.37217346215e-27
3.52572765905e-05
-1.41737802553e-26
-4.7362399118e-26
-2.15836731708e-25
3.73104864191e-05
-1.07355254107e-27
-4.54564948617e-26
4.22086282005e-05
0.999985699405
0.999984994226
0.999961191725
0.99999065746
0.999998214084
0.999973788833
0.999986962764
0.999997035062
0.999957390116
0.99997530079
0.999996598935
0.999985876092
0.999987146533
0.999983642039
0.999944480383
0.999979865411
0.999955139645
0.999969620578
0.999943913421
0.999954717064
0.999944369468
0.999956152102
0.999944369468
0.999944862486
0.999943416615
0.999943893387
0.999943893387
0.999958748057
0.999997909768
0.999979604076
0.999994396978
0.999993790651
1.00000928513
0.999983506451
0.999996708496
0.999981645563
0.999993702993
0.999987810144
1.00000588371
1.00000015422
0.999996066855
0.999984098675
0.999975532802
0.999960904175
0.999944862486
0.999972377161
0.999994308276
0.999978021152
0.999990996674
0.999981895393
0.999954894286
0.999978799675
0.999994802634
0.999989952656
0.999995869727
1
1.00003307039
1.00001509764
1.00003287765
1.00006641529
1.00009236506
1.00009396368
1.00012079508
1.00000806393
1.00002274936
1.0000036041
1.00005652424
1.00000820297
1.00009597435
1.00004553415
1.00004060381
1
1.00000571021
1.00003126223
1.00004465926
0.99999941029
1.0000004728
1.0000133689
1.00000676394
1.0000038826
1.00003846541
1.00002090292
1.0000017004
1.00000213908
0.999978856877
0.999998180635
0.83428539335
0.830627731906
1.00005343688
1.00002285877
1.00002201626
0.833368204541
0.823664842378
0.830452291403
0.824594858174
1.00000290144
1.00000346712
0.999997417943
0.821439899324
0.824244892326
0.821829287091
0.828598074722
0.999882896688
0.999984937347
0.999935167954
0.829777991057
0.843992869066
0.833615617769
0.843297604569
0.999801985443
0.999883767798
0.999882275213
0.847121373855
0.855224376851
0.844356105595
0.848257225319
0.99995889428
0.999915440007
0.999968927079
0.85740085155
0.860384848858
0.848906031673
0.848263677714
0.999971823091
0.999982715232
0.999982554819
0.858863592682
0.84620326318
0.846947960725
0.840625112187
0.999971726817
0.99997730792
0.999974831682
0.841728157278
0.833614021061
0.837695551947
0.831793804566
0.999779104811
0.999968007007
0.999927077041
0.842026876872
0.81035365644
0.836618274451
0.820843974921
0.999974890657
0.999974223758
0.878952762954
0.845468286636
0.873383682711
0.855114405998
0.999981473367
0.999971620249
0.999968499194
0.837940128695
0.832959370404
0.850024270213
0.846222462608
0.999976416882
0.999962690212
0.999962080163
0.832957866333
0.829317341888
0.846384578125
0.845324579643
0.999972794807
0.99996246158
0.999964894174
0.826741701756
0.829481835055
0.844192112801
0.842500259425
0.999969790626
0.99997146974
0.999975647147
0.833331701787
0.843414143385
0.843187968898
0.844539632977
0.9999647249
0.999979146987
0.999978990935
0.845322047951
0.84392541831
0.844963405046
0.840452451337
0.999969600306
0.999979397331
0.999979332484
0.84406064737
0.844899675996
0.838244641575
0.834472121493
0.999971970327
0.99998118179
0.999979558127
0.844298806201
0.840423960714
0.834718138327
0.83639652619
0.999966943401
0.999977663725
0.999974811426
0.838031776444
0.831009083987
0.836439598591
0.832347490899
0.999934984192
0.999961727006
0.999968653009
0.836023610691
0.824682798305
0.837365277727
0.828588615765
0.999984303109
0.999985464389
0.99998342233
0.873194706305
0.85819555301
0.87215094038
0.864543413272
0.999972939425
0.99997896618
0.999976948042
0.853959669188
0.850526746554
0.861499066549
0.858277530752
0.999971621565
0.999976230836
0.9999779226
0.850658286366
0.850138333047
0.857798096191
0.85705169836
0.999979846228
0.9999819149
0.999983504045
0.849470715346
0.846512895697
0.856762655113
0.854782896503
0.999979982593
0.999983178412
0.999980188496
0.845820646442
0.844246600462
0.853476967931
0.847265286911
0.999974766998
0.999976101795
0.999972955302
0.843423372349
0.839546790941
0.845827298533
0.843212735144
0.999967687776
0.999970435367
0.999964995616
0.838084393539
0.834124521688
0.842680185303
0.839877412447
0.999959775125
0.99995896601
0.999956417273
0.834136669658
0.835956933214
0.839362519098
0.8380277502
0.999958907894
0.999958305125
0.99996094787
0.836283756524
0.831981538317
0.838250579086
0.835927756998
0.999974230317
0.999964017534
0.999981357381
0.837012991781
0.830609423471
0.841175199186
0.834960729825
0.872194722059
0.864879011
0.999981203165
0.999982542229
0.862220636512
0.859705839483
0.859448677692
0.999990662551
0.999986482514
0.999991547751
0.859119142852
0.857994633154
0.859350463997
0.858472085585
0.999996619966
0.999995595739
0.999995839364
0.857674691227
0.855676443053
0.858132038159
0.856424963671
0.999992324823
0.999995185104
0.99999175299
0.854570331843
0.8491335416
0.855964727983
0.854670973238
0.999978064454
0.999985513185
0.999973677028
0.847930506864
0.845391929948
0.854027478303
0.851512394281
0.999959015964
0.999962525079
0.999954190019
0.843949519158
0.839271997301
0.850444564006
0.84566193726
0.999954146646
0.999953674591
0.999954886651
0.839535243043
0.839126540794
0.844933707424
0.843557677961
0.999961719907
0.999960028529
0.999967374732
0.83932988796
0.837632318496
0.843527700792
0.842743685364
0.999988630579
0.999975777536
0.999992355429
0.843264309617
0.83648439881
0.848813289521
0.839545088106
0.999992814132
0.999995375047
0.857449523789
0.855362197514
0.854414461847
0.999992652826
0.999995232958
0.999994601638
0.85518252492
0.854634086727
0.854523617357
0.854589792412
0.999982808401
0.999993233263
0.999987920105
0.854513907278
0.851347638387
0.855031032517
0.849401834145
0.999952205143
0.999978089282
0.999966637001
0.850446541474
0.846919830048
0.847626659037
0.845723000046
0.999952108449
0.999961464267
0.999962447475
0.846293992331
0.84482966996
0.845665634358
0.845219764088
0.999966509818
0.999964929336
0.999970160495
0.844644395559
0.843376658811
0.84554417616
0.843811422838
0.99999084496
0.999977619873
0.99999505193
0.849810077933
0.83993237308
0.850636565361
0.840840021042
0.999976887556
0.844852727437
0.999975634612
0.844619060075
0.844422203239
0.999977736504
0.844755502432
0.8424577715
0.999993005532
0.849317842838
0.840003941784
0.000649569126383
0.000742229349173
0.000612189231236
0.000799195131359
0.06045690231
0.0609543245591
0.000839871807043
0.000744647955421
0.000964668804799
0.000974601492121
0.0634838033231
0.0625520702543
0.0641449038497
0.000946518233735
0.00116621033209
0.00110464181029
0.00138174979331
0.0642849317972
0.0647944055339
0.063496485652
0.00152274619373
0.00158486392713
0.0016405220893
0.00164915317348
0.0611807679313
0.0617664807157
0.060424535566
0.00102085639503
0.000359983533242
0.00122899884884
0.000702476689975
0.0586175016097
0.0601537343638
0.0597391799325
8.12301630677e-05
5.20603839531e-05
0.000225664117933
0.000159121202966
0.0595026097561
0.0597995523813
0.0607170258015
5.97751834787e-05
7.46896468306e-05
0.000183499995541
0.000162045264375
0.0638206211358
0.0620920872117
0.0637629646665
0.000172079314195
0.000283543149127
0.000191166513344
0.000219521901662
0.066386872029
0.065271624355
0.0664941788944
0.000212990999337
0.000172128763757
0.000164348406035
0.000157499154108
0.0742696921389
0.067115558718
0.0738684903115
0.000229089867208
0.000590759310926
0.000220835730051
0.000749679945891
0.0548875666253
0.0517758434437
0.0543982737396
0.000691319953894
0.000977627645175
0.000575169871666
0.000776436723402
0.0604315580737
0.0571086283916
0.0587146115689
0.000967015179476
0.000925797374851
0.000607647333572
0.000570281130677
0.0626058275572
0.0596618881567
0.0601972683257
0.000925388224774
0.00113438752204
0.000573008329713
0.000695419682149
0.0626385195162
0.060574703427
0.0606803452594
0.0012070993141
0.00100901903867
0.000765436599401
0.000703182244367
0.0604962233723
0.0605841199496
0.0605267123135
0.000642931837176
0.000723031479031
0.000488058407662
0.000607360897863
0.0606269781008
0.0598999174782
0.0609338880337
0.00112001691133
0.000582718174948
0.00126682637441
0.000966312530474
0.062091573766
0.0623935723579
0.0630283247726
0.000266765421844
0.00020209091222
0.000394516092881
0.000283388393481
0.0639534528461
0.0638626966766
0.0648031006161
0.000205829389339
0.000205184071665
0.000311062437258
0.000278595584914
0.067100744669
0.0657827906627
0.067593379263
0.000187539780027
0.000183245548755
0.000237067060083
0.000201831241789
0.0737023253679
0.0681177152726
0.0732614109612
0.000235875440955
0.000574761729787
0.000243676697016
0.000460123594545
0.0536870718084
0.0519472665399
0.0529886605786
0.000390208704197
0.000631251796354
0.0003320882861
0.000589136326671
0.0566000679636
0.0544929250282
0.0551497718956
0.000367849038337
0.000357013434714
0.000303315353639
0.000297585090522
0.0574783493725
0.0555137554253
0.0558834473454
0.000369563028163
0.000414699381335
0.000304769900317
0.000313433036269
0.0589177670044
0.0567847611377
0.0579420542624
0.000441071012286
0.000465961746317
0.000313656519792
0.000331653915164
0.0604669416925
0.0590250114834
0.0599803326589
0.000497498265924
0.000522296935829
0.000393466310751
0.000438003489689
0.061665942235
0.0608154966879
0.0612423247235
0.000522648700377
0.000599813002418
0.000431003110352
0.00058254942976
0.0626604030774
0.0610064153921
0.0617117624016
0.000969647477789
0.000797439976902
0.00126673836062
0.00136166102405
0.065291709806
0.0639349349194
0.0648996537795
0.000359387127095
0.000263264560063
0.000415964437854
0.000200042486687
0.0676765052586
0.0655193181243
0.0670096273301
0.000242409158955
0.000230472566454
0.000207580659079
0.000220826120986
0.0724483290921
0.0668618293826
0.0708796500018
0.000286680020972
0.000511406750261
0.000302311209411
0.000569018501489
0.0545411723433
0.054783315818
0.000241769473598
0.000237157030635
0.000237139439896
0.0556510716442
0.0554599944024
0.0563356920801
0.000236248716844
0.000238143416302
0.000226216585623
0.00021698033935
0.057735008735
0.0572897961561
0.0580326355205
0.000239098742094
0.000251972905276
0.000214002082097
0.000219019886936
0.0595734756777
0.0584732193451
0.058966079624
0.000287077888711
0.00032039176787
0.000247203580772
0.000311390420669
0.0611425979573
0.0599473901118
0.0608050197416
0.000327480498359
0.000396121729715
0.000340946218262
0.00029584944728
0.0628510438324
0.0616936309898
0.0626260363348
0.000407443545836
0.00045340368524
0.000290618256799
0.000324426518933
0.0641488838293
0.063311467501
0.0639196402062
0.000399951787244
0.000274981590716
0.000331457070251
0.000269123101006
0.0659306426491
0.0643147264549
0.0653013474123
0.000211788396362
0.00021398970922
0.000198375571868
0.000168167117707
0.0690517175864
0.0638754892257
0.067591384544
0.000270614003337
0.000571805055631
0.000192304781012
0.000556777117017
0.0588442548679
0.0599647885845
0.000184045017688
0.000178038656218
0.000183513685333
0.000165075926408
0.0591539601811
0.0597168752432
0.0598778107139
0.000173581440396
0.000333125633088
0.000155553610918
0.000321401438304
0.0610017698956
0.0596388550943
0.0616833167719
0.000829605867268
0.000517417669759
0.000995659824015
0.000506961680062
0.0629648505492
0.0631034704434
0.0636778674157
0.000287182608136
0.000283883074781
0.000248096027509
0.000242926288071
0.0640878970689
0.0641168044451
0.0646025607473
0.000251901374189
0.000222254028154
0.000212746669287
0.00020144673071
0.0652512303695
0.0648233825512
0.0655898683084
0.000182121702617
0.000189820807974
0.000186418526505
0.000216974661024
0.0668298326086
0.0631636921968
0.0668614167565
0.000202133313545
0.000556227455989
0.000230084143105
0.000569319221548
0.0642631918778
0.000264238537957
0.0652368889585
0.00024133705979
0.000234382153688
0.000208089815224
0.000188669695746
0.0662223488642
0.000202245677117
0.000231831458757
0.000158761762387
0.000178215423674
0.0674102363102
0.000259968700017
0.000608466852742
0.000248116595716
0.000706305107571
0.997536953599
0.997578564633
0.832661789525
0.831978249503
0.997498910082
0.831477420607
0.997601036064
0.997553871377
0.997452355519
0.830995003274
0.83049517164
0.997550137988
0.997540696159
0.830117152512
0.997416399643
0.997589511106
0.831142975553
0.831002292582
0.997484915367
0.82886419711
0.997524991809
0.997319143543
0.997145941535
0.827737000207
0.821831723335
0.997110255737
0.825600247869
0.997402092307
0.997458671126
0.997392725338
0.830582881822
0.829960159055
0.997539111298
0.997301586215
0.828837271615
0.997328993996
0.996992363232
0.821291337472
0.827602547904
0.997084234501
0.997187220134
0.82538410618
0.995977592675
0.996665007933
0.819344305531
0.818840474029
0.996678342772
0.817493843528
0.995932391635
0.995433326289
0.995204912747
0.820640570577
0.824033347881
0.995411702229
0.819509343008
0.995243989374
0.996195839288
0.996667747323
0.818602997491
0.821129383554
0.996680194106
0.996241873741
0.8180172974
0.995982772268
0.996141227118
0.825023176847
0.824196578997
0.996030380587
0.99608963687
0.820649691026
0.995987127091
0.995353672553
0.835609546407
0.830008165264
0.995559271806
0.836312010161
0.995804999952
0.996639159318
0.99727621336
0.839870884448
0.844739166377
0.997345802353
0.840773120888
0.996510669434
0.996610793765
0.996358454387
0.830608907175
0.838446327528
0.996244422637
0.996728205282
0.836301863743
0.997112018492
0.997579296094
0.844002189689
0.841067595868
0.997591142335
0.99717542545
0.840513818057
0.998356521687
0.997900799806
0.849829667516
0.847189589371
0.997946903846
0.849178871545
0.998327549663
0.998645333515
0.998819724656
0.852513221804
0.853694884878
0.998856004898
0.851387257943
0.998596633514
0.998401717778
0.997925526028
0.845116157938
0.845452004327
0.998025820302
0.998268256091
0.846278284239
0.998723976354
0.998933519934
0.850262810337
0.846788500898
0.998963330668
0.998626814697
0.847901988997
0.999008753047
0.998952646365
0.858945118483
0.855585344654
0.998991605521
0.856675721109
0.998967426109
0.9989920513
0.998920702644
0.860062093759
0.856481977733
0.998921123765
0.857074586232
0.998957027048
0.999083253493
0.999098694639
0.852645041914
0.848836336088
0.999076129341
0.999115352186
0.853403082991
0.999072017178
0.998975964582
0.852419694435
0.848744829837
0.998987087706
0.999086459061
0.853354825693
0.99858443718
0.998811035757
0.856161198212
0.854336967467
0.998783629485
0.851225932286
0.998597396128
0.998310719236
0.998029927803
0.851529579024
0.842705261151
0.998064614231
0.846986510907
0.998298405909
0.998624510765
0.998794472779
0.850586093986
0.845278923712
0.998825511729
0.998562695501
0.848236742164
0.998377400241
0.998001939179
0.842003820014
0.843206965463
0.998118869166
0.998290436106
0.84531206323
0.997693084747
0.997743380623
0.838429023705
0.83900860039
0.997825923034
0.836381168742
0.997635417406
0.99752567864
0.997521065236
0.836557378074
0.831672042928
0.997481834127
0.834740705289
0.997542119141
0.997675804532
0.997720773926
0.839002431666
0.836175920786
0.997852108391
0.99749737727
0.836818452192
0.99746893862
0.997170052559
0.832386467743
0.834582514977
0.997413839825
0.99724475825
0.835233757098
0.996366933127
0.997230970775
0.832889894082
0.835702999468
0.99722755321
0.834207302366
0.995950319544
0.993520430992
0.988391967617
0.781922550546
0.809865645704
0.808283051269
0.99192123929
0.986927737586
0.996387119231
0.997007192049
0.836938985738
0.832483100656
0.997225006214
0.996291613887
0.831816994868
0.993347398814
0.994949735215
0.811186500599
0.789169737914
0.993952419348
0.786789681789
0.994148990708
0.998622231794
0.998967364501
0.866945197232
0.876272566184
0.99867757844
0.866874786876
0.998863133987
0.998308671124
0.998035869979
0.855924946983
0.847968753501
0.998342832084
0.997981730471
0.857053875175
0.998573972299
0.99878342343
0.875519709832
0.867741893806
0.998583627005
0.867759337717
0.998807101085
0.998267529129
0.998027647872
0.851149004677
0.861218996298
0.99791296625
0.998311585348
0.859576345654
0.997414615009
0.997669750364
0.834009203343
0.841621103228
0.997441724709
0.997644305476
0.837413729336
0.997242410648
0.997156118625
0.833118334015
0.836460892367
0.997299068788
0.997104657588
0.836196602288
0.997265519988
0.997686419665
0.845549220499
0.846191553693
0.997534411129
0.99739217936
0.841519290067
0.997028251231
0.996887192794
0.841533590074
0.846140404834
0.996852116509
0.997120700865
0.841418533858
0.996887591703
0.997026530233
0.832429847972
0.836807996888
0.99687961037
0.996995089122
0.836947922767
0.99678136842
0.996558613699
0.831310375672
0.834737164907
0.99674255289
0.996631824207
0.835967096981
0.996646982319
0.996744981953
0.841821369473
0.846370806417
0.996744001703
0.996601812185
0.842107770894
0.996556862581
0.996518096868
0.84076305398
0.845800117541
0.996491062282
0.996522870674
0.84153656962
0.996364640825
0.996315403571
0.825465363764
0.833079724033
0.996123693782
0.996452728599
0.831588580082
0.996348505747
0.996268565131
0.826701200588
0.833551173441
0.996135341908
0.996430325744
0.832256208955
0.996513799619
0.996534464516
0.839289250395
0.843266041918
0.996481845184
0.996605856947
0.838019767538
0.996599111696
0.997006803999
0.838051738789
0.842648034065
0.996808069495
0.996747691399
0.837203591589
0.996821777765
0.996507953168
0.837233690726
0.836299271873
0.996809956875
0.996602056121
0.838860013791
0.997055328392
0.997288324477
0.84043841007
0.843861203287
0.997091874465
0.997230559006
0.841383425357
0.997194579296
0.997242347582
0.839271241584
0.843652921195
0.997029366897
0.997407768177
0.840532369829
0.997290045745
0.99742084566
0.843865588559
0.844463452462
0.997331667086
0.997439145571
0.842172794408
0.997526065744
0.997480654613
0.846025412327
0.845822465574
0.997677835058
0.997374560205
0.845735959677
0.997643183624
0.99808242692
0.844762120699
0.8417946519
0.997881740499
0.997743141826
0.843987082982
0.997400563532
0.997391838854
0.845799613027
0.844429262517
0.997373630181
0.997330031594
0.845633677991
0.997422880535
0.997322741968
0.840946446941
0.842518331851
0.997460369536
0.997312137422
0.84365263649
0.997978794361
0.998244886207
0.844395708678
0.84067881621
0.998383628254
0.997848699276
0.840365531324
0.998087623765
0.998413855414
0.845016188069
0.840809544456
0.998431572671
0.998084893547
0.840660449144
0.997699409289
0.997366659216
0.838763157178
0.836178078839
0.997552163915
0.997438728847
0.837028380174
0.99782504833