/*--------------------------------*- C++ -*----------------------------------*\
| =========                 |                                                 |
| \\      /  F ield         | OpenFOAM: The Open Source CFD Toolbox           |
|  \\    /   O peration     | Version:  v1906                                 |
|   \\  /    A nd           | Web:      www.OpenFOAM.com                      |
|    \\/     M anipulation  |                                                 |
\*---------------------------------------------------------------------------*/
FoamFile
{
    version     2.0;
    format      ascii;
    class       surfaceScalarField;
    location    "13.4";
    object      phi;
}
// * * * * * * * * * * * * * * * * * * * * * * * * * * * * * * * * * * * * * //

dimensions      [0 3 -1 0 0 0 0];
oriented        oriented;


internalField   nonuniform List<scalar> 
92311
(
0.203813007744
6.43491539931e-07
-0.00114289501592
-0.203569374466
0.000898618569495
-8.14057403426e-05
0.203987759566
-0.000775566457324
0.000682666698595
0.203814237933
2.74282266124e-05
-0.00118984400232
-0.203571317576
0.000920595132452
-0.000101226200742
0.203982001103
-0.000765272036029
0.000617931039921
0.203600023044
7.90738349427e-05
9.31334546087e-05
-0.00120789526793
-0.203609723972
0.000906176457437
7.32299024147e-05
9.37190872511e-05
2.19067378843e-05
-8.29559013011e-05
-8.81728960751e-05
0.20380575109
-0.000753726071484
0.000566454986899
2.98773677827e-05
0.0510847612024
2.783486387e-05
2.05153166189e-05
2.11467096865e-05
2.71364843243e-05
-0.000343670541022
-0.0510465181912
0.000287942414716
-0.0511497969053
0.0511885518823
7.42243668765e-06
2.02897717956e-05
1.33988116543e-05
1.38952343631e-05
-0.00021226386111
0.000140446233641
1.48550470067e-05
-0.0108071749575
1.53519863482e-05
2.25635943179e-05
2.48732478651e-05
0.00185819514655
0.00811563088018
-0.000960851352583
0.00171671994779
-0.0214840802575
-0.00248144880817
0.00026003994572
0.0191029950387
2.11978728867e-05
3.33789028429e-05
1.25322962419e-05
1.65839655326e-05
0.00451874222377
-0.014836132388
0.00179939108641
0.00319928310282
0.00317822371976
-0.0185013765118
0.0385863129995
0.0445456559285
0.00283296593255
2.12407287646e-05
2.47159491747e-05
1.77343047338e-05
2.98443428307e-05
-0.000265522506461
0.000200224567111
-2.80632731357e-05
0.0117402902775
1.62125129825e-05
9.99530309098e-06
-0.0117236238818
0.011792957056
-2.77703423683e-05
-2.36593680458e-05
-0.0117740160335
4.18021915593e-05
-9.3811157106e-06
6.99204965305e-05
-2.79339218517e-05
0.0512366871388
-1.74667454817e-05
-1.08636453482e-05
-4.18640686721e-06
-0.000140478283876
-4.43992104405e-05
0.0511730534701
-5.48905907561e-05
-2.34230861517e-05
-2.99006765152e-05
-0.0510929874475
5.42651244871e-05
-2.23425496757e-05
-2.45882884868e-05
0.0118094426464
4.15862637611e-05
-1.11300670782e-05
-2.73607624048e-06
0.0127800353838
-5.30590870916e-06
-2.5212383481e-05
-0.0127747197152
0.012770701374
-3.67017591976e-06
-5.3085184255e-05
-0.0127610604841
-0.000150010444189
0.20403219627
-0.0019852904714
0.00166556931261
-0.203562464623
0.204098377488
-7.98346169714e-05
-0.000353345415985
0.000323376925424
-8.06143582439e-05
0.204212046348
-0.000202205275968
0.000169751676589
-8.85970055458e-05
0.204077960406
-0.00209855473895
0.00169813017337
-0.203738529937
0.204196982586
-0.000188443871808
-0.000457425578349
0.000351735129002
-0.000151345014363
0.204387643476
-0.000290751045367
0.000171303932862
-2.57915978282e-05
5.44064295116e-05
6.56970888952e-05
-0.00217772181042
0.20413492853
0.00172881229277
-0.20386169439
-6.94423611259e-06
-0.000191158460304
-0.000216558423242
-0.000187887132879
-0.000243281604727
0.204446541339
-0.000304946902594
0.000314762220976
0.0511679567838
1.04395944414e-05
-9.7210986173e-06
-1.11483702195e-06
2.3516784358e-06
-0.000685563597503
-0.0511253672603
0.000615231029771
0.0512982530544
1.2384232492e-05
-4.5809222088e-05
-3.62738008087e-05
-6.30187676588e-05
-4.93319522732e-05
-7.06444727252e-05
-0.00526456148775
1.90791489501e-05
-0.0213593255745
3.92175804513e-05
6.49134615738e-05
3.97204351745e-05
6.1907664626e-05
0.00491471899642
0.00766484811895
0.00890136928895
0.00810425403323
-0.0234112161019
-0.00324168627878
0.0601521289447
0.0220324796551
0.00818967869359
-0.000305462875219
0.00079072862151
0.000180815954862
0.000773191383864
-0.0045973818234
0.0264982098799
-0.0108287665227
0.000523971569936
1.62937855774e-05
9.50308846279e-06
5.80323243884e-06
2.04855543006e-05
0.0512366854683
-0.000590395337302
3.16264017509e-05
3.26295362901e-05
2.71119336567e-05
2.91170911625e-05
0.051139362735
0.000415698117663
-0.0510858716375
1.6490266646e-05
7.70808367229e-06
0.0117581114231
-7.99052796687e-05
8.37600207803e-05
-0.0117861482437
1.14293431884e-05
-7.94812413316e-06
-0.0117073476767
-9.50528947197e-05
0.000109535931471
0.0116893784462
5.42930220615e-05
0.0127482151621
-0.000115315389056
9.09981157684e-05
-0.0127465546518
-5.655625858e-06
-6.22723453701e-05
-5.8131055392e-05
-5.05194047303e-05
-6.95284972457e-05
0.0513548420799
-2.70248666302e-05
0.0512750923162
-5.95113867025e-05
-8.53271756374e-05
-6.89893143918e-05
-7.4185944661e-05
1.04765451137e-05
-8.51861679439e-05
-9.09825024467e-05
-7.47209923747e-05
-7.87979130666e-05
0.0513490785218
6.57102739204e-06
-5.27475054708e-06
-2.85391555557e-06
-4.29640931067e-05
0.0127853002405
-5.11610130637e-05
5.27535288081e-05
-0.0117273031327
-1.37462970548e-05
0.0116956167174
4.381493828e-05
-8.19756258468e-06
-6.57579014521e-05
0.0127798658383
-0.0127878539648
-0.000106010037247
0.0128045540118
4.23861471966e-06
-5.12393848708e-08
-0.0148136525509
2.02276122927e-05
2.28282571885e-05
2.35203622211e-05
0.00194804647076
0.00226133713319
-0.000296851999237
0.000821806898654
5.68458191521e-05
7.04794841415e-05
5.74830592042e-05
4.8030306688e-05
-0.00795211881296
0.00119773373629
0.00321801633871
-0.010747842184
-0.00465277505806
0.00586077863975
0.0121621954928
0.00587222364332
-0.00357585799148
-0.00958693469518
-0.000108702625078
1.89252567485e-05
1.38905029498e-05
1.22839613117e-05
0.00332515189311
0.00100508781618
-0.00680988702907
0.00784178197611
0.00790650810206
6.52257000248e-05
0.0127506830965
-7.40540806965e-05
-0.0127420390868
-0.0127415846433
1.7028110534e-05
-5.84705293305e-05
0.0127495079898
5.40517110897e-05
2.63418852551e-05
-2.53651617707e-05
0.011753753775
9.16182979459e-07
-1.77347891026e-05
0.0117610163344
-0.0117496306094
4.50810671088e-05
-0.0127325715019
5.97737170762e-05
0.0117721565815
5.70609880642e-05
0.0127609797277
-6.68587557476e-05
0.012756352976
1.98025190525e-05
-4.90861453923e-05
4.3778253432e-05
4.26941923246e-05
-0.0127708977298
0.0127791937061
-4.98626628005e-05
3.27798550155e-05
-2.84763897341e-05
-4.25317977573e-06
-1.71858940538e-05
-0.0117837067597
0.011793084771
7.24249882768e-05
0.0127636689377
3.60375351259e-05
6.44703164998e-05
-5.74535370955e-05
-0.0127689190032
1.10067176065e-05
-2.37539732667e-05
0.0127758592938
1.32397360425e-05
3.11820919464e-05
0.0127832490863
-3.94820156452e-05
3.19214169e-05
-1.87821474557e-05
0.0118175995263
-2.33958737591e-06
-1.73693722383e-05
0.0118052433841
6.07565941682e-05
2.19993766916e-05
0.0118100285771
5.04197155583e-05
0.0127871964604
-3.25423682453e-05
-3.43853162031e-06
-0.012785824189
0.0127879001188
-2.14037102803e-05
1.51254355404e-05
-0.0118133401096
0.0118028538437
1.3149492205e-05
-0.0118113860147
3.6220389263e-05
0.0117983949915
6.85400889475e-07
-1.31860453685e-05
2.77321210857e-06
2.582693243e-05
-9.95622217038e-06
8.85924494744e-07
4.17178906855e-05
-2.60000821178e-05
-7.23341944782e-05
-0.0127523247058
0.0127645472578
1.52573953535e-06
4.7608062685e-05
-0.0118202750454
0.0118126774733
-0.0118229799381
0.0118110810677
5.76726892343e-05
5.10967369478e-06
-2.77870693637e-05
-0.0127590303426
4.12478429449e-05
-5.17139175981e-05
-0.0118117202013
5.6774632468e-05
-0.0127475677098
1.17747401806e-05
-0.011810005415
-0.00256590734653
0.0074547513607
-3.88852405926e-05
-2.86045805715e-05
-2.53451604839e-05
-3.16377882024e-05
-0.00824405093487
0.00658779909317
-0.00310821931032
-0.00625961090002
-0.00534678929267
0.00860665415681
0.00809653734498
-0.0100347753549
-0.00258433524113
-2.52931128405e-05
-4.38770269935e-05
-5.16333390622e-05
0.00777557663637
-0.0060599451393
0.0110405254602
-0.0020981639478
-1.66780268436e-05
-3.13102292261e-05
-3.31651438562e-05
-0.0114461366286
0.0110567669749
-0.00965908959064
-0.00155569347217
0.0117990645348
0.00573367637379
-0.00147547701276
-0.00843353055867
0.00113237360598
-0.0130723671325
5.9735132319e-05
7.65276967866e-05
7.48996582242e-05
6.15182829319e-05
-0.00154928603765
-0.00260920167281
-0.00432196174117
0.00310436341107
-0.00313517769537
-0.0022446739015
0.000844650199431
0.00701787135283
6.21325782346e-05
5.96091601275e-05
4.35771516549e-05
4.56979457947e-05
-0.0163602030755
-0.00478682732709
-0.00115174768583
-0.00386236439703
0.00172340462628
0.000257823674088
3.93428742126e-05
5.10093047261e-05
5.2250206594e-05
-0.0203412293566
0.00554802725082
-0.0020791188524
-0.00118142298835
-0.000160362873288
-0.0127727667254
2.74728432536e-05
0.0127706094099
0.000145482750553
0.0127832751155
0.000169208809481
-0.000171995634303
-0.012782550642
-2.97393826383e-06
-8.53725702622e-05
0.0117289380404
9.22400915722e-05
-1.52268714807e-05
0.0117421237579
-0.0117700249392
-8.06468843116e-05
0.012782732769
-0.000163981553567
-0.012774630977
0.000158156419592
0.0117163292037
-8.37674856014e-05
-0.000148410520322
0.0127719216462
2.71620266044e-05
0.000136195851913
-0.0127854244937
0.000138829169391
-0.000142934066038
0.0127910932183
-6.80339585222e-06
-9.20317581829e-05
0.000103689951882
-3.00333862601e-05
-0.0117025489127
-8.36518554895e-05
0.0116898283246
-0.000152126249636
0.000124996558955
0.0127761791262
-8.4327590013e-05
0.0117177884798
5.71545546596e-05
-2.98887658283e-05
-0.0117296231932
-4.98770649849e-05
5.32270714415e-05
0.0117069163966
-2.11197533246e-05
-0.000104202700226
0.0127531888417
8.19255768495e-05
0.0127590785529
4.81863206105e-05
-0.0127592847884
-4.50001564493e-05
-0.0117100944982
0.0116993657521
0.0127639585415
-0.0117207363908
-2.06416875588e-05
0.0127886275049
-1.92320902488e-05
7.85537925306e-06
0.0117891242455
2.44526584755e-05
0.011788183765
3.99905947253e-05
-7.4731973388e-07
-5.70144272017e-05
0.0127862713979
-6.26046620684e-06
3.51003424457e-05
1.81809412835e-07
0.0117589715879
3.45875087804e-05
0.0127905150423
-1.69250040944e-05
0.0117597867217
3.34794600558e-05
-8.21181038559e-06
0.0127954412896
-6.22100663453e-05
-1.0372039141e-06
-0.0127965888986
1.26553716107e-05
0.0128020308875
-2.34796621356e-05
4.22059020042e-05
-4.94415794316e-06
3.37806151614e-05
6.78844125941e-05
-0.0117200934318
1.01896209819e-05
0.0116793436171
-2.25569610442e-05
2.33242110757e-06
0.0128041179215
2.47216297647e-05
-0.0127771034063
-0.000100689226135
9.05681594562e-06
-4.42335782354e-06
-8.65233637069e-05
-3.10972165093e-06
4.58752495151e-05
0.0118007816422
0.0117968952589
5.0057375114e-05
-3.91377582966e-05
0.0117669774793
4.31963602055e-05
-7.88396346084e-05
0.0127874455293
0.0117778096011
0.0117229915143
-2.75130826917e-05
2.78483681952e-05
0.000110883425492
-9.81775478938e-06
0.0116813628698
3.53783281797e-07
-2.31951363141e-06
0.0128172773836
9.5386798179e-06
0.0127999510389
-8.39110510467e-05
8.79061392658e-05
-0.0117368237965
0.0116929300651
0.0128090472137
-0.000210346305793
-0.0002202809947
-0.000135597732061
-0.000120410624869
0.2049694674
-0.00016187049443
0.000174256160696
1.25406094506e-05
-6.45746165572e-05
-5.44836357217e-05
-5.85237228703e-05
-6.45627152639e-05
-2.80647568698e-05
0.0514021850168
5.02875263753e-05
-0.00761912419797
0.000787654272248
5.1433091521e-05
4.67970083989e-05
4.35901187034e-05
0.00457989787381
-0.0182815029443
0.00134573349452
0.00139484649156
0.00231463704708
0.00531199525791
0.0261808972385
0.00150698486947
0.00301449123824
2.47233584929e-05
3.25472503169e-05
3.04119739677e-05
2.88973765937e-05
-6.32983052456e-05
-0.000440957727979
0.05118345139
-1.09569037226e-05
-4.38703579051e-05
4.62493359182e-05
0.0117254972055
0.0514130971586
-7.07384862535e-05
-8.62941607104e-05
-7.33628979789e-05
-7.9388790118e-05
3.80004369384e-05
0.0514490883326
-5.64574675758e-05
-4.29938890333e-05
-4.21439049787e-05
-6.31466634478e-05
-6.0424988339e-06
3.91130595656e-05
5.77840937463e-05
0.0116563592093
-2.6836929712e-05
5.85522295287e-05
-4.70455402453e-05
0.000110330421684
1.29032932692e-05
0.0116247072501
-1.96900073688e-05
0.0115046668622
-5.98331133239e-06
4.09131425454e-05
8.43591741772e-05
-0.0115365363509
-8.73668703101e-05
0.0514299695867
-1.90382125157e-05
-3.07331888293e-05
-3.12425454243e-05
-1.36821608449e-05
8.28954004042e-05
-2.20475756345e-05
5.30137210394e-05
-1.63932670611e-05
-7.5033399081e-06
-1.74526178762e-05
-7.48489401051e-06
8.10759315173e-05
-1.95185187744e-05
0.0513714943135
4.57880105412e-05
-8.12643174775e-06
2.04625900721e-05
0.000114572180954
0.0114926815674
-0.000114834409546
-4.0607558221e-06
-2.48921238399e-06
0.000190933363367
-0.0114895880428
0.011493024067
-0.000187720445126
1.08931647521e-05
1.6089158598e-05
1.90594582472e-05
0.00826031357473
-0.0135603597273
-0.00114294367524
-0.0173218994187
0.000890344834586
3.66148024427e-05
3.57182091479e-05
3.17944851769e-05
-0.00769915777202
0.0003228374779
-0.0162273149786
2.08222474027e-05
1.80962277167e-05
2.73717277129e-05
0.00669437066637
-0.0081838326986
0.000449954409517
-0.00172126577132
0.00132570021559
6.18488579315e-06
-0.00112710943663
0.000516869583022
0.00385587258085
-0.00170199906219
-0.0121721543977
1.87730176772e-05
-1.26827259769e-06
1.24589290842e-05
0.00173942834783
-6.2029370568e-05
-0.0057706958522
1.38105096315e-05
4.24727787435e-06
1.39407272206e-05
-0.00251511502851
-2.67002468002e-05
-0.0081598005855
-0.001506754525
-0.0127740143267
2.9514386211e-05
8.62838855561e-05
-0.000103356289327
0.012786305293
-9.47526487893e-05
0.0127625956135
-3.96361472571e-05
0.0117129284901
8.3190742972e-05
4.25191983066e-05
-3.64693788757e-05
0.0117365288856
-0.000114011658517
8.15945301831e-05
0.011722458132
0.012774457171
-2.66411177956e-05
-0.0128161016717
-6.61066559185e-05
1.99665554705e-05
0.0128243106212
0.0128105199068
2.19268748243e-05
-2.70659032281e-05
5.97247663911e-05
-4.76277489732e-05
7.69406712965e-05
0.0116187240166
6.98367732441e-05
0.0116376375675
-8.18201801992e-06
-3.23227320325e-05
0.0128174985493
1.52758917617e-05
-3.21200397645e-05
0.0115996363934
-0.0128246978828
-8.1309785265e-05
2.37041908376e-05
0.0128315962565
-1.60063133083e-05
0.012835616525
2.16981143301e-05
8.97062689352e-05
0.0116445865677
3.79016023123e-05
8.55418859252e-05
0.0115801536527
-4.30936426428e-05
0.0116008182405
0.0128376598807
2.78724242707e-05
0.0128384440309
-6.92534864529e-05
3.47382457057e-05
-2.87803973425e-05
-3.90048932954e-05
-0.0128413956133
0.0128417242241
3.66390306506e-05
4.75696434141e-05
-0.0115617907265
0.0115324054024
8.70205128036e-05
6.12309001237e-05
6.70671412453e-05
-6.65557071694e-05
0.0128397866806
-3.49079098032e-05
5.84242699772e-05
3.50260511839e-05
-0.0128373335159
-1.54922442731e-05
4.02138289457e-05
0.0128344457208
-4.08794116252e-05
-3.93962092573e-05
0.012835568968
3.53459273951e-05
3.01275351384e-05
0.011516894713
0.000118744583872
0.000141351197866
3.30530485049e-06
0.0114841888918
-0.000137346740068
-3.80809465507e-05
0.0115072323752
0.000147924736796
0.0128294137029
3.61015197005e-05
0.0128292311715
-9.51590887707e-06
3.53603979863e-05
-3.70332401446e-05
-3.48043079625e-05
-0.012821659885
0.0128189251306
2.76265852612e-05
1.31208741136e-05
-0.011506013817
0.000193996831451
0.0115036195478
0.000167264870914
-4.70789427136e-06
-0.000163610599913
-3.49047235342e-05
0.0128249572668
0.000172952618319
3.10502653179e-05
-0.000410530113211
-0.0495141017846
0.0494181076698
0.000595309232145
-4.99738852045e-05
-3.7397020141e-05
-3.04750601274e-05
-5.11722549199e-05
8.05993236923e-05
-0.000716788705919
0.0500354042198
-7.22643571841e-05
-7.36941003367e-05
-7.6395344366e-05
-7.09555445843e-05
0.000221975846185
-0.0499588307054
0.000711418682856
-0.00116628913183
-0.0501786215725
0.050357538263
0.00102873597116
-7.33480117181e-05
-7.37759255324e-05
-8.670273028e-05
-6.86936655607e-05
0.000261162499044
-0.000852780450102
-1.35913455806e-05
-1.55224106957e-05
-1.58505806262e-05
-1.36107725937e-05
0.000117883090972
0.0505769817593
0.000681416693157
-0.0504649234987
-3.58282045859e-05
-0.00944222941681
-0.00674422973633
0.0106108202974
0.0080872173448
-0.00243657350936
-3.75733863455e-05
4.67549118238e-06
4.50573204747e-06
2.83739834076e-05
-0.013250123036
0.0132126823755
0.00679206568948
0.00137538380939
5.87266519794e-05
5.93384309289e-05
0.000106522931854
-0.00836181555022
3.65946906193e-05
-0.00430182210161
-0.00850223867445
-0.000351898345686
3.62625087175e-05
3.17240233931e-05
2.97498870223e-05
0.011999455454
0.00102197286197
6.8403042935e-05
-0.00405967831327
0.00536647598065
-0.00318939193987
0.00107177044635
0.000553681582435
7.86355009137e-05
5.3994551278e-05
5.61482275948e-05
2.69197311334e-05
0.000914263606535
2.75208899064e-05
2.6709160883e-05
2.904661577e-05
-0.013820314121
-0.00164116895348
-0.00155710436466
0.0159938961223
-0.00488548138431
-0.0177321705131
0.00474285078145
0.00348345402996
0.00440812535487
0.00368109638605
-0.00331033897967
0.033089157693
-0.0532419460138
-0.00434827435224
-0.00945782586845
-0.00331265545092
-0.0105254192214
0.00189429080317
0.0643337336106
0.0341779126603
-0.0185100328794
0.00249955111559
0.00159775515513
0.000253433309324
-0.00107837958626
-0.00865132775078
-0.02165159892
-0.00321863351042
-0.00982377628907
-0.00474734276306
-0.00781077244666
0.047358290425
0.0431923255844
0.00286150673148
0.00229186924496
0.00355207971522
-0.0118291022842
-0.00476009175936
0.00390627729419
0.00045824900785
-0.00136212591409
0.00179677521711
0.000779465511236
0.0682499769091
-0.0067058485725
8.08757879817e-05
-4.65641592468e-06
1.03918920409e-05
6.2291638237e-06
-2.55335800088e-06
0.0492774466473
2.74599989862e-05
4.977307567e-05
-0.0494447887311
0.0493151228598
0.000233039297171
-1.21172924408e-05
-1.15162022261e-05
-4.24516504399e-06
-1.95856391008e-05
4.87352400413e-05
-0.0494684277149
7.52226396527e-05
-1.89260753527e-05
-0.0118434453019
0.000119663660537
0.0117767474136
-0.000109228530936
0.0118263415658
0.000116267543891
5.03020317014e-05
1.70807495136e-05
-0.000122396055165
-0.0118875277425
1.98158653606e-05
-3.78289380291e-06
8.78631836659e-06
1.04522471762e-05
-0.000165837514681
0.0123114479469
0.0122272280371
0.0122401780599
0.0123048312948
-4.85489934016e-05
0.000131649551216
5.07602934058e-05
7.22651647178e-06
-0.000141166000485
0.0117774419616
0.000384471416571
-5.35024981886e-05
-3.44178726102e-05
-4.02720556149e-05
-5.06665535067e-05
8.71155935093e-05
-0.0495737698371
0.0497391352011
-6.97868922285e-05
-7.8450913286e-05
-6.94423764726e-05
-7.71395900363e-05
0.0001237285934
-0.0497150263264
0.000531459614233
0.0118327578315
3.77980753526e-05
4.18821768841e-05
-0.0118907003724
9.45142917065e-05
0.0118370607732
-3.94599136046e-05
0.000111914051625
-5.97415287502e-05
-0.0118919437192
4.2453353978e-05
0.000854208837754
-4.30763209828e-05
-2.20813781438e-05
-2.12922346861e-05
-4.61380108353e-05
0.049317392832
-0.00018716664148
-0.000145065791077
-0.000175802643813
-0.000143178192244
-7.48326932112e-06
1.06660714047e-05
9.30885391492e-06
1.77780968049e-05
0.0497180766826
-7.57034364163e-05
-7.62543165718e-05
-7.01658788785e-05
-8.31173345458e-05
0.00020507299706
0.0498450597897
0.000917342653868
-7.08994504361e-05
-8.81275025269e-05
-7.98629314378e-05
-7.63000899313e-05
0.00012533298812
3.50370927872e-05
0.0117856043141
0.000108094287302
0.0116858350798
2.7705213235e-05
3.14643876615e-05
-0.0117170796974
0.000164338395159
-0.000191900814279
4.14716984127e-05
-3.94680280149e-05
0.000103661650172
-6.49822364927e-05
0.0117965465842
0.0117110578392
6.76837535461e-05
-6.62945591144e-05
0.00012470092982
-0.000101619145228
-0.0117355792528
0.0500360541586
-0.000102473110186
-9.28907857251e-05
-8.41893929848e-05
-0.000107234286403
-0.00116232800628
0.000192146791317
0.00143068384136
-9.42986378874e-05
-0.000115806632627
-9.79281606744e-05
-0.000123894735876
0.050616762786
8.14252720896e-05
-0.00166069328816
4.67192030739e-05
0.0116909106053
0.000193951438007
-0.000217487163747
-0.000249394455841
0.000203434857146
-0.0117580565322
0.000289619929267
0.0118317233143
-0.000317621064469
8.33704850614e-05
-9.32978225759e-05
0.000122664463743
-0.000123410170168
0.0117217129533
0.000142972071847
-0.000137547313464
0.000159562406115
-0.000201383967298
-0.011772271828
0.0118087247612
0.00088174641814
-5.99628831682e-05
-7.40403328767e-05
-6.42470144928e-05
-6.6435806979e-05
0.000157242899095
0.0503527346323
-3.79770780597e-05
-3.442013696e-05
-4.12949247988e-05
-3.51218697849e-05
0.000148316762313
-0.0502288784168
0.000758415869092
8.26684668758e-05
0.0117817824434
3.36802255324e-05
-0.0118199137
0.0117094706535
-5.01397198381e-05
9.05756324271e-05
-0.0117289058721
4.68164871592e-05
0.0117006408284
-1.44798698518e-05
1.65413537107e-05
-2.8984150584e-05
-0.0117064830895
3.28518728828e-05
0.00120097848443
-7.99156312638e-05
-0.000100952507687
-8.56704240785e-05
-8.47546563408e-05
0.0506456598519
0.000293015700315
0.0504884527918
-4.35593482437e-05
-3.1017237798e-05
-3.8048009497e-05
-3.06462095058e-05
0.000183459913248
-4.60968510076e-05
-4.12988690842e-05
-4.17960064593e-05
-5.12822161933e-05
0.0506744946114
0.000978288712184
0.000217185125221
8.6381681331e-05
0.011719931494
5.5029904917e-05
-0.000104689797913
0.000117376690693
-0.0117688795147
9.94360123479e-05
0.0117998763037
3.08351612372e-05
-2.76616465331e-05
1.32732504315e-05
-3.01543011691e-05
0.0117143552732
3.11793825985e-05
-4.74581787787e-05
1.98045676733e-05
-4.18108433852e-05
-0.0117668262996
0.0118051389963
2.88958511652e-06
0.0117102872987
3.69234441872e-05
-0.01169231971
1.14919688812e-05
-0.0117672155067
0.0118045102759
-4.54174286684e-05
2.77848740081e-05
0.0076350861698
-6.12775515949e-05
-7.38992040124e-05
-6.04563406452e-05
0.0124379607767
-0.00473415880261
-0.00807840401297
-0.00698965584771
0.0105060918385
0.00932438770445
-6.93216819809e-05
-4.6632262046e-05
-5.89189556822e-05
-0.00611813634193
-0.00585229857213
-0.00567758328921
-6.57856502865e-05
-5.26419276296e-05
-7.16219054039e-05
-0.00758332729494
0.0145654774964
-0.00996907474169
0.00217012130711
0.00621428604764
-0.00479258904642
0.0111069583759
0.00477431760135
-0.00667389431747
0.00498748781403
-0.00958109098995
-0.00842880153959
-0.00232910883574
0.0116487909018
-0.00437245693319
-0.000555266170263
0.0049423262213
-0.00782466698023
-0.00221138730238
0.000755882850979
-0.00176140412153
0.00255238024461
-0.0149989795938
-0.00218956794201
-0.00265250861278
-0.00756667760007
-0.00301967020111
0.00072531509474
0.00228715850453
-0.0148277432015
-0.00298562976096
0.00781443931687
-3.32256651424e-05
5.90730586347e-06
8.02564444674e-06
-0.00283425907934
-0.00234391492395
-0.00161316876025
2.53904579938e-05
3.9675811375e-05
2.7393333719e-05
0.00551677025974
-0.000400691949876
0.00418018258824
0.00778376726853
-0.00134954253729
-3.16406870838e-05
2.3089482397e-05
1.01411079268e-05
-0.00905591929939
0.00174077124096
0.000287096004961
2.88364068932e-05
4.26781791785e-05
3.4239113909e-05
0.00100194187841
0.0039772196088
0.00431963545364
5.77154309406e-05
5.7298939416e-05
4.78254701159e-05
-0.0027650121136
-0.00367960322236
0.00416381330614
-0.0028620611898
-0.000175821276595
-0.000977148829818
-0.00478461498639
0.00259031010103
0.000575301410785
-0.00446850978826
0.005507416136
0.0036547467703
0.000175034554327
0.000234761320644
0.000183427126823
0.0102932572124
-0.007087820303
0.00457667795378
0.00174100703388
8.84889718814e-05
0.000102690838673
0.000109096912346
0.00288840547068
0.00350712511475
0.000179789614581
0.00013193439715
0.000149227099072
0.0030903243098
-0.00150037189247
-0.00350371314684
0.000811719344196
-0.00626155800549
0.000163985924754
-0.006104423587
-0.00162734251873
-0.00230187437284
0.000986006626599
2.68249617941e-05
4.55105145056e-05
3.86425021137e-05
3.71062988328e-05
-0.0014656081272
-0.0118612461066
2.47573708089e-05
1.54645617818e-05
2.30007232406e-05
0.0151842374582
-0.000949869030225
0.0020159467372
-0.000581278570338
-0.00372934764181
-0.0037246220117
0.00360087152661
0.00335388045811
-0.00144591949544
-0.00354104152819
0.00114876306975
0.00125658367363
9.46840140678e-05
7.52085534662e-05
7.31814547277e-05
-0.00243533858901
-0.0091616613321
-0.000852652651393
3.92491204562e-05
2.93500220696e-05
4.24649419234e-05
-0.000110594153228
5.79492445809e-05
4.65917206054e-05
5.61483500204e-05
-0.00753883613546
-0.000572107465041
0.00357116706778
-0.00506766830294
-0.00340919788378
0.00526329719097
0.00418253033069
-0.0049608976383
0.00679508072931
-0.00535350737924
0.0124063831637
-4.29625005949e-06
7.3092873893e-06
4.98578516475e-06
-0.0124190301264
-2.21157745142e-06
-0.012401867732
0.0123783009766
1.73108644871e-05
0.000109300086485
3.95152146452e-07
-0.000100518453808
-0.0119139474671
-1.33964113745e-05
-0.0118560077154
0.000125857012647
0.011789342332
1.2004904676e-05
0.0123850610675
0.000114800683115
-0.0119262645611
1.93310467709e-05
-0.0124160484662
0.012413722311
1.41161619168e-05
-1.17680512965e-05
-0.0124232005534
-2.57721110379e-05
-0.0124245377886
0.0124126683092
4.3255345006e-05
-8.56789452878e-07
-0.0118707920803
0.0118056563509
2.71194300269e-05
-0.00011175826825
0.000104534437277
-0.0119541012085
0.0123948309152
2.9439061626e-05
-0.0124323968799
-0.0119385108605
-0.0123709784351
5.91853721642e-05
2.41834132903e-05
-3.39989478371e-05
0.0123414580205
-3.68857229356e-05
0.0123911396123
6.17904357816e-05
-1.38514320311e-05
0.0117615727431
-0.000148976798243
-4.72965917373e-06
-0.000159276906832
0.000150724760935
0.0117376966374
-1.80498103462e-05
8.73507331561e-05
0.0123686112707
-0.000165056682442
0.0117199851197
-4.06589042014e-05
0.0124578741345
-8.3533349283e-05
6.93900680922e-05
-0.0124565814774
-0.0124409754557
5.51181182679e-05
0.0124365109386
4.89945366444e-05
8.73547864437e-05
-0.0119557288584
8.02398100498e-05
-0.0119034374444
7.64375274954e-05
0.0118470842857
-0.0124434888402
8.62066720424e-05
0.0124562891605
7.29540023442e-05
-0.0119645549826
0.0124756142992
9.47969280947e-05
-9.93796438869e-05
-0.0124714352083
-0.0001135307173
-0.0124953723576
0.0124981231797
0.00014446637048
9.71508015669e-05
-0.0118967468281
0.0118418512597
0.000113750619982
-6.12821238945e-05
-0.0119519933426
4.70988346043e-05
0.0124762411396
-0.0124887505228
0.000124940094318
-0.0119571295589
-0.000101991419112
-0.0124443481199
-7.25642454958e-05
0.0124334145111
0.000135543048765
0.0124193305332
7.65979333684e-05
2.89693351552e-05
0.000124739847447
0.0117448337931
7.2717982411e-05
0.0118019989089
8.55814481781e-05
0.0124030826746
0.000110088343306
0.0117602633103
9.85864541677e-05
-0.000135825873984
0.0124242547251
-6.87682995759e-05
0.000170786804706
-0.0123850647413
0.000172029234763
0.0123749993194
-0.000152572212965
2.33180610066e-05
0.000145202140844
-0.000172709805567
8.28082469801e-05
-0.0117345991936
0.000130997832939
0.0117088262422
-0.000115902847243
0.000209227496113
0.0124238717904
0.000112563425411
-0.012468029466
0.000165538214574
-0.000101462453338
0.0124637531256
-0.000140043459338
0.0124940621453
0.000171678377564
9.1682088243e-05
0.0117994918509
0.000112342985933
-7.55344844045e-05
0.0117549419011
4.75230046252e-05
0.0124930266762
0.000196036763668
0.0117550933612
0.0124612992669
0.00019836177079
-9.5948155551e-05
-0.000233917944572
-0.0124972485932
0.0125105009502
0.000257368610276
0.000113652861426
-0.0117320937308
0.0117050521443
0.0001086057239
-8.71385790168e-05
5.51541524043e-05
0.0124706257802
0.00022667531889
-0.000263101086916
-0.0124286722176
-0.000135623332804
0.0124561119668
0.000305310440186
6.62069365141e-05
0.012371747013
0.000215246892138
2.41704595772e-05
-0.000189551440089
9.56470117856e-05
0.000218013406144
0.0116847586007
-0.000248650022048
9.36399937575e-05
0.0117097602244
0.00015872988258
0.0124021259061
4.25520961653e-05
-0.000240385338127
0.000256169154442
4.81104313091e-05
0.0117110152426
0.00018849618192
-0.000310421708417
-0.000160112571854
0.012523219467
0.000349329579911
5.4308649316e-05
-0.0124772793485
0.000348791016794
0.0125899075663
-0.000326790769287
6.88869489954e-05
0.000134555220355
0.000247443282252
-0.000280326949206
-0.0117635340747
0.000209569929011
0.000255746189893
0.0118233273613
-0.00028623306113
3.56787294612e-05
0.000218051762548
0.000386558921685
0.0126119926087
8.388362729e-05
-0.0124809601891
0.00031757906657
-0.000143585921674
0.0125099468283
-0.000275023565772
0.0125243328352
0.000291111040566
0.000112985328109
0.0117161786244
0.000139952195028
-0.000146396987955
0.0117288027466
0.000102178679218
0.0125492928455
0.000325650102227
0.0117235754494
0.000353651523414
-0.000149263612374
0.0125610640972
-0.0125869191431
-0.000385770463286
0.000380203043727
0.0126363646642
-0.0117717210442
0.000190265521231
0.011815874449
0.000137971543021
-0.000171089378883
0.000121635698564
0.000356275530052
0.0126287318216
-0.000205155041889
-0.012547471807
-7.00193261318e-05
0.0125486083593
0.000201792141958
0.012522084165
0.000181818919946
-0.0125231820112
8.5831739155e-05
3.57235393314e-05
0.0117441634273
7.20976696069e-05
0.0117676720381
-0.0118053118469
3.08739151013e-05
0.0125224504131
-0.0125456417642
0.000181052579561
0.0117349897961
2.82283221549e-05
-0.000232962038808
0.0125572148216
-6.08035302558e-05
0.000225187444035
-0.012529534712
0.000260523010864
0.0125429955635
7.763887203e-05
3.83054795439e-05
6.74057870581e-05
-0.0117219027142
3.0515172843e-05
0.0117094527013
0.000248105966986
0.0125706372044
2.76321028864e-05
0.0125806964929
0.000209826465128
-2.96519800693e-05
-0.0125736716331
-0.000228780989865
-0.0125999219962
0.012610577119
0.000200192110509
3.41946511702e-05
-0.0117151262554
0.0117071683694
1.78067524009e-05
-3.17600832732e-05
-0.011715853517
3.87279356447e-05
0.0125928179561