/*--------------------------------*- C++ -*----------------------------------*\
| =========                 |                                                 |
| \\      /  F ield         | OpenFOAM: The Open Source CFD Toolbox           |
|  \\    /   O peration     | Version:  v1906                                 |
|   \\  /    A nd           | Web:      www.OpenFOAM.com                      |
|    \\/     M anipulation  |                                                 |
\*---------------------------------------------------------------------------*/
FoamFile
{
    version     2.0;
    format      ascii;
    class       volVectorField;
    location    "1.5";
    object      force.turbine;
}
// * * * * * * * * * * * * * * * * * * * * * * * * * * * * * * * * * * * * * //

dimensions      [1 -2 -2 0 0 0 0];


internalField   nonuniform List<vector> 
28582
(
(0 0 0)
(0 0 0)
(0 0 0)
(0 0 0)
(0 0 0)
(0 0 0)
(0 0 0)
(0 0 0)
(0 0 0)
(0 0 0)
(0 0 0)
(0 0 0)
(0 0 0)
(0 0 0)
(0 0 0)
(0 0 0)
(0 0 0)
(0 0 0)
(0 0 0)
(0 0 0)
(0 0 0)
(0 0 0)
(0 0 0)
(0 0 0)
(0 0 0)
(0 0 0)
(0 0 0)
(0 0 0)
(0 0 0)
(0 0 0)
(0 0 0)
(0 0 0)
(0 0 0)
(0 0 0)
(0 0 0)
(0 0 0)
(0 0 0)
(0 0 0)
(0 0 0)
(0 0 0)
(0 0 0)
(0 0 0)
(0 0 0)
(0 0 0)
(0 0 0)
(0 0 0)
(0 0 0)
(0 0 0)
(0 0 0)
(0 0 0)
(0 0 0)
(0 0 0)
(0 0 0)
(0 0 0)
(0 0 0)
(0 0 0)
(0 0 0)
(0 0 0)
(0 0 0)
(0 0 0)
(0 0 0)
(0 0 0)
(0 0 0)
(0 0 0)
(0 0 0)
(0 0 0)
(0 0 0)
(0 0 0)
(0 0 0)
(0 0 0)
(0 0 0)
(0 0 0)
(0 0 0)
(0 0 0)
(0 0 0)
(0 0 0)
(0 0 0)
(0 0 0)
(0 0 0)
(0 0 0)
(0 0 0)
(0 0 0)
(0 0 0)
(0 0 0)
(0 0 0)
(0 0 0)
(0 0 0)
(0 0 0)
(0 0 0)
(0 0 0)
(0 0 0)
(0 0 0)
(0 0 0)
(0 0 0)
(0 0 0)
(0 0 0)
(0 0 0)
(0 0 0)
(0 0 0)
(0 0 0)
(0 0 0)
(0 0 0)
(0 0 0)
(0 0 0)
(0 0 0)
(0 0 0)
(0 0 0)
(0 0 0)
(0 0 0)
(0 0 0)
(0 0 0)
(0 0 0)
(0 0 0)
(0 0 0)
(0 0 0)
(0 0 0)
(0 0 0)
(0 0 0)
(0 0 0)
(0 0 0)
(0 0 0)
(0 0 0)
(0 0 0)
(0 0 0)
(0 0 0)
(0 0 0)
(0 0 0)
(0 0 0)
(0 0 0)
(0 0 0)
(0 0 0)
(0 0 0)
(0 0 0)
(0 0 0)
(0 0 0)
(0 0 0)
(0 0 0)
(0 0 0)
(0 0 0)
(0 0 0)
(0 0 0)
(0 0 0)
(0 0 0)
(0 0 0)
(0 0 0)
(0 0 0)
(0 0 0)
(0 0 0)
(0 0 0)
(0 0 0)
(0 0 0)
(0 0 0)
(0 0 0)
(0 0 0)
(0 0 0)
(0 0 0)
(0 0 0)
(0 0 0)
(0 0 0)
(0 0 0)
(0 0 0)
(0 0 0)
(0 0 0)
(0 0 0)
(0 0 0)
(0 0 0)
(0 0 0)
(0 0 0)
(0 0 0)
(0 0 0)
(0 0 0)
(0 0 0)
(0 0 0)
(0 0 0)
(0 0 0)
(0 0 0)
(0 0 0)
(0 0 0)
(0 0 0)
(0 0 0)
(0 0 0)
(0 0 0)
(0 0 0)
(0 0 0)
(0 0 0)
(0 0 0)
(0 0 0)
(0 0 0)
(0 0 0)
(0 0 0)
(0 0 0)
(0 0 0)
(0 0 0)
(0 0 0)
(0 0 0)
(0 0 0)
(0 0 0)
(0 0 0)
(0 0 0)
(0 0 0)
(0 0 0)
(0 0 0)
(0 0 0)
(0 0 0)
(0 0 0)
(0 0 0)
(0 0 0)
(0 0 0)
(0 0 0)
(0 0 0)
(0 0 0)
(0 0 0)
(0 0 0)
(0 0 0)
(0 0 0)
(0 0 0)
(0 0 0)
(-0.000639466239453 1.06156831977e-05 0)
(0 0 0)
(0 0 0)
(0 0 0)
(0 0 0)
(-2.75062460631e-05 1.85897467408e-07 0)
(0 0 0)
(-2.82835206417e-06 1.40370660589e-08 0)
(0 0 0)
(0 0 0)
(0 0 0)
(0 0 0)
(0 0 0)
(0 0 0)
(0 0 0)
(0 0 0)
(0 0 0)
(0 0 0)
(0 0 0)
(0 0 0)
(-0.0174557526848 0.00052903566593 0)
(0 0 0)
(0 0 0)
(0 0 0)
(-0.0339730831544 0.000710986051679 0)
(0 0 0)
(0 0 0)
(-0.0309293488619 0.000920906126721 0)
(-0.138615612629 0.00412721158466 0)
(-0.0921759836628 0.00192905184338 0)
(-0.885010755129 0.0185445523231 0)
(-0.00686192211313 5.88247902252e-05 0)
(-0.0913389148877 0.00191153373291 0)
(0 0 0)
(0 0 0)
(0 0 0)
(0 0 0)
(0 0 0)
(-0.0174557613763 0.000529035929345 0)
(0 0 0)
(0 0 0)
(0 0 0)
(-0.0335491504756 0.000702114021428 0)
(0 0 0)
(0 0 0)
(0 0 0)
(0 0 0)
(0 0 0)
(0 0 0)
(0 0 0)
(0 0 0)
(-1.59872684908e-05 1.20287757279e-07 0)
(0 0 0)
(-9.69629612454e-06 7.29546586028e-08 0)
(-0.000134402155158 1.6686730143e-06 0)
(-0.000602348702721 7.47847401885e-06 0)
(-8.15190755519e-05 1.01210193664e-06 0)
(-0.000365343635616 4.53593221761e-06 0)
(0 0 0)
(0 0 0)
(-6.86411815626e-05 5.56710747223e-07 0)
(0 0 0)
(0 0 0)
(0 0 0)
(0 0 0)
(0 0 0)
(0 0 0)
(-0.00306545414562 5.08891448201e-05 0)
(-0.000143273959348 1.91452515537e-06 0)
(-0.000739685461497 1.2279407482e-05 0)
(-2.92325164134e-05 3.17437861122e-07 0)
(-0.000134414182269 1.66882233717e-06 0)
(-3.87054027788e-06 1.92094294952e-08 0)
(-2.93131673249e-05 3.18313654793e-07 0)
(0 0 0)
(0 0 0)
(0 0 0)
(0 0 0)
(0 0 0)
(-8.64126527233e-05 7.00845343451e-07 0)
(0 0 0)
(0 0 0)
(0 0 0)
(0 0 0)
(0 0 0)
(0 0 0)
(0 0 0)
(0 0 0)
(0 0 0)
(0 0 0)
(0 0 0)
(0 0 0)
(0 0 0)
(0 0 0)
(0 0 0)
(0 0 0)
(0 0 0)
(0 0 0)
(0 0 0)
(0 0 0)
(-0.0056690159718 5.03626590207e-05 0)
(0 0 0)
(0 0 0)
(0 0 0)
(0 0 0)
(0 0 0)
(-0.00539079427849 4.62133404243e-05 0)
(0 0 0)
(0 0 0)
(0 0 0)
(0 0 0)
(0 0 0)
(0 0 0)
(0 0 0)
(0 0 0)
(0 0 0)
(0 0 0)
(0 0 0)
(0 0 0)
(0 0 0)
(0 0 0)
(0 0 0)
(0 0 0)
(0 0 0)
(0 0 0)
(0 0 0)
(0 0 0)
(0 0 0)
(0 0 0)
(-0.0394006653256 0.000961021977369 0)
(-0.0100124748955 0.000156908290578 0)
(-0.0164486222838 0.000257770953919 0)
(-0.0111627966106 0.000194084643091 0)
(-0.0210896725663 0.000514398390592 0)
(0 0 0)
(0 0 0)
(0 0 0)
(0 0 0)
(0 0 0)
(0 0 0)
(0 0 0)
(0 0 0)
(0 0 0)
(0 0 0)
(-0.00607823374935 5.21065117543e-05 0)
(0 0 0)
(-0.00869369023299 0.000151154932305 0)
(0 0 0)
(0 0 0)
(-0.141601146535 0.0034466618931 0)
(-0.110279896561 0.00268428276431 0)
(-0.224377225956 0.00470160976319 0)
(-0.0493050850046 0.00103185299832 0)
(-0.264547254356 0.00643924828878 0)
(-0.0573274133325 0.00139827344698 0)
(-0.118096991048 0.00247152467731 0)
(-0.299768587161 0.00729655791214 0)
(-1.0463052707 0.0254677352077 0)
(-0.473948961105 0.00993114632421 0)
(-0.468673055893 0.00982059478605 0)
(-0.560047848421 0.0136319205367 0)
(-0.252320297978 0.00528713006131 0)
(-0.56004566046 0.0136318672803 0)
(-0.0668873683706 0.00162808105255 0)
(-0.00985122611507 0.000171280707805 0)
(-0.0232252932071 0.00048605713651 0)
(-0.0230914058594 0.000483255152472 0)
(-0.0270796458072 0.000660499881032 0)
(-0.0270797375949 0.000660502119826 0)
(-0.0556725106748 0.00116510998934 0)
(-0.141599960963 0.00344663303552 0)
(-0.110278621955 0.00268425173961 0)
(-0.220835805792 0.00462740269718 0)
(-0.0487945448715 0.00102116845398 0)
(-0.0573279092584 0.00139828554312 0)
(-0.117065705293 0.00244994200894 0)
(-0.264546517421 0.0064392303513 0)
(0 0 0)
(0 0 0)
(0 0 0)
(0 0 0)
(0 0 0)
(0 0 0)
(0 0 0)
(0 0 0)
(0 0 0)
(0 0 0)
(0 0 0)
(0 0 0)
(0 0 0)
(0 0 0)
(0 0 0)
(0 0 0)
(0 0 0)
(0 0 0)
(0 0 0)
(0 0 0)
(0 0 0)
(0 0 0)
(0 0 0)
(-0.00603264088878 5.17156605591e-05 0)
(0 0 0)
(-0.00869356987007 0.000151152839586 0)
(0 0 0)
(0 0 0)
(0 0 0)
(-0.0394007458543 0.000961023941545 0)
(-0.0162433673973 0.000254554347264 0)
(-0.00976584501954 0.000153043284907 0)
(-0.0210897083141 0.000514399262516 0)
(0 0 0)
(-0.0111627978185 0.000194084664092 0)
(0 0 0)
(0 0 0)
(0 0 0)
(0 0 0)
(0 0 0)
(0 0 0)
(0 0 0)
(0 0 0)
(0 0 0)
(0 0 0)
(0 0 0)
(0 0 0)
(0 0 0)
(0 0 0)
(0 0 0)
(0 0 0)
(0 0 0)
(0 0 0)
(0 0 0)
(0 0 0)
(0 0 0)
(0 0 0)
(0 0 0)
(0 0 0)
(0 0 0)
(0 0 0)
(0 0 0)
(0 0 0)
(0 0 0)
(0 0 0)
(0 0 0)
(0 0 0)
(0 0 0)
(0 0 0)
(0 0 0)
(0 0 0)
(-0.0158835386203 0.000359642926409 0)
(0 0 0)
(0 0 0)
(0 0 0)
(0 0 0)
(0 0 0)
(0 0 0)
(0 0 0)
(-0.0035442627112 8.02509468383e-05 0)
(0 0 0)
(0 0 0)
(0 0 0)
(0 0 0)
(0 0 0)
(0 0 0)
(0 0 0)
(0 0 0)
(0 0 0)
(0 0 0)
(0 0 0)
(0 0 0)
(0 0 0)
(0 0 0)
(0 0 0)
(0 0 0)
(0 0 0)
(0 0 0)
(0 0 0)
(0 0 0)
(0 0 0)
(0 0 0)
(0 0 0)
(0 0 0)
(0 0 0)
(0 0 0)
(0 0 0)
(-0.342313744487 0.0104630713817 0)
(-0.00815525997396 0.00018465542426 0)
(0 0 0)
(0 0 0)
(0 0 0)
(0 0 0)
(0 0 0)
(0 0 0)
(-0.0751608472057 0.00231947311428 0)
(0 0 0)
(0 0 0)
(0 0 0)
(0 0 0)
(0 0 0)
(0 0 0)
(0 0 0)
(0 0 0)
(0 0 0)
(0 0 0)
(0 0 0)
(0 0 0)
(0 0 0)
(0 0 0)
(0 0 0)
(0 0 0)
(0 0 0)
(0 0 0)
(0 0 0)
(0 0 0)
(0 0 0)
(0 0 0)
(0 0 0)
(0 0 0)
(0 0 0)
(0 0 0)
(0 0 0)
(-1.62709614839 0.0619581776099 0)
(-0.0463270789955 0.0018071597416 0)
(0 0 0)
(0 0 0)
(0 0 0)
(0 0 0)
(0 0 0)
(0 0 0)
(-0.35695131058 0.0134256326843 0)
(-0.00706040800768 0.000302830075155 0)
(0 0 0)
(0 0 0)
(0 0 0)
(0 0 0)
(0 0 0)
(0 0 0)
(0 0 0)
(0 0 0)
(0 0 0)
(0 0 0)
(0 0 0)
(0 0 0)
(0 0 0)
(0 0 0)
(0 0 0)
(0 0 0)
(0 0 0)
(0 0 0)
(0 0 0)
(0 0 0)
(0 0 0)
(0 0 0)
(0 0 0)
(0 0 0)
(0 0 0)
(0 0 0)
(0 0 0)
(0 0 0)
(0 0 0)
(0 0 0)
(0 0 0)
(0 0 0)
(0 0 0)
(-2.78416867606 0.0828972508622 0)
(-0.0840747361719 0.00250328385473 0)
(0 0 0)
(0 0 0)
(0 0 0)
(0 0 0)
(0 0 0)
(0 0 0)
(-2.78416912339 0.0828972641813 0)
(-0.621232595808 0.0184968945241 0)
(-0.0174557851382 0.000529036649502 0)
(0 0 0)
(0 0 0)
(0 0 0)
(0 0 0)
(0 0 0)
(0 0 0)
(-0.0509939613115 0.00151832007868 0)
(-0.0840749100272 0.00250328903118 0)
(-0.0174557795368 0.000529036479738 0)
(0 0 0)
(0 0 0)
(0 0 0)
(0 0 0)
(0 0 0)
(0 0 0)
(0 0 0)
(0 0 0)
(0 0 0)
(0 0 0)
(0 0 0)
(0 0 0)
(0 0 0)
(0 0 0)
(0 0 0)
(0 0 0)
(0 0 0)
(0 0 0)
(0 0 0)
(0 0 0)
(0 0 0)
(0 0 0)
(0 0 0)
(0 0 0)
(0 0 0)
(0 0 0)
(-0.0283862667205 0.000472183374875 0)
(-0.000811694873482 1.34748249375e-05 0)
(0 0 0)
(0 0 0)
(0 0 0)
(0 0 0)
(0 0 0)
(0 0 0)
(-0.00996048669503 0.000165684916208 0)
(-0.0238818855224 0.000397256511938 0)
(-0.00614790638131 0.000102060472386 0)
(-0.000147410739505 1.19556716639e-06 0)
(0 0 0)
(0 0 0)
(0 0 0)
(0 0 0)
(0 0 0)
(0 0 0)
(-0.000322508146563 4.30957560061e-06 0)
(-0.000698644337432 1.15980899326e-05 0)
(-0.000134570638027 1.09142818851e-06 0)
(0 0 0)
(0 0 0)
(0 0 0)
(0 0 0)
(0 0 0)
(0 0 0)
(0 0 0)
(0 0 0)
(0 0 0)
(0 0 0)
(0 0 0)
(0 0 0)
(0 0 0)
(0 0 0)
(0 0 0)
(0 0 0)
(0 0 0)
(0 0 0)
(0 0 0)
(0 0 0)
(0 0 0)
(0 0 0)
(0 0 0)
(0 0 0)
(0 0 0)
(0 0 0)
(-0.000212668049505 1.76415288053e-06 0)
(-0.000212689017118 1.76432681391e-06 0)
(-2.75170540099e-05 1.85970511542e-07 0)
(0 0 0)
(0 0 0)
(0 0 0)
(0 0 0)
(0 0 0)
(0 0 0)
(0 0 0)
(-2.75078971024e-05 1.85908625747e-07 0)
(-2.75077841807e-05 1.8590786258e-07 0)
(-2.82892925858e-06 1.40399306655e-08 0)
(0 0 0)
(0 0 0)
(0 0 0)
(0 0 0)
(0 0 0)
(0 0 0)
(0 0 0)
(0 0 0)
(0 0 0)
(0 0 0)
(0 0 0)
(0 0 0)
(0 0 0)
(0 0 0)
(0 0 0)
(0 0 0)
(0 0 0)
(0 0 0)
(0 0 0)
(0 0 0)
(0 0 0)
(0 0 0)
(0 0 0)
(0 0 0)
(0 0 0)
(0 0 0)
(0 0 0)
(0 0 0)
(0 0 0)
(0 0 0)
(0 0 0)
(0 0 0)
(0 0 0)
(0 0 0)
(0 0 0)
(0 0 0)
(-0.00354414119128 8.02481953244e-05 0)
(-0.00963429060595 0.00021814436633 0)
(-0.00214968876461 4.86743147517e-05 0)
(-0.0919044601996 0.0024695409377 0)
(-0.0187643965457 0.00042487273443 0)
(-0.0557430893509 0.00149785811099 0)
(-0.0113811310319 0.000257697190028 0)
(0 0 0)
(0 0 0)
(0 0 0)
(-0.002539541158 5.75015451931e-05 0)
(0 0 0)
(0 0 0)
(0 0 0)
(0 0 0)
(0 0 0)
(0 0 0)
(-0.018764931914 0.000424884856504 0)
(-0.00418697111042 9.48034678508e-05 0)
(-0.00418701628295 9.48044906695e-05 0)
(0 0 0)
(0 0 0)
(0 0 0)
(0 0 0)
(0 0 0)
(0 0 0)
(0 0 0)
(0 0 0)
(-0.0751629671311 0.00231953853544 0)
(-0.207619716256 0.00634604933758 0)
(-0.0455886809992 0.0014068723787 0)
(-0.857206600143 0.0298187407047 0)
(-0.188938835959 0.00664224081193 0)
(-0.519928348488 0.0180861983634 0)
(-0.114597804314 0.00402874405841 0)
(0 0 0)
(-0.00494640346021 0.000111998910203 0)
(0 0 0)
(-0.0243501238052 0.00088377075419 0)
(0 0 0)
(-0.0130287668471 0.00046389637494 0)
(0 0 0)
(-0.0158775076057 0.000480519374894 0)
(-0.0158779137634 0.000480531666912 0)
(-0.00300014429546 6.7930748926e-05 0)
(-0.188934316394 0.0066420819243 0)
(-0.04014608472 0.0014570741346 0)
(-0.0401463420447 0.00145708347402 0)
(-0.00790231744908 0.00028136633814 0)
(0 0 0)
(0 0 0)
(0 0 0)
(-0.00354426891313 8.02510872656e-05 0)
(0 0 0)
(0 0 0)
(0 0 0)
(-0.356952365425 0.013425672359 0)
(-0.970276465595 0.0364939840341 0)
(-0.216502952624 0.00814309691779 0)
(-2.40352311865 0.0869542768985 0)
(-0.530183325137 0.0190025358773 0)
(-1.44118588632 0.05165418302 0)
(-0.321572731651 0.0115256310047 0)
(0 0 0)
(-0.0280987599111 0.00109609646887 0)
(0 0 0)
(-0.0717530867085 0.00257173422822 0)
(0 0 0)
(-0.0435204174438 0.00155983459808 0)
(0 0 0)
(-0.0796474396943 0.00299569503706 0)
(-0.0796477717453 0.00299570752615 0)
(-0.0150303751844 0.000639788466813 0)
(-0.530184662236 0.0190025838009 0)
(-0.118300251604 0.00424005182513 0)
(-0.11830065733 0.00424006636694 0)
(-0.0263965250055 0.000946089568783 0)
(0 0 0)
(0 0 0)
(0 0 0)
(-0.014332587616 0.000565504611762 0)
(0 0 0)
(0 0 0)
(0 0 0)
(-7.77085040999 0.238577521756 0)
(-4.61769704893 0.138464638653 0)
(-4.85414765919 0.101714012771 0)
(-2.29896992415 0.0481727118011 0)
(-0.621233017095 0.0184969070678 0)
(-1.68867218867 0.0502793825861 0)
(-0.376795631841 0.0112189043304 0)
(-2.93587578895 0.0615184638907 0)
(-0.310593475442 0.00650818865551 0)
(-1.39256540138 0.0291798735772 0)
(-0.146624475052 0.00307237537361 0)
(0 0 0)
(-0.050993855112 0.00151831691664 0)
(0 0 0)
(-0.112568589893 0.00235582672635 0)
(0 0 0)
(-0.0531506624217 0.00111233294452 0)
(0 0 0)
(0 0 0)
(0 0 0)
(0 0 0)
(0 0 0)
(0 0 0)
(0 0 0)
(0 0 0)
(0 0 0)
(0 0 0)
(0 0 0)
(0 0 0)
(0 0 0)
(0 0 0)
(0 0 0)
(0 0 0)
(0 0 0)
(0 0 0)
(0 0 0)
(0 0 0)
(0 0 0)
(0 0 0)
(0 0 0)
(0 0 0)
(0 0 0)
(0 0 0)
(0 0 0)
(0 0 0)
(0 0 0)
(0 0 0)
(0 0 0)
(0 0 0)
(0 0 0)
(0 0 0)
(0 0 0)
(0 0 0)
(0 0 0)
(0 0 0)
(0 0 0)
(0 0 0)
(0 0 0)
(0 0 0)
(0 0 0)
(-0.376798173865 0.011218980018 0)
(-0.621232676773 0.0184968969348 0)
(-1.44147486806 0.0302047245847 0)
(-3.01253930231 0.0631248743512 0)
(-0.151388489886 0.0031722007394 0)
(-0.317877587694 0.00666082024786 0)
(-1.68868446513 0.0502797481118 0)
(-0.621232149331 0.0184968812305 0)
(-0.376796864576 0.0112189410345 0)
(-2.98220875099 0.0624893267123 0)
(-1.39574386996 0.0292464753406 0)
(-0.315761365236 0.00661647683408 0)
(-0.147650245635 0.00309386941324 0)
(-0.138616062451 0.00412722497791 0)
(-0.138616117317 0.00412722661151 0)
(-0.0309294013624 0.000920907689898 0)
(-0.845847479777 0.0177239234158 0)
(-0.0876491480215 0.00183431457786 0)
(-0.088347168209 0.00184892269025 0)
(-0.00661053877009 5.66697712411e-05 0)
(0 0 0)
(0 0 0)
(0 0 0)
(-0.0322741453609 0.000675430813189 0)
(0 0 0)
(0 0 0)
(0 0 0)
(0 0 0)
(0 0 0)
(0 0 0)
(0 0 0)
(0 0 0)
(0 0 0)
(0 0 0)
(0 0 0)
(0 0 0)
(0 0 0)
(0 0 0)
(0 0 0)
(0 0 0)
(0 0 0)
(0 0 0)
(0 0 0)
(0 0 0)
(0 0 0)
(0 0 0)
(0 0 0)
(0 0 0)
(0 0 0)
(0 0 0)
(0 0 0)
(0 0 0)
(0 0 0)
(0 0 0)
(0 0 0)
(0 0 0)
(0 0 0)
(0 0 0)
(0 0 0)
(0 0 0)
(0 0 0)
(0 0 0)
(0 0 0)
(0 0 0)
(0 0 0)
(0 0 0)
(0 0 0)
(0 0 0)
(0 0 0)
(-0.0840751055436 0.00250329485259 0)
(0 0 0)
(0 0 0)
(-0.0548115316997 0.00114709148807 0)
(-0.11512713973 0.00240937185907 0)
(0 0 0)
(0 0 0)
(-0.0509941531642 0.001518325791 0)
(0 0 0)
(0 0 0)
(-0.114610191776 0.00239855321234 0)
(-0.0535314457346 0.00112030194818 0)
(0 0 0)
(0 0 0)
(0 0 0)
(0 0 0)
(0 0 0)
(-0.0325625455797 0.00068146643062 0)
(0 0 0)
(0 0 0)
(0 0 0)
(0 0 0)
(0 0 0)
(0 0 0)
(0 0 0)
(0 0 0)
(0 0 0)
(0 0 0)
(0 0 0)
(0 0 0)
(0 0 0)
(0 0 0)
(0 0 0)
(0 0 0)
(0 0 0)
(0 0 0)
(0 0 0)
(0 0 0)
(0 0 0)
(0 0 0)
(0 0 0)
(0 0 0)
(0 0 0)
(0 0 0)
(0 0 0)
(0 0 0)
(0 0 0)
(0 0 0)
(0 0 0)
(0 0 0)
(0 0 0)
(0 0 0)
(0 0 0)
(0 0 0)
(0 0 0)
(0 0 0)
(0 0 0)
(0 0 0)
(0 0 0)
(0 0 0)
(0 0 0)
(0 0 0)
(0 0 0)
(0 0 0)
(0 0 0)
(0 0 0)
(0 0 0)
(0 0 0)
(0 0 0)
(0 0 0)
(0 0 0)
(0 0 0)
(0 0 0)
(0 0 0)
(0 0 0)
(0 0 0)
(0 0 0)
(0 0 0)
(0 0 0)
(0 0 0)
(0 0 0)
(0 0 0)
(0 0 0)
(0 0 0)
(0 0 0)
(0 0 0)
(0 0 0)
(0 0 0)
(0 0 0)
(0 0 0)
(0 0 0)
(0 0 0)
(0 0 0)
(0 0 0)
(0 0 0)
(0 0 0)
(0 0 0)
(0 0 0)
(0 0 0)
(0 0 0)
(0 0 0)
(0 0 0)
(0 0 0)
(0 0 0)
(0 0 0)
(0 0 0)
(0 0 0)
(0 0 0)
(0 0 0)
(0 0 0)
(0 0 0)
(0 0 0)
(0 0 0)
(0 0 0)
(0 0 0)
(0 0 0)
(0 0 0)
(0 0 0)
(0 0 0)
(0 0 0)
(0 0 0)
(0 0 0)
(0 0 0)
(0 0 0)
(0 0 0)
(0 0 0)
(0 0 0)
(0 0 0)
(0 0 0)
(0 0 0)
(0 0 0)
(0 0 0)
(0 0 0)
(0 0 0)
(0 0 0)
(0 0 0)
(0 0 0)
(0 0 0)
(0 0 0)
(0 0 0)
(0 0 0)
(0 0 0)
(0 0 0)
(0 0 0)
(0 0 0)
(0 0 0)
(0 0 0)
(0 0 0)
(0 0 0)
(0 0 0)
(0 0 0)
(0 0 0)
(0 0 0)
(0 0 0)
(0 0 0)
(0 0 0)
(0 0 0)
(0 0 0)
(0 0 0)
(0 0 0)
(0 0 0)
(0 0 0)
(0 0 0)
(0 0 0)
(0 0 0)
(0 0 0)
(0 0 0)
(0 0 0)
(0 0 0)
(0 0 0)
(0 0 0)
(0 0 0)
(0 0 0)
(0 0 0)
(0 0 0)
(0 0 0)
(0 0 0)
(0 0 0)
(0 0 0)
(0 0 0)
(0 0 0)
(0 0 0)
(0 0 0)
(0 0 0)
(0 0 0)
(0 0 0)
(0 0 0)
(0 0 0)
(0 0 0)
(0 0 0)
(0 0 0)
(-0.00164039900925 2.03884398161e-05 0)
(-0.00271283665818 3.37177153998e-05 0)
(-0.000993525793401 1.23351420854e-05 0)
(-0.00163994170637 2.03827560206e-05 0)
(-0.0738987342679 0.00122924772353 0)
(-0.0443728480418 0.000738107668313 0)
(-0.00270782520716 3.36554283179e-05 0)
(-0.00165101482302 2.05203832511e-05 0)
(-0.00164242784328 2.04136560959e-05 0)
(-0.000999012403649 1.24032612197e-05 0)
(-0.00624702665815 0.000103705953245 0)
(-0.0171833722621 0.000285831975946 0)
(-0.00381583011455 6.33460238135e-05 0)
(-0.000607630003879 7.5440441335e-06 0)
(-0.000134758578337 1.67309819439e-06 0)
(-0.00037304032401 4.63149062743e-06 0)
(-8.32854618718e-05 1.03403254617e-06 0)
(0 0 0)
(-0.000481305815422 6.43153923608e-06 0)
(0 0 0)
(-1.59877206503e-05 1.20291159315e-07 0)
(0 0 0)
(-9.77505642765e-06 7.35472489023e-08 0)
(0 0 0)
(0 0 0)
(0 0 0)
(0 0 0)
(0 0 0)
(0 0 0)
(0 0 0)
(0 0 0)
(0 0 0)
(0 0 0)
(0 0 0)
(0 0 0)
(0 0 0)
(0 0 0)
(0 0 0)
(0 0 0)
(0 0 0)
(0 0 0)
(0 0 0)
(0 0 0)
(0 0 0)
(0 0 0)
(0 0 0)
(0 0 0)
(0 0 0)
(0 0 0)
(0 0 0)
(0 0 0)
(0 0 0)
(0 0 0)
(0 0 0)
(0 0 0)
(0 0 0)
(0 0 0)
(0 0 0)
(0 0 0)
(0 0 0)
(0 0 0)
(0 0 0)
(0 0 0)
(0 0 0)
(0 0 0)
(0 0 0)
(-0.0202686847319 0.000337153738997 0)
(-0.00236849984756 3.93191109778e-05 0)
(-0.00464782863067 7.71579064794e-05 0)
(-0.000365741667622 4.54087399303e-06 0)
(-0.000602935005291 7.48575327175e-06 0)
(-8.23696691282e-05 1.02266250053e-06 0)
(-0.00013541627042 1.68126378539e-06 0)
(-0.0160965083356 0.000267752843459 0)
(-0.00532037117086 8.83226843882e-05 0)
(-0.00348684793168 5.78846399038e-05 0)
(-0.000603299555045 7.4902793475e-06 0)
(-0.000367124252992 4.55803951315e-06 0)
(-0.000134881366135 1.67462266908e-06 0)
(-8.15538769362e-05 1.01253401402e-06 0)
(-0.00137983349236 2.29064089968e-05 0)
(-0.00131386836374 2.18113317834e-05 0)
(-0.000277228736269 3.7045209876e-06 0)
(-0.000135964680149 1.68807257886e-06 0)
(-2.98756459709e-05 3.24421648227e-07 0)
(-2.930577369e-05 3.18233366814e-07 0)
(-3.86825123129e-06 1.91980689936e-08 0)
(0 0 0)
(0 0 0)
(0 0 0)
(0 0 0)
(0 0 0)
(0 0 0)
(0 0 0)
(0 0 0)
(0 0 0)
(0 0 0)
(0 0 0)
(0 0 0)
(0 0 0)
(0 0 0)
(0 0 0)
(0 0 0)
(0 0 0)
(0 0 0)
(0 0 0)
(0 0 0)
(0 0 0)
(0 0 0)
(0 0 0)
(0 0 0)
(0 0 0)
(0 0 0)
(0 0 0)
(0 0 0)
(0 0 0)
(0 0 0)
(0 0 0)
(0 0 0)
(0 0 0)
(0 0 0)
(0 0 0)
(0 0 0)
(0 0 0)
(0 0 0)
(0 0 0)
(0 0 0)
(0 0 0)
(0 0 0)
(0 0 0)
(0 0 0)
(0 0 0)
(0 0 0)
(0 0 0)
(0 0 0)
(0 0 0)
(-0.000640662277192 1.0635538441e-05 0)
(0 0 0)
(0 0 0)
(-9.8892953506e-06 7.4406779337e-08 0)
(-1.62439555923e-05 1.22219063792e-07 0)
(0 0 0)
(0 0 0)
(-0.000425431547933 5.68490885654e-06 0)
(0 0 0)
(0 0 0)
(-1.60215738833e-05 1.20545870085e-07 0)
(-9.70045136203e-06 7.29859224924e-08 0)
(0 0 0)
(0 0 0)
(0 0 0)
(0 0 0)
(0 0 0)
(0 0 0)
(0 0 0)
(0 0 0)
(0 0 0)
(0 0 0)
(0 0 0)
(0 0 0)
(0 0 0)
(0 0 0)
(0 0 0)
(0 0 0)
(0 0 0)
(0 0 0)
(0 0 0)
(0 0 0)
(0 0 0)
(0 0 0)
(0 0 0)
(0 0 0)
(0 0 0)
(0 0 0)
(0 0 0)
(0 0 0)
(0 0 0)
(0 0 0)
(0 0 0)
(0 0 0)
(0 0 0)
(0 0 0)
(0 0 0)
(0 0 0)
(0 0 0)
(0 0 0)
(0 0 0)
(0 0 0)
(0 0 0)
(0 0 0)
(0 0 0)
(0 0 0)
(0 0 0)
(0 0 0)
(0 0 0)
(0 0 0)
(0 0 0)
(0 0 0)
(0 0 0)
(0 0 0)
(0 0 0)
(0 0 0)
(0 0 0)
(0 0 0)
(0 0 0)
(0 0 0)
(0 0 0)
(0 0 0)
(0 0 0)
(0 0 0)
(0 0 0)
(0 0 0)
(0 0 0)
(0 0 0)
(0 0 0)
(0 0 0)
(0 0 0)
(0 0 0)
(0 0 0)
(0 0 0)
(0 0 0)
(0 0 0)
(0 0 0)
(0 0 0)
(0 0 0)
(0 0 0)
(0 0 0)
(0 0 0)
(0 0 0)
(0 0 0)
(0 0 0)
(0 0 0)
(0 0 0)
(0 0 0)
(0 0 0)
(0 0 0)
(0 0 0)
(0 0 0)
(0 0 0)
(0 0 0)
(0 0 0)
(0 0 0)
(0 0 0)
(0 0 0)
(0 0 0)
(0 0 0)
(0 0 0)
(0 0 0)
(0 0 0)
(0 0 0)
(0 0 0)
(0 0 0)
(0 0 0)
(0 0 0)
(0 0 0)
(0 0 0)
(0 0 0)
(0 0 0)
(0 0 0)
(0 0 0)
(0 0 0)
(0 0 0)
(0 0 0)
(0 0 0)
(0 0 0)
(0 0 0)
(0 0 0)
(0 0 0)
(0 0 0)
(0 0 0)
(0 0 0)
(0 0 0)
(0 0 0)
(0 0 0)
(0 0 0)
(0 0 0)
(0 0 0)
(0 0 0)
(0 0 0)
(0 0 0)
(0 0 0)
(0 0 0)
(0 0 0)
(0 0 0)
(0 0 0)
(0 0 0)
(0 0 0)
(0 0 0)
(0 0 0)
(0 0 0)
(0 0 0)
(0 0 0)
(0 0 0)
(0 0 0)
(0 0 0)
(0 0 0)
(0 0 0)
(0 0 0)
(0 0 0)
(0 0 0)
(0 0 0)
(0 0 0)
(0 0 0)
(0 0 0)
(0 0 0)
(0 0 0)
(0 0 0)
(0 0 0)
(0 0 0)
(0 0 0)
(0 0 0)
(0 0 0)
(0 0 0)
(0 0 0)
(0 0 0)
(0 0 0)
(0 0 0)
(0 0 0)
(0 0 0)
(0 0 0)
(0 0 0)
(0 0 0)
(0 0 0)
(0 0 0)
(0 0 0)
(0 0 0)
(0 0 0)
(0 0 0)
(0 0 0)
(0 0 0)
(0 0 0)
(0 0 0)
(-7.74836137696 0.189325741831 0)
(-6.02059654915 0.146545146049 0)
(-6.97958067987 0.14625042505 0)
(-4.24660267821 0.0889834898673 0)
(-5.31283772965 0.129317846607 0)
(-6.23693396579 0.130688974788 0)
(-8.78881997209 0.215121895116 0)
(-6.02046189552 0.146541868494 0)
(-2.84390739508 0.0692225132776 0)
(-3.31094942815 0.0693777725904 0)
(-3.30006612256 0.0691497233506 0)
(-4.13774127934 0.100715252242 0)
(-4.1379548514 0.100720450722 0)
(-4.86577087676 0.101957566158 0)
(-1.72476976555 0.0419819921714 0)
(-3.65166142466 0.088883759679 0)
(-1.56409144555 0.0327740374701 0)
(-2.57500739676 0.0539568125299 0)
(-3.22224966603 0.0784316045861 0)
(-1.38991580924 0.0291243539129 0)
(-1.95455517386 0.0475751150365 0)
(-0.814728195864 0.0198310020408 0)
(-0.384884052026 0.00936832241718 0)
(-0.739366086038 0.0154927078445 0)
(-0.272890462584 0.00571815814952 0)
(-0.339630451157 0.0082668210137 0)
(-0.656029097774 0.0137464611121 0)
(-0.923265215134 0.0224728620643 0)
(-1.34329874097 0.0326967450113 0)
(-1.72493968901 0.0419861282163 0)
(-2.00607706297 0.042035422556 0)
(-0.739923512246 0.0155043881765 0)
(-2.50960830579 0.0610854609997 0)
(-0.923288670243 0.0224734329766 0)
(-1.08275360282 0.0226880642119 0)
(-0.634535355057 0.0154449937844 0)
(-0.181805609151 0.00442526406281 0)
(-0.212291668 0.00444836847705 0)
(-0.349056007635 0.00731413416137 0)
(-0.264514516846 0.00643845143698 0)
(-0.436126288476 0.0106155910164 0)
(-0.511112502911 0.0107098727312 0)
(-0.039397326864 0.000960940548922 0)
(-0.141594355814 0.00344649660263 0)
(-0.0365115367069 0.000764110610923 0)
(-0.0989534741064 0.00207089063819 0)
(-0.124946042759 0.003041266083 0)
(-0.0323038857817 0.00067605321841 0)
(-0.0446447322118 0.0010889300593 0)
(-0.00985049016037 0.000171267911952 0)
(0 0 0)
(-0.00949632923397 0.000148819627755 0)
(0 0 0)
(0 0 0)
(-0.0065753691384 5.63682746383e-05 0)
(-0.0111623743313 0.00019407730103 0)
(-0.0306828029449 0.00074838451873 0)
(-0.0668840786347 0.00162800097829 0)
(-0.0769356483578 0.00161010328709 0)
(-0.0156140036805 0.000244691412677 0)
(-0.0973104108379 0.00236859723981 0)
(-0.021088419429 0.000514367825308 0)
(-0.0251383545977 0.000526093537049 0)
(-0.00566863043418 5.03592339643e-05 0)
(0 0 0)
(0 0 0)
(0 0 0)
(0 0 0)
(0 0 0)
(-0.00512065597519 4.38975419116e-05 0)
(0 0 0)
(0 0 0)
(0 0 0)
(0 0 0)
(0 0 0)
(0 0 0)
(0 0 0)
(0 0 0)
(0 0 0)
(0 0 0)
(0 0 0)
(0 0 0)
(0 0 0)
(0 0 0)
(0 0 0)
(0 0 0)
(0 0 0)
(0 0 0)
(0 0 0)
(0 0 0)
(0 0 0)
(0 0 0)
(0 0 0)
(0 0 0)
(0 0 0)
(0 0 0)
(0 0 0)
(0 0 0)
(0 0 0)
(0 0 0)
(0 0 0)
(0 0 0)
(0 0 0)
(0 0 0)
(0 0 0)
(0 0 0)
(0 0 0)
(0 0 0)
(0 0 0)
(0 0 0)
(0 0 0)
(0 0 0)
(0 0 0)
(0 0 0)
(0 0 0)
(0 0 0)
(0 0 0)
(0 0 0)
(0 0 0)
(0 0 0)
(0 0 0)
(0 0 0)
(0 0 0)
(0 0 0)
(0 0 0)
(0 0 0)
(0 0 0)
(0 0 0)
(0 0 0)
(0 0 0)
(0 0 0)
(0 0 0)
(0 0 0)
(0 0 0)
(0 0 0)
(0 0 0)
(0 0 0)
(0 0 0)
(0 0 0)
(0 0 0)
(0 0 0)
(0 0 0)
(0 0 0)
(0 0 0)
(0 0 0)
(0 0 0)
(0 0 0)
(0 0 0)
(0 0 0)
(0 0 0)
(0 0 0)
(0 0 0)
(0 0 0)
(0 0 0)
(0 0 0)
(0 0 0)
(0 0 0)
(0 0 0)
(0 0 0)
(0 0 0)
(0 0 0)
(0 0 0)
(0 0 0)
(0 0 0)
(0 0 0)
(0 0 0)
(0 0 0)
(0 0 0)
(0 0 0)
(0 0 0)
(0 0 0)
(0 0 0)
(0 0 0)
(0 0 0)
(0 0 0)
(0 0 0)
(0 0 0)
(0 0 0)
(0 0 0)
(0 0 0)
(0 0 0)
(0 0 0)
(0 0 0)
(0 0 0)
(0 0 0)
(0 0 0)
(0 0 0)
(0 0 0)
(0 0 0)
(0 0 0)
(0 0 0)
(0 0 0)
(0 0 0)
(0 0 0)
(0 0 0)
(0 0 0)
(0 0 0)
(0 0 0)
(0 0 0)
(0 0 0)
(0 0 0)
(0 0 0)
(0 0 0)
(0 0 0)
(0 0 0)
(0 0 0)
(0 0 0)
(0 0 0)
(0 0 0)
(0 0 0)
(0 0 0)
(0 0 0)
(0 0 0)
(0 0 0)
(0 0 0)
(0 0 0)
(0 0 0)
(0 0 0)
(0 0 0)
(0 0 0)
(0 0 0)
(0 0 0)
(0 0 0)
(0 0 0)
(0 0 0)
(0 0 0)
(0 0 0)
(0 0 0)
(0 0 0)
(0 0 0)
(0 0 0)
(0 0 0)
(0 0 0)
(0 0 0)
(0 0 0)
(0 0 0)
(0 0 0)
(0 0 0)
(-1.34342754917 0.0326998802848 0)
(-1.72506212903 0.0419891084844 0)
(-2.06165693511 0.0432000455179 0)
(-0.76816457324 0.016096152548 0)
(-2.50991889148 0.0610930208528 0)
(-1.12413692154 0.0235552120006 0)
(-0.923347327542 0.0224748607325 0)
(-1.7249724908 0.0419869266329 0)
(-3.65188533456 0.0888892097883 0)
(-2.62425555144 0.05498876042 0)
(-1.57856608442 0.0330773396576 0)
(-3.2227834857 0.0784445980961 0)
(-1.95470447528 0.0475787491281 0)
(-1.42488305543 0.02985705905 0)
(-0.634587254957 0.015446257061 0)
(-0.181818093666 0.00442556794383 0)
(-0.362146390577 0.00758843059223 0)
(-0.217054339847 0.00454816570184 0)
(-0.264540876042 0.00643909303655 0)
(-0.530561916359 0.0111174165529 0)
(-0.436157511959 0.0106163510158 0)
(-0.814808733528 0.0198329623788 0)
(-0.384906095284 0.00936885896407 0)
(-0.74679848012 0.0156484465405 0)
(-0.276953818533 0.00580330187978 0)
(-0.923321135307 0.0224742231969 0)
(-0.339677635815 0.00826796951826 0)
(-0.673335734863 0.0141091051084 0)
(-1.724933005 0.0419859655234 0)
(-3.65185105895 0.0888883754981 0)
(-2.58108635478 0.0540841912702 0)
(-1.5705200869 0.0329087434895 0)
(-3.22273801026 0.078443491195 0)
(-1.95463672562 0.0475771000583 0)
(-1.4067044061 0.0294761428727 0)
(-1.34337015119 0.0326984831815 0)
(-1.72488830172 0.0419848774171 0)
(-2.00427690332 0.0419977019355 0)
(-0.740908494933 0.0155250275449 0)
(-2.50968172129 0.0610872479797 0)
(-0.923301444968 0.0224737439215 0)
(-1.09133766918 0.0228679350968 0)
(-0.81477559517 0.0198321557701 0)
(-0.384906407032 0.00936886655222 0)
(-0.742614097828 0.0155607668192 0)
(-0.273675091724 0.00573459930129 0)
(-0.923296076972 0.0224736132611 0)
(-0.339675227226 0.00826791089168 0)
(-0.664905408621 0.0139324557002 0)
(-0.63456721666 0.0154457693161 0)
(-0.181813800911 0.00442546345546 0)
(-0.350684828214 0.00734826453582 0)
(-0.211926278238 0.00444071208474 0)
(-0.436130442938 0.0106156921387 0)
(-0.264532509291 0.00643888938452 0)
(-0.516505971904 0.0108228877058 0)
(-0.299745248922 0.00729598984457 0)
(-1.04622309726 0.0254657350539 0)
(-0.449379729069 0.00941632161006 0)
(-0.447855201057 0.00938437658642 0)
(-0.560001117186 0.0136307830687 0)
(-0.559993847607 0.0136306061225 0)
(-0.242262623932 0.00507638113932 0)
(-0.141591176581 0.00344641921808 0)
(-0.110268797333 0.00268401260206 0)
(-0.21187062984 0.00443954602587 0)
(-0.0468333301398 0.00098012430405 0)
(-0.264519697703 0.00643857754233 0)
(-0.0573232703455 0.00139817239535 0)
(-0.112922685102 0.00236323720344 0)
(-0.141591273038 0.00344642156592 0)
(-0.110276769699 0.00268420665453 0)
(-0.211913539053 0.00444044514731 0)
(-0.0469752869496 0.000983095165165 0)
(-0.264524385514 0.00643869164662 0)
(-0.0573260482198 0.00139824015051 0)
(-0.112890569876 0.00236256509848 0)
(-0.0668835393768 0.00162798785241 0)
(-0.00985084669663 0.000171274110955 0)
(-0.0221679574954 0.000463929296667 0)
(-0.0221139847519 0.000462799759275 0)
(-0.0270778462686 0.000660455988469 0)
(-0.0270786492054 0.000660475572908 0)
(-0.0534517320392 0.00111863370614 0)
(0 0 0)
(-0.0393975781663 0.000960946678439 0)
(-0.00947289517522 0.000148452386076 0)
(-0.0155948941338 0.000244391941633 0)
(-0.011161937612 0.000194069707905 0)
(-0.0210879212707 0.000514355674725 0)
(0 0 0)
(0 0 0)
(0 0 0)
(0 0 0)
(0 0 0)
(0 0 0)
(0 0 0)
(0 0 0)
(0 0 0)
(0 0 0)
(-0.00578416804504 4.95855922388e-05 0)
(0 0 0)
(-0.00869302253106 0.000151143323145 0)
(0 0 0)
(0 0 0)
(0 0 0)
(0 0 0)
(0 0 0)
(0 0 0)
(0 0 0)
(0 0 0)
(0 0 0)
(0 0 0)
(0 0 0)
(0 0 0)
(0 0 0)
(0 0 0)
(0 0 0)
(0 0 0)
(0 0 0)
(0 0 0)
(0 0 0)
(0 0 0)
(0 0 0)
(0 0 0)
(0 0 0)
(0 0 0)
(0 0 0)
(0 0 0)
(0 0 0)
(0 0 0)
(0 0 0)
(0 0 0)
(0 0 0)
(0 0 0)
(0 0 0)
(0 0 0)
(0 0 0)
(0 0 0)
(0 0 0)
(0 0 0)
(0 0 0)
(0 0 0)
(0 0 0)
(0 0 0)
(0 0 0)
(0 0 0)
(0 0 0)
(0 0 0)
(0 0 0)
(0 0 0)
(0 0 0)
(0 0 0)
(0 0 0)
(0 0 0)
(0 0 0)
(0 0 0)
(0 0 0)
(0 0 0)
(0 0 0)
(0 0 0)
(0 0 0)
(0 0 0)
(0 0 0)
(0 0 0)
(0 0 0)
(0 0 0)
(0 0 0)
(0 0 0)
(0 0 0)
(0 0 0)
(0 0 0)
(0 0 0)
(0 0 0)
(0 0 0)
(0 0 0)
(0 0 0)
(0 0 0)
(0 0 0)
(0 0 0)
(0 0 0)
(0 0 0)
(0 0 0)
(0 0 0)
(0 0 0)
(0 0 0)
(0 0 0)
(0 0 0)
(0 0 0)
(0 0 0)
(0 0 0)
(0 0 0)
(0 0 0)
(0 0 0)
(0 0 0)
(0 0 0)
(0 0 0)
(0 0 0)
(0 0 0)
(0 0 0)
(0 0 0)
(0 0 0)
(0 0 0)
(0 0 0)
(0 0 0)
(0 0 0)
(0 0 0)
(0 0 0)
(0 0 0)
(0 0 0)
(0 0 0)
(0 0 0)
(0 0 0)
(0 0 0)
(0 0 0)
(0 0 0)
(0 0 0)
(0 0 0)
(0 0 0)
(0 0 0)
(0 0 0)
(0 0 0)
(0 0 0)
(0 0 0)
(0 0 0)
(0 0 0)
(0 0 0)
(0 0 0)
(0 0 0)
(0 0 0)
(0 0 0)
(0 0 0)
(0 0 0)
(0 0 0)
(0 0 0)
(0 0 0)
(0 0 0)
(0 0 0)
(0 0 0)
(0 0 0)
(0 0 0)
(0 0 0)
(0 0 0)
(0 0 0)
(0 0 0)
(0 0 0)
(0 0 0)
(0 0 0)
(0 0 0)
(0 0 0)
(0 0 0)
(0 0 0)
(0 0 0)
(0 0 0)
(0 0 0)
(0 0 0)
(0 0 0)
(0 0 0)
(0 0 0)
(0 0 0)
(0 0 0)
(0 0 0)
(0 0 0)
(0 0 0)
(0 0 0)
(0 0 0)
(0 0 0)
(0 0 0)
(0 0 0)
(0 0 0)
(0 0 0)
(0 0 0)
(0 0 0)
(0 0 0)
(0 0 0)
(0 0 0)
(0 0 0)
(0 0 0)
(0 0 0)
(0 0 0)
(-0.0306849871243 0.000748437793069 0)
(-0.0668869970868 0.00162807201527 0)
(-0.0785664031489 0.00164423159699 0)
(-0.0160216122121 0.000251079159821 0)
(-0.097316893054 0.00236875502107 0)
(-0.025920043711 0.000542452666239 0)
(-0.0210891020902 0.000514384476104 0)
(-0.0393997851281 0.000961000508465 0)
(-0.141598611728 0.0034466001943 0)
(-0.100253889537 0.00209810563155 0)
(-0.0368016635851 0.000770182363747 0)
(-0.124958651854 0.00304157299639 0)
(-0.0446448178343 0.00108893214771 0)
(-0.033067902877 0.000692042508976 0)
(-0.00566892256672 5.03618292244e-05 0)
(0 0 0)
(0 0 0)
(0 0 0)
(0 0 0)
(-0.00527781929675 4.524484654e-05 0)
(0 0 0)
(-0.00985090044617 0.000171275045485 0)
(0 0 0)
(-0.00958517369249 0.000150211934079 0)
(0 0 0)
(-0.0111625027681 0.000194079534127 0)
(0 0 0)
(-0.0067497297482 5.78630054333e-05 0)
(-0.0393995341999 0.000960994388073 0)
(-0.141598210276 0.00344659042269 0)
(-0.0993913293377 0.00208005403854 0)
(-0.0365213502802 0.000764315988624 0)
(-0.124958010835 0.00304155739358 0)
(-0.044644180199 0.00108891659515 0)
(-0.0327125598596 0.000684605917844 0)
(-0.0306844384726 0.000748424410901 0)
(-0.0668843841599 0.00162800841496 0)
(-0.0768730189905 0.00160879258454 0)
(-0.0157148293457 0.000246271479836 0)
(-0.097315405263 0.00236871880729 0)
(-0.0210887204855 0.000514375168381 0)
(-0.0254979302958 0.000533618709395 0)
(-0.00985081965448 0.000171273640781 0)
(0 0 0)
(-0.00951067312524 0.000149044414882 0)
(0 0 0)
(-0.0111623697921 0.000194077222109 0)
(0 0 0)
(-0.00667657233214 5.72358532181e-05 0)
(-0.00566876045399 5.03603890401e-05 0)
(0 0 0)
(0 0 0)
(0 0 0)
(0 0 0)
(0 0 0)
(-0.00521096115512 4.46716957388e-05 0)
(0 0 0)