/*--------------------------------*- C++ -*----------------------------------*\
| =========                 |                                                 |
| \\      /  F ield         | OpenFOAM: The Open Source CFD Toolbox           |
|  \\    /   O peration     | Version:  v1906                                 |
|   \\  /    A nd           | Web:      www.OpenFOAM.com                      |
|    \\/     M anipulation  |                                                 |
\*---------------------------------------------------------------------------*/
FoamFile
{
    version     2.0;
    format      ascii;
    class       surfaceScalarField;
    location    "1.5";
    object      phi;
}
// * * * * * * * * * * * * * * * * * * * * * * * * * * * * * * * * * * * * * //

dimensions      [0 3 -1 0 0 0 0];
oriented        oriented;


internalField   nonuniform List<scalar> 
92311
(
0.201109408071
-8.70576951041e-05
0.00067693854383
-0.2012561193
-0.000443169612137
-5.3036860911e-05
0.200971381057
0.000677603583681
-0.000486492812351
0.201132191522
-0.000215688013212
0.00072285130829
-0.201277822934
-0.000448540926658
-0.000108675627639
0.200983815734
0.000709277534809
-0.000505226929609
0.201223300696
-0.000133167941638
-0.00012022349038
0.000782646698462
-0.201336607312
-0.000510694388331
-6.43651496592e-05
-5.65796723318e-05
-7.57661146687e-05
-5.20259255801e-05
-3.17849537081e-06
0.201049132393
0.000786304494051
-0.000575092711324
-1.46846043522e-05
0.0503662023031
-3.30588865681e-05
-5.28565539667e-05
-3.97342778092e-05
-2.36895400513e-05
0.000159676430536
-0.0503592469327
-0.000150432070948
-0.05034656509
0.0503173157753
-2.60446018177e-05
-8.84731498235e-06
-1.93918961386e-05
3.59156126786e-06
0.00019732455263
-0.000193133306961
1.78752460954e-05
0.0392789634339
-3.21558128248e-05
-4.6960199066e-06
0.000101991569616
-0.00391655298048
-0.0403177284621
-0.000482951353687
0.00535525100025
0.0439043873708
0.00522877256953
-0.00397781952861
-0.0412414115455
6.60810869095e-05
-6.57061514622e-05
-3.66024260766e-05
-2.92032640271e-05
-0.00384849757487
-0.00677233372347
0.00620325381969
0.00584888529846
0.00502678855635
0.000362374789632
-0.00387766608419
-0.0102592765452
0.00484777727525
-2.28978506319e-05
-4.03561262111e-05
-1.15999635524e-05
-3.13918580916e-05
0.000180820569344
-0.00017503703162
3.74837167151e-05
0.0125321644374
9.91694625276e-06
-4.89768973436e-06
-0.0125568273104
0.0125457707957
-8.2744717765e-05
4.8030536112e-05
-0.0125324467139
1.71867791242e-05
4.26835084272e-06
-0.00020144387334
8.40129577509e-06
0.0502797869342
-1.82656050931e-05
3.39089067674e-07
-1.14836852811e-05
0.000208043049543
1.47624965636e-05
0.0502781125983
-8.94505752622e-06
7.59666784485e-06
-2.13788279768e-06
-0.0503147136172
-0.0001792782825
2.65623119897e-05
4.5002992945e-06
0.0125146428742
-5.48949855078e-06
5.6142948605e-06
-5.91344553999e-05
0.0125706134994
4.47241671343e-05
3.31896585688e-05
-0.012580992138
0.0125690985208
-6.70129666214e-05
3.30144132023e-05
-0.0125793667744
-0.000151683005078
0.201432121778
0.000926033896128
-0.000505221571658
-0.201701251098
0.200855824028
-2.93737633325e-05
0.000618682303131
-0.000473657474745
-3.32810943178e-05
0.200777200662
0.000552715591073
-0.000440854735076
-0.000189483101235
0.201501979761
0.000794166201643
-0.000539210099797
-0.201719096921
0.200859713854
-5.63004298141e-05
0.000644032370065
-0.00049309150587
-4.98600831476e-05
0.200754422653
0.000574728949156
-0.000453023232197
-0.000169703356861
-0.000187317178951
-1.92838756116e-05
0.00102887315781
0.201549140047
-0.000592505570134
-0.201794465104
-4.21919745897e-06
-3.76884349344e-05
-3.90818181714e-05
3.90673602429e-06
-1.1030633342e-05
0.20089492152
0.000735300814359
-0.000553641798159
0.0504725466412
-6.29593988766e-05
-4.65244125351e-05
-3.80593333853e-05
-4.77325772454e-05
0.000206601381957
-0.0505165587194
-0.000136980825989
0.050249623702
-0.000202927809907
-6.32969880746e-06
2.99825421626e-06
-1.70680684358e-05
9.64996755815e-06
0.000206167471612
0.00506282313867
-0.00289998545177
0.0456956408683
-2.05250664346e-05
-3.63164492803e-05
-6.42050179206e-05
7.5682742141e-05
-0.00390925614759
-0.00577291744948
-0.00212288421572
-0.00416663731139
0.00583042326851
0.000749740599457
-0.00176871587587
0.00496154973886
-0.00405531244481
0.00363437820432
0.00477638281951
-0.00295060010895
0.00139653066254
-0.010925628646
0.00594669864995
-0.00660755949589
-0.000196389297617
-5.51118420853e-05
-6.78931386721e-05
-5.21060724422e-05
-4.32337332867e-05
0.05042579713
0.000274202222809
-1.53479880483e-05
-3.03775310603e-05
-2.0437788325e-05
-1.26221896939e-05
0.0504039524064
-0.000125376623696
-0.0504154605938
-5.69034353693e-05
5.43874455927e-05
0.0125310607271
1.71663156559e-05
-2.4473143514e-06
-0.0125431770308
-0.00012293474158
8.34171917044e-05
-0.0125388465274
1.88073696287e-05
5.66732163552e-06
0.0125539786913
-3.88356117339e-06
0.0125956311346
1.59578505165e-05
-1.70511550681e-05
-0.012605981697
-0.000199393618654
-3.74847441046e-06
-1.19843525727e-05
-3.79252969602e-06
4.21337640357e-06
0.0502210641746
0.000204221116261
0.0502538615915
-9.73657483616e-07
1.09472671552e-05
8.24327634268e-06
-1.38580582351e-05
-0.00017913577843
-5.98671721559e-06
-2.00762935401e-05
-3.34631591662e-06
3.72404457225e-06
0.0502344965073
-0.000165245202044
-6.03546539772e-05
5.30184208556e-05
1.2889673575e-05
0.0125588266123
-6.07054309528e-05
2.21638152227e-05
-0.0125054283797
5.17335784753e-06
0.0125252034952
1.36514807391e-05
-6.30578011283e-05
1.31493802413e-05
0.01255778309
-0.0125677887109
4.8424076269e-06
0.0125577446322
4.48596868501e-05
-4.52171721158e-05
0.0395088266992
-1.99349753217e-05
-5.02205778983e-05
2.28493492982e-06
-0.00409851016385
0.00572423887287
-0.00187155494744
-0.00295374082444
-4.96263671346e-05
7.7936327176e-05
-1.57011552387e-05
-1.17351251654e-05
0.0442346862266
0.00558179946829
-0.0416353825512
-0.00241104268982
0.00607258383903
-0.00298212767152
0.00256564958631
-0.00234930991196
0.0030170238211
-0.00121833003141
-0.00352567927077
-6.64110516725e-05
-2.22925920068e-05
7.37785221191e-05
-0.00395804848828
0.00579236352027
-0.000317434199671
-0.00102236815759
0.000488279598423
-2.94678903278e-05
0.0126021819533
2.91177585047e-05
-0.01259740007
-0.0125859840088
-6.61854489894e-05
5.43007866093e-05
0.0125965970251
-5.15639674493e-05
-3.44080792362e-05
-1.78765931401e-06
0.0125377773704
-1.79094402096e-06
1.47535288759e-05
0.0125405859928
-0.012540843964
-9.48085100741e-06
-0.0125923720996
-4.80516175377e-05
0.0125547419588
-1.30039589321e-05
0.012596902812
3.41226578323e-05
0.0125985832045
-2.77848398281e-05
5.68528159313e-05
-5.40954062419e-05
-3.80882848835e-05
-0.01258768137
0.0125937542399
3.96832182538e-05
-1.98253422088e-05
3.41559522209e-06
1.71273392751e-06
-1.50080561583e-05
-0.0125265419327
0.0125269373347
-1.85067110851e-05
0.0125895039976
-5.56638764602e-05
-1.72036112463e-05
3.80226968337e-05
-0.0125778742655
-3.94520155116e-05
6.48563170868e-05
0.0125838886442
-5.74327042155e-05
-4.49556907586e-05
0.012591025253
4.33336913474e-05
-4.04870952311e-05
-3.33898826938e-05
0.0125166316976
5.46548921085e-06
-3.86680852165e-06
0.012521815854
-1.88095247672e-05
-5.66213065246e-05
0.0125351360665
-1.94952958041e-05
0.0125799348948
4.61978916362e-05
-3.17166252434e-05
-0.012569683588
0.012575918736
5.2075742877e-05
1.57634043306e-05
-0.0125079476919
0.0125229624889
3.45957622718e-06
-0.0125074785132
-1.9218680517e-05
0.0125099327693
2.20615564404e-07
6.15789649485e-05
-5.85380906717e-05
-1.92555030017e-05
-1.1819457937e-05
3.00446832574e-06
-2.0720276352e-05
4.84845287254e-05
-3.41289644283e-05
-0.012566526612
0.0125728697516
-4.80552022651e-05
-3.98573132578e-05
-0.0125076716869
0.012511672474
-0.0125134533113
0.0125246694209
-7.3534657465e-06
-4.85536080917e-05
9.52420043582e-07
-0.0125826712427
-1.00131058297e-05
6.6761480428e-06
-0.0125190909271
-6.86879233362e-06
-0.0125797543014
-4.75213392978e-05
-0.0125326911268
0.00232969992303
-0.00444238458252
-9.78788447625e-06
0.00010701985527
5.41662059117e-06
7.0480617844e-05
0.0395696653454
-0.0410146292552
0.00338451775392
-0.000951362315331
0.00674315589164
0.00158113625092
-0.0108225744659
0.0417669459371
0.00188175051475
1.30138770515e-06
2.34528248777e-06
0.000129535989762
-0.00647276548125
0.00369463710198
-0.0410607186589
0.00356949403026
-8.91337895126e-06
7.88105348082e-06
8.77733771132e-05
0.0407089507176
-0.00716397852582
0.0025097415194
-0.00296019773788
-0.00392660054688
0.00413531923867
-0.00039085925398
0.00133115815695
-0.00123445442847
0.0454021372745
-2.73300177257e-05
-5.26772950593e-06
-3.64101696725e-05
8.54435150759e-05
0.00511233664237
-0.00486516691584
0.00990647232584
0.00342014817092
0.00309997377934
-0.00308131348397
0.00305714427962
-0.00629934305589
-1.39309426681e-05
9.87522584165e-05
-2.04014578409e-05
3.89417432352e-05
0.0437797288568
0.00476281740434
-0.00344764175024
0.0120407104719
0.00140722006725
-0.000441729799306
-3.70576643616e-05
-3.9364776836e-05
1.40821256828e-05
0.0452219336444
-0.0053834176785
0.00317211288274
-0.00256931090124
5.37854010894e-05
-0.0126111554668
-8.53119523415e-05
0.0126195256812
-3.97888377127e-05
0.0126353833527
-2.032634818e-05
3.05022949595e-05
-0.0126376899869
1.82929008894e-05
-3.17724651565e-05
0.012544391186
1.40289372536e-06
2.06382131818e-05
0.0125348377432
-0.0125341246779
-1.86444240956e-06
0.0126280423246
4.12706911306e-05
-0.0126280800059
-3.05596211649e-05
0.0125502874159
-3.06150198793e-06
6.46289028718e-05
0.0126222956403
-7.50415584584e-05
-4.7649036377e-05
-0.0126097685377
-4.47295108897e-05
5.49822479163e-05
0.0126150478084
1.88701441427e-05
-2.49595944796e-05
2.69299437953e-06
2.6399610599e-05
-0.0125425583215
-6.98089333626e-06
0.0125498088058
4.96584563632e-05
-5.37678315833e-05
0.0126145283396
-4.4815777707e-06
0.0125416231642
-1.98519867535e-05
6.49827088691e-06
-0.0125419249828
6.35034861552e-05
2.32151049552e-05
0.0125563713728
5.54510137716e-06
4.61450936027e-05
0.0126055957033
-2.27776961789e-05
0.012615603042
-5.76610526766e-05
-0.0126099373125
1.44837540078e-05
-0.0125386615609
0.0125455955771
0.0126099813631
-0.0125503503091
3.3351103581e-06
0.0125738703616
5.47029536011e-05
-2.00832175298e-06
0.0125022295667
5.43233411443e-06
0.0125013930193
-1.69516510082e-05
7.28254700685e-05
-3.80199079172e-05
0.0125679662536
-6.09114526952e-05
-3.5804016594e-05
-4.17609510586e-05
0.0125068410408
8.57989492572e-06
0.0125647077437
5.5859568023e-05
0.0125146564169
-1.75460831863e-05
6.76255551718e-05
0.0125678065336
-1.11500262755e-05
-6.01694903805e-05
-0.0125543643906
-4.91224881799e-05
0.0125595795667
5.40782972977e-05
-1.88323893768e-05
-2.82491320919e-05
1.1404038304e-05
-2.18727001595e-05
-0.0125091175969
-1.98281253218e-05
0.0125166240506
5.52644884483e-05
-5.92439993306e-05
0.0125601970675
-1.98171139884e-05
-0.0125717465452
1.9174961414e-05
4.29553937265e-05
-4.71929355938e-05
-6.62053500919e-06
-4.70651780023e-05
-2.18600939758e-05
0.0125022799379
0.0125015307448
-1.0714048352e-05
-1.33910721652e-05
0.0125069809874
-9.3947806102e-06
-4.25241880927e-05
0.0125684852453
0.0125141915565
0.0125094078913
-4.90257946906e-06
-5.73914659328e-06
5.07720762465e-05
3.51052537579e-05
0.0125277389507
-5.91811188643e-06
6.23435377394e-05
0.0125688867346
-4.28082414845e-05
0.0125690885944
-1.93214428436e-05
-1.27725042547e-05
-0.0125089860546
0.0125164511771
0.0125630674016
-3.00679049316e-05
2.85277242327e-06
9.90747606635e-06
0.00065459335629
0.20071610197
-1.65081377029e-05
-0.000491942816741
-0.000187951987016
-1.99990299151e-05
4.29381990882e-06
8.09373430306e-06
-7.52771618722e-06
0.000200150375212
0.050193862852
-7.93620336259e-06
0.00583788547875
0.00206764071136
-4.25298655643e-05
-1.95794668451e-05
7.1159784065e-05
-0.00593159854472
0.0432475934307
-0.00210646125973
-0.00564747608876
-0.00441811161375
0.00626165175662
-0.00645096547151
-0.00367937411143
-0.00509062017648
-2.9790259308e-05
-8.40172635161e-06
-2.04507262843e-05
6.49933595937e-06
-7.37368938045e-06
0.000225138159912
0.0503980972703
-3.81188501966e-05
3.4724175467e-05
1.70247867711e-05
0.0125379327778
0.0502270128364
-1.55764292276e-05
-6.27907916986e-06
-5.91336815574e-06
3.15005871549e-06
-0.000153053568607
0.0502036193545
3.36541861317e-06
-9.29980626708e-06
9.81904896276e-06
-6.14108001501e-06
0.000170237124706
-0.000134736510365
-4.4887960935e-06
0.0125122052144
-6.11070507311e-06
1.57144433593e-05
-2.95260842513e-05
2.43050406004e-05
2.27151134998e-05
0.0125191197844
-9.34103822821e-06
0.01253393399
-5.03549358838e-05
2.41580297766e-05
2.69475758184e-05
-0.0125264465458
-8.38442017439e-06
0.0501481247102
1.99244238757e-06
1.58214519087e-05
-1.01935626967e-08
2.21811810338e-05
-1.00754195148e-05
0.000136558539378
-0.000111055419296
2.34711788845e-05
8.5575378395e-06
2.61822095435e-05
6.86461286133e-06
-1.38468550818e-05
0.000111478512553
0.0500756628359
-9.03471715024e-05
9.01758623783e-05
-2.74182747157e-05
-1.75209209431e-06
0.0124828112046
-9.87844694633e-06
1.51683143178e-05
-1.22860631221e-05
1.9497920975e-05
-0.0124574651826
0.0124454167756
-1.00814404835e-05
-3.81192617138e-07
-3.50709389488e-05
0.000115928571706
-0.00420652556002
0.0384935381978
0.0012458312211
0.0406527294211
0.00491460180763
-9.93631343604e-06
-2.29804720422e-05
7.57287417632e-05
0.003977594738
0.00437851615326
0.0383945625282
-3.81599061966e-05
5.22402274006e-06
-1.54008872717e-05
-0.00419837372273
0.00207686818872
-0.00105312333308
2.17079055946e-05
0.00416830057154
0.0103978772004
-0.0001439510978
0.00205095533963
0.0099148623722
-0.00161305966772
0.0365857676992
2.08820157499e-06
-7.93796273283e-05
1.98024794443e-05
-0.00155139797329
0.00300716845203
0.000500729617472
-7.35421524128e-05
-4.87348300671e-06
-0.000108903474332
0.000488128149916
0.00249150710296
0.0349126922368
-0.00110371246809
-0.0125981266021
-6.36430914885e-05
-3.26306488534e-05
5.88953368069e-05
0.0126057474795
5.23568039327e-05
0.0126087612654
1.30170142527e-05
0.012540619449
8.53709885138e-06
-2.70190038259e-05
-1.43133777855e-05
0.0125423501644
5.66432286522e-05
8.98765684737e-06
0.0125568245751
0.0126022130415
6.26887689056e-05
-0.0125494891051
-3.60269401674e-05
-5.13325578023e-05
0.0125541852466
0.0125564521292
-5.02613031821e-05
5.31524857994e-05
-2.92737757488e-05
-3.34083001346e-05
1.51145928863e-05
0.0125171772368
-8.30695472675e-06
0.0125167972557
-1.76352428512e-05
5.16612294517e-05
0.0125463069753
-5.54607706406e-05
-1.61620831716e-05
0.0125345993235
-0.0125534231796
-3.53832309978e-05
-3.69996502955e-05
0.0125587886194
5.77596747817e-05
0.0125697026357
-4.06612277682e-05
-6.07016834446e-06
0.0125176822235
-7.0685371831e-06
-1.06094028137e-05
0.0125238359407
-9.56467408483e-06
0.012534897071
0.0125625422666
-3.72162455971e-05
0.0125565216256
-5.16654342414e-06
-3.53483090209e-05
4.61193013767e-05
4.23319597295e-05
-0.0125560415331
0.0125599645233
-3.13922742681e-05
-2.08353849634e-05
-0.0125095235843
0.0125054911173
1.37256517481e-05
9.52330930287e-06
1.41170135535e-06
-7.98546183802e-06
0.0125464803966
4.13128341448e-05
1.43740831303e-05
-3.35935328391e-05
-0.0125386034658
-1.00540625487e-05
-1.93533633052e-05
0.012536553305
3.34448922317e-05
3.03210083715e-05
0.0125460105771
-2.80019817537e-05
-1.25155422876e-06
0.012497784724
9.31024854406e-06
-8.55857056135e-06
-4.31665286816e-05
0.0124660245234
-1.08868202001e-05
3.68764524516e-05
0.0124911774363
7.81597672541e-06
0.0125307299144
-2.50604796554e-05
0.0125161942596
4.22184871105e-05
-2.73836397408e-05
2.89792190391e-05
2.77172336867e-05
-0.012521753594
0.012509272571
-1.88946031419e-05
-4.53216955012e-05
-0.0124417602344
9.43830989717e-06
0.0124236672095
2.4315208596e-05
-9.35216268301e-06
-1.13123136524e-05
2.71050887234e-05
0.0124976252394
7.06815309429e-06
-2.09025233787e-05
-0.000382399331194
-0.0495699625111
0.0495159270868
0.00044230813593
-1.0106219676e-05
-4.26582819539e-06
4.68177745456e-06
-1.24538081351e-05
1.63677142819e-05
-0.000443307771978
0.0498954758581
-5.93473103996e-05
-4.53262052469e-05
-4.72754990571e-05
-5.32557540297e-05
0.0001564734147
-0.0498111724622
0.000407691177156
-0.000676432182476
-0.0500454901415
0.0502870581955
0.000530861876348
-8.58349821587e-05
-5.87742537095e-05
-6.29218496432e-05
-7.81637783244e-05
0.000189697388325
-0.000430142840537
-9.70853590076e-05
-8.142288493e-05
-7.79059842647e-05
-8.4487790531e-05
0.000259552443621
0.0502682343079
0.000362781253081
-0.050119523068
1.16445675225e-05
-0.00700352776575
-0.0405949010516
0.0436747154477
0.0116106906712
-0.00780478434702
2.24012169168e-05
5.03266938927e-05
1.82527392534e-05
-7.6447573339e-05
-0.0459254212569
0.0459549487214
0.0161787638546
-0.00513284935989
0.000114872086978
0.000101715555231
-5.12963136723e-06
-0.0112109647697
2.37864076524e-06
-0.0136536834785
0.0483737716252
0.00115149119955
7.73219614683e-05
0.000116367598164
5.63357651073e-05
-0.046254395879
0.0101301660617
-8.66216780038e-05
-0.0198495597361
-0.048125722071
0.0443262163176
0.01721747156
0.00609719841466
0.000157020155503
0.000228019118603
3.59525011555e-05
3.99475352131e-06
-0.0135343399148
0.000155273039199
0.000193571761607
6.11792520873e-05
0.039515738749
0.00958115099532
0.0103167495342
-0.0462933185351
-0.000148082933721
-0.0121129506094
0.0095621011814
0.0124927141
0.00854556221681
0.00945921335089
-0.0021932684317
-0.0113642287129
-0.0211257503246
0.0139820052651
0.00988102683193
0.0101761170617
0.00706118957263
-0.014819220496
-0.000320590082774
-0.00494295420953
-0.0184680879678
0.010130089771
0.0109200436124
0.00596989549436
0.00592213783787
-0.00434154100604
-0.0258238342704
0.00938402389298
0.0044922167921
0.00304637576659
-0.00123440217827
-0.00515306773785
0.00295131349741
-0.000447569965484
-0.00220042043974
-0.00716513265725
-0.00231130210345
-0.00464117692033
-0.00489532506727
-0.00589557776749
-0.0089268352006
-0.0127576681658
-0.0132219697108
0.00785501810775
-0.00816970160166
0.000175079338414
-5.59349085044e-06
-8.34743067996e-06
-5.20739982564e-06
-1.17530351661e-05
0.0493847782889
2.8052633597e-05
-5.06155432141e-05
-0.049506372587
0.0494589165833
0.000261479030036
8.09992896165e-07
-1.0206570311e-05
-2.71885631696e-06
-7.79802267685e-06
4.95751896067e-06
-0.0495302995015
-2.55761015453e-05
8.56583525325e-06
-0.0124110411718
-6.77687044376e-06
0.0124066775741
2.82113079059e-05
0.0124204097645
4.90014508237e-05
-2.56943672152e-05
1.98906205487e-05
-3.97225686915e-05
-0.0124238574825
1.70529943118e-05
4.08250203358e-06
1.12159122034e-05
1.21192640033e-05
-0.000235716000858
0.0123561430606
0.012325554654
0.0123068568444
0.0123511909324
-7.20498553284e-05
5.56332111552e-05
-1.71036412815e-05
8.88157564894e-06
-4.62403228505e-05
0.0124192219397
0.000316671754732
-1.83030179819e-05
-1.63090758504e-05
-1.76754896023e-05
-1.92727177636e-05
5.72407973504e-05
-0.0496108509137
0.0496805666355
-1.48160362562e-05
-2.57470941012e-05
-1.81286089004e-05
-2.22850441258e-05
4.08989754522e-05
-0.0496743247994
0.000350455567222
0.0124286660825
-2.28277408116e-05
1.84155489087e-05
-0.0124320029309
5.67471772651e-05
0.0124634670826
-2.68743664413e-05
3.57719116861e-05
-8.31503288465e-05
-0.0124643816214
7.53488492517e-05
0.000618834955858
4.82892566586e-06
1.99920371354e-05
2.6420014414e-05
1.48183506734e-06
0.0495605186304
-0.000161453843743
-0.000138967873632
-0.000162020609911
-0.000134509519821
-4.53132291076e-05
-2.12457371656e-05
-3.13537822977e-05
-2.13606355577e-05
0.0497275775272
-1.55003886482e-05
-2.07366955855e-05
-1.52894789869e-05
-2.05378692661e-05
2.41051677462e-05
0.0498665130533
0.000550963920416
-3.19431222155e-06
-2.80508726445e-05
-9.13415090807e-06
-2.24835554032e-05
-8.11311756137e-06
1.44194175194e-06
0.0124309137562
6.36444573095e-05
0.0124637587344
-1.4219874763e-05
-1.59055503814e-05
-0.0124488047843
0.000111944795673
-9.68531238973e-05
8.303877575e-05
7.1086654867e-06
2.34053954271e-05
-0.000102659931348
0.0124527782158
0.0125247574243
0.000104572143263
-3.70617191441e-05
3.65282304254e-05
-0.00012053160585
-0.0125083934484
0.0501647234874
-2.03174745812e-05
-1.77177797542e-05
-1.08897243273e-05
-2.56835334876e-05
-0.00083648707339
-6.36874448403e-05
0.000771318168689
2.38369966251e-06
-4.44087256413e-05
-4.33013070733e-05
-2.43678125926e-05
0.0507758566592
-0.000140000799204
-0.00113264700333
-3.44788583608e-05
0.0124336027349
0.000108631604473
-0.000120323006564
-2.77234122992e-06
2.28398542674e-05
-0.0125983588527
0.000122698903359
0.0126355617677
-0.000180364448531
0.000108156632255
0.000105987716958
1.03363954252e-05
-0.000167948310372
0.0124680553705
0.000127990106388
1.39751384611e-05
7.40184790739e-05
-0.000206769369878
-0.0126228845397
0.0126132896949
0.000469593489138
-6.05023995735e-05
-5.90064753188e-05
-5.31509119246e-05
-6.12021279429e-05
0.000165163568307
0.0500852042578
-4.86387352157e-05
-6.31056263343e-05
-4.8554375362e-05
-5.3476552893e-05
0.000128691655944
-0.0499471383857
0.000416665850422
4.34942508106e-05
0.0124607480489
5.5898750273e-05
-0.012474868213
0.0125294464711
-4.25942104343e-05
6.09895225829e-05
-0.0125188412894
7.54435389147e-05
0.0125294360723
-5.51108339479e-05
7.83167637949e-05
-9.28445982126e-05
-0.0125285944516
6.87059019744e-05
0.000535274701678
-8.47272046164e-05
-0.000100108297841
-9.14204894516e-05
-8.2192816616e-05
0.0506311660663
0.000250319310754
0.0502643774964
-7.40462787187e-05
-6.19927553456e-05
-6.42505558692e-05
-5.8626830866e-05
0.000180182591129
-6.14498287177e-05
-8.75432484785e-05
-7.75213573229e-05
-6.01719106404e-05
0.0505213518693
0.000420298577769
0.000144925628491
2.62829241772e-05
0.012473644322
5.07669642533e-05
-1.55732945739e-05
9.56566067423e-05
-0.0126310042461
6.19354770654e-05
0.0126165266588
6.02938874362e-05
5.33683327915e-05
5.4429545755e-05
-0.000116566033581
0.0124777638686
7.30396186777e-05
-5.28750870672e-05
0.000118254814346
-0.000112452633776
-0.0126092720678
0.0125830706391
7.0019629535e-05
0.0124853533199
3.58976682642e-05
-0.0125269710628
0.000126499514399
-0.0126106108213
0.0125898029558
-7.73157150711e-05
4.44382695576e-05
-0.00153143444114
4.02952267546e-05
2.68667356289e-05
2.36408810339e-05
0.036185201537
0.00949722939945
-0.0365483678978
-0.00771902098592
0.0385110162134
0.00561657967849
3.60612591259e-05
2.51147474937e-05
2.29853598992e-05
-0.0380713120489
-0.00770220027283
-0.00883496932593
3.10400520642e-05
2.03933084133e-05
1.47929908334e-05
-0.000583580937262
0.0408415603401
-0.000754468073327
0.00161032802574
0.00985806734824
-0.000823793711996
-0.000340363602192
0.00109671181065
-0.00130163755157
0.0128812048038
-0.000948748213205
-0.000620709006011
0.00116633578102
0.00074585696884
-0.000737069280134
0.00149385961032
0.00919603881568
2.5879189967e-05
4.71640617907e-05
0.0137272670268
-0.00112649195551
0.000658886028451
0.00407961433956
0.00558001745225
-0.000408836629652
0.00107320105764
0.00114700437838
0.00725974166795
0.00242943031744
0.00346154475689
0.002841504093
0.00964154845135
2.85065790622e-05
3.4180332392e-05
2.4727327167e-05
-0.00528490234091
-0.0394455247765
0.0440378315765
5.74610723745e-05
5.58813064104e-05
2.3310425237e-05
-0.0422556957487
-0.00337057598034
0.0110616963822
0.0154238948423
-0.00830090431108
4.83358954102e-05
2.86605025659e-05
-3.3569783275e-05
-0.00942000358631
0.0469866873209
-0.00513623457125
7.87817076036e-05
4.94746725694e-05
2.26229307849e-05
-0.00399043478857
0.0479664599053
0.0182854341801
4.15746600861e-05
0.000116718261031
-4.85636328413e-05
-0.000212876790424
0.00421067309267
-0.000546216341415
0.00418923965305
-0.000321113767187
0.00375617937159
0.00572540723564
-0.00443002985695
0.00394221725183
0.00592821915246
0.0150206733633
-0.000681328443301
0.000287174990222
0.00021660671743
-0.00022634263553
0.0417968691718
-0.0104817862091
0.0455917209286
-0.00144181026896
0.000133636301838
0.000131743043597
-1.77066870923e-05
0.00274417076281
0.0181998533614
0.000197995511862
0.000291918695087
-0.000218060936528
0.039422180271
0.00143271632335
0.00362357744467
0.00398326684302
0.00379402796346
0.00470833221312
0.00444671630609
0.00268359700529
0.00748416705952
0.014850516901
0.00341103914799
0.000145884835434
0.000103234040488
-2.33172769348e-05
0.00709223773678
0.048066102394
0.000113434816311
0.000149976634575
8.02335923877e-06
-0.0493978008896
0.00876100028647
0.00799349044544
-0.00775452387328
0.00618260464683
0.00597342118193
0.00915333864354
0.0185337735907
-0.0184969705186
0.00586494177884
0.0167941885664
0.00804053633629
0.000313469829739
0.000201815863546
-0.000174495324436
0.0373249678397
0.0409338631023
0.0104514422083
0.000215416406058
0.000156716970305
4.46793879099e-05
0.0103358031309
0.000195945733444
0.000290711667937
-0.00010613373625
0.0337257217128
0.0132263304907
0.00967876206533
0.00408603319766
0.00135236469332
0.0100880255039
0.015805075511
0.00448500829497
0.0125874435648
0.00167759178091
0.0123750102173
-6.47242075677e-06
-3.11243275978e-05
3.81371720665e-05
-0.0123811429882
3.23532176833e-05
-0.0123788399971
0.012365232852
-1.85523807225e-05
-7.50478079488e-06
1.75828652135e-05
3.0083619946e-05
-0.0124110225662
6.84094412076e-06
-0.0124114260973
1.31816354353e-05
0.0124113777537
4.37392075061e-05
0.0123652531593
8.39347890801e-06
-0.0124102897589
-2.06620518048e-05
-0.0123834686439
0.0123799638254
4.63115234051e-05
-2.43628444803e-06
-0.0123848863123
-5.66691748623e-05
-0.012387887864
0.0123851492591
6.91322584375e-05
9.32422780955e-06
-0.0124168937066
0.0124169402898
1.44424839355e-05
-3.19070418895e-05
4.41919010139e-05
-0.0124255637911
0.0123736168079
5.62247524199e-05
-0.0123912016637
-0.0124199680787
-0.0123686354518
8.08378760689e-05
4.72281726297e-06
-5.70057668099e-05
0.0123571409062
-6.54030431186e-05
0.0123800939738
8.32084961091e-05
2.37376030581e-06
0.0124163189236
-1.72972401308e-05
2.69018675848e-06
-4.42669979231e-05
6.40120625527e-05
0.0124168542445
-4.69018322677e-05
0.000102474295959
0.012373284417
-2.30411742475e-05
0.0124143443566
-5.94536455007e-05
0.0124105094748
-2.72730988965e-05
6.72120386831e-05
-0.0124093025676
-0.0124039259565
7.11164240479e-05
0.0124040230275
2.00936427558e-05
5.40433044467e-05
-0.0124335620647
2.83833721038e-05
-0.0124325340407
6.07600664385e-05
0.0124342287403
-0.0124047594466
7.73261888969e-05
0.0124133601255
5.45322605286e-05
-0.0124357154378
0.0124212116517
7.26325626454e-05
-2.20673884322e-05
-0.012419387885
-8.33848093101e-05
-0.0124315205389
0.0124387677594
8.62337211463e-05
2.86374947355e-05
-0.0124416792095
0.0124479742895
3.51663957923e-05
-6.02129446786e-05
-0.0124496882523
6.62328752421e-05
0.0124256178843
-0.0124246028112
7.85583094182e-05
-0.0124461613699
-0.000103834093515
-0.0124194667981
-1.39431163843e-05
0.012423219768
0.00010412638448
0.0124009573044
8.34934227895e-05
-5.55283221084e-06
9.1030257295e-05
0.0124317841303
2.35931800396e-05
0.0124496624825
7.4851051526e-05
0.0123988202078
8.85360021069e-05
0.0124565950969
8.87851851344e-05
-0.000131805072995
0.0124261146829
8.6796848162e-06
0.000125430679334
-0.0124056328737
0.000148545008978
0.012415909451
-0.000154740688115
-1.21287170113e-05
0.000123718018665
-8.03806681479e-05
9.69666061817e-06
-0.0124499072773
0.000113672788315
0.0124670189032
-0.000124333004194
0.000145259495607
0.012440640802
0.000105871732451
-0.0124351036263
9.86011474327e-05
-1.92500070785e-05
0.0124445640537
-9.4232482942e-05
0.0124413881232
9.44033643661e-05
3.04548903608e-05
0.0124680817672
3.70104971038e-05
-8.4970336948e-05
0.0124642484581
8.58444584633e-05
0.0124533164153
0.0001031881616
0.0124754355565
0.0124509230936
0.00010997529369
6.04111514473e-06
-0.000135057754799
-0.0124769328747
0.0124908443253
0.000129624492748
1.40077296684e-05
-0.0124634179398
0.0124837912043
5.20853720215e-05
-7.53576696118e-05
9.57272188214e-05
0.0124659222457
0.000115958096073
-0.000210536167561
-0.0124771453915
-9.21130970094e-06
0.0125094358027
0.000193341091636
-5.29229527756e-06
0.0124315554715
0.000170494479814
-3.75071787897e-05
-0.000183147671154
1.90325001468e-05
0.000194715285979
0.012470708896
-0.000135514326054
2.01927423605e-05
0.01252226608
0.00013492822002
0.0124737070326
-2.01472444865e-05
-0.000213316355314
0.000169751794079
-1.5141239434e-05
0.012548067144
0.000155331257722
-0.000235507323991
3.07965428588e-05
0.0125581129441
0.000208281530608
-5.14882911466e-05
-0.012580627396
0.000230631218478
0.0126873912458
-0.000276014985014
-3.85236544177e-05
5.83125455274e-05
0.000261963652111
-0.000160898220158
-0.0124437822085
6.87286969678e-05
0.000178627512545
0.01253418349
-0.000232570281511
-5.17997111821e-05
0.00017025660832
0.000233308524977
0.0126586716751
-3.51236846967e-05
-0.0125031791069
0.000160205515059
-2.23179864336e-05
0.012539041288
-0.000162391160527
0.0124989354373
0.000146958450197
4.04670603355e-05
0.0125435269917
7.06142432733e-05
-9.38634713664e-05
0.0125095949699
0.000113499764604
0.0125426288205
0.000161533791838
0.0125653299393
0.000163782375929
1.12970084559e-05
0.0125755689163
-0.0126143155234
-0.000209168622644
0.000185916123757
0.0126670884191
-0.0124591387059
8.66343539141e-05
0.0125400656119
0.000123401286016
-6.8473125464e-05
0.000122783259807
0.000171848817102
0.0126615482562
-0.000100436083547
-0.0124667899696
-7.29903831191e-05
0.0124814688442
9.93862432657e-05
0.0124544590363
8.70352088323e-05
-0.0124489540276
5.79765953672e-05
9.25141350864e-05
0.0124733350879
7.55882345988e-05
0.0124964874371
-0.0124680237887
6.78111582304e-05
0.0124680121736
-0.0124519074087
9.42572792497e-05
0.0124996343681
7.250334992e-05
-0.000115024255597
0.012486125597
-5.48905841176e-05
0.0001048146265
-0.0124925506645
0.000112706551689
0.012511469685
7.67874266735e-05
0.000119152551025
8.15605784636e-05
-0.0124705861843
7.40103872499e-05
0.012493564341
0.000109545956555
0.0125096309793
6.96757682104e-05
0.0124951243261
0.000103129194358
-5.37208947174e-05
-0.0124882926547
-0.000114441444162
-0.012506611794
0.0125250347274
0.000111210264587
7.18195721984e-05
-0.0124776728779
0.0125003942296
8.2372899806e-05
-4.76284080081e-05
-0.0124830618598
6.95716431393e-05