/*--------------------------------*- C++ -*----------------------------------*\
| =========                 |                                                 |
| \\      /  F ield         | OpenFOAM: The Open Source CFD Toolbox           |
|  \\    /   O peration     | Version:  v1906                                 |
|   \\  /    A nd           | Web:      www.OpenFOAM.com                      |
|    \\/     M anipulation  |                                                 |
\*---------------------------------------------------------------------------*/
FoamFile
{
    version     2.0;
    format      ascii;
    class       volScalarField;
    location    "2.55";
    object      p;
}
// * * * * * * * * * * * * * * * * * * * * * * * * * * * * * * * * * * * * * //

dimensions      [1 -1 -2 0 0 0 0];


internalField   nonuniform List<scalar> 
28582
(
17109.6641461
17111.7160296
12211.6434689
12214.0458607
7313.43204416
7316.71700423
3638.34613547
3642.52397902
2.88135031242
6.30058059085
-26.9452371935
3640.42099615
607.58443063
611.0451741
3644.79680666
3644.93974691
612.276753767
1809.58353866
1809.64198248
17106.9953516
17113.6419118
17114.856756
12208.5261369
12216.2913159
12217.7655985
7309.48607722
7320.01223903
3633.34219013
3647.06046594
7.6786860358
-26.9874952181
-26.9665512399
3635.00340042
3635.7852158
604.716222592
607.038882704
1798.06732343
3649.28361079
3647.22680484
3649.50311682
1810.96503288
622.152223572
1811.04176205
1813.83867472
3.83300330381
6.73171491141
-23.3004603149
-23.3071142164
5.0113473729
-23.2834166562
1800.6067578
1802.0495334
608.840287405
607.770834619
1800.98881887
608.651255029
1801.71970015
1803.13617301
1804.15732674
610.119601666
611.081504656
1804.32914475
609.771739124
1803.01514272
1806.81963961
1805.38613974
613.633745349
612.360744783
1805.56831661
613.635434308
1806.7193994
1809.45353096
616.328371665
616.499558359
1808.1782511
614.973043955
615.026100275
1808.06599884
1809.60534362
616.782569633
617.041069954
1808.20019829
615.582603327
1808.20342865
615.264575629
3.22919761299
-23.289726406
3.62669891358
3.77835978419
-23.2970451984
-23.2857975843
8.01014157474
-23.2985727131
-23.3046346362
9.36270267223
-23.2859925863
9.01020543066
-23.2953650997
1796.4555276
1795.21730137
605.795825445
605.309798041
1796.15565102
1795.38550472
605.675335788
1797.12800603
1798.04115957
606.484551607
607.263741556
1796.86235323
1798.1973956
606.211208256
606.43559594
606.954791656
1799.21019119
1797.57543603
607.269192138
1798.58848176
606.239521995
1810.86825859
617.881284865
617.96629673
1812.41052174
619.351121659
1812.27120447
619.451812206
1813.798944
1814.86922172
620.726802269
622.372899064
1813.61883795
1814.96646363
621.015652801
1812.50518616
1811.03553887
618.234167654
618.549430097
620.07020619
1812.47744599
619.70600511
621.643677416
622.998736877
1815.07497694
1813.82520889
622.75396993
1815.03682195
621.375691422
7322.13270874
3651.17532782
10.3863692395
-26.9995278144
3637.68270108
607.736211016
3651.41747894
3652.71837852
623.565959599
624.272422257
627.993724305
3652.93450719
3651.58926047
629.511159833
634.987239998
3.64507062527
10.6759288603
12.423992857
-23.2745316178
-23.2554748772
-23.2292493488
14.842417318
17.9109070004
1801.04480021
1800.18027302
608.180340027
609.015978942
1799.78484453
609.000126131
1801.39349478
1817.09096276
1815.88546669
624.875698552
623.62954922
1816.85619679
1816.03432351
624.981278691
1817.13696454
1816.14898721
623.869190744
625.432339585
1816.11988473
625.185742153
1817.0835505
1817.99539214
1818.52032225
628.015261461
626.562245935
1818.75484433
626.604257671
1817.84931827
1819.59518637
1819.09000289
629.721515581
631.18324621
1819.33097326
631.623689679
1819.54804428
1819.27422487
1818.48870701
635.002792355
633.347814692
1817.95010503
633.590063892
1819.53200352
3650.0289583
3643.30316323
3641.52496314
3637.91544378
-6.97354098577
-4.25613486472
-6.3188856098
-3.32902545558
-2.72567780455
-26.8809364946
-26.8951521429
-26.9100738835
-26.9467639759
-26.948928328
-27.0017354931
3651.09754904
3650.10387314
605.085175161
603.927960422
3653.16965479
604.544885265
3648.10986705
3645.53789673
603.384777784
601.384677655
3651.49561291
3646.43996882
3646.67973008
603.946710465
607.412136519
601.785446239
604.101213114
3645.02049678
3641.14439989
606.571148977
604.351415677
602.667487476
602.0427747
3643.05019073
3640.51838899
601.12003091
603.278957411
600.993104615
3638.52123854
3639.28362063
3637.2561843
602.107140687
601.906140451
600.506910494
601.808415256
600.237837201
602.02599108
-6.67926553502
-7.07763904
-7.03721965337
-23.3775114874
-23.332272007
-23.3878558641
-23.3327411135
-23.286323911
-23.2657615374
-23.2863578551
-23.2624577275
-7.12448603364
-6.9892468028
-6.12242398066
-6.6928264463
-5.63645189881
-23.3820035848
-23.32537139
-23.3730054003
-23.3304998793
-2.357349115
-3.71083466914
-1.80881366077
-23.2820875825
-23.2564322259
-23.2936642959
-23.2728277959
-5.20285341905
-4.80390828126
-23.3555898675
-23.3284442657
-23.3249095407
-1.59918095973
-3.12241531706
-1.53471677418
-23.3003920246
-23.2770012516
-23.3002879129
-23.2689872472
1812.62113269
1814.88311192
605.2969133
605.239096346
1814.70771377
603.081210633
1812.78980537
1812.34572894
1813.38021326
604.953916748
604.453462106
1814.24269174
1812.09109666
602.70407988
1817.93810771
1814.88503032
606.728822652
606.42071041
1816.36207418
1816.60048327
607.076974829
1809.80931639
1812.29374603
603.932874283
603.320033748
1811.2119883
1810.99737345
601.446346385
1808.59356607
1808.20540052
602.637160815
602.001172333
1809.57813646
1807.51935257
600.806851918
1812.9517228
1813.4760764
605.780724553
604.963509068
1814.91605765
1812.1511184
604.637012599
1813.33715979
1815.80427439
607.799190402
607.003918854
1816.06120826
1813.91880175
604.548300332
1811.14680499
1808.83056918
604.067464433
603.558820753
1810.56570488
1809.53147265
603.75529001
1811.23384804
1808.86624826
606.208418417
605.422524441
1811.57752537
1809.87510255
603.804977192
1810.02358668
1814.64013733
608.765221835
609.295669398
1813.70785122
1813.37513501
606.308460057
1806.14106129
1804.47148449
610.871694208
606.042012465
1811.19167136
602.158855351
1804.11026687
1807.66577589
1807.17057923
608.316968233
606.313750129
1810.89302467
1806.66645104
605.248293412
1803.85233444
1800.106589
605.433540931
608.219883944
1804.78053104
601.365658843
1802.3611082
1806.13706304
1807.44389254
602.929082255
601.913013316
1807.81538747
1806.04768752
601.253975969
1806.14978296
1807.1314822
604.533678248
604.331453849
1808.11248626
1806.15639931
601.407419753
1804.88112312
1803.12654752
603.64917225
602.792576688
1804.74051881
1803.83912158
600.680124666
1802.88359862
1805.4402435
605.711048926
605.92641348
1804.98571503
1805.33601005
602.518652256
1800.29287809
1799.42498204
607.138332407
604.555446779
1803.43290038
599.971073909
1799.84735703
1802.05040006
1802.43444743
605.336283439
604.538341182
1804.11453843
1801.93503417
602.135793009
1799.81993303
1799.08743512
604.37864765
605.816410784
1800.87596144
600.141936801
1799.56710477
1800.18698053
1801.76653718
604.184457267
604.316678159
1801.24139545
1801.2641363
601.302267493
1798.94649995
605.275369499
1800.46544466
17108.7088214
17111.1065728
17113.271291
17115.283927
17114.8048999
17113.517302
12210.6543711
12213.4364143
12215.9418488
12218.1461457
12217.121806
12215.2440763
18318.4819461
18326.4559314
17107.5680198
17111.593066
17113.7790945
17114.4447235
17114.3735828
17112.8068404
18321.8534835
18328.471965
17109.7314797
17112.5511493
17114.0617427
17114.6189162
17114.5253919
17112.8720979
17102.9090004
17105.8593962
17109.6395709
17112.4341692
17114.0914259
17114.7645635
17114.6490037
17113.0124479
17105.2258275
17107.4631277
17110.4876057
17112.931409
17114.4223778
17114.9864841
17114.7158867
17113.2395061
17114.6240495
17115.145907
17114.7703982
17113.3890827
13417.2115701
13426.0415658
12208.2879741
12213.4369027
12216.4727341
12217.2327396
12216.6625048
12214.5290093
13422.0328746
13428.5264529
12212.772002
12215.4662512
12217.0018724
12217.4758771
12216.8493885
12214.6431714
12204.3248689
12207.8120231
12211.6388133
12214.884109
12216.8836294
12217.5975238
12217.0784348
12214.7961068
12206.8036914
12209.3719305
12212.8170534
12215.6009604
12217.2800566
12217.8662304
12217.1999829
12215.0194703
12217.5296709
12218.0240168
12217.1467069
12215.1226719
8517.11892308
8527.59292643
7312.44255916
7317.91430811
7321.01686624
7321.46686225
7319.73226648
7315.26956984
8521.30845064
8529.9264732
7314.69690365
7318.67354225
7321.16775498
7321.63428184
7319.88960165
7315.39360039
7305.52777974
7309.70876049
7314.41860599
7318.59836084
7321.2160991
7321.87454576
7320.35828069
7315.73275864
7307.10488961
7307.94304582
7311.23104814
7315.54108697
7319.23931858
7321.55482567
7322.1025158
7320.49630979
7315.98817571
7312.37439388
7316.06711687
7319.61935094
7321.87164363
7322.13890977
7320.05279915
7315.86008339
7322.17595643
7319.86817026
7315.9445527
3619.54798307
3629.69442399
3638.05010496
3644.89514109
3649.39705698
3651.68602481
3649.55080529
3642.64355689
3619.04505111
3623.72611283
3632.12592238
3639.40421543
3645.26534662
3649.62633419
3651.88380793
3649.11825901
3641.76328138
3634.78673285
3628.10348523
3628.98660216
3634.63852716
3640.36444196
3645.68572715
3649.71754646
3652.17124398
3649.93381503
3642.34089737
3632.02113384
3632.22372839
3636.10610943
3641.30522537
3646.1892633
3650.02477836
3652.50792682
3650.74757099
3643.03346932
3636.97200382
3641.62079592
3646.32455686
3650.50160583
3652.76978961
3649.63996237
3641.90978989
3652.90418811
3648.46558274
3641.66167139
6.16837697285
6.82703718424
8.94158162889
10.5414518058
13.6456740734
16.6035879241
22.8716765375
30.384309653
-0.8334393812
2.30698510872
5.17723958882
6.42412403577
8.51859996317
10.9734052021
13.7364514012
16.7014821503
23.5721323294
31.1689125348
-0.451184822117
1.3180116255
3.51779299097
5.12954151576
7.29263997373
10.0778050375
12.8707915186
15.540997288
22.3867570496
30.1238290327
0.962741553139
2.81802343292
4.25564781791
6.44697702938
8.92184400862
11.4642423573
14.062511082
20.7630964967
28.5861510262
4.35140265711
6.31458727243
8.51871838568
10.6737865983
13.6469212997
21.3392231909
27.501065182
14.6953034456
21.8496781372
25.5705873666
-26.978087417
-27.0267179502
-27.0120314713
-27.0155065087
-27.0070601228
-26.9969608499
-27.0405778414
-27.0767671883
-27.1618401043
-27.640167847
-26.9861328853
-27.0038617472
-27.0112409692
-27.0182469316
-27.0146833089
-27.0147213656
-27.0558017274
-27.0925773841
-27.288730618
-27.6724735458
-27.009080145
-27.0067804785
-27.0077434638
-27.004854633
-26.9892793478
-26.9948423281
-27.0214427112
-27.0562208206
-27.1549115435
-27.5833380228
-27.011858076
-27.0078367637
-26.9892194373
-26.970188416
-26.9784607082
-27.0067464786
-27.043794319
-27.1465631742
-27.5492464311
-26.9862081161
-26.9600741679
-26.9789162586
-27.014381825
-27.0693375449
-27.2987655092
-27.5894754192
-27.0655509114
-27.2981422741
-27.5859710915
18322.3118438
18319.6054498
18323.9161355
15867.6777625
15872.1226073
15868.9860379
15873.4026501
18329.1442299
18327.5338564
18330.2544516
15876.4181771
15878.9331829
15877.1058108
15880.4325083
18325.4874934
18323.9064232
18326.4480839
15872.1810704
15875.5748224
15874.2676875
15877.054506
18330.5360154
18329.0097821
18331.2150638
15878.737857
15881.1982049
15879.6975028
15882.0105467
13422.1741947
13418.4159895
13422.8388786
10966.7686223
10972.9445096
10968.3163204
10973.2741201
13428.9698433
13426.3740301
13430.3948984
10976.966208
10979.2884501
10977.5033234
10980.733566
13425.463742
13424.7790054
13427.5509438
10971.225301
10975.2197718
10974.9960378
10977.7436025
13431.7660877
13430.0357427
13433.0685032
10979.2116411
10982.1336361
10980.6635167
10983.5240864
8523.37652721
8518.84056913
8524.05525828
6068.06888736
6074.34133453
6069.39556426
6074.88753772
8530.53328284
8528.18228066
8532.1802607
6079.05785873
6082.10136806
6079.24066816
6083.85701704
8525.73379241
8525.16772022
8528.40081602
6072.3208319
6077.03080466
6075.44260964
6079.4383733
8533.11241026
8531.49458056
8534.24911414
6081.12526384
6085.04035875
6082.91931033
6086.34572708
3616.12431434
3618.20424805
600.010623749
600.222441881
3623.99562998
3621.47625758
3625.98426083
601.449797979
606.315972085
601.789977716
606.77905459
3634.06700182
3630.52787595
3634.82633191
607.649117145
612.29112229
608.194380676
612.376874925
3641.7300161
3638.52819554
3641.82596194
614.073106987
618.084144897
614.069478955
618.444785318
3647.46225614
3644.80571499
3647.46265863
619.482136018
623.933567079
619.852008791
624.490819219
3650.7583291
3649.45740052
3650.71537725
625.495461415
629.182332924
625.902846967
629.828436238
3651.59741574
3651.73641245
3651.4955474
630.436138661
636.087229798
631.144944147
636.848206522
3645.74471509
3649.22260123
3645.14103899
638.312613157
635.231178897
638.184121449
634.871292616
3640.20000837
3641.9846792
3639.9529975
633.649799105
622.277472693
633.997179841
623.414311074
3635.05548447
3628.31386428
596.51244709
595.623170691
597.727145729
598.81856609
3619.66701359
3624.07107267
3623.50212839
592.43061719
600.514898478
597.531168294
602.101649529
3627.95415514
3626.39512054
3630.10595846
602.151400209
607.005658798
603.467501974
607.292007042
3635.91433072
3633.58514381
3636.71717641
608.248164075
612.285902147
608.511419302
612.337191804
3642.46957939
3639.88657746
3642.83658243
613.984846583
618.519238506
613.839216497
618.369912462
3647.7114003
3645.43824201
3647.77810692
620.010375976
624.588237375
619.964944876
624.236713136
3651.00519364
3649.67087092
3651.10558524
625.944762436
629.875589532
625.607518891
629.147303617
3651.49990188
3652.01988635
3651.68478451
631.219222305
636.874337816
630.544600482
636.403109845
3644.98401489
3649.40260065
3645.25091469
638.112583712
634.722042845
637.901977778
634.454409707
3639.63541948
3641.88412944
3639.53389088
634.05122834
623.768510414
633.692247068
624.143506322
3631.15335988
3634.81629317
3632.29796327
598.081135931
599.768244266
599.996851561
601.667990483
3627.41926834
3630.73037802
3630.12034468
598.368025629
602.671585682
601.532364722
603.798200502
3631.7859688
3630.97914568
3632.96654662
603.755618712
607.293228552
604.436036566
607.309531716
3637.53184808
3635.44818759
3638.25032755
608.542851165
612.2582981
608.261267492
612.013539937
3643.16428102
3640.91254047
3643.57817783
613.763092005
618.17364335
613.366176827
617.667238044
3647.89938563
3645.98773188
3648.14444361
619.726008664
623.903521552
619.024266352
622.814161249
3651.2007162
3649.86664545
3651.27751576
625.21365664
628.629268566
624.106807219
627.348460899
3652.00884946
3652.36300837
3652.40116009
630.006708177
636.182256447
628.616048851
634.880622524
3645.87244183
3650.55271406
3646.70035316
638.043746118
634.71842695
637.499137421
635.883909782
3639.4870927
3642.91495402
3639.61760409
633.67947812
623.739942671
633.902906903
622.201476131
600.654069276
602.190158865
3631.56458972
3632.26873723
601.910288588
604.085718357
604.646583547
3633.80254153
3632.87144621
3634.43652713
604.571059918
607.405334987
604.544739423
607.025756762
3638.73947021
3636.50730057
3638.98356774
608.110794789
611.894331212
607.948146718
611.713376211
3643.87643488
3641.43546164
3643.93454757
613.216372184
617.395522978
612.906398738
617.0503681
3648.30460918
3646.24676962
3648.44326145
618.74117553
622.550596519
618.414868787
622.288382412
3651.44937916
3650.24600283
3651.66512467
623.845721998
627.091805367
623.486767038
626.7838428
3652.57452614
3652.66105111
3652.493444
628.324780876
634.673409817
628.201273113
634.868180481
3646.93211652
3650.39864254
3646.36228827
637.491328084
635.991207675
636.956810972
633.450904448
3639.68345439
3642.53804579
3639.88426234
633.793199957
621.792120587
631.655263389
620.807907874
3639.29576709
3639.86982712
607.871934236
611.627314268
611.21852983
3644.04056546
3642.08912823
3644.48063367
612.757587034
616.933601235
612.43248758
616.443413521
3648.6023618
3646.79170979
3649.00995541
618.306185083
622.244764094
617.926985472
622.145846156
3651.98262077
3650.86337363
3652.25007114
623.395194799
626.835719251
623.455088548
627.537968239
3652.13518274
3652.88744434
3651.73370163
628.355570398
635.111283687
629.445301523
634.907193921
3645.39689984
3648.77030972
3644.59825509
636.595893706
632.237619752
634.952425308
629.909218917
3640.10622313
3641.63146644
3640.93968446
630.840428412
620.660930056
629.110257074
622.513428134
3652.57288425
627.748895898
3651.498068
629.692181488
634.812779234
3644.4153257
634.719793658
629.579659747
3641.38011108
628.696733401
621.854099138
-23.2522465957
-23.2380690316
-23.2308445587
-23.2452747868
5.34519816765
4.69420068311
-23.2607605466
-23.2750132288
-23.2821913667
-23.2708002487
6.50858845562
5.64132292892
6.23295214976
-23.2611675952
-23.2650836205
-23.2579850418
-23.263178603
7.59724967883
6.77125603471
7.54898146801
-23.2633029892
-23.2705305854
-23.2640099487
-23.2694064652
9.60989722548
8.77559562099
9.85423664959
-23.2951049863
-23.3031945479
-23.2817425799
-23.2924713275
11.9225550409
10.8659093478
12.2327131904
-23.280705761
-23.2635831007
-23.2848597631
-23.2742049381
15.1614851513
13.7138191174
15.1932971908
-23.2583460192
-23.249384819
-23.2648125248
-23.2550758579
18.860192764
16.7890394491
19.2587260824
-23.2394590708
-23.2294652979
-23.2496242957
-23.240460709
27.2236147388
23.5169761135
28.2200821444
-23.2067735357
-23.2117054563
-23.2121717015
-23.2245455741
31.3630395263
31.0115934162
31.3020918892
-23.3167652838
-23.3550322289
-23.334772761
-23.3673127367
0.633423976114
-0.537234789675
0.515447239181
-23.2470715549
-23.2585037463
-23.2586232128
-23.2546880576
3.90348559883
1.90188054211
3.13198512584
-23.2660621483
-23.2609388719
-23.2614705173
-23.2557827591
5.92146617272
4.35644086579
5.12360758478
-23.2600240168
-23.2665860991
-23.2606036622
-23.2670866311
7.2516314853
5.7341055814
6.77445785389
-23.2647947047
-23.2704467947
-23.2687986809
-23.2808384877
9.75105600859
7.90370696631
9.30093226194
-23.2837485653
-23.2913869644
-23.2858527508
-23.2913598558
12.322430256
10.7197467246
12.1229966299
-23.2899003421
-23.280452308
-23.2880349475
-23.2815175954
15.1146671035
13.4946406176
14.7484117381
-23.2727767433
-23.2634946226
-23.2761440428
-23.2702387318
19.2842730161
16.2598215326
18.9563100319
-23.2577560886
-23.2513715367
-23.2635196516
-23.2563164095
28.3649854549
23.2326922811
27.9270343086
-23.2368513934
-23.249801636
-23.2419129805
-23.2488194475
31.2677259636
30.8204284958
31.1618316028
-23.3501863604
-23.3741875493
-23.3419311116
-23.3691077647
0.435972723622
-0.571823121993
0.14471581539
-23.2571235672
-23.2498309834
-23.2400780944
-23.2312638953
2.45432101076
1.04960755806
2.04608817675
-23.2472123222
-23.250999508
-23.2402791874
-23.2480832324
4.31798566043
2.88359984765
3.75091796716
-23.2585156416
-23.2686105609
-23.2568983206
-23.2794237685
6.11245889206
4.49531934107
5.37697563045
-23.2824325542
-23.2964064445
-23.3051581768
-23.3175238769
8.67334231733
6.60942412454
7.97434792907
-23.2986691862
-23.2953492514
-23.3028467195
-23.2804691342
11.5119988192
9.27757147266
10.6043363422
-23.2843862791
-23.2769243944
-23.2687804579
-23.2653509806
14.0726489586
11.9591621718
13.1950660923
-23.2749021453
-23.2704093464
-23.2686270278
-23.2685934546
18.0583163645
14.6065007221
17.0653398537
-23.262585935
-23.243739899
-23.2574216507
-23.2317963267
27.1262726042
21.3980394102
26.2470028528
-23.2048131752
-23.202998366
-23.2007902274
-23.1968591303
30.7576840608
29.2942582775
30.080810936
-23.2963546327
-23.32832901
-23.2802390868
-23.3141918544
2.04562172017
2.54035121294
-23.2348329124
-23.2615229636
-23.2701683924
3.68367534243
3.33697543981
3.76484718124
-23.2692325012
-23.2969533791
-23.2754781721
-23.2912269909
5.22507148817
4.52185892182
5.45390180783
-23.3042652864
-23.2987824853
-23.2877365997
-23.2821696521
7.72906581965
6.51484824334
7.62941678519
-23.2848191312
-23.2732695062
-23.2805199719
-23.2791834267
10.1717746656
8.74747233497
9.8428353008
-23.2684130255
-23.2656437321
-23.2791453413
-23.2766006053
12.6717330693
11.0075304582
12.1624226816
-23.2677212992
-23.268666303
-23.2751670843
-23.2706075442
16.3796572795
13.6828662192
16.3433112942
-23.2629643287
-23.2370106246
-23.259974885
-23.2381360243
25.6453401737
20.8238497561
25.3957962474
-23.205830664
-23.2038844307
-23.2153516489
-23.2142296925
29.37603327
28.0315794842
28.7045257451
-23.2766398721
-23.3037584195
-23.2874925681
-23.3154385686
5.29277631462
4.50655783394
-23.2787840191
-23.2784690048
-23.2785351255
-23.2812599106
7.40993718762
5.57054781373
6.64955186522
-23.2856699722
-23.2930949233
-23.2925216443
-23.3039631779
9.61340294478
7.87076844993
9.16618933278
-23.2955636341
-23.2912317311
-23.3062384186
-23.2989000026
11.8818444569
10.3779508742
11.7669974287
-23.2815719674
-23.2666829856
-23.2866272544
-23.2714740261
16.9981289641
14.0279149584
17.977721082
-23.2501614123
-23.2450334148
-23.2432638755
-23.2403885009
25.3073456387
21.9218526899
25.0747489648
-23.2440362981
-23.2559593998
-23.2538375827
-23.2692164934
28.0000935189
26.6349499303
26.9137643311
-23.3223583527
-23.3442553566
-23.3401256658
-23.3618666149
11.9917463364
-23.2447942463
18.4699314539
-23.2249699524
-23.2356776351
-23.2197200018
-23.2372199905
24.5159855653
-23.2614890001
-23.2841181985
-23.2724450408
-23.2926964597
25.6447636379
-23.358777448
-23.3706734632
-23.3610977711
-23.3693343381
1778.22416955
1779.97225748
599.04851528
600.785576418
1781.01363909
596.99715085
1778.31630975
1779.23459862
1782.90509601
600.662855109
600.007988155
1781.84089557
1781.7764685
597.150251467
1784.80030686
1782.04996793
603.292924637
602.432959139
1783.09117219
603.444780495
1784.48433201
1787.19676376
1789.69868571
604.862011536
606.09955632
1789.79287612
604.726514424
1787.03264745
1785.64517709
1784.66263462
602.539392514
603.740081636
1783.90813813
1786.73554452
603.619109321
1787.92591073
1791.22291348
606.425763721
605.33011986
1790.40172534
1788.98491186
604.987586261
1794.71738153
1792.1192056
609.175498017
607.558623651
1792.22646861
609.247197005
1794.75454573
1796.84742834
1799.20212673
610.672850585
612.207546192
1799.00646927
610.736464778
1796.95370725
1795.0981593
1793.36902094
607.814246181
609.473020774
1792.71581031
1795.53696782
609.394424662
1797.25892863
1799.5805538
612.337148012
610.77212791
1799.34100141
1797.51238364
610.868443348
1802.86032037
1801.15757518
615.47082229
613.911835728
1800.94607326
615.435432199
1802.90552187
1804.66878295
1806.59564768
616.608288554
618.229769706
1806.55621198
616.752492677
1804.68824019
1803.1150438
1801.47008468
613.935346999
615.441792805
1801.21895724
1803.29045048
615.487931801
1804.83741581
1806.69700042
618.383535081
616.870646904
1806.6344355
1804.95333874
616.940711782
1810.03534948
1808.36850468
620.875390407
619.757675914
1808.35234753
621.157657563
1809.93891193
1811.54447654
1812.88757998
622.291935906
624.047845462
1812.8298883
622.581420462
1811.43636023
1810.10906641
1808.3815129
619.887803181
621.396054079
1808.37417902
1810.1234412
621.290289907
1811.58939331
1813.06320403
624.282715506
623.058916298
1812.90572736
1811.70980621
622.737044122
1815.06561763
1813.98328921
626.775082192
625.645428931
1814.00306868
626.982010943
1814.89730848
1815.99828582
1816.6420015
628.01781892
629.557491241
1816.79881936
628.303327316
1815.81609485
1815.22885664
1814.24958003
625.785306994
627.272027218
1814.14083974
1815.30057688
627.152442494
1816.17044876
1817.14848302
629.710700995
628.601818784
1816.93843943
1816.28826825
628.480036164
1818.2629181
1817.45592679
631.93663345
630.806869093
1817.59684751
632.379444644
1818.02827671
1818.89966662
1819.01829108
633.9076159
636.497440757
1818.89229994
634.424396825
1818.80140345
1818.46187998
1817.94866561
631.046289599
632.874393184
1817.7639324
1818.54543959
632.729238563
1819.03268964
1818.62562017
636.794107671
634.987332758
1818.73389611
1819.10987366
634.910330314
1814.0791528
1817.79767067
638.784400472
638.367391714
1817.35852673
638.619554478
1814.72579252
1809.28649226
1804.81935228
637.182815312
634.976743752
1804.4234881
637.090713468
1809.9058991
1813.24573878
1816.44220315
638.213467708
637.755283213
1816.81391169
1812.62634009
638.216668729
1808.4749969
1803.32383539
634.711988073
635.863914773
1803.8929464
1807.75389846
636.655857767
1798.68691711
1801.16700445
634.257341155
633.372726033
1801.00074022
634.490396653
1798.58980345
1796.87698832
1798.32846479
636.948117973
622.758518206
637.153168147
1798.67116312
1796.49544727
1798.95808645
1800.75106275
633.513624218
634.893769702
1800.85409379
1799.63551968
634.651738109
1797.50812316
1798.59471241
623.017617499
637.248094353
1798.43505938
636.827168254
1798.75323527
1793.23916211
1796.83441709
601.448340911
607.639668786
1793.18709239
598.478005086
1800.06185888
1787.59245362
1783.56128918
603.682668841
598.89535075
1789.30807329
1785.70432748
593.345416444
1793.5964745
1795.88548357
607.078665922
602.631659251
1794.68400134
599.296072616
1799.07641515
1788.85302165
1789.73102
599.591916178
603.838817067
1787.76189291
1792.72771432
594.498470404
1783.62390298
1781.43337378
597.581889477
600.995549166
1781.53904814
1785.33848579
597.626493344
1784.04260518
1784.0837142
600.452490417
601.512913527
1783.17836496
1785.72596434
598.522565069
1785.79162474
1788.22798239
601.897187615
600.610251489
1787.50069291
1787.95392002
598.910729815
1785.90718003
1788.87625402
602.006812562
602.119416826
1787.33585096
1788.52227744
599.345416398
1789.01500565
1785.71125878
604.159309008
603.359495895
1787.81196562
1787.51431678
604.472773965
1790.85703244
1792.09880427
605.653130078
607.102791715
1789.91430964
1792.94246969
605.863744676
1790.25350844
1790.02145886
603.766443636
604.911707497
1788.94241559
1791.58940668
604.735517287
1791.93024927
1794.65961519
607.17492018
606.050649216
1793.86267945
1793.11519868
605.938228927
1796.69652194
1794.09898858
609.496191625
608.151925715
1796.10689971
1794.79407733
609.644414495
1798.54564317
1799.88349902
610.75974749
612.33710251
1797.96909773
1800.26077024
611.15490977
1797.32705559
1796.2999283
608.230294318
609.551183429
1795.59247624
1797.9419879
609.587434814
1799.05851017
1801.06202585
612.321049957
610.868740774
1800.68892151
1799.5005087
611.152046705
1803.75876101
1801.723164
615.408182402
613.737378101
1803.50130162
1801.96206714
615.40932496
1805.51694133
1806.91837902
616.926550837
618.544587177
1805.21441796
1807.12513178
617.092198991
1804.08606131
1802.72910889
613.618630988
615.179341671
1802.31093757
1804.40811979
615.276783384
1805.81531756
1807.58733345
618.474722282
616.751171413
1807.37458287
1806.02524853
617.004501364
1810.34264031
1808.55586988
621.554290146
620.041541069
1810.20750961
1808.70942997
621.655060078
1811.79633553
1813.14883453
623.176086531
624.523461413
1811.79391945
1813.0977269
623.088531548
1810.41849443
1809.07520947
619.975385412
621.375219664
1808.86670739
1810.50436492
621.541766041
1811.84766644
1813.16445927
624.430366956
622.778920031
1813.12310505
1811.87059634
623.007942394
1815.43238373
1814.31304993
627.321502711
625.97760283
1815.37728396
1814.32710345
627.276005239
1816.39560157
1817.29188302
628.615779501
629.78377014
1816.38421594
1817.23628667
628.503693092
1815.37559965
1814.27815966
625.812758669
626.768673954
1814.29699625
1815.25470604
627.073061908
1816.33486724
1817.09641897
629.496440854
627.903214587
1817.18014954
1816.2065784
628.259891584
1818.71433845
1818.06801268
632.977425713
631.23828269
1818.62614892
1818.05754694
633.061157995
1819.21240208
1818.56982677
635.075295578
636.836811306
1819.15727251
1818.53366415
635.084382897
1818.76764275
1817.9758533
630.892123456
632.267497438
1818.02436143
1818.88942419
632.742833212
1819.28532236
1818.92862171
636.707499997
634.343907583
1818.65291083
1819.37946189
634.875256872
1812.18011638
1816.23102283
637.513074809
637.677125717
1812.27937004
1816.11613611
637.435286955
1807.38096785
1803.1618482
635.640560357
634.324014989
1807.40601493
1803.28003907
635.812780561
1812.39705515
1816.87517772
637.702807911
637.564460404
1816.3064874
1813.07748422
637.477300357
1807.61279372
1803.75892308
634.197586822
635.680970476
1803.41025784
1808.25299401
635.771225874
1800.15607868
1800.82553468
635.262227179
633.843683841
1800.09110568
1801.17392552
635.4001018
1799.23175591
1799.13844856
637.781283831
623.842145248
1799.16306286
637.985532097
1799.59504956
1800.19076003
1801.17376647
633.543367531
634.915225641
1801.19946703
1800.34375605
635.203025473
1799.24784159
1799.70939809
624.07548915
637.45126724
1799.500847
637.824980251
1799.74310219
1795.65958448
1795.81905102
602.666033983
605.452517074
1795.26502929
600.702614504
1798.41285402
1793.91736649
1791.34169194
604.175851567
601.7341173
1794.00757404
1792.70793091
598.620161091
1796.22675512
1797.92167665
605.261580255
603.093494331
1796.63265415
601.081632383
1798.60680471
1794.74021613
1794.48505965
602.082258905
603.781451063
1793.76014013
1795.88965708
599.316334208
1791.38587099
1790.13641845
601.211597087
602.654398814
1789.80845296
1792.31137842
601.282695709
1791.36684703
1790.467072
602.704921242
603.451343273
1790.27086874
1791.99430239
602.147382831
1792.68608078
1793.76058414
603.126302938
603.068873099
1793.50211687
1793.75439273
602.03290382
1792.58960456
1793.86211588
603.745810915
603.793806162
1793.09271186
1793.86878991
602.694673809
1793.67881873
1791.35078486
605.053012804
604.311596937
1792.75545031
1792.77182641
605.226072993
1794.85986383
1795.47023426
606.124343961
607.280327345
1794.07454353
1796.26108306
606.289767923
1794.50326096
1794.29758667
604.486902175
605.465587378
1793.77451466
1795.1874333
605.298450577
1795.55045812
1797.1398431
607.339367719
606.517373417
1796.8231003
1796.1794185
606.355797085
1798.97682163
1796.98673817
609.532454983
608.400157674
1798.5130638
1797.59772729
609.625621774
1800.52666658
1801.4975569
610.794308116
612.20387788
1800.00563369
1802.02486543
611.00937291
1799.43761727