/*--------------------------------*- C++ -*----------------------------------*\
| =========                 |                                                 |
| \\      /  F ield         | OpenFOAM: The Open Source CFD Toolbox           |
|  \\    /   O peration     | Version:  v1906                                 |
|   \\  /    A nd           | Web:      www.OpenFOAM.com                      |
|    \\/     M anipulation  |                                                 |
\*---------------------------------------------------------------------------*/
FoamFile
{
    version     2.0;
    format      ascii;
    class       volVectorField;
    location    "7.35";
    object      U;
}
// * * * * * * * * * * * * * * * * * * * * * * * * * * * * * * * * * * * * * //

dimensions      [0 1 -1 0 0 0 0];


internalField   nonuniform List<vector> 
28582
(
(0.814299505767 0.00298259255994 -0.000691903817215)
(0.815761453147 0.00122025648784 -0.000410714912575)
(0.815032032869 0.00324627586636 -0.00133340940823)
(0.816085297628 0.00154679402581 -0.00028565941212)
(0.816758620455 0.00390845084941 -0.00340555847159)
(0.817169434897 0.00238164682816 -0.000848786610974)
(0.818169180275 0.00545681438206 -0.00765462337642)
(0.821105749947 0.00417400189964 8.34613362887e-05)
(-0.136897642463 -0.0141659339039 -0.0136788041953)
(-0.20455987219 -0.0132356618629 0.0088133194805)
(-0.401838844811 -0.234008571468 0.720910483755)
(0.82107153703 0.00469172689841 -0.00300760374465)
(0.782919489336 0.000421357432638 -0.0125594518448)
(0.781009634632 0.00118205044079 -0.00646574080635)
(0.818962318035 0.00281782175943 0.0018444153919)
(0.817195912845 0.00343273989106 0.00386411331101)
(0.781082555553 0.000762615961866 -0.00419359154223)
(0.815972763805 0.00401485215873 0.0056809494529)
(0.81471805574 0.005120164262 0.00689958678349)
(0.813191509257 0.00568188342913 -0.00109198024489)
(0.816150731429 -0.000966956425619 -0.000372985892123)
(0.814991219452 -0.00186568254013 -0.000512198878908)
(0.813347582969 0.00562008847676 -0.00253481296991)
(0.816155812463 -0.000752446972968 0.00015075512251)
(0.814921113389 -0.00181988062827 -0.000132493004506)
(0.813923910944 0.00586408475818 -0.0059438169363)
(0.816167940841 -0.000257178572451 1.2633486175e-05)
(0.812608020279 0.00558092217354 -0.00851491721692)
(0.817313712684 0.00149225667033 0.000498634093872)
(-0.152723403195 0.0109842730544 0.000507458982185)
(0.383222765058 0.400543922393 0.309634395443)
(-0.349876169309 -0.258498007491 -0.456520093706)
(0.817782531649 0.00421854211622 -0.010229919379)
(0.816869650236 0.00474773853707 -0.0104234418016)
(0.782268101894 0.00788265490583 -0.00934338480811)
(0.783947392792 0.00732521514212 -0.0105879001619)
(0.814126310309 0.00510169282525 -0.0155677878568)
(0.814081319659 -0.000453744756346 -0.000246084800391)
(0.815770541316 0.00255533198238 0.00197189802195)
(0.812356754855 0.000568804485675 0.000461623618919)
(0.81434596652 0.00328879778876 0.00420909903473)
(0.777516379267 -0.00129287406782 -0.000605331171759)
(0.813147120306 0.00446316504151 0.00517881900496)
(0.80838735712 0.00289604327808 0.00314235485854)
(-0.201970361099 -0.0496343655599 -0.000654858165281)
(-0.145944218518 -0.0461083167758 0.0122912642664)
(-0.147599297898 -0.0536712843412 -0.165132015301)
(-0.184856743082 0.0589151430078 -0.0736680392254)
(-0.238304460426 -0.0420934988793 0.0085920519417)
(-0.0601241920116 0.0910919755554 -0.0258906432896)
(0.819376482688 0.00630275791253 -0.0151745031897)
(0.822527376812 0.00757627653966 -0.0131557068524)
(0.782635855947 0.000696338018983 -0.0116703987882)
(0.782476277219 0.00101394926007 -0.0127698871062)
(0.819693866115 0.00723259096429 -0.0153962894021)
(0.781683985863 0.00133952854686 -0.0113389450337)
(0.822352116649 0.00659764082544 -0.0136978551035)
(0.822493893116 0.00759379265642 -0.0105787380354)
(0.823613938233 0.00638115466398 -0.00610312662917)
(0.782409558276 0.00114387061818 -0.00992602736039)
(0.779963494701 0.00220609349435 -0.00557914318751)
(0.823068472755 0.00700519338347 -0.00497448024126)
(0.781463571951 0.00195054316592 -0.00945518538943)
(0.822758525707 0.00673355268811 -0.0110786124921)
(0.820640299402 0.00596416970931 0.00299131243325)
(0.822573097815 0.00588905786082 -0.0038379808629)
(0.779435073754 0.000217599759637 -0.000842771747714)
(0.779607257692 0.00164344827268 -0.00237477719843)
(0.822142282174 0.00636214280895 -0.00253761434325)
(0.777915775919 0.00103528972846 0.00103635608867)
(0.821356528846 0.00542148935475 0.00142271330841)
(0.817159565513 0.0036909331595 0.00464006607078)
(0.7775702201 -0.00152723796 0.00271731205002)
(0.776379053831 -0.000102104816256 0.00389250552421)
(0.818826716549 0.00527972329236 0.00340415393739)
(0.77824717776 -0.000861026539472 0.0016683000195)
(0.77687629892 0.000342918435509 0.00286975722955)
(0.819871354013 0.00474191673276 0.00220323968676)
(0.813868003119 0.00560879531714 0.00895993855302)
(0.775799773688 0.000486497652686 0.00345701966178)
(0.774810448471 0.00138334522812 0.0067422853387)
(0.817941125865 0.00630081741722 0.00510094016431)
(0.774947562234 0.00207787550325 0.00593551497469)
(0.817137473832 0.00660072720686 0.00691142863699)
(0.776081721057 0.000871558874184 0.00318835359525)
(-0.0746416759308 0.0562085162639 -0.0181834528269)
(0.0628871554607 0.165052120556 0.194861779424)
(0.0383216633549 0.0724752990015 -0.0143543658737)
(-0.106424143306 0.0729946525972 -0.0161512722414)
(0.0813535166725 0.152597181265 0.207734830457)
(-0.0288654230025 0.198286614862 0.172150221427)
(-0.0613036928133 -0.0610628640704 0.00680862851664)
(-0.183497781195 -0.0246813663483 -0.0247460887454)
(-0.205041645946 -0.0469936193262 0.0359171092653)
(0.0182632551553 -0.0772892703125 0.00615620552251)
(-0.112717668819 -0.0507867429417 0.0313926101318)
(-0.104787491715 0.00229671646028 -0.00215000547649)
(-0.0681166371096 -0.0695886762545 0.0654058200883)
(0.812405061117 0.00480597740122 -0.0159248853082)
(0.810493202556 0.00566054550597 -0.0129966938109)
(0.782458637882 0.00796609862713 -0.0102553463503)
(0.781641356332 0.00498891948167 -0.00972804930301)
(0.81322123772 0.0050105260416 -0.0153429918137)
(0.809778785266 0.00547546398443 -0.0132610818148)
(0.781765323681 0.00519970025727 -0.010882485096)
(0.814969029851 0.00423234126843 -0.0147665650068)
(0.81886227074 0.00373335256419 -0.015045184719)
(0.783202628298 0.00757919083751 -0.0104027349172)
(0.783211452234 0.00518384481682 -0.0113021578638)
(0.815626003549 0.00440828776743 -0.0140852192903)
(0.818147103619 0.00375490153094 -0.0160017356483)
(0.782675182833 0.00515531408771 -0.0111364951769)
(0.78250263272 0.000979595202894 -0.0121303265052)
(0.782619767023 0.00141285709066 -0.0129457930322)
(0.817785164464 0.0051364286938 -0.017337978877)
(0.814512270634 0.00465313140562 -0.0151306693783)
(0.783160784827 0.00274291578752 -0.0121215189952)
(0.817941604319 0.00427150293262 -0.0166109631603)
(0.782731477721 0.00251165579758 -0.0116528104502)
(0.815335435599 0.00290175846739 0.00325513223096)
(0.776880698896 -0.00211935828336 0.00227481846643)
(0.776195623035 -0.000213934992276 0.00352199278869)
(0.812151614502 0.00213936482405 0.00370237781536)
(0.776841864959 -0.00227599945539 0.00163343088446)
(0.813258014573 0.00166542038601 0.00300649375528)
(0.776321098253 -0.00010213071941 0.00262000046154)
(0.810856996961 0.000803363882943 0.0020530002817)
(0.811088407784 -0.000431816258842 -0.000219536005005)
(0.777050644674 -0.00185704255795 0.00102745894029)
(0.77693093355 0.000530446297089 -0.000169719138789)
(0.811921889584 0.000516327657909 0.00161953296387)
(0.810060269523 -0.00028400054232 -8.12533469709e-05)
(0.776565164114 0.000115102571956 0.00174466205968)
(0.809541818882 0.00409980298062 0.00618331271613)
(0.812116297515 0.00511185839875 0.00728803780665)
(0.775876879148 0.000330840745172 0.00289985501546)
(0.775029084494 0.00106993586266 0.00631270510012)
(0.775525959777 0.000704756147591 0.00508272604972)
(0.810833845014 0.00341507356294 0.0039874022342)
(0.776206238501 0.000434387958063 0.00135689552247)
(0.775809424404 -8.07658999758e-05 0.00256913932253)
(0.77594252815 -0.000920353681807 -0.000233274421292)
(0.80781270467 0.00228300907252 0.000370654855576)
(0.809565976023 0.00194434231308 0.00183647958802)
(0.776630464295 0.000271394649776 -0.00220005498099)
(0.80874409801 0.000847022380042 -0.000405799599622)
(0.776520620965 0.000235322462021 0.00011630242799)
(0.814972939508 -0.00194598038123 -0.0014612362509)
(0.813613415374 -0.00204682024454 -0.00276482173642)
(-0.0889768520144 -0.0038134362747 -0.00942890560417)
(-0.0620098129269 -0.168627535698 -0.442484318874)
(0.818771829516 0.00454444207445 -0.00803949956569)
(0.78284077536 0.00170878383072 -0.0128026395486)
(0.812166848742 -0.000627121139676 -0.00231415254608)
(0.812911773921 -0.00169129501761 -0.00349997459671)
(0.777362963536 -0.0009941454787 -0.00185841304659)
(0.775233876853 -0.00218556838931 -0.0017064617926)
(0.772659299357 -0.00589079376286 -0.00670044218949)
(0.81457017089 -0.00255723898971 -0.00346841919558)
(0.815771315538 -0.00378928027082 -0.00302050900791)
(0.771632859971 -0.00749840008784 -0.0069668059772)
(0.770556327394 -0.00889169232349 -0.00384758580612)
(-0.150495018808 0.0134459022405 -0.01361818309)
(0.0151310925425 -0.089269586707 -0.000583341176293)
(0.0221235191223 -0.0838269686593 -0.00556917219095)
(0.00281880526656 -0.0440923101785 0.126344132193)
(-0.0428163159291 -0.00790798321223 0.121308013871)
(-0.0226679866164 -0.00558431054695 0.147662559217)
(-0.0135404096492 -0.0602187402874 -0.00852011544249)
(-0.0621761105918 -0.0300388743307 -0.00503373825392)
(0.822154158852 0.00412620569213 -0.0140553263281)
(0.8191839224 0.00507428627349 -0.0156894702582)
(0.78350326264 0.00262283884915 -0.0118358149746)
(0.782777353421 0.00191843952062 -0.0121078061622)
(0.819375976576 0.00402157231905 -0.0146296906405)
(0.783488043553 0.0026517966971 -0.0112635952758)
(0.822199032142 0.00531450139171 -0.0146835445875)
(0.809856725043 -0.00237641059846 -0.00523274626096)
(0.810478708027 -0.00144742659639 -0.00179523457967)
(0.777410118049 -0.000921957467048 -0.00395560835137)
(0.776401454168 0.000375216984744 -0.00125699936604)
(0.810866797634 -0.0021728663068 -0.00496327896146)
(0.809420060602 -0.00150284243254 -0.0017055518953)
(0.776199693952 -7.40365643041e-05 -0.00375798845553)
(0.808766888031 -0.00120132905867 -0.00620323243896)
(0.807382967927 0.00124300906223 -0.00179298065522)
(0.775873643525 -7.22499783841e-05 -0.00344899184184)
(0.774666642786 -0.00327126456421 -0.00476626700302)
(0.808204533047 -0.000376654300087 -0.00236610560375)
(0.775099119726 -0.000802113067596 -0.00632074226519)
(0.808082425906 0.000592365149954 -0.00569772709526)
(0.810134336175 -0.0020495011482 -0.00685495919851)
(0.811137032221 -0.00121962299692 -0.00873370575315)
(0.773504028035 -0.00332309891946 -0.00765506327415)
(0.773584698586 -0.00469086662056 -0.00572396093731)
(0.811821042346 -0.00281246180658 -0.00883201289405)
(0.774263727419 -0.00211440264042 -0.00689137194959)
(0.809527301249 -0.000237446154531 -0.00656195164541)
(0.814708200931 -0.0041713956566 -0.00808376817823)
(0.812313784782 -0.00178070112161 -0.00812506113467)
(0.772247236934 -0.00507660717621 -0.00734361198472)
(0.770753215327 -0.00835387268579 -0.00633786815222)
(0.813024005049 -0.003278639729 -0.00821774540011)
(0.771237336639 -0.0062274939252 -0.00653644444616)
(0.814263096285 -0.003053917095 -0.00804036167116)
(0.815571563619 -0.0044605239145 -0.00654410639563)
(0.815511581387 -0.00391787423352 -0.00509544047431)
(0.770732228633 -0.00749809140336 -0.0038272993188)
(0.770481119836 -0.00890208990099 -0.00547742858558)
(0.816018992316 -0.00476381294502 -0.00485964091707)
(0.770805278731 -0.00720004499079 -0.00564089500489)
(0.81501459682 -0.00346599913059 -0.00661345350666)
(0.79108752343 0.0119431264764 0.00124298716605)
(0.797484742282 0.0128577322826 -3.81770111057e-05)
(0.800508278225 0.017913851185 -0.00015277657295)
(0.801983200176 0.0105555032212 -0.00075945771924)
(0.250172401569 0.0230785317877 0.00486786751664)
(0.360420301926 -0.0263409845821 0.00141719149836)
(0.293068038569 0.0159509830278 0.00297591669996)
(0.46058837652 0.0373367012625 -1.27288088082e-05)
(0.436204079196 0.106094842777 0.000272450137423)
(0.288205791395 -0.00472286752216 -0.33976598606)
(0.37412707405 -0.0469002800427 0.486688711423)
(0.190402396607 -0.00407449558081 -0.315237199796)
(0.381730551329 -0.11253681346 0.124068886242)
(0.1526244549 -0.00588657345263 -0.300127074882)
(0.411993283175 -0.0686365561382 -0.108839498966)
(0.787354768983 0.00255149310053 0.000378466182929)
(0.788835215519 0.00548294429256 0.000645817554918)
(0.785028278274 -0.00116860983284 -0.00124065101815)
(0.785986550555 0.00361746803176 -0.00126345887509)
(0.787210270261 0.00804500508999 0.00278552072304)
(0.784361721663 0.00462798165742 -3.60183975639e-06)
(0.790591027531 0.00853840339512 0.00106097234347)
(0.793820225468 0.0102313077162 0.000986619733529)
(0.786830408807 0.00416842231528 -0.00226635241076)
(0.788490576743 0.00543267400183 0.00012905120611)
(0.790614705531 0.0154150041365 0.00386932179792)
(0.794605804132 0.0132960675007 0.000634641776916)
(0.795220820863 0.0173029080767 0.00185491257124)
(0.785663582023 0.0051921696902 -0.0017609081972)
(0.780641497418 0.00967785096466 -0.00167922302681)
(0.787989521542 0.0050366159809 0.000263077610073)
(0.785039445979 0.0058577948583 0.000762066907088)
(0.797484452321 0.0210033290253 0.0018371144528)
(0.799755187846 0.0255372492807 0.00307208559639)
(0.779712891241 0.0112394799942 -0.0016672923435)
(0.781906750649 0.0148445340353 -0.00214071682264)
(0.783990409164 0.00671485921158 0.00124383022458)
(0.78446551905 0.00927995600399 0.00137594705179)
(0.798335814078 0.0154799896319 0.000670636041441)
(0.800062129689 0.0124509172181 0.000343753787963)
(0.787656398601 0.00462772249556 0.00100928137843)
(0.785717488626 0.00557006377728 0.0019617039717)
(0.787400735699 0.00828674384607 0.00341230910921)
(0.802238312845 0.0199972974027 0.000386264459071)
(0.801581684659 0.0139589411447 -8.23747538253e-05)
(0.803218388587 0.0146337710165 0.000302470264105)
(0.784910896146 0.00644841725105 0.00258992056981)
(0.785283740877 0.00912723448408 0.00407141093608)
(0.78693392017 0.00880784896627 0.00341456292805)
(0.786201516622 0.0105455260195 0.0039472979832)
(0.78738050419 0.0103208837571 0.00305278241011)
(0.786528288691 0.011715692919 0.00377347347201)
(0.248531865813 -0.0581438920074 0.000512014375115)
(0.24247196723 -0.00751142744983 0.000596884006944)
(0.284158084038 -0.0119004285476 0.0040775067521)
(0.218004434776 -0.0451001126636 -0.176820735425)
(0.337055458852 -0.014502008426 -0.218238674056)
(0.237158543109 -0.0427302003778 -0.188157876806)
(0.359511124489 -0.0248207597531 -0.183411070274)
(0.327730799259 0.0331106274601 -0.132544203609)
(0.199848653309 0.0524204517822 -0.0465024090412)
(0.353750196328 -0.0229915104289 -0.0947749465224)
(0.263226786255 -0.0125794862344 -0.0645279151166)
(0.197946182521 0.0176539771687 -7.45344635757e-05)
(0.180936921259 -0.0037050337777 0.000419221039604)
(0.326904092415 0.0122996091644 0.00514676976135)
(0.266074219054 0.00767507380803 0.00521551132454)
(0.368547874202 0.0103939089762 0.00653903457222)
(0.221788022966 -0.0456236161695 -0.121502392302)
(0.336410011418 -0.0416416020101 -0.123540191363)
(0.20759574872 -0.0279280429125 -0.151854351667)
(0.329961554186 -0.0241416730932 -0.181032050423)
(0.390800641214 -0.036815819194 -0.00426091744886)
(0.443992146105 -0.00302929049798 0.00526223335786)
(0.508769628496 -0.01980558703 -0.000491551814346)
(0.354513544156 -0.0545235682108 -0.0625508551583)
(0.311798225604 -0.050579674691 -0.0292551981596)
(0.348219836694 -0.0427660542706 -0.191420260357)
(0.320312090877 -0.055243006806 -0.0944865383979)
(0.37990351576 0.0338617894845 0.00221263217082)
(0.374621014112 0.0565687945654 0.00151316852222)
(0.199541058492 -0.0294316804951 -0.163412146354)
(0.291089692247 -0.0307530934847 -0.182702792509)
(0.287116455502 -0.0112974648987 -0.18661994569)
(0.522923355254 0.030729046661 -0.00287639828418)
(0.453769350122 0.0716224908862 0.000194382753887)
(0.517241618361 0.0676248978964 -0.00247631028208)
(0.35992252761 -0.0453916826371 -0.187398872442)
(0.360582910002 -0.0418749011148 -0.18368846596)
(0.365765204638 -0.0170848816 -0.189969401534)
(0.376290953297 -0.0132366814372 -0.168403400462)
(0.793114862564 0.00280892331488 -0.000560930937336)
(0.792158279224 0.00198935962217 0.000196347359654)
(0.786588907003 -0.00116130433876 -0.00117350375634)
(0.78502055996 0.000834734555836 -0.00132572338832)
(0.792636447508 0.00379898308319 0.00011117488216)
(0.78671841383 0.000813221059234 -0.00130814590148)
(0.792663982251 0.00166063454218 -0.000533510800712)
(0.793783073046 0.00409496146741 -0.000378541408083)
(0.794190707336 0.00656928183487 0.000210503538707)
(0.78543314728 0.00188609523524 -0.00125523626907)
(0.787140330956 0.00335085834794 -0.00138190866798)
(0.793183953761 0.00538912544885 0.000151613629065)
(0.794408807525 0.00571401506071 -0.000486371098742)
(0.787007302555 0.0015968680136 -0.00123817012349)
(0.79205338775 0.00715310011236 0.00264840936468)
(0.793648186159 0.00750136363998 0.000844643563834)
(0.783603408515 0.00272644741835 -0.000381695600529)
(0.782356311573 0.00546049989689 0.00117670623827)
(0.79246738778 0.00581521619402 0.00135457678963)
(0.793162038968 0.00862731660747 0.00310310862976)
(0.781518059438 0.00335401129003 0.00108978639865)
(0.79599607995 0.00835565212774 -0.000767913118958)
(0.794991864062 0.00807774535934 -0.000784643389098)
(0.787676704104 0.00372540590435 -0.00166226705734)
(0.787793963803 0.00507515024522 -0.00170348136194)
(0.79510058662 0.00708573711474 -0.00107191087189)
(0.796030903287 0.00942115429257 -0.000507821455811)
(0.788278416869 0.00478953507294 -0.00111734309386)
(0.797297024757 0.00950074438143 -0.00059342433416)
(0.798655828048 0.0113814596959 0.00073318195944)
(0.788083266678 0.00480181062919 -0.000948982988861)
(0.788607047288 0.00535379482087 9.43026428687e-05)
(0.797353578124 0.0108299327229 -0.000290494391714)
(0.798478855644 0.0100308072972 -1.66968622175e-05)
(0.788480339748 0.00455085620503 -0.000593502959042)
(0.795635083258 0.0121664630798 -0.000487824647085)
(0.79466349849 0.00913611682224 -0.000986915371196)
(0.783761039292 0.00618240099098 -0.00167877515928)
(0.786313782429 0.00530559117781 -0.00223531680066)
(0.794268242766 0.0101711947453 0.000177268413969)
(0.795576658852 0.0109297701975 -0.00126437649786)
(0.7848667158 0.00605952364476 -0.00244751466351)
(0.795281769967 0.0138597067633 -0.000952427221185)
(0.792884667108 0.0136204170002 0.00019457764679)
(0.781943998879 0.00797504642499 -0.00103421585122)
(0.782254791181 0.00836379618162 -0.00102908927989)
(0.793464674905 0.0115622786139 -0.000304518250331)
(0.795333139028 0.0158469521654 0.000228413114169)
(0.7834522224 0.00710344030704 -0.00154952128498)
(0.797259696761 0.0137484508761 -0.000535712578397)
(0.798603231705 0.0128486372187 0.000204335305645)
(0.787216497711 0.0048134778939 -0.00132988078031)
(0.786916500196 0.00520625837592 0.000410783275306)
(0.797190975072 0.0123512013599 -0.0012701529165)
(0.798665128245 0.0142107756545 0.00104563532421)
(0.78604404563 0.00569221307051 -0.00136674083212)
(0.797151088171 0.0154020597125 -0.00119594020048)
(0.799044401613 0.0174824918043 0.00102624099692)
(0.783666134241 0.00763540854561 -0.000990540993244)
(0.785819535465 0.00533561241654 0.000354571848018)
(0.797156763354 0.0172082532886 -0.000508535490088)
(0.798718419926 0.0158432544792 0.000333973346851)
(0.784840354675 0.00649532641588 -0.00114865475283)
(0.7962888976 0.0207153986344 0.000299393942545)
(0.792962157611 0.0160273790729 -0.000618772087533)
(0.77993962222 0.0126553419871 -0.00218197343723)
(0.780972422629 0.00993140823855 -0.000328484834752)
(0.793670350767 0.0189688502607 1.12498520439e-05)
(0.795776363306 0.0181442523178 -0.000379433913374)
(0.780921107954 0.0111335434523 -0.00101793525339)
(0.798251525409 0.0227073383342 -0.000510226752753)
(0.799008190166 0.0236515293757 0.00113970356865)
(0.780464591536 0.0139049262322 -0.00226276788762)
(0.782760093949 0.0127415406732 -0.00166199620598)
(0.796054854947 0.0213636038802 -0.000174273884009)
(0.781354315271 0.0119759420903 -0.00135071822608)
(0.80070459589 0.0243488732155 0.000554407619949)
(0.798412394365 0.0210768231844 -0.00034984829311)
(0.799608712095 0.0190503019785 0.0007179107746)
(0.782715686156 0.00901558341525 -0.000239535034698)
(0.78367583142 0.00765718560217 0.00159566931921)
(0.798017112501 0.0190060039594 -0.000650355710643)
(0.800236535148 0.0208201590104 0.00111910482446)
(0.782250075574 0.0102540217071 -0.000143644395647)
(0.800190638433 0.0228305768276 -0.000818686742755)
(0.802998107554 0.0231976092171 0.000726144585693)
(0.783594487363 0.0118670492138 -0.00133422116301)
(0.783737366404 0.00857045759881 0.00193792680681)
(0.8015327865 0.0221963815631 0.000862656081304)
(0.782515381247 0.0112883104355 -0.00032697810224)
(0.802161999973 0.0241496761592 -0.00109426836806)
(0.801449705672 0.0132084600604 0.0023812265343)
(0.80003908745 0.0128552898087 0.000860776965994)
(0.787076816519 0.00485009775025 0.00143225086023)
(0.787985864783 0.00569528381988 0.00180283494862)
(0.800277795021 0.0140991474003 0.00159382489571)
(0.801214486501 0.0121920583747 0.00158864127589)
(0.787492323847 0.00592937829401 0.00236604654006)
(0.801498656554 0.0143623099645 0.00186803839561)
(0.800685607917 0.0169743856612 0.00165033303996)
(0.78630717731 0.00513281589585 0.00176705112201)
(0.786416112147 0.00654160328273 0.00283122134545)
(0.800335699381 0.015637720535 0.00115602655809)
(0.801814723708 0.015462093692 0.00242839238859)
(0.786735819048 0.00612897016915 0.00262247851457)
(0.80237337775 0.012800992402 0.00243603813333)
(0.803225600684 0.0118069922146 0.00290672292139)
(0.786980711097 0.00746048874657 0.00318966764326)
(0.787586743469 0.00791306770199 0.00335680576327)
(0.802616192531 0.0136308786168 0.00281156086734)
(0.803064994179 0.0111561994568 0.00264320225541)
(0.787165297799 0.00686329948534 0.00299226648759)
(0.802658775207 0.0172578534821 0.0028674702161)
(0.801136934639 0.0182817887939 0.00148997415654)
(0.784568524923 0.00741017565261 0.00322320010387)
(0.785730811124 0.00718183900664 0.0032572861238)
(0.801759136914 0.0195646553709 0.002082360492)
(0.802122398843 0.0164075073723 0.00215328611536)
(0.785371144896 0.00797396822023 0.00381689313388)
(0.803302504029 0.0179298182255 0.00265807959082)
(0.803777436941 0.0213132845985 0.00237024203297)
(0.784525074982 0.00822524673796 0.00388442302064)
(0.785815276013 0.00931925002762 0.00466146746835)
(0.802698209554 0.0205360961593 0.00216019552214)
(0.785267725861 0.00869842335471 0.00428988664394)
(0.804123937426 0.018442227475 0.0031653434691)
(0.80328870868 0.0150515216447 0.00273334371169)
(0.803289795218 0.0125384710298 0.00253569776883)
(0.786417348349 0.00819688358238 0.00339591654651)
(0.786524379128 0.00934545513561 0.00331179289732)
(0.802784121739 0.0144506774816 0.00251417003983)
(0.803764643778 0.0130068957293 0.00262111303894)
(0.785934647354 0.00905818084346 0.0034493007089)
(0.803791713395 0.0155524964564 0.00257296273216)
(0.804745724555 0.0136766958906 0.00280519117922)
(0.785919230552 0.0103575847729 0.00429919992191)
(0.786114951397 0.00989101106557 0.00358901167948)
(0.804176257921 0.0134508742085 0.00239584965093)
(0.785631892664 0.00980179188328 0.00383399396698)
(0.804547472372 0.0159157404049 0.00313588715783)
(0.804249337626 0.00913554789179 0.00181740213929)
(0.803671904883 0.0105221507189 0.0024478459712)
(0.786956301383 0.010723255291 0.00315864851323)
(0.787597612751 0.010829113926 0.00276099463859)
(0.804073031812 0.0109083080952 0.00245229427195)
(0.804011464706 0.00875425845177 0.00189643395185)
(0.787153111576 0.0110641782146 0.00274582234405)
(0.80488942234 0.011503350283 0.0025464834434)
(0.786496730006 0.0112849018634 0.0033725495871)
(0.804390153012 0.0113163605523 0.00226211443395)
(0.816397260313 0.00322163016964 -0.000960918970716)
(0.817997479308 0.001191590929 -0.000549384396462)
(0.818003290579 -0.000967809039677 -0.000404922064155)
(0.814714962708 -0.00387396943441 -0.000392638147541)
(0.81007255331 -0.0052800418078 -0.000196386811459)
(0.822652706703 -0.0411522196381 1.74590330883e-05)
(0.817094070243 0.00322722617948 -0.00187109804103)
(0.818439471546 0.00138447149752 -0.000568994837748)
(0.81826237507 -0.000536339651912 -7.19531472395e-05)
(0.81496911485 -0.00401757391966 0.000183019822771)
(0.810586928794 -0.00564714360205 0.00166498716055)
(0.823847138255 -0.0429243832731 0.00252801504655)
(0.815609116234 0.00577012783978 -0.000622931805588)
(0.812495294267 0.00604048457735 2.37496912602e-05)
(0.791974111385 0.0099060087166 0.00178703867147)
(0.788974129528 0.00979966886317 0.00133826845364)
(0.786983404457 0.0104007096892 0.00365520290156)
(0.782194849375 0.00681294823887 0.00778557675625)
(0.785921665253 0.00579411370317 0.00692363764319)
(0.744274038273 -0.0289678725219 0.024929404896)
(0.825498860877 0.00490960007467 0.000270635906542)
(0.823522058996 0.00278520767948 -2.84872013531e-05)
(0.821566561683 -0.000477856200388 -0.00090188689211)
(0.819470084464 -0.00308552489574 -0.00257158480671)
(0.819645755807 -0.00553590596029 -0.00295966281001)
(0.818636182332 -0.00984798257454 0.000328285341941)
(0.812843162414 -0.00798324823616 0.00387106918792)
(0.815351011607 -0.0726358918627 0.0104234807485)
(0.819344324699 0.00523053972743 -0.0011608401807)
(0.822390885112 0.00320748649539 -0.000908756389875)
(0.822670265287 0.00207971362422 -0.00122912593204)
(0.8218350397 0.000288663299364 -0.00155213268768)
(0.820748268879 -0.00178449443853 -0.0014481847787)
(0.820562972298 -0.00610371155057 0.000122300831777)
(0.813934403221 -0.00747938913439 0.00212254546228)
(0.821135071902 -0.0581530695422 0.00448070618832)
(0.815771070633 0.00628205013978 -0.000984076298664)
(0.818909982747 0.00255836939979 -0.00061060582407)
(0.819848225687 0.000255250875649 -0.00063220570169)
(0.819640250588 -0.00203612554971 -0.000765125567479)
(0.818217769842 -0.00316482367293 -0.000993338018816)
(0.818174513072 -0.00635472016079 -0.000533419501267)
(0.812435317502 -0.00790626293448 0.000507373092066)
(0.82270533857 -0.0612306241103 0.0015080722637)
(0.816315032558 -0.00199148180604 -0.000427903483929)
(0.816098136577 -0.00459205732067 -0.000247971173454)
(0.811204993166 -0.00606685869073 3.85394012259e-05)
(0.824132792698 -0.0472376865779 0.000310797721759)
(0.638411270213 0.041989084882 0.00924312136068)
(0.637042983293 0.0395209745147 0.0131704823666)
(0.649950903097 0.0227417306346 0.0163353284028)
(0.65015457319 0.01996988401 0.0165703356361)
(0.65129613948 0.0211458843471 0.0200357038101)
(0.651151083482 0.0165515573267 0.0269440926009)
(0.696755331273 0.0172910310424 0.025109694601)
(0.560788431322 -0.0646045732928 0.0445727315414)
(0.772876688931 0.013336951592 0.00573048873295)
(0.769980580575 0.00862212168246 0.0069804238304)
(0.778991081366 0.0010257379838 0.0108059891368)
(0.776546067057 -0.000885602828378 0.0125500349633)
(0.777288326575 -0.00244743207356 0.0154398809457)
(0.782675805481 -0.00906755513636 0.0175632093328)
(0.793578715274 -0.0043429121169 0.0204325098064)
(0.792501392546 -0.124105791734 0.0270162142619)
(0.820699066298 0.00585644452546 -0.0021625477496)
(0.822749130944 0.00383920447555 -0.00177089604748)
(0.822680073399 0.00306008448317 -7.03601625207e-06)
(0.821711933071 0.00276771225491 0.000561657965007)
(0.821514027229 0.00148595975271 0.00120236586528)
(0.822921569332 -0.00391315916055 0.00142908023308)
(0.817676181728 -0.0071922892322 0.00532080943681)
(0.834051882718 -0.0810873687333 0.00934943288249)
(0.81620860562 0.00599723293569 -0.0024024351558)
(0.819515474404 0.00306363277138 -0.00166864757688)
(0.819953880004 0.000952334497223 -0.000151269944188)
(0.819604577734 -0.00163180470111 0.000264073410241)
(0.818435608685 -0.00355317212688 0.000564028959441)
(0.819244700371 -0.00738755005515 0.0015162855554)
(0.814367930648 -0.00911555648162 0.00400942295516)
(0.827779361278 -0.0692445181773 0.00603275966568)
(0.816419038958 -0.00165620781697 2.21140803694e-05)
(0.816702895885 -0.00441754052503 0.000546669407138)
(0.811815142552 -0.00647513527246 0.00234861402927)
(0.826200684894 -0.0532449549889 0.00348572105048)
(0.633872265193 -0.0152874001618 0.0154212402155)
(0.63159962872 -0.0158623933463 0.0166762285928)
(0.642723038782 -0.0214072847377 0.0208865942505)
(0.64009080213 -0.0213441713056 0.0225596467262)
(0.641948060916 -0.022056091236 0.0257661549224)
(0.643407506971 -0.0230256665595 0.0253985021465)
(0.694935788923 -0.0128589147502 0.0268497571223)
(0.567121434749 -0.142918720616 -0.00213666716857)
(0.733277133314 0.00573393871446 0.0190867038359)
(0.734600444106 -0.000822562751698 0.0195388131345)
(0.78910390259 -0.00275733134929 0.00816920635108)
(0.786059179656 -0.00289048121966 0.00999031733668)
(0.784490758655 -0.00559622123829 0.0111476911335)
(0.78897601799 -0.00949223390153 0.00931946758348)
(0.801762657041 -0.00477907468083 0.00713376663935)
(0.814624942513 -0.133064065986 0.000798578322587)
(0.821367069258 0.0048078017312 -0.00498542324103)
(0.825101870507 0.0034245576572 -0.00422887998053)
(0.825028755848 7.28551412696e-05 -0.00195773054686)
(0.822843849528 -0.0023805123473 -2.31130545891e-05)
(0.821572525339 -0.00449480811453 0.000533884353062)
(0.824636739075 -0.00900571929077 -0.000423629710536)
(0.821136696482 -0.0126088569835 -0.00149099808647)
(0.848586491903 -0.0991225001552 -0.00271658759969)
(0.810392091933 0.00929077203231 -0.00411357058244)
(0.816876764675 0.0059364502942 -0.0053504772444)
(0.82112608774 0.00242688018385 -0.00397713509168)
(0.821963182859 9.91197257364e-05 -0.001293892725)
(0.821067816227 -0.0024086264113 0.000317222069983)
(0.818920012235 -0.00472499698366 0.000292716645785)
(0.820721309884 -0.00785663528662 -0.000522653116286)