/*--------------------------------*- C++ -*----------------------------------*\
| =========                 |                                                 |
| \\      /  F ield         | OpenFOAM: The Open Source CFD Toolbox           |
|  \\    /   O peration     | Version:  v1906                                 |
|   \\  /    A nd           | Web:      www.OpenFOAM.com                      |
|    \\/     M anipulation  |                                                 |
\*---------------------------------------------------------------------------*/
FoamFile
{
    version     2.0;
    format      ascii;
    class       surfaceScalarField;
    location    "0.55";
    object      alphaPhi0.water;
}
// * * * * * * * * * * * * * * * * * * * * * * * * * * * * * * * * * * * * * //

dimensions      [0 3 -1 0 0 0 0];
oriented        oriented;


internalField   nonuniform List<scalar> 
92311
(
0.200313532686
-9.95656527399e-05
0.000158970797347
-0.200266931309
-0.000106128568687
-0.000120427705764
0.200395962039
0.000129256634612
-9.14185785723e-05
0.20029189879
-0.000208709860388
0.000152838436823
-0.200236815124
-9.90027491338e-05
-0.000237646829214
0.200372971251
0.000121427749433
-8.56178272599e-05
0.200262343098
-0.000116597009717
-0.000114839424102
0.000141605297924
-0.200209701987
-8.10926849646e-05
-4.33146746724e-05
-4.72408098824e-05
-0.000111129959447
-0.000106179796429
-5.75919487832e-05
0.200315950127
0.000106535124391
-6.94707104225e-05
-5.36146553471e-05
0.0500512921301
-3.90769825633e-05
-2.93874338024e-05
-3.19233357799e-05
-4.30802383098e-05
3.10752599364e-05
-0.0500450946197
-1.04304760384e-05
-0.0500614664334
0.0500571239966
-1.64812931231e-05
-3.33242967636e-05
-2.39946462104e-05
-3.72940345123e-05
1.84396536444e-05
-1.41593338261e-05
1.63507896853e-06
9.96194869983e-05
1.99380505011e-08
-7.56200211398e-05
9.59380505298e-07
-1.10253772965e-05
-8.99426966086e-05
3.74080279372e-08
-7.28966539907e-06
0.000196464524903
8.88768905626e-06
-6.74514091099e-10
-0.000189603948153
3.31425352197e-07
4.64490585445e-07
-5.61289170568e-05
6.63906589008e-07
-7.23187865185e-06
-1.04149784055e-11
8.35181856729e-11
-3.07470130602e-11
5.35819528827e-11
-1.86745890982e-13
-4.59260878206e-13
-1.03252548699e-12
1.22439887575e-10
-3.92857515539e-05
-2.35123706181e-05
-4.90577270446e-05
-2.25923149938e-05
2.37830059864e-05
-1.43614834579e-05
4.35845821278e-05
0.0123669321029
3.12293873893e-05
-6.76517946006e-07
-0.0123558518192
0.0122903960043
-5.55245711852e-07
2.1437123006e-05
-0.01236684294
-1.24742427161e-05
-1.49087440173e-06
-1.31658495263e-05
-4.31969869044e-05
0.0500550756728
-1.74537340476e-05
-2.85466447146e-05
-1.53248705431e-05
1.36327389966e-05
-3.18934763289e-05
0.0500590242431
-1.30024852237e-06
-1.95561780696e-05
1.91991383215e-06
-0.0500649874911
-1.39939489364e-05
-1.09715237041e-06
1.12571777481e-05
0.0122700800677
1.34418360709e-05
-2.6269097947e-06
-3.9108190905e-06
0.0125069439857
6.64325793092e-06
-4.66142594772e-05
-0.0125062403996
0.0125061364721
5.70763722018e-06
-4.2054782815e-05
-0.0125055278665
-0.000114388382593
0.20029327443
0.000342242749529
-0.000175486935547
-0.200345734012
0.200511848272
-0.000143805669808
0.000100455741152
-7.29829027875e-05
-0.000164161176276
0.200656200642
7.52382895009e-05
-5.59875512491e-05
-0.000162232221522
0.200307545188
0.000324910161539
-0.000188172958637
-0.200396600854
0.200492656796
-0.000293071373072
9.47119964771e-05
-6.55935068283e-05
-0.00033646698637
0.200643208135
7.03956466375e-05
-4.91112817069e-05
-0.000125925795216
-0.000123543423431
-1.23918337306e-05
0.000335314619532
0.200238264546
-0.000172467632035
-0.200299476368
-2.1155509435e-06
-0.00012660049875
-0.000125447387982
-9.98678175243e-05
-0.00011517789442
0.200455570205
8.5789772936e-05
-5.14495225825e-05
0.0500357602488
-2.79511805346e-05
-3.20682264166e-05
-3.50517371575e-05
-2.97689664512e-05
7.46743051491e-05
-0.0500419380425
-6.96061112471e-05
0.0500711816137
-1.30953469434e-05
-3.49266535924e-05
-3.47126693083e-05
-3.02135520141e-05
-4.77535003507e-05
1.79947285061e-05
2.43951513032e-05
6.35137601672e-09
0.000147503843583
1.24012591154e-06
-3.69214715036e-05
1.5693303464e-07
4.9846543256e-07
-2.07711182722e-05
-5.03172168452e-11
8.28841339415e-11
4.40984198922e-12
7.01991389498e-12
8.46693620638e-13
-4.76972295402e-12
4.96226129532e-12
-3.23930615327e-09
-1.61052175883e-09
-3.18972140809e-12
-7.14560658698e-10
-7.22944096098e-11
-6.10197864075e-13
7.87764947369e-12
-5.28202826207e-12
-6.83253283626e-05
-3.79941123415e-05
-1.70940404838e-05
-1.3627670037e-05
-4.83836698157e-05
0.0500328387737
6.47350419244e-05
-7.49568623201e-06
-1.0587277832e-05
-1.97701174043e-05
-2.27074690974e-05
0.0500586310448
-2.66108583064e-05
-0.0500522440489
-8.19621415909e-07
1.31649460491e-05
0.0123528760052
1.63145607059e-05
2.19208067863e-06
-0.0123667813411
-3.81929120283e-07
2.19116544785e-06
-0.0123572224903
6.55599990259e-07
-6.41195474676e-06
0.0123180713641
-2.54013087153e-05
0.0125058739323
1.66560910316e-05
3.16288916186e-06
-0.0125077780279
-1.70327294118e-05
-4.2032105318e-05
-2.98259061719e-05
-3.12460534398e-05
-5.32249598114e-05
0.0500999852004
1.91047318048e-05
0.0500715718926
-2.87227744891e-05
-3.6548909581e-05
-2.18801721449e-05
-2.78495483879e-05
-1.05329500315e-05
-3.31009722191e-05
-3.16720564913e-05
-4.17644981462e-05
-5.05937041943e-05
0.0501051625442
-8.627532357e-06
-3.86870358203e-06
1.17773776714e-05
-4.45267201995e-05
0.0125086615044
-1.11664579383e-06
4.26289194713e-05
-0.0123418017038
2.64499397276e-05
0.0122653842357
-1.02367839932e-05
8.82681121916e-06
-4.01776646714e-05
0.012504942209
-0.0125130725651
-2.75915580049e-05
0.0125042223563
2.7688965736e-06
6.74313766135e-07
0.000132955170956
-9.51877661558e-05
2.20917760517e-07
1.73472242838e-06
-5.97772223349e-07
-2.52557882045e-06
-7.15466453612e-12
-7.94299611805e-10
5.69408276937e-07
2.05352671395e-07
-4.3235937252e-05
8.51196460301e-07
0.000218012152739
1.87723267575e-05
-0.000192608596469
-2.17131276748e-10
2.45732200721e-12
-1.36167110064e-11
-1.08069166459e-11
-1.32366207303e-11
-3.83009456117e-11
-5.87782375827e-11
-1.43953324509e-10
2.54302521488e-07
-4.15212415974e-05
4.73886802958e-07
1.00966830427e-06
1.03623777597e-06
-6.27165804875e-12
-2.81137832525e-12
3.70452166376e-13
-4.88101386842e-06
0.0125180434005
3.43132748362e-06
-0.0125121408385
-0.0125056138728
-4.34288454828e-05
2.19341780951e-06
0.0125196302244
-2.18934141642e-06
-1.45966889645e-05
4.19597486696e-05
0.0124420093764
-1.73980662075e-06
3.40581642041e-05
0.0123834139199
-0.0124443938252
-9.22616251227e-06
-0.0125072634674
-1.13812128582e-06
0.0123256867923
-6.51914511641e-06
0.0125157406482
3.34494705727e-06
0.0125193470657
-3.56312270229e-05
7.71464398634e-07
-4.24563533188e-06
-1.16288326612e-05
-0.0125134558893
0.0125220392648
9.54440841867e-07
-3.72201229739e-05
2.20999490109e-05
-3.85769390535e-06
5.36598826674e-05
-0.0123113466473
0.0124160275801
-7.08747330507e-06
0.0125174926931
-5.22899249232e-06
-7.84148400091e-06
2.50747630351e-06
-0.0125197836014
-8.51691397038e-06
-5.75145172604e-06
0.0125218334397
-4.21362477917e-06
-1.11391972269e-05
0.012514286492
-3.19766537856e-06
5.63395581059e-06
3.5520610672e-05
0.0124019333789
-2.15383567219e-06
3.34393456478e-05
0.012367213616
-5.69463505566e-06
-3.95920492181e-06
0.0122844817824
-6.16615325442e-06
0.0125113687618
-4.55201598552e-06
-1.36148176765e-05
-0.0125088882296
0.0125143215007
-2.61733888721e-06
-1.05331521784e-05
-0.0123623731383
0.0123172938913
-3.60158285598e-06
-0.0122567695099
-2.45603323203e-06
0.0124113813863
7.49508541923e-07
-8.8570980053e-06
-4.81369594426e-06
-1.23878922603e-05
1.82308266861e-05
-2.94130647261e-06
-5.69450872859e-06
-3.4706095846e-06
3.86037647384e-06
-0.0125131130633
0.0125137680308
-2.18512422436e-08
1.3396966428e-05
-0.0122648280011
0.0124217094274
-0.0123796704491
0.0123439368893
8.06261817008e-06
-1.1070155036e-05
2.47088917822e-06
-0.0125212549976
6.47941122598e-06
-1.23421462475e-05
-0.0124093360283
9.82600616137e-06
-0.0125151554872
-6.16346659767e-07
-0.0122894489556
2.54742324454e-08
-3.79080571225e-05
-7.40916197482e-05
5.60533605813e-07
3.3669130269e-08
1.53208616798e-06
8.6569738743e-05
-8.77472212518e-05
1.15482187966e-05
5.339038007e-11
1.15249303155e-10
-1.06784252112e-10
-1.32092445711e-09
0.000135157186108
-1.39585268768e-10
7.55489297959e-08
-9.94353401738e-06
5.00525800162e-07
-1.93469347946e-05
4.12351338767e-05
-0.000165103217184
-1.63583795337e-12
-0.000111344177371
1.54504131713e-07
1.25790511806e-06
0.000143603168598
-1.49102817879e-05
5.32272984562e-14
5.35352218631e-12
-5.15933579099e-11
-5.49127320779e-10
3.96258174007e-13
1.053367402e-13
8.89209386563e-08
0.000125966288689
-4.45115350031e-05
9.67069126294e-07
6.40364396855e-08
6.77110881988e-07
2.04999747868e-05
1.59964308747e-10
3.7032121227e-10
-5.03831565523e-10
-2.03842018439e-10
3.38840045783e-11
6.35965914265e-08
-3.58025690228e-05
-0.000130344201797
8.14077759562e-07
-1.55809881781e-05
2.70387515755e-06
9.71895700534e-05
1.38847330402e-05
4.63795135487e-10
6.35411640161e-10
-1.47838698541e-10
2.33647458527e-08
-0.000111824017904
2.68663574534e-08
2.23788985547e-06
0.000124646951402
-2.69771341575e-05
-2.22517902646e-12
1.03305691663e-10
2.45974056776e-05
-0.012505954771
-3.31496641769e-05
0.0125130639139
-2.65031647794e-05
0.0125110288099
-2.90034764085e-05
1.02291816833e-05
-0.0125111507886
1.85621265016e-05
-2.42276769304e-07
0.0124235750393
-2.99951009678e-06
3.58923383021e-05
0.0124075310105
-0.012429379245
1.52519633147e-05
0.0125097541435
9.33607200197e-06
-0.0125049210427
-2.39462378797e-05
0.0123574686653
1.03112134951e-05
2.16314898537e-05
0.0125131258689
-3.2267978396e-05
-2.74700567449e-05
-0.0125041388785
-2.57637815666e-05
6.14749637483e-06
0.0125088700558
-6.09577419328e-06
-2.41836075132e-05
-1.21139369997e-05
4.7513764002e-05
-0.0123513777894
1.87426375623e-06
0.0124378108311
7.50857848502e-06
-2.53524139345e-05
0.0125118863703
8.85098002329e-07
0.0124019391717
-4.19549911357e-05
1.22796377197e-05
-0.0124624705789
3.55172709496e-05
6.47520131658e-07
0.0123498186169
1.01947748391e-05
1.45568146449e-05
0.012515578333
6.52661809904e-07
0.0125163229773
-3.47595772713e-05
-0.01251210424
3.06900044414e-05
-0.0123751969315
0.012442447056
0.0125136545179
-0.0123727643606
-2.00825235787e-05
0.012512416181
-9.69120809109e-07
1.99226768377e-05
0.0122998411226
-6.91963390653e-06
0.0123797719185
4.87822882373e-06
3.07604518809e-06
-3.86330449029e-05
0.0125195964549
-5.59150274318e-06
4.59354630287e-05
3.16160801033e-06
0.0124271187954
-1.10158304359e-05
0.0125138677396
-1.53127163483e-07
0.0123106066909
5.83912499194e-06
5.41593349182e-08
0.0125270981331
-4.21014409438e-05
-7.50815206756e-06
-0.0125130625605
-6.646589584e-06
0.0125303609135
2.14466314391e-06
3.13489555024e-05
-2.91972508194e-05
-1.61795784755e-05
5.15911003869e-05
-0.0123145175437
1.33032856914e-05
0.0124268934363
9.15437666864e-07
-6.33533758949e-06
0.0125252077847
5.41966820316e-06
-0.0125113810823
-3.85819984249e-05
-6.09804038355e-07
8.65222226081e-07
-1.11173593911e-05
5.20326277279e-07
-8.01086012841e-06
0.0123886924213
0.012337809033
7.44035653348e-06
-2.45110613293e-05
0.0124549011006
1.21243371052e-05
-4.70238901022e-05
0.0125179402379
0.0123296961725
0.0123581095418
-5.92932786544e-05
1.12112993905e-05
5.82885607143e-05
1.56112945374e-05
0.0123032962173
4.97975571062e-06
5.40753424542e-06
0.0125240922667
1.21835515148e-06
0.0125278497721
-5.64774422595e-05
4.8167433672e-05
-0.012346623205
0.0124417349014
0.0125245428346
-0.000136851069864
-0.000128513981164
-0.0001286862419
6.17502142668e-05
0.200617726633
-0.000128335089714
-3.79621637723e-05
-1.66390779163e-05
-2.60480494617e-05
-4.29648740516e-05
-5.27149568998e-05
-3.30925108655e-05
1.55136443875e-05
0.0501190044911
3.07172958402e-06
3.41500259533e-05
-8.23005072465e-11
8.28247374854e-08
-0.000122625486364
9.00224484706e-07
-2.8408875562e-05
0.000136003275618
6.37909639869e-11
-9.4696090434e-10
1.19054848577e-11
4.09763931295e-12
-6.27877558219e-12
-7.56211322464e-10
-1.94198777884e-12
-6.13402654961e-06
-2.27888715814e-05
-2.74878439766e-06
-2.86848816097e-05
3.64119622606e-05
5.44029837805e-05
0.0500591743473
-1.55148039064e-06
3.61491429509e-05
3.31619352686e-05
0.0123556815093
0.0501214283742
-2.27977287074e-05
-4.9818899544e-05
-2.33632012214e-05
-5.89376583221e-05
-6.52045159308e-06
0.0501415619491
-4.1490953247e-05
-2.97054915591e-05
-5.1533401192e-05
-3.21290259409e-05
1.46860334114e-05
-8.51624665911e-06
3.97369410258e-05
0.0122640859624
6.33532855642e-05
-8.88143208113e-06
-3.63867314389e-06
7.50077746054e-05
6.01927998085e-05
0.0123510928351
4.28529017052e-06
0.0122209769696
-1.46022998398e-06
4.76716061059e-05
9.4729536469e-06
-0.0123012955425
5.86861188421e-06
0.0501603452909
-2.33809329257e-05
-5.34525802793e-05
-2.16994676096e-05
-6.64458926102e-05
0.000141218376113
1.3178351994e-05
-8.06551318768e-06
-4.9309767143e-05
-3.13448193788e-05
-6.21605641223e-05
-3.25033863118e-05
0.000135214620102
1.1964377493e-05
0.0501930594408
-4.32265733296e-06
-5.33252519775e-06
7.08677482586e-05
6.74686492949e-05
0.0122832564509
5.38671627301e-06
-2.09392847233e-06
5.78394971738e-05
2.62786494111e-05
-0.0122544835989
0.0121691657293
2.29056134489e-06
-0.000107175864345
7.95741940295e-08
6.53915573412e-07
-2.16103469927e-05
0.00011921529875
1.84640285062e-08
0.000116112470733
7.05871699493e-08
-0.000182521739712
-2.07619147479e-05
1.53146512431e-06
1.33550380901e-05
-9.15107215378e-12
0.00014114931077
-3.67213751165e-06
-0.000193592222891
4.36919941731e-06
-2.63866715301e-05
7.37406155299e-06
-5.34328512927e-10
9.11699956499e-12
4.56355476104e-12
4.6758974043e-10
-3.00499188698e-10
4.53568060711e-12
3.52418108463e-12
-9.52389515306e-11
0.000150988430916
-0.000209539886885
-2.1369154644e-05
1.68063445373e-06
-2.52840114815e-05
7.9499854339e-08
2.75022414208e-06
-2.21940999375e-05
-0.000249345035345
6.34161203307e-06
-2.32214966716e-05
5.02902273123e-08
0.000156885743133
-3.57387944969e-06
-0.0125100762511
-1.17678454679e-05
-2.03690653226e-05
1.99475250147e-05
0.0125161346137
1.41582353531e-05
0.012518202523
6.95762346105e-06
0.0123663626212
-4.46168138353e-06
-3.18294472982e-06
4.37394268229e-05
0.0124448249347
2.19423245525e-05
-1.51966842351e-06
0.0123019586661
0.0125161473329
2.8872579863e-06
-0.0125215870541
-3.03006369696e-05
-1.05489359831e-05
0.0125335341325
0.0125352447759
-8.82451288565e-06
6.3471661063e-07
4.48754571895e-05
6.62111069924e-06
-1.21592682177e-05
0.0124053536408
2.97764520747e-05
0.0123233194373
2.00152261808e-05
-3.28581591728e-07
0.0125306212007
-8.60241960827e-06
1.0822423122e-05
0.0122372553925
-0.0125182388683
-4.17674961522e-05
-7.29779538077e-06
0.0125338745662
7.32454489461e-06
0.0125415718411
1.28893829249e-07
1.81288377563e-05
0.0123204903105
-3.61522764535e-05
5.70454582389e-05
0.0124442932123
6.61100132803e-06
0.0122466019317
0.0125323520664
-1.09519322422e-07
0.0125431675607
-5.30594945404e-05
-6.7777317663e-06
9.17299248255e-06
3.84102975635e-06
-0.0125190391813
0.0125355897468
-2.69692796674e-06
4.49869056405e-05
-0.0122792279673
0.0124151873425
-5.90813797237e-06
-8.43609295401e-05
2.32658354219e-05
8.6056571392e-06
0.0125351142088
5.52062849868e-06
-5.47770868279e-06
-2.42866328478e-06
-0.0125228641152
-4.28429769161e-05
-5.06949939382e-06
0.0125404721807
6.94733811243e-06
4.2963841658e-06
0.0125502384985
-1.60509469899e-06
1.11142452753e-05
0.0122780636945
-1.66682510356e-05
-3.83479091802e-05
6.02186615257e-05
0.0124267082945
8.61674533163e-07
6.00566222225e-06
0.0122015963263
-1.05814884076e-05
0.0125400078428
-1.07375967977e-06
0.0125593778393
-7.12293333072e-05
-3.44225397744e-06
6.53400621226e-06
4.20137732274e-06
-0.0125245972044
0.0125466954986
-2.16584625546e-07
5.26600735171e-05
-0.012265996876
-7.1830237963e-06
0.0124096526239
-9.95403360467e-05
2.00249288786e-05
-1.36610384567e-07
4.90364653369e-06
0.0125493372126
-4.48938245607e-06
-5.9730612104e-07
-0.000181352757123
-0.0497916891685
0.049747150452
0.000184064902044
3.75129808386e-05
4.18003463876e-05
4.36674337266e-05
3.97798871249e-05
-0.000121110307681
-0.000159814667912
0.0499679220049
3.7089229917e-06
1.24665412614e-05
8.58460208437e-06
5.67425520431e-07
8.79647223979e-06
-0.049946102664
0.000103779406188
-0.000320248831523
-0.0500110921334
0.0500972850837
0.000180725037284
6.80000170118e-06
-9.8733917954e-06
-1.42543955539e-06
6.58310428435e-06
5.12432707355e-05
-0.00011949179376
-1.44859282051e-05
-2.13842546967e-05
-2.05397245263e-05
-1.4567457355e-05
0.000100529725132
0.0500866270251
6.17879003766e-05
-0.0500584870243
-5.52934380869e-05
-5.48312758835e-05
-0.000251490452519
0.000228478954927
7.86559912818e-05
2.42613092527e-08
-8.24701457182e-05
-6.96038840847e-05
-4.17146690902e-05
-7.29535195757e-05
-0.000262626688997
0.000301462927057
0.000117408221514
-7.88721391864e-10
-9.16325657254e-05
-2.80675388762e-05
-8.0382157351e-06
-0.000110616923214
-6.78502026008e-05
-4.35575710296e-05
0.000137533267722
8.98939321813e-08
-5.75553195928e-05
-2.89723408246e-06
-1.98372976062e-05
-0.000180644962996
2.65847175779e-05
-1.61456050307e-05
-5.28514430793e-05
-0.000119078176573
0.000163452077067
3.57376469401e-05
-2.75507677854e-10
-5.8140392705e-05
-4.15906009194e-05
5.82695279625e-08
9.72842049368e-08
-9.84198168705e-06
-2.29602458513e-05
-3.50358021955e-05
2.23310966176e-07
0.000103492812591
-4.77778283327e-06
-2.10650864411e-11
-4.93718171194e-05
1.84635693172e-11
-1.89859868602e-11
-2.54778763223e-09
5.10743670444e-10
3.22712429514e-11
2.54490530147e-11
4.07816936902e-12
-1.48800694157e-11
-4.36381289866e-11
9.61149192346e-12
2.2657518379e-11
9.55281749515e-13
1.34318567234e-12
-4.59061971404e-11
-5.35130905327e-15
7.8974791299e-12
-2.07844487335e-11
-3.11968576937e-10
4.24466829141e-10
-2.8070554377e-09
-6.79644454021e-11
8.82217231402e-12
-2.32351871001e-11
3.39847563074e-10
6.27983181626e-10
-2.47860849529e-09
6.66503971073e-11
-2.80377451427e-11
2.5454480715e-11
-1.38345726776e-09
-2.30426057411e-09
3.99807269641e-11
-1.6688270574e-12
-1.765337516e-12
-2.05241702116e-09
1.68660417889e-10
-1.29798614454e-09
-1.23146443566e-09
3.14750937595e-11
-2.04198550808e-12
2.02495754305e-12
6.81142057893e-05
3.98734914332e-05
6.3931084562e-05
3.88033468208e-05
6.23458459289e-05
0.0496478904596
-0.000129571068041
-1.6290976721e-06
-0.0497898104117
0.0497076733885
0.000111529885027
5.28184371229e-05
6.51592084424e-05
5.26247519003e-05
5.87832019794e-05
-0.000163111625044
-0.0498174321565
9.49641409187e-05
-8.02712854614e-05
-0.0123980061068
-1.08664947393e-05
0.0124029979789
9.92927315375e-07
0.0124171718925
1.82567055196e-05
7.63741283233e-05
-7.36271930986e-05
-1.77289660624e-05
-0.0124171441365
6.94487317839e-05
6.98494398672e-05
6.82431064624e-05
7.32601945974e-05
-0.000123494525174
0.012418543053
0.0123868918618
0.0123611732517
0.0124219336194
-0.000219643984653
2.90083646562e-05
5.07900888764e-05
-6.87314904382e-05
-1.42658486874e-05
0.0124328320602
0.000105506025762
3.1532185492e-05
5.29620765781e-05
5.41259173414e-05
3.22292096782e-05
-8.83922830971e-05
-0.0498681418192
0.0498783817006
3.73962048838e-05
5.14757396609e-05
3.51168706319e-05
4.42531703144e-05
-0.000151160993443
-0.0499020652997
0.000112046342884
0.0124127261362
8.4467799408e-05
-7.68937125436e-05
-0.0124035273167
7.16034095772e-06
0.0124571113811
4.66085676071e-05
-4.74173010468e-05
-3.16219046363e-05
-0.0124478961209
2.96816831506e-05
0.000284891939348
5.25851107375e-05
6.88333219912e-05
6.71652556312e-05
5.69622752111e-05
0.0497357703052
-9.61080327738e-05
-7.36543018256e-05
-8.42508755171e-05
-7.15768329178e-05
-5.33319742154e-05
-4.95183459304e-05
-4.81262013847e-05
-4.25651334677e-05
0.0498738397745
3.81147130843e-05
4.63431528504e-05
3.90336699768e-05
4.04576782594e-05
-0.000135380848873
0.0499055155875
0.000227623345409
4.0985947558e-05
5.77107174704e-05
4.3582191125e-05
5.41969444377e-05
-0.000170979133612
-5.79933605562e-05
0.0124359307757
3.0396394598e-05
0.0124169711303
9.69801922817e-05
-8.15726812362e-05
-0.0124157398935
4.84503832503e-05
-5.98524308452e-05
3.74140577437e-05
2.42559487466e-05
-3.44650796592e-05
-2.92927470578e-05
0.0124761152921
0.0124676808973
4.59872054843e-05
4.63072749277e-05
-3.93795280989e-05
-4.74630954155e-05
-0.0124725504745
0.0501137756832
3.28561894201e-05
5.5158748524e-05
4.23901473762e-05
6.0339410525e-05
-0.000499170328821
-0.000220136590772
0.000350919387675
2.01943375197e-05
5.72453656566e-05
5.53182826001e-05
2.13224216437e-05
0.050394718686
-0.000229379021417
-0.000556590956511
-7.38399401766e-05
0.0124420420638
6.60992105056e-05
-8.247611278e-05
-1.81390293108e-07
-1.42840142363e-05
-0.0124741840073
0.000102301515186
0.0125172495084
-0.000116321876591
5.41313833003e-05
4.08401965011e-06
-2.89866604172e-05
-4.98978035263e-05
0.0124888902712
6.35888931758e-05
-2.17037455512e-07
-1.93247525439e-05
-5.08211789868e-05
-0.0124709702146
0.0124831195766
0.000142895128301
-2.23495725434e-06
-9.58210165282e-06
-2.21875813472e-06
2.12747270717e-06
5.34102303799e-05
0.0500264075431
2.86937683256e-05
3.8012258016e-05
2.79523183278e-05
3.48846994774e-05
-0.000145026486833
-0.0499755637434
0.00010752124858
-3.74752477048e-05
0.0124614016161
1.09483162044e-05
-0.0124499784466
0.0124623982946
3.90132875163e-05
-1.47475022709e-05
-0.0124667173817
2.46855812176e-05
0.0124538396205
2.19156185238e-05
-2.44194150299e-05
-1.69607100346e-05
-0.0124785116122
2.4009851267e-05
0.0001704466432
2.7876551029e-07
-4.47663065709e-06
7.49635951595e-06
-6.93742998682e-06
0.0502472747117
3.41271621955e-05
0.0500808698204
3.22755786784e-05
3.80552166974e-05
3.31904294007e-05
3.50934312433e-05
-0.000131874046264
2.29634010572e-05
4.60930741204e-05
4.13998746184e-05
1.73587113817e-05
0.0501350821328
0.000121567773687
-0.000133161929942
-1.51304743815e-05
0.0124765779312
3.29749968398e-05
3.05602301278e-05
-1.87114168959e-05
-0.0124280288985
2.32163452301e-05
0.0124527225904
2.346611067e-05
-4.83266154796e-08
-2.05047079002e-05
-1.25285642333e-05
0.0124563599541
2.63633651789e-05
-1.16650743866e-07
-1.75557369395e-05
-1.89292571316e-05
-0.0124369044354
0.0124185227009
3.54379109289e-06
0.0124530635107
1.53578526084e-05
-0.0124549743762
-3.48569020508e-06
-0.0124119508752
0.012404480028
6.66345567549e-06
-3.40787943591e-06
-2.81932310999e-06
-0.000135817278194
-3.57184315742e-05
-1.6512341015e-05
0.000237896592807
1.85355670365e-05
-0.000197752872689
8.72760141227e-08
0.000217067726818
1.8694456824e-05
-5.39777718485e-05
-9.39809663876e-05
-4.3048211345e-05
-0.000219047186554
2.20965824851e-08
-4.07014786024e-11
-9.5488063225e-05
-9.57145637316e-05
-5.55170571643e-05
-1.27088690891e-05
0.000250801743273
4.60603147921e-09
-1.90571230833e-12
-1.7762418619e-07
-1.28809174096e-12
-2.8971573106e-09
-1.07749438262e-12
2.81645423468e-12
9.72176635616e-10
3.576740072e-11
6.49810733055e-12
-2.50381313531e-10
-2.20847662607e-11
3.54431879193e-12
-7.31826874074e-11
7.02976015516e-12
9.11941404176e-13
-2.79005719632e-12
2.12179791112e-11
1.02701513977e-13
-3.5221702599e-12
3.44125646652e-13
6.12380872217e-11
1.08726173194e-12
2.74214239797e-11
-1.13360960752e-11
2.57583730535e-10
-5.94528694416e-10
2.20157007001e-11
8.371982061e-10
5.7836870712e-05
-0.000117760591599
-2.51522165738e-05
-3.6335237446e-06
-1.06426562918e-10
-0.000218171219573
0.000191011493994
-2.56541136255e-05
-6.37592036252e-05
-3.410753647e-05
-0.00020325848417
7.83422752848e-08
3.32314011392e-05
0.000110060867573
-1.22629809416e-09
-0.00011004692395
-3.66052745878e-05
-1.28436015056e-05
-9.00127023786e-05
0.000161410816777
1.49123070966e-07
-4.55255079221e-05
-2.91335366095e-05
-4.2682031524e-05
5.36995127007e-08
0.000188773408671
5.15953526137e-05
-7.290472285e-05
-5.10437894126e-05
-5.24524098128e-05
1.30590708011e-09
-2.93088723711e-09
-3.45854380483e-12
-3.47754845986e-10
6.67068466252e-11
2.70633111864e-09
-8.45522996712e-10
-1.48825851154e-09
1.12066390161e-09
-2.20404463988e-09
0.000109401365456
-5.76399186701e-09
-7.50400574636e-05
-6.00917738928e-06
2.94155527625e-07
0.000309283155439
-0.000113069668537
0.000203979250992
9.90374846788e-08
-6.4938249057e-05
-3.61522169183e-05
-3.03342257098e-05
-5.99973865671e-11
5.2998412191e-05
-4.07673701202e-05
-5.9006354203e-05
1.24538961111e-07
0.000226601393891
5.28313963783e-11
-3.4299194755e-09
-1.07673879391e-10
7.33424109873e-11
3.37525871512e-09
-4.93501975658e-11
-2.17169945895e-09
9.95316048084e-11
2.99489925948e-05
9.43540060934e-08
-4.89802762062e-05
-2.81730694276e-05
-1.19093408912e-06
1.28998540474e-08
7.27783281814e-05
-2.85239992859e-05
-3.03004079463e-05
-1.97469266877e-05
-8.44756862533e-05
1.50989136318e-05
1.40375334484e-09
-4.52090528214e-10
-1.26181046626e-09
-6.17221651665e-11
2.08086924805e-09
8.51145986978e-11
-4.01625666625e-10
-1.41228437347e-10
2.52523357418e-05
7.34810430182e-08
-0.000140767632203
8.53385257434e-08
3.03329505886e-07
0.000169469642507
9.34222731454e-05
5.87048326567e-08
-7.39925373772e-05
-1.83526872573e-05
-6.87626285848e-06
7.8031817037e-09
-5.84088966272e-06
-6.47752121327e-05
1.47894909555e-07
0.000107957652073
4.01532938111e-06
4.48745890607e-11
-1.04181070071e-09
-4.04530680328e-11
6.56370648435e-10
1.44293447108e-09
-1.41642662844e-12
4.40311300378e-11
7.40661773768e-12
0.0124460243297
3.65331335989e-05
6.07577338447e-07
1.47234525912e-05
-0.0124580227823
1.9331281882e-06
-0.0124352193103
0.0124193127282
-2.41676453517e-06
-1.76778441295e-05
-8.85443479102e-05
2.08150539757e-06
-0.0124300532751
-3.85107332119e-05
-0.0124342199324
5.45017189604e-06
0.0124412351065
1.72429840395e-05
0.0124309693822
3.99518365346e-06
-0.0124292243453
-3.58851925779e-06
-0.0124572291761
0.0124481669871
2.29438660131e-05
5.42665206772e-05
-0.0124578474001
-2.66168402147e-05
-0.0124516395392
0.0124397840599
2.99447644234e-05
-5.60548334957e-05
-0.0124172063979
0.0124264695981
-7.06851382349e-05
-1.80108485551e-05
1.358556183e-05
-0.0124306208615
0.0124353684888
2.50877322403e-05
-0.0124656983971
-0.0124096440798
-0.0124201870104
4.33956984936e-05
6.85909158775e-05
-2.9090837361e-05
0.0124067279273
-3.11236507397e-05
0.0124338493624
3.8155062822e-05
-7.59685091616e-05
0.0124104524377
-1.17619704086e-05
-8.24629185052e-05
-2.99188551525e-05
3.44923986777e-05
0.0124205624436
-2.37104637718e-05
4.48498037335e-05
0.012423181937
-1.24296287777e-05
0.0124135926905
-1.08703808473e-05
0.0124679746072
3.0728167421e-05
1.64840761208e-05
-0.0124728028351
-0.0124560839968
1.36242861778e-05
0.0124484532441
-8.27321214142e-05
3.72360292785e-06
-0.0124281604817
-3.56964097958e-05
-0.0124436431016
2.59721697025e-05
0.0124553554381
-0.0124704878397
1.84680104085e-05
0.0124596567548
2.53289040654e-05
-0.0124315607516
0.0124695819676
2.2005553803e-05
3.66036800126e-05
-0.0124743276332
-2.73660138254e-05
-0.012471771494
0.012468227628
3.49462337989e-05
-3.01325079894e-05
-0.0124303776912
0.0124601522505
-4.52478084004e-05
-2.75741370863e-05
-0.0124499082974
2.47614413134e-05
0.0124655807897
-0.0124804392367
2.96377544885e-05
-0.0124268142668
-3.29339286249e-05
-0.0124483905293
4.41816442642e-05
0.0124383028568
3.62869055512e-05
0.0124441782618
2.61758424513e-05
-6.66055238747e-05
2.99863893954e-05
0.0124286650831
-5.15787364267e-05
0.0124437991898
3.08032353073e-05
0.0124330889094
2.55872447039e-05
0.0124427628076
4.12747809445e-05
-4.31645569025e-05
0.0124437152008
3.90165049625e-05
5.12391607733e-05
-0.0124315839019
5.8304818596e-05
0.0124328291082
-7.23035294745e-05
-8.4587894249e-05
3.33576772174e-05
-4.55834070913e-05
-4.70738095135e-05
-0.0124561606169
6.71395611659e-05
0.0124510129739
-5.9100249778e-05
6.92259335612e-05
0.0124426582523
5.60107147474e-05
-0.0124622460572
3.83236503587e-05
3.53268006715e-05
0.0124629463908
-3.16874871203e-05
0.0124689749486
4.27735591301e-05
-3.62009167521e-05
0.0124650500662
-2.93456357304e-05
-3.5280030687e-05
0.012481743757
4.08991872971e-05
0.0124677311372
5.0643903835e-05
0.0124691676743
0.0124677484794
5.11062599933e-05
3.62833435011e-05
-6.22790271979e-05
-0.0124727186654
0.0124798314399
7.35103074687e-05
-4.56867431207e-05
-0.0124681463603
0.0124603298577
-3.9421516403e-05
-4.35884643083e-05
4.23983900557e-05
0.0124725762023
6.08825357984e-05
-8.76269302775e-05
-0.0124672824606
4.05865175188e-05
0.01249527295
0.000105504771524
-8.64766716669e-05
0.0124561799688
7.59942221883e-05
-8.67502791073e-05
-8.64574877052e-05
-7.92177523468e-05
7.15966982818e-05
0.0124588119289
-9.9755844882e-05
-4.69406939283e-05
0.0124596151185
7.78871266029e-05
0.0124848983872
-9.11792799244e-05
-0.000104400633266
8.86385320908e-05
-8.42332637029e-05
0.0124810812383
8.48890474389e-05
-0.000100805509266
3.0224058222e-05
0.0125387881805
0.000115679751342
-8.86615307946e-05
-0.0125342485352
9.63816107398e-05
0.0126094002774
-0.000112776134614
-7.30255580586e-05
-5.30556238371e-05
7.94108765696e-05
-0.000115945728068
-0.0125173675387
-2.54235481709e-05
9.75279254798e-05
0.0125463905797
-0.00011929922978
-8.3859890656e-05
9.56553944979e-05
0.000113143890412
0.0125933575418
-9.66441380335e-05
-0.0124864566922
8.83104556262e-05
2.30255953439e-05
0.0125134462452
-7.50057102539e-05
0.0124945644196
8.64625558112e-05
-4.21186931401e-05
0.0124641409503
-3.82895509548e-05
-6.34116630453e-05
0.0124906250672
6.19566823847e-05
0.0125116061623
9.33197283158e-05
0.0124792669444
9.06112973146e-05
8.26512792681e-06
0.0125505087441
-0.0125281636848
-8.21091622028e-05
8.80980354093e-05
0.0125601414471
-0.0125176809336
-1.73883943184e-05
0.0125369405257
-3.70899871916e-05
-7.56495992058e-05
6.72612125439e-05
9.23465715991e-05
0.0125855800465
-2.52275010958e-05
-0.012487116627
7.59961696718e-06
0.0124920830627
1.63486097879e-05
0.0124797835656
1.67081184782e-05
-0.0124787678119
-2.87760393895e-05
1.78085650022e-05
0.012468710958
-9.87833426036e-07
0.0124903450013
-0.0124739839818
1.31207497634e-05
0.0124849532245
-0.0124840983365
1.32164284353e-05
0.012481947346
1.45562699776e-05
-3.24782357126e-05
0.0124945425004
6.09323055115e-06
2.16646286857e-05