/*--------------------------------*- C++ -*----------------------------------*\
| =========                 |                                                 |
| \\      /  F ield         | OpenFOAM: The Open Source CFD Toolbox           |
|  \\    /   O peration     | Version:  v1906                                 |
|   \\  /    A nd           | Web:      www.OpenFOAM.com                      |
|    \\/     M anipulation  |                                                 |
\*---------------------------------------------------------------------------*/
FoamFile
{
    version     2.0;
    format      ascii;
    class       volVectorField;
    location    "0.55";
    object      force.turbine;
}
// * * * * * * * * * * * * * * * * * * * * * * * * * * * * * * * * * * * * * //

dimensions      [1 -2 -2 0 0 0 0];


internalField   nonuniform List<vector> 
28582
(
(0 0 0)
(0 0 0)
(0 0 0)
(0 0 0)
(0 0 0)
(0 0 0)
(0 0 0)
(0 0 0)
(0 0 0)
(0 0 0)
(0 0 0)
(0 0 0)
(0 0 0)
(0 0 0)
(0 0 0)
(0 0 0)
(0 0 0)
(0 0 0)
(0 0 0)
(0 0 0)
(0 0 0)
(0 0 0)
(0 0 0)
(0 0 0)
(0 0 0)
(0 0 0)
(0 0 0)
(0 0 0)
(0 0 0)
(0 0 0)
(0 0 0)
(0 0 0)
(0 0 0)
(0 0 0)
(0 0 0)
(0 0 0)
(0 0 0)
(0 0 0)
(0 0 0)
(0 0 0)
(0 0 0)
(0 0 0)
(0 0 0)
(0 0 0)
(0 0 0)
(0 0 0)
(0 0 0)
(0 0 0)
(0 0 0)
(0 0 0)
(0 0 0)
(0 0 0)
(0 0 0)
(0 0 0)
(0 0 0)
(0 0 0)
(0 0 0)
(0 0 0)
(0 0 0)
(0 0 0)
(0 0 0)
(0 0 0)
(0 0 0)
(0 0 0)
(0 0 0)
(0 0 0)
(0 0 0)
(0 0 0)
(0 0 0)
(0 0 0)
(0 0 0)
(0 0 0)
(0 0 0)
(0 0 0)
(0 0 0)
(0 0 0)
(0 0 0)
(0 0 0)
(0 0 0)
(0 0 0)
(0 0 0)
(0 0 0)
(0 0 0)
(0 0 0)
(0 0 0)
(0 0 0)
(0 0 0)
(0 0 0)
(0 0 0)
(0 0 0)
(0 0 0)
(0 0 0)
(0 0 0)
(0 0 0)
(0 0 0)
(0 0 0)
(0 0 0)
(0 0 0)
(0 0 0)
(0 0 0)
(0 0 0)
(0 0 0)
(0 0 0)
(0 0 0)
(0 0 0)
(0 0 0)
(0 0 0)
(0 0 0)
(0 0 0)
(0 0 0)
(0 0 0)
(0 0 0)
(0 0 0)
(0 0 0)
(0 0 0)
(0 0 0)
(0 0 0)
(0 0 0)
(0 0 0)
(0 0 0)
(0 0 0)
(0 0 0)
(0 0 0)
(0 0 0)
(0 0 0)
(0 0 0)
(0 0 0)
(0 0 0)
(0 0 0)
(0 0 0)
(0 0 0)
(0 0 0)
(0 0 0)
(0 0 0)
(0 0 0)
(0 0 0)
(0 0 0)
(0 0 0)
(0 0 0)
(0 0 0)
(0 0 0)
(0 0 0)
(0 0 0)
(0 0 0)
(0 0 0)
(0 0 0)
(0 0 0)
(0 0 0)
(0 0 0)
(0 0 0)
(0 0 0)
(0 0 0)
(0 0 0)
(0 0 0)
(0 0 0)
(0 0 0)
(0 0 0)
(0 0 0)
(0 0 0)
(0 0 0)
(0 0 0)
(0 0 0)
(0 0 0)
(0 0 0)
(0 0 0)
(0 0 0)
(0 0 0)
(0 0 0)
(0 0 0)
(0 0 0)
(0 0 0)
(0 0 0)
(0 0 0)
(0 0 0)
(0 0 0)
(0 0 0)
(0 0 0)
(0 0 0)
(0 0 0)
(0 0 0)
(0 0 0)
(0 0 0)
(0 0 0)
(0 0 0)
(0 0 0)
(0 0 0)
(0 0 0)
(0 0 0)
(0 0 0)
(0 0 0)
(0 0 0)
(0 0 0)
(0 0 0)
(0 0 0)
(0 0 0)
(0 0 0)
(0 0 0)
(0 0 0)
(0 0 0)
(0 0 0)
(0 0 0)
(0 0 0)
(0 0 0)
(0 0 0)
(0 0 0)
(0 0 0)
(0 0 0)
(0 0 0)
(0 0 0)
(0 0 0)
(0 0 0)
(0 0 0)
(0 0 0)
(0 0 0)
(0 0 0)
(0 0 0)
(0 0 0)
(-0.000616028358538 1.44254188478e-06 0)
(0 0 0)
(0 0 0)
(0 0 0)
(0 0 0)
(-2.94548661363e-05 -1.09689574138e-08 0)
(0 0 0)
(-3.13336019834e-06 -3.05874252604e-09 0)
(0 0 0)
(0 0 0)
(0 0 0)
(0 0 0)
(0 0 0)
(0 0 0)
(0 0 0)
(0 0 0)
(0 0 0)
(0 0 0)
(0 0 0)
(0 0 0)
(-0.0398205574955 -0.00274480206066 0.003377579171)
(0 0 0)
(0 0 0)
(0 0 0)
(-0.0362856366995 0.000127875471577 0)
(0 0 0)
(0 0 0)
(-0.261000871875 -0.0335364588659 0.0398755849611)
(-2.12041410103 -0.301494234877 0.357404406332)
(-0.0987031503123 0.000347843197485 0)
(-1.60685139559 -0.0963842185697 0.117938794929)
(-0.00720785513924 2.03026295018e-06 0)
(-0.0987102857748 0.000347868343816 0)
(0 0 0)
(0 0 0)
(0 0 0)
(0 0 0)
(0 0 0)
(-0.0188019658968 0.000112984529769 0)
(0 0 0)
(0 0 0)
(0 0 0)
(-0.036219829317 0.000127643557497 0)
(0 0 0)
(0 0 0)
(0 0 0)
(0 0 0)
(0 0 0)
(0 0 0)
(0 0 0)
(0 0 0)
(-1.68672305191e-05 -1.72120095457e-09 0)
(0 0 0)
(-1.02301520502e-05 -1.04392641426e-09 0)
(-0.000142901448978 1.68453780315e-07 0)
(-0.000640440186517 7.54957848615e-07 0)
(-8.66746144489e-05 1.02172977011e-07 0)
(-0.000388451480699 4.57910824982e-07 0)
(0 0 0)
(0 0 0)
(-6.74692718883e-05 7.46160024786e-09 0)
(0 0 0)
(0 0 0)
(0 0 0)
(0 0 0)
(0 0 0)
(0 0 0)
(-0.00253083193563 5.92640098445e-06 0)
(-0.000100901231703 1.45737896694e-07 0)
(-0.000452236249048 1.05899301879e-06 0)
(-3.09690226544e-05 2.31031156221e-08 0)
(-0.000142934673683 1.68492945958e-07 0)
(-4.28781914383e-06 -4.18570924791e-09 0)
(-3.09691410955e-05 2.310320398e-08 0)
(0 0 0)
(0 0 0)
(0 0 0)
(0 0 0)
(0 0 0)
(-4.38466207338e-05 4.84911052067e-09 0)
(0 0 0)
(0 0 0)
(0 0 0)
(0 0 0)
(0 0 0)
(0 0 0)
(0 0 0)
(0 0 0)
(0 0 0)
(0 0 0)
(0 0 0)
(0 0 0)
(0 0 0)
(0 0 0)
(0 0 0)
(0 0 0)
(0 0 0)
(0 0 0)
(0 0 0)
(0 0 0)
(-0.00582222079511 2.32105692585e-06 0)
(0 0 0)
(0 0 0)
(0 0 0)
(0 0 0)
(0 0 0)
(-0.00560296568943 1.5782078622e-06 0)
(0 0 0)
(0 0 0)
(0 0 0)
(0 0 0)
(0 0 0)
(0 0 0)
(0 0 0)
(0 0 0)
(0 0 0)
(0 0 0)
(0 0 0)
(0 0 0)
(0 0 0)
(0 0 0)
(0 0 0)
(0 0 0)
(0 0 0)
(0 0 0)
(0 0 0)
(0 0 0)
(0 0 0)
(0 0 0)
(-0.0420334166381 0.000187248195429 0)
(-0.0105348914483 2.18932035673e-05 0)
(-0.0174056674277 3.61717842173e-05 0)
(-0.0116762554298 2.96881968362e-05 0)
(-0.0224988651604 0.000100226730003 0)
(0 0 0)
(0 0 0)
(0 0 0)
(0 0 0)
(0 0 0)
(0 0 0)
(0 0 0)
(0 0 0)
(0 0 0)
(0 0 0)
(-0.0063565533814 1.79047366682e-06 0)
(0 0 0)
(-0.00909346236487 2.31211540577e-05 0)
(0 0 0)
(0 0 0)
(-0.662077179327 -0.0770785309872 0.0919068195546)
(-0.374935350065 -0.0385930120355 0.0462424126115)
(-0.351132404062 -0.0152247294088 0.0190110434255)
(-0.0528999668048 0.000186426608897 0)
(-1.59255993256 -0.204481125954 0.243184409028)
(-0.127971079281 -0.00918576951468 0.0111785346851)
(-0.15122930244 -0.0028406823587 0.00388605328229)
(-1.76369171409 -0.220828185005 0.262705953443)
(-7.05506741031 -0.932503392814 1.10808899336)
(-0.887634774574 -0.0551956478584 0.0673885209884)
(-0.759204917441 -0.0348624418991 0.0433598817654)
(-4.19254444376 -0.564225514357 0.670049135549)
(-0.406479356465 -0.0183603866059 0.0228535569289)
(-2.9941901481 -0.36707281254 0.437037028076)
(-0.176499662797 -0.0148899315051 0.0179802345689)
(-0.0103042328376 2.61996745932e-05 0)
(-0.0249729936922 8.80081937524e-05 0)
(-0.0249909848552 8.80715970341e-05 0)
(-0.0288890616056 0.000128693432177 0)
(-0.028889049434 0.000128693377956 0)
(-0.0599107125391 0.000211133421246 0)
(-0.495016299569 -0.0505978401395 0.0606096492259)
(-0.180859976016 -0.00830511457922 0.0104455576433)
(-0.272199351247 -0.00336310562698 0.00499213435694)
(-0.0528892546258 0.000186388857736 0)
(-0.0860390952801 -0.00308723741061 0.00397076126426)
(-0.132131687484 -0.000185738407554 0.000747692053953)
(-0.849402184397 -0.0832715194948 0.0999284204585)
(0 0 0)
(0 0 0)
(0 0 0)
(0 0 0)
(0 0 0)
(0 0 0)
(0 0 0)
(0 0 0)
(0 0 0)
(0 0 0)
(0 0 0)
(0 0 0)
(0 0 0)
(0 0 0)
(0 0 0)
(0 0 0)
(0 0 0)
(0 0 0)
(0 0 0)
(0 0 0)
(0 0 0)
(0 0 0)
(0 0 0)
(-0.00634620140306 1.78755778718e-06 0)
(0 0 0)
(-0.00909343903637 2.31210947423e-05 0)
(0 0 0)
(0 0 0)
(0 0 0)
(-0.0420332725199 0.000187247553419 0)
(-0.017348320521 3.60526080959e-05 0)
(-0.0105363013761 2.18961336247e-05 0)
(-0.0224987809815 0.000100226355007 0)
(0 0 0)
(-0.0116762206838 2.96881084905e-05 0)
(0 0 0)
(0 0 0)
(0 0 0)
(0 0 0)
(0 0 0)
(0 0 0)
(0 0 0)
(0 0 0)
(0 0 0)
(0 0 0)
(0 0 0)
(0 0 0)
(0 0 0)
(0 0 0)
(0 0 0)
(0 0 0)
(0 0 0)
(0 0 0)
(0 0 0)
(0 0 0)
(0 0 0)
(0 0 0)
(0 0 0)
(0 0 0)
(0 0 0)
(0 0 0)
(0 0 0)
(0 0 0)
(0 0 0)
(0 0 0)
(0 0 0)
(0 0 0)
(0 0 0)
(0 0 0)
(0 0 0)
(0 0 0)
(-0.0186535469337 0.000119650142624 0)
(0 0 0)
(0 0 0)
(0 0 0)
(0 0 0)
(0 0 0)
(0 0 0)
(0 0 0)
(-0.00416216101821 2.6697504835e-05 0)
(0 0 0)
(0 0 0)
(0 0 0)
(0 0 0)
(0 0 0)
(0 0 0)
(0 0 0)
(0 0 0)
(0 0 0)
(0 0 0)
(0 0 0)
(0 0 0)
(0 0 0)
(0 0 0)
(0 0 0)
(0 0 0)
(0 0 0)
(0 0 0)
(0 0 0)
(0 0 0)
(0 0 0)
(0 0 0)
(0 0 0)
(0 0 0)
(0 0 0)
(0 0 0)
(0 0 0)
(-0.401191745967 0.00313886611078 0)
(-0.00957708220722 6.14306360119e-05 0)
(0 0 0)
(0 0 0)
(0 0 0)
(0 0 0)
(0 0 0)
(0 0 0)
(-0.0883536853649 0.000698225886814 0)
(0 0 0)
(0 0 0)
(0 0 0)
(0 0 0)
(0 0 0)
(0 0 0)
(0 0 0)
(0 0 0)
(0 0 0)
(0 0 0)
(0 0 0)
(0 0 0)
(0 0 0)
(0 0 0)
(0 0 0)
(0 0 0)
(0 0 0)
(0 0 0)
(0 0 0)
(0 0 0)
(0 0 0)
(0 0 0)
(0 0 0)
(0 0 0)
(0 0 0)
(0 0 0)
(0 0 0)
(-1.8605495644 0.0163342465775 0)
(-0.052962471704 0.000480077800518 0)
(0 0 0)
(0 0 0)
(0 0 0)
(0 0 0)
(0 0 0)
(0 0 0)
(-0.407566427734 0.00353147989135 0)
(-0.00839253148764 8.64107206281e-05 0)
(0 0 0)
(0 0 0)
(0 0 0)
(0 0 0)
(0 0 0)
(0 0 0)
(0 0 0)
(0 0 0)
(0 0 0)
(0 0 0)
(0 0 0)
(0 0 0)
(0 0 0)
(0 0 0)
(0 0 0)
(0 0 0)
(0 0 0)
(0 0 0)
(0 0 0)
(0 0 0)
(0 0 0)
(0 0 0)
(0 0 0)
(0 0 0)
(0 0 0)
(0 0 0)
(0 0 0)
(0 0 0)
(0 0 0)
(0 0 0)
(0 0 0)
(0 0 0)
(0 0 0)
(-3.01770667404 0.0182260333052 0)
(-0.0911268303277 0.000550378424395 0)
(0 0 0)
(0 0 0)
(0 0 0)
(0 0 0)
(0 0 0)
(0 0 0)
(-3.03872690356 0.0153682562154 0.00337757961462)
(-0.673341823445 0.00406678044802 0)
(-0.0188019729137 0.000112984571934 0)
(0 0 0)
(0 0 0)
(0 0 0)
(0 0 0)
(0 0 0)
(0 0 0)
(-0.0552712393389 0.000333821526682 0)
(-0.0911268875936 0.000550378770263 0)
(-0.0188019712435 0.000112984561898 0)
(0 0 0)
(0 0 0)
(0 0 0)
(0 0 0)
(0 0 0)
(0 0 0)
(0 0 0)
(0 0 0)
(0 0 0)
(0 0 0)
(0 0 0)
(0 0 0)
(0 0 0)
(0 0 0)
(0 0 0)
(0 0 0)
(0 0 0)
(0 0 0)
(0 0 0)
(0 0 0)
(0 0 0)
(0 0 0)
(0 0 0)
(0 0 0)
(0 0 0)
(0 0 0)
(-0.00648014322304 1.53357356051e-05 0)
(-0.000211684163361 4.95696777202e-07 0)
(0 0 0)
(0 0 0)
(0 0 0)
(0 0 0)
(0 0 0)
(0 0 0)
(-0.00602440130578 1.42571888343e-05 0)
(-0.00744229715179 1.76127436518e-05 0)
(-0.00136285837046 3.19137951226e-06 0)
(-3.45599266594e-05 3.82207114603e-09 0)
(0 0 0)
(0 0 0)
(0 0 0)
(0 0 0)
(0 0 0)
(0 0 0)
(-0.000125656153815 1.81492963511e-07 0)
(-0.00021317383934 4.99185123096e-07 0)
(-3.72600572278e-05 4.12068552787e-09 0)
(0 0 0)
(0 0 0)
(0 0 0)
(0 0 0)
(0 0 0)
(0 0 0)
(0 0 0)
(0 0 0)
(0 0 0)
(0 0 0)
(0 0 0)
(0 0 0)
(0 0 0)
(0 0 0)
(0 0 0)
(0 0 0)
(0 0 0)
(0 0 0)
(0 0 0)
(0 0 0)
(0 0 0)
(0 0 0)
(0 0 0)
(0 0 0)
(0 0 0)
(0 0 0)
(-0.000228004714711 4.00428274205e-09 0)
(-0.000228004657121 4.00428173063e-09 0)
(-2.94548945031e-05 -1.09689679776e-08 0)
(0 0 0)
(0 0 0)
(0 0 0)
(0 0 0)
(0 0 0)
(0 0 0)
(0 0 0)
(-2.94549946867e-05 -1.09690052858e-08 0)
(-2.94549393016e-05 -1.09689846605e-08 0)
(-3.13335554361e-06 -3.05873798216e-09 0)
(0 0 0)
(0 0 0)
(0 0 0)
(0 0 0)
(0 0 0)
(0 0 0)
(0 0 0)
(0 0 0)
(0 0 0)
(0 0 0)
(0 0 0)
(0 0 0)
(0 0 0)
(0 0 0)
(0 0 0)
(0 0 0)
(0 0 0)
(0 0 0)
(0 0 0)
(0 0 0)
(0 0 0)
(0 0 0)
(0 0 0)
(0 0 0)
(0 0 0)
(0 0 0)
(0 0 0)
(0 0 0)
(0 0 0)
(0 0 0)
(0 0 0)
(0 0 0)
(0 0 0)
(0 0 0)
(0 0 0)
(0 0 0)
(-0.00416217968694 2.66976245826e-05 0)
(-0.0113139284059 7.25713534381e-05 0)
(-0.00252447906895 1.61928603565e-05 0)
(-0.108208286443 0.000782640848438 0)
(-0.0220366084866 0.000141350240667 0)
(-0.0656316040136 0.000474695385519 0)
(-0.0133658610823 8.57331418243e-05 0)
(0 0 0)
(0 0 0)
(0 0 0)
(-0.00298233126964 1.91296788237e-05 0)
(0 0 0)
(0 0 0)
(0 0 0)
(0 0 0)
(0 0 0)
(0 0 0)
(-0.0220365197184 0.000141349671277 0)
(-0.00491701705307 3.15394060859e-05 0)
(-0.00491702836594 3.15394786504e-05 0)
(0 0 0)
(0 0 0)
(0 0 0)
(0 0 0)
(0 0 0)
(0 0 0)
(0 0 0)
(0 0 0)
(-0.088353936107 0.000698227868334 0)
(-0.243334684285 0.00190381532461 0)
(-0.0535893462179 0.00042349641254 0)
(-0.996554310429 0.00841905901207 0)
(-0.219767887899 0.00188108225655 0)
(-0.604440873517 0.00510641851648 0)
(-0.133295980096 0.00114093421666 0)
(0 0 0)
(-0.00580879149625 3.72595481958e-05 0)
(0 0 0)
(-0.0285781961878 0.000252428103548 0)
(0 0 0)
(-0.0154198078105 0.000137394472849 0)
(0 0 0)
(-0.0187318641694 0.000147729325771 0)
(-0.0187318533857 0.000147729240726 0)
(-0.00352321102922 2.25990640621e-05 0)
(-0.219767398421 0.00188107806691 0)
(-0.0471174647246 0.000416183449307 0)
(-0.0471174525961 0.000416183342178 0)
(-0.00935258351995 8.33339363427e-05 0)
(0 0 0)
(0 0 0)
(0 0 0)
(-0.00416218234011 2.66976416009e-05 0)
(0 0 0)
(0 0 0)
(0 0 0)
(-0.40756652116 0.00353148070087 0)
(-1.10787959498 0.00959955051617 0)
(-0.247201561718 0.00214195106592 0)
(-2.67575780536 0.0211893568668 0)
(-0.589464027288 0.00461480169653 0)
(-1.6023267537 0.0125443112371 0)
(-0.357527926734 0.00279901810199 0)
(0 0 0)
(-0.032123320604 0.000291181521646 0)
(0 0 0)
(-0.0797753511697 0.000624546043315 0)
(0 0 0)
(-0.0483861263919 0.000378805775798 0)
(0 0 0)
(-0.0909403490966 0.000787979559388 0)
(-0.0909403803752 0.000787979830411 0)
(-0.0175644411096 0.000173068161596 0)
(-0.589463209624 0.0046147952952 0)
(-0.13152714558 0.00102970099355 0)
(-0.131527202958 0.00102970144276 0)
(-0.0293477013865 0.000229757569381 0)
(0 0 0)
(0 0 0)
(0 0 0)
(-0.0159416363058 0.000141169228815 0)
(0 0 0)
(0 0 0)
(0 0 0)
(-8.45393965011 0.0532916467447 0)
(-5.00931056576 0.0305568407989 0)
(-5.34321398264 0.0190897505969 0)
(-2.53927516193 0.00907209213324 0)
(-0.673341752125 0.00406678001727 0)
(-1.83033218722 0.0110546514314 0)
(-0.408402531807 0.0024666274594 0)
(-3.20909980222 0.0114651808937 0)
(-0.342802689666 0.00122473437727 0)
(-1.52439347607 0.00544621483703 0)
(-0.162255102195 0.000579690321973 0)
(0 0 0)
(-0.0552712536121 0.000333821612888 0)
(0 0 0)
(-0.12279563366 0.000432748354173 0)
(0 0 0)
(-0.0582154571574 0.000205159112922 0)
(0 0 0)
(0 0 0)
(0 0 0)
(0 0 0)
(0 0 0)
(0 0 0)
(0 0 0)
(0 0 0)
(0 0 0)
(0 0 0)
(0 0 0)
(0 0 0)
(0 0 0)
(0 0 0)
(0 0 0)
(0 0 0)
(0 0 0)
(0 0 0)
(0 0 0)
(0 0 0)
(0 0 0)
(0 0 0)
(0 0 0)
(0 0 0)
(0 0 0)
(0 0 0)
(0 0 0)
(0 0 0)
(0 0 0)
(0 0 0)
(0 0 0)
(0 0 0)
(0 0 0)
(0 0 0)
(0 0 0)
(0 0 0)
(0 0 0)
(0 0 0)
(0 0 0)
(0 0 0)
(0 0 0)
(0 0 0)
(0 0 0)
(-2.37857470384 -0.299935174263 0.35740457821)
(-0.900818559266 -0.029672145735 0.0398755755356)
(-2.2141701644 -0.0937169571252 0.117364272368)
(-3.28922526825 0.011751445896 0)
(-0.16497068031 0.000589392293318 0)
(-0.347695327405 0.00124221434991 0)
(-1.83033078386 0.0110546429556 0)
(-0.673341591277 0.0040667790458 0)
(-0.408402471561 0.00246662709554 0)
(-3.24518114022 0.0115940890276 0)
(-1.54351460492 0.00551452907299 0)
(-0.34357971267 0.00122751045463 0)
(-0.163127244684 0.000582806233607 0)
(-0.150242912544 0.000907421636252 0)
(-0.150242865513 0.000907421352202 0)
(-0.0335236943493 0.00020247294907 0)
(-0.92706975249 0.00331215078012 0)
(-0.0969605163256 0.000341701920574 0)
(-0.0962487653357 0.00033919361421 0)
(-0.00709174248122 1.99755707262e-06 0)
(0 0 0)
(0 0 0)
(0 0 0)
(-0.0353641958837 0.00012462819002 0)
(0 0 0)
(0 0 0)
(0 0 0)
(0 0 0)
(0 0 0)
(0 0 0)
(0 0 0)
(0 0 0)
(0 0 0)
(0 0 0)
(0 0 0)
(0 0 0)
(0 0 0)
(0 0 0)
(0 0 0)
(0 0 0)
(0 0 0)
(0 0 0)
(0 0 0)
(0 0 0)
(0 0 0)
(0 0 0)
(0 0 0)
(0 0 0)
(0 0 0)
(0 0 0)
(0 0 0)
(0 0 0)
(0 0 0)
(0 0 0)
(0 0 0)
(0 0 0)
(0 0 0)
(0 0 0)
(0 0 0)
(0 0 0)
(0 0 0)
(0 0 0)
(0 0 0)
(0 0 0)
(0 0 0)
(0 0 0)
(0 0 0)
(0 0 0)
(0 0 0)
(-0.0911269499029 0.000550379146593 0)
(0 0 0)
(0 0 0)
(-0.0595483776038 0.000209856504126 0)
(-0.12576099741 0.000443198695478 0)
(0 0 0)
(0 0 0)
(-0.0552713142096 0.000333821978879 0)
(0 0 0)
(0 0 0)
(-0.124528111108 0.000438853838074 0)
(-0.0590685575105 0.000208165553483 0)
(0 0 0)
(0 0 0)
(0 0 0)
(0 0 0)
(0 0 0)
(-0.0354783030853 0.000125030319169 0)
(0 0 0)
(0 0 0)
(0 0 0)
(0 0 0)
(0 0 0)
(0 0 0)
(0 0 0)
(0 0 0)
(0 0 0)
(0 0 0)
(0 0 0)
(0 0 0)
(0 0 0)
(0 0 0)
(0 0 0)
(0 0 0)
(0 0 0)
(0 0 0)
(0 0 0)
(0 0 0)
(0 0 0)
(0 0 0)
(0 0 0)
(0 0 0)
(0 0 0)
(0 0 0)
(0 0 0)
(0 0 0)
(0 0 0)
(0 0 0)
(0 0 0)
(0 0 0)
(0 0 0)
(0 0 0)
(0 0 0)
(0 0 0)
(0 0 0)
(0 0 0)
(0 0 0)
(0 0 0)
(0 0 0)
(0 0 0)
(0 0 0)
(0 0 0)
(0 0 0)
(0 0 0)
(0 0 0)
(0 0 0)
(0 0 0)
(0 0 0)
(0 0 0)
(0 0 0)
(0 0 0)
(0 0 0)
(0 0 0)
(0 0 0)
(0 0 0)
(0 0 0)
(0 0 0)
(0 0 0)
(0 0 0)
(0 0 0)
(0 0 0)
(0 0 0)
(0 0 0)
(0 0 0)
(0 0 0)
(0 0 0)
(0 0 0)
(0 0 0)
(0 0 0)
(0 0 0)
(0 0 0)
(0 0 0)
(0 0 0)
(0 0 0)
(0 0 0)
(0 0 0)
(0 0 0)
(0 0 0)
(0 0 0)
(0 0 0)
(0 0 0)
(0 0 0)
(0 0 0)
(0 0 0)
(0 0 0)
(0 0 0)
(0 0 0)
(0 0 0)
(0 0 0)
(0 0 0)
(0 0 0)
(0 0 0)
(0 0 0)
(0 0 0)
(0 0 0)
(0 0 0)
(0 0 0)
(0 0 0)
(0 0 0)
(0 0 0)
(0 0 0)
(0 0 0)
(0 0 0)
(0 0 0)
(0 0 0)
(0 0 0)
(0 0 0)
(0 0 0)
(0 0 0)
(0 0 0)
(0 0 0)
(0 0 0)
(0 0 0)
(0 0 0)
(0 0 0)
(0 0 0)
(0 0 0)
(0 0 0)
(0 0 0)
(0 0 0)
(0 0 0)
(0 0 0)
(0 0 0)
(0 0 0)
(0 0 0)
(0 0 0)
(0 0 0)
(0 0 0)
(0 0 0)
(0 0 0)
(0 0 0)
(0 0 0)
(0 0 0)
(0 0 0)
(0 0 0)
(0 0 0)
(0 0 0)
(0 0 0)
(0 0 0)
(0 0 0)
(0 0 0)
(0 0 0)
(0 0 0)
(0 0 0)
(0 0 0)
(0 0 0)
(0 0 0)
(0 0 0)
(0 0 0)
(0 0 0)
(0 0 0)
(0 0 0)
(0 0 0)
(0 0 0)
(0 0 0)
(0 0 0)
(0 0 0)
(0 0 0)
(0 0 0)
(0 0 0)
(0 0 0)
(0 0 0)
(0 0 0)
(0 0 0)
(0 0 0)
(0 0 0)
(0 0 0)
(0 0 0)
(0 0 0)
(0 0 0)
(0 0 0)
(-0.00174346439727 2.06845106354e-06 0)
(-0.00287650134652 3.41268928623e-06 0)
(-0.00105598925626 1.24481160591e-06 0)
(-0.00174489715553 2.07015089197e-06 0)
(-0.0171742313539 4.06440818049e-05 0)
(-0.00917415629307 2.17113157021e-05 0)
(-0.00287474394352 3.41060429837e-06 0)
(-0.00174407106115 2.06917081127e-06 0)
(-0.00174477820651 2.07000977052e-06 0)
(-0.00105600931391 1.24483525008e-06 0)
(-0.00162216688675 3.79859733047e-06 0)
(-0.00382132444298 9.04344538411e-06 0)
(-0.000897800266584 2.10236180001e-06 0)
(-0.000640525647776 7.55058591275e-07 0)
(-0.000142921202422 1.68477065889e-07 0)
(-0.000388557527419 4.58035834008e-07 0)
(-8.66967824214e-05 1.02199108858e-07 0)
(0 0 0)
(-0.000118584468027 1.71278889852e-07 0)
(0 0 0)
(-1.68666846785e-05 -1.72114525477e-09 0)
(0 0 0)
(-1.0233644004e-05 -1.04428274746e-09 0)
(0 0 0)
(0 0 0)
(0 0 0)
(0 0 0)
(0 0 0)
(0 0 0)
(0 0 0)
(0 0 0)
(0 0 0)
(0 0 0)
(0 0 0)
(0 0 0)
(0 0 0)
(0 0 0)
(0 0 0)
(0 0 0)
(0 0 0)
(0 0 0)
(0 0 0)
(0 0 0)
(0 0 0)
(0 0 0)
(0 0 0)
(0 0 0)
(0 0 0)
(0 0 0)
(0 0 0)
(0 0 0)
(0 0 0)
(0 0 0)
(0 0 0)
(0 0 0)
(0 0 0)
(0 0 0)
(0 0 0)
(0 0 0)
(0 0 0)
(0 0 0)
(0 0 0)
(0 0 0)
(0 0 0)
(0 0 0)
(0 0 0)
(-0.00929983336149 2.20087397291e-05 0)
(-0.00124480060073 2.91492587941e-06 0)
(-0.001701574988 3.98454577011e-06 0)
(-0.000388473651713 4.57936960415e-07 0)
(-0.000640920593074 7.55524157082e-07 0)
(-8.67947606554e-05 1.02314606664e-07 0)
(-0.000142906304468 1.6845950402e-07 0)
(-0.00413836726679 9.79375054778e-06 0)
(-0.00181036456106 4.23929624319e-06 0)
(-0.000920929102862 2.1565221558e-06 0)
(-0.000640649125034 7.55204147608e-07 0)
(-0.000388633522584 4.58125417934e-07 0)
(-0.000142994809972 1.68563835269e-07 0)
(-8.66747488448e-05 1.02173135438e-07 0)
(-0.000323481531457 7.57490546679e-07 0)
(-0.000360213032201 8.43504003008e-07 0)
(-7.00580705795e-05 1.01189209293e-07 0)
(-0.000142923962522 1.68480319525e-07 0)
(-3.09777436817e-05 2.31096215718e-08 0)
(-3.09774167125e-05 2.31093776504e-08 0)
(-4.28281019347e-06 -4.18081958042e-09 0)
(0 0 0)
(0 0 0)
(0 0 0)
(0 0 0)
(0 0 0)
(0 0 0)
(0 0 0)
(0 0 0)
(0 0 0)
(0 0 0)
(0 0 0)
(0 0 0)
(0 0 0)
(0 0 0)
(0 0 0)
(0 0 0)
(0 0 0)
(0 0 0)
(0 0 0)
(0 0 0)
(0 0 0)
(0 0 0)
(0 0 0)
(0 0 0)
(0 0 0)
(0 0 0)
(0 0 0)
(0 0 0)
(0 0 0)
(0 0 0)
(0 0 0)
(0 0 0)
(0 0 0)
(0 0 0)
(0 0 0)
(0 0 0)
(0 0 0)
(0 0 0)
(0 0 0)
(0 0 0)
(0 0 0)
(0 0 0)
(0 0 0)
(0 0 0)
(0 0 0)
(0 0 0)
(0 0 0)
(0 0 0)
(0 0 0)
(-0.000243618247331 5.70476213961e-07 0)
(0 0 0)
(0 0 0)
(-1.02302635755e-05 -1.04393779475e-09 0)
(-1.68817222414e-05 -1.72267974899e-09 0)
(0 0 0)
(0 0 0)
(-0.000140346803276 2.02711578163e-07 0)
(0 0 0)
(0 0 0)
(-1.68668199011e-05 -1.72115905343e-09 0)
(-1.02344419147e-05 -1.04436416952e-09 0)
(0 0 0)
(0 0 0)
(0 0 0)
(0 0 0)
(0 0 0)
(0 0 0)
(0 0 0)
(0 0 0)
(0 0 0)
(0 0 0)
(0 0 0)
(0 0 0)
(0 0 0)
(0 0 0)
(0 0 0)
(0 0 0)
(0 0 0)
(0 0 0)
(0 0 0)
(0 0 0)
(0 0 0)
(0 0 0)
(0 0 0)
(0 0 0)
(0 0 0)
(0 0 0)
(0 0 0)
(0 0 0)
(0 0 0)
(0 0 0)
(0 0 0)
(0 0 0)
(0 0 0)
(0 0 0)
(0 0 0)
(0 0 0)
(0 0 0)
(0 0 0)
(0 0 0)
(0 0 0)
(0 0 0)
(0 0 0)
(0 0 0)
(0 0 0)
(0 0 0)
(0 0 0)
(0 0 0)
(0 0 0)
(0 0 0)
(0 0 0)
(0 0 0)
(0 0 0)
(0 0 0)
(0 0 0)
(0 0 0)
(0 0 0)
(0 0 0)
(0 0 0)
(0 0 0)
(0 0 0)
(0 0 0)
(0 0 0)
(0 0 0)
(0 0 0)
(0 0 0)
(0 0 0)
(0 0 0)
(0 0 0)
(0 0 0)
(0 0 0)
(0 0 0)
(0 0 0)
(0 0 0)
(0 0 0)
(0 0 0)
(0 0 0)
(0 0 0)
(0 0 0)
(0 0 0)
(0 0 0)
(0 0 0)
(0 0 0)
(0 0 0)
(0 0 0)
(0 0 0)
(0 0 0)
(0 0 0)
(0 0 0)
(0 0 0)
(0 0 0)
(0 0 0)
(0 0 0)
(0 0 0)
(0 0 0)
(0 0 0)
(0 0 0)
(0 0 0)
(0 0 0)
(0 0 0)
(0 0 0)
(0 0 0)
(0 0 0)
(0 0 0)
(0 0 0)
(0 0 0)
(0 0 0)
(0 0 0)
(0 0 0)
(0 0 0)
(0 0 0)
(0 0 0)
(0 0 0)
(0 0 0)
(0 0 0)
(0 0 0)
(0 0 0)
(0 0 0)
(0 0 0)
(0 0 0)
(0 0 0)
(0 0 0)
(0 0 0)
(0 0 0)
(0 0 0)
(0 0 0)
(0 0 0)
(0 0 0)
(0 0 0)
(0 0 0)
(0 0 0)
(0 0 0)
(0 0 0)
(0 0 0)
(0 0 0)
(0 0 0)
(0 0 0)
(0 0 0)
(0 0 0)
(0 0 0)
(0 0 0)
(0 0 0)
(0 0 0)
(0 0 0)
(0 0 0)
(0 0 0)
(0 0 0)
(0 0 0)
(0 0 0)
(0 0 0)
(0 0 0)
(0 0 0)
(0 0 0)
(0 0 0)
(0 0 0)
(0 0 0)
(0 0 0)
(0 0 0)
(0 0 0)
(0 0 0)
(0 0 0)
(0 0 0)
(0 0 0)
(0 0 0)
(0 0 0)
(0 0 0)
(0 0 0)
(0 0 0)
(0 0 0)
(0 0 0)
(0 0 0)
(0 0 0)
(0 0 0)
(0 0 0)
(0 0 0)
(0 0 0)
(0 0 0)
(0 0 0)
(0 0 0)
(0 0 0)
(0 0 0)
(0 0 0)
(0 0 0)
(0 0 0)
(0 0 0)
(-8.29361135355 0.0376883061373 0)
(-6.44196268969 0.0290964812428 0)
(-7.84315836194 0.0280213252749 0)
(-4.75219942729 0.0169782273643 0)
(-5.68498200624 0.0256774185567 0)
(-6.82115015208 0.0243699869797 0)
(-9.4092023254 0.0428753171345 0)
(-6.44196660856 0.0290964989432 0)
(-3.04298338257 0.0137442753363 0)
(-3.70309081647 0.013230067213 0)
(-3.72996698368 0.0133260879471 0)
(-4.42749820922 0.0199977281463 0)
(-4.42750357101 0.019997752364 0)
(-5.32710635469 0.0190322027237 0)
(-1.84565232958 0.00833627746312 0)
(-3.90725384808 0.0176479349195 0)
(-1.74850469582 0.00624689908903 0)
(-2.8916916242 0.0103311737258 0)
(-3.44815185807 0.0155743040892 0)
(-1.53230620948 0.00547448473373 0)
(-2.09140982127 0.00944629293381 0)
(-0.871824744606 0.00393778007579 0)
(-0.411820924692 0.00186007594081 0)
(-0.830144796219 0.00296586608184 0)
(-0.304374042644 0.00108743999045 0)
(-0.363431803556 0.00164151628387 0)
(-0.71740023419 0.00256306253003 0)
(-0.987912161707 0.00446211334453 0)
(-1.43740371282 0.00649233660348 0)
(-1.84566290241 0.00833632521752 0)
(-2.25177864523 0.00804495063766 0)
(-0.828048219427 0.00295837562231 0)
(-2.6854111318 0.0121292249566 0)
(-0.987912161707 0.00446211334453 0)
(-1.19530444897 0.00427047539033 0)
(-0.67897595703 0.00306673791043 0)
(-0.194531438716 0.000878642213622 0)
(-0.237425244142 0.000848251391541 0)
(-0.392780409601 0.00140329024497 0)
(-0.283040795476 0.00127841336456 0)
(-0.466658327413 0.00210776061962 0)
(-0.559993101039 0.00200069259242 0)
(-0.0420331156514 0.000187246854609 0)
(-0.151501064658 0.000684286466473 0)
(-0.0404980722941 0.000142720662047 0)
(-0.110750848735 0.000390300909608 0)
(-0.133699226545 0.000603880715355 0)
(-0.0356173231812 0.000125520244713 0)
(-0.0476298019808 0.000212178670754 0)
(-0.0103041667718 2.61995066134e-05 0)
(0 0 0)
(-0.0104562507603 2.1729775534e-05 0)
(0 0 0)
(0 0 0)
(-0.00699711909742 1.97090415762e-06 0)
(-0.0116761899347 2.96880303072e-05 0)
(-0.0327354948732 0.000145828315463 0)
(-0.0715641169652 0.000323234406537 0)
(-0.0863114546461 0.000304173192736 0)
(-0.0171865295329 3.57163803279e-05 0)
(-0.104124807963 0.000470301625102 0)
(-0.022498797462 0.000100226428423 0)
(-0.0277697764204 9.78644328265e-05 0)
(-0.00582216998016 2.32103666822e-06 0)
(0 0 0)
(0 0 0)
(0 0 0)
(0 0 0)
(0 0 0)
(-0.00545795326246 1.5373616809e-06 0)
(0 0 0)
(0 0 0)
(0 0 0)
(0 0 0)
(0 0 0)
(0 0 0)
(0 0 0)
(0 0 0)
(0 0 0)
(0 0 0)
(0 0 0)
(0 0 0)
(0 0 0)
(0 0 0)
(0 0 0)
(0 0 0)
(0 0 0)
(0 0 0)
(0 0 0)
(0 0 0)
(0 0 0)
(0 0 0)
(0 0 0)
(0 0 0)
(0 0 0)
(0 0 0)
(0 0 0)
(0 0 0)
(0 0 0)
(0 0 0)
(0 0 0)
(0 0 0)
(0 0 0)
(0 0 0)
(0 0 0)
(0 0 0)
(0 0 0)
(0 0 0)
(0 0 0)
(0 0 0)
(0 0 0)
(0 0 0)
(0 0 0)
(0 0 0)
(0 0 0)
(0 0 0)
(0 0 0)
(0 0 0)
(0 0 0)
(0 0 0)
(0 0 0)
(0 0 0)
(0 0 0)
(0 0 0)
(0 0 0)
(0 0 0)
(0 0 0)
(0 0 0)
(0 0 0)
(0 0 0)
(0 0 0)
(0 0 0)
(0 0 0)
(0 0 0)
(0 0 0)
(0 0 0)
(0 0 0)
(0 0 0)
(0 0 0)
(0 0 0)
(0 0 0)
(0 0 0)
(0 0 0)
(0 0 0)
(0 0 0)
(0 0 0)
(0 0 0)
(0 0 0)
(0 0 0)
(0 0 0)
(0 0 0)
(0 0 0)
(0 0 0)
(0 0 0)
(0 0 0)
(0 0 0)
(0 0 0)
(0 0 0)
(0 0 0)
(0 0 0)
(0 0 0)
(0 0 0)
(0 0 0)
(0 0 0)
(0 0 0)
(0 0 0)
(0 0 0)
(0 0 0)
(0 0 0)
(0 0 0)
(0 0 0)
(0 0 0)
(0 0 0)
(0 0 0)
(0 0 0)
(0 0 0)
(0 0 0)
(0 0 0)
(0 0 0)
(0 0 0)
(0 0 0)
(0 0 0)
(0 0 0)
(0 0 0)
(0 0 0)
(0 0 0)
(0 0 0)
(0 0 0)
(0 0 0)
(0 0 0)
(0 0 0)
(0 0 0)
(0 0 0)
(0 0 0)
(0 0 0)
(0 0 0)
(0 0 0)
(0 0 0)
(0 0 0)
(0 0 0)
(0 0 0)
(0 0 0)
(0 0 0)
(0 0 0)
(0 0 0)
(0 0 0)
(0 0 0)
(0 0 0)
(0 0 0)
(0 0 0)
(0 0 0)
(0 0 0)
(0 0 0)
(0 0 0)
(0 0 0)
(0 0 0)
(0 0 0)
(0 0 0)
(0 0 0)
(0 0 0)
(0 0 0)
(0 0 0)
(0 0 0)
(0 0 0)
(0 0 0)
(0 0 0)
(0 0 0)
(0 0 0)
(0 0 0)
(0 0 0)
(0 0 0)
(0 0 0)
(0 0 0)
(0 0 0)
(0 0 0)
(0 0 0)
(0 0 0)
(0 0 0)
(-2.88037486726 -0.21578504842 0.26270664015)
(-7.7812654617 -0.929221491887 1.10808683953)
(-2.65702492384 -0.0487359479855 0.0672289792745)
(-1.09039752702 -0.0336754928282 0.0433556188813)
(-6.27876603445 -0.554802227941 0.670048644678)
(-1.35080687715 -0.0148855047975 0.0227369695526)
(-3.38293665586 -0.365320803496 0.437041444913)
(-2.35623548152 -0.0694262699843 0.0919065461136)
(-4.16421301713 -0.0214778504436 0.0462423082257)
(-3.03690196401 -0.00558640447464 0.0189616090444)
(-1.7651032838 0.00630620101963 0)
(-4.75766578087 -0.190184828611 0.243183914822)
(-2.15821949597 -1.18883511145e-05 0.0111784809146)
(-1.57150819207 0.00229376946957 0.00382382413767)
(-1.02249765765 -0.0482154204949 0.0606097192074)
(-0.257402000256 -0.00795938892954 0.0104455490819)
(-0.428081582948 -0.00280200879955 0.00498732722894)
(-0.240686986808 0.000859904650087 0)
(-0.307922990667 -0.00208126801892 0.00397076765325)
(-0.580685931583 0.0014259528673 0.00074427549032)
(-1.03302245474 -0.0824425970521 0.0999289219829)
(-0.976764702824 -0.0112753422876 0.0179802074976)
(-0.411823049732 0.001860085539 0)
(-0.833948344509 0.0029794550544 0)
(-0.309165914482 0.0011045599558 0)
(-0.987909602328 0.00446210178456 0)
(-0.363433216908 0.00164152266757 0)
(-0.731884274046 0.00261480979476 0)
(-1.84566290241 0.00833632521752 0)
(-3.90725401459 0.0176479356716 0)
(-2.88906108697 0.0103217755809 0)
(-1.77030382814 0.00632478105307 0)
(-3.44811290837 0.0155741281647 0)
(-2.09140271055 0.00944626081677 0)
(-1.54628774168 0.00552443668466 0)
(-1.43739545558 0.00649229930788 0)
(-1.84566239319 0.00833632291753 0)
(-2.26042916313 0.00807585642391 0)
(-0.827603550336 0.00295678694889 0)
(-2.68541934794 0.0121292620666 0)
(-0.987905903098 0.0044620850762 0)
(-1.1893962705 0.00424936718582 0)
(-0.871828166003 0.00393779552925 0)
(-0.411823058994 0.00186008558084 0)
(-0.835095358569 0.00298355300227 0)
(-0.305926769479 0.00109298743214 0)
(-0.987911968493 0.00446211247184 0)
(-0.363432322776 0.00164151862904 0)
(-0.731494379654 0.00261341681542 0)
(-0.678975087842 0.00306673398456 0)
(-0.194531438716 0.000878642213622 0)
(-0.390945608876 0.00139673503525 0)
(-0.239553546488 0.000855855197246 0)
(-0.466656662236 0.0021077530985 0)
(-0.283041573206 0.00127841687734 0)
(-0.562836664215 0.00201085181719 0)
(-0.320727491232 0.00144863326321 0)
(-1.11944547368 0.00505621125057 0)
(-0.502640124282 0.00179578707566 0)
(-0.505272583255 0.00180519208647 0)
(-0.599199015178 0.00270640855057 0)
(-0.599198211072 0.00270640491866 0)
(-0.267985154083 0.000957433067762 0)
(-0.151500645692 0.000684284574124 0)
(-0.117989281859 0.00053292344148 0)
(-0.238459567441 0.000851946728071 0)
(-0.0521359612112 0.00018373415027 0)
(-0.283044268058 0.00127842904921 0)
(-0.0611579958527 0.000272443338548 0)
(-0.123225194894 0.000434262185825 0)
(-0.151500980916 0.000684286088237 0)
(-0.117989245294 0.000532923276325 0)
(-0.238592104892 0.000852420245862 0)
(-0.0521337794127 0.000183726461318 0)
(-0.283041573206 0.00127841687734 0)
(-0.0611580723031 0.000272443679115 0)
(-0.124715859682 0.000439515489338 0)
(-0.0715636626608 0.000323232354576 0)
(-0.0103042099956 2.61996165147e-05 0)
(-0.0246130298012 8.67396325118e-05 0)
(-0.0247936642168 8.73762125244e-05 0)
(-0.0288889733094 0.00012869303884 0)
(-0.0288890167864 0.000128693232519 0)
(-0.0583420133378 0.000205605113949 0)
(0 0 0)
(-0.0420330502671 0.000187246563339 0)
(-0.010419718937 2.16538565131e-05 0)
(-0.0172604218376 3.58699404551e-05 0)
(-0.0116762161818 2.96880970435e-05 0)
(-0.0224987730779 0.000100226319799 0)
(0 0 0)
(0 0 0)
(0 0 0)
(0 0 0)
(0 0 0)
(0 0 0)
(0 0 0)
(0 0 0)
(0 0 0)
(0 0 0)
(-0.00630301919375 1.77539449616e-06 0)
(0 0 0)
(-0.00909344024531 2.31210978162e-05 0)
(0 0 0)
(0 0 0)
(0 0 0)
(0 0 0)
(0 0 0)
(0 0 0)
(0 0 0)
(0 0 0)
(0 0 0)
(0 0 0)
(0 0 0)
(0 0 0)
(0 0 0)
(0 0 0)
(0 0 0)
(0 0 0)
(0 0 0)
(0 0 0)
(0 0 0)
(0 0 0)
(0 0 0)
(0 0 0)
(0 0 0)
(0 0 0)
(0 0 0)
(0 0 0)
(0 0 0)
(0 0 0)
(0 0 0)
(0 0 0)
(0 0 0)
(0 0 0)
(0 0 0)
(0 0 0)
(0 0 0)
(0 0 0)
(0 0 0)
(0 0 0)
(0 0 0)
(0 0 0)
(0 0 0)
(0 0 0)
(0 0 0)
(0 0 0)
(0 0 0)
(0 0 0)
(0 0 0)
(0 0 0)
(0 0 0)
(0 0 0)
(0 0 0)
(0 0 0)
(0 0 0)
(0 0 0)
(0 0 0)
(0 0 0)
(0 0 0)
(0 0 0)
(0 0 0)
(0 0 0)
(0 0 0)
(0 0 0)
(0 0 0)
(0 0 0)
(0 0 0)
(0 0 0)
(0 0 0)
(0 0 0)
(0 0 0)
(0 0 0)
(0 0 0)
(0 0 0)
(0 0 0)
(0 0 0)
(0 0 0)
(0 0 0)
(0 0 0)
(0 0 0)
(0 0 0)
(0 0 0)
(0 0 0)
(0 0 0)
(0 0 0)
(0 0 0)
(0 0 0)
(0 0 0)
(0 0 0)
(0 0 0)
(0 0 0)
(0 0 0)
(0 0 0)
(0 0 0)
(0 0 0)
(0 0 0)
(0 0 0)
(0 0 0)
(0 0 0)
(0 0 0)
(0 0 0)
(0 0 0)
(0 0 0)
(0 0 0)
(0 0 0)
(0 0 0)
(0 0 0)
(0 0 0)
(0 0 0)
(0 0 0)
(0 0 0)
(0 0 0)
(0 0 0)
(0 0 0)
(0 0 0)
(0 0 0)
(0 0 0)
(0 0 0)
(0 0 0)
(0 0 0)
(0 0 0)
(0 0 0)
(0 0 0)
(0 0 0)
(0 0 0)
(0 0 0)
(0 0 0)
(0 0 0)
(0 0 0)
(0 0 0)
(0 0 0)
(0 0 0)
(0 0 0)
(0 0 0)
(0 0 0)
(0 0 0)
(0 0 0)
(0 0 0)
(0 0 0)
(0 0 0)
(0 0 0)
(0 0 0)
(0 0 0)
(0 0 0)
(0 0 0)
(0 0 0)
(0 0 0)
(0 0 0)
(0 0 0)
(0 0 0)
(0 0 0)
(0 0 0)
(0 0 0)
(0 0 0)
(0 0 0)
(0 0 0)
(0 0 0)
(0 0 0)
(0 0 0)
(0 0 0)
(0 0 0)
(0 0 0)
(0 0 0)
(0 0 0)
(0 0 0)
(0 0 0)
(0 0 0)
(0 0 0)
(0 0 0)
(0 0 0)
(0 0 0)
(0 0 0)
(0 0 0)
(0 0 0)
(0 0 0)
(0 0 0)
(0 0 0)
(0 0 0)
(0 0 0)
(-0.0327355266409 0.00014582845698 0)
(-0.071564149741 0.000323234554576 0)
(-0.0867975482193 0.000305886251967 0)
(-0.0173830082115 3.61246947114e-05 0)
(-0.104124847821 0.00047030180513 0)
(-0.0281655689516 9.92592590217e-05 0)
(-0.0224987661658 0.000100226289007 0)
(-0.0420331787911 0.000187247135881 0)
(-0.151501134022 0.00068428677977 0)
(-0.111459641773 0.000392798791751 0)
(-0.0408608211004 0.000143999037705 0)
(-0.133698921364 0.000603879336943 0)
(-0.0476298346362 0.000212178816226 0)
(-0.035870023632 0.000126410795142 0)
(-0.0058222171082 2.32105545605e-06 0)
(0 0 0)
(0 0 0)
(0 0 0)
(0 0 0)
(-0.00557316250141 1.5698130891e-06 0)
(0 0 0)
(-0.0103041929853 2.61995732642e-05 0)
(0 0 0)
(-0.0104534389181 2.17239320724e-05 0)
(0 0 0)
(-0.0116762103507 2.96880822175e-05 0)
(0 0 0)
(-0.0071030219663 2.00073420649e-06 0)