/*--------------------------------*- C++ -*----------------------------------*\
| =========                 |                                                 |
| \\      /  F ield         | OpenFOAM: The Open Source CFD Toolbox           |
|  \\    /   O peration     | Version:  v1906                                 |
|   \\  /    A nd           | Web:      www.OpenFOAM.com                      |
|    \\/     M anipulation  |                                                 |
\*---------------------------------------------------------------------------*/
FoamFile
{
    version     2.0;
    format      ascii;
    class       volScalarField;
    location    "0.55";
    object      p;
}
// * * * * * * * * * * * * * * * * * * * * * * * * * * * * * * * * * * * * * //

dimensions      [1 -1 -2 0 0 0 0];


internalField   nonuniform List<scalar> 
28582
(
17115.9256867
17114.4215942
12218.2482619
12216.73426
7320.96895024
7319.40049807
3648.75100273
3647.07820939
-16.5946326994
-16.0276525456
-27.0840718062
3647.82261776
590.941588175
591.494200454
3646.22672803
3646.50676831
586.842627872
1810.24921429
1810.34346541
17116.5600458
17112.7662763
17110.9857775
12218.8806988
12215.0377962
12213.1617045
7321.4532627
7317.63854599
3648.78318565
3645.43138728
-16.4156988507
-26.9713462466
-26.9202330097
3648.1065094
3649.02403391
590.459718371
592.215348217
1814.17039557
3644.427316
3645.7914067
3644.89350744
1811.14657209
590.731722643
1811.32445399
1810.46014961
-16.1771958343
-16.3433794546
-23.3984105567
-23.3107871877
-15.9577117733
-23.2724175045
1811.32409291
1811.50235121
597.503939814
599.201713549
1813.950093
593.444982198
1813.00713583
1809.4870949
1810.18905867
600.120170744
597.762886771
1811.98390389
588.493968414
1813.07985538
1809.21716498
1808.70887522
598.027484142
601.46776389
1812.42220877
590.544239652
1810.99243284
1808.83569908
591.197734312
596.885924958
1807.95856299
601.916457354
585.546390152
1811.52279855
1809.29394163
596.701615439
591.314051744
1807.98365928
601.193050375
1811.15283449
585.778723285
-16.9171411249
-23.2500110808
-16.5820263331
-16.3467704366
-23.2578397294
-23.3054377677
-16.9026360337
-23.424310892
-23.3172228297
-17.0363126084
-23.3073744367
-16.38253756
-23.2920505825
1812.24969986
1811.18303754
597.386548885
599.701422448
1812.60643079
1814.12708582
593.868328548
1810.9538085
1810.71028075
599.431294126
597.122259621
1812.72143806
1812.61888345
590.55273607
598.024692636
593.799169554
1812.37571243
1811.36687392
596.530835755
1812.9126065
590.624838658
1807.19220174
586.760410031
600.174949188
1808.38813283
596.441792473
1809.65476567
591.251536869
1806.25107398
1806.69816054
599.034811783
594.495307227
1810.0630252
1808.40662707
586.985085743
1810.01400001
1808.06628479
600.032023523
587.746275371
594.637403412
1808.71521827
591.799729353
595.977880273
593.072116614
1808.35636785
1806.79450752
593.943392058
1808.80064631
587.631110276
7315.55101645
3643.15814603
-16.2379723734
-26.964007666
3648.31753077
590.149099919
3643.80567527
3642.26818583
584.935890567
588.955444205
591.571993832
3640.82539078
3639.28476009
585.58492713
591.064373758
-16.4856121302
-16.5710878577
-16.2174976238
-23.2137325624
-23.2931281053
-23.2771834228
-16.016000755
-15.8449287879
1810.63844336
1810.96464661
598.852564461
597.47776547
1812.81631975
591.713563655
1812.84401421
1805.62175742
1804.1997811
594.562160802
597.181376435
1806.82098279
1808.61159379
590.429918448
1806.07984932
1806.3922323
596.516660673
594.06862221
1808.94280101
591.607668554
1808.05824021
1803.44926841
1804.87968116
593.201595289
596.794118064
1805.7669153
585.702693405
1808.08041714
1802.92724968
1802.16494077
596.124304009
593.034792807
1806.0659836
590.830873299
1804.66817161
1800.00733788
1801.58691966
591.41263823
596.104533008
1802.45961638
584.739256966
1805.12180516
3665.98072117
3660.08669752
3659.82173663
3655.76896329
-13.5399842329
-12.7216961435
-16.2008798324
-15.7910134585
-17.0288018719
-27.011193431
-27.1300330388
-26.9704074963
-27.0564367821
-26.8890989096
-26.9764881653
3665.81362048
3664.75994601
606.626432578
604.692713727
3668.72629389
606.645288647
3662.99952
3661.04609492
604.176250998
600.865212624
3669.15523355
3662.81572512
3664.10413355
605.46340107
609.807656456
601.58018049
603.762836668
3663.70337524
3660.40402296
609.766745973
607.193447741
604.037457396
603.133530593
3660.45263473
3658.08452412
600.02733523
601.75244332
597.280709259
3657.3427337
3657.11935645
3655.49221795
601.88646634
600.278659485
597.066689105
596.782894186
596.249509358
596.258378476
-13.4044614788
-13.7295469802
-12.3988150462
-23.382122599
-23.335564912
-23.3577470079
-23.3824957514
-23.3526007301
-23.372278922
-23.3430302947
-23.335379214
-14.1351826779
-15.4269529689
-12.561865829
-15.2225293768
-14.7589421262
-23.4040830629
-23.3904128036
-23.3900498395
-23.3793339541
-13.694587192
-14.6633878482
-14.9337003362
-23.3721780708
-23.3624232416
-23.3789553603
-23.3770808118
-16.0952613036
-17.071606901
-23.3817510179
-23.3304632757
-23.2913858625
-15.7319406338
-16.7647352196
-16.4717130429
-23.3053757767
-23.3654102042
-23.2698201954
-23.2718216695
1827.43753281
1829.7368611
604.906308125
606.690641892
1829.57109638
604.399995795
1827.66440559
1826.60631826
1827.89443273
605.518555395
603.792470515
1828.67552952
1826.29665883
603.149890686
1833.25562723
1829.84709723
607.590048342
608.380864312
1830.94966046
1831.97392203
609.570315386
1824.7094588
1826.91128851
603.574558562
604.22670564
1825.46568708
1826.27293251
602.33719261
1823.58265936
1824.11322928
602.246793546
601.477884497
1824.98837999
1823.37031946
600.366455033
1829.29302635
1828.7052943
607.119356693
604.969636016
1830.5514991
1827.82981254
605.901089541
1830.68815767
1833.33880302
608.876403112
608.14608001
1832.19966185
1831.53483302
607.500129359
1827.60071211
1825.09146732
603.316418769
602.828313785
1826.37382552
1826.23331972
603.978960018
1828.64035227
1827.22155099
605.382715767
603.411766846
1829.08709846
1826.94764444
604.940955253
1831.17197832
1833.88193811
609.08292096
608.063002648
1833.27980165
1831.80224156
607.968085686
1829.57277218
1828.20020795
608.30075435
606.049706864
1831.6927465
606.962592455
1826.92784261
1828.48420729
1827.1059589
605.451790115
603.837552186
1829.1301032
1826.55747316
605.389740047
1827.03637245
1823.52074513
603.660112045
603.702402412
1825.47151114
604.791678912
1825.02023912
1823.54754186
1823.69028483
601.28669963
601.002580768
1824.62032338
1823.23202526
600.164034817
1823.69179834
1825.1502227
601.63703793
600.7549036
1825.06107222
1823.78987232
600.248589278
1822.21292779
1821.00266828
598.576463356
598.274274191
1822.13565256
1821.53123993
598.139184335
1822.73020628
1824.87676102
601.675683608
601.066495393
1824.3153748
1823.55228931
600.375524499
1821.52526564
1821.60569346
601.190688242
600.77924527
1823.26127305
599.017736183
1821.0091143
1820.91925072
1820.51233864
599.108455695
599.045412496
1821.87404172
1820.61778942
598.028292854
1819.76442203
1818.43702929
599.156958986
599.841294436
1820.19726993
596.413146822
1819.54872533
1818.50591674
1819.56548527
598.513901934
598.890495415
1819.65926772
1819.81343558
596.53534575
1817.55301715
599.474327589
1819.17677372
17115.1558844
17113.7418182
17112.1909546
17109.0896229
17107.242834
17105.2103826
12217.4803777
12216.0553943
12214.4675524
12211.1187673
12209.1372317
12207.0417113
18331.8401134
18333.5482637
17110.175298
17109.7807966
17108.7925865
17107.4036793
17105.8717836
17104.0331469
18334.3408748
18334.6947312
17110.751553
17110.1050123
17109.0334274
17107.5838286
17106.0147235
17104.1451581
17113.0706757
17112.5610991
17111.8483886
17110.8063354
17109.48255
17107.891189
17106.2451164
17104.3286772
17115.0925575
17114.0133927
17112.8915363
17111.5207634
17109.9994227
17108.2901405
17106.5644828
17104.5878211
17110.5114385
17108.6941848
17106.9001008
17104.8882358
13431.8995288
13434.8275961
12212.3813714
12212.0322378
12210.975556
12209.4586318
12207.7913162
12205.8897407
13435.1062194
13436.2918481
12213.0660891
12212.3891383
12211.2093941
12209.6303377
12207.9431251
12206.0169757
12215.2312158
12214.7115337
12214.087216
12213.0568609
12211.659327
12209.9336874
12208.1570479
12206.1737455
12217.2319438
12216.2545187
12215.171847
12213.7764522
12212.1767256
12210.3276382
12208.4676676
12206.4243602
12212.685731
12210.7224385
12208.7933478
12206.7141717
8531.90484122
8536.00947152
7314.1210432
7314.3204331
7313.30024585
7311.50988866
7309.51085832
7307.47381798
8536.12416834
8537.76061025
7314.88844155
7314.67482263
7313.50089932
7311.60809924
7309.62326271
7307.62344627
7316.99174086
7316.89247872
7316.48548715
7315.53915596
7314.00937334
7311.94324459
7309.81014009
7307.70539295
7321.26615658
7319.61619872
7318.74877021
7317.7581298
7316.36334982
7314.57073358
7312.35367051
7310.12572978
7307.95849335
7320.11729332
7318.72478683
7317.0714835
7315.06500734
7312.71184159
7310.41515147
7308.21103976
7313.12295976
7310.77978817
7308.57534751
3633.61344708
3638.11062525
3641.07612658
3642.08666131
3641.24056305
3639.13444248
3636.45241721
3634.08418528
3638.66840085
3638.46306428
3640.44608018
3642.39834035
3642.38391502
3641.08426122
3638.98394984
3636.59696277
3634.60423642
3653.68392436
3646.17108256
3643.53616327
3643.33978542
3643.55421495
3643.03437013
3641.5824837
3639.27484116
3636.48653088
3634.35379577
3649.01979408
3646.77618071
3645.77850397
3645.08900406
3644.02860822
3642.2561576
3639.74745662
3636.85386864
3634.68986222
3647.51353662
3646.31946968
3644.78533505
3642.68891916
3640.01168367
3637.05372083
3634.80205706
3640.46981531
3637.51016579
3635.13792316
-16.8436766921
-16.4068645523
-16.6634707785
-16.5705952613
-15.9350566376
-15.4008351087
-14.7117093435
-12.8888563075
-14.696274348
-16.3650059355
-17.0369735634
-16.8248350887
-16.6660974458
-16.1448650334
-15.621047852
-15.3657709773
-14.9916402758
-12.7114671683
-15.952447852
-16.1469167718
-16.2332237695
-16.2250453697
-16.1231955336
-15.8176921161
-15.3998768612
-14.965634678
-14.2963491092
-11.9197827504
-16.137370916
-16.1805418855
-16.109100868
-15.9377466953
-15.7112459673
-15.3361060221
-14.851943286
-14.0092250303
-11.4554578778
-16.219391356
-16.0055090999
-15.8788927706
-15.5650227137
-15.2102129225
-14.4085110034
-11.8229073447
-15.9230193719
-15.2067920796
-12.7282452578
-27.0604538237
-26.9326124116
-26.9303284617
-26.9326900136
-26.9437337304
-26.9343005385
-26.9809099496
-26.9501586749
-26.9051139772
-26.8199437586
-26.9769264731
-26.9673260529
-26.9467981174
-26.9541913855
-26.9540067753
-26.9728210686
-26.9940856641
-26.9698985832
-26.9274469886
-26.8404981679
-26.9670486679
-26.9731373037
-26.9861943053
-26.9904199054
-26.9873527024
-26.9777635712
-26.9795885847
-26.9701155639
-26.9478356245
-26.8814073138
-27.0024683376
-26.9931860958
-26.9976824727
-26.9926378746
-26.9760227288
-26.9784930978
-26.9645306817
-26.9380458055
-26.8758945297
-26.9801142963
-27.0220465159
-26.9734647142
-26.9978699407
-26.9692990446
-26.940500929
-26.8732901937
-26.9420688989
-26.9072079225
-26.8344774265
18332.8201757
18332.8322391
18333.4957938
15882.2921386
15883.5326037
15883.2965646
15884.1961168
18334.0467297
18334.027272
18334.4350424
15884.4167836
15885.0511105
15884.9132089
15885.3880052
18334.5078316
18335.8557156
18335.7299215
15885.0480175
15885.3768547
15886.7660815
15886.6509618
18334.7915325
18335.6908336
18335.736347
15885.6505745
15885.8046608
15886.6257308
15886.7006455
13433.6724457
13433.3309106
13434.5676164
10982.4449759
10984.4571955
10983.9533122
10985.3609423
13435.7220256
13435.5044509
13436.2443447
10986.0107399
10986.9090534
10986.5464485
10987.2895012
13435.6505228
13437.3753106
13437.4862057
10986.1601823
10986.8311204
10988.1441171
10988.3190422
13436.6521698
13437.5737783
13437.8024545
10987.5023565
10987.8527955
10988.5291827
10988.7753925
8534.3724306
8533.69048682
8535.51381273
6083.18353267
6085.5701696
6085.10365743
6086.74334778
8537.22398633
8536.77453068
8537.77142499
6087.59340582
6088.83342987
6088.33898021
6089.36730189
8536.99263713
8538.69750061
8539.10135914
6087.29947622
6088.35479724
6089.7813253
6090.14407865
8538.33647001
8539.42825855
8539.75715536
6089.52939062
6090.25670559
6090.67867149
6091.18427037
3632.39409939
3634.90020244
587.271764113
588.851660233
3635.9990967
3635.34000536
3637.21609507
581.483793513
588.075024671
583.048583426
589.904256731
3639.78913614
3639.09928947
3640.56532499
581.678519481
589.106448446
584.565561326
591.525071303
3641.84514905
3641.725855
3642.15562004
583.928304334
591.139202699
586.566340209
591.299912382
3641.83493083
3642.14212372
3641.81203912
586.223770029
591.867049247
585.855652378
590.46578785
3640.16047368
3641.11529621
3640.25037034
585.751205541
590.664127192
584.236114323
589.622205101
3637.73883215
3639.13981195
3638.00471377
583.471438435
589.179676074
582.733783918
590.037499392
3635.17136935
3636.64738323
3635.29870797
580.855758294
587.41173633
582.785853083
589.434696875
3633.02173228
3634.46339462
3633.64435765
578.74504815
584.522216317
581.74605503
587.575883447
3653.94320705
3646.94152838
602.902950727
594.780974051
600.595447289
594.877106021
3638.18564826
3643.24670751
3641.6588706
585.816230145
588.966277834
587.380661273
589.386986948
3639.18937408
3641.17976431
3641.41476699
584.047202572
590.148475758
583.351443997
589.665767668
3641.46180966
3641.94269756
3642.60319637
584.956322366
591.304982518
584.277760026
590.334209168
3642.49701675
3642.96127514
3642.96211172
586.403332768
591.323160998
585.23039203
590.213845488
3641.77841334
3642.67201997
3642.10756104
585.622380043
590.043134797
585.035734427
589.491788814
3640.05185814
3641.34172309
3640.31695455
583.588094579
589.224776854
583.799074059
588.537390349
3637.66151986
3639.15082354
3637.8047586
582.050257411
589.270212364
581.97145959
587.792874175
3635.32813721
3636.49871227
3635.34766913
582.232495418
589.24800306
579.857811936
587.081617782
3633.59701747
3634.307059
3633.47013307
581.751027434
587.222358895
578.579132084
585.190743762
3649.12880859
3653.03011509
3650.17147683
598.048183766
594.150609284
594.045084881
593.922190389
3644.28251501
3647.86803585
3646.35213409
588.142163735
589.847607798
589.567091285
590.826738977
3643.21044786
3645.52073275
3645.09676368
584.46471478
589.658523015
586.25595752
590.133945584
3643.47891466
3644.79485571
3644.65875864
584.788938568
590.176911594
585.515862236
590.09045436
3643.38015168
3644.47511111
3644.15799447
585.284284886
590.04838507
585.519252591
590.271705243
3642.38113063
3643.64588869
3642.93140627
584.703229855
589.475695548
585.405689372
589.846041294
3640.47922493
3642.02813531
3640.88438983
583.517317751
588.560976638
584.302194794
588.862913855
3637.81207965
3639.60430209
3638.14303324
581.651793925
587.677788906
582.314690966
587.557541241
3635.18801546
3636.75287817
3635.52260878
579.468393638
586.646565708
579.563712376
586.188460623
3633.09248362
3634.56719494
3633.48756481
578.389121936
585.379765297
578.295246582
585.403505581
593.961560915
594.162196504
3647.59676305
3648.41751302
590.085296977
591.431039205
591.801690246
3646.13283991
3647.7402096
3647.10278005
586.965438596
590.383123752
588.739799622
591.685660543
3645.42778041
3646.7842609
3646.42347482
585.940160976
590.282231147
587.799275574
591.416337972
3644.60460449
3645.87752312
3645.26228642
585.620441108
590.311821728
587.210623786
590.556939626
3643.20685099
3644.53547326
3643.6427354
585.356682527
589.949307125
585.879122242
590.126083676
3641.04800728
3642.59019733
3641.35553257
584.153276421
588.921119657
584.671368144
589.197013794
3638.24009386
3639.9716954
3638.49013935
582.084836685
587.620501831
582.722325407
588.112674971
3635.57754478
3637.04964711
3635.77205796
579.377832217
586.112168563
580.225612704
586.667374885
3633.42962182
3634.80987904
3633.71794337
578.163058149
585.428175394
578.756588778
585.641575082
3646.91117679
3647.52245166
588.246012951
591.44822488
591.756057371
3645.57731436
3646.8571217
3646.14285763
587.049158549
590.540914728
587.087723949
591.759514015
3643.7885046
3645.28475303
3644.25272412
585.60054162
589.933892006
587.457779322
591.156875298
3641.37310768
3643.10797085
3641.72993816
584.153754656
589.059584766
585.862050097
590.092561586
3638.45446766
3640.31210823
3638.74352816
582.216971845
588.016199196
584.210135995
589.588008115
3635.73345177
3637.33067836
3635.93515045
579.905752322
586.471405696
582.532598127
588.61585407
3633.56834671
3634.99580671
3633.85284592
578.305839887
585.194884894
580.585864029
586.022391884
3641.80450488
590.379427335
3638.92235605
584.164178674
590.063499957
3636.12300744
583.093350941
588.868586327
3633.99060666
580.650589474
585.602220666
-23.4184914265
-23.5230422743
-23.4174274742
-23.5775737983
-16.9441615573
-17.1318080739
-23.4748918487
-23.4449794972
-23.5264923206
-23.3697558119
-16.4427294744
-17.1298577955
-16.9603184619
-23.3345277379
-23.3267518854
-23.4300630444
-23.4000363112
-16.5228326273
-16.7998559513
-16.8280446135
-23.2675205358
-23.284471638
-23.3916640477
-23.3545330859
-16.7030786771
-16.7188250531
-16.4593975038
-23.2785220038
-23.3530544785
-23.3120309507
-23.3009360533
-16.3148907289
-16.2093908965
-15.9183346595
-23.3367553245
-23.2920651961
-23.3145416703
-23.2364741887
-15.6244880609
-15.5711885519
-15.4534399768
-23.2969148177
-23.3371740183
-23.2573025919
-23.3001143748
-15.0539838585
-15.3170028288
-15.2073334289
-23.3164794569
-23.3450411088
-23.3497191095
-23.3550203793
-14.1177548189
-14.8866917992
-14.2464133214
-23.3656694858
-23.3740364569
-23.3996122678
-23.4101001648
-8.97276322081
-12.8485598975
-8.71925340358
-23.4321200911
-23.3727661615
-23.4577266893
-23.364957076
-15.4765139481
-15.2112060797
-15.7726744632
-23.4384700902
-23.5177321717
-23.4341224812
-23.4164932139
-16.8063884299
-16.002672294
-16.4172244122
-23.4847390744
-23.4410599605
-23.4264739165
-23.2898866394
-16.9201441182
-16.4962933643
-16.5008049436
-23.3702881396
-23.3579573328
-23.325312764
-23.2464228229
-16.8065795512
-16.4420889401
-16.3994725624
-23.3351244939
-23.3210650414
-23.2684757628
-23.2473737497
-16.385713422
-16.2834737764
-16.1163897828
-23.2909265059
-23.2768306163
-23.2558578388
-23.2374971148
-15.7553415925
-15.8471783098
-15.6704153161
-23.1904052842
-23.2522379149
-23.2538234801
-23.2303210249
-15.3679989879
-15.3976919996
-15.248219051
-23.1855697233
-23.2774576908
-23.2597686669
-23.2416833506
-15.2384110597
-15.0785715167
-14.8951584449
-23.2145404511
-23.3727171866
-23.2693596762
-23.2935252052
-14.2558965774
-14.563102191
-13.7808381735
-23.3926237057
-23.400114141
-23.3480351229
-23.3623738021
-8.6452345742
-12.3837069989
-8.35658127274
-23.4567165992
-23.3658478719
-23.4356443752
-23.3899828767
-15.9158010012
-16.2728003134
-16.1719747465
-23.3734489568
-23.4048846214
-23.2620977111
-23.2998925455
-16.0525945869
-16.160228453
-16.180843648
-23.2688897611
-23.3530273665
-23.3208100814
-23.2303339315
-16.1731342626
-16.1367825833
-16.1583839844
-23.2334577792
-23.2631888498
-23.2942072799
-23.2403569605
-16.1551146764
-16.1229724999
-16.076248522
-23.2042557525
-23.2718886057
-23.2945200984
-23.2480195815
-15.9230402536
-15.9673538244
-15.8513396781
-23.2059544755
-23.2970449237
-23.3054677679
-23.2643072589
-15.5226456057
-15.649871602
-15.4881074845
-23.2058676314
-23.3113705408
-23.3237195091
-23.2588790407
-15.0873438175
-15.2423172873
-15.0373015144
-23.2057501657
-23.3210400954
-23.316230458
-23.2599801433
-14.6298524489
-14.7902141217
-14.4754939827
-23.2160149985
-23.3266600299
-23.3108513044
-23.2914637894
-13.4178418094
-13.9663509776
-13.0990684734
-23.287995329
-23.3541646021
-23.3447278519
-23.3495288841
-7.97835974541
-11.5506527204
-7.62646459376
-23.4117696798
-23.4162791258
-23.4327226276
-23.4268623639
-16.0867422827
-16.33485613
-23.2686179694
-23.3759011283
-23.2229855549
-16.0879289726
-16.3505416829
-16.264494446
-23.2401065222
-23.3157482226
-23.2543307746
-23.2609669975
-15.9673038688
-16.0939289212
-15.9852771031
-23.2244449312
-23.3302188809
-23.2637038248
-23.2627888468
-15.751579115
-15.8653677271
-15.7972141221
-23.233423402
-23.3555305465
-23.3277437707
-23.2777908248
-15.4356196161
-15.6793058258
-15.5503843451
-23.2361524551
-23.3429650549
-23.3442157913
-23.2596553019
-15.0179888803
-15.3496098613
-15.1417799621
-23.2359732873
-23.3413896768
-23.3233308484
-23.264811155
-14.4257836578
-14.9075394999
-14.5684308167
-23.2339122534
-23.3393575871
-23.3251271174
-23.2915064765
-13.0233882571
-14.007978496
-13.08817984
-23.3003489917
-23.3666269121
-23.3467088236
-23.3605891672
-7.49291962762
-11.4913102331
-7.5399378348
-23.4175508071
-23.4377303281
-23.4415204322
-23.4360241537
-15.9875251605
-16.1200606701
-23.2651875755
-23.3147467818
-23.2706447825
-23.2658964553
-15.8273599916
-15.8857456014
-15.8134506997
-23.2405984035
-23.3412443971
-23.2833957565
-23.3339864619
-15.6713837177
-15.9526213505
-15.9211916354
-23.2412711173
-23.318178463
-23.3554760309
-23.2774087704
-15.3459272491
-15.6722326942
-15.6163744853
-23.2370355771
-23.3313096605
-23.2694892746
-23.2475882258
-14.8325649727
-15.5155156009
-15.2872379664
-23.2199989589
-23.3331383878
-23.3098431898
-23.2770292161
-13.3934765584
-14.7617562261
-13.8349879109
-23.2861515224
-23.3533659268
-23.3315673803
-23.3490109694
-7.81723224895
-12.2018359326
-8.21835001289
-23.3981332153
-23.4159723303
-23.414813127
-23.3861460036
-15.9742766691
-23.3196456848
-15.5884881165
-23.1853500054
-23.3427386721
-23.3432139274
-23.3433541491
-14.2938709807
-23.324453196
-23.3877638672
-23.3854001025
-23.3816652331
-8.56330418858
-23.4236940861
-23.3670569211
-23.441699221
-23.3470117234
1795.2175651
1795.98079901
586.096032432
583.58111658
1796.61234529
582.35844365
1798.33985416
1796.88518087
1799.75437255
584.34141334
592.037340563
1798.13418467
1802.29839124
583.515844357
1797.27210526
1794.0467167
585.510706215
586.78143965
1798.32467655
588.118763244
1797.45487561
1796.28341227
1798.66653151
591.336637867
588.165583882
1800.14499844
582.708545656
1800.06495778
1798.29974534
1797.58184359
586.457234326
586.189153368
1799.45510962
1800.19590892
588.852294781
1797.20115315
1800.91881681
588.021536446
590.231500276
1800.92402717
1802.09330127
583.651597406
1801.2509852
1797.59190901
590.348309708
593.281937908
1802.6946121
589.115554968
1801.89563528
1800.10448524
1802.68921443
595.469486633
590.747409371
1803.85162517
583.397884709
1804.53812175
1801.83835366
1799.96483924
592.636153449
590.46687098
1803.18355411
1803.7025308
590.129009953
1800.83023617
1804.45594085
591.139712378
594.795673936
1804.53327331
1805.93209947
584.563841308
1804.30269044
1801.60804016
592.53991015
595.210479531
1806.01549984
590.230954974
1805.23966483
1802.78803022
1805.24480134
596.811752617
592.699008629
1806.15366129
585.117745505
1807.21773138
1804.7141131
1803.38703464
595.180932699
592.993465814
1806.45018509
1806.47358026
591.125226589
1803.29781517
1805.41110071
593.014541137
596.748394015
1806.36574897
1807.76881849
585.770121209
1805.30881303
1803.7169353
593.412981236
596.556494502
1807.67501132
591.457986683
1806.67763263
1803.14593058
1805.10001129
596.849502359
593.829832551
1806.20859812
585.581463168
1807.75239098
1805.190624
1803.6531707
596.871738165
594.564229354
1807.60579953
1806.81341788
591.630987324
1803.04654854
1804.52763754
594.403770228
598.703238091
1806.18032386
1807.85749832
585.615012675
1803.64570141
1802.65695989
593.888673725
597.891848842
1807.11368942
590.450969004
1805.5472439
1800.73457283
1802.73650453
597.749681567
594.002402229
1804.28661311
583.534820863
1806.307107
1803.6163239
1802.01083122
598.629477278
595.380670482
1807.08320432
1805.46505879
590.72118138
1800.72957617
1802.41176741
594.320573648
599.813435805
1804.30391469
1806.26053697
583.819731291
1801.33425606
1799.71139225
593.766107516
598.182285523
1805.2378305
589.790802705
1803.22987416
1798.00016909
1799.53521649
598.264111103
592.996990345
1801.60759649
582.223722653
1803.97288167
1801.45874231
1799.53202484
598.671203844
594.125414327
1805.25808942
1803.16760532
590.3557821
1798.28999521
1800.17043973
593.097369711
598.19997871
1801.82388376
1804.08312248
583.017560919
1798.14779931
1795.92988372
593.169086643
597.360931073
1802.43794119
589.264362898
1799.96333854
1794.4527463
1795.97474253
598.038574612
592.136860321
1798.50925666
580.753238222
1800.82379759
1798.35405442
1796.94621845
597.109820954
592.354254568
1802.48677898
1800.38905951
589.83286174
1794.74512054
1796.96272971
591.792659699
596.168137873
1798.58386154
1801.04998224
581.392124403
1795.38633195
1792.43666042
594.919270517
597.073913965
1799.58982472
588.814073815
1797.80367627
1792.06650432
1794.61489052
603.691663797
597.442466218
582.279119666
1796.75503364
1798.94011371
1795.64183888
1794.02855612
596.307555914
594.426718739
1799.46620864
1798.63787016
589.389906402
1792.82628386
1795.2252902
597.846999399
602.843369659
1799.83666412
583.476341204
1797.33039172
1817.17704085
1822.5303985
602.072543079
605.382173546
1817.92550447
601.378731074
1822.83115107
1811.57825947
1807.59381376
602.85846408
597.714843443
1813.30745428
1810.2965303
594.060234877
1817.36880938
1820.73124048
603.534558344
601.852606973
1818.81633946
600.467669893
1822.07819675
1812.46651527
1811.52144773
597.836308898
602.456806541
1811.5534827
1816.28560288
593.451806068
1803.99464625
1803.06930308
591.802312951
600.092312459
1803.66027335
1808.63021585
589.732351775
1800.67951883
1801.23222641
593.014156607
590.30414169
1803.575018
1802.9716541
581.695324469
1805.45386131
1807.72346003
599.342253123
596.34657445
1809.86361218
1808.72275097
589.749712531
1802.19239313
1804.83436214
591.907089487
599.895795313
1804.25195259
1808.53955026
582.891672273
1801.71630911
1799.06405857
587.80690703
593.865475331
1801.42316415
1804.06494759
588.86952775
1800.11519704
1801.77995771
591.21255106
590.137791061
1802.99302981
1803.51546736
582.943880628
1802.96738788
1802.65881156
595.226368081
593.55993438
1805.15334648
1805.68152977
589.307700411
1801.34515041
1804.52487119
591.803371868
598.107944602
1804.43515863
1806.93035926
584.142607918
1803.75796483
1800.76079364
590.646938653
595.007561532
1804.19531326
1805.4697859
590.024056484
1802.55144512
1804.7651081
594.678482576
592.341692848
1806.21020711
1806.0124177
584.373733977
1804.33431479
1803.11557815
596.002994119
594.218733779
1806.08213824
1806.56555982
590.194738941
1803.04314633
1805.76573916
593.334748001
598.81805818
1806.38083479
1808.04539614
584.986863263
1805.51655474
1803.5771387
592.957511392
596.729144903
1806.56642086
1807.76634851
590.788291461
1803.80114207
1805.57404484
596.666425356
594.527563063
1807.81562206
1807.12097597
585.213956565
1805.64099304
1804.21490496
597.643154756
595.377707663
1808.0860249
1807.63386092
590.807965775
1803.79515314
1805.87781799
594.878878884
599.633744499
1807.11384215
1808.75718277
585.293211636
1804.90930869
1803.68667826
594.500582473
598.74640325
1806.6063668
1808.18162241
589.736387202
1802.52690228
1804.34442684
598.660261088
595.438546188
1807.61083198
1806.1388327
583.635182769
1805.08954652
1804.03279522
599.432661152
596.54267725
1808.31124263
1807.42890471
590.190875872
1802.83134316
1804.6794085
595.84997105
600.892820064
1806.30095429
1808.19720214
583.88715589
1803.12245461
1801.8784224
595.080325404
600.119778817
1805.13911136
1807.04946014
588.410448148
1800.31499449
1802.23893796
599.647950811
594.957895768
1806.11703911
1804.10225532
581.796741224
1803.35309865
1802.38839317
600.59952749
596.760846892
1807.25618211
1805.94777184
589.077440136
1800.66574776
1802.44748224
595.549394173
601.400847704
1804.30420779
1806.62680417
582.181404303
1800.56733219
1799.37456592
593.669560848
599.704106731
1802.72374719
1805.00441815
587.570019361
1797.20316443
1799.81950191
597.796499449
592.921435456
1803.69979221
1801.2299798
580.297741197
1800.80938392
1799.57931652
600.387958334
595.784345184
1805.21449551
1803.44667857
588.36235092
1797.49188356
1799.30954658
593.569693857
600.556771926
1801.29756112
1804.0780226
580.807843628
1797.99236074
1796.67732741
592.120219202
597.444840127
1800.13864206
1802.33500223
588.477013762
1794.40737134
1796.90053812
596.077720209
592.20652919
1800.87732107
1798.6431127
580.095076954
1797.88329323
1795.78173924
598.547638642
594.146247584
1802.36832975
1800.17475598
588.519077604
1794.21763529
1796.11150806
593.089596712
599.607238595
1798.68006829
1801.11875645
580.19076475
1795.76032109
1793.99943684
594.746755758
597.465188105
1798.6546939
1799.79176238
589.068214462
1792.65176438
1795.15344004
603.106535611
598.433681703
1799.87043256
582.867136329
1797.23773506
1795.67258946
1792.67399093
598.728684279
596.988644635
1799.95591673
1798.41836244
588.979407144
1792.36860854
1795.24373991
598.513908621
605.749239894
1799.44914097
583.085792744
1797.10638836
1816.82277623
1819.29017105
600.013510275
601.632582091
1818.09979103
596.639645067
1819.67563227
1814.29717062
1812.04281308
600.871164656
599.005287814
1816.00460167
1814.28203271
591.848858881
1815.68216085
1816.69077615
600.07294003
599.682728578
1817.07562255
594.747270211
1818.47522068
1813.53420195
1813.5225694
597.990319709
601.826314799
1813.90250173
1816.61425479
590.515492765
1809.22967995
1808.74594204
596.903658666
601.340932774
1809.78048118
1813.18871584
591.43455293
1806.67777139
1806.02161343
599.313696377
596.478165472
1809.27051771
1808.97478665
585.573908851
1809.79863276
1811.82214835
600.492767314
598.496986313
1813.29059877
1812.65322098
591.41951986
1807.54354823
1809.45765891
596.541893991
601.47535876
1809.67037156
1812.53242176
585.8252948
1806.4049028
1803.92592811
594.593547358
600.516128581
1806.62673834
1809.50329046
589.309702944
1804.87375769
1805.32132437
598.412894557
595.758137121
1807.66247235
1807.8725969
584.050740688
1807.203437
1808.37016265
600.218265796
597.503059425
1809.98077265
1810.17363328
589.671860367
1805.8260804
1807.97793985
596.263917891
601.495235525
1808.59650921
1810.69419857
584.517525983
1806.22855005