/*--------------------------------*- C++ -*----------------------------------*\
| =========                 |                                                 |
| \\      /  F ield         | OpenFOAM: The Open Source CFD Toolbox           |
|  \\    /   O peration     | Version:  v1906                                 |
|   \\  /    A nd           | Web:      www.OpenFOAM.com                      |
|    \\/     M anipulation  |                                                 |
\*---------------------------------------------------------------------------*/
FoamFile
{
    version     2.0;
    format      ascii;
    class       volVectorField;
    location    "9.45";
    object      U;
}
// * * * * * * * * * * * * * * * * * * * * * * * * * * * * * * * * * * * * * //

dimensions      [0 1 -1 0 0 0 0];


internalField   nonuniform List<vector> 
28582
(
(0.815840842796 0.00444019591809 -0.000330746525981)
(0.816543610714 0.00339472411216 -0.000372659805957)
(0.816134671868 0.00457699436729 0.000693745937717)
(0.816746055089 0.00318687444629 0.000261783938344)
(0.815657142509 0.00412938172079 0.000834708276173)
(0.816459279724 0.00245488680617 -0.000466601082019)
(0.816997861508 0.00554046615466 0.00164712665643)
(0.817133756336 0.00300946028562 -0.000216090307963)
(0.105691281299 0.0597925500607 0.000840641519624)
(-0.0811941455289 0.087161730053 -0.0146230824403)
(-0.441672007221 -0.0756792003466 -0.167309604423)
(0.816532164612 0.00414282993677 0.000935009336412)
(0.757989616342 0.000324280859387 0.00604447539709)
(0.757933638024 0.00375597613806 0.00262046776585)
(0.818019839742 0.00163410354142 -0.00143107773506)
(0.816754428273 0.00114040875481 -0.00235904358698)
(0.758364235979 0.00420395550016 0.00167664320254)
(0.816995878757 5.20986990225e-05 -0.00175674365296)
(0.816252160034 -0.000653152146213 -0.00334908181355)
(0.815587525125 0.00781430255278 -0.000594188378809)
(0.817570640918 0.00119624290102 -0.000254233301247)
(0.816820916807 0.000543960838833 -0.00045275604474)
(0.81621361775 0.00792880312757 0.000496180207642)
(0.817606054518 0.00150990478048 0.00021661630978)
(0.816943735258 0.000515355399602 0.000317949355586)
(0.817335581601 0.00777571733518 0.00111273400604)
(0.817879167956 0.00078656932675 -0.000529154957473)
(0.821597128462 0.0086286372308 0.00386778736072)
(0.818160351981 0.000951211569417 -0.000738298780815)
(-0.145665048225 0.0766155767495 -0.0111680088476)
(0.170015648468 0.522395106526 -0.461787219357)
(-0.150179264151 -0.249461339731 -0.298367715814)
(0.819751529534 0.00716006325611 0.00415042588349)
(0.818600406295 0.00697269677873 0.00368837561605)
(0.756214230193 0.0026913062562 0.00452006153646)
(0.752054043072 0.00364051527118 0.00414021505501)
(0.818065349126 0.00688704842151 0.00687087053719)
(0.818499703825 0.000183925675918 -0.000494666278197)
(0.81717472437 3.95959838616e-05 -0.00204795701355)
(0.81835011255 -0.000937796594257 -0.00167241328395)
(0.817231312796 -0.00062350365907 -0.000628040100174)
(0.765728243869 -0.00169493483284 0.00338676965555)
(0.816328478256 -0.00106767844067 -0.00278703286792)
(0.816770513458 -0.00284582872513 -0.00333982313646)
(0.101082018372 0.0705426275462 -0.00460014303029)
(0.0704139383895 0.153759521883 -0.0170645319773)
(-0.290111443222 0.156975226982 0.0374667199509)
(-0.184952966609 0.0655785035138 0.00267655478173)
(0.030056387643 0.0798175835027 -0.0138492790987)
(-0.157658447626 0.0843949822832 -0.0198583784033)
(0.815487840334 0.00535173041644 0.00523351292738)
(0.81466354586 0.00463377868534 0.00406931731102)
(0.757928240349 0.00169713152463 0.00493790394971)
(0.759935470013 0.00101016046003 0.00626466878806)
(0.815136322681 0.00467530842707 0.00572795554078)
(0.759819129739 0.0020710508159 0.0049744609001)
(0.81506172796 0.00513778417611 0.00369009443543)
(0.81436251441 0.00375509672507 0.00307134462113)
(0.815048436207 0.00369895979694 0.00102775053713)
(0.757805279645 0.00282522543385 0.00444241261788)
(0.759563647721 0.00516562896722 0.00203000549758)
(0.814610182534 0.00329968745046 0.000667852277379)
(0.759741694007 0.00346597017242 0.0042145125025)
(0.814889168155 0.00411368293556 0.00300976772265)
(0.815332672981 0.00182334001973 -0.00180566366945)
(0.815510827507 0.0031186151219 0.000349630040754)
(0.759367549448 0.00450567558027 0.000471627888532)
(0.759818287481 0.00573017211646 0.00116573010421)
(0.814967894246 0.00252477587688 -4.13593687628e-05)
(0.760191960126 0.00655931823601 4.57937871206e-06)
(0.81594131941 0.00231304903313 -0.00161792059373)
(0.817549986942 0.00115013842248 -0.00117609374143)
(0.762257704507 0.00352004315253 0.00043212000522)
(0.76244890048 0.00584981043233 7.21150148987e-05)
(0.816165519869 0.00124876407959 -0.00168492863972)
(0.761030420165 0.00416873267768 -0.000361267751773)
(0.761570491909 0.00639596571118 -0.000478739474445)
(0.816735471011 0.00202228014894 -0.00167386624303)
(0.815114906955 -0.000975583577256 -0.0039262148819)
(0.763793887839 0.00761278662568 -0.00105791348833)
(0.76420425088 0.0100682650585 -0.000780731656931)
(0.815375554117 0.000747206530106 -0.00237566804792)
(0.762953492846 0.00996894035279 -0.000194844607827)
(0.814533069707 0.000107631203735 -0.00228054228368)
(0.762526769309 0.00792788994125 -0.000671223593817)
(0.00878712119775 0.0238764087167 0.0103379889446)
(0.0663929581053 0.444867618266 -0.183809788955)
(-0.166645918479 0.00564738332131 0.0255296771848)
(-0.0704938221002 -0.0205995832147 0.0155766250247)
(0.0558277550313 0.299553669301 -0.277224685441)
(0.0784699254901 0.298583250752 -0.205034729846)
(0.0111572743966 0.114083364599 -0.0161340084717)
(-0.3110704353 0.0648663352908 0.0564083611155)
(-0.242752798341 0.0247183906659 0.0238334778749)
(-0.0304662498849 0.0469950382251 -0.00813593801127)
(-0.285933470155 0.0323146431674 0.0503263172816)
(-0.16435803685 0.0392763349761 -0.00624228913299)
(-0.22272958832 -0.00243917296955 0.0144006504203)
(0.81958213848 0.007813756414 0.00723408477584)
(0.822229529067 0.00798590927531 0.00660262183102)
(0.754883873246 0.003139413926 0.00546715891643)
(0.756240576386 0.000356839269349 0.00442150922258)
(0.820129321752 0.00734346936449 0.00709130600046)
(0.821482124708 0.00847640467851 0.00674875723314)
(0.754837988275 -0.00017313017568 0.00515816129618)
(0.818860924732 0.00744605870035 0.00599059667332)
(0.817824652029 0.00634552331012 0.00559386404936)
(0.752745096332 0.00305696540143 0.00476811246075)
(0.752310684918 0.000220269121069 0.00419591233547)
(0.819507234402 0.00700940715664 0.00583636560478)
(0.817037493422 0.00684643717159 0.0057819981738)
(0.75274302256 0.000161324058079 0.00471495643826)
(0.755461983126 -0.0018532075853 0.00637627246217)
(0.755650568828 -0.0011658334479 0.00591539265619)
(0.816346128565 0.0063902501471 0.00676363629948)
(0.81850912631 0.0074736660439 0.00633659387912)
(0.753823990385 -0.000128538099505 0.00567908783796)
(0.816749513914 0.00689987678436 0.0060860931586)
(0.753888963582 -0.000442476309686 0.00620276375129)
(0.817672944554 0.000664348890883 0.000174656432226)
(0.764131601721 0.0018491717905 0.00129223411773)
(0.763943207582 0.00514742479359 0.000264033335824)
(0.817192037743 -0.00098574656609 0.000248243936792)
(0.764703125223 0.000217463890742 0.00305885483595)
(0.8172680601 0.000703729518697 0.00135976883298)
(0.764718070286 0.00397376228646 0.00167679141679)
(0.816886373707 -0.00108777122434 0.00120508082711)
(0.81639570774 0.00111117088511 0.0021435430584)
(0.765574000911 -0.000728829081039 0.00310482358863)
(0.765614279622 0.0026178387356 0.00243370538491)
(0.816735436576 0.00089154036955 0.00206325609597)
(0.816703147715 -0.000930853381175 0.00159399658303)
(0.76562671029 0.00337484124029 0.0020352469537)
(0.816666985773 -0.00269903201311 -0.00380428505123)
(0.815527622379 -0.00171187724321 -0.00348015595304)
(0.76518433968 0.00684515689121 -0.00111389824316)
(0.765166349382 0.0091121882044 -0.00138460574335)
(0.765922097826 0.00786673923815 -0.00129775475333)
(0.817025086767 -0.00195454199244 -0.00215206767813)
(0.765643342936 0.00568924471957 -0.00016731422082)
(0.766965212792 0.00688442844772 -0.00165301030273)
(0.766700403022 0.00646243612756 -0.00126276736126)
(0.817235716374 -0.00265945662892 -0.00263302315081)
(0.816863416828 -0.00221030698503 -0.00137757000706)
(0.766301524562 0.00404774855649 0.00092481122107)
(0.81695857928 -0.00198020174592 -0.00038095372888)
(0.766559715877 0.00458360609987 -5.68867113578e-05)
(0.818040039191 0.000142033215504 -0.000262806904782)
(0.818495259834 6.93058878473e-05 3.52049890201e-05)
(-0.171007265439 -0.00426446803528 -0.00543268469181)
(-0.0639701925007 -0.0747093738307 -0.401095787993)
(0.818536798293 0.00633259590881 0.0025482283774)
(0.755611681345 -0.000482079765001 0.00582711436457)
(0.818420868951 -0.00103061923147 -0.000554546136983)
(0.818230376328 -0.000648277670734 0.000271009962936)
(0.76574197698 -0.00262321596129 0.00261259195953)
(0.766470201592 0.00516688138207 -0.00121406172103)
(0.765286549108 0.00269023897401 0.00114446439013)
(0.818085093174 -0.000422154276037 -5.93714346197e-05)
(0.817595030948 -0.000319863135249 -0.000573205137846)
(0.764970881027 0.00168041132849 0.00140372604536)
(0.764345179794 -0.00173273690875 0.000860201007587)
(0.0550568495255 0.00730886399636 0.00287371046857)
(-0.0733453326722 -0.015760969667 -0.00334256027815)
(-0.0882868111649 -0.0577106629813 -0.00357368409224)
(-0.172993532408 0.0380329610407 0.0127435269065)
(-0.181630355038 -0.00261958895821 0.0320433730701)
(-0.108087462957 -0.0166154118241 0.0226728638888)
(-0.0933036078668 -0.061672649338 -0.00306654899683)
(-0.0985613951159 -0.0493115945899 -0.00310168652997)
(0.816040938947 0.00570845796111 0.00389028383229)
(0.815719544408 0.005572204555 0.00564759906209)
(0.753918456466 0.00049438167255 0.00568886637182)
(0.755655445098 0.000781181122126 0.00485427268355)
(0.81620497196 0.00608955862885 0.00508521863904)
(0.753673596673 0.00149251441718 0.00489746647285)
(0.815495310313 0.00522853505567 0.00415572706403)
(0.816694645871 -0.000432129295384 0.00160514913837)
(0.81622686875 0.00124178364949 0.00183199217909)
(0.765494380984 -0.00343374535016 0.00243735060072)
(0.765555031093 0.00159314523706 0.00188669705808)
(0.816400293761 0.00146549419958 0.0015555537506)
(0.816652192188 -0.000700821448746 0.00149522085693)
(0.765454456588 0.000677031616698 0.00222752815363)
(0.816949055454 -0.00116223889359 0.00090197530455)
(0.817532952762 -0.00190631099921 -0.00213433454882)
(0.76617710795 0.00305359992545 0.000674154933128)
(0.765879407286 0.00480066405676 -0.000280266834735)
(0.817048148837 -0.00148030423793 -7.39878179324e-05)
(0.766047752409 0.00229604744146 0.00142064676544)
(0.817422099224 -0.00159375533326 -0.000640108620088)
(0.816810357862 -0.000790889655212 0.00104087219844)
(0.817043683862 -0.000280256463741 0.0010376426154)
(0.765372985045 0.00028844204109 0.00126765235486)
(0.765539821704 0.00369508933434 0.000646928169205)
(0.816265741966 -0.000201169793426 0.00133259817949)
(0.76568138881 0.00120827590448 0.00144305354278)
(0.817401816735 -0.000942214885417 -0.000195037804957)
(0.815853526056 0.000172315656064 0.000700144070801)
(0.816501345256 8.16520000546e-05 0.000932920971026)
(0.764965054327 -0.000573435591675 0.000787761312721)
(0.764909756146 0.000447123717451 0.00179474446634)
(0.81608047515 -6.90529890711e-05 0.00096595450775)
(0.764805415185 -0.00149915512735 0.00051425649615)
(0.816078209001 0.000398473756443 0.00114505618021)
(0.815596497867 0.0001889321227 0.000465314739186)
(0.815111580002 0.000114389490743 0.00029601251907)
(0.764250427275 -0.00329815339733 -0.000605062769476)
(0.764533425491 -0.000487856049508 0.00142673188085)
(0.815292314837 3.03735308389e-06 -0.000108465035664)
(0.76448395991 -0.00230396421372 0.000158030161098)
(0.815519782183 0.000283708040264 0.00109020515883)
(0.791043736368 0.00891295247713 -0.000414840568683)
(0.796831930486 0.00939694770537 -0.00472880694984)
(0.802495422803 0.0154054984724 -0.0112301859039)
(0.807000205751 0.0128001116161 -0.0103705865362)
(0.21296154522 0.0518506024715 0.00741042844045)
(0.0856046340911 0.0798007718782 -0.0125757292395)
(0.0290883087677 0.077190812907 0.00267841948166)
(-0.175214785565 0.113510983725 -0.0323910343291)
(-0.255341280862 -0.0413292589831 -0.0295410957196)
(0.224606732657 0.00188063077995 -0.144542335359)
(0.492835827106 -0.141639190975 0.373995741951)
(0.178933927499 -0.086857518954 -0.121936419269)
(0.642879814945 -0.145331335353 -0.100127174173)
(0.132335221069 -0.0788301782028 -0.107399531012)
(0.589967374954 -0.0840498958532 -0.138576236344)
(0.787595507053 0.00206901135414 -9.16162022079e-05)
(0.789080136147 0.00454340488848 0.000191424960171)
(0.774735118908 0.00126579031634 -0.0018798700914)
(0.775209115829 0.00314361160942 -0.000662782294082)
(0.787010037807 0.0071375510997 0.000870353339092)
(0.770631807274 0.00337518577959 -0.000283826870142)
(0.791038522018 0.00631551664088 0.000632510847972)
(0.793374375754 0.00757171186036 -1.90253198326e-05)
(0.775319915969 0.00358478920817 -0.000350759065019)
(0.775857302545 0.00351752146624 -0.0012759278855)
(0.791361180041 0.012767850002 -0.00111774931945)
(0.794465688839 0.00936703188273 -0.00182903755224)
(0.795495873743 0.0129884813053 -0.00415024341)
(0.771126824868 0.00385610540162 -6.30507353194e-05)
(0.761446639711 0.0059700422962 0.000831295912988)
(0.772111868869 0.00351093322186 -0.00128293754419)
(0.762981596504 0.00507843875307 -0.00411317177091)
(0.798869932502 0.0171117116955 -0.00908117859769)
(0.805271659634 0.0231251849101 -0.0107301805186)
(0.759312562017 0.00697822461209 -0.000794974226303)
(0.761962666224 0.014591894651 -0.0155995312844)
(0.76246249238 0.00680697445966 -0.00640620737585)
(0.767062601787 0.016429913813 -0.0166317380228)
(0.799054540717 0.0120764797409 -0.00784041849347)
(0.801644649186 0.0112399671643 -0.00919904113711)
(0.772271488442 0.0029293455521 -0.00179925800591)
(0.763948335147 0.0049542984415 -0.00552764906588)
(0.767038658196 0.00563986003838 -0.00959511474431)
(0.809512850369 0.0187666337726 -0.0149235939375)
(0.805156396138 0.0140060309616 -0.0115123766509)
(0.812298464342 0.0159904670459 -0.0137217821342)
(0.764098956905 0.00677492904525 -0.00751873217643)
(0.768667074273 0.0152786810486 -0.0163773655486)
(0.767989322293 0.00730652450294 -0.010447523856)
(0.772061058396 0.0115578601274 -0.0153120319032)
(0.768889800936 0.00700666551011 -0.0104055220066)
(0.772808576782 0.00937327419989 -0.0150063637689)
(0.202506274753 0.0205598735762 0.0100355566505)
(0.203805906567 0.0284199376917 0.00969528009388)
(0.220446420332 0.037167370919 0.00747295366106)
(0.0958284879258 -0.0402208724172 -0.0279321289846)
(0.15596805984 0.0169594171226 -0.00243101844086)
(0.105992292455 -0.0476997160688 -0.0247184994611)
(0.184551097423 -0.00460198276068 0.0193406068726)
(0.157978159987 0.0593851000707 0.116923620603)
(-0.0592233697671 0.108928795654 0.245580711952)
(0.19521523464 0.00201686523646 0.166810961105)
(0.0756690205335 0.0404371872529 0.277454108437)
(0.207474659243 0.0450969811662 0.0102985502426)
(0.172442179095 0.0612683968068 0.0101438667212)
(0.196192702745 0.0667399223624 0.00288618591572)
(0.163843243627 0.067311529007 0.00672852898077)
(0.0984800148042 0.0836540649477 -0.00051856525581)
(0.0949712673833 -0.0777851793809 -0.0140180160986)
(0.116380187511 -0.047370871504 0.0827228688476)
(0.0937940890833 -0.0758637890118 0.0477632441973)
(0.117360437964 -0.0531347944125 0.2111499271)
(-0.116799279307 0.112607345892 -0.0500653781809)
(-0.0572378502892 0.120306475141 -0.0248579713008)
(-0.207119215949 0.150265613472 -0.0483552671393)
(0.169754713339 -0.0457565464906 0.228766799344)
(0.113534625254 0.0340002150917 0.311473824362)
(0.10587382932 -0.0037119586715 0.257474948053)
(0.0674809172124 0.0469553440039 0.264187270932)
(-0.0843840250161 0.0947220875741 -0.013248320691)
(-0.167903008641 0.0282294873906 -0.0209506775151)
(0.0501636507975 -0.0607936510457 0.187923405992)
(0.0277287335308 -0.0263068141244 0.244485758088)
(0.00821079847839 -0.0319527802177 0.212824989764)
(-0.225542564491 0.108326815633 -0.0417451053273)
(-0.203207026006 0.024508048816 -0.0326713148647)
(-0.232799684802 0.00944924057819 -0.0350724651396)
(0.0355357050693 -0.00783071263679 0.194284439415)
(0.0677656409215 0.000629907206376 0.20489037938)
(0.029909336155 -0.0195305077489 0.172023328385)
(0.0671735511129 -0.0286891945529 0.202156714674)
(0.790504695598 0.00261119847997 -0.00088321528717)
(0.789851841761 0.00150624812342 -0.00148163188013)
(0.779707966311 0.00126659869213 -0.0021159943594)
(0.774817609841 0.0017303553378 -0.00131084329016)
(0.790110600072 0.00287407581008 -0.000834559337943)
(0.779694737994 0.00182163162282 -0.00144523314766)
(0.790222300061 0.00123977639791 -0.00140966017969)
(0.790995886103 0.00364857859306 -0.000756940935533)
(0.791760534733 0.00543022003235 -0.000143977727516)
(0.774977820527 0.00237791153617 -0.0012487409851)
(0.779759544728 0.00307011229021 -0.000943113117013)
(0.790918358693 0.00436020415092 -0.000828140229343)
(0.791876925181 0.00462087396476 -0.000587078334507)
(0.779722827493 0.00236053600875 -0.00134116164164)
(0.789503578769 0.00586078661367 -0.000301575885986)
(0.791040783417 0.00636304331848 -0.000619259083127)
(0.770320400216 0.0025813518527 -0.000548422982491)
(0.766927990517 0.00402148767542 0.000576845023377)
(0.79015669521 0.00501008801389 -0.000966099566096)
(0.79076263169 0.00747717046633 0.000215440891344)
(0.7662257097 0.00307144158852 0.000357556368228)
(0.793484500658 0.0057723929192 -0.000678742021742)
(0.792679827308 0.00622719191346 -0.000234018369308)
(0.779844469162 0.00346111688584 -0.000851596470898)
(0.775469831105 0.00394454216489 -0.00042656306225)
(0.792700460568 0.00530416208019 -0.000767829972276)
(0.793568614563 0.00680595311868 -0.00021807378996)
(0.779958321504 0.00353217426673 -0.000651610429438)
(0.794413916128 0.00585284142336 -0.000949374067547)
(0.795211431998 0.00709405002161 -0.00167419117357)
(0.77570930485 0.00374676466894 -0.00019625588909)
(0.780264169417 0.00322516052261 -0.00143061550301)
(0.794432776776 0.00693791214762 -0.000777879066649)
(0.795110903071 0.0059945666644 -0.00173495667942)
(0.780182858179 0.00346826830217 -0.000360297457267)
(0.792852978178 0.00907807955456 -0.00066483695815)
(0.792256644699 0.00705480737006 -0.00084630876457)
(0.767233101005 0.00452033705263 0.000734735990935)
(0.771480299215 0.00403537059042 -0.000107095272038)
(0.791708026564 0.00856530658923 -0.000240885151919)
(0.793318411921 0.00753039510931 -0.000923153379383)
(0.767681295397 0.0048257305168 0.000473981409399)
(0.792359402438 0.00965224973292 -0.00194427825549)
(0.790414321592 0.0114261200062 -0.00204894367179)
(0.76431889601 0.0051313860099 0.00107967688857)
(0.762044067477 0.00620074764023 -0.00032149855891)
(0.791028201896 0.00927360976549 -0.00134391600641)
(0.792035296569 0.0117295458845 -0.00321160543427)
(0.76489621018 0.00542574906834 0.000373155728154)
(0.793959285499 0.00897684436197 -0.00207802709828)
(0.795309849919 0.00751492271905 -0.00269401101085)
(0.771968529147 0.00391211125406 -0.000115362895699)
(0.768160589694 0.00402050343561 -0.00128793440557)
(0.794364072553 0.00747522133839 -0.0017561026892)
(0.795064513748 0.00892814698839 -0.00335083945396)
(0.768160007266 0.0046110276154 0.000144815787571)
(0.793715982692 0.00959606521746 -0.00390450819965)
(0.795559499186 0.0113650464877 -0.0081484421541)
(0.7625994118 0.00599956185152 -0.00167822744706)
(0.765661979039 0.00415707162463 -0.0020832037941)
(0.793694846084 0.0113713041518 -0.00588552796569)
(0.795078793238 0.00963693901792 -0.00548954202971)
(0.765351221094 0.00500205210244 -0.000373066088683)
(0.794482041388 0.0162668741733 -0.0124524166625)
(0.790290585763 0.0126675847939 -0.00469468800154)
(0.758645938589 0.00876756964006 -0.00533035026496)
(0.760441351241 0.00730832379797 -0.00241606993952)
(0.791564313724 0.0155397816067 -0.00996488519368)
(0.792554229758 0.0132591979256 -0.00634836694062)
(0.76002470318 0.00903808094152 -0.00740882514848)
(0.799683053124 0.0190664934084 -0.0149130050113)
(0.803161442958 0.0217831880885 -0.0222419072087)
(0.75869145053 0.0107157753228 -0.00978775927429)
(0.76402974381 0.0156980294499 -0.0165252898899)
(0.796707062565 0.0183290104422 -0.0130210584411)
(0.760851746483 0.0118331376224 -0.0119146225154)
(0.806873649372 0.0225092496735 -0.0236283409109)
(0.797314356502 0.0162168137453 -0.0158544583959)
(0.79747184776 0.013582654472 -0.0113903034852)
(0.76112468786 0.0070636888212 -0.00387897384001)
(0.763113674186 0.00946826135778 -0.0108108130061)
(0.795170097621 0.0135076431113 -0.00922372765297)
(0.800316931832 0.016137182131 -0.018217806369)
(0.761300662086 0.00931074971837 -0.00838390060413)
(0.802604480021 0.0192846513655 -0.0168167255745)
(0.812070740487 0.0218704829824 -0.0246642669066)
(0.765459013644 0.0162036076798 -0.0160391323018)
(0.765374028831 0.012923932357 -0.0137504463475)
(0.805529896271 0.0191173300542 -0.0181555614799)
(0.7633832396 0.012375989203 -0.0124405767419)
(0.809582732364 0.0224394042531 -0.0246396381834)
(0.797147116968 0.00848645496593 -0.00733246649502)
(0.796150680756 0.00731626793164 -0.00412340594848)
(0.768374585303 0.00341261092313 -0.00214002460279)
(0.772286669804 0.00231661212666 -0.00379705315736)
(0.79612754194 0.00859328098 -0.00521421569412)
(0.796896796155 0.00723728981416 -0.00594224088457)
(0.768535535841 0.00276251602283 -0.00458344868919)
(0.798151260418 0.00962999641773 -0.00978093093627)
(0.797321119604 0.0111876529015 -0.010721936544)
(0.765847557593 0.00353280714782 -0.00314235806655)
(0.764838238813 0.00502024234466 -0.00805475701262)
(0.796619579987 0.00953591701718 -0.00766533568835)
(0.799122230097 0.0112503084791 -0.0131569559654)
(0.766455921063 0.00326680045611 -0.00559366819542)
(0.799704680219 0.0100511227466 -0.0106519336508)
(0.802148963442 0.0115908843831 -0.0147899939536)
(0.766026463155 0.00522630062493 -0.00845649048882)
(0.767843583077 0.00425737827806 -0.00731110135248)
(0.800686413252 0.0113996685808 -0.0139720747807)
(0.801096737041 0.0103438649365 -0.0114546118368)
(0.76713211252 0.00337318746711 -0.00599684991957)
(0.805100623235 0.015522451199 -0.0207048706371)
(0.799774867324 0.0136531566887 -0.0129055001929)
(0.764662288596 0.00936980242338 -0.0113288259411)
(0.765532212655 0.00681758733514 -0.00952117384321)
(0.802788863409 0.0158597911331 -0.0195198479236)
(0.802040693235 0.0136193694924 -0.0145113949044)
(0.766081847529 0.009426908152 -0.0130336138429)
(0.809758636692 0.0174923280326 -0.0194523215853)
(0.814092401469 0.0210310950078 -0.0237662928267)
(0.767818862862 0.012588025844 -0.0137760928997)
(0.769704629522 0.0145472336015 -0.016945647606)
(0.807857384436 0.0184890297174 -0.0185834360012)
(0.769135869776 0.0122929364272 -0.0146125390452)
(0.816261772397 0.0199724039125 -0.0237046212095)
(0.807084228308 0.0151388623446 -0.0199096338338)
(0.805525787421 0.0132563273666 -0.0150940373027)
(0.767017878665 0.00697776841089 -0.00977306019516)
(0.768762944628 0.00860218333597 -0.0133247309836)
(0.803906218916 0.0136122646566 -0.0146327592449)
(0.808811044886 0.0144889476017 -0.0199226648287)
(0.767768104832 0.00895345111994 -0.0129768781408)
(0.811176863672 0.016660091031 -0.0185240388246)
(0.818782589948 0.0170678372118 -0.0212053662338)
(0.771246048215 0.0127445880726 -0.0160554382381)
(0.771226234381 0.0104202662532 -0.0141156699343)
(0.812473821251 0.0155505378887 -0.0184286698026)
(0.7706621982 0.0114048300599 -0.0141617978533)
(0.817683333727 0.018728373192 -0.0219860922136)
(0.810674695626 0.0130308606938 -0.0187845585791)
(0.806524910385 0.0128241785127 -0.014804477516)
(0.76949798724 0.00750348288528 -0.012797325483)
(0.769306513395 0.00635646998301 -0.0103369406265)
(0.809780285192 0.0137498958036 -0.0192318762596)
(0.807463784698 0.0122302001627 -0.0147286504337)
(0.770139096279 0.0063726683243 -0.0124912069177)
(0.819546262603 0.0154665439525 -0.0203876508487)
(0.771835354204 0.00896668585957 -0.0139027727538)
(0.813397536214 0.014586808048 -0.0178045338715)
(0.817808107625 0.00526124011308 -0.000389557391722)
(0.818673794779 0.00374697678835 -0.000419049463517)
(0.819034444145 0.00181872445086 -0.000492924122753)
(0.816403145621 -0.00096298300863 -0.000160800559171)
(0.810248926878 -0.00209579408277 0.000249754614817)
(0.832003328713 -0.047919276798 0.000546611099727)
(0.818342458151 0.00547095334182 0.000752749204804)
(0.818607171711 0.00368324267901 0.00068616015526)
(0.819057436362 0.00255823428233 0.000475736470365)
(0.817005312013 -0.000982216623473 0.00161529772875)
(0.810975247924 -0.00255325160181 0.00354668384034)
(0.83474565721 -0.0517484074077 0.00447446122887)
(0.818516763002 0.00594861121134 -0.000154424704785)
(0.813355063781 0.00602626458641 0.00104863769953)
(0.788191187392 0.0104850497901 0.00278652953451)
(0.783911565911 0.0107557347403 0.00234657735776)
(0.781183018579 0.0126992737571 0.00122025850976)
(0.774496027663 0.0153528490983 0.00158169412701)
(0.782198644499 0.0179556949319 -0.0109259419726)
(0.722583817555 -0.0232318281109 0.0274904544028)
(0.828458728876 0.00564770316233 5.02362545992e-05)
(0.825190605627 0.00322245190681 1.15160961916e-05)
(0.819569549255 0.000330263843573 -0.000839945048977)
(0.817187190073 -0.00149047565844 -0.00271358063349)
(0.816184613912 -1.74413125578e-05 -0.00319712553643)
(0.817584784955 0.00250447950021 -0.00244468684695)
(0.812608069751 0.00707748224992 0.000979518316713)
(0.835739545004 -0.0853052457979 0.0136442846103)
(0.821757339072 0.00718698264311 -0.00103216261452)
(0.82324188652 0.00529041860309 -0.000843924016092)
(0.822493368323 0.00367851013523 -0.00118675981045)
(0.820953773051 0.0031636981057 -0.0017598263218)
(0.819429728391 0.00274749207296 -0.00132349530378)
(0.819754803028 0.00220047632699 -0.000523110789272)
(0.813783209224 0.000535750974873 0.00141950513453)
(0.839711432764 -0.0678684501346 0.00498409921384)
(0.817887954133 0.00810120134906 -0.000636685592645)
(0.820474543833 0.00492933522984 -0.000418516867746)
(0.82045919803 0.00292519210845 -0.000628751378892)
(0.819802347724 0.00144868411276 -0.000741677299765)
(0.818473319404 0.000680200660091 -0.000912344663652)
(0.818595093898 -0.000547878656784 -0.000364124965663)
(0.812279242072 -0.00200771306111 0.000735089749777)
(0.836770926737 -0.0689340752382 0.00241535472909)
(0.817986417337 0.0013164499556 -0.000658075299574)
(0.81773056186 -3.01909134038e-05 -0.000207981775189)
(0.811128753792 -0.0016568030609 0.000536494626767)
(0.834983306079 -0.0528149813896 0.00122063000593)
(0.641569977054 0.0410336713088 0.0113714946363)
(0.636361609774 0.0398455676047 0.016394903271)
(0.645324880168 0.0246329315459 0.0205313556225)
(0.642563865924 0.0209535832893 0.0156724728508)
(0.641011059793 0.0220116478663 0.0143027038246)
(0.623071546453 0.0253495333606 0.0155268586484)
(0.68170529679 0.0398105948602 0.0129806981127)
(0.360117367647 -0.0881990791518 0.0580671026808)
(0.775841524265 0.013201205215 0.00710300484655)
(0.770643008609 0.00942958814084 0.00888528267288)
(0.775312504482 0.00319444231771 0.0125286187423)
(0.772406181713 0.00165302941547 0.0125383591057)
(0.7725911772 0.00261902104471 0.012874780756)
(0.7750138808 0.00454117678694 0.0156093418391)
(0.782042110158 0.0277021217142 0.0251475870374)
(0.808105256235 -0.164955061587 0.0407442198301)
(0.823474521967 0.00757824829336 0.000718259643373)
(0.823055488147 0.00607769623262 0.000996028769291)
(0.821905161358 0.00549662592832 0.000556796649333)
(0.820395236546 0.00618617022557 -0.000310797819316)
(0.820551475208 0.00625187828971 0.000443873960123)
(0.823013253922 0.00517738521953 0.00298844503947)
(0.818705503492 0.0024363758032 0.00831981061491)
(0.870299334703 -0.111106373622 0.0130793235245)
(0.819024307577 0.00863738786076 0.000532558195538)
(0.820743951673 0.00500307136917 0.000800333090873)
(0.820216633726 0.00326571225667 0.000492326875332)
(0.819384657817 0.00291091390565 0.000367671059516)
(0.8188551021 0.00190851266147 0.0011061942361)
(0.820524846061 -0.00040893754615 0.00303956194148)
(0.815033508908 -0.0029899045008 0.00638502158673)
(0.847694883597 -0.0867114171579 0.00906014969842)
(0.818309481736 0.00169974056497 0.000615987428524)
(0.818726005022 0.000169021096672 0.00185940416574)
(0.812545692255 -0.00215428595606 0.00419756701611)
(0.840064457307 -0.0617160366533 0.00534539587448)
(0.638144828339 -0.0161393322451 0.0202815852084)
(0.631465981357 -0.0169960525605 0.0241352393064)
(0.635363282818 -0.0210284097809 0.0256186465985)
(0.633378140079 -0.0200364725625 0.022413872237)
(0.632913834025 -0.0171438679364 0.0187527211431)
(0.624633305102 -0.00818852085001 0.0212170339218)
(0.684241503557 0.0259296213329 0.048451556508)
(0.46967726272 -0.305458768608 0.0122792891175)
(0.739332735017 0.00476951808431 0.022474435678)
(0.73325541709 0.00056293187303 0.0253433048871)
(0.782190948253 -0.000240681525244 0.0100902587377)
(0.781020732793 -0.00118980923096 0.00918249577311)
(0.782909436905 2.63217910794e-06 0.00868950797012)
(0.791084229454 0.000817163831264 0.00834025256904)
(0.804880165186 0.0188876088407 0.00916877901552)
(0.873237519026 -0.183978018727 0.000896881983833)
(0.825617642082 0.0073246111719 -0.000250935789442)
(0.823364768337 0.00629611212993 0.000283470303307)
(0.822065662098 0.00347733764781 -0.000957794242823)
(0.821380560419 0.00159378335319 -0.00238480473308)
(0.822640614439 0.00128666587198 -0.00233154966121)
(0.827828544785 -0.00158156705167 -0.00151230732149)
(0.823305705332 -0.00612311456995 -0.00169386766211)
(0.895558598992 -0.152142626046 -0.00178042878815)
(0.818571834987 0.0120179885087 -0.00117704536142)
(0.820194614726 0.00837019893999 0.000928775455977)
(0.821246975938 0.00515110396748 0.00109302919177)
(0.820239211226 0.00280923844724 1.50580911971e-05)
(0.820342035145 0.00225038246648 -0.000600995096891)
(0.820610594326 0.0015663640056 5.09685770287e-05)
(0.823669688728 -0.00175893550874 0.000770975703956)