/*--------------------------------*- C++ -*----------------------------------*\
| =========                 |                                                 |
| \\      /  F ield         | OpenFOAM: The Open Source CFD Toolbox           |
|  \\    /   O peration     | Version:  v1906                                 |
|   \\  /    A nd           | Web:      www.OpenFOAM.com                      |
|    \\/     M anipulation  |                                                 |
\*---------------------------------------------------------------------------*/
FoamFile
{
    version     2.0;
    format      ascii;
    class       volVectorField;
    location    "11.1";
    object      U;
}
// * * * * * * * * * * * * * * * * * * * * * * * * * * * * * * * * * * * * * //

dimensions      [0 1 -1 0 0 0 0];


internalField   nonuniform List<vector> 
28582
(
(0.815166858301 0.00375591147026 -0.000749591680429)
(0.816598900423 0.00304304234768 -0.000777711898894)
(0.815688017907 0.00409791679604 -0.000973339249959)
(0.817116786715 0.00301208665676 -0.000665789014684)
(0.816070577622 0.00399612010235 -0.00288704298142)
(0.818044390925 0.0030718144 -0.00205344247066)
(0.81824837977 0.00499704092911 -0.00516063573551)
(0.822056875067 0.00397700113399 -0.00234457427816)
(-0.0755065485037 -0.00187990575349 -0.0111553563528)
(-0.315786892544 -0.0116191510685 0.00227642809372)
(-0.125374031514 0.137451254449 -0.376121818504)
(0.821262725137 0.00447544599027 -0.00422508081598)
(0.755616663682 -0.00847809996767 -0.0074853420851)
(0.75193208205 -0.00925190006678 -0.006209407156)
(0.821903064338 0.00390311916094 -0.00179306160667)
(0.821454591009 0.00440025507344 -0.000756236227621)
(0.751179498168 -0.00863702059642 -0.00455408954116)
(0.821451371119 0.00515212592961 -0.00115525142527)
(0.821428690369 0.00501538597317 0.000749931521504)
(0.814238157835 0.0065145305747 -0.000900171624159)
(0.818066534882 0.00124858660948 -0.000498509289041)
(0.817660185698 0.000600130250435 -0.000583085793973)
(0.81418732055 0.00622652647667 -0.000968151945885)
(0.818567458009 0.00171271353563 3.23573832249e-05)
(0.818015387706 0.000704216349091 0.000259342343888)
(0.813350349811 0.00591559953381 -0.00295369942388)
(0.819224316098 0.00162028826806 -0.00148693998471)
(0.815538865718 0.00600593379159 -0.00463758034351)
(0.821665338671 0.00384196457334 -0.00189827647842)
(-0.333497074503 -0.0235156191889 -0.00468675474116)
(0.186743579485 0.284231679466 -0.241538854254)
(-0.102489187946 -0.185174954238 -0.280514616128)
(0.817812504555 0.00450450408092 -0.00638545085756)
(0.816811640256 0.00471661179511 -0.0064107454531)
(0.763006608033 0.00176383735759 -0.00425624445019)
(0.759325239556 0.000858247749133 -0.00855462625064)
(0.814526997913 0.00502594297757 -0.00656030916912)
(0.821443614949 0.0031862475418 -0.00159028232611)
(0.820961241153 0.00412890134104 -0.000718363813535)
(0.820179924345 0.00337580789508 -0.000933107812486)
(0.820710694441 0.00519870631721 -0.00145107880618)
(0.744515681547 -0.00384440353213 -0.0017067175992)
(0.820502661294 0.00514518937452 0.000393921376364)
(0.818103012086 0.00418344232234 0.000683389887801)
(-0.13971184362 -0.0155981556026 -0.00672853166915)
(-0.229962670306 0.0141114026541 0.00697927343154)
(-0.231418075485 0.0640638309833 -0.0225822981085)
(-0.206031572227 0.0685101758516 0.0223691091523)
(-0.249515476517 -0.0166172927977 0.00363173502804)
(-0.291363603607 0.0393410983485 0.0201087018626)
(0.81737028867 0.00497808324075 -0.00872587881487)
(0.819889138898 0.00523611563787 -0.0106024486418)
(0.754155733114 -0.00899929207882 -0.0085000854673)
(0.755436035647 -0.0085214099656 -0.0079687758254)
(0.817385650041 0.00528564670054 -0.00884118992182)
(0.753656178611 -0.00921109921999 -0.00861310706496)
(0.820065242605 0.00490948192486 -0.010609386956)
(0.821932338918 0.00481787927588 -0.00942067912093)
(0.823822128473 0.00465595089956 -0.00803674602765)
(0.753313022738 -0.0091201462885 -0.00787943987679)
(0.752083847321 -0.00981526397936 -0.00641888542943)
(0.823633160352 0.00485587636718 -0.00760609790691)
(0.75319024459 -0.00954621510153 -0.00791965900127)
(0.822174922379 0.00454716014602 -0.00987161241938)
(0.823500650576 0.00473778927964 -0.00307065661621)
(0.824039925868 0.00477453554566 -0.00656779436828)
(0.750335291248 -0.00823805395354 -0.00229130925442)
(0.751706486959 -0.00943651635897 -0.00502539667116)
(0.823843941089 0.00482767162315 -0.00620983620486)
(0.75064643873 -0.00895523943454 -0.00246325861421)
(0.823490845933 0.00490470873935 -0.00362821859818)
(0.821540041929 0.00531955447933 -0.00253781775361)
(0.748248752676 -0.00654327993575 -0.000829919862731)
(0.748689015476 -0.00671229219031 -0.000117086932057)
(0.822632156797 0.00496700108374 -0.00242568181258)
(0.748699098414 -0.00741132635561 -0.000749757138718)
(0.749172603075 -0.00804408823226 -0.000597368529991)
(0.822628280715 0.00522490563448 -0.00289019796433)
(0.821289372896 0.00450806901396 0.00234700907687)
(0.751065897301 -0.00625099325526 0.0013244493874)
(0.752116585639 -0.00733001457311 0.00247443974954)
(0.822776326437 0.00464339470615 -0.00116510911831)
(0.752567075543 -0.00877142769822 0.000800006834862)
(0.822823195599 0.00428805251441 -9.84714086506e-05)
(0.751463598403 -0.00801955530172 0.000337370551548)
(-0.00722632105081 0.00675036206318 -0.00190684511891)
(-0.171862143481 0.216103569849 0.12424519751)
(-0.0231992475126 0.060875066685 0.000261768784407)
(-0.0329730516361 0.0310608480855 0.00214212339168)
(-0.128985633144 0.113636107641 0.130962508945)
(-0.18871517279 0.0723234024405 0.133268735162)
(-0.227292222572 -0.036494685298 0.00297624799877)
(-0.172079965524 -0.05675849086 -0.0422385609076)
(-0.149170745189 -0.0746181581824 0.028279538411)
(-0.215179312789 -0.108658767563 -0.00207335960545)
(-0.115096239065 -0.0659847800232 -0.0146270967629)
(-0.326407628832 -0.0690967128389 -0.00686546026099)
(-0.117927045814 -0.101580105199 0.0144156764143)
(0.814234729135 0.00534780128886 -0.0063729557777)
(0.814616071115 0.00597195463159 -0.00516209720522)
(0.762523850118 0.00153115103669 -0.0053207352508)
(0.762759977171 0.000228527710822 -0.0040247065928)
(0.815182422958 0.00495775891359 -0.00662191537347)
(0.813839287773 0.00591848181212 -0.00478424915007)
(0.762386396766 -0.000679630275737 -0.00524132101719)
(0.8153745532 0.00434785890376 -0.00739759056568)
(0.817192028341 0.00257311076686 -0.0105054092831)
(0.760959523886 0.00103814223826 -0.00654845557263)
(0.759134094447 -0.00212238323604 -0.00864829703167)
(0.816209444563 0.0036706750426 -0.0075582394911)
(0.816412791654 0.00356457585934 -0.0106452700939)
(0.760666627262 -0.00151297232472 -0.00657560406057)
(0.759067858601 -0.00532038346021 -0.00540631978797)
(0.757538236829 -0.00657188168189 -0.00804988371847)
(0.815322566458 0.00487547527185 -0.00982045929552)
(0.814816234557 0.00495007936423 -0.00652266831145)
(0.758457054856 -0.00539980279397 -0.00779563921088)
(0.81567188802 0.00446496950498 -0.00975022342302)
(0.759939183669 -0.00416771134602 -0.00524035569756)
(0.820870707111 0.00556452903551 -0.00258772974744)
(0.746720642193 -0.00605587437818 -0.000808389643511)
(0.747134677405 -0.0057832519109 0.000316349943836)
(0.820274155726 0.00498353436647 -0.00171898741229)
(0.746454646491 -0.00504617207902 -0.00125028713063)
(0.82048752145 0.00576806294748 -0.00320989009282)
(0.747188951334 -0.00417692075438 -1.9232127502e-05)
(0.81992309947 0.00444868843512 -0.00182646049858)
(0.820825621728 0.00492157719169 -0.00364372959535)
(0.74598146453 -0.00466376150175 -0.00161657910708)
(0.746170223606 -0.00254036990051 0.000156112139691)
(0.8205251793 0.00548535970962 -0.00341759367394)
(0.81993341182 0.00356205017534 -0.00206986907568)
(0.746652056247 -0.00351296889994 -9.23418305591e-05)
(0.819005711544 0.00437904930579 0.00177917764913)
(0.820565701509 0.00458157959104 0.00200646471636)
(0.750084746973 -0.00493162964012 0.00145652481038)
(0.751174774851 -0.00609405463418 0.00326157619071)
(0.751675106346 -0.00456227167097 0.00267799394958)
(0.819626375916 0.00479872786296 -0.000521258425033)
(0.750493315597 -0.00329175655391 2.61469431021e-06)
(0.750603178435 -0.00292560034805 0.00223440204475)
(0.751141888746 -0.00163969104847 0.000588334998417)
(0.817782969562 0.00340843653163 -0.00105278109132)
(0.818994623383 0.00430685153497 -0.00128476921295)
(0.749263744038 -0.00129731752825 -0.00143031392451)
(0.818698653897 0.0034582188191 -0.00234393060961)
(0.749337236608 -0.0022553449276 -0.000507021047843)
(0.819448433856 0.000484184292109 -0.00118463507705)
(0.821850911729 0.00207519233919 -0.00161709640486)
(-0.286285496548 -0.0954236579852 -0.00816131970192)
(0.0254098553826 -0.0388029675341 -0.346177184983)
(0.819011551898 0.00442036995826 -0.0059717925428)
(0.755418772226 -0.00708350856652 -0.00885962020783)
(0.820130717581 0.00229692458041 -0.00187140685339)
(0.820163773255 0.000714544509726 -0.00175379833838)
(0.743968471207 -0.00299539749068 -0.00153305438163)
(0.750289588526 -0.000790787920475 -0.000679133975969)
(0.749662592597 0.00157287239432 -0.00186430492892)
(0.820462928963 -0.000576773110809 -0.00167963493073)
(0.820693602721 -0.00188783767574 -0.000539880423137)
(0.749904706618 0.0019125925356 -0.00150881489147)
(0.75005831798 0.00161611816754 0.000632670488563)
(-0.0646907895642 -0.0162213040755 -0.0102301450776)
(-0.208862967073 -0.133744605095 -0.00555661202209)
(-0.192900814261 -0.131933634685 -0.00400553361353)
(-0.0710090763068 -0.0579210729583 0.00984966437789)
(-0.0545389922181 -0.0269109181667 0.00254068087269)
(-0.0476126904015 -0.0154125867511 0.00409137054701)
(-0.17818648473 -0.104589149656 -0.00162505327804)
(-0.169105400536 -0.0376295033931 0.000454088763651)
(0.820490689233 0.00379347659549 -0.0114834806172)
(0.817666591619 0.00452292360332 -0.0101471071766)
(0.755811452697 -0.00565635170757 -0.00846546298451)
(0.753743619648 -0.0076425353528 -0.00961628795815)
(0.817918341937 0.00396258681884 -0.0100628511184)
(0.754061496648 -0.00621187947169 -0.00913774144589)
(0.820137762915 0.00448725264627 -0.0115225255377)
(0.820399092561 0.00126428455971 -0.00211124436064)
(0.821094375279 0.00394610959633 -0.00341526529508)
(0.743857698264 -0.00230457123161 -0.000619294979295)
(0.745495130123 -0.00146743832614 4.25521767101e-05)
(0.821319337724 0.0030060841477 -0.00279867545616)
(0.820080105614 0.00235707971629 -0.00196847757061)
(0.745281421231 -0.000479845982171 0.000171445450282)
(0.819117111334 0.00109737962164 -0.00358611644075)
(0.817645015469 0.00234961562002 -0.00190905885262)
(0.748683806305 -0.000503406069552 -0.00192172836544)
(0.750289552242 0.000165417742013 -0.00167618120216)
(0.818812924595 0.00233143758225 -0.00271105522516)
(0.748108220609 0.000349430913981 -0.00224514431224)
(0.818061750558 0.00113661183726 -0.00350027536908)
(0.819499748747 0.000384598620824 -0.00317747592758)
(0.818981655641 -0.000797320770707 -0.00351377232413)
(0.748123088684 0.00188993234518 -0.0017123024355)
(0.749959488514 0.00101576407263 -0.00212973118866)
(0.819761318325 -0.000214125643673 -0.00306626868951)
(0.74800414013 0.0012479924386 -0.00216467815648)
(0.81854107911 0.000227251250182 -0.00333239123407)
(0.81969300131 -0.0011288786196 -0.00173986177028)
(0.818982927203 -0.00137361444226 -0.00286175233581)
(0.748645473898 0.00245565570539 -0.00137171707742)
(0.749805678311 0.00194342994256 -0.00101153546839)
(0.819779386258 -0.000844197249575 -0.00232127546199)
(0.749172421262 0.00231211680729 -0.000595835268466)
(0.819173691059 -0.00181351184381 -0.00227497132367)
(0.819277878324 -0.00131934759863 -0.000729025955868)
(0.819007575804 -0.00184352271901 -0.000395900774477)
(0.74978727055 0.00163242358679 0.000547533018954)
(0.750222858608 0.00204002319484 -0.000450904940408)
(0.819036217134 -0.0011920547541 -0.000244714199796)
(0.74962122688 0.00231921695526 -9.88369069018e-05)
(0.818897799951 -0.00198801930765 -0.00127641886339)
(0.806324003745 0.0131314735987 -0.00199857395423)
(0.808250391873 0.0146700692518 -0.00176269534408)
(0.810563842839 0.0179643823535 0.00341076120541)
(0.810997575476 0.0129175386249 0.00222202580579)
(-0.448813844222 -0.0202969954916 0.00671443357201)
(-0.390284023101 0.02676511091 0.0386916244271)
(-0.580203246309 0.0724108178764 0.0106576223193)
(-0.356021179557 0.0785654433451 0.0282908569974)
(-0.275954208853 0.00931297415297 0.0203975322365)
(0.293193240733 -0.0229929129516 -0.258083115201)
(0.429689847589 -0.27169701368 0.100765729642)
(0.138391051552 -0.117436409648 -0.286585497672)
(0.405009467085 -0.161413361136 -0.413956089997)
(0.153081460198 -0.0750757180048 -0.366667894802)
(0.42660344403 -0.080493050158 -0.357953016367)
(0.800934949494 0.00297781261265 -0.0093944904878)
(0.802350235953 0.00783356356034 -0.00859529449996)
(0.779062130686 6.0233305987e-05 -0.0150701864055)
(0.779569376381 0.00496708344259 -0.0137339036063)
(0.802007484244 0.0101136298814 -0.00173105114665)
(0.779118433591 0.00606368964905 -0.0115061534643)
(0.803400160864 0.0114790281716 -0.00657246976713)
(0.80604796297 0.0133099631446 -0.00496443475266)
(0.78097352726 0.00507570642926 -0.0129107015055)
(0.784339680987 0.00157050425419 -0.00780281360009)
(0.803615283421 0.0176958363136 0.00420096320504)
(0.807370391266 0.0147863359341 -0.00198630776949)
(0.808329304004 0.0173765140049 0.00268879373664)
(0.78047736186 0.00630072949846 -0.0109926221601)
(0.770509185624 0.00820191167581 0.00233851310692)
(0.783452970448 0.00225825838755 -0.00682913243992)
(0.773062088113 0.00329136737409 0.00118562526279)
(0.809677313774 0.0202809742377 0.00656614824728)
(0.810649772266 0.0236622306654 0.0104734177174)
(0.766719417622 0.00863599866857 0.00503844024554)
(0.753170563896 0.00980098080921 0.0134663978398)
(0.769234272866 0.00317283368931 0.00328949035243)
(0.755448361839 0.00533937607161 0.0082057450979)
(0.810211624492 0.015976418964 0.000450584198758)
(0.811345772722 0.0141340724386 0.000513804809855)
(0.783537394051 0.000590414175296 -0.00619830293181)
(0.773532258425 0.00162122377362 -0.000193074499774)
(0.773706354138 -0.000512269985918 0.00269345496134)
(0.811601949266 0.0181972865416 0.0056881642055)
(0.810788361827 0.0152400190199 0.00259760233118)
(0.811283359368 0.0153678376303 0.00389450300825)
(0.769500947684 0.00144318047552 0.00178389384603)
(0.75614220803 0.00365787322332 0.00661402328144)
(0.770733742261 -0.00101508281611 0.00334355311342)
(0.759622762649 0.000284376092087 0.00522622443928)
(0.770969775498 -0.000787968098655 0.00381105261952)
(0.760731916835 -3.30025485513e-05 0.00482368660027)
(-0.309872024285 -0.0320642478157 -0.0317510641911)
(-0.31462658161 -0.0753583348095 -0.0267794232832)
(-0.38081973721 -0.0674003805654 -0.00791261100729)
(-0.188122722791 -0.0899133089153 0.100782902045)
(-0.0499790581648 -0.0541996037042 -0.0648069676413)
(-0.197740801358 -0.112055333553 0.0796336656092)
(-0.0733412790601 -0.0577603604188 -0.107264502605)
(-0.0715241076499 -0.109814527264 -0.325737026726)
(-0.0740211231614 -0.170863222655 -0.428204091695)
(-0.103695238768 -0.0736703568137 -0.371680084987)
(-0.0341673407412 -0.131567358329 -0.467382201036)
(-0.348695338966 -0.0808610848369 -0.0148194471247)
(-0.437271243284 -0.0485682460517 -0.00490368803724)
(-0.51245909617 0.0186916180246 0.0257988447173)
(-0.525443178005 0.0558314014354 0.0139961210299)
(-0.528116878575 0.0845772360826 0.0244311228239)
(-0.188007835203 -0.131536344543 0.00744781937931)
(-0.0899015729454 -0.0708264635592 -0.159678354458)
(-0.175122036143 -0.141719268345 -0.024440569311)
(-0.0692497011672 -0.0839863333976 -0.179742268485)
(-0.147941747748 -0.000326119721125 0.0390669350719)
(-0.375179786754 0.0743972855337 0.0344474081044)
(-0.152749090042 0.0411323172751 0.0342897918229)
(-0.0135131653576 -0.0842416617472 -0.361058566132)
(0.15148332447 -0.113313757652 -0.393036710221)
(0.0241430824614 -0.0527579630263 -0.327007311821)
(0.181088621409 0.00911235038396 -0.333965417586)
(-0.527982757454 0.0849074500544 0.0207605840446)
(-0.458858454902 0.0385067258322 0.0182382922828)
(-0.125018338706 -0.121346501262 -0.0218929322236)
(-0.0313490479282 -0.0823062073852 -0.141286239776)
(0.00209493183076 -0.0755396008391 -0.153313196269)
(-0.13905506221 0.0655937862418 0.0279617250533)
(-0.310694342593 0.0277633184641 0.0225599928128)
(-0.136943482065 0.0343656596125 0.0213648860945)
(0.0724079798164 -0.0576506403326 -0.252002242945)
(0.227403896295 0.0306588870458 -0.264180811271)
(0.116603252053 -0.0610297277296 -0.206379977226)
(0.262129305882 -0.029597585137 -0.192759868818)
(0.806264394921 0.00456069589648 -0.020686837757)
(0.80836956383 0.00229309748318 -0.0188914156627)
(0.780835553044 -0.000887424871129 -0.0155302617014)
(0.778908635544 0.00196484237007 -0.0157231761051)
(0.809125939849 0.00589673263073 -0.019331960928)
(0.780629362371 0.0010555940899 -0.0161844494774)
(0.805677824316 0.00134245420881 -0.0202219247404)
(0.807049281187 0.00757253430715 -0.0191226158582)
(0.810622744168 0.0114351180828 -0.0165885815527)
(0.779572041901 0.00346409923772 -0.0148746387539)
(0.78124216016 0.00395510183522 -0.0143240951709)
(0.809862404913 0.00907584232746 -0.0177875487556)
(0.80783017642 0.00976350485186 -0.0178453853856)
(0.781241406781 0.00256459164546 -0.0153201536524)
(0.810678364367 0.0107079396984 -0.00883384427034)
(0.81112865644 0.0115072512366 -0.0129996267652)
(0.778948304501 0.00452907691675 -0.0128565966284)
(0.776165932245 0.0072288767739 -0.00748922833492)
(0.810406829279 0.00935893575217 -0.0138488556874)
(0.811737291382 0.0131966969705 -0.00716842599053)
(0.776415243418 0.00549715980762 -0.00917204957952)
(0.809405090469 0.0127205215303 -0.0136259913961)
(0.811790269813 0.013130248976 -0.0144955117003)
(0.782526677921 0.00421096273507 -0.0132386678759)
(0.781797246854 0.00434078495815 -0.010777810747)
(0.808628600959 0.0116402985838 -0.0156224771325)
(0.812426484381 0.01394351021 -0.0124416937087)
(0.783138964453 0.00361968870372 -0.011286786526)
(0.810155526958 0.0131987311411 -0.0116000721249)
(0.813277980325 0.0142236923415 -0.00881006004349)
(0.783423759673 0.00323143636768 -0.00972618510316)
(0.785036912019 0.00162460804897 -0.00823847960682)
(0.812941991016 0.0141930364963 -0.0105219778238)
(0.810914195535 0.0133848932327 -0.00989856305074)
(0.784314162925 0.00286343282045 -0.010063346165)
(0.813824178962 0.0147944395288 -0.00421328982707)
(0.811641404705 0.0132883638023 -0.0112871990208)
(0.777653786613 0.00704269013506 -0.00705761387562)
(0.781312881386 0.00565912174157 -0.00892254484109)
(0.813220927056 0.0145432408124 -0.00587133956603)
(0.812090863326 0.0140333550041 -0.00978687031252)
(0.77815882032 0.00626350521936 -0.00502360717626)
(0.812085257172 0.0152888257807 -0.000931653888829)
(0.811162455352 0.0154827065644 0.00635662675984)
(0.775876970201 0.00762716455072 -0.0036421899393)
(0.770929362006 0.00690511147765 0.00301601969052)
(0.811260474833 0.0150471075992 -0.00234240542521)
(0.812265965112 0.0156664518955 0.00627189550454)
(0.776250522831 0.00626377095236 -0.00158101074324)
(0.814144269434 0.0147614634909 -0.00433648327194)
(0.81289579395 0.0142805338136 -0.00723865278728)
(0.78273853318 0.00424038689415 -0.00830049804443)
(0.780576116248 0.00259236958949 -0.00434967681646)
(0.812555750984 0.0141628249485 -0.00856927111089)
(0.814286328089 0.0147445504982 -0.00375919169896)
(0.779578744969 0.00485929465841 -0.00554790959129)
(0.812550156856 0.0151412254265 -0.00167310929652)
(0.813310261796 0.0152360411032 0.00332324091858)
(0.772110766693 0.00532306719017 0.0010581912329)
(0.777904421316 0.0024445575234 -0.00209143703985)
(0.812943738323 0.0154210675825 0.00380708824821)
(0.81308139985 0.0149416595222 -0.00146116613206)
(0.777364819938 0.00455472938675 -0.00262756856896)
(0.809380806207 0.0183311321488 0.0146405527571)
(0.809341456598 0.0180787451591 0.00906184041734)
(0.761206184093 0.00922548524366 0.00914675573174)
(0.767413136804 0.0069950901876 0.00612325619524)
(0.807986674492 0.0192935407456 0.0147883279718)
(0.810833128804 0.0169924509206 0.00897916151971)
(0.761779684447 0.00812038933375 0.0105729257678)
(0.808474396324 0.0198289547379 0.0152294004656)
(0.807708297319 0.0224275667917 0.0196520196039)
(0.757130017338 0.00914799035071 0.0109297153097)
(0.753583956267 0.0090257971799 0.0130128242374)
(0.807004997651 0.0210804739057 0.0158636529179)
(0.757110329902 0.00810189003335 0.0104464988534)
(0.809264761586 0.0210282916121 0.0178522943881)
(0.810525415591 0.0171741958258 0.0101230054268)
(0.812620345346 0.0153706234218 0.00505176642681)
(0.768524164941 0.00525417290666 0.00371176586615)
(0.764286194327 0.00439874825294 0.00596724838192)
(0.811931475627 0.0160192309152 0.00581047535345)
(0.811358117115 0.016551654905 0.0086584122883)
(0.763112389373 0.00646009796649 0.00678751322021)
(0.810167679343 0.0183154685093 0.0103370160724)
(0.81116388214 0.0174929620492 0.0100963927463)
(0.754373572083 0.00767276229961 0.00968592258982)
(0.759501173617 0.00469696962249 0.00624835598158)
(0.810896607464 0.0170065999212 0.00877728126349)
(0.758630724131 0.00683054775923 0.0074988698741)
(0.8105620684 0.019248494209 0.0122482123891)
(0.814490630625 0.0143971243461 -0.00250555285684)
(0.813382468416 0.014284512234 -0.00622025895923)
(0.780641175876 0.00104142308175 -0.00458169710837)
(0.783733845446 -0.000271109486793 -0.0048985203417)
(0.814339098117 0.0146758831861 -0.00360994703053)
(0.813784435863 0.0140799471837 -0.00477439809467)
(0.780925569041 -0.000151650636523 -0.00344396099447)
(0.813647853546 0.0145316054424 -0.00114758872817)
(0.81366538232 0.0151391948986 0.00177281598006)
(0.778109043719 0.000898669343358 -0.00301668137312)
(0.77394390609 -5.80508044831e-05 0.000315537003159)
(0.813358187101 0.0147278457929 -0.00185350075016)
(0.813787414394 0.0151569114638 0.00209938717619)
(0.7783045409 -0.000493154088366 -0.00232218988608)
(0.813991399535 0.0143162711937 0.000352309752927)
(0.813866940197 0.013976262027 0.00399966562779)
(0.773910987974 -0.000568401044642 0.00132271861961)
(0.777875376698 -0.000757265934332 0.000896624139435)
(0.814001170167 0.0148259858408 0.00290552636083)
(0.814313089644 0.0136883954756 0.00164129897845)
(0.778056246633 -0.000956871700628 -0.000639217202169)
(0.812006927444 0.0151369562439 0.00586456167283)
(0.813185737691 0.0149246322593 0.00320749893815)
(0.764900718619 0.00283834527068 0.00398763529543)
(0.769921952909 -0.000553260626213 0.00164173963021)
(0.811870487143 0.0157895814857 0.00621581217496)
(0.813354378821 0.0146509076025 0.0033906374188)
(0.765631349474 0.000678049167895 0.00384122028722)
(0.81140701488 0.0149716417647 0.00595488949578)
(0.811494658861 0.0160639297581 0.00782871936622)
(0.760340483191 0.00289409377046 0.00453847544626)
(0.757396829751 0.00180271229923 0.00588160387329)
(0.811441233385 0.0158659028426 0.00647326624991)
(0.760877976014 0.000952536781928 0.00381327900613)
(0.811356042291 0.0147856348122 0.00704824146616)
(0.812115585474 0.0145942732375 0.00565631135128)
(0.81332894089 0.0135206947062 0.00470286857612)
(0.770402151022 -0.00127535913716 0.00223322506233)
(0.766488485789 -0.000286537195133 0.00496201971034)
(0.813466242373 0.0143207611059 0.0037421939857)
(0.811830348537 0.0136426541142 0.00645365780809)
(0.766348601204 -0.000135411502825 0.00400531663034)
(0.811406389383 0.0142898831134 0.00550669652336)
(0.810739040531 0.0127311480173 0.00600346166387)
(0.758590679478 0.000622884679725 0.00519514449339)
(0.763074581236 -0.00026220356766 0.0042169271643)
(0.811084541834 0.0134042467038 0.00594040354489)
(0.762244001194 -8.32364272114e-05 0.00388977545448)
(0.81118069862 0.0137943694232 0.00606993166205)
(0.811320541549 0.0117413710051 0.00711056496273)
(0.813263301944 0.0126769447554 0.00516911127302)
(0.766991627013 -0.000278387684603 0.00494621414044)
(0.77083857906 8.83452545704e-05 0.00456569603205)
(0.811617878806 0.0126986008127 0.00653852851007)
(0.813045145152 0.0118872679797 0.00580394925699)
(0.766888551037 0.000483021689499 0.00565982175919)
(0.81032037407 0.011804727495 0.00542891077208)
(0.763839006054 -0.000263190169058 0.00427187334952)
(0.810918878158 0.0126500023849 0.00592124880271)
(0.816909334793 0.00441916133238 -0.000897261242446)
(0.81869948812 0.00320080493399 -0.0008787288562)
(0.819558558358 0.00153202436882 -0.0007579613028)
(0.817220283707 -0.000967731930291 -0.000168140280664)
(0.809960178864 -0.00218021165463 0.000410292465748)
(0.834883874444 -0.0513848190139 0.000735434684886)
(0.817360532797 0.00460510062742 -0.00109316459229)
(0.819041844103 0.00314846151398 -0.000606894362499)
(0.82003805261 0.00228142431705 -1.07436423514e-06)
(0.818259306623 -0.00110208168573 0.00187575701796)
(0.810990188521 -0.00298339559911 0.00476968808502)
(0.839086461319 -0.0576820167088 0.00613673684961)
(0.816054239187 0.00633226024199 0.000523440910076)
(0.81168582687 0.00658179839859 0.000658818213114)
(0.788231873128 0.0108546582172 0.0024823700588)
(0.783887155703 0.0114596129329 0.00212806211957)
(0.780443189529 0.0126324283167 0.00260462187202)
(0.772474444515 0.016370954847 0.000198145167499)
(0.78149650783 0.0199101731933 -0.023418072994)
(0.714558603808 -0.0137526230176 0.0244346128853)
(0.82668741805 0.00525709734998 0.000223963393105)
(0.823775707067 0.00344695509144 0.000196907432096)
(0.819579846118 0.000639129184646 -0.00121517782258)
(0.817706473422 -0.00098492655291 -0.00321493561567)
(0.816466999569 0.000362552847428 -0.00351763687829)
(0.817737668974 0.00349186955833 -0.00275804605223)
(0.810363554675 0.010693794766 0.000563770779296)
(0.841060564899 -0.0839102277328 0.0127660300072)
(0.820356928941 0.005837826018 -0.000408910792734)
(0.822147436094 0.00442123303072 -0.000821067482471)
(0.822327404767 0.00349658732971 -0.00135793486239)
(0.821739034211 0.0031142771702 -0.00222669958427)
(0.820406683075 0.00296683486573 -0.00203906119726)
(0.820291440915 0.00242076492824 -0.000573885260056)
(0.81222057306 0.0010969733765 0.00159982776407)
(0.844220243919 -0.0667531922767 0.00466061076972)
(0.816454942818 0.00676558836615 -0.000844246716199)
(0.819279600455 0.00397751526331 -0.000650362342675)
(0.82039728952 0.00223554836413 -0.000917855396591)
(0.82055482325 0.00106759728319 -0.00109637630681)
(0.819659190269 0.000656837074139 -0.00116708905921)
(0.819571728848 -0.000349037703354 -0.000297435695294)
(0.811497744747 -0.00157645643732 0.00129001624015)
(0.839824598969 -0.0695967426937 0.00305054086708)
(0.818995350242 0.0012075034966 -0.000781430953975)
(0.81862963864 -0.000122334524344 -0.000224679733174)
(0.810699784566 -0.00176605106949 0.000760641145649)
(0.837822422181 -0.0547519841975 0.00146968082072)
(0.638640008902 0.0424245943706 0.0134743741339)
(0.634315555408 0.0403418761313 0.0140288474772)
(0.64421619905 0.0254325507063 0.0195869975237)
(0.641969665679 0.0223089367098 0.0165560688974)
(0.639026790366 0.0231605137194 0.0156861466574)
(0.605435744405 0.0260403011559 0.0183790684259)
(0.678886131386 0.0387377934633 0.0182995396758)
(0.229086775362 -0.0624469287118 0.0607470624484)
(0.774085967076 0.0128311523249 0.00894218431766)
(0.768689972353 0.00979871572825 0.00851411868428)
(0.774515163518 0.0029050725829 0.0113228400261)
(0.772302600865 0.00250639396096 0.0134037488333)
(0.771572176318 0.0048407746032 0.0145064517279)
(0.773147527119 0.00790154896416 0.0183766011848)
(0.775123809865 0.0431349621335 0.0292107335676)
(0.81163055035 -0.173697675743 0.0473417280276)
(0.821628363987 0.00631318163166 0.000225025849063)
(0.821426667301 0.00498697790214 0.00015941110012)
(0.821238448907 0.00536836357056 0.000149075990522)
(0.821295793211 0.00649389966046 0.000448391877851)
(0.821301086081 0.00698300489103 0.00184048853054)
(0.823443056577 0.00615700726871 0.00473713130075)
(0.817116422717 0.00338888240864 0.0121260071161)
(0.882581059407 -0.11823472279 0.017126721049)
(0.816855182013 0.00618329828689 -0.00062101011736)
(0.81950745781 0.00419427656323 -0.000471471071741)
(0.820605579168 0.0028041356733 -0.000170253135561)
(0.820597179971 0.00227228066612 0.000131504691435)
(0.820259989214 0.00167390323778 0.00116101487065)
(0.822040249512 0.000112849608682 0.00384477891763)
(0.815111041046 -0.00217977690594 0.00875324207865)
(0.854581853565 -0.0877297400895 0.0123319303016)
(0.819538639444 0.00168438186333 0.000697625946965)
(0.820142766843 -7.05399846173e-05 0.00256523083578)
(0.812539974039 -0.00270347073296 0.00591935163321)
(0.845570070768 -0.0667543046907 0.007769836018)
(0.6337524972 -0.0146276291323 0.0228443629226)
(0.626454095887 -0.0150281484347 0.0213673594123)
(0.631908070481 -0.0189064097081 0.0233242157217)
(0.633114336887 -0.0172574682068 0.0212399112238)
(0.635606215405 -0.0130893692288 0.0226289652484)
(0.627139431351 -0.00231629032638 0.0261444700116)
(0.684454321501 0.0509176187414 0.0661143700981)
(0.516866990104 -0.388176084718 0.0164405759132)
(0.734720735513 0.00496460616676 0.0262519467203)
(0.73085963131 0.000493109535931 0.0250328700898)
(0.78182073931 0.00122606816309 0.00909007189801)
(0.781674223591 0.00153739363518 0.0103465993484)
(0.783632200765 0.0034008857626 0.0121589260847)
(0.792762173022 0.00227110736082 0.0121978103173)
(0.804985284828 0.0186417134215 0.0137804473802)
(0.902661862453 -0.199765189836 0.00613344566513)
(0.821482634146 0.00461445081052 -0.000296100211603)
(0.822410424495 0.00420592240681 -0.00109679005132)
(0.822727272701 0.0026882479562 -0.00184406089563)
(0.82318862305 0.0020357246888 -0.00155302545788)
(0.824195916594 0.00151080059293 -3.1229800765e-05)
(0.830485745879 -0.00159803771769 0.0010499403244)
(0.824528900637 -0.00685418173946 0.00130023884595)
(0.913801262684 -0.180149116495 0.00267806512247)
(0.812673793964 0.00987011912921 -0.000782605678138)
(0.816243642432 0.00543143371768 -0.00187462040516)
(0.819970233829 0.00312809414538 -0.00211677902174)
(0.821855222082 0.00208474149055 -0.00175903617606)
(0.82224463601 0.00112514370002 -0.0014142452717)
(0.822675742814 0.000106014364207 -0.000220978587736)
(0.826713266248 -0.00269248029077 0.00128287162063)