/*--------------------------------*- C++ -*----------------------------------*\
| =========                 |                                                 |
| \\      /  F ield         | OpenFOAM: The Open Source CFD Toolbox           |
|  \\    /   O peration     | Version:  v1906                                 |
|   \\  /    A nd           | Web:      www.OpenFOAM.com                      |
|    \\/     M anipulation  |                                                 |
\*---------------------------------------------------------------------------*/
FoamFile
{
    version     2.0;
    format      ascii;
    class       surfaceScalarField;
    location    "5.6";
    object      alphaPhi0.water;
}
// * * * * * * * * * * * * * * * * * * * * * * * * * * * * * * * * * * * * * //

dimensions      [0 3 -1 0 0 0 0];
oriented        oriented;


internalField   nonuniform List<scalar> 
92311
(
0.202763539718
-0.000247983500606
-0.000207428400457
-0.202466165755
0.0001580048838
-0.00032727379632
0.202959329138
0.000425431499118
-0.000293755704556
0.20270043864
-0.000525302475377
-0.000198653376385
-0.202376509615
0.000151924053793
-0.000777923120278
0.203057648193
0.000424967047233
-0.000331393070123
0.202527838026
-0.000218864218122
-0.000274485291874
-7.73580796041e-05
-0.202129323521
7.44727894304e-05
-0.000189553496283
-0.000238063085014
-0.000342136893921
-0.000447196244924
-0.000451138726437
0.203252147311
0.000450249012096
-0.000383972708134
-0.000328076686826
0.050496475997
-6.49973449903e-05
-6.9474590357e-05
-6.28796930301e-05
-7.07448864463e-05
-5.99904665961e-05
-0.0504812654725
9.40550504082e-05
-0.0505882194971
0.0507371659858
-0.000140122906619
-0.000114051661718
-0.000116115932447
-0.000134920822588
0.000100485107181
-8.62764474856e-05
2.77722110781e-06
0.000527101578607
4.01012289197e-06
2.18011903154e-06
3.63083892198e-06
-0.000118287395623
-0.00067059515301
5.26068019108e-06
6.0780684183e-05
-0.000120121693929
0.000159803683825
3.87689109153e-06
-7.65745776058e-05
1.82370691628e-05
1.90707563769e-05
1.6127478511e-05
1.6878954822e-05
-0.00012748969349
-2.36449176241e-08
-9.75728403303e-07
-9.54773657764e-07
-1.03123454667e-06
-1.05818330037e-08
-1.82955216528e-08
4.17641318534e-08
-8.62026313137e-07
-9.25343373989e-05
-0.000103482094188
-0.000106644109992
-9.16555632014e-05
2.87465632377e-05
-5.96089444135e-07
6.76480104057e-05
0.0115790280124
1.66143347396e-05
-1.93135973179e-05
-0.0116084281017
0.011411397804
-9.211975264e-06
0.000123427679492
-0.0114771019647
2.30219042105e-05
-1.69857906105e-05
-0.000168668736578
-0.000158688262883
0.0508825094755
-0.000150473437711
-0.000141852361224
-0.000136395346657
0.000163672398361
-0.000172568940757
0.0508289418828
-0.000178936296161
-0.0001541342981
-0.000150480360592
-0.0506513297342
-0.000141202549757
-1.21527906718e-05
0.000131261748701
0.0113515131403
1.41330934237e-05
-7.92081380531e-06
-6.34949277266e-05
0.0127237824692
5.26575101531e-05
-0.00017384859592
-0.0126967979108
0.0127203630951
-6.33821335082e-05
-0.000203051390639
-0.0126885803579
-0.000171777217508
0.202942588846
-0.000935219559109
0.000794019040839
-0.202629794887
0.203013236054
-0.00030353890582
0.000932223459499
-0.000682299323253
-0.000122383184126
0.202839727322
0.00120236940736
-0.000906273874793
-0.00024996401744
0.202885155263
-0.000978320207478
0.000782817727599
-0.202611520179
0.203180189184
-0.00065345598712
0.000908405188305
-0.000680870025943
-0.00025154993193
0.20297470926
0.00121149632126
-0.000876789109391
-8.4789571423e-05
-8.97665393783e-05
-7.77964059661e-05
-0.000776516712037
0.202618743176
0.000667713389674
-0.202429772009
-7.77827431482e-05
-0.000381869530859
-0.000321460657706
-0.000379905024638
-0.000294552379532
0.203718084151
0.00108085117866
-0.000822587561173
0.0505681872721
-2.94205820014e-05
-1.65091810222e-05
-2.13805696599e-05
-2.44738551376e-05
-0.000178033128658
-0.050560907107
0.000177781534396
0.0510410105392
-0.000184167808164
-0.000138208944698
-0.000130818247801
-0.000133467010174
-0.000127169022632
0.000173460438921
0.000218447886923
3.33288437993e-06
-0.000250498903049
1.75781969536e-05
1.84932893792e-05
1.79336036975e-05
1.84515896159e-05
-0.000228755629551
-6.32909870219e-07
-3.95695962148e-07
-5.31733380665e-07
1.02062548228e-08
1.78099553584e-07
-5.44190951734e-08
-7.34485363159e-09
-4.67957755001e-07
1.38979178506e-07
1.9241496018e-07
4.98010056404e-08
4.44452399895e-08
7.36292798361e-08
-2.8090310552e-08
1.98313234354e-07
9.31288501738e-05
-4.35823407765e-05
-4.23873368133e-05
-3.7902319699e-05
-4.66364082504e-05
0.0506214022481
-6.55515615904e-05
-3.43318238264e-05
-3.74112107824e-05
-3.55031316383e-05
-3.74348487717e-05
0.0505514122843
0.000117675151835
-0.0505090688853
1.85697184872e-05
1.35988331596e-05
0.0116490866665
7.89441667492e-05
-0.000104313533957
-0.0116562450421
-6.60509322239e-07
5.52829356382e-05
-0.0116196582505
4.93164784072e-05
-6.68199401481e-05
0.0115911441692
-3.31047920834e-05
0.0126058244133
-2.68490514086e-05
2.97431541915e-05
-0.0126096336373
-0.000218229061641
-0.000100882530099
-7.9738113531e-05
-9.64757374433e-05
-8.20438343809e-05
0.051062485519
0.00023450027372
0.0510155793916
-0.000148813725564
-0.00014843876046
-0.000155219870808
-0.000140077447754
-0.000158065189364
-0.000108561656227
-8.03265602532e-05
-9.97670263859e-05
-7.5177021315e-05
0.0510486139311
-0.00018201238455
-6.43536668454e-05
5.43053085968e-05
-0.000157312717575
0.0127539424334
-1.13998585119e-05
7.22767604241e-05
-0.0109622677548
-8.86661063187e-06
0.0109549700948
1.60274805197e-05
-6.27095212829e-05
-0.000182834306609
0.0127541250152
-0.0127777118452
-0.000135255076563
0.0127991526145
5.32493749254e-05
-4.66360705716e-05
0.000309056588643
6.84720479913e-06
8.47492757519e-06
5.95405652281e-06
-7.07897521087e-05
7.67825938457e-05
5.61838398646e-06
4.36168049565e-06
2.10561092383e-05
2.45223289692e-05
1.97387374218e-05
1.87390260429e-05
-0.000138429555586
0.000189586678107
-7.83077956392e-05
-1.61495101621e-06
-1.91022072933e-06
-6.9904244125e-08
2.23055196759e-06
-5.39206272394e-07
-2.1267332474e-06
-1.69174591069e-07
4.75281774616e-06
1.50436357361e-05
1.1341950537e-05
1.55644246699e-05
-6.54207615838e-05
0.000108288031663
-9.78480753208e-08
-2.37312571695e-06
1.03035270607e-06
2.33032108516e-05
0.0125949805432
-1.59747494582e-05
-0.0125995851927
-0.0125850975386
-8.41083522155e-05
-6.35649023895e-06
0.0125919600938
1.45889417786e-05
2.08214689874e-05
8.65011868272e-05
0.0115310344791
-2.00934076633e-05
6.43903660136e-05
0.0115936542622
-0.0116296606041
1.59007921234e-05
-0.0125907915489
3.07083670455e-05
0.0115437288792
2.07125556599e-05
0.0126041578262
6.49648162169e-07
0.0125921813298
-0.000101321801939
5.04457458645e-06
4.23149043606e-06
-1.66918817277e-05
-0.0126057587221
0.0126223079223
2.10700476669e-05
2.22453727531e-05
9.99040854102e-05
-1.98096415647e-05
0.000128705289713
-0.0114895364856
0.0114178636662
2.51096131608e-05
0.0126118167876
-1.31522244035e-05
2.13376423554e-05
1.24450711717e-05
-0.0126328003215
-0.00016703542683
3.9364143093e-05
0.0126648640247
-4.33929466915e-05
-3.12990001907e-05
0.0126421790619
2.98009563707e-05
7.67196249347e-06
0.000158204415909
0.0112731234336
-1.21149589353e-06
0.000135890506272
0.0113524472105
1.20343371599e-05
-3.1351922578e-05
0.0112651925634
1.04615286165e-05
0.0126722897502
3.37097293451e-05
-0.00016402458585
-0.0127013526455
0.0127268220576
4.18277762962e-05
-6.27346526223e-06
-0.0112021496638
0.011123545015
9.48704781903e-06
-0.0111915241678
-7.42016398187e-06
0.0111126204572
-0.000164350930164
4.77616447016e-05
-5.61569957619e-05
-6.71164292473e-07
0.000153846697329
6.19163898575e-06
-1.02715600822e-06
3.72160931103e-05
-0.00021970639151
-0.012680356904
0.0127167018755
-5.75486020888e-05
-2.09508355407e-05
-0.0111890884331
0.0111021068908
-0.0112024693187
0.0110954445045
-2.45864927053e-05
-5.49421012253e-05
-0.000192223220264
-0.0126504427057
0.000200906402451
1.33460604371e-05
-0.0112991277303
-1.8335160591e-05
-0.0126354843547
-4.83806325095e-05
-0.0112714169811
4.61801268746e-06
-0.000242332822745
4.96113038665e-07
1.381009218e-06
3.44866390083e-07
-2.60363334374e-06
0.000714624471184
-0.000800453432664
0.000149365982025
-9.10369487372e-07
1.86742120196e-06
3.86482583523e-07
-1.6634616604e-06
0.000763682221321
3.31405740712e-06
-1.3755446556e-05
-5.08993390175e-06
-4.92177804422e-06
-0.000346009569865
0.000269608977874
-0.000809939477583
3.9120879987e-06
4.02994090202e-07
6.12800150989e-07
3.01929527528e-07
0.000670934219058
-0.000292450470411
1.20583003826e-06
-9.89416825454e-07
-1.18487347844e-06
8.23142028556e-07
-1.04610903024e-06
9.0050475421e-07
3.48731686675e-06
-0.000275535833195
1.96827198573e-05
2.23722794009e-05
2.28247525657e-05
1.9452443879e-05
0.000205790506343
-2.00892958959e-06
-1.44022471215e-06
4.77410068783e-06
-1.68370257167e-06
4.609972095e-07
3.50717962054e-06
-0.000218146309549
1.60209184171e-05
1.04801725169e-05
9.95587564763e-06
1.38121049859e-05
-0.000370489622791
0.00018195877475
-2.40105557571e-06
-3.40021024856e-07
5.37939158222e-06
3.56199099537e-06
1.45682560323e-05
1.10000994018e-05
1.3982134419e-05
-0.000343200566044
-0.000257652975007
-4.25884608331e-07
4.07622162513e-08
-3.14916848764e-05
-0.0126231580785
-3.0573210052e-05
0.0126221176311
3.35964215913e-05
0.0126298660828
3.82003021025e-05
-3.75146599185e-05
-0.0126335087777
2.33687927389e-05
7.1412639978e-05
0.0116368851183
-9.50796957552e-05
2.35894497663e-05
0.011647193213
-0.0116479099487
5.81038897475e-05
0.0126283143104
-2.80859075026e-05
-0.0126249151587
3.91243739961e-05
0.0116350446756
5.01986519763e-05
-2.39166891903e-05
0.0126214928043
-4.64701535658e-05
2.74595305153e-05
-0.0126292138782
1.38587679379e-05
-6.9485350502e-06
0.0126353681954
4.46871636777e-05
5.86548712762e-05
-8.06803025683e-05
5.49241931134e-05
-0.0116120135708
3.07322672565e-05
0.0115835476906
-1.81442063183e-05
1.64671626582e-05
0.0126273151742
3.87611013499e-05
0.0116155116204
-2.35131091113e-05
1.53390933425e-05
-0.0116304635634
4.54486121211e-05
-2.07836619012e-05
0.0115965978649
1.68168407923e-05
-1.61589843258e-05
0.012609532994
2.07517579253e-05
0.0126148881458
-3.1909813756e-05
-0.0126179665385
4.0727349542e-05
-0.011608842793
0.0115859263731
0.012618531638
-0.0116245162775
-0.000148296622346
0.0127561700207
4.34181601172e-05
-8.44580360299e-06
0.0110549251846
1.21625664482e-05
0.0110466430339
-7.88243656212e-06
5.60195267375e-05
-0.000141790565267
0.0127707614663
-6.35355216617e-05
0.000136592822307
-9.27108670827e-06
0.0110000133962
1.32181172384e-05
0.0127731408087
4.91755947438e-05
0.0109924726428
-8.47277840943e-06
5.60277580155e-05
0.0127898546988
-0.000114998628645
-6.02155780847e-05
-0.0127921443945
-5.44827908213e-05
0.0127834478839
5.62349229645e-05
0.000113348244011
-8.20789329951e-06
1.36788629544e-05
7.15073628281e-05
-0.0109490409557
-4.43545342433e-06
0.0109351343683
5.45949756401e-05
-5.58230633123e-05
0.0127811092235
-6.98104498471e-06
-0.0127561056224
-0.000173414292904
5.86382052779e-05
-5.3934629796e-05
-0.000198050025996
-5.77875741415e-05
-2.02102424519e-05
0.0110303663575
0.0110105708222
-2.73350000112e-05
2.09398861957e-05
0.010949338531
-2.40461927427e-05
-0.000162469948986
0.0127728434779
0.0109732191108
0.0109070100864
1.65907679113e-05
-1.95180336005e-05
7.20165390946e-05
9.66989202512e-06
0.0108984553779
-1.20994697734e-05
4.63731433138e-05
0.0127849022451
-3.96987301956e-05
0.012793350098
-0.000126283125199
7.36061438104e-05
-0.0109285617515
0.0109188256768
0.0127828872437
-0.000162314540003
-0.000103804855574
1.73839254441e-05
0.00130074145665
0.203345452446
-6.21851864635e-05
-0.000868889353515
-0.000215475098369
-3.29512934313e-05
-5.77169262788e-05
-2.97911447493e-05
-6.01056003823e-05
0.000243208643316
0.051053018436
3.65369293136e-06
0.000187976362296
3.99610122351e-06
-1.16258823606e-06
3.81975059921e-06
-2.22421148931e-06
-0.000235434661254
-0.000427239953864
0
0
4.63240769726e-08
0
-2.10330969555e-26
2.73052028635e-08
-9.30850804456e-26
-5.38152241162e-05
-5.64740212319e-05
-5.35301772881e-05
-5.71668293702e-05
0.000176287599834
-3.66074956192e-05
0.0505727598934
-2.8787054555e-06
5.97775457177e-05
-1.60713027012e-05
0.0115628868513
0.0510350546846
-1.61666034615e-05
-5.64633512786e-05
-5.11461966199e-05
-1.13391483839e-05
-0.000170673694388
0.0509157021298
8.59242150643e-06
3.83511491915e-05
2.8438463201e-05
1.3466497613e-05
0.000233529868428
-0.000185631787444
4.893240677e-05
0.0109329097
-8.77719404384e-06
1.70255684684e-05
-1.12656238599e-06
4.39466801387e-05
2.67823119313e-06
0.0108721975604
-3.47243258685e-06
0.0108159814309
7.16190131269e-05
-5.52401002982e-05
3.01377306902e-06
-0.0108286190472
-7.60861256829e-06
0.0507784522799
5.44858827544e-05
4.16849196386e-05
3.52669724413e-05
5.89034134044e-05
-9.78580817721e-05
0.000256797246434
-0.000212004257403
5.1794466631e-05
5.57810342725e-05
4.83887480635e-05
5.71500239742e-05
-0.000140075367168
0.000277866503046
0.0506692220574
-0.000241642751469
7.55775143879e-05
-6.01184384507e-05
3.9410652045e-06
0.0108009677891
-7.79982351829e-06
6.25759699186e-05
-6.74400945754e-05
-5.48001613038e-06
-0.0107821289986
0.010770436865
7.96416553429e-06
1.88632961757e-06
3.78037522344e-06
2.99240378109e-06
-0.000167253364915
0.000572816051754
5.0200437209e-06
-0.000443048093412
3.08522640666e-06
2.54758764705e-06
-1.76446660011e-05
-1.12522994687e-05
0.000154823323409
-1.15427049313e-06
-0.00035058283873
-4.83276024847e-05
-5.59259642737e-05
-3.95091025824e-05
-0.000167737326366
0.000149154672261
1.28728499031e-06
1.64511821994e-06
-8.66886511898e-08
-2.85030157538e-08
4.28904368221e-06
-5.19201931918e-07
1.76203289403e-07
2.66519013485e-06
-0.00018490996024
-6.43476809385e-05
-8.68635590322e-05
-7.45599591606e-05
-0.000183483045024
-1.82665221548e-06
0.000215146978468
-5.08149640716e-05
-6.74611901331e-05
-6.00935543068e-05
-0.000227099050225
-8.98712398532e-07
-0.000103205389295
0.000294652337624
-0.0126169995677
-6.17903595744e-05
-5.1633960456e-06
4.94302179708e-06
0.012625655253
-9.9409589521e-06
0.0126071408292
5.19735903342e-05
0.0115517622825
-1.99591256606e-05
-1.1566859759e-05
7.04371837169e-05
0.0115172348776
-9.66823217461e-06
-8.32074165455e-06
0.0115170223298
0.0126164486874
5.61361665298e-05
-0.0127677651024
-1.22444865768e-05
-5.39302157172e-05
0.0127449864881
0.0127702896775
-5.56074158802e-05
6.03042650591e-05
1.22313214384e-05
-9.84947126163e-06
1.75150885421e-05
0.0109150709963
4.94635967697e-05
0.0109161763055
-1.80420225545e-06
6.08040611153e-05
0.012748046012
-5.26917965175e-05
-3.94215363734e-06
0.0109038843004
-0.0127678397164
-7.1231156363e-06
-3.9670356382e-05
0.012744989018
3.94200591917e-05
0.0127659647104
-3.26743121317e-05
4.87974679199e-05
0.0108994796044
3.61092803473e-06
-1.24562465558e-06
0.0108630076281
-4.06681203881e-06
0.0108917311958
0.012745429433
-3.14869438146e-05
0.0127331643906
2.67539800338e-06
-3.78546993618e-05
5.5583099763e-05
3.84645967367e-05
-0.0127317575784
0.0127094793331
-3.32355449674e-05
-3.18074596898e-05
-0.0108569552623
0.0108461372599
4.75230335232e-06
4.83414519534e-06
-1.94695650225e-05
-9.38730291047e-06
0.01271408316
5.41231321675e-05
6.30743080908e-06
-3.03029879755e-05
-0.0126914367802
6.71280453107e-05
-4.7003914069e-05
0.0126647215595
6.09953786698e-05
4.10532181908e-05
0.0126857146782
-3.5703848417e-05
-4.4145688934e-05
0.0108202013879
4.57286398633e-06
2.49770284256e-06
-7.99490144419e-05
0.010784424275
-4.52521971992e-06
5.48670796062e-05
0.0107942922884
3.26092623245e-06
0.0126589284981
-4.13530112154e-05
0.0126393615771
6.43583122286e-05
-5.36252560034e-05
6.62354510101e-05
5.970255599e-05
-0.0126332424705
0.0126167945952
-5.51196058172e-05
-5.19705663662e-05
-0.0107819275033
-1.54283879535e-06
0.0107731318371
-1.0449819632e-06
-7.63841578e-05
-2.35385242368e-06
7.1366687448e-05
0.0126239032838
1.92005688604e-07
-4.74372363541e-05
-0.000559164307992
-0.0494594798615
0.049424227605
0.000698305683384
-4.66338182964e-05
-4.38509970247e-05
-3.34101090339e-05
-6.21866766423e-05
8.2062794663e-05
-0.000761158430105
0.0500100419579
-1.81785042395e-05
-5.79672610434e-05
-2.90971316969e-05
-5.34109585781e-05
0.000100228377181
-0.0498793718241
0.00068901765845
-0.00112867050442
-0.0501107744431
0.0502253622735
0.000889947135522
6.03478249734e-05
4.19558930506e-05
4.63465375492e-05
4.73365685232e-05
-7.19071492982e-05
-0.000668475338639
2.40647625559e-05
3.13031967549e-05
3.5394851604e-05
2.15284514223e-05
-1.96988536085e-05
0.0503295513095
0.000503387053287
-0.0502570667274
5.33826260007e-06
-2.46576657865e-05
-0.000696532807388
0.000659439533619
3.05637737186e-05
1.00390978864e-06
5.86772193057e-06
8.02928568609e-06
5.95966002405e-06
4.25388208293e-07
-0.000660541018497
0.00069995449842
-4.64245923773e-05
-4.23914328006e-07
6.63796457978e-08
-2.49696127683e-05
-1.48126356045e-05
4.66910857447e-05
3.37000176547e-06
-3.58000853682e-05
0.00051844314654
1.01973720025e-07
2.51808737382e-07
1.62100889345e-06
-1.00250429498e-05
-0.000551920916157
6.52802481411e-05
-5.59566846055e-05
-5.4769798994e-06
-0.000579180374775
0.000766917333277
0.000109057029436
-4.3324748424e-06
-4.3326455599e-05
-6.77984379405e-05
-8.14036194374e-05
-4.56226191786e-05
-0.000242788216103
-4.50188939757e-05
-3.07504292584e-05
-1.75928989359e-05
0.000697388134305
0.000275502713824
-2.31215736144e-06
-0.000594896894576
1.00164237194e-07
2.9342478747e-11
3.25243543179e-08
1.00475964196e-08
4.99322070984e-09
1.65326738757e-09
1.07104325027e-09
-1.7643145027e-27
-3.34020030788e-07
-3.55726275739e-07
-1.12396164411e-06
-5.09807188039e-07
-9.88383631544e-07
5.79479075584e-08
-1.21171222833e-07
0
-3.64816294259e-09
4.95796867062e-09
3.42941756502e-09
0
0
-4.70988081431e-09
-1.56440665832e-07
-1.85088148871e-07
-2.6943631259e-07
4.50180946832e-08
2.05434027988e-08
1.78853948222e-07
1.67493166333e-07
2.19686919467e-08
1.75810997346e-07
2.25385056275e-07
-1.23140809638e-07
-5.58737584712e-09
2.49060554112e-08
1.74864789015e-07
1.04903654645e-07
3.04300427628e-07
1.72055380051e-07
9.13373440776e-07
-4.1982297819e-07
0.000186957939418
8.09267242447e-06
-6.31879559743e-06
1.21022116128e-07
1.24198381804e-06
0.0490181572706
0.000127555241758
-4.26455044275e-05
-0.0492930568678
0.0491186983882
0.000324824500693
-1.14877839162e-07
-1.68066414116e-05
-5.34681197022e-06
-1.39002103777e-05
0.000125798320383
-0.0493462631962
-5.26687193278e-07
-2.50116529106e-06
-0.0117467334366
1.89113391612e-05
0.0117274627625
9.11812882803e-06
0.0117113742442
8.36476321102e-05
-2.12219799754e-06
2.5956522968e-05
-6.26800850946e-05
-0.011738868906
-2.3896681136e-06
-1.68558529126e-05
4.95391774037e-06
-8.92542828073e-06
-0.000308336644938
0.0122904657059
0.0122467529429
0.0121529474139
0.0122069267372
-6.11600306283e-06
9.89628458125e-05
-4.42338733819e-06
4.25828477639e-05
-7.20993297868e-05
0.0116745812349
0.000460170292052
-6.16009361034e-05
-4.77883618522e-05
-3.91149811216e-05
-6.95720689729e-05
0.00012443547877
-0.0495010798164
0.0496807186884
-7.9452264569e-05
-9.23267151231e-05
-8.59365014012e-05
-8.74400426717e-05
0.00016864158174
-0.0496418429215
0.000598141112114
0.0116743001767
-4.67700325549e-06
7.71570712315e-05
-0.0117159744024
8.99503399642e-05
0.0115062270802
-1.0161819463e-05
0.000137309571728
-8.45526045823e-05
-0.0115509933038
7.17457018738e-05
0.000997710807315
-2.44890937548e-05
7.84595453826e-06
-1.14057484945e-05
1.05417063244e-05
0.0493921709269
-0.000227817295015
-0.000185922383617
-0.000230452932985
-0.000187034506489
-4.45662843332e-05
-1.95604619187e-05
-3.12725753965e-05
-2.15940379902e-05
0.0497277120869
-4.01245707432e-05
-7.07950066692e-05
-6.34396346534e-05
-3.82992852654e-05
0.000102746777066
0.0498802331723
0.000926022850646
-2.48917261948e-05
1.10947996208e-05
9.94717073107e-06
-2.42940481057e-05
-5.28673867581e-05
7.5851808644e-05
0.0116347730578
0.000107914401187
0.0115583567089
-1.62082617792e-06
3.76147227601e-06
-0.0115657712891
0.000167516749103
-0.000155827878975
9.25540644821e-05
-5.80843185524e-06
9.92633310718e-05
-0.000106844531464
0.0114684374605
0.0114515621905
0.000131139091388
3.36507419663e-05
-1.76998551566e-05
-0.000152905543516
-0.0114549578792
0.0500143523204
3.93133744407e-05
4.34424972522e-05
3.67536240821e-05
4.91894742413e-05
-0.00124678812298
-0.000184920079919
0.00127576103735
5.72000990639e-05
5.8489946993e-05
6.23223815647e-05
5.15803427199e-05
0.0504783046424
-0.000356559920391
-0.00161288008046
-1.77140034883e-05
0.0115627202404
0.000178976852438
-0.000168183128638
-3.01770558581e-06
-1.9697623342e-05
-0.0115595830445
0.000197185454733
0.0115660493254
-0.000196266511185
0.000136923675349
6.70677163335e-05
-6.22452956876e-05
-0.000164286641261
0.0114474173231
0.00015409899698
2.19144262094e-05
-4.75177965125e-05
-0.000171261772008
-0.0114994749967
0.0115365051946
0.000791587669076
8.88254053674e-06
1.59675535909e-05
-9.54469793347e-06
2.64190624667e-05
-8.14246020875e-06
0.0502067357154
1.65385650838e-05
2.95663621696e-05
2.90024846088e-05
1.63126890144e-05
5.63495660893e-06
-0.0501361764394
0.000624037971525
6.16572790357e-05
0.0114417415301
8.73028178466e-05
-0.011468092306
0.0114380006016
3.64972816264e-05
-3.44134713478e-05
-0.0114389305738
0.000122363048779
0.0114459653068
4.52365202088e-05
-5.69955847125e-05
-0.00010146317596
-0.0114405034427
0.000101586145114
0.000969576758207
7.22906476859e-05
5.57226900584e-05
5.90514626071e-05
7.07360855e-05
0.0504373752205
-0.000163669961766
0.0503059468331
6.45619362342e-05
4.57759325005e-05
5.16701149315e-05
5.35349067417e-05
-9.33332146488e-05
7.86837155084e-05
6.86237977902e-05
6.74891451686e-05
7.77442962678e-05
0.0504201907929
0.000708199824136
-0.000145467126169
-7.08884012614e-05
0.0114325399502
0.000129811334163
2.71505320893e-05
-6.68159640164e-05
-0.0114845961871
0.000151553916695
0.0115213902346
0.000116028607103
5.48561013197e-05
-7.42920756673e-05
-0.000114442112646
0.0114493055053
0.000145880106779
5.41233997702e-05
-9.44861880626e-05
-0.000139658132605
-0.0114865329009
0.0115099392294
-6.02216673489e-05
0.0114712045435
0.00011526771771
-0.0114650221438
-6.52771602675e-05
-0.0115046026165
0.0115277759838
4.00022826822e-05
0.000141947213693
3.10316417076e-05
2.80299160075e-07
-4.7739918268e-06
-4.50766575373e-06
0.000779949836821
1.68600516791e-05
-0.000774064308543
-9.10570250775e-09
0.000762356173014
7.00419755344e-05
-1.89992443264e-06
5.54821013751e-07
-5.23970085719e-06
-0.000765030130556
-8.09613654438e-09
7.28993993037e-07
1.97320120219e-06
6.08354812757e-06
3.84627980142e-06
-7.20519198567e-06
0.000740705605492
1.4902039562e-07
-1.45520651701e-08
-2.58003354178e-07
3.18018093752e-09
-2.25650354504e-08
-3.30603804023e-08
9.84833397327e-07
-9.80776375243e-07
-3.00034784174e-08
5.55549538729e-07
-1.64501609858e-07
-5.25793356915e-08
1.92236579177e-06
-2.50411189852e-07
-6.58400213743e-07
3.1500138063e-06
-7.36504488787e-08
-4.10256648652e-07
-2.49873207825e-07
-1.69646140569e-07
3.57035852267e-06
-1.51495323606e-07
-7.5937107632e-07
4.67529469254e-06
-4.23101574812e-07
-1.54849253294e-07
-5.75983552684e-07
4.04810381289e-06
4.09425601652e-07
5.27372120966e-05
2.76251472868e-06
8.16213335345e-06
6.11705960281e-06
1.48441442685e-06
-0.000728258465541
0.000590750596895
8.67566499834e-06
9.43429013043e-06
7.46404521627e-06
-0.000653954244013
1.81378884177e-06
2.95999500148e-05
-1.39996960988e-06
2.59553574424e-07
3.52959246451e-06
7.28348582057e-07
2.96750289486e-06
1.43636333733e-05
0.000556431977625
7.01603485925e-07
6.81465224797e-06
2.92261798928e-06
3.92989174073e-06
-1.54185640127e-07
0.000578161027772
1.72126683225e-05
-2.79416410656e-05
-1.09439156624e-06
8.14890284563e-07
1.59384429043e-06
-3.51682542386e-07
-4.6235816512e-07
-2.24879531667e-07
2.9257322444e-06
2.5813677487e-06
-3.45065096569e-07
-1.51337418435e-06
3.56307701138e-06
-4.80416445187e-08
-6.24078057005e-05
-1.05943338003e-06
7.59389262938e-07
1.58222687685e-06
1.40219447863e-06
0.000742378084755
5.38717064446e-05
0.000719951605581
-3.06556087797e-06
-2.65977200844e-05
-6.12679386303e-05
-2.30191840929e-05
-3.77589454492e-06
-8.12290509103e-06
-5.55800871617e-06
-3.85689938482e-05
-1.93572851545e-05
0.000799320135566
4.75494522889e-06
2.37301615346e-08
2.86841630807e-07
3.9727136713e-06
4.48899024666e-06
2.80175039522e-07
7.93761515568e-07
3.87188617024e-06
8.31227310956e-05
-1.31220879955e-06
-1.35852338675e-05
-6.06906208688e-05
-4.47215681629e-05
-1.84281075262e-06
0.000604152483882
-5.07414597192e-05
-3.45878803434e-05
-4.6314605803e-05
-0.000531854657565
0.000170658277536
3.22632820799e-06
-2.26971184684e-06
-1.48833380618e-07
1.52846160626e-09
3.97665987912e-06
4.04466861985e-06
-3.25910200864e-06
-1.02100412099e-07
0.000108469392902
-5.18011349442e-06
-3.47721285857e-05
-7.03686443326e-05
-8.12139759005e-05
0.000884080164577
0.000775733946456
-4.18255276939e-06
-6.48675073398e-05
-5.38300815336e-05
-8.0162254812e-05
-4.8300363951e-06
-7.58430485098e-05
-5.66078097199e-05
-8.42360262164e-05
0.000902180370854
0.000268281512581
4.00932173558e-06
1.90967121911e-07
4.75960333712e-07
4.52923200744e-06
3.7436845501e-06
-1.56975513886e-07
4.6260037272e-06
-2.39935878269e-07
0.0123338339421
1.80746887974e-05
-2.58893146402e-05
3.307594275e-05
-0.0123510433485
3.29973718726e-05
-0.0123282313218
0.0123034573688
-1.70452560542e-05
1.98659071855e-05
-1.09608330541e-05
5.5743809055e-06
-0.0117581239482
-1.06371252735e-05
-0.0117480353903
4.20918039879e-05
0.0117292624801
4.7009491194e-05
0.0123091802036
4.39912674371e-05
-0.0117594806119
-1.56223074083e-05
-0.0123482811219
0.0123448332078
3.72901998956e-05
1.01522121928e-05
-0.0123593810136
-5.51156819951e-05
-0.0123601389042
0.0123558678196
6.85366481039e-05
-2.97526315741e-06
-0.011746033375
0.0117250646077
8.96991855711e-06
-6.14716133336e-05
7.54692994338e-05
-0.0117558931198
0.0123283279824
4.36291476401e-05
-0.0123711396344
-0.0117597679221
-0.0123207011497
0.000113074273197
-2.08753228748e-05
-8.50798679796e-05
0.0123111923992
-7.75718844928e-05
0.0123559862701
0.000103275597669
5.04861837804e-06
0.0117007822852
-4.30940117018e-05
3.74723306784e-05
-8.40754692663e-05
0.00011877664305
0.0116408909141
-5.98424776312e-05
0.000144510811455
0.0123533090286
-5.02660380486e-05
0.0116705208657
-6.21354984377e-05
0.0124173372078
-0.000102928582398
9.14520351516e-05
-0.0124049700067
-0.0123856959475
8.99877570056e-05
0.0123938834647
5.77033924402e-05
7.58290182083e-05
-0.0117445857761
0.0001170930789
-0.0116703163046
9.2770229562e-05
0.0116236842846
-0.0123852518728
0.000122000073894
0.0124334262898
7.14990589816e-05
-0.0117029563025
0.0124501638196
0.000122386448553
-0.00012962150988
-0.0124300963157
-0.000153471958743
-0.0124798817853
0.0125014576265
0.000177686932079
0.00013602803892
-0.0116103733754
0.0115658568225
0.000139760301587
-6.02380370798e-05
-0.0115967123485
4.75089300634e-05
0.0124696109937
-0.0124538473649
0.000149554744678
-0.0116453191534
-0.000171054187747
-0.012446470236
-7.14143609422e-05
0.0124473851738
0.000195284949339
0.0124008092719
0.000128647216711
5.95369929717e-05
0.000133835968479
0.0116008019893
0.000104236947027
0.0115826745259
0.000111347617618
0.0124006314496
0.00015835746335
0.0115555314937
0.000132740443857
-0.000216618711296
0.01244667093
-3.93309122448e-05
0.000232263695817
-0.0124017746563
0.000257985181555
0.0123957098821
-0.00024015232565
3.68187448257e-05
0.00014740467533
-0.000132631959959
-3.13716931785e-06
-0.0115294198415
0.000169953857815
0.0115099863416
-0.000192203483508
0.000266885450624
0.0124446474659
0.000151033054079
-0.0124865443809
0.000210846387831
-5.46949904548e-05
0.0124861489586
-0.000186464292252
0.0125154127703
0.000201727289452
0.00010755316886
0.0115289172194
3.75471041235e-05
-0.000123758934478
0.0114640763237
0.000112784227855
0.0125117748851
0.000214146794478
0.0115190341256
0.0124823324861
0.000239578706657
-2.82124097872e-05
-0.00026481478192
-0.0125124331336
0.0125150823265
0.000255362726813
-1.31515814999e-05
-0.011506019921
0.0114806969253
2.08890529436e-05
-0.000138276068002
0.000123106694143
0.0124809664731
0.000235753026989
-0.000334026351649
-0.0124450222747
3.56450967156e-05
0.0124573178951
0.000333782042188
-4.79237637928e-05
0.0124009341999
0.000298765189171
-3.71955522295e-05
-0.000284621665573
-2.71986773354e-05
0.000184900748958
0.0115665265811
-0.00018447362916
-3.47821210187e-05
0.0115126222195
0.000173742678666
0.0124181968132
-4.7468381867e-05
-0.000331107916084
0.00030181062736
-3.86771161366e-05
0.0115310112024
0.000180187554225
-0.000365918342591
3.19650553723e-05
0.0125142158292
0.000365373533185
-8.83840547654e-05
-0.0124869515206
0.000385018418307
0.0125699525649
-0.000388475067155
-9.94130062781e-05
-2.77055133178e-05
0.000188981741189
-0.000191857476492
-0.0115573024866
-2.61648392316e-05
0.000193715554518
0.0115732994281
-0.000364120801981
-9.84334638806e-05
0.000190398655796
0.000383609736179
0.0125790067535
-8.9700628395e-05
-0.0124820454073
0.000322574854646
3.60452938668e-05
0.0124962993909
-0.000298734505406
0.012513124284
0.00028145108824
-3.84904790327e-05
0.0114872848008
-6.43581707939e-05
-0.000165839070264
0.0114597885102
0.000140812990275
0.0125201437981
0.000300078185662
0.0115069125552
0.000344183674428
4.38412356098e-05
0.0125305981613
-0.0125401209244
-0.000355345924471
0.000330192291433
0.0125761169678
-0.0115393219127
-2.91774120337e-05
0.0115648824559
-6.62879771695e-05
-0.000169762695928
0.000149720146945
0.000320105930394
0.0125808882837
-0.00020329622716
-0.0125436275772
2.04587949159e-06
0.0125428520091
0.000183974272181
0.0125320361818
0.000197860877342
-0.0125240828567
1.43861925322e-05
9.89586582115e-05
0.0114427651026
4.29185456609e-05
0.0114253622572
-0.0114492846328
7.94418919283e-05
0.0125285505868
-0.0125363690666
0.000180053145383
0.0114221056208
8.70376278448e-05
-0.000223428983793
0.0125510005196
2.50400506608e-05
0.000199247218502
-0.012536321452
0.000235899817554
0.0125373433218
4.34812358141e-06
0.000112294220507
-5.46911919377e-05
-0.0114145943054
0.000106062633857