/*--------------------------------*- C++ -*----------------------------------*\
| =========                 |                                                 |
| \\      /  F ield         | OpenFOAM: The Open Source CFD Toolbox           |
|  \\    /   O peration     | Version:  v1906                                 |
|   \\  /    A nd           | Web:      www.OpenFOAM.com                      |
|    \\/     M anipulation  |                                                 |
\*---------------------------------------------------------------------------*/
FoamFile
{
    version     2.0;
    format      ascii;
    class       surfaceScalarField;
    location    "5.6";
    object      phi;
}
// * * * * * * * * * * * * * * * * * * * * * * * * * * * * * * * * * * * * * //

dimensions      [0 3 -1 0 0 0 0];
oriented        oriented;


internalField   nonuniform List<scalar> 
92311
(
0.202781346329
-0.000254483262801
-0.000218644438747
-0.202477143685
0.000168925424315
-0.000331919748154
0.202984071019
0.000409607978315
-0.000280298202388
0.202720111563
-0.00054330803824
-0.000209182651853
-0.202385383283
0.000163418932005
-0.000790649490486
0.203088178076
0.000408433353984
-0.000317608148816
0.202556294101
-0.000227679996237
-0.000286513178131
-8.38178730952e-05
-0.202133636645
8.40000847254e-05
-0.000199957854525
-0.00025193463316
-0.000349930488807
-0.000450325892592
-0.000456156054453
0.203298430089
0.000432757577157
-0.000371280049282
-0.000337873966889
0.0504970585222
-6.73758659075e-05
-7.27070935404e-05
-6.53543839834e-05
-7.43344128592e-05
-6.18953099759e-05
-0.0504775283983
9.4454624283e-05
-0.0505962675887
0.0507553658878
-0.000144236743029
-0.000117826900021
-0.000120130012448
-0.000138704768526
9.71207873951e-05
-8.52397325303e-05
3.7931890107e-05
0.0169892986984
5.32189380942e-05
3.11089615411e-05
5.02246836971e-05
-0.0042356518472
-0.0232434472707
0.00782754276745
0.00249006066107
-0.00365523549959
0.00439775399009
0.00382354066053
-0.00176385592017
0.000171020208437
0.000178117737082
0.00017126839078
0.000177784515756
-0.00350035142871
-0.00374198854775
-0.00753107771301
-0.00711068195792
-0.00903975523598
-0.000643258251884
-0.00246275763465
0.00227133395665
-0.00906735898538
-9.64524882231e-05
-0.000108703000387
-0.00011201405311
-9.5822142411e-05
2.60978646446e-05
1.17825762465e-06
7.00562187337e-05
0.0123809746672
1.97948208222e-05
-2.26603134001e-05
-0.0124102817053
0.0122932168499
-0.000108607390177
0.000130460409735
-0.0123214009757
2.55455595818e-05
-1.93269585024e-05
-0.00016752345258
-0.000159026085992
0.0509036111077
-0.000150809796438
-0.000143754806174
-0.000138169631268
0.000160740755632
-0.000173136241924
0.0508518285891
-0.000179989740344
-0.000156552314402
-0.000153762714338
-0.05067097405
-0.000141066854346
-0.000140786218639
0.000137192221171
0.0122909355682
1.57164567815e-05
-9.81264324628e-06
-6.32732723571e-05
0.0127360774882
5.21715982202e-05
-0.000176447064165
-0.0127075323044
0.0127338810525
-6.33198265931e-05
-0.000206198553156
-0.0127006858424
-0.000175706970265
0.202951626499
-0.00094255630158
0.000801261034722
-0.202634624079
0.20303863691
-0.000302280316771
0.000915817193087
-0.000667669666298
-0.000118018839117
0.202861452087
0.00118721391733
-0.000891652291763
-0.000257367818444
0.202890686402
-0.000985817573126
0.000788973761197
-0.202612073727
0.203207545294
-0.000645435936527
0.000890106907389
-0.000666081125592
-0.000237584478246
0.202994190003
0.00119336363021
-0.000860220962703
-8.71496335258e-05
-9.57616290152e-05
-8.37515013755e-05
-0.000781875719286
0.202619746843
0.000671562775961
-0.202420906745
-7.91668621303e-05
-0.000381474439484
-0.000310384153461
-0.000380482816065
-0.000281708005533
0.203751800043
0.00105813587477
-0.000803133882204
0.0505616324211
-3.00873991928e-05
-1.69459778506e-05
-2.1906239349e-05
-2.45641275996e-05
-0.000179143726617
-0.0505551932923
0.000179076723847
0.0510566240535
-0.000179898068427
-0.000137580297659
-0.000130119907295
-0.000130896191619
-0.000124446486874
0.000168500825811
0.00563426091414
0.00277380847557
-0.00673015925763
0.000166730483311
0.000175851530031
0.00015261437829
0.000157217042655
-0.00598520639533
-0.010586442678
-0.00832788065975
-0.00959810068009
0.00136230270722
0.0216491728364
-0.00884170196982
-0.00437467600097
-0.00973617573979
0.00545041866397
0.00500406428473
0.006977719163
0.00619927740077
0.0206418981222
-0.000571328124119
0.0528153351263
9.39338146804e-05
-4.57278937637e-05
-4.51074885116e-05
-3.96362982505e-05
-4.95571509539e-05
0.0506165116751
-6.45439722362e-05
-3.56725669185e-05
-3.94762221932e-05
-3.68929445479e-05
-3.99338988745e-05
0.0505468343006
0.000118237064669
-0.0505029398654
1.94487881583e-05
1.42237569342e-05
0.0124867697285
8.73216533381e-05
-0.000113164622274
-0.0124945571969
-1.48821383692e-05
6.00780281484e-05
-0.012457919436
5.55278928636e-05
-7.30947240665e-05
0.0124303462643
-3.40160952362e-05
0.0126049585264
-2.78280947131e-05
3.06885610159e-05
-0.0126094757478
-0.000212769489882
-9.69607540214e-05
-7.38025767018e-05
-9.21474193519e-05
-7.63068383335e-05
0.0510694905632
0.000228805362219
0.0510320734309
-0.000148071454734
-0.000145612752885
-0.000155043483656
-0.000137507994912
-0.000154378215026
-0.000104360661549
-7.42398190403e-05
-9.57674948983e-05
-6.92578299547e-05
0.0510570619672
-0.000176221970257
-6.36959185654e-05
5.35400413489e-05
-0.000159093755373
0.012767805679
-8.77848405669e-05
6.42394828757e-05
-0.0123237493781
-9.37488416915e-06
0.0123385490619
1.80567577906e-05
-6.18185558608e-05
-0.000185263520043
0.0127693001901
-0.0127930668886
-0.000129741081419
0.0128121307476
5.08980903754e-05
-4.44377868232e-05
0.00903749771277
8.75823009149e-05
0.00010398671534
7.93149242514e-05
-0.00235850663406
0.00272959913009
0.0072024094712
0.00423469029759
0.000193762101883
0.000228238079214
0.000219827458192
0.000196631320571
-0.00417306725664
0.00519288711149
-0.00169468574576
-0.00395117114568
-0.00498662506901
-5.78712900596e-06
0.00565101097983
-0.00121189724505
-0.00556842025829
-0.000456703930963
0.00534032539629
0.000155804109433
0.000136107871608
0.000164522975149
-0.00194313762045
0.00328063943821
-0.000337098715081
-0.00747546763174
0.00290768287816
2.38264780326e-05
0.0125952769527
-1.71631704706e-05
-0.0125991687745
-0.0125852641543
-8.83352110799e-05
-7.18675241232e-06
0.01259333247
1.47466124079e-05
2.36883135259e-05
9.13962119835e-05
0.01234202222
-2.28610416161e-05
6.65362520245e-05
0.0123763885377
-0.0124109328664
1.88902840371e-05
-0.012590680381
3.05549491223e-05
0.0123381717145
2.37136142213e-05
0.0126059320948
-7.03969803128e-07
0.0125950627994
-0.000106912854936
4.990875961e-06
3.83967103394e-06
-1.682138446e-05
-0.0126092858486
0.012627360082
2.05984982048e-05
2.46047519284e-05
0.000105829145024
-2.20750701456e-05
0.000136262525018
-0.01231195609
0.0122783655934
2.68616899065e-05
0.0126162831572
-1.37041960694e-05
2.31492325247e-05
1.18290609121e-05
-0.0126400670451
-0.000173175035947
3.95483893084e-05
0.0126735562738
-4.40964887552e-05
-3.17159468775e-05
0.0126491639789
2.93658938765e-05
8.45091436182e-06
0.00016365065116
0.0122773855015
-2.79740690736e-06
0.000142891785371
0.0122751513228
1.22475226153e-05
-3.24123316135e-05
0.0122645454242
1.04053548755e-05
0.0126806684931
3.31933558895e-05
-0.000166424425923
-0.0127117676345
0.0127387875558
4.0860698053e-05
-6.63795426613e-06
-0.0122850908039
0.0122868728571
9.52767421794e-06
-0.0122754046652
-8.53154310049e-06
0.0122789881152
-0.00016854747319
4.72488729562e-05
-5.61878072393e-05
6.65972666648e-08
0.000158166879452
5.41908707119e-06
-1.39587939017e-06
3.62197569974e-05
-0.000223395266776
-0.0126938675218
0.0127317699813
-5.77462147034e-05
-2.38671935651e-05
-0.0122695513639
0.0122725379308
-0.0122599085174
0.0122690703768
-2.80924164803e-05
-5.57068640533e-05
-0.000197167604433
-0.0126604316021
0.000208273058976
1.58580877082e-05
-0.0122427670927
-2.1302785931e-05
-0.01264551878
-4.91494407399e-05
-0.0122554497552
0.00689199602847
-0.00846490776825
7.70443287884e-06
2.13587448212e-05
7.60416494322e-06
-3.42536284892e-07
0.0238492833421
-0.0278718037885
0.00555898985035
-0.00509206955313
0.00930176607185
0.00212578160919
-0.0100350361785
0.0259452276008
0.00496177486914
-1.25357547319e-05
-4.22913276943e-06
-2.21478379486e-06
-0.0120700313025
0.00970450581501
-0.0285030468272
0.00551846290385
9.58225110842e-06
1.33502574541e-05
8.40790207562e-06
0.0218783656591
-0.00996366814374
0.00758211241016
-0.0070934441899
-0.00940267777445
0.00554515304865
-0.00642729940798
0.00482597181171
0.00280403121795
-0.00733428953681
0.000189173798936
0.000209593771277
0.000187848380088
0.000165169134659
0.0052402077561
-0.00506120025381
-0.00344201437049
0.0117788653672
-0.00403288786601
0.00117880328208
0.00264492032433
-0.00543470181954
0.000132857311504
7.74988271514e-05
7.53243488603e-05
0.000118194777019
-0.00941694111354
0.00446774903983
-0.00573462538756
-0.0007548490754
0.0126741432419
0.00276750909116
0.000123651055202
8.32917260022e-05
0.000120017659916
-0.00881540189909
-0.00653095404343
-0.000939190671674
0.000138180651961
-3.1646877041e-05
-0.0126229613322
-3.20499892487e-05
0.0126223571026
3.42163252279e-05
0.0126303674177
3.86967554441e-05
-3.75629771287e-05
-0.0126342050841
2.46625308316e-05
7.90945414636e-05
0.012473392066
-0.000102927416633
2.36444709852e-05
0.0124754732857
-0.0124823690855
6.63508925223e-05
0.012628957575
-2.75831152386e-05
-0.0126251935938
3.99128795509e-05
0.0124625903773
5.7788626169e-05
-2.41545369224e-05
0.0126217738401
-4.94020050582e-05
2.83588722543e-05
-0.0126298598222
1.36386917502e-05
-5.74030232968e-06
0.0126368772181
4.73097491432e-05
6.53268341587e-05
-8.76368131428e-05
5.97735918211e-05
-0.0124420282273
3.59677244017e-05
0.0124152172673
-1.74774690577e-05
1.70782178375e-05
0.0126283665646
4.47999107729e-05
0.0124271405639
-2.82675439648e-05
1.9468305199e-05
-0.0124446958628
4.8428896676e-05
-2.46557974065e-05
0.0124039231855
2.06571242658e-05
-1.6957473431e-05
0.0126090655185
2.17190288864e-05
0.0126144210544
-3.3398884309e-05
-0.0126175187864
4.43051525893e-05
-0.0124346728099
0.0124092939618
0.0126187778057
-0.0124520443122
-0.000149339124099
0.0127693009362
4.22800380157e-05
-8.98874678962e-06
0.0123008826833
1.24569814772e-05
0.0122953552762
-8.56952912094e-06
5.49739826697e-05
-0.000140315974125
0.0127844583878
-6.2176947342e-05
0.00013435593499
-9.91225836407e-06
0.0123146909229
1.43472710935e-05
0.0127864068383
4.77998384501e-05
0.0123109954111
-8.46792510359e-06
5.50789779717e-05
0.0128021272541
-0.000111128166723
-5.86296849088e-05
-0.0128042412825
-5.31909917709e-05
0.0127932300751
5.47606642436e-05
0.000108306331352
-8.93919769706e-06
1.52935381977e-05
6.38471442069e-05
-0.0123176520479
-3.9984045417e-06
0.0123317933248
5.3546351421e-05
-5.44963045049e-05
0.0127911494162
-6.66916833264e-06
-0.0127721330308
-0.000170791555165
5.6701062901e-05
-5.23715730221e-05
-0.000199801477566
-5.71835575627e-05
-2.18061821801e-05
0.0122897454471
0.0122872673702
-3.01084979179e-05
2.20472034884e-05
0.0123081495124
-2.59200178258e-05
-0.000161283552096
0.0127878212006
0.0123074273236
0.0123147573857
1.71443044399e-05
-2.02403748514e-05
6.52693422508e-05
9.4208055116e-06
0.0123296955173
-1.2154765618e-05
4.48666921985e-05
0.0127960898688
-3.78608738174e-05
0.0128067559417
-0.000122233606548
6.61443248202e-05
-0.0123138238336
0.0123283419278
0.0127939716585
-0.000149253879932
-9.14123655585e-05
2.34511464596e-05
0.00128242174478
0.203353016842
-5.44616887856e-05
-0.000849781775752
-0.000208673207112
-2.85692629577e-05
-5.36483073101e-05
-2.58262184049e-05
-5.59629231664e-05
0.000238468116574
0.051054362592
2.57709145043e-05
0.00457065735341
0.00293594653503
-5.67721614236e-06
2.4644170148e-05
-7.31990235442e-06
-0.00587817605883
-0.0104812831492
0.00626178454112
0.00727425690494
0.0115820734384
0.0417464318285
0.0155983296246
0.00966377270605
0.0681072424838
-5.78834785594e-05
-5.99103659069e-05
-5.71655055434e-05
-6.15135965788e-05
0.00018534352848
-3.70199125741e-05
0.0505731118506
-4.17429257427e-05
6.4444920605e-05
-1.90585526988e-05
0.0123777110912
0.0510358316502
-1.06614927649e-05
-5.25738269999e-05
-4.71509227549e-05
-4.47411457001e-06
-0.000164232754385
0.0509110819683
1.1667427566e-05
4.08281760687e-05
3.06359409797e-05
1.64622691452e-05
0.000226819773867
-0.000178486432527
4.34623555003e-05
0.0123108670456
-9.04885783828e-06
1.90966111944e-05
-5.54247400919e-07
3.87931227784e-05
2.09539932013e-06
0.0122922015747
-3.40930759016e-06
0.0121862374369
9.84487727793e-05
-5.81297664992e-05
4.1833969135e-06
-0.0122207911941
-1.00900828791e-05
0.0507750662222
5.28561800983e-05
4.20706914699e-05
3.4704215694e-05
5.77155541086e-05
-9.72657376171e-05
0.000250524653096
-0.000204611368641
5.05160889791e-05
5.33398880211e-05
4.6210079353e-05
5.55014829132e-05
-0.000136985385046
0.000271492269671
0.0506693089834
-0.000234253374332
0.000101880530739
-6.04686318083e-05
5.3333112027e-06
0.0121502764032
-1.06847269025e-05
7.77384824144e-05
-6.35425849564e-05
-3.39524227485e-06
-0.0121084787928
0.0120915774467
5.94433267607e-06
2.62170762364e-05
5.14202343447e-05
4.09118285323e-05
-0.00567793923643
0.0181174650474
0.00701269741146
-0.0106528828753
0.0021866928776
1.31314280156e-05
-2.90536817918e-05
-1.96171512687e-05
0.00365418622462
-0.00186779345498
-0.00786704975773
-6.62393541441e-05
-7.96437492531e-05
-5.6774568246e-05
-0.00387757716863
0.00326037196079
0.00378976167043
0.00461913391991
-0.000159098635453
-1.02972198441e-05
0.0125004476519
-0.00206226581144
0.000947540722985
0.0108329683502
-0.00386316271952
-8.33840381824e-05
-0.000114785998345
-9.71193689274e-05
-0.00409609334028
-0.00413481893416
0.00462404590589
-6.4784593911e-05
-8.44346896241e-05
-7.78167401017e-05
-0.00491065278786
-0.00273145596671
-0.00210070328651
0.00618440221152
-0.0126176218017
-6.7980252787e-05
-4.05821139095e-06
4.43485657786e-06
0.0126273359081
-1.07961235137e-05
0.0126072053527
5.66337949661e-05
0.0123838682295
-2.40550952715e-05
-1.43197284607e-05
7.67936224323e-05
0.0123438509408
-1.01879050136e-05
-1.108387752e-05
0.0123533615419
0.0126176560633
5.45170729249e-05
-0.0127757055809
-8.24494578e-06
-5.21583963284e-05
0.0127530134209
0.0127783272359
-5.39513262611e-05
5.85918865795e-05
8.61183924337e-06
-1.05304058091e-05
1.92553476893e-05
0.01228793669
4.36096257091e-05
0.0123046987457
-9.63979312802e-07
5.92581120018e-05
0.0127561466758
-5.11679595393e-05
-3.7766566602e-06
0.0122822967194
-0.0127765613575
-2.92197736258e-06
-3.74421312913e-05
0.0127539702912
3.77853312849e-05
0.0127753204022
-3.09848458401e-05
4.33364600366e-05
0.0122990709647
3.70085992468e-06
-6.75918342088e-06
0.0122699654937
-4.30932963388e-06
0.0122764065601
0.0127549133799
-2.85833349233e-05
0.0127403676844
7.21671021054e-06
-3.52745358196e-05
5.32157810535e-05
3.6275294071e-05
-0.0127387631664
0.0127162332602
-3.1154247346e-05
-3.40004291968e-05
-0.0122255485497
0.0121916413313
5.80957761679e-06
5.98865267609e-06
-2.53864855294e-05
-1.13175077692e-05
0.0127207766061
5.24741461217e-05
7.36202001147e-06
-2.81508633004e-05
-0.0126985027882
6.44474435798e-05
-4.48620700165e-05
0.0126725754145
5.92064540022e-05
3.88803391563e-05
0.0126925512907
-3.35830889091e-05
-4.26077600842e-05
0.012150268038
5.90548407906e-06
4.40512583775e-06
-7.77929231545e-05
0.0121160025682
-7.24506569334e-06
5.31418509542e-05
0.0121168660417
5.11918195744e-06
0.0126665725913
-3.90687012808e-05
0.0126477163854
6.24781785807e-05
-5.18522523111e-05
6.47005627158e-05
5.7794692011e-05
-0.0126417867804
0.0126264270251
-5.26812747859e-05
-4.89770103976e-05
-0.0121015261276
-1.16852338244e-07
0.012082375552
1.72146007419e-06
-7.3525039304e-05
-5.26660597392e-06
6.9576234937e-05
0.012633121438
1.75425283713e-06
-4.51916013848e-05
-0.000563611427704
-0.0494681843016
0.0494287998671
0.000706813856939
-4.52240317256e-05
-4.47293131949e-05
-3.3230615669e-05
-6.24510391699e-05
8.18804080543e-05
-0.000768922401107
0.050014284459
-1.15496859703e-05
-5.46032664902e-05
-2.46387314993e-05
-4.95105629716e-05
8.86564897705e-05
-0.0498860045209
0.00069208342206
-0.00113420547927
-0.0501118880828
0.0502280379123
0.0008914747072
6.16016856226e-05
4.34103128197e-05
4.82983335476e-05
4.84560992792e-05
-7.51896913502e-05
-0.000668243440553
2.67547708634e-05
3.36744135489e-05
3.75963139484e-05
2.40336867699e-05
-2.4752218857e-05
0.0503298232197
0.000500192600561
-0.0502590792331
9.86153292358e-05
-0.000803289883373
-0.0288075453513
0.0260868540322
0.000870120536615
0.00226287966155
9.30231907332e-05
0.000123244940914
7.75501554772e-05
4.41673863844e-06
-0.0249044662663
0.0257220162953
-0.00199403801622
-0.000775500364785
-1.15818007529e-06
-3.74300486646e-05
-2.25246459599e-05
0.0020099702061
3.63627046197e-05
-0.00102100867319
0.0186656443764
0.000144390275337
-3.93826520301e-06
1.33470940996e-05
-2.17764019061e-05
-0.0200024298134
0.00218793887099
-6.56835170551e-05
-3.10105337072e-05
-0.0198088198766
0.0258307238356
0.00362969199261
-0.0093260144889
-5.44307166527e-05
-7.80934850195e-05
-9.66685775566e-05
-5.46441811586e-05
-0.00829034920371
-5.44653937897e-05
-3.80355297807e-05
-2.32042048948e-05
0.0244575409473
0.0100676376001
-0.00506644821033
-0.0209980181679
0.0926712499355
-0.0108962672212
0.0050338624671
0.00100092565226
0.00321062040561
0.00146808558606
0.00227888697129
-0.0405052619789
-0.0146273818025
-0.0109036440903
-0.00927810311284
-0.00982986953731
-0.00812416569859
0.00239238542948
-0.00430473067722
0.0862021423141
-0.00223217426424
0.00641104669424
0.00728104570157
0.00708154027075
0.0082107624648
-0.0357543312643
-0.00927995198005
-0.0033224588721
-0.00277712788269
0.000763231448088
0.000858046064054
0.00935119825504
0.105691840835
0.00764698944016
0.00975721471405
0.0106845619111
-0.0453805125995
-0.00407420368344
0.00869627934902
0.00407044168496
0.00339012096119
0.00484753392078
0.00454176165245
0.0437821143134
-0.0248418728062
0.000186613233946
5.33067032935e-06
-8.33348933747e-06
-2.35612982795e-06
-1.26672875915e-06
0.0490265587526
0.000132740146474
-3.74794006093e-05
-0.0493016420763
0.0491257797565
0.000329866005914
-3.26340133665e-06
-1.92716306684e-05
-7.96861515907e-06
-1.6984529094e-05
0.00013190763082
-0.0493534540564
-1.25039168372e-05
1.02737199438e-06
-0.0122092280166
2.03687794479e-05
0.0121909105127
9.01802689742e-06
0.0121943231279
8.71120455234e-05
-4.2182269108e-05
3.1344940398e-05
-6.523279212e-05
-0.0122045564857
-4.04621164653e-06
-1.86544712488e-05
1.20688860375e-06
-9.95150729526e-06
-0.000306786828219
0.0122925623648
0.0122483939128
0.0121553003947
0.0122081786519
-4.1139694543e-06
0.000104445458423
-8.00542422315e-05
4.66216547607e-05
-7.59339807951e-05
0.0121984428785
0.000470116607619
-6.361490719e-05
-4.97271805527e-05
-4.1659873755e-05
-7.10615853638e-05
0.00012724158985
-0.0495095918406
0.0496877694009
-7.93503452466e-05
-8.98703280055e-05
-8.51021443861e-05
-8.68178889049e-05
0.00016880168099
-0.0496508905495
0.000605678129258
0.012209621558
-8.60198624522e-05
8.13202584858e-05
-0.0122125269967
9.43148267105e-05
0.0122720556114
-0.000127166032988
0.0001326525459
-8.92451195109e-05
-0.0122630606235
7.49464330948e-05
0.00100625124853
-2.28635672732e-05
1.04008221018e-05
-9.07530011508e-06
1.21993933388e-05
0.0493871775291
-0.000228563291812
-0.000186776790376
-0.000231204798027
-0.000187252233735
-4.60240533376e-05
-2.04769005198e-05
-3.27606683357e-05
-2.23901360521e-05
0.0497332990029
-3.74062791559e-05
-6.85048664567e-05
-6.1992629068e-05
-3.52569583395e-05
9.54481790297e-05
0.049882871537
0.000932209194675
-2.27402293453e-05
1.25896193119e-05
1.12565311579e-05
-1.96817911084e-05
-5.70525097277e-05
7.83465239117e-05
0.0122209597044
0.000114344826041
0.0122461779291
-1.80873035998e-05
1.46843895842e-06
-0.0122408279484
0.000177386417346
-0.000166129703756
9.79217558349e-05
-7.04185030369e-05
9.37371924502e-05
-0.000113542912085
0.01226523338
0.0122664492518
0.000138113508986
4.2996295619e-05
-1.92063883189e-05
-0.000162282241667
-0.0122659042271
0.0500182772446
4.16332953372e-05
4.52663386374e-05
3.94145293462e-05
5.17444075508e-05
-0.00126021175083
-0.000187878915087
0.00127966006021
5.8904558819e-05
6.07472528407e-05
6.44769591419e-05
5.34899834904e-05
0.0504821093741
-0.000353492323005
-0.00162791049139
-2.13237443448e-05
0.0122593611104
0.000191051284726
-0.000178827737683
-3.30713310446e-05
-2.77582457588e-05
-0.0123298581886
0.000208651578975
0.0123901810553
-0.000208474383935
0.000145778921533
7.80643728252e-05
-6.35673915147e-05
-0.000174479259416
0.0122804675036
0.000165317573999
2.7718207818e-05
-5.10411788688e-05
-0.0001828164744
-0.0123406693362
0.0123813504558
0.000792627831045
1.22201250515e-05
1.73066873357e-05
-3.13060989913e-06
2.89233900444e-05
-1.35797577826e-05
0.0502076610768
2.07385642113e-05
3.23994928446e-05
3.18969141457e-05
2.01719716502e-05
-3.711082935e-06
-0.0501396615343
0.000623148124365
5.51381648497e-05
0.0122850330677
9.17554500264e-05
-0.0122968724663
0.0122753930619
4.23727740006e-05
-3.51412607339e-05
-0.0122749086513
0.000130118167756
0.0123118357724
5.45347918597e-05
-5.96518784793e-05
-0.000108774372959
-0.0123080121502
0.000110032815353
0.000969603290057
7.42859551221e-05
5.79461165252e-05
6.08671159093e-05
7.33891736711e-05
0.0504379251358
-0.000166399213168
0.0503071719721
6.57616999631e-05
4.77225133434e-05
5.28146127407e-05
5.52259568547e-05
-9.79805807552e-05
8.07898085058e-05
7.05054196375e-05
6.91581297772e-05
8.03874342269e-05
0.0504192968027
0.000706573976542
-0.000149931016633
-7.18279029735e-05
0.0122891570603
0.000138398215934
3.45627288572e-05
-7.01450825875e-05
-0.0123464836635
0.000162910376168
0.0123844633166
0.000124817194707
6.59996989356e-05
-7.60770253685e-05
-0.000122932901792
0.0123201264808
0.000157980315074
6.56251855083e-05
-9.68125240263e-05
-0.000150864850263
-0.0123618043965
0.0123859283171
-6.26910092996e-05
0.0123324799433
0.000124633394793
-0.0123242735371
-6.80441389232e-05
-0.012368601358
0.0123898942588
5.15543031461e-05
0.000153097990781
0.00140700393031
6.99232381918e-06
-3.11201194225e-06
-4.09662954504e-06
0.0340719557409
0.000447854505501
-0.0347012612097
-0.00123852409565
0.033277783896
0.00283711179589
2.72486907005e-06
1.54402820219e-05
-4.19364283422e-06
-0.0343307795717
-0.000436012146031
0.00196194292881
4.05576718531e-05
9.46467587369e-05
6.90825631452e-05
-0.000302927426119
0.0305307409112
0.0176954584726
-0.00185808091105
-0.0010175462557
0.00058987477068
-0.0103681040354
-0.000984935649676
0.0230774557973
-0.00221659476892
-0.00118195397805
0.0193612008482
-0.00415090219542
-0.0118945399994
0.0248638099535
-0.00351050885033
-0.00151409818918
0.0156185320078
-0.000413563071467
-0.000829683192466
-0.00220932239376
-0.000434395088739
0.00915325809218
-0.000328357153693
-0.00205017943674
0.0173239665466
-0.00225564863709
-0.000452610441326
-0.0017587299739
0.0102448400536
0.000270187516612
0.00169438751773
5.79313960034e-05
0.000125808448214
0.000104383547538
0.00361986598381
-0.0316573462649
0.0226928689772
0.000133374333298
0.000135168907064
0.000127236905343
-0.025627563503
0.00336903944573
0.000741062273137
-0.000329976223813
0.000623600854522
4.90682698621e-05
6.58526232505e-06
4.09129837657e-05
0.000772965216087
0.0208902863805
0.00139556461112
0.000102952882504
3.02690640958e-05
4.93692129129e-05
-0.000398351449703
0.0206703686201
0.000362896796379
-3.41210985879e-05
-8.54302351178e-06
9.54619279858e-06
0.0191827089343
-0.00360627268388
-0.0110873424776
-0.00203194507812
0.0256127717298
0.0198977854044
-0.0022182604616
-0.012811691796
0.0260681238405
-0.000404438713575
-0.00251549556415
-0.00112993664083
4.48456359958e-06
1.76710771717e-05
1.57870769834e-05
0.0270794290006
0.00220866202059
0.0250978795266
-0.00623615180148
-3.55822275039e-05
-7.62942632943e-05
-2.92091396711e-05
-0.00492397396346
-0.000454377792745
-6.61731081053e-06
-4.9651877151e-05
-1.97515272849e-05
0.0280655850822
0.0191998995001
5.05295246342e-05
0.000913599619787
0.0126274911655
0.0192668868123
0.00137393851441
0.00285048339184
0.0132700391552
0.00276195701404
-0.00334515669144
-2.14138613647e-05
-7.44877782801e-05
-6.11654619164e-05
-0.00477146677835
0.0206837264668
-6.2207242971e-05
-4.5315529096e-05
-6.08029757206e-05
-0.0189090189373
0.0059818563692
0.0197506445095
-0.0133047556445
-0.000899167156811
-4.79756979437e-05
0.025814370241
0.026678709814
-0.0201785056031
-0.000628810911097
0.0036661148009
-0.00819189426388
-4.39466293479e-05
-8.67013657873e-05
-9.87542535818e-05
0.0301662591359
0.0263606871194
-0.0100335648086
-7.62496576865e-05
-6.70861286739e-05
-9.53754158031e-05
-0.00956459016672
-9.3802503576e-05
-6.89536605327e-05
-0.000102910461535
0.030693187353
0.00922949405104
0.0208144092403
0.0011030073912
0.00216928502406
0.0167004493507
0.0234136687732
-0.000824886618591
0.0216049970095
-0.0010423829948
0.012336729493
1.52981122631e-05
-2.53925782568e-05
3.26101729095e-05
-0.0123539241655
3.22263592187e-05
-0.0123310264572
0.0123068673546
-1.55333506879e-05
2.15835798809e-05
-8.5796583457e-06
5.05285379528e-06
-0.0122201979221
-7.95612860421e-06
-0.0122074377248
4.3855890233e-05
0.0121881477823
4.60295055593e-05
0.0123121530833
4.55197049863e-05
-0.0122203061779
-1.50032658528e-05
-0.0123514666086
0.0123474887798
3.65139121829e-05
7.46279087773e-06
-0.0123622811416
-5.48336283968e-05
-0.0123633153025
0.0123597660212
7.05023975329e-05
1.34694459462e-06
-0.0122056712694
0.012185694573
1.55723478611e-05
-6.31763899907e-05
7.7388823261e-05
-0.0122187120673
0.0123318176227
4.52437490601e-05
-0.0123736512089
-0.0122203447446
-0.0123234722489
0.000114082442401
-2.4479368738e-05
-8.46795108963e-05
0.0123145228746
-7.78631785314e-05
0.012359908482
0.000105704412185
9.22507553843e-06
0.0121855638229
-4.54708806786e-05
3.91373631778e-05
-8.98238085001e-05
0.000126444673099
0.0122185949817
-5.91892829226e-05
0.000146696939028
0.0123568397084
-5.35212898981e-05
0.0121935905168
-6.58435394683e-05
0.0124215845484
-0.000106568041542
9.59487359503e-05
-0.0124087227624
-0.0123897418479
9.38777290977e-05
0.0123979579098
6.31532148514e-05
7.81958087545e-05
-0.0122185780633
0.000119565619406
-0.0122230380341
9.78915049762e-05
0.0122256662094
-0.0123884361956
0.000126615871849
0.0124379274376
7.38331649653e-05
-0.0122206855543
0.012455053116
0.000126737700035
-0.000130046708609
-0.0124348906498
-0.000157966611695
-0.0124856228544
0.0125061634491
0.00018064701732
0.000135044744955
-0.0122442774872
0.0122515298491
0.000138554151205
-6.18390020732e-05
-0.0122532710295
4.87041338013e-05
0.0124743853261
-0.012459598974
0.00015301231244
-0.0122348160517
-0.000174019318242
-0.0124502749753
-6.8795330497e-05
0.0124494516562
0.000198436904733
0.012405216059
0.000132483983232
5.9228915341e-05
0.000142476694433
0.0122377174807
0.000104587266951
0.0122400530158
0.000118928922032
0.0124041012633
0.000162647891546
0.0122506311322
0.000141471895648
-0.000218016078545
0.0124485249015
-3.81778510814e-05
0.000234189106611
-0.0124038209524
0.000259488408008
0.0123972325615
-0.000241086175185
3.289092874e-05
0.000155745696147
-0.000141307941514
-4.62579972219e-06
-0.0122486507018
0.000179846192858
0.0122563227507
-0.000193743449016
0.000268577792415
0.0124466890278
0.00016016322946
-0.0124903116438
0.000213182742076
-4.96124667609e-05
0.0124878595747
-0.000190547600196
0.0125178753937
0.000204347556124
0.00010493243736
0.0122583122919
3.31799712087e-05
-0.00013152845667
0.0122743776721
0.000119328850946
0.0125132754634
0.000215651213174
0.0122680182738
0.0124849669904
0.000241222888575
-2.68589468148e-05
-0.000266157356841
-0.0125145668823
0.0125172569723
0.000256610569841
-1.4847756719e-05
-0.0122638198728
0.0122612433775
1.73199457886e-05
-0.000146932137563
0.000129570709952
0.0124832271933
0.000237294995262
-0.000335669035333
-0.0124467670819
4.08861548435e-05
0.0124591161106
0.000335600595473
-5.31695436835e-05
0.0124021714752
0.000300631570672
-4.17611196665e-05
-0.000285320791719
-3.07507899673e-05
0.000196208382774
0.0122881120557
-0.000195083676957
-4.0410345821e-05
0.0122659790616
0.00018422914258
0.0124196688394
-5.23849942236e-05
-0.000331625805954
0.000303469933863
-4.34211319073e-05
0.012289066331
0.000191050805741
-0.000366947168716
3.614942634e-05
0.012516480065
0.000367212915141
-9.37289260382e-05
-0.0124888741626
0.000385457256636
0.0125725177305
-0.000390355713667
-0.000106494438693
-3.33340693297e-05
0.000199594935666
-0.000203277938307
-0.0123392389942
-2.94081984373e-05
0.000204860582609
0.0123901505074
-0.000365095395734
-0.000104521198357
0.000201295788373
0.0003851127173
0.0125820309704
-9.47088495353e-05
-0.0124839501237
0.000324292247242
3.86044599763e-05
0.0124982520489
-0.000299802530206
0.0125162413659
0.000282333556933
-4.2130813229e-05
0.0122766662586
-6.8127802068e-05
-0.000177067541334
0.0122987737039
0.00015044631589
0.0125232029814
0.000300927852226
0.0123005490872
0.000346030369106
4.5298888927e-05
0.0125330365015
-0.0125428003882
-0.000356917569182
0.000331168712898
0.0125782433456
-0.012345763576
-3.11280958938e-05
0.0123913397589
-7.00049015389e-05
-0.00018180918714
0.000160193378832
0.000321011138242
0.0125834461127
-0.000204722438373
-0.0125462014186
7.57824061237e-06
0.0125466529985
0.000185124486893
0.0125343367798
0.000199066669923
-0.0125285760393
1.02576097972e-05
0.000104763935286
0.0122855223854
3.72714311499e-05
0.0122965542843
-0.0123120644305
8.37926327193e-05
0.0125305745341
-0.0125399934678
0.000180145767911
0.0122955642625
9.14058097551e-05
-0.000225920325189
0.0125525145279
3.21892091462e-05
0.000199809091134
-0.0125382107678
0.000237485604664
0.0125393967249
-5.67514131688e-07
0.000118971731094
-5.7473999431e-05
-0.0122829643766
0.000113050771873
0.0122828806547
0.000207369629278
0.0125540367489
0.000102585832861
0.0125629935267
0.000169830913888
4.77845624279e-05
-0.0125600643015
-0.00017514421029
-0.0125695385951
0.0125703936541
0.000146998038183
-6.18398085863e-05
-0.0122952324341
0.0122990350996
-4.2901533839e-05
-9.96898741077e-05