/*--------------------------------*- C++ -*----------------------------------*\
| =========                 |                                                 |
| \\      /  F ield         | OpenFOAM: The Open Source CFD Toolbox           |
|  \\    /   O peration     | Version:  v1906                                 |
|   \\  /    A nd           | Web:      www.OpenFOAM.com                      |
|    \\/     M anipulation  |                                                 |
\*---------------------------------------------------------------------------*/
FoamFile
{
    version     2.0;
    format      ascii;
    class       volScalarField;
    location    "14.65";
    object      alpha.water;
}
// * * * * * * * * * * * * * * * * * * * * * * * * * * * * * * * * * * * * * //

dimensions      [0 0 0 0 0 0 0];


internalField   nonuniform List<scalar> 
28582
(
0.999992692835
0.999975539612
0.999981545264
0.999983023502
0.999993584669
0.999994617601
0.99997717732
0.999978993081
0.0548248863339
0.0582162085108
-3.92200407302e-28
0.999977299081
0.84561428991
0.843254913575
0.999980597087
0.999971420624
0.842799622189
0.997797507815
0.997410237263
0.999993096126
0.999960534444
0.999973515742
0.999980719194
0.999978727742
0.999978726223
0.999993638847
0.999994979959
0.999981600768
0.99998232712
0.0597880757134
0
-6.01644857256e-29
0.999977934011
0.999974888128
0.848150692881
0.839044295137
0.998460408032
0.999981739764
0.999972101477
0.999971681406
0.997696319579
0.833848721072
0.997234855532
0.996952285241
0.0557334747751
0.0576082239312
0.000250470278292
0.000290190190308
0.0567794628363
0.000169778283565
0.998275207059
0.998202702731
0.843568023413
0.847407094534
0.998345339069
0.845475590929
0.998126462813
0.998040669917
0.997844710098
0.843213962212
0.844886873529
0.997909097918
0.844885309959
0.997950832843
0.997880503139
0.997859104613
0.842211833889
0.844203327628
0.997895896174
0.843116561389
0.997905849214
0.997890524841
0.838789112158
0.83891708079
0.997857300678
0.840681786254
0.841231499438
0.997908921185
0.997307331871
0.839367758406
0.838962844503
0.997557293734
0.840696704933
0.997468755114
0.840971897234
0.0551363119223
0.000141395617731
0.0553271788012
0.0565857007715
0.000200053396144
0.000239673003087
0.0590232384539
0.000263989204797
0.000317147075723
0.0604704130372
0.000255333800565
0.0613160920643
0.000257450445423
0.998366707119
0.998547390284
0.845504150611
0.851197335613
0.998266013674
0.998581652266
0.848469002307
0.998101273575
0.99762744667
0.84232691551
0.841359070344
0.997945768185
0.997801554703
0.844976002279
0.848823931592
0.845251743854
0.9982860274
0.998370103941
0.843381839308
0.998154237998
0.8470400105
0.997839399985
0.836961551309
0.836971291117
0.997555175695
0.835586976011
0.997775750844
0.835217966683
0.997427456473
0.997630122979
0.834826158801
0.834741738224
0.997703115603
0.997412601879
0.834576539595
0.996983244989
0.997131449104
0.838192686096
0.837866588672
0.8375003693
0.99706425513
0.837243990592
0.837189789092
0.837110579129
0.996963891963
0.997016526224
0.836603268152
0.997021856943
0.836802205489
0.999995804204
0.999980306584
0.06271142659
-7.97498665234e-28
0.999973686591
0.843209128793
0.999970847821
0.999969811154
0.833148805602
0.837013007601
0.836043781773
0.99996938332
0.999969067346
0.835135655088
0.834764320904
0.056109514553
0.0619533755549
0.0632690369135
0.000229518781109
0.000232676757226
0.000194999568977
0.0641630226584
0.0644318329872
0.99776152745
0.998108827399
0.841063987685
0.841551437602
0.997947802371
0.839537743145
0.997955535438
0.997434118397
0.997570242864
0.832395112445
0.834847110158
0.997559970658
0.997418289543
0.834738709842
0.997111672421
0.997002755352
0.836333259085
0.836738248859
0.997048521126
0.83587604182
0.99706762399
0.997128854932
0.997037030603
0.835040552658
0.836487459545
0.997093651348
0.835631800485
0.997075681365
0.996854960654
0.996925965549
0.834183865454
0.834370818395
0.996994087755
0.833297695416
0.996730057844
0.996659321753
0.996174789892
0.833514524816
0.834424437717
0.996365953665
0.833328179195
0.996456258484
0.999979203868
0.999981399753
0.999964232956
0.999968107177
0.0452922792826
0.0491476268882
0.045975262206
0.0496810508274
0.0496557144162
6.91401723027e-06
1.83547584299e-05
3.56939122794e-06
1.58157275963e-06
3.69179054732e-07
3.28155134901e-06
0.999986386379
0.999990293782
0.897776510559
0.892197230678
1
0.890532739674
0.99998634754
0.999990233049
0.889212714957
0.884596520401
0.999969036938
0.999982721911
0.999968032042
0.887573177675
0.87373036625
0.882946811684
0.871647277121
0.999950680333
0.999940387345
0.866613589205
0.847813736666
0.866223455998
0.849270802569
0.999969655123
0.999973638964
0.881750188275
0.870706053323
0.867772294725
0.999959621377
0.999965190374
0.999963749785
0.865508384826
0.848356306834
0.863189572119
0.848861665203
0.862486305798
0.849467607629
0.0412144297149
0.0426477162636
0.0445363542519
0.000175426807087
0.000443121554693
0.000154085314814
0.000386036732431
0.000605678336035
0.000663035140813
0.000667150417047
0.000721076242824
0.0438719015306
0.0445386123704
0.0471326602784
0.0455709720928
0.0473874453012
0.000201990046093
0.00033142274411
0.000143969976535
0.000230037039176
0.0510447647438
0.0492586542774
0.0510703767074
0.000528503313747
0.000799693281014
0.0003895929867
0.00073546898822
0.0477750276822
0.0479841109276
7.35432523015e-05
9.66710783717e-05
0.000109579378459
0.0514735858147
0.0498455093836
0.0515915048939
0.000192295863151
0.00051107768196
0.00014019395036
0.000247570595158
0.999417446137
0.999378471024
0.898249152633
0.89700931315
0.99936955035
0.897452395478
0.9994181549
0.999366677366
0.999245977514
0.894731599262
0.892751202192
0.999302419553
0.999343040235
0.895347801955
0.998950355591
0.999061630814
0.893231124279
0.887181028341
0.999160848191
0.998770238293
0.890328472756
0.999350734554
0.999210629813
0.890018046637
0.88752586027
0.999339277639
0.999218520239
0.888554959571
0.999207386726
0.999060015284
0.885864748092
0.885197064965
0.999096749297
0.999163366973
0.88663219068
0.998580506743
0.998993218656
0.884454294799
0.885616062973
0.998620489561
0.998981045591
0.882230073446
0.998121442338
0.997716269137
0.879824888518
0.872021790178
0.998179188957
0.997611532035
0.877734683891
0.998504983891
0.998857346716
0.884187094517
0.880074391092
0.998881596077
0.998507195284
0.88116245471
0.998062101235
0.997600729875
0.872147088378
0.876196926111
0.997571201436
0.998065824011
0.877131241117
0.997008128365
0.997401386047
0.859059885047
0.865565306156
0.997169010844
0.997230337657
0.85883716179
0.996761290774
0.997050147257
0.853208894075
0.848073369017
0.996985626426
0.853320138548
0.996809783196
0.996964891157
0.997262365671
0.866214901886
0.860511910684
0.99721354548
0.997042034813
0.859714494184
0.996745247288
0.996754131328
0.848237159764
0.854553687954
0.996826310654
0.853761677666
0.996660422744
0.998426559488
0.998810311777
0.87888396794
0.880384468058
0.998460545968
0.998773716297
0.877661139442
0.998013301868
0.997589743049
0.875063341433
0.869934993705
0.998026777889
0.997607656279
0.874053691696
0.997913635417
0.997517400001
0.868940873528
0.871532523527
0.997553194785
0.997873546658
0.872881533497
0.997167206775
0.99730700158
0.859996737791
0.864997476122
0.997111965276
0.997326533784
0.85986952011
0.997049054792
0.996906761756
0.854073475799
0.848784344226
0.996957300043
0.854208899301
0.997026013769
0.997203367843
0.997307728928
0.864177625056
0.85858928664
0.997336396577
0.997175315087
0.859303714255
0.997133786539
0.997162471033
0.848661637036
0.853596261861
0.997133225298
0.853978059992
0.997139926127
0.996930858514
0.997113757396
0.858191739608
0.86099348025
0.997026112473
0.99695084271
0.857114347499
0.997105705962
0.853689489223
0.99703793527
0.999977266069
0.999968359963
0.999976273965
0.999991126287
0.999994272876
0.99998479167
0.999987450349
0.999987788949
0.999986844462
0.999987445272
0.999993732893
0.999987447151
0.999850262244
0.999885939465
0.999984638862
0.999965209466
0.999920976149
0.999945091484
0.999977307329
0.999962389114
0.999967422294
0.999978577264
0.999930767908
0.999931610238
0.99996934144
0.999989959994
0.999991126796
0.999988165089
0.999984994234
0.999977440453
0.999967923424
0.999976098259
0.99998869869
0.999993676744
0.999995177076
0.999992614853
0.999992916897
0.999983207255
0.999968138463
0.99997236811
0.999988871502
0.999997233915
0.999997289354
0.999992401283
0.999990805259
0.99999720944
0.999996866291
0.999990630662
0.999516997666
0.999959527746
0.99999083413
0.999945316989
0.999849508448
0.999858532168
0.999901122493
0.999949929034
0.99964734227
0.999819445936
0.999980904686
0.999971143901
0.999916470024
0.999919391024
0.999948878996
0.999962679288
0.999928202699
0.999964444945
0.9999914635
0.999991109503
0.999976472284
0.999961306283
0.999970350284
0.999987608292
0.999986788198
0.999986547732
0.999987901393
0.999990794733
0.999994509505
0.999994812785
0.999994634592
0.999993753927
0.999989438225
0.999994900738
0.999997452108
0.99999514668
0.999447160783
0.999952580678
1.00000153525
0.999958488488
0.99979531933
0.999832087403
0.999925403267
0.999975596337
0.999486332725
0.999915540633
0.999998785564
0.999994456512
0.999951531354
0.99990065804
0.999930887577
0.999983482585
0.999973155557
0.999985898183
0.999994138233
0.999997122504
0.99999748841
0.99999754093
0.999996821998
0.999997261756
0.999996526188
0.999995629626
0.999996097198
0.999997417213
0.999998969254
0.999999057971
0.99999892607
0.999998177634
0.999998483191
0.999994434651
0.999995825768
0.999997745195
0.999998975226
0.999999109721
0.999998887532
0.999999389417
0.999995625735
0.999995766821
0.999996640183
0.999602339338
0.999896260093
1.00000541929
1
0.99991101968
0.999810982767
0.999913616266
0.999951437766
0.999953174069
0.999943313683
0.999958055836
0.999969427143
0.999964612056
0.999949702581
0.999952346382
0.999959134126
0.999943634909
0.999960253321
0.999966293584
0.999964725971
0.999949196503
0.999935007206
0.999943161836
0.999970487354
0.999976085618
0.999966489559
0.999946094935
0.999972244628
0.999967475809
0.999954414779
0.999952589649
0.999977911191
0.999985289688
0.999978338133
0.999955386597
0.999934287974
0.999972998474
0.999976053913
0.999983966237
0.999978809336
0.999969115268
0.999943611611
0.99993959928
0.999972211618
0.999964166316
0.999966604862
0.0559136486338
0.05838940178
0.0612848509782
0.0632618099127
0.066541624958
0.0673944414128
0.0668605635337
0.0667125153658
0.0528085501788
0.0543572572824
0.057333741641
0.0608468238181
0.0641919152096
0.0651165645693
0.0663406400925
0.0650875570683
0.0649119485614
0.0640159796058
0.052485561798
0.0568323897453
0.0602900493244
0.0636618152699
0.065543539408
0.065479085538
0.0611049897007
0.0622690615531
0.0633360569283
0.0628992092828
0.0558860619719
0.0588731138409
0.0621980025013
0.0633357081142
0.0622656020588
0.0612655794546
0.0622220487123
0.0631727831415
0.0634470121444
0.0577151904211
0.0594408011643
0.0603901696095
0.0627837595992
0.0638064779533
0.0647628001714
0.0641438753452
0.064473634518
0.0649456694918
0.0636937911049
1.85563145971e-24
1.5143806892e-05
5.46674673439e-05
2.52181620948e-05
-1.55706071683e-26
2.62051333563e-28
-6.08069104561e-27
-8.36438651884e-29
-1.6069501424e-27
1.88381766646e-05
3.41927590647e-05
6.63183981494e-05
3.39082593021e-05
-2.41887790288e-44
3.45890741105e-24
5.58848007282e-05
-3.60737563372e-27
-4.12993555164e-26
-7.72408145252e-26
2.27498247941e-05
6.64204505885e-05
-3.96463839038e-25
-2.08085996237e-24
-4.64973361225e-27
-5.57085710844e-28
-3.53315863724e-26
2.71425404704e-05
-4.37664783251e-25
-2.13822002708e-24
2.96776257335e-05
-1.03658981502e-29
-8.1660651531e-29
-7.41967535043e-28
-5.99909155827e-27
-3.35878646372e-25
-2.83177894123e-24
-5.68772722151e-25
-1.48189771772e-24
3.28230896868e-05
-2.16148757247e-24
-6.62373366948e-28
3.78293669801e-05
-1.12735707255e-26
-3.80885862303e-26
-2.29994494328e-25
3.6524114468e-05
-7.16231866077e-28
-5.05617803973e-26
3.37609438839e-05
0.999775714217
0.999954681009
0.999957120691
0.999454683765
0.999708782878
0.999686585173
0.999735140402
0.999974288884
0.999966996014
0.999959415699
0.999920715713
0.999980552032
0.999856628172
0.999957157841
0.999976732546
0.999948009213
0.999947795716
0.999934379071
0.999944502326
0.999981589915
0.999985009016
0.99996071404
0.999974014341
0.999961867728
0.99995551588
0.999930947779
0.999980707952
0.999937364368
0.999777740007
0.999275511935
0.999600029817
0.999275511935
0.999628279241
0.999276876981
0.999531840056
0.999991113103
0.99991357455
0.999982414877
0.999931263319
0.999990084977
0.999904293488
0.999983770782
0.999640975615
0.99992203546
0.99993856631
0.99934127024
0.999569066753
0.9997213024
0.999747379256
0.999950171058
0.999937340309
0.99993358059
0.999867554512
0.999969537429
0.99989168094
0.999976849195
0.99969966752
0.999499886699
0.999763244993
0.999414435075
0.999771512473
0.999461196331
0.999824473977
0.99999408407
0.999941843805
0.999990753754
0.999975331602
1.00000300288
0.999973743762
1.00000094911
0.999700075041
0.999817744324
0.999841466629
0.99967753363
0.999829969536
0.999930041377
0.999941595258
0.999984611201
0.999928468082
0.999987147439
0.999955622175
0.999993942064
0.999970699182
0.999991978387
0.999671724728
0.99971890796
0.834169870766
0.833417953813
0.99968709432
0.999747583529
0.999834336888
0.833759905414
0.834351593698
0.832907581856
0.834952685309
0.999992111408
0.999935618035
0.999992792675
0.834902365556
0.840150285511
0.835520009585
0.837646056421
1.00000346986
0.999995917591
0.999998511475
0.841621609992
0.843106476226
0.837628893283
0.836686197304
0.999978628904
0.999996357971
0.999987091353
0.842135417517
0.833781909322
0.834679026402
0.828653718495
0.99981586755
0.999947152766
0.999889722703
0.830498752715
0.822440641327
0.827705900444
0.826427598916
0.999846793944
0.99987211879
0.999885928227
0.821404786783
0.82381795219
0.825705538447
0.825720657227
0.999960781378
0.999940021446
0.999961621264
0.824919009835
0.831125786965
0.825447090153
0.823904564674
0.999749340553
0.999956128357
0.999917530771
0.841740060356
0.824603997507
0.832048849085
0.816454645068
0.999939611892
0.999941518101
0.844878784533
0.839384520964
0.846297183416
0.839377680722
0.999942178979
0.999942915641
0.999948882908
0.83806852796
0.832755124794
0.836224393638
0.828697817817
0.999947537503
0.999951454641
0.999951950341
0.832042063844
0.833134738213
0.827571578702
0.826848893774
0.999966465122
0.999949741876
0.999944534977
0.833481779783
0.835898883767
0.827105293878
0.829632093529
0.999967885875
0.999938815918
0.999941931926
0.836288570822
0.834962086198
0.829962674462
0.829090234143
0.999956895102
0.99994205248
0.999947207751
0.833723809518
0.829272157241
0.82978232876
0.833446505482
0.999949521046
0.999955279361
0.999965224497
0.827932757039
0.827979529931
0.834581836776
0.837744898839
0.999954231172
0.999972903971
0.999973924496
0.82753385282
0.826538120676
0.837278629748
0.832350604425
0.999959488589
0.999974089326
0.99997275147
0.825966977096
0.822760588917
0.830049147412
0.825617774562
0.999949595402
0.999964418762
0.999969860197
0.830325160633
0.821611618308
0.833280921448
0.826975403438
0.999962421974
0.999965588562
0.999969178684
0.84521740229
0.837180483155
0.845701229179
0.837139498549
0.999966302319
0.999971189146
0.999970999935
0.834385833879
0.828002577978
0.834927548233
0.830980909253
0.999960130162
0.999968211438
0.999961628522
0.826767512673
0.825136562074
0.829711849131
0.825675806564
0.999936911451
0.999948846241
0.999939274656
0.825324754146
0.827689494491
0.825231452069
0.827085091865
0.999935393815
0.999935689774
0.999940098328
0.828470015707
0.829820823672
0.828473595457
0.833766415978
0.999956566447
0.999951012875
0.999965625029
0.829746482091
0.834535091123
0.835131723159
0.838757026936
0.999977144625
0.999976072212
0.999978272511
0.838366670476
0.841462059278
0.841223189393
0.842662143211
0.999972189286
0.999975993476
0.999969084343
0.83994042711
0.833094236
0.840173021801
0.835065428157
0.999960008816
0.999960136824
0.999947749929
0.830863803381
0.827028864684
0.834190385315
0.831255371939
0.999957940878
0.999942882099
0.999958666728
0.834839698065
0.82833186322
0.837863492121
0.827508189116
0.846622346871
0.838615326239
0.999969704455
0.99997901629
0.836911914614
0.83346478207
0.846882874089
0.999959398509
0.999971631716
0.99996336283
0.832244160457
0.827413499829
0.845205272153
0.836859214
0.999948767755
0.999954623185
0.999954590726
0.826442490381
0.827768632654
0.835070876534
0.834910474099
0.999962024674
0.999958680775
0.999970607772
0.829242769653
0.835292807692
0.835565952975
0.836350572822
0.99998421412
0.999982352675
0.999985896223
0.836692480027
0.838461337008
0.836498612214
0.834948741785
0.999984128239
0.9999849123
0.999981523393
0.838428505745
0.838798786396
0.834048915198
0.833586307302
0.999969573116
0.999973467954
0.999961520139
0.83848121062
0.836013991578
0.834018653044
0.83287754018
0.999940107027
0.999945192441
0.99993457261
0.83498757627
0.831135182328
0.832483067218
0.828694857797
0.999954238731
0.999936228773
0.99996137537
0.837746116946
0.826518734842
0.835545701129
0.824348169358
0.99997199977
0.99997448053
0.836946849593
0.836321256152
0.841235970997
0.999980636452
0.999977696987
0.999983288299
0.836593364924
0.836759024971
0.840898770315
0.83782465528
0.999982313626
0.999984935073
0.999983753598
0.837079331287
0.833866175514
0.837868505825
0.832184734489
0.999974797971
0.999980930786
0.999979314982
0.832750883193
0.832380725725
0.831447412956
0.831681336091
0.999959926297
0.999975628377
0.999970454041
0.832673867806
0.831754814052
0.831619074021
0.83079749211
0.999938225819
0.99995790023
0.999948134207
0.831993188067
0.828200138785
0.831514358882
0.829772166544
0.999966909851
0.999949774648
0.999972668505
0.835275150483
0.823991479381
0.836997939774
0.82728631975
0.999976523003
0.832561779771
0.999968311337
0.83232749335
0.831407542867
0.999964330575
0.832228820223
0.830565174133
0.9999832575
0.837684731656
0.828537144512
0.000287558639235
0.000225377837051
0.000351991700199
0.000296243544097
0.0545438373776
0.0552523729393
0.00036880340373
0.000334186864731
0.000564591256901
0.000643669231491
0.0569039576113
0.0561272678219
0.0573812578844
0.000469607418518
0.000584177240594
0.00111663931927
0.00114011789317
0.0601837039753
0.0590617982141
0.0609155572845
0.000785998359568
0.000403881969043
0.000700722431705
0.000436479197141
0.0619247930056
0.0624059306172
0.0632831673696
0.000274282027797
0.000304693164346
0.000334621584382
0.000452976092534
0.0651894491726
0.0651149028636
0.0666396120917
0.000226143484502
0.000410350499089
0.000487944197974
0.000515874271545
0.0671087294453
0.0668477567398
0.0665463329547
0.000528164981094
0.000613149974641
0.000524465744804
0.000513183786207
0.0672583108167
0.0664873645976
0.0662297157313
0.000570940421059
0.000484119002205
0.000466756699704
0.000394117608596
0.0655632296408
0.0658666145262
0.0655814312587
0.000402312315891
0.000209523858998
0.000318230512826
0.000203825098747
0.0743137683913
0.0641000362294
0.0695704333754
0.000148042935354
0.00011367851925
0.000156495554224
0.000368661087281
0.0540214120076
0.0524445627423
0.0541531592168
0.00099399615027
0.00101154169571
0.0011080051152
0.000917827311711
0.0556502927619
0.0557116873204
0.0571562723776
0.00118022983022
0.00119123482724
0.000839627786214
0.000849209959944
0.0588942414657
0.059090380959
0.0609055808194
0.00116467782038
0.000875044305778
0.000773423905335
0.000637536537552
0.0627855850629
0.0625387360243
0.0641575893467
0.000344426926635
0.00024318264416
0.000364826787869
0.000311493302124
0.0651093586905
0.0654570789451
0.066220873222
0.00021258347017
0.000427794912246
0.000281165426634
0.000449031007805
0.0660847271326
0.0652064526825
0.0645813141526
0.00147186197827
0.00110605028502
0.00134753562205
0.0011081731614
0.0654045720559
0.0644819042743
0.0637077419124
0.000507679440839
0.000434434169762
0.000431544271818
0.000239984842783
0.0649692139505
0.0635095104566
0.0636390348476
0.000358724766691
0.000312641396945
0.000185043753123
0.000193523340647
0.0653795688014
0.0639643584373
0.0647590711339
0.000250419965112
0.00018368903727
0.000177553784174
0.000142993887407
0.0701009978349
0.0634577718789
0.0691261702323
0.000171520472
0.000334097946354
0.00016177496471
0.000306777674013
0.0548296529101
0.0525218258919
0.0546802260322
0.001113152468
0.000669755538894
0.000857650746215
0.00063793979082
0.0583093152375
0.0566017089238
0.0582123069113
0.000359896814062
0.000389561000795
0.000326437317163
0.000356794109649
0.0623557706076
0.0600059509434
0.0621154479619
0.000425549888139
0.000440946289142
0.000424336070292
0.00048770148187
0.0647490538947
0.063673016943
0.0645646386224
0.000440515348497
0.000429809872086
0.000533952704538
0.000546364793677
0.0657756310808
0.064859827816
0.0646421690515
0.000443475499621
0.00051379635946
0.000539086447284
0.000495645188348
0.0636467769849
0.0637848812886
0.0620586812468
0.000537212448211
0.000415434483847
0.000395807495364
0.000357644813436
0.0610425784199
0.0597450477617
0.059766486251
0.000681722435176
0.000574129400511
0.000788091732855
0.000953192981498
0.0628088428959
0.0615774604879
0.0625861069618
0.000247345068252
0.000154128498128
0.00043434440295
0.000145051285366
0.0641447159961
0.0630122120723
0.0638821010279
0.000138151718539
0.000130081259947
0.000108267014749
0.00011026723816
0.0683314339584
0.0629240502994
0.0678637513571
0.000170970757388
0.00033688733547
0.000164328757599
0.000397142553022
0.0572092531832
0.0556510510473
0.000278483085585
0.000341787826233
0.000233467413886
0.0607266475137
0.0569457092496
0.0584353932016
0.000422947289265
0.000510763813517
0.000316925202755
0.000376977185525
0.0630448871443
0.0596790150886
0.0605344099758
0.00057140238792
0.000567549132548
0.000412227878222
0.00041280294989
0.0630355650333
0.0610727545872
0.0614474900548
0.000528170372716
0.000459107629909
0.000398443885999
0.000404788768887
0.0614241486327
0.0616062228957
0.0616620409725
0.000365545010752
0.000318839333073
0.000372522747647
0.000318079176869
0.0616748169005
0.0620151765667
0.0624225707586
0.000272197197342
0.000261461714142
0.00024508676142
0.000212509934632
0.0626509709274
0.0630251443828
0.06349436464
0.000234318032281
0.000177097358781
0.000197407745863
0.000201676501361
0.064316967365
0.0640235301081
0.065290551493
0.000141374215663
0.000131498075293
0.000187176168409
0.000191214014833
0.0676132892763
0.0639395540614
0.0675428811749
0.000180883619229
0.000449755087406
0.00025279312204
0.000497064567901
0.0585812114867
0.0571217824763
0.000246903766768
0.000223812974232
0.000134656040374
0.000124207117794
0.0601222737422
0.0582024728457
0.0591678813557
0.000242917376043
0.000450699216838
0.000133271970991
0.000432514122587
0.0617058724322
0.059373636158
0.0615279768392
0.00074222080848
0.000522271240299
0.00109345729577
0.000543717159875
0.063173717833
0.0631295807634
0.0638039877113
0.000308193998081
0.000274810615432
0.000235474607935
0.000242823815225
0.0644505743146
0.0644131180653
0.0650327347637
0.000248983041169
0.000255334877276
0.000240778590383
0.000255351133991
0.0659337429552
0.0650910032819
0.0660750388403
0.000221209523946
0.000230209217375
0.000215446398258
0.000220825914015
0.0673854482529
0.0638962983007
0.0672895232083
0.000303026009702
0.000533686863549
0.000290482176307
0.000533400102607
0.0637630511987
0.000225362149046
0.0649647798129
0.000224531522925
0.000237845158318
0.000177944313963
0.000174334314567
0.0658821426342
0.000195931115241
0.000199551182863
0.000142368946832
0.00013597269253
0.0672787870376
0.000255002454633
0.000506991254588
0.000171444550497
0.000484129369229
0.998972301486
0.999014308434
0.834317933223
0.83516165371
0.998912197257
0.835614063433
0.999025558176
0.99862942327
0.998304167613
0.834419281154
0.835529109923
0.998578460331
0.998354860027
0.835450178618
0.998526035938
0.998906735303
0.832964338115
0.834908576838
0.998763974031
0.834411212999
0.998698628631
0.998260261929
0.998252594189
0.833913855384
0.835081565964
0.998028289728
0.834632475314
0.99846807538
0.998204746117
0.998161023957
0.834641807038
0.833137921507
0.998427181087
0.997978306542
0.834689656146
0.998011515414
0.997792797744
0.835371119462
0.834024844391
0.997904458694
0.997837554301
0.834969296089
0.997562957845
0.997991760953
0.83610855004
0.835797435073
0.997781333465
0.837091773097
0.997722021883
0.997509208507
0.997630144039
0.837800620729
0.840466379665
0.99751951571
0.838634527584
0.997621970507
0.997781143889
0.997778937514
0.835978041642
0.836175060618
0.997838853531
0.997776516272
0.837058703375
0.997752063448
0.997703850885
0.839535444152
0.836793170329
0.997753868213
0.997761039367
0.838153932576
0.997565564506
0.997652441216
0.842616777583
0.841379297523
0.997555549455
0.842292076543
0.997648922281
0.997545562709
0.997460384918
0.843414688823
0.842541640623
0.997467046041
0.842960730744
0.99760975859
0.997719507236
0.997621849374
0.839973998014
0.837663712099
0.997740981516
0.997549068055
0.840722895316
0.997671201567
0.99743685865
0.839878454627
0.8374242491
0.99757219302
0.997511201423
0.840577169851
0.996703141872
0.997110233099
0.840565957042
0.841279196719
0.997231173026
0.838651164671
0.99649702045
0.996072058764
0.995167190181
0.837852772592
0.831335115181
0.995471013118
0.835091454166
0.995811205175
0.996901158286
0.997234308012
0.837910218094
0.831423215225
0.997328847626
0.996850785541
0.834289558593
0.996451249274
0.995897545894
0.828950773452
0.829784579837
0.995977163161
0.996358023972
0.831616275087
0.995109776866
0.994933456631
0.827194147807
0.828568638975
0.995158909464
0.826573632307
0.994916279882
0.9952142373
0.995633058776
0.824701390264
0.823211307826
0.99566300702
0.824747149874
0.9950851092
0.995622758649
0.995638601403
0.827612875898
0.827388111562
0.995681999382
0.995598199719
0.826560590367
0.995693240604
0.996137231598
0.824403443746
0.826869890044
0.996049200068
0.995718514053
0.825577223232
0.996852975887
0.996244355442
0.821370640816
0.821949479769
0.996303551837
0.822148045629
0.996754511215
0.997137066031
0.997206848017
0.822137960586
0.824594161638
0.997323532506
0.823005319626
0.997013297177
0.997224295041
0.99669872735
0.823150075098
0.825070864513
0.996628723347
0.997243641432
0.822842660232
0.997544330073
0.997871515487
0.824252429259
0.825271810398
0.997695686795
0.997672295357
0.823270765874
0.997529500062
0.997327918809
0.826630755398
0.824765433065
0.997401451986
0.825245709696
0.997460470735
0.997530305824
0.997609414598
0.828889828731
0.828058230828
0.99747022399
0.826557355662
0.997613264828
0.997690093547
0.99785851729
0.824496883883
0.82470407544
0.997684018856
0.997844990506
0.824782420857
0.997645645021
0.997584834102
0.825899886351
0.823613168605
0.997533969594
0.997762041453
0.825023872412
0.995909979787
0.997240581685
0.832691768663
0.836069207997
0.997073414133
0.832647423189
0.995882438793
0.991964874629
0.989290841227
0.792233020873
0.81770188052
0.81136989251
0.990357299018
0.988194849767
0.995932785069
0.997121157288
0.834642368032
0.827251458697
0.997135925925
0.995950751695
0.828651049653
0.992009229968
0.994083103909
0.804729199351
0.778661650646
0.992722164001
0.776360611024
0.993231765643
0.997080677055
0.99716011936
0.843335792321
0.84532991869
0.997350352712
0.844257783028
0.996910463849
0.997254707718
0.997633555643
0.841527010005
0.840672902338
0.997524855035
0.997373689705
0.842847696525
0.996763303897
0.996729471326
0.845081247634
0.844440300959
0.996780832642
0.843531213371
0.99668042251
0.996869119941
0.996940920576
0.839723927776
0.842050158023
0.996978558608
0.996867933775
0.841608834879
0.997534838971
0.997739263844
0.83665714831
0.838706553536
0.997783512573
0.997525247138
0.836798889028
0.997533620833
0.997744321655
0.834675912047
0.832015197694
0.997785082408
0.997493703087
0.834700255526
0.997216412794
0.997043809952
0.837518695244
0.832948775915
0.997137918774
0.997103503833
0.835324737232
0.997251048603
0.997182528689
0.830967920309
0.830668706641
0.997241733215
0.997177986931
0.833201376073
0.997322976645
0.997637189331
0.832224816988
0.830514293901
0.997513389417
0.997403064999
0.830396928946
0.997247917162
0.997352290434
0.832662843512
0.830567435477
0.997415534777
0.997185989956
0.830502318676
0.997112518253
0.99715102149
0.82982969961
0.827154853739
0.997197206441
0.997068029531
0.82939484266
0.996992693527
0.996772896121
0.828688807169
0.826720983738
0.996847684045
0.99693855218
0.828701573374
0.997034841934
0.997296915483
0.834053032542
0.830871592747
0.997252125879
0.997120726148
0.831495870104
0.996903786619
0.997044121591
0.834842204217
0.833122028137
0.997173938818
0.996720003348
0.832105971117
0.996453381871
0.996553857061
0.828975656145
0.827517272149
0.996666116984
0.996295048429
0.82953959459
0.99616343369
0.99557683148
0.831474256284
0.828252212536
0.995852157973
0.9959543538
0.830298018026
0.996449937492
0.996904180889
0.836971768045
0.833930294861
0.996810143146
0.996556872471
0.834392358763
0.996371815526
0.996582825832
0.836516715739
0.832012692885
0.996724253068
0.9963149673
0.833686567584
0.99561369602
0.995317529182
0.832217077344
0.830263469898
0.995664241526
0.99528106623
0.832631250625
0.995613816498
0.995257675213
0.831197446003
0.829608241526
0.995617665266
0.995251765705
0.832105748543
0.996089843887
0.996379836492
0.832824594536
0.830996887236
0.99619389013
0.996199693395
0.831066352701
0.995954339168
0.995732608007
0.831708116983
0.830152738017
0.996015172014
0.995716873621
0.830982730608
0.995760545437
0.995290406566
0.831339158229
0.831041701012
0.995641396507
0.995377756063
0.832566974844
0.995865694198
0.995851869108
0.832510724351
0.832373497225
0.995973521809
0.995547736904
0.833233780496
0.995536616116
0.995516628441
0.827755218996
0.82989795785
0.995487683171
0.995529313159
0.829658851178
0.995661545554
0.995892225694
0.827806134439
0.83106162142
0.995596333895
0.995930637738
0.829996866227
0.996091845336
0.996210338025
0.832160618373
0.835609184494
0.996050244753
0.996420277293