/*--------------------------------*- C++ -*----------------------------------*\
| =========                 |                                                 |
| \\      /  F ield         | OpenFOAM: The Open Source CFD Toolbox           |
|  \\    /   O peration     | Version:  v1906                                 |
|   \\  /    A nd           | Web:      www.OpenFOAM.com                      |
|    \\/     M anipulation  |                                                 |
\*---------------------------------------------------------------------------*/
FoamFile
{
    version     2.0;
    format      ascii;
    class       volScalarField;
    location    "0.75";
    object      p;
}
// * * * * * * * * * * * * * * * * * * * * * * * * * * * * * * * * * * * * * //

dimensions      [1 -1 -2 0 0 0 0];


internalField   nonuniform List<scalar> 
28582
(
17114.200138
17112.6473676
12216.3656879
12214.7611845
7318.75061466
7316.99716892
3646.03660829
3644.26602972
-13.5035521998
-12.574482505
-27.0386536859
3645.03147569
603.572002661
601.051241088
3643.28858827
3643.70062098
605.66336945
1804.95126397
1805.13286127
17114.9153842
17111.1509306
17109.7946376
12217.1103963
12213.1658727
12211.6836475
7319.42760973
7315.19703625
3646.53118026
3642.32392295
-12.7098287699
-26.9874837246
-26.9781308951
3645.57978377
3646.60168895
603.032869347
600.124367941
1808.68908336
3641.2050768
3642.8486417
3641.91774655
1803.40838664
598.908694713
1803.66539612
1803.34786319
-12.9725765025
-13.0847995335
-23.3128940491
-23.290318098
-12.7350495729
-23.2546863777
1811.77117307
1810.27416995
593.365179487
589.048010539
1807.23962482
600.180699454
1807.94117324
1810.54980316
1809.15975204
586.988836231
591.474709861
1806.6631931
604.155616296
1805.3322556
1807.93794012
1809.91139142
590.950048892
584.730719217
1804.67664319
600.335629429
1805.84058616
1807.24291425
600.709274575
590.659122417
1808.50165325
584.804657456
605.44722583
1804.07914259
1807.55344606
590.501503685
599.265180897
1808.51634224
584.971244394
1805.02809667
604.841342548
-13.8623189173
-23.2831074614
-13.971181109
-13.6866771872
-23.2669837531
-23.259929774
-13.2757408407
-23.3983016651
-23.3457338268
-13.2472526526
-23.3678733311
-12.760603406
-23.341540024
1810.84906606
1811.61244321
592.595978266
588.859512615
1808.74382392
1808.61547682
599.162357783
1811.1585691
1809.46323442
588.132236498
592.619881573
1807.11034337
1807.92845353
602.396556429
590.223733135
600.089255756
1811.26506487
1811.59884551
593.447349595
1808.54607804
602.5669737
1808.06781626
605.596735895
584.963546279
1806.44298673
591.020136149
1803.9625629
599.06409969
1807.13560517
1805.04786935
584.716132187
591.81723101
1801.19831806
1803.37208246
603.01364931
1805.62591183
1808.34594376
585.037271009
603.713722868
593.029001114
1806.72840936
598.300900645
588.053332275
597.514883588
1806.21830622
1807.49205831
592.381437128
1803.70470357
602.164180998
7313.41786399
3640.10710296
-12.359087358
-26.9601103095
3645.5883337
603.562397021
3640.70864321
3639.36409034
603.061089231
601.010961262
597.972765639
3638.09327147
3637.0508373
603.349975394
597.673341532
-13.3669321107
-12.6905266048
-11.9844888098
-23.3010572918
-23.314632155
-23.3036834113
-11.3835529023
-10.9886845601
1809.48670692
1811.29943833
588.0670859
593.154010323
1806.31756471
600.678284645
1807.71715973
1804.0842221
1805.51818098
590.330051137
585.358151552
1801.2682686
1800.52960699
598.330129205
1804.35903534
1806.38488411
586.016334089
592.640820982
1800.91695013
597.795023873
1802.36307605
1804.52228601
1803.15801023
591.307214428
584.973772317
1800.52934774
602.372130543
1799.18486835
1801.49207307
1803.88243229
583.76461697
590.918713513
1797.34401856
597.712578769
1799.05896678
1801.94774967
1800.4978777
590.584674707
583.043481414
1797.75165977
602.348509004
1795.67292429
3668.18349903
3662.57413058
3661.80324999
3657.60497709
-10.4206052191
-10.9292154584
-13.30313859
-13.8227799431
-15.2422472322
-27.050317829
-27.0832309077
-27.0202217634
-27.0452591922
-26.9484168983
-26.9434091188
3669.20926997
3667.89282581
612.306269388
611.182657053
3671.11114498
612.792857267
3665.95219256
3663.87136237
609.376149502
606.78381849
3669.54576515
3665.40152774
3666.00305613
611.241554052
613.329287805
607.756604117
608.616669973
3664.45794961
3661.1896118
613.046197635
608.365285225
608.272903999
605.623439459
3662.94126749
3660.53240375
606.42530098
606.571853733
602.511366461
3659.26361146
3659.48970732
3657.33232161
605.818556273
604.484299625
602.660655104
602.948092238
601.395864575
602.594104251
-10.3688607569
-10.3590315696
-9.18845824023
-23.2733364539
-23.2572045017
-23.3253506639
-23.3090806489
-23.2264410174
-23.2065083479
-23.2752925157
-23.2656424723
-11.4485132618
-12.5108064957
-10.3829385823
-12.0871356853
-12.2800046206
-23.3444284108
-23.3111464782
-23.3802654246
-23.3306317928
-12.1310106682
-12.6652044417
-13.1629220884
-23.307840127
-23.2949857766
-23.3049236591
-23.3128938886
-13.5923903778
-14.8278491416
-23.4251359413
-23.3698566486
-23.3132309325
-13.641476917
-14.7069784175
-14.2374095107
-23.331766829
-23.3111372743
-23.2647848884
-23.255487425
1831.84442261
1833.94573916
610.314769667
612.246823584
1833.79746837
610.505916201
1831.8872503
1831.17744086
1832.12329573
611.803181981
609.192655273
1832.99657679
1830.23683434
610.158261625
1836.56555223
1833.85308689
613.490777516
614.028541742
1834.80042158
1835.33060202
614.938906744
1828.48922373
1830.76031469
607.654261538
608.350973859
1829.11471862
1829.83993721
607.327817045
1827.58969705
1827.79211944
607.390991636
605.256500519
1828.72829065
1826.55442824
606.646662548
1832.51471426
1832.37577049
612.459969913
610.06573599
1833.76136853
1831.24272789
611.227805748
1833.17159734
1834.91752388
613.179192007
611.824931845
1834.64121201
1833.26429084
611.611032039
1831.01284388
1828.85150297
608.335175476
608.108895188
1829.87354731
1829.64163053
609.410931172
1831.62659365
1830.03174108
610.172873342
608.53799821
1831.67984664
1830.03860665
609.942604379
1831.2431825
1834.35331234
612.519036142
611.545781162
1833.0176073
1832.55584558
610.343320002
1829.27931389
1826.89782982
611.119381469
608.815010135
1830.50342285
609.673902223
1825.84543482
1829.70782085
1829.41594048
610.138271595
608.091666696
1831.01465964
1828.39500583
608.954047627
1827.89234981
1824.88691799
607.251893868
606.734832874
1826.77954241
607.5865793
1824.95439484
1826.64465392
1827.43337154
606.491615113
604.003789876
1828.05871379
1825.88293423
605.202596709
1827.10848037
1828.37983213
606.603310249
605.076911227
1828.44654928
1827.00727124
605.511983729
1825.80115073
1824.56277804
603.413534792
601.861042218
1825.70857112
1824.44353673
603.886456507
1825.82299763
1827.80080087
605.845950126
604.583885273
1826.91248627
1826.50430335
604.243050475
1824.62209576
1823.82129125
605.656678206
603.330972587
1825.49051239
604.901513292
1822.42656344
1824.48253329
1824.27367867
603.239376494
602.257043022
1825.16942635
1823.23474594
603.025721793
1823.45122503
1821.46425032
601.89842042
600.746051147
1821.81211835
603.045417396
1821.49904198
1821.29298835
1822.9279948
600.755536723
599.014490493
1821.95672778
1821.27867847
600.85738209
1820.19851386
599.397450506
1820.53388014
17113.2386522
17111.7932798
17110.4027313
17108.6260091
17107.7532656
17106.881269
12215.398832
12213.8822843
12212.397469
12210.3741147
12209.458017
12208.6448443
18330.7691847
18331.4031081
17107.5244302
17107.329206
17106.8592255
17106.2956731
17105.8240008
17105.1961699
18332.4833024
18332.4712378
17108.2149164
17107.7492024
17107.1754067
17106.5365571
17106.0085081
17105.3350007
17110.9588213
17110.2746617
17109.4968161
17108.6327202
17107.7824265
17106.9694641
17106.337601
17105.5955921
17113.3084752
17111.9025788
17110.726503
17109.5445612
17108.4646889
17107.5142355
17106.7866286
17105.9753329
17109.1542526
17108.0783599
17107.2693273
17106.4198388
13430.1818202
13432.4295466
12209.2823272
12209.1900602
12208.6644705
12208.0268299
12207.5443037
12206.9986873
13433.0025157
13433.7680539
12210.1639506
12209.6639946
12208.9793626
12208.2491038
12207.7086816
12207.1040863
12212.9465096
12212.1829053
12211.4243757
12210.5431399
12209.6083226
12208.6893542
12208.0168615
12207.3115618
12215.3489421
12213.9628985
12212.7537672
12211.4984786
12210.3120891
12209.2386505
12208.4578287
12207.6746795
12211.0173574
12209.8037451
12208.9441202
12208.1326797
8529.89999746
8532.75920165
7310.04941573
7310.46928289
7310.10107218
7309.3056553
7308.78765709
7308.55801587
8534.10262369
8534.69992304
7311.09975475
7310.98077518
7310.40655786
7309.46471698
7308.88715073
7308.60737763
7314.55270794
7313.75554057
7313.10365694
7312.23832258
7311.16441116
7309.9749496
7309.17476246
7308.64605527
7320.13493062
7317.5231648
7316.01494315
7314.76472648
7313.39419521
7311.95268499
7310.54526768
7309.60601182
7308.95959771
7317.70194712
7316.04770713
7314.36917003
7312.66784959
7311.07489655
7310.06944531
7309.46570965
7311.72040821
7310.69667123
7310.18726433
3630.33516944
3633.17463863
3635.4700657
3636.93763761
3636.67695195
3635.30092913
3634.22040657
3634.99747892
3637.68241725
3635.92496922
3635.97441101
3636.97655966
3637.23649837
3636.65280297
3635.3752181
3634.40054156
3635.23233566
3655.14753597
3645.56411039
3640.94423844
3639.40253679
3639.13639119
3638.65098033
3637.56841047
3635.94922574
3634.63815139
3634.93387928
3647.9104315
3644.43374514
3642.55426962
3641.46295226
3640.22840782
3638.55464576
3636.62845947
3635.14849608
3635.14255947
3644.68811611
3643.17716523
3641.43832331
3639.28889648
3637.0153427
3635.37939569
3635.49585926
3637.66233063
3636.10006018
3636.49290231
-10.9907533903
-10.9755921741
-11.9014436507
-12.0800707227
-11.5478758799
-10.4591467329
-9.30808339244
-6.38227997686
-12.8735288412
-12.3072187912
-11.7502831489
-11.6017589172
-11.858051528
-11.840384243
-11.4123793208
-10.8629595429
-9.77523669703
-6.1578618657
-13.353898973
-12.4741020984
-12.2272570003
-12.3583836774
-12.3326829338
-11.9389094722
-11.4062764577
-10.781580799
-9.61500315907
-6.11661687572
-13.206264121
-12.9211971522
-12.6809257451
-12.3710356
-12.0207605341
-11.4633788195
-10.7126557551
-9.36237746388
-5.66658434984
-13.0757527308
-12.5040637263
-12.1835635444
-11.755236477
-11.0873609646
-9.70831140545
-5.96875399258
-11.5739352627
-10.3110271206
-6.20309057435
-27.0633304526
-26.9961803112
-26.9962236387
-26.982887756
-26.9708018947
-26.9623204963
-26.9743281453
-26.9718048679
-26.9346091854
-26.9011244914
-26.9977021377
-27.0098814623
-26.9763674642
-26.9819746889
-26.9757828603
-26.9684714577
-26.9915416338
-26.9720718788
-26.9401885527
-26.9084285838
-26.9522513793
-26.9852162927
-27.0027137573
-27.0101001814
-27.0126313143
-27.0036905092
-27.0025805403
-26.9821866395
-26.9419306403
-26.9120211018
-27.0077278948
-27.0082940699
-27.016840659
-27.019985352
-27.0007105388
-26.9965952292
-26.9770349935
-26.9411809987
-26.9161472323
-27.0092000456
-27.0269427997
-27.0055388355
-27.0017066184
-26.9721166034
-26.9322330638
-26.9047505585
-26.9364003419
-26.9179751645
-26.9133321586
18331.1192367
18331.377214
18331.6432975
15881.0601347
15881.6699763
15881.7397017
15882.2101623
18331.6525757
18331.832615
18332.0239656
15882.1599941
15882.4831432
15882.6124771
15882.8606805
18332.5161965
18333.8084111
18333.5843296
15883.0474846
15883.2720105
15884.6627733
15884.4603738
18332.4153081
18333.4420576
18333.44625
15883.3331867
15883.2556709
15884.3040214
15884.2310576
13431.5446108
13431.3543881
13432.3766405
10980.3071897
10981.9617712
10981.6125899
10982.9209593
13432.9805022
13433.0500505
13433.516832
10983.1529172
10983.8809806
10983.733061
10984.2480589
13433.4722851
13435.1211347
13435.1414341
10983.9568442
10984.3167619
10985.9190145
10985.8460921
13434.0134854
13435.0813632
13435.2229519
10984.7501176
10984.8392342
10985.8273505
10985.8740248
8531.73710594
8531.60008615
8532.79610187
6080.51874639
6082.3950741
6082.95580031
6083.85838019
8533.57365099
8533.58589316
8534.23329056
6083.85583037
6084.77176652
6084.76559311
6085.40047339
8534.42828947
8536.55145328
8536.47468722
6085.27491515
6085.45354925
6087.6755025
6087.24610342
8534.93075586
8536.37934076
8536.42639498
6085.95410991
6086.2667296
6087.1757678
6087.31773034
3629.2871129
3632.60944948
591.370525778
593.624835029
3631.58494676
3632.94681031
3633.42203603
596.209711737
594.627674498
597.710777185
595.519895621
3634.4042063
3634.37474744
3635.28899014
600.792216729
596.479402321
600.85093925
596.766145555
3636.42334676
3636.06080695
3636.78968983
602.230158053
597.300044365
602.995190145
597.401100455
3636.99583787
3636.97921498
3636.82506756
602.695758304
597.420705893
603.222472477
598.224509619
3636.07763539
3636.62197845
3635.98390305
603.050306308
598.617478243
604.079201176
598.517641255
3634.63761908
3635.43267264
3634.79716838
604.696247123
599.408501899
604.369001356
598.279854818
3634.35536099
3634.4863692
3634.66535
605.220786125
599.908747244
603.885454595
600.257145723
3634.80088512
3635.17835889
3635.20292053
606.177256351
605.51877837
606.310222342
606.306597491
3655.48677855
3648.4723651
607.136254223
596.962150853
605.898597903
601.903163865
3636.48957592
3642.61763031
3640.00437824
602.003888882
595.63376409
605.681283316
598.919869406
3635.81158236
3638.66334591
3637.81746274
599.356751234
595.960792073
603.551210169
597.350269291
3636.44816077
3637.73945779
3637.81225138
600.728361625
597.214484771
602.635982661
597.782106274
3637.26760592
3638.07475562
3638.09009921
603.11729985
597.68021434
603.44698343
598.745672492
3637.09017074
3637.92051802
3637.62170093
603.567368273
598.605082721
604.630847174
599.407366025
3636.07435569
3637.13678123
3636.4178125
604.462384185
598.830077891
605.610177926
599.078384988
3634.80990669
3635.67677589
3634.90463555
604.50319961
598.639493069
605.431757964
598.330185415
3634.72925842
3634.47077981
3634.48077703
603.963595746
600.540103139
604.624589519
599.963401785
3635.19213168
3635.01843825
3634.6068949
606.438820375
606.481944615
606.504151978
604.766588384
3650.18901235
3654.30454477
3650.72986844
604.417548907
602.316101064
604.236741797
603.217147378
3642.6369303
3647.05678207
3644.54271768
605.797070894
599.792853805
606.175161386
601.142752612
3639.83905314
3643.11683776
3641.80942523
604.15886843
598.210407159
605.57110152
599.923581379
3639.23622705
3641.3180598
3640.84492168
603.396010401
598.401514275
605.252578893
599.611304141
3638.98143241
3640.53859741
3640.12357941
603.882036859
599.26178796
605.287349214
599.906704222
3638.20441623
3639.62810822
3638.95242539
604.893949295
599.926363992
605.77613396
600.081664526
3636.77865073
3638.18791855
3637.2871932
605.591556007
599.537812651
605.982683871
599.702391436
3635.15097655
3636.40298319
3635.4970764
605.55222689
598.897114792
605.898599692
599.371512231
3634.59874393
3634.99354101
3634.82305925
605.018719221
600.290492422
606.140655054
600.678123942
3634.50129446
3635.02221142
3634.35710187
606.901582674
604.933058128
608.140572507
604.215470459
603.834354033
602.556393775
3645.90981909
3646.88257175
605.722593607
601.247074612
600.832511276
3643.29560035
3645.49024849
3644.60053444
605.484450403
600.306043219
603.999594523
600.531073641
3641.97462603
3643.8369313
3643.18433216
605.162483176
600.227401911
604.919617615
600.682266891
3640.92253526
3642.51063646
3641.80797826
605.360933983
600.460662685
605.706961323
600.540918713
3639.43687437
3641.0235853
3640.021062
605.731052455
600.518757453
605.90932949
600.16639342
3637.59975534
3639.04860147
3637.94397086
605.941564474
600.123176154
605.762868159
599.612984892
3635.73494988
3636.90328433
3635.89030928
605.95890859
599.820479959
605.589468091
599.145142154
3634.9952043
3635.30184068
3635.1303954
606.178316603
601.180699251
605.698268403
600.788485965
3634.41877823
3635.31980497
3634.70118804
608.384500312
604.995732152
608.114700126
604.600776112
3643.99052143
3644.69465764
604.031335884
601.156961044
601.103063974
3642.37602842
3643.88034787
3642.95201312
605.785611203
600.993371342
606.073190309
600.696103005
3640.3600113
3641.92290568
3640.77135267
605.944029155
600.461436081
605.770900723
599.045575297
3638.1384123
3639.66136873
3638.49517061
605.371366417
599.712181288
603.978945484
598.270166124
3636.02223921
3637.33940635
3636.34496789
605.240793016
599.241294414
603.482607435
597.801518825
3635.23736546
3635.68013126
3635.60425742
605.140479933
600.986908938
603.327427906
600.034071321
3635.00080004
3635.91024158
3635.66926558
607.686483262
604.768871752
606.328196098
605.155097413
3638.79099715
598.460696418
3636.6840078
602.909209092
597.85900469
3636.05225257
602.26571936
600.186337203
3636.25514682
606.014108566
606.478322359
-23.272879597
-23.4037153743
-23.3034277868
-23.4266403846
-11.712204927
-12.1946437385
-23.5115138604
-23.4707671609
-23.492965563
-23.4346306129
-10.8073986325
-11.5226952036
-11.0255710312
-23.3923061497
-23.3629924083
-23.4182622289
-23.4191524181
-11.3931489619
-11.0454799334
-11.3270479251
-23.34350344
-23.3557844156
-23.4121141006
-23.3998628178
-12.0249561506
-11.6873123803
-11.9214866472
-23.3517835199
-23.3693022037
-23.3648766843
-23.3212212224
-11.8431138515
-11.8073709843
-11.6495431395
-23.3524597541
-23.3309879622
-23.3260993493
-23.2901190993
-10.9540898271
-11.4238896782
-11.1257194093
-23.3084726135
-23.3378818105
-23.2888714434
-23.2840615631
-9.9516655966
-10.7395430299
-10.338494745
-23.3413570692
-23.3622745443
-23.3259185234
-23.3430061821
-8.32566609861
-9.71393834836
-8.35181761941
-23.3942435406
-23.3841354207
-23.377052078
-23.3724627504
-1.55128478824
-6.20154062532
-1.24211471988
-23.4846609406
-23.3920004868
-23.4703374186
-23.3688582691
-12.6816199856
-13.1704817096
-12.7266268708
-23.3230600823
-23.3917757993
-23.325058764
-23.3518134731
-11.7592722869
-12.2570897041
-11.9149203483
-23.4485417307
-23.4829986013
-23.3665951974
-23.3525213541
-11.6177523201
-11.9758588216
-12.0192257331
-23.4067925853
-23.3951635968
-23.3674184782
-23.3367014148
-11.6500055391
-12.1309256037
-12.1232474545
-23.3844128121
-23.3834872171
-23.337027062
-23.3037282037
-11.8227932999
-12.1915647722
-12.0505272541
-23.3462915137
-23.3469884402
-23.3097698519
-23.2621290681
-11.5864190259
-11.9073649995
-11.6655320149
-23.3137917358
-23.312950158
-23.2783257919
-23.2544019159
-11.0694324151
-11.4114436144
-11.1678015143
-23.2674152843
-23.3117167785
-23.2629933072
-23.2712343049
-10.4636510032
-10.8936003745
-10.499099129
-23.3164168772
-23.3691653701
-23.3029832454
-23.2978378711
-8.39968925067
-9.81639770306
-8.52773933904
-23.3922249838
-23.3869451167
-23.3739536308
-23.3292133473
-1.18573638517
-6.28248003759
-1.63443688147
-23.4563425545
-23.3825146717
-23.4673818996
-23.3953616791
-12.8956756362
-13.8296385656
-13.2099796098
-23.3199049467
-23.3186895196
-23.2528718717
-23.2926034912
-12.1828080241
-12.852394301
-12.6111169344
-23.3178868723
-23.3257230319
-23.3165488166
-23.3000832868
-12.2611128342
-12.5709195803
-12.4792234303
-23.281950585
-23.3203008489
-23.3013390528
-23.2861574154
-12.3402774863
-12.5150819213
-12.455820452
-23.2645283286
-23.2969738701
-23.2737980817
-23.2666774637
-12.1177860959
-12.3853994741
-12.2026282087
-23.2512804799
-23.271341612
-23.2592375807
-23.2553006882
-11.6075101896
-11.9721802166
-11.706749403
-23.2502860175
-23.2609269336
-23.261228081
-23.2571194712
-11.0472107855
-11.4197801408
-11.089547996
-23.251108374
-23.2818728132
-23.2639047648
-23.2638987528
-10.2808328179
-10.7326707514
-10.2417678077
-23.267740552
-23.3269367761
-23.2862073343
-23.2852100664
-8.25922513923
-9.463567218
-8.05378112122
-23.3560228572
-23.3684805197
-23.3532051777
-23.3295503214
-1.46004410418
-5.89170190768
-1.42548156647
-23.4364610848
-23.4223377632
-23.4419395085
-23.4260183062
-13.0168072549
-13.4030789005
-23.2742469214
-23.2820539961
-23.3060950714
-12.7693631409
-13.4623515288
-13.1561499947
-23.2708558029
-23.2818222568
-23.2863437317
-23.2740854856
-12.5027308744
-12.8529754703
-12.6808641908
-23.265853419
-23.2670329546
-23.2706962377
-23.2622687691
-12.1829051703
-12.5014648409
-12.2900575609
-23.2595550802
-23.2600273867
-23.263518534
-23.2694941051
-11.7273073074
-12.1061973545
-11.8999808425
-23.2557984348
-23.2774077507
-23.2776299048
-23.2626241828
-11.0811376267
-11.6148803117
-11.2874787781
-23.2570406507
-23.286796261
-23.2718267516
-23.265530086
-10.1467359365
-10.8954505863
-10.3565529128
-23.2733849819
-23.3217853206
-23.2947103142
-23.2852256073
-7.87743627339
-9.53247932464
-8.05768758586
-23.3381609712
-23.3727729667
-23.3539203674
-23.3356940286
-1.07870208205
-5.84549900796
-1.3436832661
-23.4325527134
-23.4414430506
-23.4409910439
-23.4333655911
-12.5238462686
-12.6541118269
-23.2569307815
-23.2571809128
-23.2694285075
-23.2713741541
-12.3001837377
-12.5321477836
-12.4289516163
-23.25970192
-23.2707241043
-23.2663908864
-23.2800845108
-11.9770957277
-12.4563032805
-12.3731868191
-23.286096275
-23.2957862932
-23.2993434422
-23.2847666859
-11.3984729474
-12.1480633075
-11.8333239164
-23.2667330042
-23.2891612948
-23.2847103103
-23.2669519228
-10.520772947
-11.5166443182
-10.9237902913
-23.2818464751
-23.3231858784
-23.310741777
-23.3141382577
-8.25463154031
-10.1240881238
-8.58566348834
-23.3401733266
-23.3647794754
-23.373752478
-23.3371427652
-1.44519072199
-6.32528174267
-1.60519139629
-23.4255367225
-23.42349789
-23.4463150181
-23.3994926449
-11.866295496
-23.3252690557
-11.1474903727
-23.3397931859
-23.339627114
-23.3494579113
-23.3507672452
-8.75378777643
-23.3637841738
-23.383638959
-23.3956392125
-23.361816628
-0.975455538136
-23.454888491
-23.4060359816
-23.4537957299
-23.3774659254
1795.2109211
1793.91729861
580.487249874
588.370659298
1792.74242544
595.553292325
1789.92954399
1796.81336962
1797.98125407
589.961158014
582.01803747
1794.74291761
1794.16445656
596.563851202
1794.99505223
1795.30306318
586.939456955
581.989719875
1790.56688918
592.652993789
1791.35574448
1796.62996509
1795.31289237
579.05317128
587.977108282
1793.13588175
597.720860125
1789.03674841
1796.45928373
1799.18296699
583.780844094
590.07155258
1792.44554535
1795.78404607
593.423344813
1797.76669134
1798.15269402
589.226317411
583.41154738
1794.09927731
1793.67742519
598.088913968
1797.12777821
1797.58622052
586.67622128
579.650253472
1790.90876973
595.258990452
1793.81567935
1799.62103716
1798.38271325
578.624852294
588.379179709
1796.02244814
602.013744539
1791.72679437
1797.97105545
1799.51408609
581.14817164
589.44495775
1791.90197694
1795.90033438
596.269902973
1799.96936457
1799.65748474
588.98506394
581.209320745
1796.25251312
1793.77472102
602.278518529
1799.81815841
1800.54366325
587.935262878
580.653634695
1793.82893981
596.706164039
1796.9435097
1801.95550433
1800.73620306
581.100326108
590.104478304
1798.48663321
602.679517703
1795.0276729
1799.98008957
1801.67809
580.953950496
589.380702546
1793.98568657
1797.6258509
596.694228994
1802.03266534
1801.24989362
589.97768981
581.13289409
1798.6213081
1795.32018694
602.644099784
1801.56263255
1802.92571929
590.851529609
583.239863097
1796.24746886
597.602036219
1799.08122414
1803.02773542
1801.63831121
583.76788276
590.345736959
1798.67105923
602.709626362
1796.56177507
1801.4679092
1802.98405606
582.718214602
589.252641275
1796.18996455
1798.45289801
597.557075793
1803.05779866
1801.18234336
590.052032719
581.252840216
1798.58220936
1795.50719102
602.994807529
1800.88530174
1803.06275883
590.815146376
582.433811838
1795.63856987
598.194913373
1798.43496155
1801.9165887
1800.33597596
582.959104445
589.758556808
1797.2239845
603.856205608
1795.18043341
1800.66638968
1802.40563559
582.280540324
588.693712179
1795.45160168
1797.7750408
597.974387049
1801.79766165
1799.95503889
589.322914341
580.520707986
1797.18318835
1794.61692663
603.909354617
1799.31103796
1801.5836204
589.562702839
581.503990428
1793.71348484
598.906293558
1796.24150663
1800.40120017
1798.39096149
581.160323057
589.234904738
1795.38480073
604.736134877
1792.5274495
1799.241069
1800.886633
581.452416488
588.600073023
1793.68267507
1796.24102883
598.444279072
1800.42835208
1798.46792216
589.133709515
580.822671312
1795.50473476
1792.95546932
604.258928405
1797.83380532
1799.34368011
588.539930627
581.357127773
1791.94537786
599.018636613
1794.31229642
1799.29497513
1797.89366126
581.045735853
590.626635624
1795.53908878
604.981204353
1791.39245149
1798.08492499
1799.62229727
581.252456609
589.398746467
1792.19000069
1795.24301813
598.824681849
1799.52588395
1798.77636471
590.829718134
583.095050031
1795.71750334
1792.75209458
604.663074001
1800.06747427
1799.73681808
595.441374319
586.030681265
1793.77746503
603.772650342
1797.23603223
1801.29109777
1798.53231812
593.523158995
595.870496959
611.969027083
1797.53426498
1795.18549086
1800.3094188
1800.7258657
586.529111557
596.591033696
1793.96328416
1797.84554275
604.165423664
1801.34982982
1799.30938352
596.011808875
595.309337989
1796.34040111
612.262832095
1797.47385521
1817.81941406
1822.47729314
602.139328128
603.311233841
1814.99428875
603.148704823
1821.31472823
1813.56947534
1805.82796101
591.644235525
594.94136237
1807.2590264
1806.37255691
604.380728172
1818.38535469
1822.31226221
602.900901655
602.190924678
1817.60506982
602.576588762
1821.06188526
1815.12643767
1812.79481766
596.681977252
594.847240279
1808.98803899
1812.93978722
604.489600362
1803.15798875
1804.59112486
592.128722985
585.110588359
1800.29648099
1800.99012893
597.174066252
1803.63587876
1799.73014207
585.035856788
591.179838113
1796.93567873
1799.56567843
602.624431485
1805.27068579
1810.60004777
587.764476723
592.511295884
1803.61094201
1804.83632166
599.094913019
1805.43817676
1804.25381784
591.622798928
583.812498288
1801.2444758
1801.18268111
603.764982773
1800.52247954
1800.60282254
591.137298095
583.152018925
1797.51988496
1796.53992538
596.274585794
1801.13991093
1799.23587554
584.176214921
589.2903368
1794.96433616
1797.45552591
600.352255691
1801.47604893
1804.49534386
583.893240909
588.943381562
1798.00117762
1800.19767076
596.852409809
1802.1582921
1801.83916476
589.405943354
580.973840435
1798.57864451
1797.73088322
601.085377982
1800.21853719
1800.36631949
589.881195221
581.325063046
1796.84038793
1794.91563173
596.643189285
1801.76011318
1800.31381958
582.105719771
589.455038736
1794.59203862
1798.25817448
602.364236859
1800.94159978
1802.57048296
582.062388866
588.265084179
1795.94521013
1799.30086739
596.74899054
1802.47703892
1802.12043568
589.307317213
580.941872148
1799.03372895
1797.27800864
602.251316358
1801.48310438
1802.1815656
590.031510878
581.601136024
1798.29152484
1795.91660964
597.699422574
1802.9807118
1801.4657076
582.072306185
589.145685706
1795.76290624
1798.67413643
603.533733878
1801.92962524
1803.29771744
582.039314648
588.621092837
1796.5832208
1799.73036988
597.677110693
1803.65264835
1802.47288178
589.308016768
581.454321219
1799.37259707
1797.29947214
603.536613934
1801.5343568
1803.34933385
589.407413812
580.744297712
1798.85512785
1795.78535844
598.310483286
1802.88955457
1801.33996378
582.06012023
588.35274539
1796.01215469
1798.31296145
604.41577145
1801.86557336
1803.54445503
581.637325782
588.564046833
1796.56338359
1799.39327156
598.405167919
1803.3211946
1801.92701061
588.502846998
581.064536782
1798.76867113
1796.86373182
604.572252203
1800.67150494
1802.83260107
588.908340549
580.041389428
1798.07680004
1795.38633406
598.787548883
1801.63094156
1799.97939206
581.317640731
587.549095927
1794.94184472
1796.72963263
604.948073677
1800.88021471
1802.90945403
580.561202756
587.710598062
1795.99522783
1797.97746351
598.834945959
1801.92788034
1800.1643805
587.461837073
579.753211183
1797.01708521
1795.2040493
604.92016245
1798.9547086
1801.04343011
588.549834616
579.05259541
1796.42207452
1793.77302643
598.17242287
1800.07917139
1798.56227809
581.485362152
588.060131132
1793.17684512
1795.30661762
604.019221475
1798.92937751
1801.025485
579.349883724
586.884880319
1794.19531768
1795.83681464
598.095096975
1800.0369208
1798.08748334
587.523129569
578.749299178
1795.18430197
1792.65967734
604.129660054
1797.95555246
1799.71655278
589.73242959
580.81572205
1795.37759966
1792.19513994
598.71844019
1799.38200899
1798.90391245
583.472586617
590.410698767
1792.94622754
1795.69266678
604.37624161
1797.76029774
1799.16484041
580.283976602
587.351402931
1791.99440596
1794.5956205
598.420565694
1799.23564854
1798.05468908
590.083677241
580.567513594
1795.50289574
1791.91925507
604.310378139
1800.22073342
1800.87430715
596.809527103
586.301886349
1797.96750238
1793.84276504
604.334725136
1801.20956153
1799.34764389
595.635971928
596.002781917
1796.35572451
612.300918005
1797.58851947
1799.89344425
1799.68738413
586.020366559
595.132388708
1793.54128743
1797.0578111
603.797501038
1801.0212645
1797.8399613
595.281420649
592.75225389
1794.68719911
611.854195248
1797.31461463
1819.24066535
1821.78283329
602.108539365
599.467229335
1817.9843966
603.131257423
1819.74408141
1817.30434731
1813.57505542
595.998564439
597.068165868
1813.75952904
1812.35015123
605.806437073
1818.49031954
1820.2983151
598.423327257
598.722365322
1817.02939994
602.427884261
1819.15605067
1817.22745301
1815.00942585
596.857583765
593.812669209
1812.86588508
1814.65937696
604.830529346
1809.92691887
1812.06572003
593.567820752
589.302246656
1806.62395355
1808.45516036
601.614585912
1809.08866732
1805.53163774
585.478431962
590.472297375
1802.67233038
1804.43480923
605.543331509
1810.61626575
1813.90458811
590.180956653
593.573549484
1809.58154022
1809.43798639
601.575425811
1809.79677334
1808.96184212
591.400605782
587.015020929
1805.65791532
1807.38953526
605.30558147
1805.02646652
1805.91889072
589.702160971
582.548271436
1801.59091623
1802.31156777
599.224907494
1805.56072344
1802.95522629
582.71497158
588.583784112
1798.87583684
1801.64469335
604.397517245
1805.98973662
1808.90009036
584.18015323
590.089181381
1803.46548821
1805.01319981
599.666878483
1806.21821412
1806.13696069
589.357727434
583.502531587
1802.81741422
1803.63834092
604.689601212
1803.69620957