/*--------------------------------*- C++ -*----------------------------------*\
| =========                 |                                                 |
| \\      /  F ield         | OpenFOAM: The Open Source CFD Toolbox           |
|  \\    /   O peration     | Version:  v1906                                 |
|   \\  /    A nd           | Web:      www.OpenFOAM.com                      |
|    \\/     M anipulation  |                                                 |
\*---------------------------------------------------------------------------*/
FoamFile
{
    version     2.0;
    format      ascii;
    class       surfaceScalarField;
    location    "12.35";
    object      phi;
}
// * * * * * * * * * * * * * * * * * * * * * * * * * * * * * * * * * * * * * //

dimensions      [0 3 -1 0 0 0 0];
oriented        oriented;


internalField   nonuniform List<scalar> 
92311
(
0.204141732367
-4.48226670372e-05
-0.00127680541448
-0.203879522105
0.00105941728365
-6.70389769565e-05
0.204284574176
-0.0010130684027
0.000937537998409
0.204225356508
-2.63972738256e-05
-0.00134660216072
-0.204001970068
0.00110506264083
1.23160874343e-05
0.204259529868
-0.00104187100477
0.000928640432174
0.2041475389
5.34084774822e-05
3.66220465421e-05
-0.00143743060744
-0.204045830099
0.00109664778086
6.3162584158e-05
5.96861676622e-05
-1.769096189e-06
-8.32232900038e-06
-7.80235299641e-06
0.20425410935
-0.00107705815897
0.000979000503778
2.18399400988e-05
0.0513578073185
3.01415968003e-05
3.89911968396e-05
2.3854537293e-05
4.54295254125e-05
-0.000372242450912
-0.0513590511825
0.000288491684627
-0.0513061383852
0.0512687238152
1.76108191763e-05
2.88203544309e-05
2.90868308408e-05
1.53823891743e-05
-0.000320014734302
0.000264785001626
-3.65149521143e-05
-0.0122131651889
-4.17193819948e-05
-3.17144981976e-05
-3.53807252792e-05
-0.000415606966528
0.00903164177516
-0.000453541070721
0.0041959749617
-0.0203843197662
-0.000214302039549
-0.000296210520144
0.0181377840114
-1.45918497968e-05
-2.95906870511e-05
-1.93162483791e-05
-3.10702590621e-05
0.00285162252547
-0.0142669837908
0.0058618088105
0.00515339462834
0.00567301482888
-0.0197242610999
0.0373120767654
0.0486279818371
0.00596046175628
3.43305233239e-05
4.27295244691e-05
4.11223688427e-05
3.95776851282e-05
-0.000346513542717
0.000277107461208
-4.99519353269e-05
0.0118399523535
0.000116879572527
-9.50624210332e-05
-0.0118482925496
0.0118156331967
6.51525619763e-05
-6.79453524615e-05
-0.0118314237105
7.67811417616e-05
-5.81876530672e-05
0.000241266004646
5.23144127987e-06
0.0512865140135
-1.49392722117e-06
9.31969587309e-06
7.02301430681e-06
-0.000287398158712
3.67742651877e-06
0.0512528451563
6.1671194339e-06
1.24400804903e-05
1.08051481474e-05
-0.0512561146469
0.00020369737647
6.20654211889e-05
-5.52857262279e-05
0.0117915167796
5.56872365e-05
-3.83957564192e-05
7.25024529244e-05
0.0127864238658
-7.84897549525e-05
6.0349591176e-06
-0.0127812229989
0.0127825797258
6.63119393928e-05
6.37726172161e-06
-0.0127790759425
-0.000161831889096
0.204264408297
-0.00202786080254
0.00172616726156
-0.203800883159
0.204330508075
-9.51740992925e-06
-0.000610242239203
0.000574066489155
-4.83627062858e-05
0.204417675203
-0.000461261076338
0.000422615098973
-0.000236905092951
0.204353049556
-0.0019900388225
0.0017027142111
-0.203990349232
0.204413009388
-3.92602678117e-05
-0.00074996036901
0.00062651304195
-0.000110883571183
0.204629260584
-0.000557901264943
0.000404395422573
-2.54217730274e-05
1.8658994999e-05
3.18191425779e-05
-0.00211656004667
0.204330675798
0.00174101893102
-0.20418021006
-3.66869933779e-05
-3.96713363004e-05
-6.72759602701e-05
-5.13731303819e-05
-7.28573930235e-05
0.204527546508
-0.000690581962625
0.000609299698208
0.0513526318443
-1.20917370167e-05
-1.6778458721e-05
-1.23061081288e-05
-1.8712530099e-05
-0.000576350832046
-0.0512331547914
0.000491347538965
0.0513103863074
0.000224077199241
4.97478497929e-06
-6.6105688541e-06
-2.92076745637e-06
-1.60831572278e-05
-0.000266921384644
-0.00435653660507
9.06355778874e-06
-0.0210566811748
1.05162896105e-05
1.60487649387e-06
1.02956233041e-05
1.03763656251e-06
0.00499641517099
0.00729896991836
0.00785044506276
0.00896545936568
-0.029392394298
0.00238677233455
0.0688225055979
0.019012209818
0.00534141921636
0.00312048743515
0.00172296842854
0.0024149395029
0.00267555524829
-0.0033553474827
0.0344920963858
-0.00967694879514
0.000502442319364
-2.10116344746e-06
1.22408826755e-05
-2.2787891453e-06
1.70288189808e-05
0.051411263981
-0.000567321886677
1.50673255834e-06
2.86995078772e-05
4.55459748589e-06
2.94625779725e-05
0.0513917671677
0.000400365525671
-0.0513220739199
-3.76428572085e-05
2.37926534949e-05
0.0117942547783
6.4720967689e-06
1.10912205079e-05
-0.0117979615804
-1.63150040048e-05
-1.87451093067e-05
-0.0118166487313
2.72934916615e-05
-1.36507637213e-05
0.0118380568065
2.90292319534e-06
0.0128572094796
-0.000113955227724
9.8575402956e-05
-0.0128432413221
0.000186346156291
-8.20134356813e-06
-3.01682895789e-05
-2.20577557035e-05
-1.56029939029e-05
0.0513642137528
-0.000231415367518
0.0512552758627
-2.67520354899e-06
-7.06385785512e-06
3.41256946992e-06
-1.18227265178e-05
0.000188494565319
-1.45464784213e-05
-2.64194747703e-05
-1.82460733757e-05
-2.77251397177e-05
0.0512998926644
0.000155861485083
6.62160231649e-05
-7.33059533222e-05
4.80191472249e-06
0.0127937049869
-1.69029533693e-05
2.14759497808e-05
-0.0116063490742
-0.000156192248539
0.0115921153532
0.000165856976707
5.94876781344e-05
1.40935926417e-07
0.0127864675754
-0.0127825431862
-1.33784061162e-05
0.0127893910678
-4.42012177555e-05
3.62076551533e-05
-0.0148270586813
-7.24611353047e-05
-6.64597376133e-05
-6.8651707448e-05
0.000265332599796
0.0046476351256
-0.00202633670459
-0.00179924489127
-5.3778470407e-05
-6.85521515308e-05
-7.41143612414e-05
-6.8148635107e-05
-0.00668696260953
0.00294939837228
0.0055870787955
-0.0114465201793
-0.00363698583375
0.00710398463912
0.0120409696998
0.00708486856191
-0.00313859211873
-0.0105375479342
-0.000956142761956
-4.28462257972e-05
-6.75598232045e-05
-5.68860231917e-05
0.000670656780495
0.00382590487866
-0.00798514800349
0.0103551387628
0.00943303236291
8.28114112473e-05
0.0128429440034
-9.6018722446e-05
-0.0128496145108
-0.0128423997416
5.82563453247e-05
-8.36958378968e-05
0.0128346839235
7.21402271918e-05
0.00010515733117
-6.89993473e-05
0.0118486629304
-8.66165468341e-05
-4.00041096127e-05
0.0118420119237
-0.0118489827783
0.000132098738415
-0.0128457912922
6.99316035321e-05
0.0118489435523
0.000121101717441
0.0128344383959
-9.88046942358e-05
0.0128145040892
6.63693832593e-05
-8.7578644171e-05
7.56868162652e-05
8.93143022906e-05
-0.0128133266802
0.0127984914936
-9.97373794167e-05
9.05659243399e-05
-7.29317076039e-05
-7.29040273936e-05
-6.6998442602e-05
-0.0118277103741
0.0118122292113
9.28081547512e-05
0.0127993730414
7.85656868565e-05
0.000109515727615
-9.98794096542e-05
-0.0127806911603
2.76262812432e-05
-8.84438247203e-05
0.0127789579393
8.01802459632e-05
9.06100038503e-05
0.0127798681045
-9.84171027091e-05
3.47379342947e-05
-2.10815894235e-05
0.0117501540579
-1.51775618222e-05
-5.72956905933e-05
0.0117865079543
7.11319154848e-05
8.11788672727e-05
0.011744089851
4.79382597843e-05
0.0127790844017
-9.32819688953e-05
-2.28702630329e-06
-0.0127818692165
0.0127872970221
-8.31156173759e-05
-2.83237564382e-05
-0.0117218413541
0.0116826808495
5.06149446769e-05
-0.0117119044286
-9.89409226455e-06
0.011669941723
1.37015516497e-05
-8.34749317985e-05
7.69014753725e-05
1.90486558201e-06
-9.43717839714e-06
1.65679089667e-05
1.67389857504e-05
-8.86018307554e-05
1.02499767505e-05
-0.012778801154
0.0127802891327
6.07333155342e-05
-1.12883213693e-05
-0.0117224281928
0.0116764238365
-0.0117185471107
0.011669313292
-2.03726509412e-05
6.77359117001e-05
2.42503134196e-05
-0.0127817151929
-2.23430153192e-05
-1.14490329399e-05
-0.0117582435677
-6.45572677431e-07
-0.012784238178
6.16280130396e-05
-0.01176104652
-0.000359289497551
0.00142826291837
3.34666218696e-05
-4.19307984881e-06
1.94604583353e-06
3.40710361481e-05
-0.00797298925048
0.00599939992748
0.000839225276163
-0.00408431673334
-0.0123694058749
0.0106103752205
0.0127818508274
-0.00748059325063
-6.04273130858e-05
4.06640086638e-05
4.86534313795e-05
4.66250131769e-05
-0.000493518220818
0.000874450637333
0.00698647830715
-0.000426117716171
3.90255977568e-05
1.15375462831e-05
3.95954389798e-05
-0.009817640324
0.00408488336778
-0.0137494883568
0.00186713182922
0.0144337550319
0.00523900408163
0.00383181134367
-0.0131263206965
-0.000703241604011
-0.0101491404706
-1.23140697586e-05
-2.96543170423e-05
-2.44688539177e-05
-5.81985535866e-06
-0.000118991825362
-0.000474391531578
-0.00359240804306
0.00284554448398
-0.00301334622994
0.00113207532082
-1.44531330037e-05
0.00694456294915
2.43921268235e-05
3.45432306389e-05
3.58248126101e-05
2.98245192885e-05
-0.0139043931563
-0.00329970568424
0.00017307636765
-0.00393998499436
0.00257469622953
-0.00046151546335
1.62627307385e-05
2.81688640332e-05
1.52373240208e-05
-0.0202989683724
0.00657178847772
-0.00267783395938
0.00205063098676
-0.000133093314437
-0.0128320604416
-1.50185031662e-05
0.0128424581412
0.000125608883417
0.0128324719442
0.000130153140607
-0.000139396733339
-0.0128162361926
1.55496824772e-05
1.41986084271e-05
0.0118000973806
5.03389076973e-06
2.86845300768e-05
0.0117975058325
-0.0117992812266
2.81989714228e-05
0.0128435379344
-0.000140922999064
-0.0128141437286
0.000122198241564
0.0118072170836
3.60984339932e-05
-0.000135789092834
0.0128544358429
-5.56890529693e-06
0.000127291031174
-0.0128544500859
0.000140348228221
-0.000144298679926
0.0128518857989
6.96282883724e-06
2.07380847494e-05
-5.2171812618e-06
-2.8681785741e-05
-0.0118208117675
4.51148712816e-05
0.0118432285387
-0.000141957750385
0.000132012512453
0.0128511490221
4.11664903636e-05
0.0118280976513
-7.21940592245e-05
0.000105912672109
-0.0118254759549
-5.37649936887e-05
-7.62638276585e-05
0.0118462740319
0.000107743085964
-0.00011477845295
0.0128533989877
9.34741928079e-05
0.0128577926242
4.5548945778e-06
-0.0128444492203
-5.10528725995e-05
-0.0118249719805
0.0118467846435
0.0128533895857
-0.0118173625951
-8.81390309547e-06
0.0127980308191
-8.18265722673e-05
-5.81912307699e-05
0.0116573964095
8.51973757454e-05
0.0116553697332
-3.71968873676e-05
-7.03934435673e-05
1.66326062856e-06
0.0127995276882
5.9974067637e-05
1.68167854475e-05
-9.66073836351e-05
0.0116262565079
0.000121226964722
0.0128103263524
-8.19415701056e-05
0.0116320393957
-7.05790802351e-05
-6.46743669195e-05
0.012807872848
-2.95962276568e-06
5.1115945866e-05
-0.0128223251385
5.63188419813e-05
0.0128318699998
-7.45586259225e-05
1.89141830998e-05
-0.000126387431107
0.000143683664136
1.70270311935e-05
-0.0116189559747
-0.000132456668893
0.0116063772637
-7.98256698726e-05
4.36796265474e-05
0.0128219038516
-0.000100997811792
-0.0127805806886
-2.17294583631e-06
-5.52169031329e-05
4.83522914289e-05
6.97172772743e-06
5.55871052928e-05
-3.41519554025e-05
0.0116611837499
0.0116515691264
-3.91163262276e-05
6.30428937744e-05
0.011624700409
-6.28286004344e-05
-1.3446694354e-05
0.0127928015588
0.0116343054229
0.0116277680992
8.98121988128e-05
-8.17655063484e-05
3.27129349007e-05
0.000119764967433
0.0116193472914
-0.000109306397385
-3.40080608611e-05
0.0128036367782
2.61133939401e-05
0.0128011660571
-1.9753386334e-05
3.11953180737e-05
-0.0116331881386
0.0116250888768
0.0128142735141
-0.000145826784865
-0.000149523377365
-0.000181739183355
-0.000361844528081
0.205157133298
-0.000149172426948
0.000247911741089
0.00015259132016
-4.05114455354e-05
-3.89927964528e-05
-4.49360186337e-05
-2.9566220542e-05
-0.000183863424885
0.0514037033516
1.89782035272e-05
-0.00748972976072
-0.000523080090001
1.89985085875e-05
3.52210185085e-05
4.06576982329e-05
0.00616382977819
-0.0185637353491
0.00416763272176
0.00396765667683
0.00413019086658
0.0122075325231
0.0243313877833
0.00417524766296
0.00951317011024
3.76927421198e-05
3.09833016016e-05
3.03366683475e-05
4.24904091417e-05
-2.40009945498e-05
-0.000477048696377
0.0513790187431
4.16285703582e-05
-6.32464561171e-05
-6.58909604561e-05
0.0118385984203
0.0513576167785
-5.34203976584e-05
-3.83875370267e-05
-4.09435594279e-05
-4.81989203593e-05
0.000126211915595
0.051395199338
-4.89998276278e-05
-5.47499225886e-05
-4.76704839791e-05
-4.94985291826e-05
-0.000111622824687
9.31147960057e-05
2.44743111998e-05
0.0115826222687
-0.000172773311997
0.000176780526498
-7.53565322536e-05
4.60768130157e-05
0.00014352467249
0.0116322452597
-0.000126947605851
0.0116377022988
-6.91722962656e-05
5.01384029242e-05
0.000179846281667
-0.0116336551583
-0.00016468347486
0.0514219685276
-3.22320612239e-05
-4.20283258529e-05
-3.5953804774e-05
-3.53403692864e-05
0.000130438099849
-9.0054295986e-05
7.82705654548e-05
-1.53509119931e-05
-1.23103285084e-05
-8.97594539158e-06
-1.63377650939e-05
5.70950613321e-05
-2.1766412991e-05
0.0514092654408
3.01673995624e-05
-4.02834465526e-05
3.80367578018e-05
0.000174858140849
0.0116323925197
-0.000167189344847
-5.13278601494e-06
1.35215116615e-05
0.000131336668467
-0.0116283174294
0.0116275605777
-0.000138548869244
-3.33643086343e-05
-4.13129571226e-05
-3.31975823117e-05
0.00458627696534
-0.0116785938735
-0.00114656566435
-0.0150438488985
-0.000387494080144
5.63831077416e-05
8.52183732304e-05
5.53121074774e-05
-0.00623525730977
-0.000411607180869
-0.0143271276345
4.23116029233e-05
7.71545442001e-05
4.7550788039e-05
0.00674629241194
-0.00728776529107
0.00162658525668
-0.000102558591801
-0.000555435371972
-0.00140948531572
0.00266935483963
-0.000137333795726
0.00158205137853
0.000862558695013
-0.0123839398643
3.04781924822e-05
2.81309474468e-05
2.62294046703e-05
0.00297633259291
-0.000239415936299
-0.00480515010348
-8.39177242307e-07
1.07301971669e-05
6.1256255306e-06
-0.00353619876227
-6.37919988131e-05
-0.00904735419913
0.00024182272208
-0.0128441225081
6.32261691598e-05
0.000119664045419
-0.000134967884331
0.0128338926884
-0.000118252231066
0.0128433344251
-5.66726135779e-05
0.011842161444
-3.79922845022e-05
-5.81480653283e-05
-7.35671312248e-05
0.0118423608364
-0.000135391664759
-3.232416824e-05
0.0118463208206
0.0128330730252
-3.97183497616e-05
-0.0128349120981
-3.6914628969e-05
2.78064109072e-05
0.0128432172366
0.0128388974732
4.78999013216e-05
-6.94399695314e-05
3.01512807246e-05
-0.000186313887734
0.000185684222387
0.0115721069797
2.91181489464e-05
0.0115973953425
-0.000157678429337
-6.07262000248e-05
0.0128451092751
3.44271761832e-05
-0.000177208021155
0.0115919988347
-0.0128293848961
-4.71205363873e-05
1.30237424799e-05
0.0128378617069
-2.23175751792e-05
0.0128172239417
1.64274294352e-05
4.40082148941e-05
0.0116233354723
0.000167385341237
5.64752264557e-05
0.011637626888
-0.000143743968275
0.0116216742501
0.0128283006069
1.0256802403e-05
0.0128465976616
-4.23061679114e-05
6.9059571194e-06
-2.23852936567e-05
-6.74782452885e-07
-0.012844091098
0.012842704547
-2.57797812528e-06
3.62544776191e-05
-0.0116193602944
0.0116189650597
0.00018631433511
0.000178973618644
6.09131833576e-05
-0.000158431481326
0.012847396373
-1.29762927739e-05
0.000186498817477
2.51773030564e-06
-0.0128484561097
-2.4933449674e-05
-6.2016255318e-06
0.0128451095193
2.2439801197e-06
3.51597538613e-07
0.0128420482703
-3.73060330941e-06
2.82666246488e-05
0.0116144279776
0.000181575570358
0.000164522383038
2.67997992155e-05
0.0116310262584
-0.000161628579912
-8.45649905846e-06
0.0116122774477
0.000167886072977
0.0128359445047
-8.73383799644e-06
0.0128473805739
-1.39238270024e-05
-1.29643345446e-05
9.22632208567e-06
2.72610773679e-05
-0.0128361481601
0.0128354949641
-2.54124243668e-05
4.63407690445e-06
-0.01160578408
0.000127368358003
0.0116042750066
0.00014982725639
1.50430764937e-05
-0.000151065145566
2.19132828157e-05
0.0128483244759
0.000148476883509
-1.44558534913e-05
-0.00046675429714
-0.049684122413
0.0494883675722
0.000542944749418
0.000102452686216
0.000109235184736
0.0001152836829
0.000101355945103
-0.0003083771159
-0.000611587536108
0.0500543219625
2.71440790425e-05
3.88549976309e-05
3.63556463797e-05
3.16186801684e-05
-6.8524872262e-05
-0.0500944956375
0.00058657840991
-0.00103338058879
-0.0500890721333
0.0501893923907
0.00088100877787
-3.56562339552e-05
1.04749845233e-06
-2.30639776395e-05
-1.22154612999e-05
0.000121936933787
-0.000776728818127
-6.6628847274e-05
-4.62486595547e-05
-6.20156632461e-05
-5.01245240082e-05
0.000202748542515
0.0503962851004
0.000718208102777
-0.0503154847582
-0.000126678778407
-0.00413042084761
0.000815815106222
0.00628342664818
0.00652102801634
-0.00908332635184
-0.000114825121381
-9.60665268392e-05
-8.9446298075e-05
-9.96933187022e-05
-0.0119448588657
0.0166960140102
0.00739681751427
-0.00766281513644
-9.66585012157e-05
-6.83728472459e-05
-5.79379786548e-05
-0.0041627418644
-3.55715584308e-05
-0.00638880387311
-0.00834116938521
-0.00357278730363
-2.87411124991e-05
-1.54914751182e-05
-1.31501787785e-05
0.014375918041
0.00402087235238
-2.67548181385e-05
-0.00803231522897
0.00270527638532
0.00221715852964
0.00531019834039
-0.00217109994476
-1.48292658936e-05
-2.63267608572e-06
1.49055502542e-05
5.1964498822e-05
-0.0011096300091
5.93009734728e-05
6.47542459801e-05
7.13016796346e-05
-0.00855456929013
-0.00231606335268
0.0002070907018
0.011525956319
-0.00210890100966
-0.022896298913
0.0151508011541
0.0152859068422
0.0144885233544
0.0150344240608
0.00524359692373
0.0372627088133
-0.045657037458
0.0088160147105
0.00473657265762
0.00931907974331
0.00593249285106
-0.0207784852429
0.0610721544269
0.0174083297627
-0.0248900033385
0.0129326376688
0.0132115332034
0.0101562537572
0.0105017916311
0.00469830317951
-0.0239300272959
0.00995938823199
0.00643367399029
0.00732283484021
0.00465710900951
0.0200560938347
0.0378738428837
0.00909959637491
0.00847514624404
0.00639900570206
-0.0066933043898
-0.0108825668156
0.00666171878693
0.00636511075722
0.00387017534499
0.00402646404234
0.00294590426227
0.0661276364235
-0.00904847519407
0.000126033764193
0.000150757787981
0.000182748457968
0.00017618999106
0.000160421147066
0.0494349818242
-0.000348398566994
-7.7128989465e-05
-0.0498055348859
0.0494644461388
0.000289890176582
0.000133200336602
0.000143985100588
0.000156290283522
0.000122806890124
-0.000345385749751
-0.049838970108
0.000222832273122
-0.000237561120845
-0.0117783362466
4.06094407452e-05
0.0117764850284
-2.41105096247e-05
0.0118007747427
5.25562813982e-05
0.000166479865652
-0.000158304739935
-5.8155952363e-05
-0.0118032327366
0.000161720236028
0.000141093684468
0.000158028730711
0.000148466174891
-0.000296866870058
0.0123070202441
0.0122264948708
0.0122600924982
0.0123090775343
-0.000416778356822
6.34285608054e-05
0.000131514087778
-0.000149850821454
-6.50270927204e-05
0.0118204136699
0.000387562724482
9.38866467496e-05
0.000118541618079
9.85735557321e-05
0.000108861593584
-0.000286261961152
-0.0499153265967
0.0498954451881
7.09342665161e-05
7.24632776859e-05
8.38000412552e-05
6.34638753851e-05
-0.000257490759245
-0.0500028094011
0.00046187273196
0.0118141551937
0.000149642667921
-0.000134952865419
-0.0118108407414
3.45020505673e-05
0.0118492840964
7.12769340167e-05
-6.72024744564e-05
-1.72335490017e-06
-0.0118398772245
-1.16520865799e-05
0.000821579528808
0.000107070291131
0.000117847914925
0.000119015346481
9.92460853934e-05
0.0493014977764
-0.000213192796677
-0.000154046281637
-0.000211104721683
-0.000173016923374
-9.67697392383e-05
-7.59848003452e-05
-8.3201940333e-05
-7.02603282342e-05
0.0497492258994
7.35950076127e-05
6.38323762949e-05
7.08552937393e-05
6.30876571085e-05
-0.000193233718433
0.0497812317417
0.000805099538983
6.77091456582e-05
4.3791056454e-05
5.6511772668e-05
5.78969845858e-05
-0.000241150911066
-0.000125142339724
0.0118297417294
4.6500205369e-05
0.0118980545445
0.000100462058636
-0.000114968857901
-0.0118770358789
0.000105471246249
-0.000111992599474
-4.2804199701e-07
5.20850023449e-05
-6.2868399483e-05
-1.43909731168e-05
0.0118748275268
0.0119544648104
4.16103673332e-05
3.01091117209e-05
-2.99323460746e-05
-6.61639449782e-05
-0.0119300805118
0.0499027770734
2.92317034003e-05
3.51006010187e-05
5.08295280962e-05
1.2641826744e-05
-0.00113390694926
-0.00014837302208
0.00122953473133
3.6740083125e-05
-1.80675462902e-05
9.27574759303e-06
6.76477497469e-06
0.0504489262073
-0.000208594849721
-0.00160146310325
-0.000114266514922
0.0119173482101
0.0001314118493
-0.00013617283555
7.71641659594e-05
-7.75027811899e-05
-0.0119627755899
0.000194498717572
0.0119786611173
-0.000210016776291
5.92523139296e-05
3.64066106276e-05
-2.59204442402e-05
-8.94394311448e-05
0.0119742187425
9.06166295001e-05
5.27437990241e-06
4.62754940516e-05
-0.000140844962654
-0.0119972915998
0.0119959737852
0.000723314109145
2.10005110949e-05
1.48035921376e-05
3.01222942588e-05
5.27086113613e-06
-2.40508839694e-05
0.050238811523
5.3349069879e-06
-1.95797084269e-05
-7.598196556e-06
-6.10441948228e-06
2.99297444407e-05
-0.0501973362887
0.000679850939096
-4.94120377924e-05
0.0118753989321
-9.67131935738e-06
-0.0118523356583
0.0119608087269
1.5972733402e-05
-2.15194367955e-05
-0.0119339023373
2.02885165035e-05
0.0119708662586
-4.50794277642e-05
2.67123296685e-05
8.68180264403e-06
-0.0119476573616
-1.35203895311e-05
0.00102578398027
-4.24380223052e-05
-5.8013179748e-05
-2.96677613132e-05
-6.85398199826e-05
0.0504636501183
0.000128187665579
0.0503373715162
-4.33057963961e-05
-3.40723617307e-05
-2.34238310543e-05
-5.12993720357e-05
0.000157903942414
-4.98940074433e-05
-7.9655056529e-05
-5.77666146629e-05
-7.46548663634e-05
0.0505357192327
0.000869698558473
0.000219757213052
-1.55130443232e-05
0.0119785705106
3.0278967775e-05
-1.00577980985e-05
6.85969376314e-05
-0.0119953926851
4.40612466287e-05
0.0119833833621
-9.11000545476e-06
-4.21976305009e-05
3.60274232656e-05
3.12432741941e-06
0.011983030926
-1.91818138249e-05
-7.68403333977e-05
9.76252693364e-05
1.28097442961e-05
-0.01198295279
0.0119685181982
4.39934497495e-05
0.0119806292877
-1.33070469432e-05
-0.0119684314773
9.02700532808e-05
-0.0119763170718
0.0119606556693
-7.01947691783e-05
-2.35604929895e-05
0.000937422784477
-0.000217197300357
-0.000202926817227
-0.000190940325358
0.00342333703929
0.00218902837053
0.00478414538008
-0.0105016312976
0.00185048408728
0.00310143786839
-0.000195773422222
-0.00015973431141
-0.000184256685839
0.00621647001808
-0.00952491907376
-0.0107960331956
-0.00016122967095
-0.000126602814829
-0.000152637140562
-0.000537540891738
0.00962804555002
-0.00961666415205
-0.00424849169821
0.0115561887248
0.00212963756371
0.0153811829587
0.000545791678599
-0.00193234437475
0.0107253983443
-0.00368003592561
-0.00788020208945
-0.00732619578576
0.0146553115801
0.000141512464572
-0.00306475401901
0.0106370379157
0.000436587521194
-0.0071970790089
0.00968296801778
0.00396239673671
-0.00875886195007
-0.00121773183251
0.00606438957118
0.00910355974352
0.000629876538634
-0.00810038383065
0.00970651628919
-0.00635931774304
-0.00298406979229
0.00705647399667
0.00433126063191
-0.000147135339796
-0.000125032981045
-0.000123825534578
-0.00812548561654
0.00825796226527
-0.00745307935744
-9.59372442831e-05
-7.08113322518e-05
-0.000102103250929
0.01386265488
-0.00603545228404
0.00429733881761
0.00770206616397
-0.00837458633459
-0.000109935603516
-7.24356965048e-05
-8.82051465055e-05
-0.00460493818633
-0.000830388063621
-0.00624087947395
-7.82918072888e-05
-4.71969802073e-05
-6.96983931326e-05
-0.00579757453213
0.00511563478864
0.00775980088575
-5.88223982426e-05
-4.36639508533e-05
-7.48885356587e-05
-0.00452039717296
-0.00817650935837
0.00929712687776
-0.00611840364471
0.00334680800163
-0.00206112478531
-0.00919248904958
0.00704551728487
0.0037030132869
-0.00717705317152
0.00593709024409
-0.00512391469252
-7.77769145847e-05
-4.26200237849e-05
-5.33437792615e-05
0.0190810053798
-0.0029918972764
0.00954233102844
-0.00488992767536
-6.30761455633e-05
-2.09491179559e-05
-5.24291537539e-05
-0.00282938171371
0.00687504203724
-3.41775206566e-05
-1.58633426513e-05
-4.27117267981e-05
0.0115318009718
0.00526809841494
-0.00771599656733
-0.00366207480353
0.00387811235018
0.00649839168621
-0.00809303394129
-0.00314219860956
0.0078152638324
0.00497046106169
-0.00279926068981
-2.62814922723e-05
3.81869940896e-06
-9.3882917957e-06
-0.000528217368791
-0.00847318352707
1.94155620656e-05
3.52660303158e-05
1.18039503086e-05
0.0130268790715
0.00083394107418
0.00379433051403
-0.000467577055649
-0.0069467056707
-0.00575847818509
0.00803388657469
0.00830152808674
-0.00419580550922
-0.00398873650488
0.00491143170835
-0.000728042057687
-5.46303777652e-06
3.52321594813e-05
2.0197268466e-05
0.00484754329647
-0.00431861241136
-0.000104539480957
2.31347739459e-05
5.35964750246e-05
3.19363460195e-05
5.97561622491e-05
5.47214397371e-05
6.51626103719e-05
4.33664072579e-05
-0.00134550024771
0.00163861933785
0.0104265762652
-0.0063198048766
-0.0035094416226
0.0139342457693
0.0109107397687
-0.00501237400032
0.0147744680018
-0.00436271834779
0.0124430436544
0.000196348123482
-6.63707702255e-06
9.37992442584e-06
-0.0124913251009
1.74966922863e-05
-0.0124276541563
0.0123787893066
-2.34258521423e-05
4.16361580562e-05
-0.000220082564928
-3.02469492268e-05
-0.0117867466487
-0.000223268324745
-0.0117812290123
6.1552589459e-05
0.0117806379691
1.89785294247e-05
0.0123945689219
5.96084814031e-05
-0.0117937702982
-1.3315020397e-05
-0.0124806659996
0.0124574487236
1.86105834752e-05
0.000163308646618
-0.0124967678532
-2.92876110507e-05
-0.0124695207495
0.0124324145877
5.22438258582e-05
-0.000187771208205
-0.0117928366848
0.0117882344281
-0.000139503561953
-5.12809938471e-05
4.37171786084e-05
-0.0118157552039
0.0124157605922
3.62889169196e-05
-0.012503923281
-0.0118053605973
-0.0123806697169
7.82179366182e-05
0.000181390951289
-6.54359681189e-05
0.0123482385872
-4.8883879998e-05
0.0124032879485
6.93805296996e-05
-0.00018536741526
0.0118120905907
-6.49542329176e-05
-0.000150819387329
-7.70762888105e-05
8.19959456891e-05
0.0118399024942
-4.09541476251e-05
9.952732099e-05
0.0123799186097
-6.74771555026e-05
0.0118312285154
-4.5598748e-05
0.0124989844998
0.00010623718821
5.77904528382e-05
-0.0125234862508
-0.012484940738
6.27760128135e-05
0.0124579859844
-0.000118527733572
2.53474944353e-05
-0.0118209016436
-0.00011376151702
-0.0118265125199
1.91498107034e-05
0.0118306895578
-0.0125141660539
7.8331047976e-05
0.012478492435
1.04903580139e-05
-0.011829029292
0.0125147352582
6.74701057639e-05
8.11069006171e-05
-0.0125345528784
-8.75869387872e-05
-0.0125302295157
0.0125226258411
0.000100569187632
-8.76793130102e-05
-0.0118273313278
0.0118366242105
-6.2439280811e-05
7.42619334988e-06
-0.0118373786866
-1.81759649775e-05
0.0125017204739
-0.0125443285671
8.26204974353e-05
-0.0118302262768
-0.000107940443166
-0.0124595937358
9.81472773179e-05
0.0124451984072
0.000126690804006
0.0124353660845
7.63413460402e-05
-0.000124127875625
6.67192725856e-05
0.0118543585967
-0.00010267957738
0.0118495777693
3.43309120006e-05
0.0124183648578
9.41268597799e-05
0.0118736676479
5.09318952704e-05
-0.000135773579187
0.0124357083496
9.80728529389e-05
0.000154510218566
-0.0123994420806
0.00017111399752
0.0123928894605
-0.000161696262708
-0.000122485478114
8.72199517206e-05
-9.70237574847e-05
-8.15846941732e-05
-0.0118961311764
9.43411370625e-05
0.0119167679858
-0.000120258935134
0.000189270574661
0.012435198866
7.48054586149e-05
-0.0124856425334
0.000129975175147
7.98584717969e-05
0.012476266654
-0.000101998632975
0.0125082847634
0.000117429995966
-7.92169896034e-05
0.0118572665377
-5.82377119063e-05
-3.10604743892e-05
0.0119028380861
1.39103627415e-05
0.0125017754373
0.00014142277075
0.0118873476169
0.0124705725382
0.00015497486352
7.29243689867e-05
-0.000186292570998
-0.012498428321
0.0125050794733
0.000193539110132
-5.58480571716e-05
-0.0119103711049
0.0119352690447
-4.99108631949e-05
-4.93251243574e-05
2.83158866825e-05
0.0124742889952
0.000166387462397
-0.000251780354228
-0.0124386747668
6.79700711742e-05
0.0124542097214
0.000259255078767
-9.09345511324e-05
0.0123918957343
0.000207290470236
-0.000118934292899
-0.000201633651743
-0.000107251652886
0.000153253753033
0.0119340618242
-0.000159326351716
-8.29861634457e-05
0.0119394101768
0.00012352434498
0.0124078109101
-0.00011922798329
-0.000255808095945
0.000221343787869
-0.000100517766851
0.0119556386415
0.00014707165209
-0.000290835697287
6.67824889565e-05
0.0125012632825
0.000295995634435
-0.000119018824433
-0.0124570659511
0.000327385820475
0.01253049641
-0.000343019237668
-0.000135369351531
-0.00010065117652
0.000177592352572
-0.000183551844709
-0.0119775565339
-4.32175996652e-05
0.000185356710333
0.0119872482456
-0.000295694839446
-0.000145084859879
0.000169124691404
0.000326977817883
0.0125612453027
-0.000102850498725
-0.0124790851779
0.000242914967407
2.66964717712e-05
0.0124978966914
-0.000215369986173
0.0125102450798
0.000219404252106
-5.19966101789e-05
0.0119580132408
-4.49377023847e-08
-0.000108985124432
0.0119832649651
7.89688997917e-05
0.0125263744098
0.000239374889474
0.0119698900667
0.000270211267094
2.36087564573e-05
0.0125367831437
-0.0125581323124
-0.000291131589518
0.000276875538029
0.0126005277685
-0.011990501373
6.78844078633e-06
0.011993520037
1.30846526642e-05
-0.00012900121404
8.57963659073e-05
0.000260800872234
0.0125861265532
-0.000136229034541
-0.0125488777619
2.76082722312e-05
0.0125466881474
0.00013796147042
0.012529532455
0.000116997842447
-0.0125395331352
-4.47759167623e-05
-2.77086608005e-08
0.011905373386
-3.33050964782e-05
0.0118866108264
-0.0118596896985
-1.88387066498e-05
0.0125263341067
-0.0125555387034
0.000122061771201
0.0119155943666
-1.45135544174e-05
-0.000158888903714
0.0125461923106
2.24838910039e-05
0.000157939031669
-0.0125247588972
0.000178960787689
0.0125326388319
-3.916032273e-05
1.27180577246e-05
-2.34965204607e-06
-0.0119441798417
3.94957174527e-07
0.0119702919671
0.000175557926425
0.0125524328707
-2.72192685701e-06
0.0125635782749
0.00015309471037
1.0071618518e-05
-0.0125634833721
-0.000165657739546
-0.0125756204286
0.0125817585369
0.000166672624295
3.22245727634e-06
-0.0119449915007
0.0119702363968
8.52228781549e-06
9.30472951463e-06
-0.0119189544078