/*--------------------------------*- C++ -*----------------------------------*\
| =========                 |                                                 |
| \\      /  F ield         | OpenFOAM: The Open Source CFD Toolbox           |
|  \\    /   O peration     | Version:  v1906                                 |
|   \\  /    A nd           | Web:      www.OpenFOAM.com                      |
|    \\/     M anipulation  |                                                 |
\*---------------------------------------------------------------------------*/
FoamFile
{
    version     2.0;
    format      ascii;
    class       surfaceScalarField;
    location    "9.7";
    object      alphaPhi0.water;
}
// * * * * * * * * * * * * * * * * * * * * * * * * * * * * * * * * * * * * * //

dimensions      [0 3 -1 0 0 0 0];
oriented        oriented;


internalField   nonuniform List<scalar> 
92311
(
0.203971956005
5.34484511136e-06
-0.00119471088167
-0.203825518006
0.00104214396487
-4.27314815898e-05
0.204054115028
-0.000842367536615
0.000803017524836
0.203936428059
8.66734842513e-05
-0.00123169416013
-0.203848151422
0.00106153964457
-0.00010381546504
0.204067972313
-0.000785632675163
0.000715253150377
0.203815205291
1.8167693751e-05
-1.22076988438e-05
-0.00107653531213
-0.203650172553
0.00101512812581
-5.35438413149e-07
-2.23626490268e-05
-6.0899246199e-05
-9.96206941858e-05
-0.000156789955216
0.204146277932
-0.00057355754262
0.000538198955381
-8.22124479625e-05
0.0510229529594
2.59476712517e-05
1.70288984916e-05
2.57380255511e-05
1.50679945975e-05
-0.000333021807143
-0.0510620217037
0.000306531714513
-0.0510504906642
0.0511331433258
-3.19836080064e-05
-1.80869678871e-05
-1.93365847587e-05
-2.71185989514e-05
-0.000176590138651
0.000129588368604
-2.76552055005e-05
0.000329036354563
-2.03680405806e-05
-1.75801473585e-05
-1.38632590358e-05
-0.000173148484877
-0.000282906447281
-1.94457168549e-06
0.000266272427457
-0.000496074791366
0.000472257444353
7.87755496678e-07
0.000170079318776
5.96848936719e-06
8.08800175423e-06
7.55820350169e-06
8.96505212244e-06
-0.000182440034072
-1.29482716024e-26
9.54817472688e-08
1.99684961506e-08
3.22636095219e-08
-3.14921022608e-07
6.17882804945e-07
8.49069715832e-08
1.11979605228e-07
1.24951285032e-05
-1.48641392676e-05
-1.23867780167e-05
9.214709244e-06
-0.00024927969966
0.000215105171816
-4.3940190959e-05
0.0104287647472
-3.82590590908e-07
2.72692836793e-06
-0.0104335140517
0.0103811068392
-3.76512238025e-06
1.65427656621e-05
-0.0104075556215
4.71909726771e-05
-3.66144599163e-05
4.12701044557e-05
-2.6710610186e-05
0.0511904580402
-2.0112735568e-05
-2.82123477506e-05
-2.49840051219e-05
-9.81920938197e-05
-5.17393739429e-05
0.0511028903691
-5.9684387728e-05
-4.96605264046e-05
-4.91105625765e-05
-0.0510313861062
2.31611724756e-05
-1.03608296079e-05
2.56208809265e-05
0.0103589110557
5.81200776557e-05
-4.9739532407e-05
-1.82588092913e-05
0.0127758250625
3.16136905117e-06
-1.62422767276e-05
-0.012770915356
0.0127679407555
-3.3517759038e-05
-4.54218873767e-05
-0.0127582026236
-1.90950279906e-05
0.204280609334
-0.0020371541952
0.00179970031234
-0.204024180215
0.204113940248
-1.84046721893e-05
-0.000342233432394
0.000301515185847
-2.81094508372e-05
0.20420930019
-0.000202165068999
0.000134814196842
0.000170034584591
0.20432615166
-0.0021117003469
0.00183328017921
-0.204237157312
0.204218452107
-5.59266638746e-05
-0.000448406024129
0.000335804256234
1.0619926162e-05
0.204314150817
-0.000237815569046
0.000103575765791
0.000175705959039
0.000163976861281
0.000146624406716
-0.00202305103816
0.204240370803
0.00172774834558
-0.204430891799
0.000169520928664
-5.32084463202e-05
-4.24387908908e-05
-0.000121125272541
-0.00010300657527
0.20447785529
-0.000233605747852
0.000165809487815
0.0512161171751
6.72107446897e-05
6.98073121184e-05
6.60130212443e-05
7.07840402225e-05
-0.000538853237279
-0.0512807369963
0.000505177544899
0.0511980885342
-4.45589263278e-06
-1.17721960708e-05
-2.24521016614e-06
2.77049700438e-06
1.28029911892e-05
-5.80104695477e-05
0.000400078631304
6.806265698e-07
-0.000682552169409
3.10044507895e-06
5.52949689803e-06
6.28024787782e-08
2.81618186794e-06
-0.000245372780021
0
0
0
1.36337258911e-29
-2.07787138681e-31
0
0
0
4.16798551441e-09
3.55296276114e-09
0
0
1.61799322052e-28
0
-7.72094827555e-09
0.000424577239097
5.25009318076e-05
4.2391785896e-05
5.03863232219e-05
4.38792756497e-05
0.0512102614201
-0.000443988471472
5.49826493299e-05
4.59729877135e-05
5.04200843827e-05
4.17431219169e-05
0.0511389507078
0.000390306639247
-0.0511511315406
0.000103796232078
-8.41991378483e-05
0.0103165571328
2.36299431316e-05
-5.27823762025e-05
-0.0103501119903
4.88160172938e-05
-3.96930044435e-05
-0.0102901659281
3.01387312283e-05
-5.28195770105e-05
0.0102749009538
6.47094964717e-05
0.0127498408768
-0.000101139914566
9.90563361584e-05
-0.0127578567919
-5.14433874187e-05
8.38158758043e-06
2.32521835986e-05
1.91283702829e-05
1.308897234e-05
0.0511787958631
-3.5663822398e-05
0.0511717269903
-3.90779533082e-05
-4.42630836816e-05
-4.83900181318e-05
-2.59975237082e-05
-3.67218798819e-05
-3.72942953082e-05
-3.01158677125e-05
-1.93496364739e-05
-8.22516605843e-06
0.0511839167469
-7.17908050342e-05
-2.7018936141e-05
1.3598471571e-05
2.81621742708e-07
0.0127772497185
6.87127469115e-06
-5.68743471859e-05
-0.010268044856
3.43472092549e-05
0.0102632186285
1.95825383299e-06
-4.26998668314e-05
-2.62757422733e-05
0.0127714213378
-0.0127675174354
-3.62812851834e-05
0.0127699558317
4.76147569068e-05
-5.07100015175e-05
0.000155542809784
-6.72031539466e-07
3.58375370893e-06
-6.29485659521e-07
-0.00014958074242
0.000355892731692
-7.5787685786e-07
4.73002791495e-06
1.34669612111e-05
1.42946797176e-05
1.40814612192e-05
1.5318688664e-05
-2.87803200417e-05
0.000597477540223
-0.000218892519847
-2.47944144694e-06
-6.05797639549e-06
5.54035677285e-06
3.39229169625e-06
5.31957863274e-06
-4.73044555566e-06
-9.75493962496e-07
-5.73768935702e-08
1.03120842441e-05
9.86788050805e-06
1.05171020903e-05
-0.000138582814733
0.000450206106037
-1.13749126186e-06
3.91944996954e-06
4.46859311833e-06
7.32124683031e-05
0.0127351113459
-8.11205658835e-05
-0.0127454495403
-0.0127287364969
2.55392482119e-05
-6.96706322197e-05
0.0127241535462
6.51701845477e-05
1.34163253769e-05
-2.69498369119e-05
0.0104133472965
-8.27612397452e-06
-4.00145500127e-05
0.0104776864284
-0.0104765035617
7.3568689891e-06
-0.0127393005142
6.92318412851e-05
0.0104603057439
2.72417459998e-05
0.0127298628084
-7.67697238281e-05
0.0127234900217
1.65818092253e-05
-5.52904814371e-05
5.11764039257e-05
4.52799245504e-05
-0.0127310909955
0.0127380031031
-5.05458106753e-05
3.1065285388e-05
-1.51050265116e-05
-2.26620319773e-05
1.41084733599e-05
-0.0104492883817
0.0104190409998
6.08247045257e-05
0.0127269085885
4.33233038008e-05
4.3409408432e-05
-6.2938615935e-05
-0.012743035089
-4.03271759246e-05
-1.49140234471e-05
0.0127597675529
6.91052090774e-06
3.25770873008e-05
0.0127541025434
-4.08484425214e-05
6.71939587922e-05
3.03279033822e-05
0.0103329242782
-5.95705476089e-05
2.9263464642e-05
0.0103935144134
6.60946775019e-05
2.65586514094e-05
0.0103609150699
7.7616611956e-05
0.0127711303484
-2.84001837071e-05
-9.61444709385e-07
-0.0127804706996
0.012779329089
-1.47337272496e-05
6.53406405772e-05
-0.0103003378585
0.0102751508653
-4.34890381655e-05
-0.0103305697327
8.41427006759e-05
0.0103062105949
-3.09946129632e-05
-6.87156149911e-06
-1.19251986272e-06
6.6588130157e-05
1.94290273725e-05
-5.12332810764e-05
8.16690986422e-05
-2.16085088089e-05
-6.48982913888e-05
-0.0127408949685
0.0127518396384
-3.80896956703e-05
0.000105122814697
-0.010371138072
0.0103384563421
-0.0104159569717
0.0103827132797
0.000116295998242
-9.01022333573e-06
-5.62311643775e-05
-0.012742902687
5.99874882166e-05
-0.000105091430571
-0.0104432182041
0.000116034044228
-0.012722402849
-1.54582272808e-05
-0.0104061625469
-1.25094775114e-06
-8.42406033247e-05
-5.01083797563e-05
-4.45468602055e-05
-4.93137978916e-05
-6.32694802065e-05
0.000184341204983
3.82550813559e-06
0.00017801927275
-1.58089829517e-06
1.00199257497e-07
2.71532077442e-06
-1.82828309268e-07
-0.000239068216401
-1.58743511865e-06
-8.89017602515e-05
-0.00010019170421
-8.86759790212e-05
-4.4785828088e-06
8.22672893745e-05
0.000573037507439
-1.27454256969e-06
-6.09146807199e-05
-5.14643852924e-05
-6.0675042589e-05
-6.87052446235e-05
8.47400538776e-05
1.6349249814e-07
-8.956419802e-07
1.65813963622e-07
1.54893873103e-06
-8.80841870819e-07
1.79759245751e-07
3.62372330011e-06
-0.000214304700165
8.28364750833e-06
1.2456011399e-05
1.08738815749e-05
5.39529009559e-06
0.000488962428402
-7.94794259251e-07
-6.73077855064e-06
1.16861527285e-06
-5.16067861603e-06
3.37278713828e-07
3.05718387386e-06
-0.000214481101311
7.81401631336e-06
7.58393670515e-06
1.43153256263e-06
2.1880738237e-06
-0.000339690836784
0.000261001615077
-5.11215546461e-08
-5.40735558365e-06
4.76599237617e-07
-1.57922853544e-07
-8.00806835353e-06
2.16156434663e-06
2.53053596797e-06
-0.000736020272622
-0.000171243525086
-4.42742983521e-06
6.28849236484e-07
-0.000110361350423
-0.0127717372918
7.17675389139e-05
0.0127630187181
0.000113314516969
0.0127840036027
0.000119488149055
-0.00011690405107
-0.0128029232339
-7.18007639677e-05
2.58562945855e-05
0.010300730443
-5.83672431947e-05
-8.67069254606e-05
0.0103352643915
-0.0103659920288
-3.68157706029e-07
0.0127745291759
-0.000107781327284
-0.0127920504455
0.000121965734345
0.0103187195594
-3.82578929653e-06
-0.000103322024694
0.0127565234952
5.43762256573e-05
0.000107413460993
-0.0127681317339
9.6445829455e-05
-9.1192200262e-05
0.0127652542889
-5.21536837827e-05
2.73203552357e-05
-5.28432968918e-05
-4.18761029121e-05
-0.0103107328257
7.38958375682e-06
0.0102958779202
-9.90773157725e-05
0.000101798488958
0.0127528567544
2.34163087413e-06
0.0103935130266
1.59432803337e-05
-2.48543195791e-05
-0.0103916228001
-5.08390399793e-05
7.6981300919e-06
0.0103848151201
-1.34098053886e-05
-9.59175526866e-05
0.0127455759757
9.5109805388e-05
0.012754075757
6.38235618812e-05
-0.0127614907302
-5.13698866908e-05
-0.0103488816684
0.0103404605811
0.0127501671422
-0.010353582259
1.94405705681e-05
0.0127770574867
-5.86149013889e-06
6.27589998334e-05
0.0102640466719
-3.4121212081e-05
0.0102817607583
8.81160402042e-05
1.57442183524e-05
2.89400281518e-05
0.0127660953151
-3.0906497852e-05
-5.08566213787e-05
5.07860706696e-05
0.0102679686737
-1.67638093842e-05
0.0127623647102
-7.81204157397e-06
0.0102723208281
8.41766199383e-05
1.28228444099e-05
0.0127560449931
3.6527698705e-05
-3.14069260559e-05
-0.0127505953565
-6.15565520157e-06
0.0127424006177
-2.0274578861e-05
-5.76211927484e-05
4.27566414781e-05
-9.89920306794e-06
-3.98431312961e-05
-0.010271700159
7.48150114477e-05
0.0102692679599
-1.43965949354e-05
-2.73992950762e-05
0.0127497474717
8.13204609995e-05
-0.0127637488676
-4.36853699456e-05
4.9179015902e-05
-5.29319641977e-05
-5.57931389857e-05
-4.63933683018e-05
0.000102831724492
0.010313416389
0.01035351593
0.000112140806796
-0.0001002178763
0.0103297828961
0.000108789989173
-2.75367301546e-06
0.0127665159852
0.0103017685314
0.0103050765486
-9.24326299434e-05
0.000101153825475
2.55525400388e-05
-8.90239773943e-05
0.0102842338165
0.000101912639674
4.24244793042e-05
0.0127649164463
-4.19693544917e-05
0.012763374236
-3.42272183379e-07
-1.15023148432e-05
-0.0102953537711
0.0102905330632
0.0127580494639
-1.39231256245e-05
-5.01466578125e-05
-5.91123381113e-06
-7.23581632736e-05
0.204614865964
-9.34061921076e-06
2.51387971137e-05
-6.22168394205e-05
1.35941478541e-05
2.03411187629e-05
1.56886096995e-05
1.31817399028e-05
-8.80431741692e-06
0.0511730355298
1.70596967022e-06
-6.04773699687e-06
-9.38705902129e-09
4.03596476388e-06
3.41797899629e-06
3.44712890595e-06
-5.87689489867e-05
-0.000691012883251
0
0
0
-2.71499837862e-28
-2.34780682302e-29
0
-8.11358866795e-30
2.16210620836e-05
3.78121618611e-05
3.38834934158e-05
2.57718236477e-05
-7.48755024505e-05
-0.000359044081531
0.0511207550587
3.07431136319e-05
-4.70191029753e-05
-2.02638527509e-06
0.0103849387639
0.0511808622352
3.31678341554e-06
-2.42486255785e-05
-3.54857119357e-06
-1.38754352065e-05
-7.11183490962e-05
0.0511475719986
9.77866734434e-06
7.65274691625e-06
1.37191707317e-05
-6.95434995874e-06
5.12118132446e-05
-4.81953056395e-05
-4.33934681731e-05
0.0102520369909
2.76274927265e-05
1.20526517329e-05
-5.37673245563e-06
2.28674795922e-05
-8.512078942e-05
0.0102621623034
9.71422183946e-05
0.0102272979431
-9.07460575267e-07
-1.31097214449e-05
-5.35795358697e-05
-0.0102280064182
6.96912337883e-05
0.0511178511485
2.13470370002e-06
4.67208503202e-06
9.55037305412e-06
3.14927396974e-06
8.66765015999e-07
4.47231772154e-05
-3.5504525192e-05
-4.49852060596e-06
-7.4491965314e-06
-9.92280145505e-06
-2.53997951684e-06
2.48374708806e-05
5.45741602145e-05
0.0510927937259
-2.99199934804e-05
-1.66595126803e-06
-8.84015829285e-06
-3.86584526978e-05
0.0102258249986
5.59206343277e-05
-4.27089924952e-06
8.70392667304e-06
1.24138168491e-05
-0.010222261449
0.0102086163573
3.09327336241e-06
-4.0071575966e-05
-2.67013415238e-05
-3.530031705e-05
-1.98560285888e-06
0.000243735532961
-1.31401239023e-06
-0.000396141105286
1.49812363797e-06
7.93284257533e-07
3.99790194206e-06
1.22907053485e-06
7.97265930026e-06
1.92506225337e-06
-0.000392480848189
2.13982438773e-06
2.07768787099e-06
2.31668867763e-06
0.000121033560227
-0.000172433825675
1.19644093473e-07
7.64793395091e-07
-2.84019474766e-06
-2.67471117646e-06
-1.94683617025e-08
3.84754646622e-07
-6.16892509821e-07
5.5867742914e-08
-0.000430513618276
2.43687164722e-06
2.13098782356e-06
4.44454755499e-06
0.000139542149455
3.77394257338e-06
-0.000180882524479
6.34423281526e-06
3.48128489111e-06
5.7395600033e-06
5.52340148794e-05
3.83971379515e-06
-0.000476210422113
-9.23337763944e-05
-0.0127425291853
3.03922814629e-05
7.55353312099e-05
-8.05496203157e-05
0.0127384372705
-8.17872887153e-05
0.0127368403689
-4.7293770757e-05
0.0103348941588
-1.43469925789e-05
-8.14390147386e-06
-2.92145472229e-05
0.0103690574228
-8.77933493112e-05
-1.8419778532e-05
0.0103199877869
0.0127318402435
-2.70952962153e-06
-0.0127471764504
3.34498075474e-05
-1.53240216266e-05
0.0127436561047
0.0127404354902
-6.38620407368e-07
-2.18601721286e-05
-3.44438170866e-05
1.8799510974e-05
2.47763684013e-05
0.010234139207
-3.36782001681e-05
0.0102538667942
7.06378634318e-05
-2.14021751833e-05
0.0127388573784
-1.97871109911e-05
6.08665701239e-05
0.0102376745798
-0.0127534731322
1.20049319237e-05
-1.88502062499e-05
0.0127471114366
2.82833461018e-05
0.0127593237069
-2.45240844189e-05
-8.62610703001e-06
0.0102746426098
-7.9370240108e-05
1.19525455718e-05
0.0102428398639
9.39722207052e-05
0.0102587273728
0.012754029192
-1.63298958352e-05
0.0127405586535
1.45158852675e-05
-1.24088820822e-05
1.30666271217e-05
6.3019861916e-06
-0.012746935001
0.0127385961293
-3.64410048695e-06
-1.5967819366e-05
-0.0102440683545
0.0102317911218
-2.81838908897e-05
-6.85010586991e-05
1.97545533245e-06
8.28236922285e-05
0.0127340299075
1.0095425793e-05
-4.44484835994e-05
-1.10042243501e-05
-0.0127287203267
5.59297148451e-07
-3.56279182991e-06
0.0127240449121
9.98405540931e-06
4.98547577394e-06
0.0127300747617
-6.50588978143e-07
-9.91740838331e-06
0.010219004213
-1.32492473399e-05
-2.10130739519e-05
-4.63221507811e-06
0.0102247887101
3.77123828247e-05
9.93074888356e-06
0.0102065471261
3.65296362028e-06
0.0127243373926
8.5193913605e-07
0.012719984216
-7.76506982785e-06
-4.09805670253e-06
1.21574939437e-05
7.36591140405e-06
-0.0127187086346
0.0127173500602
-3.82212876615e-06
1.69191976166e-05
-0.0101948939877
3.06582388026e-05
0.0101771208388
-4.94585660863e-06
-1.40736951752e-06
2.07277549184e-05
1.52837268156e-05
0.0127198732589
1.55564998319e-05
-1.77970514381e-06
-0.000492647512543
-0.0492262230829
0.0492043217875
0.000588116087111
-6.80445024603e-05
-5.91519131172e-05
-6.31806719687e-05
-6.14001177053e-05
0.000178547067684
-0.000607501431325
0.0497998689949
-0.000172333389829
-0.000134563281467
-0.000150043515587
-0.00014791847207
0.000431534352413
-0.049650710858
0.000631826532956
-0.00110952637111
-0.0501453915253
0.0506217268535
0.00103111237565
-0.000276179266719
-0.000223620405367
-0.000276758229446
-0.000234597436357
0.000613499762104
-0.00091042316758
-0.00022325677398
-0.000201930804017
-0.00022502638151
-0.000202992227818
0.000556237700389
0.0509236914655
0.000779550925129
-0.0504957691364
-1.79611417628e-05
-6.61429544853e-05
-0.000368211478506
0.000303502373597
7.31607128412e-05
2.07686449681e-06
-1.35028328102e-05
-1.80005055766e-05
-7.24513775945e-06
1.97664956115e-05
-3.78511817028e-05
-0.00042162643717
0.000169514872505
9.09399764802e-06
3.53710514258e-05
2.63758426846e-05
4.65677569642e-05
-7.20420271445e-05
6.12732059919e-06
-4.66846381277e-05
-0.000320962914584
6.93804480721e-06
1.06288646239e-05
1.04002942816e-05
1.6622934033e-05
6.20250611192e-05
1.50937387256e-05
3.12370619264e-05
-0.000256850887958
0.00057295707678
-0.00076271967341
0.000145723100518
6.25974499215e-06
4.3550573216e-05
3.50982445723e-05
4.22376473445e-05
2.82242012574e-05
2.90437477366e-05
3.28455784494e-05
2.83049390995e-05
3.25738492097e-05
-0.000899793444049
-0.000158031394768
5.21199728833e-06
0.00077727452419
7.08093594158e-09
-1.72565917209e-09
-2.36653685926e-10
-3.27246167264e-08
-7.00382593873e-10
-6.18733493842e-08
-4.40445721198e-10
1.7667379353e-28
-3.53678277379e-07
-5.71666231268e-07
-3.75773263545e-06
-7.76170283597e-07
-2.83408972272e-06
2.12056041429e-06
8.97665150819e-07
1.84319202859e-07
-8.7560364679e-08
-1.40122839646e-08
-2.08765333809e-07
-1.1339880082e-07
-5.90520099017e-07
-4.71206727872e-10
-3.53208875208e-07
-6.0899096886e-07
-1.79439414607e-06
-7.43472463069e-07
-1.61676757461e-06
3.45695277901e-06
7.63376764868e-07
-3.81029944804e-07
-6.16092662872e-07
-5.94914281822e-07
-9.89934184094e-08
-9.00481695406e-08
-6.01908923634e-07
-2.8666644873e-07
-8.25773286104e-07
-2.42237474107e-07
-6.54070280914e-07
2.08994201767e-06
-1.05432878747e-07
0.000170101218051
-2.34004637869e-05
-3.21945620545e-05
-2.68553755635e-05
-2.85785275677e-05
0.0489857748134
0.000135325030771
-8.75934893431e-06
-0.0491714058128
0.0489937658462
0.000327517049157
-2.28180585444e-05
-2.47574325227e-05
-2.68591548723e-05
-2.39738150454e-05
0.000123925179062
-0.0491766715475
2.55264428018e-05
3.92966036717e-05
-0.0115779851938
2.69085849647e-05
0.0115200187038
-2.27594271851e-05
0.0115325001084
5.44945222012e-05
2.59187906285e-05
3.06841422763e-05
-4.46133337535e-05
-0.0115925058035
-5.12865783165e-05
-4.41234136414e-05
-4.55916234532e-05
-4.6010340977e-05
-0.000290962964578
0.0122574387021
0.0121843702704
0.0121830005847
0.012225742903
0.000128785098803
5.07466044453e-05
2.1319604258e-05
4.7781382052e-05
-4.25036619755e-05
0.0114651233188
0.000433212158593
-3.29447740418e-05
-3.28597698925e-05
-3.19389339271e-05
-3.44702852792e-05
0.000111522503409
-0.0493112285713
0.0494485550409
-4.54349588657e-05
-6.29003093948e-05
-5.10188391794e-05
-5.58900784225e-05
0.000143947071307
-0.0494265834115
0.000482599245821
0.0115321596703
3.00484099359e-05
3.63747709377e-05
-0.0115953215987
5.52043271185e-05
0.0115152196208
1.4773430835e-05
7.30509743899e-05
-4.73508375989e-05
-0.0115852620537
3.08971245069e-05
0.000858259542639
-0.000104203039488
-0.000115667844772
-9.84531286723e-05
-0.000131450704455
0.0492452540458
-0.00018592455622
-0.000159720908973
-0.000187423932346
-0.000163065131311
5.17659538898e-05
6.09798467148e-05
6.84639965947e-05
6.58166257019e-05
0.0494842453809
-9.73898601247e-05
-9.84986335372e-05
-8.71950234523e-05
-0.000113464740006
0.000341824043118
0.049779633662
0.000851987749106
-0.000144876985241
-0.000201171894267
-0.000177092310695
-0.000154402800061
0.000388898516948
5.4786454827e-05
0.0114652583577
5.2719636512e-05
0.0112134461212
-5.38059891709e-06
0.00014900409002
-0.0113189421159
6.43483591217e-05
-6.27899255136e-05
2.23248954612e-05
-1.2113961401e-06
0.00010464170859
-4.02573542355e-05
0.0114415645799
0.011095533782
6.81943120009e-05
-2.48110581135e-05
0.00028188553621
-6.22833835369e-05
-0.0112428960559
0.0502482362779
-0.000277150713772
-0.000221838440175
-0.000203606727025
-0.000291693848206
-0.00114827968755
0.000565103291637
0.00141368730188
-0.000240454097894
-0.000279525790983
-0.000253050940715
-0.000283382202856
0.0511389067199
0.00045670219327
-0.00170411597579
0.00020719235939
0.0110978251111
8.31653089623e-05
-7.14417020004e-05
-7.36794873901e-05
0.00041659696681
-0.0107851290498
0.000229761257451
0.0106228389583
-0.000215586647854
0.000118630924016
-3.7026387377e-05
0.000307769797146
-0.000102013050754
0.0109559720668
0.000247457295957
-5.60056447182e-05
0.000358638056227
-0.000258270191023
-0.0106710232345
0.010551837362
0.000818218156931
-0.000201310071378
-0.000230162231106
-0.000188879072833
-0.00024813866388
0.00055707359018
0.0503685678316
-0.000200070418504
-0.000239020948227
-0.000237661590948
-0.000203424474263
0.000597691703271
-0.0500283406284
0.000760891545597
0.000137027581521
0.0114005316904
2.17126305293e-05
-0.0114969626285
0.011036598901
-2.74631903063e-05
0.000289992245803
-0.0111756667189
7.46711400056e-05
0.0109124007907
-2.99764288528e-05
0.00027542156818
-8.29575558286e-05
-0.0110317037974
7.79676910751e-05
0.00118019067045
-0.000250310015115
-0.000271887871219
-0.000250914928713
-0.000261235679067
0.0511627957512
0.000726966725053
0.0508178497689
-0.000247795807869
-0.000217316266995
-0.000216830238434
-0.0002419007721
0.000595403581618
-0.000214367609367
-0.000210295873944
-0.000208425558033
-0.000222861314329
0.0511988107592
0.000997617360243
0.00065760570399
0.000296126115981
0.0109212650651
0.00011556063913
-4.7179956693e-05
0.000323079276412
-0.0106687776695
0.000233487422276
0.0105575187895
9.51541166381e-05
-2.9360440432e-05
0.000254693362791
-0.00010693558505
0.0108228703643
0.000155087185573
-3.18710924439e-05
0.000220410868758
-0.000181528422084
-0.0106344483782
0.0105661859037
0.000245102664247
0.0108178422445
8.83949530638e-05
-0.0109042349935
0.000204943996502
-0.0106430967893
0.0105876999677
-2.91883470692e-05
0.000126901772367
6.35698764995e-05
-2.97103354901e-05
-2.86331474892e-05
-3.43339305073e-05
0.000389844658484
-6.5812518539e-05
-0.000341749943363
-3.49917832568e-08
0.000383405593013
7.24903124327e-05
-2.54116185389e-05
-3.19481025513e-05
-3.18936457382e-05
-0.000346505847113
-3.03896632048e-08
1.20593647474e-06
-2.09760476234e-05
-1.6937096087e-05
-1.8689557201e-05
-6.50047178607e-05
0.000356401129769
8.58656732185e-08
-4.27917713341e-08
-1.17502197095e-06
3.28603460846e-08
-5.7111609841e-08
-2.45315940531e-09
3.12031725124e-07
-3.6662726727e-06
-3.65111075165e-08
1.09339108036e-07
-7.05762808694e-08
-5.87298010305e-08
5.43269479443e-07
-1.06723875748e-07
-4.61460258875e-06
-2.42032210521e-07
2.49812592917e-07
-7.5732464953e-06
-8.95590280919e-07
4.11431171592e-06
-1.16218455789e-05
-8.02144859848e-06
-4.05769954335e-06
1.04044487922e-06
-2.64402311959e-07
-9.60055737979e-06
1.1165532208e-06
-2.73524716811e-06
-9.13387018167e-06
7.99873166856e-05
-3.07174355694e-05
-2.60041986569e-05
-3.12080434135e-05
-1.78743003983e-08
-0.000336811742113
0.000258745524136
-2.43778149022e-05
-2.0527047695e-05
-2.52660458481e-05
-0.000264087327276
9.4668358966e-07
6.66173714379e-05
7.11860764383e-05
7.54234501158e-06
2.55535592193e-06
9.21387486139e-06
3.44833079443e-06
-7.27630074566e-05
9.47306595747e-05
5.21360846914e-06
-3.33032374932e-06
4.1420337159e-06
9.28643689116e-07
8.57850565258e-06
-0.00025142366378
9.01051733483e-05
1.64034394498e-05
1.37408451105e-05
8.70413164372e-06
1.51574761321e-07
-1.53815176846e-07
-5.0795887757e-08
-3.22550267747e-07
7.13056031792e-07
4.44758412439e-07
-6.57511418373e-07
-7.16798508481e-08
7.54235853952e-07
-7.90709778828e-07
0.000364728821578
8.1333510314e-06
4.96459003925e-05
7.45469953667e-05
5.66233881834e-05
-0.000956663514481
-0.000185189809855
-0.000649588029208
6.76117201635e-06
2.95003883927e-05
5.34112637104e-05
4.64240770743e-05
7.99399399667e-06
0.000343825308752
6.07970502582e-05
5.03889663496e-05
4.75516081713e-05
-0.000978442404581
1.59290214155e-06
-3.64134615362e-07
1.35634945283e-06
-1.46486180837e-06
5.94622146518e-07
-5.07172609158e-07
7.98217605473e-07
-1.21804391901e-06
6.96044147737e-05
6.02348582851e-06
1.86018131985e-05
3.40515622884e-05
2.40930837017e-05
5.03037345083e-06
-0.000670684455384
2.93468241874e-05
2.38197714643e-05
2.18081914483e-05
0.000560295152537
-6.33284838528e-05
-9.90442786445e-08
-7.12903295743e-08
-9.84042830791e-07
-9.40772558299e-07
-6.38721527127e-07
-8.38011403338e-07
7.58778185954e-07
-1.32919622403e-06
0.000150895738793
7.6704536398e-06
4.21346547091e-05
4.14233901911e-05
3.84857587805e-05
-0.000894761136043
-0.000774909059453
5.80802993658e-06
2.96508048952e-05
3.35950061894e-05
3.62217086192e-05
6.46417494718e-06
3.59278685816e-05
3.08226918238e-05
3.39347567604e-05
-0.000871686534962
-1.22380696992e-05
2.18321194954e-07
-5.65504952109e-07
-2.28502382125e-07
1.76178167857e-06
5.63560634109e-07
-9.49972749521e-07
2.27180353754e-06
-1.26540812117e-06
0.0123020876573
-1.97096020926e-05
-2.21263596474e-05
3.89801175645e-05
-0.0123225665667
2.73152415891e-05
-0.0122976784067
0.0122832220366
-5.51998465897e-06
3.02104392416e-05
2.77240454639e-05
-2.39153281095e-05
-0.0116375977842
3.11733879024e-05
-0.0115842781502
3.47965285519e-05
0.0115260455878
4.67492212094e-05
0.0122871461357
3.81429460072e-05
-0.0116435086776
-1.38169851746e-06
-0.0123192049864
0.0123096592518
5.34873935336e-05
-1.91613185119e-05
-0.0123277705
-6.67163000561e-05
-0.0123219491136
0.0123119770571
8.28604262055e-05
3.29691603785e-05
-0.0115887924926
0.0115286239181
2.13897499586e-05
-4.66514819048e-05
5.48897960898e-05
-0.0116531373414
0.0122960172231
6.53623545998e-05
-0.0123363396372
-0.0116465844265
-0.0122799158659
9.50414093999e-05
-5.94870478959e-05
-6.91787094526e-05
0.0122639850984
-7.7586222931e-05
0.0123003558409
9.35271879557e-05
4.80047966238e-05
0.0114645029808
-3.54867705486e-05
5.7143343094e-05
-4.48960508483e-05
5.30071184587e-05
0.0113926679987
-5.82432302464e-05
0.000118243068999
0.0122896065741
-3.59184394871e-05
0.0113894742822
-7.2396149926e-05
0.0123492842803
-3.24354571892e-05
7.94751290843e-05
-0.0123567864732
-0.0123370572376
9.20240290932e-05
0.0123315837856
2.92538129145e-05
5.52828102006e-05
-0.0116558133894
4.10831512953e-05
-0.0115946618488
5.4052873829e-05
0.0115308647293
-0.0123466874488
0.00010109781001
0.0123469880867
5.22734611982e-05
-0.0116557700816
0.0123640382437
7.93664261701e-05
-3.86625641063e-05
-0.0123705858468
-0.000100491702859
-0.0123749990345
0.0123796805786
0.000105971028508
5.10468170014e-05
-0.0115947792743
0.0115274650486
5.56296583818e-05
-4.78923297437e-05
-0.0116463326966
3.38337252774e-05
0.0123648277588
-0.0123816145896
8.58226220214e-05
-0.0116542882782
-0.000127798835668
-0.0123380582867
-7.89671017171e-05
0.0123404621981
0.000137219432052
0.0123210292699
0.000100208500751
6.65260563231e-05
5.52367760602e-05
0.011390477116
6.10696570567e-05
0.0114615766888
4.8171874822e-05
0.012315910456
0.000109187700984
0.0113861905087
4.87869166388e-05
-0.000140249122843
0.0123387771414
-0.000116843587429
0.000155843222344
-0.0123071619993
0.000177576190286
0.012326939196
-0.000163545091549
9.7669312466e-05
5.81056780348e-05
-5.49688706675e-05
0.000185887095792
-0.0113081750175
5.96504286276e-05
0.01119269069
-0.000131045704893
0.000195006635796
0.012376511899
4.69468671123e-05
-0.0123573186082
0.00013524415712
-0.000106068833572
0.0123686744196
-0.000107481827159
0.0123767800358
0.000116839542591
7.77421232729e-05
0.0114575995976
0.000145422556517
-4.20804956183e-05
0.0113471047629
2.77682436889e-05
0.0123984042556
0.000146451731522
0.0113728736021
0.0123739110435
0.00015965934544
-0.000152780473986
-0.000200743761392
-0.01241896452
0.0124807524015
0.000221269791177
0.000235252220465
-0.0112729065979
0.0111427676488
0.00019501978205
-4.57017190755e-05
3.94429231299e-05
0.0124276472864
0.00018117794661
-0.000268494958404
-0.0124321839257
-0.0003631767573
0.0125250958145
0.000302076188198
0.000238153054753
0.0123677311421
0.000214769082212
0.000147795822142
-0.000195506298331
0.000327411829187
0.000115388732054
0.0109354188737
-0.000107160835656
0.000245222863034
0.011074371517
9.09154014123e-05
0.0124614847045
0.000214900667144
-0.000248562464199
0.000243582748557
0.000161620803831
0.0108971714755
0.000138536393627
-0.000319842174136
-0.000370798514864
0.0126733855124
0.000350933813142
0.000193910900994
-0.0126246123678
0.000380135613858
0.0127812217257
-0.000363938536163
0.000246599654364
0.000357997586273
0.000163436759727
-0.000147847240727
-0.0107341611313
0.000400671695686
0.000255687237868
0.010571576419
-0.000300200578752
0.000177011289734
0.000196892320545
0.000401752120713
0.0128042457831
0.000251493002891
-0.0124936926202
0.000306998614649
-0.000370805033256
0.0125843903607
-0.000253672482069
0.0125533081312
0.000268712005717
0.000278284685039
0.0110162880037
0.000380650571733
-0.000147958625758
0.0107926724596
0.000162780951237
0.01263684405
0.000314601263501
0.0108502325958
0.000347894570397
-0.000362667309802
0.0127123233975
-0.0127434059286
-0.000391765562186
0.000382810580789
0.012834948663
-0.010717720601
0.000379083446012
0.0105741020535
0.000354647677749
-0.000195700558358
0.000201537067381
0.000345940881922
0.0128214609705
-0.00014957524626
-0.0124246191608
-0.000228883185584
0.012467417393
0.000164862324554
0.0123995149528
0.000118388916706
-0.0123978978316
0.000186860939803
3.33746364231e-05
0.0112865555681
0.00017756174775
0.0113565299235
-0.0114576825815
1.94798942121e-05
0.0124343695834
-0.0124123196773
0.000136870947073
0.0112326569431
3.79569743427e-05
-0.00018604236426
0.0125078958405
-0.000251990147233
0.000198084377558
-0.0124645383847
0.000222084763097
0.0125255256099
0.000222372992541
4.68768801844e-05
0.000308318482879
-0.0111098223218
8.40623943539e-05
0.010967387297
0.000227014828901
0.0125652312451
5.50496771273e-05
0.0125443264458
0.000195391654427
-0.000240961261657
-0.0124987308777
-0.000221773940013