/*--------------------------------*- C++ -*----------------------------------*\
| =========                 |                                                 |
| \\      /  F ield         | OpenFOAM: The Open Source CFD Toolbox           |
|  \\    /   O peration     | Version:  v1906                                 |
|   \\  /    A nd           | Web:      www.OpenFOAM.com                      |
|    \\/     M anipulation  |                                                 |
\*---------------------------------------------------------------------------*/
FoamFile
{
    version     2.0;
    format      ascii;
    class       surfaceScalarField;
    location    "9.7";
    object      phi;
}
// * * * * * * * * * * * * * * * * * * * * * * * * * * * * * * * * * * * * * //

dimensions      [0 3 -1 0 0 0 0];
oriented        oriented;


internalField   nonuniform List<scalar> 
92311
(
0.203972478295
-2.17456833727e-06
-0.00119264606719
-0.203820487439
0.00104283011977
-4.62330844713e-05
0.204056707451
-0.000840388507365
0.000802384936612
0.203936330624
7.35008120182e-05
-0.00123065712992
-0.203843143096
0.00106177681454
-0.000112953423266
0.204072461825
-0.000782593866027
0.000713158907985
0.203821529154
6.88193079803e-06
-2.00723575e-05
-0.00107336408339
-0.203639372001
0.0010191313724
-1.04611126518e-05
-3.07746477502e-05
-6.58935912385e-05
-0.000101371708442
-0.000161037012124
0.204155323742
-0.00056670198288
0.000535729539386
-8.74861239928e-05
0.051022641603
2.23997600283e-05
1.36937785697e-05
2.21416733231e-05
1.23775093909e-05
-0.000329994342325
-0.051061677739
0.000305314422498
-0.051054422254
0.0511391835455
-3.353506718e-05
-2.03885481157e-05
-2.11289416996e-05
-2.87633753696e-05
-0.000174337735757
0.000127488618709
-3.50800196432e-05
0.00611271262239
-2.64665282206e-05
-2.11611195471e-05
-1.6444782426e-05
-0.00336750531524
-0.0054171559258
-0.00235799435689
0.00512896356845
-0.00910606715808
0.00858168616303
0.000381015680014
0.00334409816208
3.20958636382e-05
4.69192167473e-05
4.3821251317e-05
5.39504423142e-05
-0.00337770725572
-0.0554912573397
0.00099620023152
0.00332459488576
0.00532502697013
-0.0281717844194
0.103805478022
0.0278967245497
0.00207045128685
8.18919593587e-06
-1.76386285457e-05
-1.47850386568e-05
5.23958187649e-06
-0.000246297305854
0.000213462329976
-3.99894067407e-05
0.0118321923879
-2.2009636829e-06
3.99990628641e-06
-0.0118290032755
0.0118252094575
-2.63641712026e-05
2.10345648747e-05
-0.0118307338073
5.09307978262e-05
-4.01118618502e-05
3.8787807578e-05
-2.71565016763e-05
0.0511965410021
-2.03131242352e-05
-2.8995216957e-05
-2.56426423243e-05
-9.54163744718e-05
-5.26305894599e-05
0.051109373279
-6.0976185136e-05
-5.12157367913e-05
-5.08240499809e-05
-0.051037201487
2.11606237613e-05
-6.59497415146e-05
2.97479457354e-05
0.0118532838518
6.38219467298e-05
-5.56884062567e-05
-1.91157632076e-05
0.0127926923987
4.33805729906e-06
-1.70546791831e-05
-0.0127880210035
0.0127847434226
-3.49482680495e-05
-4.70583934215e-05
-0.0127745244383
-2.06369692251e-05
0.204277774502
-0.00203476109727
0.00179887976638
-0.204021256242
0.204116064226
-1.96851856411e-05
-0.000340527874612
0.000300712291635
-2.8930936753e-05
0.204212001493
-0.000199921417139
0.000132877208077
0.000163697975131
0.204322488
-0.00210795292065
0.0018302272979
-0.204229039553
0.204222365536
-5.90231085307e-05
-0.000445180095029
0.000334469849941
8.48086836984e-06
0.204317034607
-0.000234559149771
0.00010242133312
0.000169991020472
0.000156226617721
0.000139126178373
-0.00201532861297
0.204232500752
0.00172327509034
-0.204405259677
0.000163222154777
-5.32426176161e-05
-4.36302856663e-05
-0.000121825898282
-0.000103514915985
0.204482571434
-0.00022649045839
0.000162275422696
0.0512133109579
6.4241191973e-05
6.71081102629e-05
6.31100801755e-05
6.79658392081e-05
-0.00053607365036
-0.051271727712
0.000502066538965
0.0512028846121
-7.52625732783e-06
-1.24699284521e-05
-2.17944554058e-06
2.882722585e-06
1.29006250478e-05
-5.32086563868e-05
0.00706630277398
0.000315509588634
-0.0120618539899
1.53292126272e-05
3.02923463369e-05
-1.37187494456e-06
1.36709314883e-05
-0.00448398225507
0.0109029036906
0.0168340645807
0.0133803327056
-0.0513720801376
0.0121348576394
0.0937199220474
0.00640362408991
0.0138095730235
0.00176634087216
0.00248375603204
0.00265191008344
0.00360501237374
-0.025119210265
0.0340861329379
-0.00272021552683
0.000421997404765
5.05514335599e-05
3.96606410519e-05
4.83766657719e-05
4.11986675007e-05
0.0512105055701
-0.000442760619951
5.22357510487e-05
4.27303096187e-05
4.81196179895e-05
3.87627657008e-05
0.0511384323569
0.000388371012885
-0.051147500386
0.000136940633055
-8.03505519483e-05
0.011765992143
2.74579298307e-05
-6.04952057575e-05
-0.0117894880109
6.58768944828e-05
-3.68241291678e-05
-0.0117510358204
3.4428577613e-05
-6.05335709553e-05
0.0117480885181
6.09255332305e-05
0.0127671024081
-0.000100397660841
9.86125939719e-05
-0.0127739899102
-5.24573815791e-05
8.11041649905e-06
2.28209516225e-05
1.86285673784e-05
1.26118078356e-05
0.0511820315572
-3.25113252604e-05
0.051176812481
-3.97777571623e-05
-4.45583772314e-05
-4.92507791076e-05
-2.58011670516e-05
-3.74952340771e-05
-3.75568034243e-05
-3.01315579711e-05
-1.91444958651e-05
-8.1947766098e-06
0.0511865264698
-7.10963233114e-05
-2.80898227645e-05
1.46532221592e-05
-2.25496214874e-07
0.0127938014104
8.78459945244e-06
-5.63126686751e-05
-0.0119118101055
4.34327829469e-05
0.0119177039507
-1.79004970546e-06
-4.4211653079e-05
-2.71379223061e-05
0.0127882560723
-0.0127851176678
-3.72553487562e-05
0.0127875046372
4.76049683247e-05
-5.03613673827e-05
0.00272186133658
2.32933186894e-06
2.54248830499e-05
3.39473404459e-06
-0.00286259926463
0.00676027823863
-0.000563850281541
0.00195832912415
7.71339111104e-05
8.64512029223e-05
8.83207570689e-05
9.10241228458e-05
-0.000877803326366
0.0108912500096
-0.00373248350656
-0.00671687599741
-0.0190750699393
0.0169118016778
0.0118432008622
0.0111980849467
-0.0131837996355
-0.00102856548887
7.64257176917e-05
6.19345795779e-05
6.22917321642e-05
6.36531380241e-05
-0.00262325309309
0.00835940377611
-0.00252831548773
0.00929251535505
0.00983397868387
7.27654361856e-05
0.0127499261995
-8.0602204364e-05
-0.0127596505284
-0.0127414609096
2.16197186378e-05
-6.89454812737e-05
0.0127377248783
6.47651309747e-05
1.29991810745e-05
-2.40644512173e-05
0.0118247315811
-7.88177365749e-06
-3.56310094674e-05
0.0118642512442
-0.0118568514257
4.9181018736e-06
-0.0127516415002
6.94290663143e-05
0.0118547103103
2.7850819045e-05
0.0127453797597
-7.61394900699e-05
0.0127369148392
1.31763167439e-05
-5.45350901042e-05
5.03308412498e-05
4.42773136644e-05
-0.0127459306888
0.0127543721088
-4.92922802879e-05
3.2841172547e-05
-1.2617289038e-05
-2.38928140062e-05
1.79811393223e-05
-0.0118577417613
0.0118510635894
6.50639093295e-05
0.0127418680714
4.24395256835e-05
4.6342744479e-05
-6.24731876341e-05
-0.0127594433496
-4.27554912398e-05
-1.37145128917e-05
0.0127767835893
5.58820791688e-06
3.18644304442e-05
0.0127718799531
-3.99655421132e-05
7.48287694584e-05
3.28525909538e-05
0.0118751209309
-6.74533627048e-05
3.24659046887e-05
0.0118739631784
7.09026889229e-05
2.57765832479e-05
0.0118847310144
8.50366133913e-05
0.012789470373
-2.70577040199e-05
-6.52801178785e-07
-0.0127984703197
0.0127966975476
-1.35850004232e-05
7.41921131978e-05
-0.0118820283847
0.0118893095799
-5.00014725348e-05
-0.0118898476419
9.50420685735e-05
0.011898915629
-3.23248521293e-05
-5.33314006395e-06
-2.59534208477e-06
7.48773341546e-05
2.01035186588e-05
-5.80698419452e-05
9.14953216261e-05
-1.99252264312e-05
-6.83064506869e-05
-0.0127573516549
0.0127691686719
-3.94075226854e-05
0.000117510802932
-0.011913739023
0.0119213026033
-0.0119251165528
0.0119317240396
0.000128932267136
-1.07503899524e-05
-5.83671908272e-05
-0.0127591770123
6.38990708786e-05
-0.000116370257495
-0.011911697992
0.000127356130249
-0.0127378981001
-1.67941612631e-05
-0.0119059798652
-0.00494884103596
-0.00169325610772
-6.54058961737e-05
-5.80197588164e-05
-6.52318260102e-05
-8.33933500612e-05
0.00353400062396
-7.5855581423e-05
0.00345598861157
-0.0197985957351
0.000895232675875
0.026794265985
-0.00193594712128
-0.00409579301866
-0.00727204762864
-0.000116280543535
-0.000132528214235
-0.000115937447767
-0.000181890725059
0.00165104253919
0.0104000420452
-0.00579713752188
-8.19951881172e-05
-6.96022045368e-05
-8.20392950963e-05
-0.00113136887556
0.00143880419834
0.0020183698394
-0.0132492550779
0.00228477985575
0.0185088440651
-0.0123486316714
0.00214897773158
0.00141294546325
-0.0041306060106
4.6789715665e-05
7.43771871145e-05
6.20311310995e-05
2.7889866758e-05
0.0086949476374
-0.00242035460758
-0.0169379767766
0.00346794831821
-0.0136408675237
0.000837733820391
0.00107207349935
-0.00368810809308
4.40865044385e-05
4.17007689782e-05
7.44352726301e-06
1.08713426767e-05
-0.00607106607762
0.00445120801099
4.65843138777e-05
-0.0141959557753
0.00094143388534
-0.000154387794239
-1.05330851016e-05
1.2542926791e-05
1.3507125787e-05
-0.0125903773079
-0.00301218358729
-0.0118835183888
0.00173832797067
-0.000109613935356
-0.0127904797368
6.76335041201e-05
0.0127842419154
0.000112457783367
0.0128024286606
0.00011877436786
-0.000116189898408
-0.0128182886159
-6.74357985802e-05
3.00846963442e-05
0.0117539195972
-6.69690745505e-05
-8.32751970794e-05
0.0117694430742
-0.0117916205565
3.92871338764e-07
0.0127956333868
-0.000107150419791
-0.0128081174163
0.000121100579347
0.0117545568747
-3.37767424311e-06
-0.000102386286262
0.0127790357287
5.1809078678e-05
0.000106377781755
-0.0127902560712
9.56313327963e-05
-9.04307045314e-05
0.0127879178304
-4.96632922252e-05
3.16562455313e-05
-6.10740477844e-05
-3.88477574916e-05
-0.0117534510607
8.18467541025e-06
0.0117489722283
-9.81908726316e-05
0.000101044642058
0.0127760244003
2.57107046578e-06
0.0117979067769
1.81421203929e-05
-2.86406836496e-05
-0.0117918490997
-4.70965211543e-05
9.40400330231e-06
0.0117941001839
-1.6482351574e-05
-9.54544188476e-05
0.0127634649107
9.47890748086e-05
0.01277386564
6.05214781515e-05
-0.0127802118612
-4.76352472595e-05
-0.0117720071535
0.0117720236823
0.0127706251555
-0.0117741337432
1.99930676937e-05
0.0127938028862
-4.7282774796e-06
7.31080419769e-05
0.0118923278641
-4.08337828026e-05
0.0119011359613
0.000100947747407
1.65686732735e-05
2.92442108072e-05
0.0127823740381
-3.15775264161e-05
-5.06822793249e-05
6.05713328186e-05
0.0119029180747
-2.17553644464e-05
0.0127790054634
-6.50370175819e-06
0.011906375993
9.82213795525e-05
1.3326226284e-05
0.0127718414992
3.68476239257e-05
-3.16271988344e-05
-0.0127670933152
-6.42204059015e-06
0.0127597080054
-1.97350737637e-05
-5.71746504576e-05
5.24516185369e-05
-1.47262864626e-05
-3.95023535016e-05
-0.0119124298553
8.9940651983e-05
0.0119179796405
-1.33813187127e-05
-2.75107254432e-05
0.0127659376315
9.6648365643e-05
-0.0127813330254
-4.51513294207e-05
4.98252248683e-05
-5.30719760431e-05
-5.80475771115e-05
-4.76052867918e-05
0.000116615279966
0.0119254019616
0.0119381907943
0.000126526888103
-0.00011554351467
0.0119459683319
0.000124670885723
-2.21728313422e-06
0.0127828217176
0.0119337132177
0.0119435961497
-0.000108691228285
0.000117934559426
2.58552814899e-05
-0.000105272702425
0.0119452112651
0.000119640482767
4.20999656687e-05
0.0127824323923
-4.14777537311e-05
0.0127791327912
4.86368507163e-07
-1.13596117662e-05
-0.0119329658279
0.0119364531933
0.0127740968655
-1.62267396864e-05
-5.2233034771e-05
-8.23857214256e-06
-6.65982245167e-05
0.204618884707
-1.11729423835e-05
2.65171012952e-05
-6.37175628161e-05
1.26354781092e-05
1.97393119447e-05
1.49841219904e-05
1.22875388451e-05
-6.00101232476e-06
0.0511758440235
1.14546494244e-05
-8.84487368752e-05
-1.88672671109e-05
2.42443858566e-05
2.1386998162e-05
2.12450023371e-05
-0.00103701684041
-0.0115240248884
0.00677153297283
0.00598265707753
0.00622759782089
0.0428334056338
0.00403850314347
0.00709790035223
0.00137628258217
1.94543945582e-05
3.47636730797e-05
3.1190422965e-05
2.35417564996e-05
-6.62359322455e-05
-0.000354816896231
0.0511206066943
3.99938750724e-05
-4.35809763107e-05
-2.06775628937e-06
0.0118037838874
0.0511822780581
1.9573307883e-06
-2.4737269214e-05
-4.104778083e-06
-1.4470030905e-05
-7.0569512513e-05
0.051148234901
8.75672276492e-06
6.53934956733e-06
1.2847804749e-05
-7.86082900731e-06
5.41604483625e-05
-4.88095446304e-05
-4.27112289963e-05
0.0119257120975
3.59146748611e-05
1.02654748128e-05
-2.87118284734e-05
2.3265036497e-05
-0.000102170313823
0.011937455655
0.000115292728076
0.0119209705696
-5.07502151192e-06
-1.19172693952e-05
-6.61048059666e-05
-0.0119221067892
8.43391998158e-05
0.0511179553018
1.43734624774e-06
4.25597570742e-06
9.17904532399e-06
1.70317901228e-06
2.30749772556e-06
4.92470688095e-05
-3.78181042333e-05
-5.03157073406e-06
-8.64332642925e-06
-1.04376181911e-05
-3.5110118708e-06
2.58485449311e-05
6.00966360774e-05
0.0510933294522
-3.36080568389e-05
-9.5228687301e-06
-7.86886588731e-06
-4.84713115418e-05
0.011918726351
6.80068127878e-05
-2.4421427775e-05
1.14287299184e-05
1.2559617935e-05
-0.0119174243297
0.0119128893438
4.87744313726e-06
-5.28194126191e-05
-3.57013692902e-05
-4.69433531856e-05
-0.000180597371523
0.00448025762928
-0.00395748676192
-0.00680258471576
0.000494370111157
5.51990318093e-06
2.12909030724e-05
7.98760378354e-06
8.48069204711e-05
0.000645821040461
-0.00655752575153
1.21734912009e-05
1.19577871431e-05
1.37120235582e-05
0.00194464374438
-0.0028783498405
0.000187628568818
0.00220298159593
-0.00752023941945
-0.00735653408699
-0.000151606269717
0.00114302882919
-0.00174052249981
0.000144898371813
-0.00705015280338
1.34497357583e-05
1.24576160735e-05
2.39923267495e-05
0.00218564682379
0.0011744609671
-0.00292688387071
3.21475648205e-05
2.03498305339e-05
2.97477669234e-05
0.000771764370827
0.00120389003826
-0.00769807629123
-0.00143441351286
-0.0127633987369
2.81178098446e-05
7.4797481618e-05
-7.97931387359e-05
0.0127597373687
-8.11006918556e-05
0.0127551772993
-4.42200463832e-05
0.0117777921354
-1.64054908407e-05
-8.59429798622e-06
-2.65944099827e-05
0.0117953719678
-8.68963059103e-05
-2.02678037943e-05
0.0117706250576
0.012750761834
-2.45363927514e-06
-0.0127643346956
3.22862618185e-05
-1.52009903571e-05
0.0127623289863
0.0127589266524
-8.36981251594e-07
-2.13832350481e-05
-3.3677628277e-05
2.62658366496e-05
2.52445632185e-05
0.0119320918549
-3.26967835087e-05
0.0119219933545
8.59485779711e-05
-2.07202197509e-05
0.0127584492795
-1.97711427916e-05
7.55530324804e-05
0.0119262131227
-0.0127700790819
1.02065404013e-05
-1.79551012429e-05
0.0127645714596
2.77117230787e-05
0.0127768729983
-2.37814276201e-05
-7.78995521425e-06
0.0119334768821
-9.61225860357e-05
1.28905354705e-05
0.0119298077141
0.000112270067622
0.0119310098132
0.0127722056248
-1.50712417133e-05
0.0127591828915
1.28103317161e-05
-1.19546483968e-05
1.3233501258e-05
6.49728796459e-06
-0.0127656710193
0.0127571762603
-3.41180502014e-06
-1.48629667582e-05
-0.0119302262799
0.0119280342725
-3.68694141509e-05
-8.37254282648e-05
3.2062629079e-06
9.99965040756e-05
0.0127529896931
1.06618721037e-05
-5.64153263975e-05
-1.02048238552e-05
-0.012747631682
6.01856710095e-08
-4.47748500468e-06
0.0127425198836
1.09686647333e-05
5.57354180574e-06
0.012749120066
-1.1152603974e-06
-9.57315084878e-06
0.0119215776091
-1.90596968938e-05
-2.74205584656e-05
-3.32346845071e-06
0.0119155567978
4.63614922299e-05
1.0622375774e-05
0.011917029717
1.12163416802e-06
0.0127428483685
2.8217192404e-07
0.0127382494002
-8.65424138963e-06
-5.59040557728e-06
1.35355432577e-05
9.21528619025e-06
-0.012736950264
0.0127354288544
-4.8823446066e-06
1.78145651544e-05
-0.0119147752792
3.32024772775e-05
0.0119083840696
-7.91395201809e-06
4.06281924787e-07
2.58801831735e-05
1.68109378605e-05
0.0127380814638
1.54286982416e-05
-2.71722910238e-06
-0.000489633451817
-0.0492171765257
0.0492034723816
0.000587466801908
-7.57581877209e-05
-6.52535600457e-05
-7.06063160282e-05
-6.77912001023e-05
0.000195319563838
-0.000612101315184
0.0498102464622
-0.000181702635019
-0.000141885892753
-0.000159202049131
-0.00015465607207
0.000446130352743
-0.0496472841266
0.000640711648112
-0.00111996183492
-0.0501685697119
0.0506528275678
0.00104279866527
-0.000276896424872
-0.000228443035994
-0.000279363970818
-0.00023864094068
0.000616267583034
-0.000918346724684
-0.000220826876216
-0.000201805129347
-0.000222528142973
-0.000202846079558
0.0005527517193
0.0509491502124
0.000782623768831
-0.0505181640573
-1.63079045708e-05
-0.00202309064613
-0.0116319192099
0.00857406777104
0.00205382333055
0.0030506730907
-9.19071408795e-06
-1.58168551057e-05
-6.76877111472e-07
0.000230273835185
-0.000201573312937
-0.0108666105414
0.00413460871709
0.00730927746277
0.000338779604925
0.000286208660921
0.000406408735902
-0.00166568621107
8.40547121415e-05
-0.00101182928445
-0.0096325579154
0.00725935724229
0.000130409718226
0.000127339697355
0.000180888403025
0.00270586918358
0.000157174566877
0.000320833622161
-0.00632234199209
0.0153578408234
-0.0187215750722
0.00356563561441
0.00479107419021
0.000366717710804
0.000318121148144
0.000324415522333
0.000254577207978
0.000693407991585
0.000259148534491
0.000254611455172
0.000258115276418
-0.0215785815273
-0.00378179492451
0.0037394511051
0.0199011890838
0.0945147038779
-0.0111456322827
-0.000524789645585
-0.00443279632078
-0.000616133312733
-0.00570179652432
-0.0011340907052
-0.0406384833463
-0.032812066547
-0.0168902794441
-0.0136880845866
-0.017194772289
-0.0155389399434
0.0604930530531
0.0327283284079
0.0993407176555
-0.018777462715
-0.00272828552167
-0.00856927321844
-0.00650103056113
-0.0105836384029
-0.0407796726123
-0.0313234851866
-0.00816717664553
-0.0107654019335
-0.00685128087427
-0.00891929303652
0.173738896694
0.0843944900497
-0.00662771625992
-0.00626703207049
-0.00484658874168
-0.035720034144
-0.0107855259559
-0.00610960449206
-0.00208063754183
-0.00452041931636
-0.00149320088516
-0.00336165554612
0.126273173238
-0.00892051489163
0.000166295010643
-2.48147086823e-05
-3.37547140068e-05
-2.85779760999e-05
-2.99245854599e-05
0.0489772967196
0.000144171836132
-6.51080341748e-06
-0.049164275469
0.0489865519443
0.000323454205592
-2.47219003374e-05
-2.76301448691e-05
-2.90345116542e-05
-2.61564994818e-05
0.000133010396635
-0.0491692669588
2.74963110617e-05
3.96970208687e-05
-0.012193506241
2.89702392783e-05
0.0121224779507
-2.49191238061e-05
0.0121209152958
5.72022554989e-05
2.66048815565e-05
3.29881685812e-05
-4.71925401348e-05
-0.0121904139284
-5.72682267594e-05
-4.91738492594e-05
-5.00407783465e-05
-5.2479515474e-05
-0.000290233475649
0.012256195366
0.0121839844977
0.0121880095252
0.0122244454265
0.000143577185973
5.26170225031e-05
2.12224414023e-05
5.20551906807e-05
-4.45273347162e-05
0.0120394767517
0.000431927102606
-3.65724410343e-05
-3.70753899228e-05
-3.52408524209e-05
-3.90330281143e-05
0.000125086044482
-0.0493028305804
0.0494425116077
-4.98664894608e-05
-6.85071531926e-05
-5.64098184768e-05
-6.04603752549e-05
0.000158465491749
-0.0494181053992
0.000484220700776
0.0121195672097
3.03486709014e-05
4.00444024229e-05
-0.0121902741766
5.75245154984e-05
0.0121090153646
1.07796710373e-05
7.98998668247e-05
-4.83118122764e-05
-0.0121832364928
3.03776925681e-05
0.000862630749061
-0.000113838017112
-0.000128226876852
-0.000108629324609
-0.000144810510272
0.0492674573953
-0.000186646780778
-0.000160254987001
-0.000188135293236
-0.000164348238606
5.72428283243e-05
6.60449872321e-05
7.45467520765e-05
7.05959569747e-05
0.0494885792547
-0.000105946339694
-0.000106006217431
-9.48572905365e-05
-0.000122541280137
0.000358841071134
0.0498019050033
0.000862491520468
-0.000153638141303
-0.000213988384178
-0.00018987808308
-0.000163118327807
0.00040776051367
6.04991765156e-05
0.0120411659831
5.42070835734e-05
0.0117832706295
-7.26530267143e-05
0.00016809291047
-0.0118794821146
6.41338571265e-05
-6.28320164306e-05
2.10172955527e-05
-2.16075165719e-05
0.000114389643786
-4.05539580328e-05
0.0120362532215
0.0118494981641
7.57568559039e-05
-0.000253827490798
0.000301445417865
-6.53783653363e-05
-0.0119073655233
0.0502820490858
-0.000286000620509
-0.000230424544753
-0.000212586751735
-0.000298113187976
-0.00115150002883
0.000579136966906
0.0014219768591
-0.000244862979563
-0.000277011413019
-0.000255790694418
-0.000282098424566
0.0511660276142
0.000457007491987
-0.00170253137959
0.000227775346117
0.0117725029746
8.63826876103e-05
-7.31183429832e-05
-0.000548675022308
0.000426675694431
-0.0118470879631
0.000258781178412
0.0119492030259
-0.000239149993282
0.000131321071677
-0.000362662932896
0.000322974834534
-0.000111529534334
0.0118691398641
0.000280391770546
-0.00039336056453
0.000360198380394
-0.000292581952794
-0.0119407274655
0.0119859740671
0.000830036951265
-0.000208010244606
-0.000239513566765
-0.000195752391994
-0.000255839033474
0.000573436264552
0.0503916934192
-0.000204628440688
-0.000242730356478
-0.000242551359204
-0.000207515285631
0.00060979928626
-0.050042903715
0.000768966686038
0.000148003225885
0.0120349951246
2.11962044358e-05
-0.0121006610113
0.0118904559252
-0.000272714737134
0.00030420298214
-0.0119293356662
8.28495463891e-05
0.0119622996481
-0.000254624183114
0.000280877855487
-9.18630669749e-05
-0.0119820467516
8.53156299266e-05
0.0011889705678
-0.000247835275981
-0.000267505679559
-0.000250467227027
-0.000255397339173
0.0511876052715
0.000719788361156
0.0508464945928
-0.000247024849388
-0.00021815939631
-0.000218748369224
-0.000240219919625
0.000594001766744
-0.000210549971099
-0.000202345180386
-0.000203965350399
-0.000215676865374
0.0512190903336
0.00100386590648
0.000645161045646
0.000306890860997
0.0119075591126
0.000128596052368
-0.000345386607882
0.000322513515119
-0.0119713489364
0.0002644087745
0.0120103837425
0.00010369920334
-0.000261689074769
0.000258481648429
-0.000117182354055
0.0119791610234
0.000177666291149
-0.000226877894204
0.000214055877711
-0.000205816464176
-0.0120236301134
0.0120646345846
0.000247978561141
0.0119956222314
9.64136220882e-05
-0.0119818447655
0.000196244194349
-0.0120392038306
0.0120830842002
-0.000208236278396
0.000145623610964
0.00217020845218
-3.30665335586e-05
-3.10728054174e-05
-3.80761018922e-05
0.0124232758561
-0.00231126023741
-0.0113746773043
-0.00077659372378
0.0122447546008
0.00241897986373
-2.65225714942e-05
-3.39834287707e-05
-3.46983812917e-05
-0.0116397097535
-0.000730798208122
0.00184434382541
-2.11254165663e-05
-1.46171071764e-05
-1.69891144524e-05
-0.00207895037836
0.0105314321976
0.00611266862048
-0.00319270221279
-0.00177786390194
0.00240225772942
-0.00411530887299
-0.00014351301038
0.00767295838416
-0.00477613342295
-0.00105799349903
0.00701116390145
-0.00471630698689
-0.00436748909002
0.00910224408146
-0.00214212066323
-0.00581937916144
-0.000841869538944
0.00204310577929
-0.00700564666157
-0.00342507817753
0.00551621907228
-0.00958134595036
-0.00603509032567
-0.0044447151587
0.0037595802785
-0.00147737252387
-0.00836468566874
0.00218940256233
-0.0024968523097
-0.00598722925201
0.00255832012665
-3.1700428744e-05
-2.54672093663e-05
-3.15829321159e-05
-0.000306438995757
-0.0113480215419
0.00777155592119
-2.29213415344e-05
-1.94052255926e-05
-2.42417745914e-05
-0.00871630158417
0.001688286251
0.0018919925307
0.00164444094175
0.00835162436758
3.8847105412e-05
0.000114387771846
4.99217654038e-05
-0.00192334919174
0.00193702785099
0.00677089544842
4.77882427513e-06
5.94228096666e-05
2.02263409914e-05
0.00799887019623
-0.00736125519642
0.00222304398947
0.000187147744982
0.000165684104836
0.000113823074719
0.00507176939132
-0.00525103454693
-0.00406612295794
-0.00280928625065
0.00547753819483
0.00472098899845
-0.00570265498593
-0.00402368941563
0.00273928648595
-0.00343792104948
0.00828764717812
0.0052209308974
0.000490536614609
0.000514330132673
0.000506861185676
-0.0222762344721
-0.00417267078485
-0.0161558900568
0.00509347360134
0.000324611104023
0.000421233475662
0.000407103280407
0.00525997839059
0.00789222844084
0.000446829005386
0.000423466832388
0.000442615130248
-0.0227209510714
0.00449451116001
-0.00136105800454
0.00278157715354
-0.00155229877219
0.00114226898431
-0.00152140475296
0.00155133611761
-0.00130451448749
0.00170539168442
0.00520935869968
0.000216339530742
0.000297959310705
0.000249017336463
0.00429387209141
-0.0175297417921
0.000269192450819
0.000233198134134
0.000232667724493
0.0156704706984
-0.00171765739714
-0.000822579442313
-0.000358385396552
-0.00387662485334
-0.00291015059468
-0.00238702717803
-0.00255697693826
0.00275286135724
-0.00366468529749
0.00350064631075
0.00494338419433
0.000368586726552
0.000291408420665
0.000314681815742
-0.0205904723828
-0.0187148872263
0.00434790732718
0.00028188246112
0.000261309752553
0.000291964389684
0.00396549076912
0.000258081060171
0.000251365730907
0.000281422027428
-0.0200561541834
-0.000140608799349
0.000304154671081
-0.00145985253435
-0.000419619969938
0.00270781701315
0.00112941490357
-0.0022870965742
0.00376737829396
-0.00246089309129
0.012301677419
-1.95575836873e-05
-2.09523622361e-05
3.75863800316e-05
-0.0123235617504
2.62899363501e-05
-0.0122974956266
0.0122820489363
-4.86549126045e-06
3.2608083967e-05
2.73314507238e-05
-2.63549200577e-05
-0.0122602825407
3.18324324738e-05
-0.0121923696558
3.68733901407e-05
0.0121216002536
4.54668180097e-05
0.0122857933527
4.05352293361e-05
-0.0122580665389
-5.89073957097e-07
-0.0123204292249
0.0123093193898
5.17130306294e-05
-1.94385987374e-05
-0.0123287236594
-6.51255208391e-05
-0.0123212695192
0.0123104740038
8.12638036331e-05
3.41273880991e-05
-0.0121918326504
0.0121208058491
2.23939745174e-05
-4.93271969344e-05
5.78207362461e-05
-0.0122555479131
0.0122947924757
6.34147634472e-05
-0.0123366953019
-0.0122549925615
-0.0122771616468
9.38766739302e-05
-6.5708281735e-05
-6.83573570378e-05
0.0122600696493
-7.59233600836e-05
0.0122977061988
9.15698404098e-05
5.13329095774e-05
0.0120412955754
-3.72263404518e-05
6.45178038449e-05
-4.62628167453e-05
5.38011155156e-05
0.0119524421514
-5.69955354274e-05
0.000116883706362
0.012286593952
-3.70884037232e-05
0.0119496534666
-7.03762380772e-05
0.0123482105471
-3.53184082319e-05
7.77321688289e-05
-0.012356819611
-0.0123359822105
9.03414604152e-05
0.012329864126
3.14748275446e-05
5.7915733501e-05
-0.0122535375046
4.5580337763e-05
-0.0121872408624
5.57515975112e-05
0.0121180896409
-0.01234671438
9.96568837495e-05
0.0123453936534
5.45148355273e-05
-0.0122507794963
0.0123627460663
7.79436957897e-05
-4.24461305488e-05
-0.0123703685299
-9.93357072259e-05
-0.0123737096068
0.0123783601198
0.000105535648659
5.67518687154e-05
-0.0121875799405
0.0121146787369
5.99864669993e-05
-4.9597467986e-05
-0.0122467934861
3.3799903304e-05
0.0123630649509
-0.0123813296716
8.50159785683e-05
-0.0122493914571
-0.000126324839684
-0.0123356535952
-8.97723597483e-05
0.0123389269964
0.000136462752318
0.0123184466225
9.81746663009e-05
7.55221614493e-05
5.57607669228e-05
0.0119546737953
6.78647980709e-05
0.0120393426631
4.85708601247e-05
0.0123136732612
0.000107716530848
0.0119534167055
4.84348305127e-05
-0.00013983655181
0.0123388750851
-0.000130816317279
0.000156747511767
-0.0123052298426
0.000178333893075
0.0123302372001
-0.000163614865242
0.000110067191824
5.78372655461e-05
-5.48380330265e-05
0.000206746719077
-0.0118843708857
6.04788398189e-05
0.0117956267956
-0.000130241132456
0.000197475545172
0.0123814922241
4.58008224476e-05
-0.0123550470697
0.000135694707558
-0.000118959243273
0.0123688294387
-0.000106955133988
0.0123760595732
0.000117546945353
8.66272190701e-05
0.0120405178228
0.00015988052462
-4.13879357043e-05
0.0119496613778
2.76888333605e-05
0.0123997824118
0.000148678795079
0.0119492291984
0.012376632637
0.000162439073487
-0.000167646621501
-0.000205237439607
-0.0124241592399
0.0124897247309
0.000227367168111
0.000255434179849
-0.0118941495398
0.0118210539946
0.000210880598128
-4.61844715898e-05
4.34898421185e-05
0.0124346964094
0.000186021686577
-0.00027355291492
-0.0124444940337
-0.000383541937415
0.0125413093474
0.000308128943639
0.000252738878651
0.0123782525437
0.000217908550704
0.00015959835914
-0.000197686986493
0.00034988988913
0.000123786983873
0.0117505961879
-0.000113405703094
0.000265992374213
0.0118038728935
9.81036183331e-05
0.0124767913938
0.000230307266368
-0.00025210856006
0.000247981897233
0.000173645424652
0.0117997284843
0.000152543526788
-0.000323366874386
-0.000385503356939
0.012693324367
0.00035470891493
0.000202916634173
-0.0126454036449
0.000383891133029
0.0128034278667
-0.000365987498092
0.000251155103346
0.000375557831721
0.000179376072606
-0.000159949641358
-0.0118827887895
0.000407101797376
0.000288922413843
0.0119612139773
-0.000302272404232
0.000186999178141
0.000218271866442
0.000404998297426
0.0128266463877
0.000253984425958
-0.0125076988084
0.000314419072613
-0.000385203011128
0.0126013488882
-0.000259583386028
0.0125674923607
0.000274612996169
0.000296084465331
0.0118370987521
0.000390423288411
-0.000164477882813
0.0118827841563
0.000181615658086
0.0126539032488
0.000321126596292
0.0118482969767
0.00035294217481
-0.000372866424612
0.0127321551639
-0.0127616886872
-0.000395294547704
0.000385688416948
0.0128548440853
-0.0119201760107
0.000382716866767
0.0119819410809
0.000360549175699
-0.000218308972004
0.000223802649861
0.000350475108825
0.0128434544049
-0.000153109191783
-0.012427754602
-0.000242697778968
0.0124731491271
0.000168680622189
0.0124002622123
0.000120659662007
-0.0123974053885
0.000201254302799
3.49011271824e-05
0.01195668078
0.000188287598756
0.0120359478013
-0.0120967737308
2.0540006864e-05
0.0124380544786
-0.0124130932333
0.000140101699397
0.011967635686
4.14378143003e-05
-0.000191874769181
0.0125175597398
-0.000263262268428
0.000202889325013
-0.012472445338
0.000229125604113
0.0125355851651
0.000235427021969
5.18961867211e-05
0.000318054161147
-0.0119444236658
9.25577546865e-05
0.0119144922438
0.000232758618103
0.0125766339843
6.08795022998e-05
0.0125543192321
0.000199528371536
-0.000249994527549
-0.0125052727901
-0.000226672860779
-0.0125818816478
0.0126357519665
0.000211078539637
0.000291836198955
-0.0119670458633
0.0119452486089
0.000249551146015
-6.30012203595e-05
-0.0119999845882