/*--------------------------------*- C++ -*----------------------------------*\
| =========                 |                                                 |
| \\      /  F ield         | OpenFOAM: The Open Source CFD Toolbox           |
|  \\    /   O peration     | Version:  v1906                                 |
|   \\  /    A nd           | Web:      www.OpenFOAM.com                      |
|    \\/     M anipulation  |                                                 |
\*---------------------------------------------------------------------------*/
FoamFile
{
    version     2.0;
    format      ascii;
    class       volScalarField;
    location    "14.85";
    object      p;
}
// * * * * * * * * * * * * * * * * * * * * * * * * * * * * * * * * * * * * * //

dimensions      [1 -1 -2 0 0 0 0];


internalField   nonuniform List<scalar> 
28582
(
17065.6870788
17065.7412971
12167.6282212
12167.6306909
7269.24600512
7269.12369399
3595.4755828
3595.22864573
45.8100353904
50.3129897358
-27.0466545984
3595.11117596
629.887231288
633.142449481
3595.54232949
3595.1935817
634.258321874
1759.97799156
1759.77862458
17065.5021215
17066.4627157
17068.0191957
12167.4761156
12168.5021992
12170.161349
7269.27871686
7269.69441176
3595.30605533
3596.07192642
52.3077424689
-27.0551982415
-27.0109165309
3594.08246376
3595.26893633
633.715096254
633.953174597
1758.96242631
3596.91484317
3595.94406889
3597.07612742
1760.32945387
640.762041773
1760.33298771
1761.99863647
46.8308261211
49.0017575965
-23.007075016
-22.9794586146
48.2410153299
-22.9931017275
1758.21413058
1759.0046865
630.575548991
629.255965898
1758.9040738
629.841564528
1758.5027827
1759.29793123
1759.62764218
631.858775474
632.124430266
1759.67186333
630.953922957
1759.05260192
1759.8502657
1759.91688447
635.163869732
633.182355951
1759.81840818
634.113247529
1760.0548159
1760.20272796
636.57616191
635.759973381
1759.88419011
635.937216008
634.943642192
1760.14490786
1759.2911354
634.938184974
634.029167407
1759.49450228
632.897257112
1758.80324036
633.91594831
47.1547188302
-22.9910645726
48.2030755907
50.0156933735
-22.9854056309
-22.9603445289
50.9774841169
-23.0107107744
-22.9835473217
52.7774084025
-23.0395051928
54.0303050182
-23.006517999
1759.07515453
1759.80175549
633.845295118
633.150742494
1758.50726638
1760.55489606
633.010467586
1757.57824056
1756.16722291
633.723545887
632.611908194
1757.1783995
1756.48870089
632.646088107
630.72625118
630.48667969
1757.83160562
1758.19643924
631.472968295
1757.06170406
631.615074031
1760.43409537
637.311277055
636.664772501
1760.87098665
638.319539105
1760.89578287
637.832251352
1761.54227111
1761.93025818
639.560584796
640.694943756
1761.39473453
1762.36322598
639.237336005
1760.93536698
1760.01577645
636.142433516
635.471733312
636.987146091
1761.06853341
637.509879151
638.651425413
640.257499728
1763.17020194
1761.91519236
640.563106563
1762.92365186
639.02296085
7270.8079541
3597.71037301
55.5270982002
-27.0239267456
3594.60169779
630.735398899
3598.25287228
3599.2602157
641.836938797
641.853176043
645.190209196
3599.94906416
3600.57345554
645.611030989
646.658059839
48.3114041167
54.4463017226
55.9891411634
-23.0267466433
-23.0479637552
-23.0624156031
57.1996793424
57.6918485132
1757.38625404
1757.53378754
631.745535955
631.580579421
1756.7977251
632.775088661
1757.97727477
1763.82202824
1762.44509194
642.767456891
642.094841513
1762.90858717
1763.20014489
643.172583592
1764.52014749
1764.22308351
642.036190046
643.231165137
1763.85877768
643.291054428
1765.02390386
1765.07656158
1765.975761
645.00544405
644.478082441
1765.30268198
644.350208003
1765.6220865
1765.32178686
1766.01811306
645.394145119
645.98267739
1765.330085
645.733518805
1765.95978759
1765.50750445
1766.43923651
646.361959245
646.267922223
1765.82638586
646.013925156
1766.12630765
3614.99027854
3608.9767107
3600.69759398
3598.08396449
35.5179004481
39.894035244
36.3198546216
40.2912326033
40.4739403578
-27.1572387723
-27.1550846577
-27.041277051
-27.1369850179
-27.1398375117
-27.1405870225
3621.18620881
3619.45501711
631.567287883
632.067092434
3618.90646694
631.932488778
3616.77506764
3614.16549778
631.660596119
630.981402854
3612.16064103
3611.71481041
3607.90723459
631.450196365
629.280868464
630.597595473
628.926048934
3603.10406091
3598.54339616
628.146252521
627.853724187
627.822417972
626.069395547
3605.0566241
3602.94407082
630.384400539
628.748098233
627.527946894
3596.85458117
3599.11085372
3595.83515015
627.727318632
625.555418954
626.803472669
625.350543338
626.396741745
625.751898327
32.1074134983
33.4938158178
34.9047886839
-23.0615910993
-22.9892491096
-23.0288805301
-22.9653395464
-22.9678769928
-22.9979985979
-22.9247598133
-22.916246315
34.3712219055
34.8348547673
37.4293911799
35.8198349921
37.7026420749
-23.0058897846
-22.9695646806
-23.0278550474
-22.9974743669
42.2218502877
40.0391609347
42.3936414034
-22.9032487051
-22.7898859315
-22.9123685579
-22.7931470757
38.0772860119
38.503847635
-23.0441422664
-23.0015535166
-22.9974105991
42.5724371895
40.4652756806
42.6162401744
-22.938904977
-22.8794713772
-22.9343608203
-22.8848847468
1786.6481048
1786.53763923
631.194095451
632.25280002
1786.18992108
631.874973222
1786.77267798
1785.83338153
1783.94315166
632.27188862
631.852874691
1785.19164597
1784.68158364
631.967971239
1782.01295408
1782.5476953
632.261258099
631.293385302
1783.96199351
1780.39513501
631.675162193
1782.29592955
1782.60985536
631.583185664
631.337182932
1783.43162777
1781.36692409
631.453657129
1781.2984092
1779.22176104
631.129238335
631.209528334
1780.27927361
1780.31456977
631.311787715
1777.7026295
1781.08611116
630.963399126
630.983325324
1778.90677387
1779.83024238
630.550946756
1775.14481082
1773.30513938
630.093637434
629.051645888
1776.43075187
1771.85179954
629.892487979
1776.63560116
1777.6843624
630.75179676
630.256171829
1778.74541454
1775.61646348
630.416323135
1773.99946224
1769.7048687
629.008263634
629.709609614
1770.70433494
1772.96952593
629.839697864
1765.51222785
1770.27899796
627.793118767
627.888463881
1767.53384957
1768.6172608
627.313088899
1763.30569196
1763.20672849
627.668605862
627.228700376
1765.44864065
627.0151148
1761.55822103
1764.02702166
1766.35576029
627.859747247
626.902217361
1767.36689804
1762.95410017
627.044422877
1761.61829837
1758.52666568
626.626832833
626.135548093
1760.28859861
626.54917986
1759.9821081
1773.13141313
1776.50574835
630.029987401
630.039855145
1774.43677928
1775.23343348
629.702879182
1770.49553206
1768.5569901
629.488638082
628.460288794
1771.78425517
1767.35403654
629.172980406
1769.17984238
1765.0557906
628.001864139
628.111132847
1766.18735648
1767.84604843
628.670765925
1761.00389874
1765.23911381
626.806332673
627.517585743
1761.90906443
1764.19170863
626.638239163
1758.2712746
1757.23369939
625.846672403
625.258299407
1759.14993955
625.673082715
1756.25790419
1760.23020722
1762.33729981
627.162484559
626.190208282
1763.21751877
1759.65882501
626.386713843
1757.65322163
1755.65177435
625.179872332
625.557820946
1757.3873867
625.558130253
1755.70127478
1759.40602052
1761.66062879
626.02032685
626.05312865
1759.40278146
1761.13458487
626.004869269
1756.17214284
625.688062348
1757.55627809
17064.8638893
17064.9741937
17065.8769964
17070.4095207
17073.442475
17086.2963213
12166.7451877
12166.9748102
12168.0543399
12172.3470968
12174.97041
12188.5351782
18278.696025
18284.2018704
17058.7153449
17064.6423959
17068.9637475
17072.5722936
17079.2196499
17063.2081315
18280.3787906
18284.6416517
17063.2289917
17065.771795
17068.0402529
17069.840705
17072.2092455
17086.661733
17061.5647122
17061.5341905
17063.0649988
17065.1337177
17067.3062864
17068.9099448
17069.9615039
17085.6549534
17064.1614218
17063.5791792
17064.1661838
17065.6737223
17067.7560476
17069.9465322
17072.4988859
17087.8059978
17067.5964891
17069.8291678
17072.4524565
17086.7176659
13379.3304097
13384.5974237
12164.7500545
12168.9073978
12173.9853543
12180.5434592
12244.703949
12055.8462308
13382.5868807
13386.6662319
12168.306231
12170.4090204
12171.4111457
12173.1215797
12178.1707232
12188.1607493
12162.7126569
12164.099527
12166.3654637
12168.0814714
12169.5388227
12170.5192686
12170.5670228
12180.7250952
12165.8807628
12165.5298237
12166.5307886
12168.1782364
12170.0412566
12171.7011853
12173.5747092
12190.1864778
12169.7497996
12171.5371997
12173.3362354
12188.4875819
8480.26947915
8485.94153257
7268.57425864
7270.23435918
7268.88697707
7263.49071103
7252.37250322
7194.9323777
8484.59115818
8489.42007011
7266.45887635
7268.65220503
7268.7913404
7265.6052066
7256.70707344
7252.22495358
7264.10565399
7265.67842495
7267.35179254
7268.23265581
7268.72966056
7266.71815568
7259.07004208
7279.88249598
7268.49466051
7267.23380759
7266.75884646
7267.66307506
7268.56569027
7269.44961207
7269.44451722
7266.19843862
7286.0660278
7268.13529721
7268.41596048
7269.01886497
7269.90577949
7270.89675766
7269.76074466
7287.10617206
7272.35048095
7271.83715147
7287.6138236
3584.85477465
3591.10321278
3597.160121
3599.27806465
3597.6909454
3597.19250389
3596.97332024
3577.59772762
3584.11843476
3586.60356653
3592.30167211
3596.16238502
3597.4237788
3596.47073926
3595.27536874
3593.04030438
3584.21813933
3594.20719276
3589.89062622
3588.83311381
3591.66502912
3594.7426636
3595.73164563
3596.49859015
3596.39794923
3594.32983411
3597.39169155
3593.35113298
3592.18240967
3592.12713511
3593.86176929
3595.55355857
3596.70983219
3597.17690273
3597.07544951
3602.05039658
3593.63452325
3594.63438226
3595.77457005
3596.67508064
3597.54680171
3598.50070732
3602.35756883
3599.03531853
3600.39614769
3604.40784692
46.9035458094
50.2879465473
52.5496979324
55.4551491168
59.4436822566
62.3458735825
62.1964670209
61.1740243864
44.6866796102
46.351199613
49.0769558499
52.2584369259
55.2979725701
57.9780427916
60.1107375331
59.1867183857
59.0679932184
57.9284131673
44.7127686801
48.1551311441
52.6818437134
55.9658581927
58.7488406978
59.7588001224
56.5990726321
55.4970174241
56.5441025579
56.067214597
47.8166777575
52.3252148994
57.132822981
59.1321799217
58.0071044418
55.0716835132
55.1399811715
56.090297054
56.023275556
51.4715716696
53.5579417831
54.880568079
56.1311898214
56.6681056358
57.3329069336
56.9495215231
57.4561028737
57.8025349274
56.1740675985
-27.0717246143
-27.1094996129
-27.2049288414
-27.1202103115
-27.0161206797
-27.0193431396
-27.012136368
-27.0113444084
-27.0945898066
-27.2913323081
-27.1810117993
-27.3527559054
-27.2134005154
-27.160001427
-26.9894723999
-27.2342050449
-27.0162545535
-27.0685489699
-27.0928271645
-27.2833489255
-27.4522806647
-27.0575985509
-27.1354435356
-27.0428522472
-27.0042183594
-27.032415761
-27.0606112682
-27.0317384126
-27.1241506112
-27.3061355545
-27.0690971095
-27.0786503245
-27.0284138586
-27.0025492656
-27.0222528977
-27.0147378883
-27.0386149848
-27.1154620832
-27.3249224542
-27.0618520704
-27.0153253855
-27.167237253
-27.0305705625
-27.0680899053
-27.1258839192
-27.3631524809
-27.0537436496
-27.1304108982
-27.3341510508
18281.6281788
18278.7255506
18281.6857662
15829.2409067
15832.5011869
15829.5229026
15832.368243
18285.8912068
18284.4492688
18286.3369108
15835.2219367
15832.8698199
15834.8050956
15834.8476325
18282.3199265
18282.8424674
18283.4756165
15831.2657871
15833.5522078
15833.4847618
15834.7506053
18286.2041312
18284.8867738
18286.4533805
15835.710223
15836.670563
15836.5044597
15838.3093506
13382.2366658
13380.3078611
13382.9409033
10929.3892356
10932.4910926
10930.9045924
10933.7532247
13386.3025819
13384.9075441
13387.0167697
10934.941763
10936.7425017
10935.7962624
10936.8257009
13384.7133206
13384.3431883
13385.8368406
10933.5262331
10936.0056135
10935.2447118
10936.4305797
13387.8746655
13387.5631847
13391.9434111
10937.7805739
10935.4829396
10937.6554998
10941.5201284
8483.49620248
8482.0650927
8484.91828127
6032.19400507
6035.16263768
6034.00046061
6036.46104037
8488.1124959
8487.37290605
8489.33833936
6038.1366876
6040.83234721
6038.93697907
6042.89316348
8487.1381655
8485.93354346
8487.3589622
6035.60043606
6037.95079422
6036.40619644
6038.32146723
8487.29817216
8488.8180644
8491.81345726
6040.44438311
6041.66301157
6040.44869927
6043.65237948
3581.82989686
3583.74460202
622.945065519
625.271315892
3587.77154683
3586.38155141
3588.89254782
624.350090901
630.121089334
626.54023535
632.620710534
3594.44424944
3591.81588522
3594.95686743
632.341283068
639.440920447
634.922500322
640.811592133
3598.77283511
3596.78907965
3598.02953472
641.283381374
643.843095234
642.505272172
644.418654236
3598.68327165
3598.19852999
3597.42101365
644.35455008
645.37253124
644.277968802
645.514438466
3596.88669639
3596.59667752
3596.07430553
645.826761475
647.222235553
645.912543701
646.027230705
3598.16428129
3596.01441923
3596.47170493
647.575079432
649.188351327
645.716470649
645.265661692
3590.35123977
3595.86323993
3589.84078807
649.417948499
648.193929339
644.995638398
643.934655893
3569.96629394
3578.98438306
3587.74060443
651.915435921
596.475050949
646.141796004
609.388464048
3594.48032831
3590.86717724
628.49616342
627.146880273
626.509984936
628.340049916
3584.43895233
3587.76670896
3586.43838048
626.254606807
626.249554899
628.271232041
629.973520661
3589.35355602
3587.18598691
3589.37328733
627.519800906
633.613142441
631.228382895
635.884119326
3594.8396419
3592.03354521
3594.46083163
635.819307509
641.647864144
637.833212189
643.58482437
3597.08789231
3596.03733768
3597.01039866
643.392541374
644.930399776
645.068741862
646.44078096
3596.90928852
3597.22581032
3597.04158262
644.71910934
646.143311078
646.146429309
645.812211435
3596.00508345
3596.77719129
3596.44260354
646.220512281
645.595677375
645.503042747
644.572472016
3594.51302318
3595.85244979
3595.23491134
645.337406682
644.349224247
644.123719973
642.034699721
3589.51454586
3594.61965358
3593.46717543
643.903480523
642.965467555
641.461388771
641.957355092
3605.216638
3592.93093872
3615.70469112
645.099419418
613.553006196
644.317322444
616.665302186
3592.07689323
3593.98577983
3592.81683197
625.740151687
628.03036395
625.357484981
627.820882817
3588.76594433
3591.53587727
3590.87498406
628.333950884
631.532392856
628.921145041
633.516227665
3590.01008457
3590.61830558
3590.90445707
632.924255855
636.984091388
635.075468754
638.691618272
3593.41594533
3591.56541936
3592.70282745
638.563007973
643.913847567
639.667327723
643.317094238
3595.48353031
3593.96923357
3595.07497645
645.294164851
646.667576103
644.573315936
646.236611714
3596.0045617
3595.61394344
3596.10759958
646.401217501
645.076493825
645.881462981
642.554417539
3596.96021013
3596.76632655
3597.41181111
644.665157055
644.17237011
641.808713562
642.381635896
3595.34264093
3597.05473593
3596.18243818
643.726734798
641.517031839
642.377458733
641.860734624
3594.61363946
3595.68396365
3596.977067
641.11239548
642.056686279
641.940632582
643.286727811
3619.74645897
3600.52753794
3619.30661464
644.495641144
617.22657808
645.624331878
614.436128214
625.989745461
628.470982215
3592.71164792
3594.72828962
629.465773844
633.609000743
633.543786064
3591.97115213
3593.86207729
3593.04869214
635.029013247
638.29274761
634.235988784
635.412882599
3592.81082554
3592.82220276
3593.28228692
639.24918466
643.059180931
636.085422176
639.898874529
3594.94327833
3594.25521159
3595.08828849
644.24277495
645.659572007
640.922475637
642.246810348
3596.1207653
3595.57173401
3596.07838134
645.224195112
642.071657697
642.113895169
641.254890299
3597.17618406
3596.51977981
3596.92229219
641.429984796
642.195531136
641.07447285
642.303571368
3596.91236752
3597.27164974
3597.47356818
642.464803061
642.362612044
643.060828724
644.021726607
3598.52596554
3597.78431146
3599.0864023
642.339936441
643.653280344
644.156775752
645.209707087
3618.45010876
3602.22982119
3618.00955438
645.85076226
614.193416348
646.514211584
613.154498625
3593.93612956
3594.58846159
634.473888653
638.45991827
634.351377998
3595.31810387
3595.02829854
3595.52536859
639.557470081
640.896547848
635.469122172
637.401953518
3596.26909634
3595.97827076
3596.60668325
640.983517731
641.013428599
638.033497876
640.545983664
3597.03308268
3597.08192249
3597.51941633
640.997898811
642.572502905
641.192744884
643.606567592
3598.0471695
3598.10290881
3598.67331956
643.391264932
644.399697465
644.243471851
645.152759993
3599.66465742
3599.30051726
3600.58895908
644.636834889
645.685876141
645.521889363
646.119093899
3617.58052336
3603.06941873
3617.57336774
646.785232578
612.916454857
646.367464026
614.350010978
3598.39986558
644.204450759
3599.69507239
644.659446372
645.461417506
3601.80662247
645.883121659
646.34858779
3618.07232837
646.362516297
614.983961207
-23.0395157883
-22.9984661297
-22.9514788445
-22.9482179809
45.3207244467
45.4516084856
-22.9829096928
-22.9486162264
-22.9306292666
-22.856724907
48.5627065706
47.6150465399
49.4229706032
-22.9504145111
-22.8841636773
-22.8537340346
-22.8502223861
51.648124599
50.8805170583
52.2520399379
-22.8133857828
-22.9116636338
-22.8511078263
-22.8993907216
53.9622143426
53.5627147472
55.1192571508
-22.9318389634
-22.9391700545
-22.9045577933
-22.9004767183
56.9451397074
56.2850296137
58.0815080129
-22.9273260353
-22.8888754912
-22.8853065434
-22.8660893227
61.4563132781
59.9041579953
60.763151525
-22.8386597988
-22.8346000696
-22.8466330521
-22.862644123
62.4255310535
60.9175959252
60.8182304632
-22.8514276761
-22.8925444911
-22.8781125109
-22.9161797987
60.7864267651
60.7233467322
60.4581103596
-22.9540479576
-23.0359026831
-22.9712715187
-23.0410025941
70.6981385157
58.4086889147
65.3530708894
-23.1217226197
-23.0167803721
-23.1160746197
-23.0506419872
45.6081113108
44.6841093185
46.1474254348
-22.7714610831
-22.7421245529
-22.7496555067
-22.7424659774
47.3553485261
47.3875346501
48.9902121983
-22.8464890455
-22.8534548817
-22.8699018354
-22.9118237164
50.785586606
50.792155676
52.3998099071
-22.8116859888
-22.828071758
-22.8680006981
-22.8681247853
53.8453887609
54.0799560103
55.6796727393
-22.8595354345
-22.9135667655
-22.8935938609
-22.9328197766
56.4976564776
57.0431275821
58.1036406709
-22.9247712022
-22.9052928021
-22.9332436709
-22.9123061725
59.4964276103
59.2103792011
59.5928181276
-22.8452057049
-22.8411364689
-22.8682461977
-22.8708287837
59.7978637554
58.8260229747
57.9430648111
-22.8621201917
-22.8989722234
-22.8616471878
-22.9057795701
58.9968206031
57.2961718034
57.2251242829
-22.9256185594
-22.9569651639
-22.9443586846
-22.9831168418
59.5258531751
57.5647479134
58.3857832268
-23.0102431275
-23.0686582662
-23.0358890509
-23.0853456923
65.8527005828
56.9081774827
64.0760365863
-23.1250456955
-23.060620576
-23.1316477685
-23.060998114
46.353317177
44.7650985664
46.5004655799
-22.8905599818
-22.9786490458
-22.9351488501
-23.0504172427
50.5297037575
48.4335512884
50.8112720404
-22.9533223494
-22.9425340616
-23.0209873193
-22.9871184054
54.4079256889
53.2743063529
55.6329895155
-22.9031739111
-22.8712495084
-22.9362159133
-22.893706196
57.6248418866
57.4145116988
58.6171788691
-22.8716942343
-22.8819289009
-22.8660216426
-22.8614921386
59.3628225421
59.4035855667
59.8036975861
-22.8661072062
-22.8633935486
-22.8464224878
-22.8561895038
58.6830968088
59.3591216517
57.539233688
-22.8703500186
-22.8825382845
-22.8847125135
-22.8874440197
55.5444370651
55.2447611448
54.4371654312
-22.8991963481
-22.9272209687
-22.9151730272
-22.9465254038
55.9900137142
54.6934890345
55.4428991605
-22.9540521759
-23.0070228317
-22.9745627949
-23.0321350476
57.5728386698
56.1096330117
57.0346265261
-23.0618948951
-23.1033359441
-23.0786805293
-23.1118709567
62.7320525624
55.7560871447
62.0463854057
-23.1487270061
-23.0665884599
-23.1550300512
-23.0719477117
49.8636317547
48.0796151372
-23.0337296929
-22.9852821394
-22.9871426875
54.9750451585
50.3042229688
52.7413787077
-22.911871689
-22.8626887282
-22.9251498553
-22.8794730981
58.4790253171
54.672711494
55.952089985
-22.8335553671
-22.8222432878
-22.8519724984
-22.8484560898
59.0280465885
56.5652021683
56.7481367189
-22.8254570646
-22.834295538
-22.8491434318
-22.8551427232
56.3027320944
56.2944595224
55.7466615411
-22.8878467873
-22.9020390674
-22.9082814112
-22.9353940224
54.761549442
55.5694305489
55.5606233756
-22.9472120167
-22.9805929534
-22.9816519037
-23.0181956355
55.6871778966
55.9183854359
56.3389672128
-23.0124886045
-23.0555698471
-23.0360773519
-23.0659538062
57.0747197608
56.5996188508
57.8839762425
-23.0893149385
-23.1155338401
-23.0962876625
-23.1191780997
61.9523110329
56.6343229598
61.9395615392
-23.1573575753
-23.0715966977
-23.157115818
-23.074887285
52.6074930479
49.5316218516
-22.9484108659
-22.9471673937
-22.9821796739
-22.9800915593
54.3352403122
50.8011423307
52.2756780889
-22.9381809123
-22.9157044274
-22.9681340802
-22.9472093305
55.5704341771
53.8423442519
55.1984155117
-22.9686561694
-22.9813598803
-22.9708623293
-22.9915985779
56.342557894
56.2216571666
56.8021233499
-22.9853838422
-23.0204135615
-23.0044090878
-23.0329243654
57.1471522428
57.2333447794
57.7435809351
-23.0389596079
-23.0612960107
-23.0461379799
-23.0678593253
58.6872119161
57.743806625
59.0769258895
-23.0910463965
-23.1144662369
-23.0969457088
-23.1202898728
61.697751652
56.5083307787
61.250521062
-23.1540993184
-23.0777176703
-23.1572163654
-23.0819260371
56.6827492558
-23.0448614297
57.9310467024
-23.0595532428
-23.0807144586
-23.0771672426
-23.0933766533
59.0888983173
-23.1084153146
-23.1304464343
-23.1166161439
-23.1380410908
60.8550337315
-23.1601718292
-23.0836393576
-23.1657822925
-23.0913475512
1745.91881008
1745.87679211
621.391477675
623.504974479
1746.88180597
622.095642438
1744.83123626
1747.13031623
1748.81540242
624.220992264
624.495563327
1747.88868844
1748.25526722
623.200879203
1750.11777034
1747.26274945
626.124664874
624.994147854
1748.44879557
626.650523287
1748.95520132
1752.10530404
1753.35989519
628.054508532
630.848936672
1754.31255041
628.685913462
1751.01219446
1751.10960555
1749.99560588
625.67641872
628.464919087
1749.35153229
1751.65717044
627.516391262
1753.12396643
1755.81702284
631.714611034
630.561094138
1755.261369
1753.68618465
629.635762115
1759.1121777
1755.81652859
634.726985308
633.087673333
1756.64266242
635.440047845
1758.41049782
1761.19955053
1762.45680479
637.278754334
639.832516092
1762.77760862
637.764745849
1760.65694261
1759.62817732
1757.9030537
634.033470038
636.923459489
1757.41639515
1760.0085187
636.158508905
1761.56098035
1763.19374158
640.260177198
638.896985515
1763.03091905
1761.83777309
638.18517496
1764.87126396
1763.6923948
642.504847464
641.566908103
1763.9067442
642.956916531
1764.98498479
1765.67631904
1766.07162041
643.268041375
644.161941791
1765.93366281
643.674175114
1765.79496699
1764.79111437
1764.16602618
641.967730242
643.612303746
1764.17000563
1764.66558902
643.159044025
1765.03526693
1764.63250104
644.202144584
644.346496464
1765.35345136
1764.71839384
643.960026265
1764.97059471
1765.84863283
644.837489352
644.470303026
1765.63689593
644.675102696
1765.28925076
1764.13258282
1763.60496475
644.995597126
645.054751503
1763.17050106
644.688765753
1764.51689625
1764.51885678
1764.52509954
644.210215088
644.514693993
1765.04350553
1764.24351
644.485676832
1763.71776084
1762.75498986
645.115120629
645.007904132
1762.77122532
1763.52939772
644.764449795
1761.39458341
1762.66879042
646.267480086
645.60839155
1762.31639782
646.143257515
1761.55514719
1760.72231894
1760.38690459
646.703365676
646.886867089
1760.31105681
646.542479055
1760.77972652
1761.21211357
1762.12261839
645.56386185
646.238495484
1762.09819208
1761.24054085
646.028778886
1760.57500069
1760.14957511
646.418721894
646.156450098
1760.08469256
1760.61551173
646.288508153
1760.6911247
1760.72727155
647.990111942
647.040581344
1760.39269981
647.142271693
1761.52430838
1761.14422735
1763.49152953
648.654091091
647.882992276
1761.58791446
647.570972394
1762.41770047
1759.9483887
1759.75721493
646.346222434
645.505958398
1759.85407555
1759.58942238
646.286986467
1760.10397078
1759.21401174
646.443712745
645.433148187
1760.13130426
1759.51470026
646.412597419
1760.95092
1763.84823673
649.059402321
647.864493101
1761.37459607
647.393719211
1763.72204878
1760.00541874
1759.78592484
648.240828955
646.598136505
1758.18675996
646.575604094
1762.58564442
1759.13278444
1758.58213967
646.324049377
644.531070641
1759.72290286
1757.77693799
645.877816696
1757.98133028
1754.8150336
645.38589301
643.909521974
1756.11817103
1756.49325432
645.200148586
1748.39658986
1754.424106
668.508500905
649.724325905
1754.237713
663.525897028
1746.48539698
1734.42494332
1735.86316514
713.412387193
626.241325047
696.54746447
1741.21489628
1730.52171363
1745.82340056
1751.46421118
648.249001084
652.995318862
1752.24305913
1746.11056676
655.833907081
1729.52038986
1759.74544441
585.130467704
662.82433467
1732.34560572
664.362868981
1749.3753208
1757.47039521
1760.23647374
628.272924543
628.049288588
1757.41388375
628.31247855
1759.39067362
1755.70483841
1752.77238972
627.908736809
627.820445096
1754.96785176
1753.8507161
628.411442433
1757.17563232
1757.34299723
627.185486601
627.267573857
1756.54754229
627.763704736
1758.41051398
1755.92413839
1754.5177953
628.282455998
628.077148754
1754.42192327
1755.64996072
628.388139444
1750.83769331
1750.982408
625.777375778
627.180117454
1749.68838456
1752.16687054
626.908307398
1750.1138456
1749.40790025
625.648241988
627.276723159
1749.19610949
1750.12059714
626.807892028
1751.63948925
1753.23002848
627.925075506
628.546201667
1752.90919088
1752.11864734
627.837833897
1750.94363186
1751.36444045
628.706358281
629.026266712
1750.76450963
1751.49732343
627.95768217
1751.97525369
1750.29753371
629.438685524
628.576486797
1751.8633302
1750.6975742
630.336587792
1753.81741992
1755.91505134
631.540023795
634.232764783
1753.85629637
1755.76929376
632.27275059
1752.2714621
1751.70319398
629.943021773
632.652857589
1751.13061563
1752.66571914
631.522813619
1753.87255304
1755.51849975
635.081790892
634.172522601
1755.63944482
1753.97630409
633.24858879
1759.77555605
1757.93772589
637.877998387
636.391066624
1759.99864696
1757.74711291
638.473225406
1761.57968044
1763.2006654
639.842746108
642.334628986
1761.78172217
1763.03473443
640.547076864
1759.40565869
1757.15303328
637.196591792
639.769337858
1757.50540185
1758.90906802
639.234884582
1761.19796165
1762.09168273
643.124456372
641.802956345
1762.76646422
1760.60008786
641.30537398
1764.36753913
1764.17622774
644.530172859
643.924425144
1764.66195534
1763.99897575
645.056514199
1764.34565784
1764.47284595
645.111261222
645.316107952
1764.61671541
1764.19724823
645.541397814
1764.11552026
1763.07838233
644.646365196
646.053017725
1763.7775105
1763.37748057
645.686899755
1764.08223662
1762.98906541
646.015168359
646.46488342
1763.83217371
1763.28664035
646.204100823
1763.72409446
1764.42091287
644.983355492
644.962885289
1764.12693772
1763.9333488
645.283441108
1763.42073214
1762.93732631
645.749510562
646.348727862
1763.63287754
1762.88823731
646.067272435
1763.39147517
1762.72239388
645.622988426
645.927243723
1763.57168968
1762.47323954
645.716970985
1763.26148429
1762.5274609
646.279712763
645.918961069
1763.01158162
1762.47804173
646.199912369
1761.23257088
1762.10384263
646.088840257
646.240103004
1761.09570159
1762.1235746
645.891588384
1760.76134339
1760.15578804
645.758505786
645.146761329
1760.49819218
1760.48073199
645.418247571
1761.8351329
1762.56206736
645.984557398
645.226414617
1762.38917543
1762.71967196
645.673853355
1761.55498049
1762.39579908
644.797881747
644.963204311
1761.20451502
1762.76053682
645.234346575
1759.87686847
1759.8566804
645.03680193
644.91331252
1759.60631808
1760.2470571
644.568491523
1759.30930393
1758.67767445
644.752947598
643.44657573
1759.27766308
1758.43151404
644.082442654
1760.11245211
1761.65751074
644.468971098
643.589077416
1760.71539222
1760.74840985
644.040754537
1759.3601254
1758.56643544
642.59802388
642.815963281
1758.33864276
1759.74515534
643.381271391
1756.42118372
1757.81349327
643.41568965
642.87373934
1756.81658322
1757.39075
642.402994072
1755.47279659
1754.56678143
642.910988196
642.187126023
1755.64714504
1754.80030824
641.989793499
1756.50479998
1757.5145375
642.002235667
641.13907871
1757.3269702
1756.72878487
641.608826997
1755.85827962
1756.24358033
642.054540275
641.187153588
1755.55313307
1756.27546891
641.515241673
1749.70665422
1752.70611267
651.730658285
644.25004185
1748.48519133
1753.53315505
650.793743192
1738.44423552
1766.15985584
660.162151346
614.883492788
1736.79318919
658.893763318
1769.2620322
1751.51827769
1755.77197744
644.399367237
650.577211995
1754.87086637
1752.43145113
650.881652012
1740.310702
1770.62179415
615.392975658
657.969999911
1740.86446435
658.63271687
1770.63099258
1754.84276555
1756.20341623
626.494731468
625.237003707
1755.65090823
625.925811099
1755.23127069
1754.51840041
1754.27676608
627.569541681
627.708339646
1755.05616996
1754.07539442
627.110766897
1754.4451846
1754.77074395
625.106500355
626.02141092
1754.55102398
625.792627653
1754.71949469
1754.36836511
1754.75240547
627.633037514
627.06129436
1754.2384109
1754.66164771
626.908295772
1752.95916387
1753.34204742
629.202303031
628.449399344
1752.48291476
1753.4606042
629.647623219
1752.92993689
1752.25136043
630.270749208
632.510831871
1752.18765992
1753.17747151
631.069628247
1753.71415299
1754.71849636
628.72510048
630.363846055
1753.94777967
1754.58748296
630.0821697
1753.85104154
1755.18903956
633.164425481
632.029172625
1754.17928176
1754.8272216
631.667781341
1754.21808994
1752.61577753
634.283965708
633.973733972
1753.40380048
1753.58593509
635.305743717
1754.89198205
1755.52018845
635.576615291
637.79825387
1754.38321572
1755.67474504
636.534417346
1755.01029247
1755.53429368
634.757065948
636.448739836
1754.57954862
1755.76506016
636.15317064
1755.36098359
1756.00662211
638.532720748
637.662355753
1755.78107952
1755.87909926
637.380684632
1757.97170302
1756.81545065
640.301596002
639.163124664
1758.32605705
1756.69200413
640.739269548
1759.2404926
1761.19814434
642.262505545
643.888570021
1759.83931827
1760.35661796
642.398057323
1757.50829019
1756.46540329