/*--------------------------------*- C++ -*----------------------------------*\
| =========                 |                                                 |
| \\      /  F ield         | OpenFOAM: The Open Source CFD Toolbox           |
|  \\    /   O peration     | Version:  v1906                                 |
|   \\  /    A nd           | Web:      www.OpenFOAM.com                      |
|    \\/     M anipulation  |                                                 |
\*---------------------------------------------------------------------------*/
FoamFile
{
    version     2.0;
    format      ascii;
    class       surfaceScalarField;
    location    "14.85";
    object      phi;
}
// * * * * * * * * * * * * * * * * * * * * * * * * * * * * * * * * * * * * * //

dimensions      [0 3 -1 0 0 0 0];
oriented        oriented;


internalField   nonuniform List<scalar> 
92311
(
0.202772090325
-0.000220031367082
-0.00119194952146
-0.202377370168
0.00101726025584
-0.000168228729094
0.203019615364
-0.000886915633362
0.000808031017612
0.202837236913
-0.000367506437957
-0.00124524824901
-0.202510667183
0.00106661831461
-0.000192256550988
0.202993163226
-0.000906313376328
0.000775082760247
0.202954081672
-0.000189763630517
-0.000163155513418
-0.00115990839625
-0.202428808789
0.00096184427741
-0.000166100152753
-0.000175401193222
-0.000113449340083
-6.62393621979e-05
-6.58227613553e-05
0.203279078799
-0.000876148375615
0.000740195348887
-0.000135417210278
0.0509629220396
-4.57067453164e-05
-3.54551929233e-05
-4.04327101465e-05
-3.69595900869e-05
-0.000357588850552
-0.0509340444402
0.000297524060955
-0.0509636480869
0.050997637683
-2.81586269255e-05
-2.49173442834e-05
-2.18724415495e-05
-2.71472447837e-05
-0.000306685531027
0.00026136201736
5.72840351476e-05
-0.0219337863139
2.85142601429e-05
5.00523911921e-05
2.73166141347e-05
-2.69957896033e-05
0.0191752481324
-0.000365076575641
0.00298741194419
-0.025594678119
-0.00612423609056
-0.00087904151198
0.025842986515
5.12033427111e-05
4.60468957731e-05
5.59263365812e-05
5.16843290987e-05
0.00655029171642
-0.0178014403133
0.0041621403307
0.00356695710691
0.0034734244383
-0.0235998428268
0.0311179264448
0.0481853420789
0.00364407995474
-2.5466373653e-05
-2.85200265596e-05
-2.44914690551e-05
-2.83162855403e-05
-0.000327392072973
0.000270314256501
3.99682940586e-05
0.0116136434065
1.87621781152e-05
-6.7892300394e-07
-0.0116144844209
0.0115686217198
-1.18210072652e-05
1.97286806472e-05
-0.0115916445578
-7.27450826644e-06
2.24679912562e-05
0.000242270091844
-2.32837549169e-05
0.0510487507538
-2.04030932395e-05
-2.33501440976e-05
-2.12782264555e-05
-0.000271319288212
-9.5435928639e-06
0.0510045846683
-1.29551098538e-05
-1.37465945672e-05
-1.82056559459e-05
-0.0509718380462
0.000198228578609
-3.03194432144e-05
2.28373120701e-05
0.0115582201068
-1.01583432359e-05
2.80051999277e-05
4.06675482508e-05
0.012744607205
-4.87926514591e-05
-1.67523566739e-05
-0.0127430077469
0.0127291889486
4.48396769465e-05
-1.06249201666e-05
-0.0127322650582
-0.000321878828997
0.202782616831
-0.00183985272163
0.00164832368445
-0.202269208965
0.20303947481
9.8373780688e-06
-0.000511488423854
0.000483090609925
2.36412537583e-05
0.203101243704
-0.000388060450988
0.000303837367651
-0.000546105246712
0.202890314372
-0.00188540554568
0.00165421434137
-0.202434511316
0.203116534739
5.64327459055e-06
-0.000658348468113
0.000540380851728
7.585207545e-05
0.203240015575
-0.000497493568691
0.000322975526688
-0.000238527905844
-0.000269158161086
-0.000258463435345
-0.00182650811425
0.202892810835
0.00169094157166
-0.20232167967
-0.000215334400255
-5.02910164767e-06
4.15672079049e-06
3.02069504461e-05
5.32050055553e-05
0.203352570779
-0.000588980550887
0.000439140760223
0.0509819695403
-9.27942660574e-05
-7.46242549657e-05
-9.09895402269e-05
-7.69227328754e-05
-0.000444590633857
-0.0508909075428
0.000450450127174
0.0510960644543
0.000224378583444
-1.53261680422e-05
-1.18338469343e-05
-5.18650781764e-06
-2.50337915113e-07
-0.000244147644861
-0.00752062747629
-0.00102238464475
-0.0242158163662
4.06404448041e-05
3.30724980669e-05
2.94826816202e-05
1.86959891155e-05
0.0070421739217
0.00049790182064
-0.000267465281038
-0.000477852755952
-0.0126744811923
-0.00200528534136
0.0379524959174
0.0226445171669
-0.000475592030408
0.00600979592505
0.00288577598839
0.00644707380044
0.00362595240988
-0.00341988359325
0.023033315353
-0.011127162539
0.000410153187748
-8.81038915285e-05
-8.51819090716e-05
-8.73848950851e-05
-8.45571291267e-05
0.0510252824991
-0.000377165532386
-7.54522208013e-05
-6.48818455554e-05
-7.8981169091e-05
-7.27130663115e-05
0.0509899051861
0.000398655153714
-0.0509446668398
-0.000114656376198
9.88765638177e-05
0.011491750719
5.6184857179e-05
-6.80978675316e-05
-0.0114641648644
-0.000100116366407
0.000104883441251
-0.0115249744733
1.37394600605e-05
-3.30267786476e-05
0.0115393141227
-9.15011735987e-05
0.0127502860041
-0.000119867553744
0.000113993536516
-0.0127283459148
0.000182302420533
4.23780759713e-06
8.6652697309e-06
4.79121549879e-06
1.30069017961e-05
0.0511179953318
-0.000230803635377
0.0510404384745
3.46155925186e-06
1.39543383214e-05
3.28542114857e-06
1.0775015637e-05
0.000187276717934
1.85821065061e-05
2.31666453666e-05
1.69285481784e-05
2.09486376552e-05
0.0510423474251
0.000154190612811
3.55769722376e-05
-4.69140269404e-05
-6.54437963506e-06
0.0127471845303
-3.31862920932e-05
-1.4494363388e-05
-0.0115356840392
-2.38564044847e-05
0.0115415156146
6.57721171909e-05
4.23153898809e-05
-5.81440899915e-06
0.0127316873757
-0.0127218339511
1.66469942001e-05
0.0127209652381
-3.71288796093e-05
3.99509254973e-05
-0.0243409727297
7.84935909798e-06
1.05241807577e-05
7.91415846085e-06
0.00324613630873
-5.84972343174e-05
-0.000819382488773
-0.00118540692428
2.32059114556e-05
1.48602789835e-05
2.40466257336e-05
2.47661940207e-05
-0.0141153490847
-0.00296014406082
0.0120495738445
-0.00702041985405
-0.00566705612484
0.00775659276796
0.00790342345541
0.00683878629
-0.00498844137604
-0.00618190929708
-0.000875906834764
3.16578050973e-05
3.1074686313e-05
3.56431950345e-05
0.00501696369632
-0.00276794479754
-0.00690994305311
0.00897424072064
0.00737263543759
9.47301808907e-05
0.0127508385447
-0.000100517091744
-0.012750828197
-0.0127417455966
-1.45230986507e-05
-8.57443860003e-05
0.0127311589324
7.54038767346e-05
6.62878260271e-06
1.85977850055e-05
0.01160809397
8.8530620309e-06
3.0297299483e-05
0.0116376852667
-0.0116365622088
3.7405068628e-05
-0.012741150055
8.39531486673e-05
0.0116347346104
2.22330219717e-05
0.0127394454028
-9.27728560881e-05
0.0127230364626
-7.26264223852e-06
-7.44317616344e-05
6.43088076625e-05
6.85673659667e-05
-0.0127295956808
0.0127271064244
-7.49553336569e-05
-5.86826887859e-07
9.49741206152e-06
1.53467781733e-05
1.61649224608e-05
-0.0116196980289
0.0115964452221
1.03466684936e-05
0.0127228130895
6.0358186707e-05
1.50547943876e-05
-8.35490733065e-05
-0.0127273119646
-2.85920841547e-05
-5.58752740695e-05
0.0127328857859
5.07279277769e-05
6.18253683681e-05
0.0127306029807
-6.74793654293e-05
-1.00242096601e-05
2.67113824268e-05
0.0115399502942
3.31805638294e-05
1.98035923055e-05
0.0115843940226
1.30575936312e-05
5.51703751715e-05
0.0115644700416
1.6937607711e-05
0.0127357690124
-6.15513396296e-05
-1.77158123979e-05
-0.0127445951501
0.012747060352
-5.39560300416e-05
-8.08461152271e-06
-0.0115378052263
0.0115342024137
4.51139178214e-05
-0.011558307033
2.54350968332e-05
0.011554022822
-2.8231015649e-05
-5.32544933974e-05
4.80021126866e-05
-8.61007981083e-06
2.62784997404e-05
4.0347454279e-05
2.09359869723e-05
-5.70858474435e-05
-7.60428549359e-06
-0.0127288311521
0.0127237556253
4.45536829219e-05
3.98243362951e-05
-0.0115948183447
0.0115930247758
-0.0116088782294
0.0116072967829
4.87445539148e-05
4.72656619438e-05
-1.91602528303e-05
-0.0127261243027
1.89155679673e-05
-3.49158580204e-05
-0.01161726993
4.84051814223e-05
-0.0127255352051
4.45404194007e-05
-0.0116031607602
0.00118302138011
0.0029653907647
0.000109013821196
8.43842104188e-05
9.82410597644e-05
0.000123584325507
-0.0226794928991
0.0169487110455
0.0011673343019
-0.00858871694298
-0.00804945507651
0.00873255692728
0.00958612648279
-0.0176738533977
0.00199729325004
0.0001263666283
0.000123425017319
0.000131710883471
0.00421121694288
-0.00310727885834
0.0140775658743
0.00201473216916
0.000116219733533
0.000102825777122
0.000128173227502
-0.0224148187415
0.00524488993104
-0.0147331804926
-0.00880057098562
0.0168479541056
0.00841806179592
-0.00844773606582
-0.0133432814098
-0.00125910809796
-0.0165558113931
1.40513201861e-05
1.45634331974e-06
-3.9327124792e-06
1.04565125232e-05
-0.00384323493237
0.00116439272843
-0.0027692365038
0.000685139597208
-0.002077318584
0.000116898402152
-0.00125754977743
0.00699435181102
-3.24214782382e-07
-1.29471908911e-06
1.00076110694e-05
1.09108481572e-05
-0.0181024354943
-0.00420895265364
0.00149549455352
0.000511193624582
0.000408801530434
-0.00117794580322
3.02554258215e-05
8.5700990668e-06
8.94168028526e-06
-0.0217679027718
0.00564322798854
0.00170183541899
0.000165594405883
-0.000101095201596
-0.0127099717542
-0.000125380467679
0.0127285818173
0.00011510638193
0.0127135148273
0.000102202451552
-8.96238317222e-05
-0.0127016726981
0.000121063096588
4.404152685e-05
0.0115112236013
-5.82846541644e-05
0.000103821180571
0.0115020520277
-0.0114767135184
5.03983562347e-05
0.0127286625552
-8.58202383571e-05
-0.0126948997798
0.000114371865121
0.0115185416961
3.39547092437e-05
-0.000101433907113
0.0127500545307
-0.000124704293747
0.000116727543415
-0.0127469015901
0.000102124808765
-8.58603758504e-05
0.012750421913
0.000122028464401
2.92691395111e-05
-4.87068131225e-05
0.000102898918274
-0.0115332884346
1.51683682851e-06
0.0115454064502
-8.47285627235e-05
0.000114708371526
0.0127560511956
1.79774970884e-05
0.0115681041584
-2.20750799562e-05
2.88129164792e-05
-0.0115572880894
6.21589568114e-05
-6.53689579018e-06
0.0115817828259
1.50618305077e-05
-0.00011471860718
0.0127561115535
0.000106274589701
0.0127547434954
-0.000105045535379
-0.0127316531467
7.95784817746e-05
-0.0115555772232
0.0115692598354
0.0127617330189
-0.0115411007031
-7.14781016077e-06
0.0127503075262
-5.48512470573e-05
-1.02573131297e-05
0.0115312700457
4.67104720556e-05
0.0115475436549
2.2747659772e-05
-4.21740625052e-05
8.42764772099e-06
0.0127462746986
2.94862614785e-05
-7.65564081714e-06
-1.22070871912e-05
0.0115324732411
4.81265833562e-05
0.0127528047108
-5.26299401462e-05
0.011543676824
1.8795053615e-05
-4.4021027467e-05
0.0127446838361
2.18082153751e-05
2.80550241438e-05
-0.0127537659584
3.70752361947e-05
0.0127580380894
-4.71936130695e-05
-1.16517467788e-05
-1.53426344717e-05
5.40289150878e-05
-2.8131178843e-05
-0.011544783594
8.19644007207e-06
0.0115494403843
-5.19116836609e-05
2.07012911524e-05
0.0127459362573
1.43970625192e-05
-0.0127258802713
1.40303857758e-05
-3.94278760164e-05
4.34141859756e-05
-1.32219395848e-06
4.47297127158e-05
3.93676208931e-05
0.0115845936508
0.0116003212054
4.64542543771e-05
-3.71417303348e-05
0.0115996419186
4.79287933236e-05
2.94235764493e-06
0.0127295328723
0.0115796309461
0.0116013153322
-3.21878988493e-05
4.66641826268e-05
-1.85276163762e-05
-2.85495099869e-05
0.0116027185439
4.43003390888e-05
-2.9570320297e-05
0.0127224797866
3.27300362786e-05
0.0127289176485
8.41638610665e-06
-1.02715777958e-05
-0.0115812111265
0.0115810769191
0.012730696926
-2.48787005354e-05
3.04544731999e-05
-4.8296322212e-05
-0.000392088824134
0.20368233875
-0.000100334702935
0.000281822599821
0.000150884373835
6.99643163175e-06
4.61953845558e-06
5.8038319611e-06
8.84929959873e-06
-0.000209625724621
0.0511255853648
3.57758333382e-05
-0.0049399309494
-0.00130542310889
3.09194592981e-05
2.32049552429e-05
3.21631341865e-05
0.00154051912231
-0.0171851289625
0.00445319663088
0.00534138458321
0.00484037086925
0.00140654032748
0.0263019817886
0.0043543493003
0.00203533780982
-4.71064290047e-05
-5.25852377283e-05
-6.11709722868e-05
-4.06319362255e-05
0.000209495571005
-0.00038196783424
0.0510063457681
-5.00730286991e-05
4.40842035609e-05
1.119756822e-05
0.0115759559768
0.0510420046144
1.11124981565e-05
1.70211122615e-05
1.40172446784e-05
1.32684305892e-05
0.000126497048266
0.0510485995213
-3.61016457675e-06
-1.4314360752e-05
-1.49903249475e-05
-1.76723880237e-06
-9.23269741649e-05
7.23491499002e-05
-1.17971300416e-05
0.0115428709219
-3.8076601108e-05
8.42506165781e-05
-8.6782557675e-06
-1.45349453865e-05
-2.3976596312e-05
0.0116066093637
4.33250452657e-05
0.0115946064128
-3.72473855252e-05
1.95680868757e-05
-9.74823260363e-06
-0.0116025698213
3.54788291674e-05
0.0510761365898
-3.74421390269e-05
-2.87920741851e-05
-3.14737606925e-05
-3.6857460017e-05
0.00012043398523
-1.80217100219e-05
4.73087205883e-06
-3.23333785697e-05
-3.28171704426e-05
-2.99221173258e-05
-3.32619727261e-05
0.000109827033604
5.54852309627e-05
0.0510839766995
-4.46784923646e-05
-4.25177031657e-05
3.2161907758e-05
-2.04177430905e-06
0.0115783144342
2.86684591751e-05
-2.41962125503e-05
3.54703044667e-05
1.78611175788e-05
-0.0115352447561
0.0115074642087
-1.30912172474e-06
5.31991577535e-05
3.09293954661e-05
3.43184638668e-05
0.003397239657
-0.0268213360987
0.000548673568201
-0.0172245586541
-0.00128322879376
2.19378519285e-05
1.28520497734e-05
2.39181133589e-05
-0.00460208836619
-0.00137080263714
-0.0138462849713
4.46453531523e-05
2.36292865946e-05
3.32606523648e-05
0.000871113163437
-0.00301756953297
0.00146755151975
-0.00163912498923
0.00502327895995
0.00476322678886
0.00126339605923
-0.00137809966729
0.00768208300733
0.00191115583617
-0.00917056427241
4.63829305155e-05
3.92145359283e-05
3.72201430734e-05
-0.00404553377551
-0.00101845821328
0.000222967324301
2.538834446e-05
2.73918798704e-05
2.82573559012e-05
-0.00620371777519
-0.000698656145448
-0.00623206614274
0.00385886833304
-0.0127603816391
-3.17509639525e-05
0.000103454338562
-0.000109016380463
0.0127505903239
-0.000109927247463
0.0127569767406
5.651190297e-05
0.0115596439211
1.75456330686e-05
2.42646291599e-05
2.05226871767e-05
0.0115709955558
-0.000113309246209
3.29772269186e-05
0.0115534750723
0.0127475031874
-2.10289088924e-05
-0.0127469537996
1.16502680208e-05
1.08462799842e-05
0.0127524956429
0.0127600613218
3.05612120452e-05
-3.97576315959e-05
-1.41145482838e-05
-4.82426827365e-05
9.23702191881e-05
0.0115438197421
-2.16083109166e-05
0.0115554707756
6.65004428242e-07
-3.29396204576e-05
0.0127637124975
1.68724776422e-05
-5.95012321595e-06
0.011557028759
-0.0127313301961
1.27242888423e-06
1.56519161514e-05
0.0127363943604
-2.41865089643e-05
0.0127225511622
2.66778519609e-05
-6.07453969903e-06
0.0115858260705
-1.92501091978e-05
-6.43357405823e-06
0.0116033976294
4.17681620725e-05
0.0115858887393
0.0127293985683
1.57512784874e-05
0.0127352025101
-6.79184224989e-06
7.52257252658e-06
-3.12894628694e-06
1.63536709749e-06
-0.0127272007391
0.0127311479194
-2.12788048044e-07
2.20669407562e-05
-0.0115847008531
0.0115806700457
1.68332834044e-05
-1.60285218479e-05
6.29368730326e-08
4.04659166401e-05
0.0127396574657
4.28465861751e-06
1.16948371846e-05
8.16846158278e-06
-0.0127371444445
-3.34950659263e-05
-1.52932684184e-05
0.012730431855
1.80749763103e-05
8.59260724031e-06
0.0127313568643
-5.34026830332e-06
3.25052019073e-05
0.0115687499488
2.37813530032e-05
2.21256210051e-06
3.43112546855e-05
0.011561559584
1.93974120389e-05
1.22334885758e-05
0.0115525031191
2.23338080628e-05
0.0127257601333
-1.20947044233e-05
0.0127272577233
-3.19686542447e-05
-1.92824925558e-05
2.21364175187e-05
2.2548793379e-05
-0.0127241111325
0.0127237771129
-1.94457613312e-05
3.22479666333e-05
-0.0115264494362
3.79458136801e-05
0.0114994818091
1.06984354465e-05
3.43301751786e-05
8.78194513072e-06
2.49068940295e-05
0.012727316326
3.30446778047e-05
-1.63978615714e-05
-0.000618933414413
-0.0491262398279
0.0491641517473
0.000747800382275
-0.000148174287201
-0.000115236023941
-0.00015050115939
-0.000113812984302
0.000360806636316
-0.000764052972728
0.049683415131
-0.000157798689718
-0.000126298350368
-0.000156066753465
-0.000132913178035
0.000443502892206
-0.0495287761432
0.000739103004135
-0.00112112643972
-0.0499459075081
0.0502730802675
0.000984964688755
-0.000147643058704
-0.000146741526945
-0.000143519570476
-0.000148484146634
0.000395389038377
-0.000891992468598
-0.000138616628057
-0.000139206648196
-0.000142914992786
-0.000141374164287
0.000385605016601
0.0503844364232
0.000826984599151
-0.0501429462387
0.00010874049232
-0.00290704188207
0.00563591673457
-0.00709448999421
0.00251845445098
0.00137666124073
0.000132696710278
0.000104814404468
0.000118014138405
0.000103406361154
0.00879459009685
-0.0104560451605
0.00524151275443
-0.000280855340236
6.08538350728e-05
9.7175362644e-05
6.35882045886e-05
-0.003638703372
0.000100662636799
-0.00243381355465
-0.0215343128936
0.00145906394524
0.000116726340837
0.000103931530078
0.000120195205546
0.0205383390528
0.00152980782268
0.000130357232808
-0.0060751649163
0.0216273236689
-0.0214053046734
0.00526055045359
7.4077028327e-05
0.000123600648646
0.000135083927861
0.000129796811947
0.000118109565087
-0.00344404552633
0.00010803113297
0.000102614466302
8.9985268127e-05
-0.0278013161449
0.000918136041425
0.000279944435369
0.029628883233
0.0285449223294
0.00333477679028
-0.00753423970425
-0.00386860706553
-0.00859435696979
-0.00451302387919
-0.0423726798177
-0.00266253733119
-0.0467871882412
0.000769418309689
0.00355465193483
0.00251777352776
0.0061978427581
0.0175996369499
0.0430186573215
0.057870324023
-0.00661530809094
-0.00141805883304
-3.49047620254e-05
-0.00126126273297
0.00022583578741
-0.0258188954125
-0.0182919066929
0.00862140805117
0.0132921689442
0.00897777431383
0.0113191953854
0.0798499046683
0.067636707605
-0.00393143630502
-0.0025069620564
-0.00233621970117
-0.0332943045053
-0.00681858333118
-0.00428337042299
-0.00094861627434
0.000640567525815
-0.00196279371334
-0.00193925233611
0.0838965264084
-0.0152681752465
0.000153771062609
-8.34987279542e-05
-9.97468758681e-05
-0.000106428217606
-7.81057920842e-05
0.0488890998005
0.000379516331299
8.1842892937e-05
-0.0491362834318
0.0489348246484
0.000387546524367
-8.42974243037e-05
-0.000103382246806
-0.000108059957391
-8.94409532665e-05
0.00036703197647
-0.0491503955201
-0.000110833346314
0.000118962559972
-0.0119789306013
1.90759567342e-05
0.0119542416409
-1.92465019635e-06
0.0119830634227
4.43076599479e-05
-0.000108397121004
0.000123596608523
-3.93790061818e-05
-0.012002827561
-0.000140251798863
-0.000123526049727
-0.000119356802971
-0.000139029490642
-0.000300469681318
0.0122484632487
0.0121543914586
0.0122084326167
0.0122160603296
0.000311282416747
5.88325294337e-05
-0.000131940360657
0.000153935525578
-5.18662552908e-05
0.0119539286168
0.000541045426872
-7.03050114396e-05
-0.000100748162467
-7.65006426636e-05
-9.80779770884e-05
0.000321606811004
-0.0492556002189
0.0493351622988
-6.90934811386e-05
-9.61338028756e-05
-9.65113628502e-05
-6.81377889653e-05
0.000294863029583
-0.0493666917277
0.00060749323647
0.0119860538097
-9.33805723372e-05
0.000108266822928
-0.0120044848621
4.7658926414e-05
0.0120195567677
-8.0592313329e-05
9.87533652933e-05
-6.57829578391e-05
-0.012040672275
6.86310024959e-05
0.00101671778206
-0.000127230427749
-0.000144158285153
-0.000130803795738
-0.000142248839592
0.0493228459663
-0.000214087918417
-0.00017536525913
-0.000235692909762
-0.000191482192654
4.04819104304e-05
5.2204508218e-05
5.08640161904e-05
4.19876069486e-05
0.0493898941549
-0.000145364778478
-0.000115798744788
-0.000112480663828
-0.000147068723386
0.000449796110581
0.0496983378159
0.000941177873644
-0.000132769149588
-0.000152000508576
-0.000152559772738
-0.000135257286284
0.000339794564027
0.000130600734548
0.011961076856
6.25999270495e-05
0.0118040546786
-0.000135975512305
0.000199163452476
-0.0118621091512
0.000128218704718
-0.00013321503679
7.78670468557e-05
-9.53497960918e-05
0.000118792503939
-7.46861813669e-05
0.011993092334
0.0118283740545
0.000109535828722
-0.000131179838656
0.000194090929917
-0.00011262095939
-0.0118882257225
0.0500265804435
-0.000114553087747
-0.000131254445218
-0.000130342975453
-0.000121119413197
-0.00120500507997
0.000253060518345
0.00128774996485
-9.40447655693e-05
-6.76050121559e-05
-9.84093377908e-05
-6.26900285626e-05
0.0506256792723
1.46667500263e-05
-0.00157859656333
0.000175370589627
0.0117447180544
0.000146042584175
-0.000158657130152
1.99928913443e-05
3.71144056021e-05
-0.0116668971807
0.00020170024917
0.0116494818173
-0.000241225387383
0.000111888770472
-0.000122193680536
0.000188336868971
-0.000117630875807
0.0117680551192
0.000118253302821
-3.39007813553e-05
8.98914684158e-05
-0.000140042826326
-0.0116569559672
0.0116228660159
0.000849416279316
-0.000151424833392
-0.000166568770511
-0.000148592364601
-0.000169212979456
0.000465221334553
0.0500826698923
-0.000153297991437
-0.000171755183311
-0.000169313843572
-0.000158166561158
0.000478299412097
-0.0498393615258
0.000780380434794
0.000125308992674
0.0119942948068
8.42874189183e-05
-0.0120253110343
0.0118155499022
-0.000136408811865
0.000195454451937
-0.0118829603236
0.000117897446555
0.0118008782294
-0.000134552047089
0.000204569211499
-0.000137208386574
-0.0118814928543
0.000147761728425
0.00106166146303
-0.000121815664914
-9.64594303007e-05
-0.000122966238458
-0.000101213456236
0.05061935415
0.000322391013276
0.0503736161174
-0.000149620794119
-0.000149391711174
-0.000145790079013
-0.000151263061041
0.000398346469048
-0.000123076597917
-0.000109553341709
-0.000125545700332
-0.000109580075493
0.0506377337389
0.000905388898403
0.00036015031998
0.000186541521287
0.011750988343
0.000120283935159
-5.15983777255e-05
8.97505013777e-05
-0.0116295383846
0.000119058850809
0.0115903714013
0.000160022673884
-0.0001311139983
0.000188526945653
-0.000145487101773
0.0117289305918
0.000155659542708
-7.24482930642e-05
0.000108465760552
-0.000139824175079
-0.0115892339775
0.0115372087194
0.000185278040272
0.01172761538
0.000170504554325
-0.01180522881
0.000109172178545
-0.0115761478357
0.0115170141902
-6.24979639092e-05
0.000168199195007
0.00264944070921
7.87391600254e-05
0.000118794214338
8.44755013292e-05
-0.000605047679871
-0.00443428411689
-0.00227695861904
0.0042748102125
-0.00155821689449
0.000980810304148
0.000114350958475
8.17212646081e-05
8.23115459448e-05
-0.000239016240986
0.00307937095509
0.00210892946257
0.000134802585772
0.000158819901393
0.000166552917682
-0.00337458712624
-0.00379031641658
-0.0137251677691
0.00440904418014
-0.00295232820632
-0.00888665311797
0.0136273679328
0.00316752743374
-0.00958953062409
-0.00180164435977
-0.00938445752254
-0.0152419653383
-0.00156347253799
0.0147369208941
-0.0132965173752
-0.00193067579357
-0.00136104741691
-0.00849167761228
-0.0057125286663
-0.000334146311735
0.00573303926872
-0.00607869683936
-0.00810782265139
0.000647697555971
0.00859106486788
-0.011828232155
-0.00491129446204
0.000224781658195
-0.00411897717578
-0.00945861812527
0.0018686979233
2.39094083469e-05
7.0425914505e-05
9.75859322619e-05
7.73299076498e-05
0.00207948942612
0.00417574276148
-0.0123961191453
8.51098179072e-05
5.8082939868e-05
6.10342923677e-05
0.0105596531853
0.00159375613658
-1.81382824517e-05
0.00404550692415
0.000702599959848
0.000135044785348
0.000124012626867
0.000119981477329
-0.00355506963077
-0.0140870712131
0.00135872964143
9.68013246739e-05
0.00011095518543
0.000114202677899
0.000511867622308
-0.0155302713619
0.00446383817929
0.000132269275046
0.000124216758799
0.000125516115167
-0.0131349756373
-0.000873126101124
0.012390003094
-0.000409516413963
-0.0139718840605
-0.0137247532318
0.000849983755591
0.0121298223453
-0.0149869232211
0.00157616503754
0.00483389030524
-0.00209633001961
7.57084289355e-06
-7.75267966888e-06
2.12818834769e-05
-0.0110274754688
-0.00215668116817
-0.0166397276025
-0.00016402351386
0.000116154642509
0.000110036966375
9.3528894882e-05
-0.0011261513928
0.00635128204057
1.46640481969e-05
6.89955128724e-05
4.61368104474e-05
-0.0171942704052
-0.0113520003602
0.000815351297774
0.00353050810743
-0.00777364427558
-0.0122147536626
0.00687508901897
0.0111731167552
-0.00966638001662
0.00343345485511
0.000590112974875
0.000127952291863
0.000138949279921
0.000130688977827
0.000637603657981
-0.0261586820805
0.000137158512661
0.000128182053158
0.000129736354136
0.0269971425792
0.00142905091183
-0.0110121735977
0.00914043229647
0.000277649819457
0.000726968193627
-0.0120922931459
-0.0107332391124
0.0109802652456
-0.0012207434107
0.00605430367067
-0.000390040386777
8.92439240894e-05
6.2674302509e-05
0.000102987889059
-0.0210242975899
-0.0249398740667
8.11456921981e-05
0.000134540755298
0.000123479919714
0.000128658265521
0.000268829715077
7.51828269824e-05
0.000100780232737
0.000107035383129
-0.0241721360608
0.00466349996642
-0.0105418133048
0.00445669407613
0.00778368459697
-0.00691351815618
-0.00826870338212
0.000121042960843
-0.00354070234387
0.00139307677477
0.0122778901416
-8.27448817734e-05
-1.15573082412e-06
3.76397026575e-05
-0.0123150901583
-1.80629135065e-06
-0.0122800273598
0.0122585971161
4.27710080649e-05
1.81481959392e-06
7.50231103566e-05
8.62347256842e-06
-0.0119856791148
0.000131595480295
-0.011989481881
3.11861141857e-05
0.0119650246783
4.67770651743e-05
0.012254788128
1.19489696227e-05
-0.0119978961273
3.42585220893e-05
-0.0123182629658
0.012286246811
6.81683358503e-05
-8.13869523858e-05
-0.0123195079308
-8.95665820857e-05
-0.0122986313513
0.0122870474499
0.000121535183699
0.000130555972784
-0.0119914137298
0.0119673742904
8.50792782753e-05
-2.1102534657e-05
2.28504545762e-05
-0.012007792093
0.0122660288463
0.000100211701077
-0.0123348306877
-0.0119993221726
-0.0122554188047
0.000120094268979
-0.000193395319663
-6.75002369086e-05
0.0122560162967
-9.35251968913e-05
0.012273556019
0.000137872793989
0.000151275185839
0.011937690684
-3.83776277444e-05
0.000193060423489
-8.54640316533e-05
9.35586565548e-05
0.0119113690213
-5.02752179905e-05
0.000166198970607
0.0122819469276
-6.62219116385e-05
0.0118916295982
-0.000120758034518
0.0123392731438
-5.70705143088e-05
0.000130622697816
-0.0123623458509
-0.0123176277855
0.000134987148527
0.0123117806555
6.60415794045e-05
2.85106957386e-05
-0.0120056380737
0.000100118410932
-0.0120179974429
6.23495377018e-05
0.012000544033
-0.0123484125143
0.000143368069532
0.0123330063841
4.79989007699e-05
-0.0120171860054
0.0123568105997
0.000137819998062
-5.7542506609e-05
-0.0123754516879
-0.000149803715083
-0.0123752779352
0.0123752049735
0.000152451125191
9.95382397064e-05
-0.0120272908461
0.0120097015308
5.41784633344e-05
-5.04610126563e-05
-0.0120386976626
5.2620034404e-05
0.0123533652128
-0.0123907124317
0.000139327761007
-0.0120261243043
-0.00018401328815
-0.0123302417564
-0.000171186538468
0.012345082815
0.000192243067773
0.0123057704546
0.000159373105628
0.00018311467294
9.39031446549e-05
0.0119109916521
0.000120035530382
0.0119765577209
7.16759598401e-05
0.0123207329548
0.00016846989375
0.0119260712168
9.13648683536e-05
-0.000203570079327
0.0123799783737
-0.000172841224215
0.000214303669678
-0.0123531630426
0.000230024785988
0.012394622983
-0.000216349662369
0.00018370545669
9.90482194683e-05
-9.87583939826e-05
0.000193408960906
-0.0118780583332
0.000117049040752
0.0118198456396
-0.000182909441431
0.000236847830853
0.0124243750135
9.46892080161e-05
-0.0123544976598
0.000196034836677
-0.000165901122571
0.0123712008827
-0.000174994008993
0.0123775841698
0.000175758389856
0.000119891507164
0.011983531124
0.000165877588343
-9.32115548087e-05
0.0119366837366
9.47493328677e-05
0.0123959082563
0.000196560403282
0.0119299989241
0.0124062275046
0.000217639369773
-0.000171079840809
-0.000235677387166
-0.0124305502975
0.0124720864222
0.000236255635304
0.000193839563269
-0.0118815960899
0.0118247012161
0.000170571433618
-9.74847245541e-05
9.97912872719e-05
0.0124488762549
0.000218448789647
-0.000277443812608
-0.0124857367638
-0.000119926334231
0.0125241778777
0.000284938641195
7.3928430553e-05
0.0124495358124
0.000256871250933
0.000109545150246
-0.000245981251638
0.000108588578035
0.00015945627568
0.0117158917281
-0.000178317149975
0.000174839182413
0.0117619314906
0.000126750422876
0.0124903542871
7.10365051807e-05
-0.000280695596834
0.000263055180012
0.000107307116628
0.0117232502115
0.00014169128763
-0.000308826089878
-9.9232148279e-05
0.0125880490557
0.000311527745578
3.25787733802e-05
-0.0125607814413
0.000326889982354
0.012628411809
-0.000341168791054
-1.63516345299e-05
9.20999333248e-05
0.000181286745483
-0.00021677232376
-0.011669713188
5.00508174045e-05
0.000169923222096
0.0116433662833
-0.000318719698703
3.14589968974e-05
0.000156778572821
0.00033390151145
0.012639231027
-8.53522529241e-06
-0.0125106606093
0.000275502584623
-0.00015084075385
0.0125564105072
-0.000256349924601
0.0125291077491
0.000256501580084
0.000185300850204
0.0117643837233
0.000168143842594
-0.000126743300096
0.0117199623405
0.000116574571079
0.0125764299046
0.000275296759644
0.0117221018335
0.000290797079437
-0.00012913044666
0.0126122651374
-0.0126304368985
-0.000312204829986
0.000307460117979
0.0126574574638
-0.0116643249771
7.82300409473e-05
0.0116303522138
0.000149637349524
-0.000131320738146
0.000113824527647
0.000287994647244
0.0126494600007
-0.000189079956526
-0.0124151408136
-0.000173911614853
0.0124371848244
0.000183144687122
0.0123977189713
0.000171423312317
-0.0123942220918
0.000168907950812
0.000101425847077
0.0119354355778
0.000132499765435
0.0119991388397
-0.0120350224579
9.16171804693e-05
0.0124180936426
-0.0124120811106
0.000168230837618
0.0119398187113
0.000106983635632
-0.000208307690845
0.0124717219207
-0.000177778817448
0.000200165975299
-0.0124515486299
0.000223576578614
0.0124932305324
0.000171772579967
0.000108569895964
0.000201913363953
-0.0118831014735
0.000125987763733
0.0118120922828
0.000215217864615
0.0125129176814
0.000118358019586
0.0124875191901
0.000196135754344
-0.00018323213421
-0.012453469057
-0.000209032819324
-0.0125026386984
0.0125402333119
0.000204396325246
0.000202916695023
-0.0118786793198
0.0118017876897
0.000186945826854
-0.000127655077047
-0.0119483035007
0.000135760505827
0.0125275338408