/*--------------------------------*- C++ -*----------------------------------*\
| =========                 |                                                 |
| \\      /  F ield         | OpenFOAM: The Open Source CFD Toolbox           |
|  \\    /   O peration     | Version:  v1906                                 |
|   \\  /    A nd           | Web:      www.OpenFOAM.com                      |
|    \\/     M anipulation  |                                                 |
\*---------------------------------------------------------------------------*/
FoamFile
{
    version     2.0;
    format      ascii;
    class       surfaceScalarField;
    location    "7.7";
    object      alphaPhi0.water;
}
// * * * * * * * * * * * * * * * * * * * * * * * * * * * * * * * * * * * * * //

dimensions      [0 3 -1 0 0 0 0];
oriented        oriented;


internalField   nonuniform List<scalar> 
92311
(
0.203821296589
-0.000155973717284
-0.000833849156055
-0.203560741501
0.000729488913128
-2.86789999472e-06
0.203827713976
-0.000327850273278
0.000324384363406
0.203934783814
-0.000264278006966
-0.000876818343682
-0.203740197235
0.00079067452503
9.48798457883e-05
0.203832327101
-0.000387775036357
0.000392515172157
0.204360281477
-0.000203827105261
1.38381445874e-05
-0.00110758655738
-0.204293957342
0.000965808470051
-9.12001107054e-05
9.23937908356e-05
0.000116336561731
0.000169226604756
0.000246753697915
0.203706273369
-0.000498406565433
0.000523702695241
0.000191228968139
0.0513312182944
-9.9508669296e-05
-4.81560627242e-05
-8.85435132167e-05
-6.11957032482e-05
-0.00042656846645
-0.0512702537704
0.000459316290383
-0.0512853322638
0.0511466256926
7.61020188708e-05
3.04264657321e-05
4.98364215883e-05
5.68849202639e-05
-0.000276552937479
0.00031842240154
1.7789667265e-05
-0.000644468360272
9.79336094673e-06
1.24606887557e-05
4.87241702675e-06
0.00024132601831
0.000501053288168
3.54565757255e-06
-0.000221116079168
-0.000475973735397
-0.000274824075474
-4.29478789979e-06
0.000597092822996
-4.85275486038e-05
-6.58516200347e-05
-4.94692091982e-05
-7.49403651082e-05
0.000251409843358
9.87569128306e-25
-6.75716392556e-07
-1.56582430059e-06
-2.15992615015e-06
-3.73417231805e-06
5.1919191929e-06
-2.18839377166e-27
-4.85504643311e-07
-1.14823378301e-05
1.76029135457e-05
3.78465597313e-05
-3.62525801074e-05
-0.000349449695696
0.000401498451572
0.000125804003055
0.0104765042143
1.12126271217e-05
-6.45868416856e-06
-0.0105092236739
0.0104626314336
3.826871431e-05
-1.41917565675e-05
-0.0104648415215
-1.08608550366e-05
1.16562592375e-07
0.000206449354662
7.66716753262e-05
0.0510153698479
6.07594049594e-05
6.86728582153e-05
5.0957265687e-05
-0.000163020415425
9.26264077614e-05
0.0509054936094
0.000114544447153
8.79832625602e-05
0.000109094761418
-0.0510400308459
0.000183559455629
6.23502156541e-05
-4.14838427617e-05
0.0104434185741
-2.72256917459e-05
2.55244874821e-05
7.12585378139e-05
0.0126822082253
-7.06588737973e-05
9.77640855756e-05
-0.0127028201238
0.0126657127578
8.22354501661e-05
0.000102489714455
-0.0126853961081
-0.000446500159315
0.203977792585
-0.00161595246266
0.00138142480735
-0.203296236003
0.203767643529
3.90896631e-06
0.000252354272562
-0.000196069701211
-8.96806962662e-05
0.203788932001
0.000469677192218
-0.000401476011509
-0.000991902750237
0.20410955878
-0.00158437196272
0.00145809586661
-0.203437776913
0.203738189899
9.26880079201e-05
0.000164490365983
-0.000159162617494
-0.000174681197278
0.203786521915
0.000442668705579
-0.00040627808458
-0.000514348757112
-0.00054866875333
-0.000522317496458
-0.00167146535355
0.20462917619
0.00166970980902
-0.203539016272
-0.00049491974288
5.12442032795e-05
-2.29500072962e-05
0.00013061098984
1.59915365759e-05
0.203559058945
0.00016403123366
-9.87648911578e-05
0.0512201719296
-0.00023754793529
-0.000219268591609
-0.000236665651908
-0.000218129342119
-0.000440031578304
-0.0508657143178
0.000483097550847
0.0508839209804
0.000138099443622
4.82138602948e-05
3.46457901655e-05
3.14709360597e-05
2.03746865439e-05
-9.00708930086e-05
-0.000267012216788
2.39486322541e-06
-0.000405149228142
-3.6477306112e-06
-1.70506230319e-05
1.80038032772e-06
-1.84780967376e-06
0.000139207966527
-2.83121542822e-06
-2.38007041045e-06
-2.21903485015e-06
-1.51043955352e-06
2.79243370266e-06
3.64268394534e-06
-5.4922458426e-07
-2.52199158828e-06
0
0
0
0
-2.03428675408e-29
0
-2.71095475943e-26
0.000400121918812
-0.000208209691085
-0.00019645943384
-0.000205050480748
-0.000198999339747
0.0513967442517
-0.000316301514457
-0.000189684796843
-0.000181107742735
-0.0001945462083
-0.00018360260115
0.0513230316408
0.000463872786395
-0.0511596725903
-3.15832095674e-05
0.000283082379387
0.0108458517634
6.01241810765e-05
-9.86349437383e-05
-0.0109411654059
-3.08148576455e-05
0.000226246747224
-0.0106946102929
6.54431635795e-05
-8.68051546828e-05
0.0106453886978
-0.000243009688301
0.0128206628688
-0.000133382788114
0.000146690804903
-0.012777347796
1.92672292363e-05
1.43960655669e-05
-2.18992386068e-05
4.06037228026e-06
-1.57634734513e-05
0.0508463779411
1.45554020222e-05
0.0507759338146
6.3576851739e-05
6.83162005695e-05
8.23942554191e-05
4.78747073417e-05
0.000136164510891
4.23448417818e-05
2.87987707021e-06
2.20328609395e-05
-1.55522275901e-05
0.0507274335207
3.21111996069e-05
5.26401991176e-05
-5.27786882115e-05
7.35707506937e-05
0.0126580780964
-8.92122862896e-06
3.13143013357e-05
-0.0105359407491
-7.96463125241e-05
0.0105292972639
9.23879591262e-05
6.55071866927e-05
7.81979416237e-05
0.0126386948002
-0.0126052020906
6.17115029662e-05
0.0125919155998
-3.4656150898e-05
2.81887066435e-05
-0.000718780216112
-1.98065714875e-05
-7.23464459889e-05
-3.89290087664e-05
0.000368179137984
-0.000329636896735
-3.40588381695e-07
-5.95649786582e-06
-6.5593714176e-05
-9.84111900222e-05
-0.000110055804083
-7.31568661625e-05
-6.61793430963e-05
-0.000300038493105
0.000338099093175
-9.7548277177e-07
-1.95331659861e-06
5.45586275248e-06
-3.02398912484e-07
9.14751934323e-06
-4.31178510462e-06
-4.61835409866e-06
-1.30994120353e-05
-6.8153916e-05
-9.82694514309e-05
-0.000102177437532
0.000388215663845
-0.00033489737363
-7.19916023745e-06
7.76218104563e-06
1.81214502096e-06
0.000164498957545
0.0128518358437
-0.000147491439682
-0.0128404509772
-0.0128373438343
-2.24844395975e-05
-0.00015109971835
0.0128195089547
0.000143568016826
1.0055937345e-05
5.37200158415e-05
0.0104731739074
-1.03562641492e-05
8.04780455246e-05
0.0104167528719
-0.0104490182115
2.34410780999e-05
-0.0128356439362
0.000155326350965
0.0104176163702
1.41885773363e-05
0.0128340221519
-0.000139728367226
0.0128081078587
8.86391463341e-07
-0.000135003760592
0.00013372572113
0.000131280602348
-0.012815706893
0.0127994753427
-0.000111188525262
-2.51817534262e-06
2.94545006897e-05
-7.85829352964e-06
-6.81405611963e-05
-0.0104091734354
0.0104123944976
-1.92668125227e-05
0.0127857716793
0.000123655883212
-7.03249598087e-06
-0.000123259909961
-0.0127581451922
0.000110797253204
-0.000100366791674
0.0127310696449
9.33871423896e-05
0.000115458896881
0.0127726424094
-9.8971428916e-05
-4.016230069e-05
-6.99466786156e-05
0.0104442875723
4.28594341286e-05
-8.57654527452e-05
0.0103938600479
-3.57153368942e-05
0.000107718787544
0.0103990502057
-4.58084756958e-05
0.0127464002038
-8.62757895525e-05
6.99868446088e-05
-0.012720847363
0.0127000172257
-5.78768540976e-05
-6.70971934627e-05
-0.0104565558324
0.0104698526108
8.01423390864e-05
-0.0104198540719
-5.47529981051e-05
0.0104375336831
0.000101278021122
-9.03738794889e-05
8.68273900465e-05
-5.19633921597e-05
-6.36720198377e-05
6.09878115387e-05
-4.77299525361e-05
-7.64243175809e-05
0.000149928098781
-0.0126714793301
0.0126495714446
6.94253932129e-05
-4.03522580708e-05
-0.0104043674457
0.0104256597513
-0.0103836425592
0.0104131894164
-2.93587280638e-05
9.58152824966e-05
0.00011046194735
-0.0127158707227
-0.000158278065638
3.33363846834e-05
-0.0103668953235
-2.64966907398e-05
-0.0127048882135
8.05793715608e-05
-0.0103869385546
7.75653614742e-06
-2.04592780104e-05
3.4982289707e-05
3.35394304494e-05
3.10251698515e-05
3.21582038203e-05
-0.000502577109387
0.000348033174484
-9.15081575435e-05
-1.04239300338e-05
-3.33914897988e-07
9.95851435117e-06
-1.99122712989e-06
-0.000377024342614
9.524381677e-06
3.70805598497e-05
3.31265464206e-05
3.79230582912e-05
-1.03435510278e-05
2.11180678515e-05
3.46233396154e-05
7.40706032061e-06
3.25258184645e-05
3.16921072842e-05
3.24433281405e-05
-0.000639528529006
-1.90702860137e-05
-1.00149565085e-06
-5.96806044414e-06
-1.47008820225e-06
6.64898581017e-06
-7.70202284775e-06
-3.98502058031e-06
-7.87434751485e-07
0.000114985886226
-2.65822376677e-05
-5.50320567126e-05
-4.09068169257e-05
-1.47662343811e-05
-0.000337501014832
2.58575688676e-07
-1.77823167245e-06
3.07757782599e-07
-3.08074481391e-06
1.04853778981e-06
8.45441441744e-07
0.000288045659233
-2.208933773e-05
3.70306119482e-06
9.29993316983e-06
1.25361244165e-06
0.000168595286918
-0.000365709638296
4.70693041053e-07
-3.13780771668e-06
3.3066444172e-07
4.67466414975e-06
4.99705126873e-06
9.65090315048e-06
3.62799942572e-06
-0.000330398344337
9.76897708072e-05
-2.32626527902e-06
1.14223818055e-06
-0.000106425358242
-0.0127410715625
-0.000295700896888
0.0127879960221
0.000121019683753
0.0127535420299
0.000117308117365
-0.000110207941873
-0.0126940350827
0.000291130096701
6.29634158428e-05
0.0107588888189
-9.49436592686e-05
0.000283951644158
0.010819334875
-0.0109058574127
2.29095968065e-05
0.0128005171939
-9.55571902081e-05
-0.0126823731261
0.000127363739082
0.0107366167664
2.80043049006e-05
-9.76973526207e-05
0.0128301566229
-0.00026471995496
0.000115646903253
-0.0128447417417
8.95382002579e-05
-7.24320622869e-05
0.0128609644965
0.000260965527025
6.35110048234e-05
-8.97429445187e-05
0.00023402787016
-0.0106635607727
3.69455969692e-05
0.0106080836673
-8.24098767179e-05
0.000110895713708
0.0128474865237
3.06487310067e-05
0.0105831582321
-7.27503317293e-06
-3.31635741273e-06
-0.0106564740063
0.000214177157372
-1.38800369906e-05
0.0105392115764
1.17645392678e-06
-0.000132070331257
0.0128402809573
0.000148887438001
0.0128237856863
-0.000250810577822
-0.0127819062747
0.000221039786886
-0.0106346428724
0.0105790009355
0.0128434967431
-0.010707551196
5.07225120117e-05
0.0126745881018
-4.23998458193e-05
-7.76345313531e-05
0.0105021640307
9.78002668696e-05
0.0104743668029
-5.72682615138e-05
-4.05988376173e-05
4.32845093743e-05
0.012645394544
4.15707744299e-05
-2.27268263308e-05
-8.30624172763e-05
0.010517327834
0.000107784634429
0.0126624746504
-3.06968462496e-05
0.0104980025752
-5.78506139617e-05
-2.12803096332e-05
0.0126352996267
2.30038503444e-05
2.26476037651e-05
-0.0126536690437
2.46999012257e-06
0.0126596622597
1.09713777976e-06
-6.67020937496e-06
-8.47295474203e-05
0.000101026837526
2.18172398952e-05
-0.010515602374
-5.85966383545e-05
0.0105149043707
-1.5037798417e-05
4.86098643941e-06
0.0126387712291
-6.01474914005e-05
-0.0126216069111
9.18006471389e-05
-5.4188803423e-05
4.6903481363e-05
0.000119550909363
5.66836737396e-05
-4.4457429137e-05
0.0104625189174
0.0104585912158
-3.14504609533e-05
4.50121535095e-05
0.0104914687885
-3.1324471727e-05
5.12274194648e-05
0.0126225244307
0.010487800183
0.0105204694221
4.92489166919e-05
-3.98542314808e-05
-3.46311630896e-06
5.23799320821e-05
0.0105345604886
-4.36185256881e-05
-1.73217960892e-05
0.012592234031
1.59305202476e-05
0.0126091274751
2.31001174743e-05
3.4312765474e-05
-0.0105088515481
0.0105144264883
0.0126148944467
-0.000131602063944
-0.000127852122375
-0.000198735302827
0.000638446208851
0.203897545127
-0.000197239591026
-0.000495834358946
-0.000109145538338
-5.27724383444e-05
-3.16359597289e-05
-5.21643165966e-05
-2.92124541027e-05
0.000122755359327
0.0508669445378
1.36933965012e-05
-0.000268854378302
4.36627703219e-06
1.27204750834e-05
1.44843225114e-05
1.39051824555e-05
5.73183223347e-05
-0.000238338154419
0
5.28948464026e-11
0
0
6.90015992379e-29
0
-5.28948464026e-11
-0.000105660603633
-0.000134274225727
-0.000135269352963
-9.96084204354e-05
0.0003374980114
-0.000356007408841
0.051390070639
-2.17871339001e-05
0.000168563390726
-1.7719400748e-05
0.0105006910219
0.0507507378084
-6.83731659485e-05
-2.56338919724e-05
-3.67617138575e-05
-6.58144932758e-05
-6.37597127642e-05
0.0508409033587
-7.48233445903e-05
-0.000104500741011
-9.42026025984e-05
-7.96046929979e-05
0.00021787573827
-0.000153428589555
4.03324881591e-05
0.0105263763587
-7.66120075594e-05
8.68944381138e-05
-1.15905478297e-05
3.56644520464e-05
5.87801656039e-05
0.0105350400472
-5.47391005276e-05
0.010442324301
-2.00110306521e-05
0.00014322963863
8.50638532543e-05
-0.0104792863248
-0.000100326107142
0.0509514210899
-9.10497938501e-05
-9.93226123748e-05
-9.027192226e-05
-0.000101176969141
0.000208723125363
0.000252576378987
-0.000189652979887
-7.61214086349e-05
-6.62632257197e-05
-6.33503021645e-05
-8.0563035783e-05
0.000155991664137
0.000297021116194
0.0510208247029
-0.000235812015793
-1.87108419754e-05
0.00014338434826
9.92768192378e-05
0.0104109467109
-0.000117478170874
-8.9207750123e-06
7.80327728828e-05
0.000131633964988
-0.0103717618393
0.0103703624239
-0.000145617311152
2.20544517822e-05
1.48968787089e-05
1.71519512961e-05
0.000151693653306
-0.000639215338944
7.19217629428e-06
0.000145833281553
4.59458287886e-06
1.40233165547e-05
1.58928843169e-05
1.60336714354e-05
-0.000363090305758
9.42917761268e-06
5.25403173347e-05
1.63577452205e-05
1.76016735595e-05
1.50753501618e-05
0.000262245682352
-0.000385698739562
-2.83860217303e-07
1.67741755333e-06
-1.00255254607e-06
-2.08457828329e-06
4.97425192849e-07
1.12896892554e-06
-1.04735408646e-06
8.12416333011e-08
-0.000138246227878
1.55523799085e-05
1.74325121865e-05
1.38874115618e-05
0.000236809693122
1.12866541754e-05
-0.000302451686316
7.06948300594e-06
1.29888107912e-05
1.02220396209e-05
0.000134231799529
9.44343377218e-06
-0.000322953745035
-0.000157004605664
-0.0128660500095
-0.000123258101773
0.000125702748096
-9.89355580345e-05
0.012859498147
-0.000128696008444
0.0128587565062
0.00018179176002
0.0105440532653
-3.81563359148e-05
-2.21194041667e-05
9.81315433138e-05
0.010497907567
-0.000101345448264
-4.18977279417e-05
0.0105504321638
0.0128454320397
4.2969579292e-05
-0.0126458710005
-5.71017998177e-05
-4.53762495473e-05
0.0126523787877
0.0126709772569
-2.07923171948e-05
1.83518628006e-05
4.89488031722e-05
-6.70152235745e-05
7.67303233853e-05
0.0105065437665
3.55300864754e-05
0.0105164129474
-5.85301328153e-05
3.68722265961e-05
0.0126736586028
-2.17210581234e-05
-5.62964925763e-05
0.0104994724391
-0.0126174122572
-9.25604610259e-05
-3.046356459e-05
0.0126263162815
6.46820719815e-06
0.0125937407658
1.8162604242e-06
5.50510881064e-05
0.0105153824514
6.24147289591e-05
9.23963151246e-05
0.0105088223046
-6.61720181975e-05
0.0104908077618
0.0126089863962
-1.89648552852e-05
0.0126392582982
-0.00010349771637
-4.74394859803e-05
6.31166187813e-05
6.46462501297e-05
-0.0126300284923
0.0126520957582
-4.63082647668e-05
0.000124302057856
-0.0104664632671
0.0104349122433
6.79608054514e-05
7.44876721732e-05
0.000117045981368
-8.47642983286e-05
0.0126566260951
7.83159776078e-05
6.23918994545e-05
-3.03173171179e-05
-0.0126814173805
-0.000116530090867
-7.43160507221e-05
0.0126983871579
8.64288488506e-05
6.95074005797e-05
0.0126811006077
-5.09443691423e-05
0.000125328146961
0.0104113947312
7.80507006907e-05
0.000112260326414
0.000134005042609
0.0103883260642
-0.000131985419588
8.29464729864e-05
0.0103987024241
8.96120800196e-05
0.012699834118
-5.63531072389e-05
0.012716715951
-0.000101685648903
-7.75875986944e-05
8.91009519685e-05
7.62598186148e-05
-0.0127194452514
0.0127202502508
-6.10761502152e-05
7.34960031785e-05
-0.0103867856713
0.000112924786193
0.0103873805108
0.000125079255937
0.000111979423056
-0.000142304667943
8.80072804262e-05
0.0127198079546
0.000103609993855
-6.15384797773e-05
-0.000618136671085
-0.0494092221896
0.049306092368
0.000736889846408
2.73128792793e-05
2.74990388772e-05
3.23074670299e-05
2.24714237782e-05
-0.000125132232519
-0.00074887051446
0.0498441233339
8.25445903195e-06
-3.82397354437e-06
3.76693117406e-06
8.73869605032e-07
1.71019968522e-05
-0.0498024422277
0.000680990499723
-0.00112738675507
-0.049961733004
0.0500870185472
0.000933467726904
4.90052458556e-06
-1.94459947549e-06
-1.58481613392e-06
2.982946393e-06
6.43429268247e-05
-0.000733393635724
1.00754909353e-06
8.45920426566e-06
8.98636805678e-06
6.62471342628e-08
9.27276426404e-05
0.0501917141048
0.000563422631698
-0.0501329248756
-4.27011146164e-05
-8.13679964125e-05
-0.000298768994619
0.000434653451093
0.000109162560859
-9.36913979087e-07
-3.22625047084e-05
-2.51700410246e-05
-2.62388923528e-05
-3.54396007283e-05
-0.000589148982058
0.000651898187577
0.000103134107326
-4.00577403448e-07
-1.93545822167e-05
-1.99859882614e-05
-7.70799404162e-06
-7.94228719223e-05
-2.53308171131e-06
-5.04635176325e-05
0.000478304084318
-2.23675723058e-07
-1.17233255919e-05
-9.10947636612e-06
-1.32950112191e-05
-0.00033615081606
3.51800265365e-05
-1.90796688216e-05
-8.49883487205e-05
-0.000646534507779
0.000782270628433
7.741769008e-05
-9.05920431596e-08
-2.11949479497e-05
-1.90900736197e-05
-1.86394239394e-05
-2.95491842968e-05
-0.00011062798561
-2.78744325816e-05
-1.98711374678e-05
-2.10291664783e-05
0.000759835972982
0.000132006751031
-1.45245277264e-07
-0.000630189576656
0
1.76147253872e-29
0
2.40397921197e-08
0
2.82152796264e-08
4.47513028006e-28
-5.22550717461e-08
-1.98673750912e-07
7.42835690604e-08
-5.04128401843e-07
-7.85064291467e-08
-4.46463829766e-07
4.0522709702e-07
-1.77486320805e-07
0
5.7220078167e-29
0
0
0
0
-5.72152310916e-28
-2.20905633173e-08
6.21454004561e-09
-5.25841534576e-08
3.99820671626e-08
-9.58326792135e-09
4.08964477297e-07
0
0
0
0
-2.30066099979e-28
3.8141596703e-30
0
7.25336992012e-09
2.46184467291e-08
8.66516725144e-09
2.26995875744e-08
6.78932526886e-08
-8.53590751694e-09
0.000229826884621
3.14576833015e-05
3.49476954956e-05
3.55037458967e-05
2.86365580994e-05
0.0491183702368
-1.0255754569e-05
-7.35066821034e-05
-0.0493950998513
0.0491054977455
0.000415940791296
3.61897571906e-05
3.76067724159e-05
3.75274527453e-05
3.0260649823e-05
-2.18197140367e-05
-0.0494113949519
2.20438948768e-05
-4.13319826868e-05
-0.0115935753377
9.64941474219e-06
0.0115766941597
1.12741576764e-05
0.0115893397462
5.89136526894e-05
1.90335158913e-05
-3.63956177424e-05
-4.18428669982e-05
-0.0115992753421
5.97287181494e-05
4.76499421106e-05
5.46597118543e-05
6.29654171312e-05
-0.000360883202323
0.0122766595899
0.0122089815077
0.0121759365767
0.0121595669389
-0.000197913871021
7.2203476339e-05
3.4980537905e-05
-3.79973276068e-05
-5.07897865186e-05
0.0115551886351
0.00052644748646
2.446898733e-05
3.23924981003e-05
2.4610007242e-05
3.10878586223e-05
-6.95516691318e-05
-0.0495627203952
0.0495985392264
8.51245415431e-06
1.23478601383e-05
1.52495510096e-05
5.79797873933e-06
-6.31599272415e-05
-0.0496536839704
0.000602801729012
0.0115982630113
1.48149137641e-05
-3.35234929719e-05
-0.0116075549769
7.27230316931e-05
0.0116597728644
-5.52109875085e-07
-1.00467518322e-06
-8.58097298024e-05
-0.0116541413924
8.62360043911e-05
0.000994457149428
2.79424717889e-05
4.58418670619e-05
3.88444443551e-05
3.42936872431e-05
0.0491836768406
-0.00020984718865
-0.000176725994467
-0.000202603538764
-0.000167777909309
-8.01323230501e-05
-5.85625320662e-05
-6.53884896224e-05
-5.79051105466e-05
0.0495592588495
6.74701633599e-06
1.92304357945e-06
3.09161292092e-06
1.11974751818e-05
4.32866744919e-06
0.0496771557033
0.000943887344404
3.22101382273e-06
1.25751575934e-05
3.78896562389e-06
9.74468365434e-06
-9.6520755682e-05
-3.19480652047e-05
0.0115665813548
7.96014388768e-05
0.011489166367
4.30182629491e-05
-2.68488099359e-05
-0.0115174767126
0.000132989048926
-0.000135462544569
8.68142927214e-05
5.72639102516e-06
4.33136276728e-06
-8.99977050178e-05
0.0116492478223
0.0115930702325
9.52463184311e-05
2.19182714406e-05
-4.46218672787e-06
-0.0001060139424
-0.0116116331643
0.0498446375556
-5.60527026593e-07
7.22025085462e-06
-3.1417071209e-08
8.91240660396e-06
-0.00121002685015
-0.000100262868548
0.00130837866003
-3.28306734123e-06
6.57176997965e-06
4.70868091365e-06
-1.41196048342e-06
0.0503900296289
-0.000222825030472
-0.00163741469333
-2.2191530685e-05
0.0114715930909
0.000156337708345
-0.000164963275049
-6.79616805184e-07
-1.43282092978e-05
-0.0114726130466
0.00020886889828
0.0114743697469
-0.000225543239288
0.000102548553149
2.5501667593e-05
-1.19730351945e-06
-0.00011820941219
0.0115755848458
0.00013890820496
-1.15105162002e-06
2.24642652313e-05
-0.000153598686605
-0.0115590835339
0.0115482195797
0.000801924952795
7.97984656726e-06
6.63368589697e-06
3.88513735988e-06
1.37940143943e-05
-7.95554191814e-06
0.0500744395894
1.01538540806e-05
1.54451226231e-05
1.49974448237e-05
1.03872520651e-05
8.86635295903e-06
-0.049985675137
0.000653343023471
3.33032682881e-06
0.0116542302663
8.70138733979e-05
-0.01166978304
0.0116012522081
1.70144962362e-05
-1.34377457252e-05
-0.0116145037284
9.39053452962e-05
0.0116151952242
2.40905107068e-05
-3.66452977083e-05
-0.00010725447016
-0.0116261272764
0.000116144054677
0.00100845341056
3.48262928208e-06
-3.26372888012e-06
-4.11298866412e-06
7.16330982922e-06
0.0503414849584
4.22644138332e-05
0.050168712742
9.36697708704e-06
1.02221987441e-05
8.0896257087e-06
1.18641327298e-05
6.62810497951e-05
6.6927917798e-06
6.91015417917e-06
8.38979027093e-06
5.37030076636e-06
0.0503250543479
0.000764047087253
6.07806258449e-05
-1.21245510817e-05
0.0115891596521
9.80886800351e-05
1.09711477622e-05
-4.61342316439e-06
-0.0115731862343
0.000131750557002
0.0115678623173
0.000124838614793
3.09819609391e-05
-4.18911737124e-05
-0.000114681299491
0.0116017369586
0.00014368572594
2.38272290171e-05
-2.87463240468e-05
-0.00013605648292
-0.0115821653168
0.0115725524015
-3.9185275431e-05
0.0116010164402
0.000134566532558
-0.0116163550158
-2.53321813071e-05
-0.0115811013676
0.0115708031838
2.42072547055e-05
0.000148774793106
-2.97929014491e-05
-1.62197618158e-05
-2.97299050009e-05
-2.9800673346e-05
0.000363666679957
0.000127432590042
-0.0002961618422
-1.81232166708e-06
0.000363163531149
4.5207126487e-05
-2.65185577105e-05
-1.54580177613e-05
-3.37370426414e-05
-0.000287472927254
-1.39900213896e-06
-1.73339819458e-06
-4.50290804714e-05
-5.01134403876e-05
-5.52977965393e-05
2.65429065985e-05
0.000510728877358
1.22951189664e-06
-2.08193179897e-07
2.49155081497e-06
2.9311868587e-07
-1.42857628767e-06
-5.05579296193e-08
1.40426294691e-06
2.13581452488e-06
2.13553971422e-08
1.15935359448e-06
-1.73560173644e-07
-1.27188970116e-06
1.41543239242e-06
-8.08243720755e-08
1.74939432801e-06
1.98279002806e-06
3.35310913077e-08
2.82416067459e-06
-2.62612411373e-07
2.85371536793e-07
2.82095211071e-06
1.87897728299e-06
-1.13524320974e-06
2.42277864029e-06
-1.95164171427e-07
1.92178136356e-06
-1.77854467847e-07
3.69815847257e-06
1.43691415045e-06
7.43763831808e-05
-7.15499907046e-06
-1.22286933271e-05
-8.44121238342e-06
-8.85272072169e-07
-0.000218660803981
0.000279745478802
3.6396747499e-07
9.92739145887e-07
5.03117984348e-07
-0.000186854473657
-2.91263522342e-07
3.84289362358e-05
0.000131092503261
-6.2337191818e-07
-3.79832964136e-05
-2.53070497122e-05
-2.06507474538e-05
-0.000111218231174
0.000434995233001
-2.68104076022e-07
-6.90927419472e-06
-8.97801687389e-06
-9.41641932525e-06
-1.51034457821e-07
0.000631929297228
7.65243913914e-05
-2.1843410688e-05
-1.92678229978e-05
-2.21735340637e-05
8.57205194951e-07
-8.78285858933e-08
-9.32047477553e-07
-2.57502066469e-08
8.05815648553e-07
2.87294120374e-07
-3.62593751166e-08
-4.26213373115e-07
2.29547328124e-07
-1.11681949846e-08
6.86457916897e-05
-3.61333231252e-07
6.46156617012e-07
8.50911212355e-07
7.31987200679e-07
0.00063464772629
-1.67608063229e-05
0.000777207184554
-1.51326513031e-07
-2.77808935705e-05
-2.25409045851e-05
-2.4448400459e-05
-3.89195754311e-08
6.83299503373e-05
1.55007962209e-06
-9.63486342669e-07
4.09972270393e-07
0.000792426563797
1.10393259832e-06
-4.40884552954e-08
-9.08581497343e-08
2.14804765508e-06
2.71167761383e-07
-2.07161502211e-08
-2.89138241935e-08
4.6877917609e-07
6.01631761359e-05
-1.12596805757e-07
-1.86692969652e-05
-2.20207987963e-05
-1.93195709013e-05
-1.49551145412e-07
0.000648661109696
-2.31711607855e-05
-2.26928335172e-05
-2.36687720997e-05
-0.000509166041955
9.7625911848e-05
1.73002646153e-07
-2.38384589368e-07
-2.21738921107e-08
-1.06488424853e-08
1.36720725358e-07
1.47720437695e-07
-1.69883654234e-07
-1.47235315428e-08
6.84555284116e-05
-6.73450478243e-08
-1.70517634736e-05
-1.67546158177e-05
-1.63105725479e-05
0.000863880509291
0.000783823480465
-1.24672469685e-07
-2.14370036852e-05
-2.8633940316e-05
-2.36794065632e-05
-1.02959465675e-07
-2.38425800949e-05
-2.86343695941e-05
-2.46808577092e-05
0.000879489426057
0.000102075253804
1.42469244205e-07
-1.51599617754e-08
-1.58110549101e-08
1.89176709317e-07
1.58121179943e-07
-1.85911761643e-08
2.06951415882e-07
-1.84451241973e-08
0.0124070994221
4.29252437769e-05
-4.29265173312e-05
5.31772518584e-05
-0.0124292452214
4.85643673338e-05
-0.012402618785
0.0123747342485
-2.81123983929e-05
1.00963589097e-05
-3.40772566045e-05
1.04015291754e-05
-0.0116058070756
-4.5176762903e-05
-0.011580618067
2.60456924342e-05
0.0115675400811
6.52428621297e-05
0.0123800222544
2.58626040264e-05
-0.0115956447167
-2.72745117905e-05
-0.012424442433
0.0124126053933
6.81608160715e-05
4.37943222209e-05
-0.0124356776181
-8.32933890858e-05
-0.0124224132701
0.0124057979733
0.000100168635268
-4.16812178448e-05
-0.0115849778331
0.0115752253906
-3.08293582694e-05
-3.7775896647e-05
5.23912096717e-05
-0.0116044336089
0.0123897151918
8.52197237866e-05
-0.01244067357
-0.0115996992334
-0.0123718997171
0.000118285969118
5.32594872969e-05
-9.40147632954e-05
0.0123539505061
-9.84113268267e-05
0.0123908374441
0.000122480576013
-4.75972657914e-05
0.011544163151
-3.06871851065e-05
-5.17743791706e-05
-6.33701364733e-05
8.73467878347e-05
0.011517639589
-7.39510245212e-05
0.000140827084049
0.0123793822459
-3.62897417568e-05
0.0114955331673
-9.72065423022e-05
0.012456617146
2.45419930676e-05
0.000108057607298
-0.0124678138147
-0.012440120876
0.00011355023611
0.0124246825016
-2.59554530212e-05
6.59753488769e-05
-0.0116057256364
-2.95266165432e-05
-0.0116189689826
8.23028329417e-05
0.0116164044702
-0.0124540229041
0.000126893399504
0.0124442218759
7.57711746683e-05
-0.0116203775813
0.0124751219048
0.000122388435966
1.7089438943e-06
-0.0124827981538
-0.000140725037914
-0.0124918727826
0.0124919688024
0.000152139104924
-6.92356250355e-06
-0.011634324657
0.0116386730429
4.27175419481e-06
-7.91279741818e-05
-0.0116503889451
8.30271808405e-05
0.0124692439164
-0.012495520906
0.000136191209942
-0.0116318883379
-0.000158557752252
-0.0124295037859
1.49633732378e-05
0.0124206625272
0.000178952101159
0.012407524005
0.000134094228983
-2.38828889024e-05
9.34232645542e-05
0.0115456014387
-1.97265827705e-05
0.0115962446031
8.79501182794e-05
0.0123980608231
0.000150556853303
0.011576732914
9.52987627233e-05
-0.000182312109006
0.0124216313283
1.8893742465e-06
0.00020719262057
-0.01239016633
0.000210771953875
0.0123813520241
-0.000182905304619
-2.14969967468e-05
0.000111570075633
-0.000108167547726
-4.25426889041e-06
-0.0115491891868
0.000126485014158
0.011524315805
-0.00015707499402
0.000237010922367
0.012425406234
0.000110815580111
-0.0124603922091
0.0001891459325
-1.58472715766e-06
0.0124581504606
-0.000163349238775
0.0124874733308
0.000174039453852
1.25185093145e-06
0.0116263803497
-3.41539395579e-06
-9.20292036482e-05
0.0116360296076
8.8821672783e-05
0.0124873584745
0.000196595490369
0.011611320136
0.0124590010198
0.000215827967944
-6.47086052754e-06
-0.00024528879606
-0.0124889893259
0.0124954462037
0.000246636500164
8.22361095929e-06
-0.0115845622218
0.0115629699576
-2.41531959387e-06
-9.76904802869e-05
9.1554009352e-05
0.0124626152709
0.000220762017553
-0.00027712566603
-0.0124320405562
1.27521719044e-06
0.0124515984672
0.000299487608931
-4.2721975284e-05
0.0123818939777
0.000241187824731
-4.68686416849e-05
-0.000216982065845
-1.47603960292e-05
0.000179054986867
0.0114706681614
-0.000192717278148
-2.6099070241e-06
0.0115080179672
0.000148384191435
0.0124050590209
-4.94235163746e-05
-0.000265507532859
0.000265696258786
-3.35492237998e-05
0.011504329454
0.00016946968816
-0.000310225811855
-1.21230393508e-05
0.0125120958332
0.000332296274694
-6.98920506836e-05
-0.0124803484661
0.00034024799458
0.0125739413379
-0.000348617183628
-9.94360567391e-05
-2.9376421238e-06
0.00019763474969
-0.000213113862558
-0.0114935414311
3.10598743554e-07
0.000188749408218
0.0114860211163
-0.000303551657627
-8.47935078854e-05
0.000181191111494
0.000353545603508
0.0125830093354
-8.38992620778e-05
-0.0124703556145
0.000296315329099
-1.85030761826e-05
0.0124916738279
-0.000270507487833
0.012502710773
0.000269256043036
1.25267250924e-05
0.0115437726563
2.50955963082e-06
-0.000132633246451
0.0115622604357
0.000113961191104
0.0125194962363
0.000291002143497
0.0115316490925
0.000319420981119
-3.05562189408e-05
0.012532095421
-0.0125471767412
-0.000332819374192
0.000321646145249
0.012587746309
-0.0115292443333
3.59134693216e-05
0.0115170039124
1.46912774441e-05
-0.00014606536415
0.000126941223555
0.000311395431241
0.0125874861828
-0.000191083790434
-0.0125283617673
1.32272204509e-05
0.0125336854989
0.000180734722587
0.012511090835
0.000173947339411
-0.0125115933948
-5.79690401098e-06
8.72755526665e-05
0.0116348339351
-5.71490231911e-06
0.0116564738421
-0.0116733241833
8.70278956258e-05
0.0125143326965
-0.0125266556517
0.000167320968628
0.0116411763701
8.90407324738e-05
-0.000210702711155
0.0125382074943
1.79945649134e-05
0.000196120386404
-0.0125177770211
0.000231720847119
0.0125257654515
-1.0257032826e-05
9.00758716381e-05
-2.61263292756e-05
-0.0116225215902
9.87276508547e-05
0.0116087452301
0.000212148231386
0.0125454563426
9.35061501715e-05
0.0125528209107
0.000176304526044
2.62784932805e-05
-0.0125492139248
-0.000187478569938
-0.0125642488891
0.012569348183
0.000161126929266
-3.39242542803e-05
-0.0116217051667
0.0116104745276
-2.73892975412e-05
-9.96325682192e-05
-0.0116420044299