/*--------------------------------*- C++ -*----------------------------------*\
| =========                 |                                                 |
| \\      /  F ield         | OpenFOAM: The Open Source CFD Toolbox           |
|  \\    /   O peration     | Version:  v1906                                 |
|   \\  /    A nd           | Web:      www.OpenFOAM.com                      |
|    \\/     M anipulation  |                                                 |
\*---------------------------------------------------------------------------*/
FoamFile
{
    version     2.0;
    format      ascii;
    class       volVectorField;
    location    "7.7";
    object      force.turbine;
}
// * * * * * * * * * * * * * * * * * * * * * * * * * * * * * * * * * * * * * //

dimensions      [1 -2 -2 0 0 0 0];


internalField   nonuniform List<vector> 
28582
(
(0 0 0)
(0 0 0)
(0 0 0)
(0 0 0)
(0 0 0)
(0 0 0)
(0 0 0)
(0 0 0)
(0 0 0)
(0 0 0)
(0 0 0)
(0 0 0)
(0 0 0)
(0 0 0)
(0 0 0)
(0 0 0)
(0 0 0)
(0 0 0)
(0 0 0)
(0 0 0)
(0 0 0)
(0 0 0)
(0 0 0)
(0 0 0)
(0 0 0)
(0 0 0)
(0 0 0)
(0 0 0)
(0 0 0)
(0 0 0)
(0 0 0)
(0 0 0)
(0 0 0)
(0 0 0)
(0 0 0)
(0 0 0)
(0 0 0)
(0 0 0)
(0 0 0)
(0 0 0)
(0 0 0)
(0 0 0)
(0 0 0)
(0 0 0)
(0 0 0)
(0 0 0)
(0 0 0)
(0 0 0)
(0 0 0)
(0 0 0)
(0 0 0)
(0 0 0)
(0 0 0)
(0 0 0)
(0 0 0)
(0 0 0)
(0 0 0)
(0 0 0)
(0 0 0)
(0 0 0)
(0 0 0)
(0 0 0)
(0 0 0)
(0 0 0)
(0 0 0)
(0 0 0)
(0 0 0)
(0 0 0)
(0 0 0)
(0 0 0)
(0 0 0)
(0 0 0)
(0 0 0)
(0 0 0)
(0 0 0)
(0 0 0)
(0 0 0)
(0 0 0)
(0 0 0)
(0 0 0)
(0 0 0)
(0 0 0)
(0 0 0)
(0 0 0)
(0 0 0)
(0 0 0)
(0 0 0)
(0 0 0)
(0 0 0)
(0 0 0)
(0 0 0)
(0 0 0)
(0 0 0)
(0 0 0)
(0 0 0)
(0 0 0)
(0 0 0)
(0 0 0)
(0 0 0)
(0 0 0)
(0 0 0)
(0 0 0)
(0 0 0)
(0 0 0)
(0 0 0)
(0 0 0)
(0 0 0)
(0 0 0)
(0 0 0)
(0 0 0)
(0 0 0)
(0 0 0)
(0 0 0)
(0 0 0)
(0 0 0)
(0 0 0)
(0 0 0)
(0 0 0)
(0 0 0)
(0 0 0)
(0 0 0)
(0 0 0)
(0 0 0)
(0 0 0)
(0 0 0)
(0 0 0)
(0 0 0)
(0 0 0)
(0 0 0)
(0 0 0)
(0 0 0)
(0 0 0)
(0 0 0)
(0 0 0)
(0 0 0)
(0 0 0)
(0 0 0)
(0 0 0)
(0 0 0)
(0 0 0)
(0 0 0)
(0 0 0)
(0 0 0)
(0 0 0)
(0 0 0)
(0 0 0)
(0 0 0)
(0 0 0)
(0 0 0)
(0 0 0)
(0 0 0)
(0 0 0)
(0 0 0)
(0 0 0)
(0 0 0)
(0 0 0)
(0 0 0)
(0 0 0)
(0 0 0)
(0 0 0)
(0 0 0)
(0 0 0)
(0 0 0)
(0 0 0)
(0 0 0)
(0 0 0)
(0 0 0)
(0 0 0)
(0 0 0)
(0 0 0)
(0 0 0)
(0 0 0)
(0 0 0)
(0 0 0)
(0 0 0)
(0 0 0)
(0 0 0)
(0 0 0)
(0 0 0)
(0 0 0)
(0 0 0)
(0 0 0)
(0 0 0)
(0 0 0)
(0 0 0)
(0 0 0)
(0 0 0)
(0 0 0)
(0 0 0)
(0 0 0)
(0 0 0)
(0 0 0)
(0 0 0)
(0 0 0)
(0 0 0)
(0 0 0)
(0 0 0)
(0 0 0)
(0 0 0)
(0 0 0)
(0 0 0)
(0 0 0)
(0 0 0)
(0 0 0)
(0 0 0)
(0 0 0)
(0 0 0)
(0 0 0)
(0 0 0)
(0 0 0)
(0 0 0)
(0 0 0)
(0 0 0)
(0 0 0)
(0 0 0)
(0 0 0)
(0 0 0)
(-0.00193705918878 3.86049996564e-05 0)
(0 0 0)
(0 0 0)
(0 0 0)
(0 0 0)
(-2.49149133415e-05 3.73296622853e-07 0)
(0 0 0)
(-2.48010321836e-06 4.21011551564e-08 0)
(0 0 0)
(0 0 0)
(0 0 0)
(0 0 0)
(0 0 0)
(0 0 0)
(0 0 0)
(0 0 0)
(0 0 0)
(0 0 0)
(0 0 0)
(0 0 0)
(-0.0160452909891 0.000468234600679 0)
(0 0 0)
(0 0 0)
(0 0 0)
(-0.0294268889354 0.000665484134129 0)
(0 0 0)
(0 0 0)
(-0.0284908559207 0.000810480315609 0)
(-0.127687363131 0.00363232661939 0)
(-0.0799249263513 0.00180748874015 0)
(-0.767288854802 0.0173070452178 0)
(-0.00595683763487 7.76666738424e-05 0)
(-0.0799699183724 0.00180850622712 0)
(0 0 0)
(0 0 0)
(0 0 0)
(0 0 0)
(0 0 0)
(-0.0160453679522 0.00046823684662 0)
(0 0 0)
(0 0 0)
(0 0 0)
(-0.0294431039585 0.000665850834145 0)
(0 0 0)
(0 0 0)
(0 0 0)
(0 0 0)
(0 0 0)
(0 0 0)
(0 0 0)
(0 0 0)
(-1.52196046769e-05 2.15418232553e-07 0)
(0 0 0)
(-9.19378906423e-06 1.30128858977e-07 0)
(-0.000133385533686 2.36153896201e-06 0)
(-0.000680247907294 1.20435244551e-05 0)
(-8.11047211775e-05 1.43592752355e-06 0)
(-0.000408472615343 7.23184868246e-06 0)
(0 0 0)
(0 0 0)
(-0.000203090962558 2.74726195414e-06 0)
(0 0 0)
(0 0 0)
(0 0 0)
(0 0 0)
(0 0 0)
(0 0 0)
(-0.00862029480174 0.000171799849889 0)
(-0.000388233271233 6.71463157187e-06 0)
(-0.00183941012038 3.66588834644e-05 0)
(-2.76009230919e-05 4.54291652833e-07 0)
(-0.000131794963164 2.33337852995e-06 0)
(-3.41997884865e-06 5.80560756796e-08 0)
(-2.68461175494e-05 4.41868088001e-07 0)
(0 0 0)
(0 0 0)
(0 0 0)
(0 0 0)
(0 0 0)
(-0.000192445807876 2.60326229958e-06 0)
(0 0 0)
(0 0 0)
(0 0 0)
(0 0 0)
(0 0 0)
(0 0 0)
(0 0 0)
(0 0 0)
(0 0 0)
(0 0 0)
(0 0 0)
(0 0 0)
(0 0 0)
(0 0 0)
(0 0 0)
(0 0 0)
(0 0 0)
(0 0 0)
(0 0 0)
(0 0 0)
(-0.00514222878658 6.53648727599e-05 0)
(0 0 0)
(0 0 0)
(0 0 0)
(0 0 0)
(0 0 0)
(-0.00463483691088 6.04301122064e-05 0)
(0 0 0)
(0 0 0)
(0 0 0)
(0 0 0)
(0 0 0)
(0 0 0)
(0 0 0)
(0 0 0)
(0 0 0)
(0 0 0)
(0 0 0)
(0 0 0)
(0 0 0)
(0 0 0)
(0 0 0)
(0 0 0)
(0 0 0)
(0 0 0)
(0 0 0)
(0 0 0)
(0 0 0)
(0 0 0)
(-0.036063266262 0.000899538510484 0)
(-0.00867913095599 0.000158653201427 0)
(-0.0143101525097 0.000261587423912 0)
(-0.0102315049405 0.000195542689838 0)
(-0.0193027254768 0.000481474550794 0)
(0 0 0)
(0 0 0)
(0 0 0)
(0 0 0)
(0 0 0)
(0 0 0)
(0 0 0)
(0 0 0)
(0 0 0)
(0 0 0)
(-0.00525655376152 6.85362052075e-05 0)
(0 0 0)
(-0.00796872109396 0.000152296770255 0)
(0 0 0)
(0 0 0)
(-0.129737285031 0.00321272973017 0)
(-0.10103978731 0.00250208356481 0)
(-0.194709826134 0.00439189458332 0)
(-0.042820434625 0.000968376912763 0)
(-0.242383135684 0.00600221829764 0)
(-0.0524704415953 0.00130878835362 0)
(-0.102686055349 0.00232222783662 0)
(-0.274660915405 0.00680152423741 0)
(-0.958680728092 0.0237401459121 0)
(-0.411637595345 0.00928493934376 0)
(-0.411062444486 0.00927196618265 0)
(-0.513136877888 0.0127069878396 0)
(-0.220572067131 0.00497524591388 0)
(-0.513152782656 0.0127073816949 0)
(-0.0612858150414 0.0015176420562 0)
(-0.00902999324467 0.000172579613513 0)
(-0.0202426570354 0.000457784277478 0)
(-0.0202506355529 0.000457964710306 0)
(-0.0247868423592 0.000618266772995 0)
(-0.0247876996247 0.000618288156064 0)
(-0.0485377419294 0.00109767285395 0)
(-0.129745233524 0.00321292656146 0)
(-0.101048241769 0.00250229292554 0)
(-0.194540467099 0.00438807450375 0)
(-0.0428516305593 0.000969082403561 0)
(-0.052475575981 0.00130891642237 0)
(-0.102680644171 0.00232210546376 0)
(-0.242396303283 0.0060025443715 0)
(0 0 0)
(0 0 0)
(0 0 0)
(0 0 0)
(0 0 0)
(0 0 0)
(0 0 0)
(0 0 0)
(0 0 0)
(0 0 0)
(0 0 0)
(0 0 0)
(0 0 0)
(0 0 0)
(0 0 0)
(0 0 0)
(0 0 0)
(0 0 0)
(0 0 0)
(0 0 0)
(0 0 0)
(0 0 0)
(0 0 0)
(-0.00525386639287 6.85011666523e-05 0)
(0 0 0)
(-0.00796936917122 0.000152309156192 0)
(0 0 0)
(0 0 0)
(0 0 0)
(-0.0360690463455 0.000899682685104 0)
(-0.0143122537189 0.000261625833699 0)
(-0.00867844403281 0.000158640644575 0)
(-0.019305957657 0.000481555172184 0)
(0 0 0)
(-0.0102333176733 0.000195577334463 0)
(0 0 0)
(0 0 0)
(0 0 0)
(0 0 0)
(0 0 0)
(0 0 0)
(0 0 0)
(0 0 0)
(0 0 0)
(0 0 0)
(0 0 0)
(0 0 0)
(0 0 0)
(0 0 0)
(0 0 0)
(0 0 0)
(0 0 0)
(0 0 0)
(0 0 0)
(0 0 0)
(0 0 0)
(0 0 0)
(0 0 0)
(0 0 0)
(0 0 0)
(0 0 0)
(0 0 0)
(0 0 0)
(0 0 0)
(0 0 0)
(0 0 0)
(0 0 0)
(0 0 0)
(0 0 0)
(0 0 0)
(0 0 0)
(-0.0150480546843 0.000284398551572 0)
(0 0 0)
(0 0 0)
(0 0 0)
(0 0 0)
(0 0 0)
(0 0 0)
(0 0 0)
(-0.00335771625762 6.3458676905e-05 0)
(0 0 0)
(0 0 0)
(0 0 0)
(0 0 0)
(0 0 0)
(0 0 0)
(0 0 0)
(0 0 0)
(0 0 0)
(0 0 0)
(0 0 0)
(0 0 0)
(0 0 0)
(0 0 0)
(0 0 0)
(0 0 0)
(0 0 0)
(0 0 0)
(0 0 0)
(0 0 0)
(0 0 0)
(0 0 0)
(0 0 0)
(0 0 0)
(0 0 0)
(0 0 0)
(0 0 0)
(-0.32221149025 0.00839576916613 0)
(-0.00772598095951 0.000146016069217 0)
(0 0 0)
(0 0 0)
(0 0 0)
(0 0 0)
(0 0 0)
(0 0 0)
(-0.0707478583813 0.00186285003998 0)
(0 0 0)
(0 0 0)
(0 0 0)
(0 0 0)
(0 0 0)
(0 0 0)
(0 0 0)
(0 0 0)
(0 0 0)
(0 0 0)
(0 0 0)
(0 0 0)
(0 0 0)
(0 0 0)
(0 0 0)
(0 0 0)
(0 0 0)
(0 0 0)
(0 0 0)
(0 0 0)
(0 0 0)
(0 0 0)
(0 0 0)
(0 0 0)
(0 0 0)
(0 0 0)
(0 0 0)
(-1.51622402125 0.0508655891034 0)
(-0.0432813804769 0.00146351687033 0)
(0 0 0)
(0 0 0)
(0 0 0)
(0 0 0)
(0 0 0)
(0 0 0)
(-0.332591491963 0.0110308406754 0)
(-0.00657210942595 0.000245246511055 0)
(0 0 0)
(0 0 0)
(0 0 0)
(0 0 0)
(0 0 0)
(0 0 0)
(0 0 0)
(0 0 0)
(0 0 0)
(0 0 0)
(0 0 0)
(0 0 0)
(0 0 0)
(0 0 0)
(0 0 0)
(0 0 0)
(0 0 0)
(0 0 0)
(0 0 0)
(0 0 0)
(0 0 0)
(0 0 0)
(0 0 0)
(0 0 0)
(0 0 0)
(0 0 0)
(0 0 0)
(0 0 0)
(0 0 0)
(0 0 0)
(0 0 0)
(0 0 0)
(0 0 0)
(-2.56472378513 0.0729587818848 0)
(-0.0774474097687 0.0022031490134 0)
(0 0 0)
(0 0 0)
(0 0 0)
(0 0 0)
(0 0 0)
(0 0 0)
(-2.56466902827 0.0729572242145 0)
(-0.572253992927 0.0162789281617 0)
(-0.0160452947153 0.000468234709417 0)
(0 0 0)
(0 0 0)
(0 0 0)
(0 0 0)
(0 0 0)
(0 0 0)
(-0.0469736559071 0.00133626113483 0)
(-0.0774464711451 0.00220312231234 0)
(-0.0160453561662 0.000468236502678 0)
(0 0 0)
(0 0 0)
(0 0 0)
(0 0 0)
(0 0 0)
(0 0 0)
(0 0 0)
(0 0 0)
(0 0 0)
(0 0 0)
(0 0 0)
(0 0 0)
(0 0 0)
(0 0 0)
(0 0 0)
(0 0 0)
(0 0 0)
(0 0 0)
(0 0 0)
(0 0 0)
(0 0 0)
(0 0 0)
(0 0 0)
(0 0 0)
(0 0 0)
(0 0 0)
(-0.055227562633 0.00110034045284 0)
(-0.00185145384206 3.68989111693e-05 0)
(0 0 0)
(0 0 0)
(0 0 0)
(0 0 0)
(0 0 0)
(0 0 0)
(-0.0236830384472 0.000471855066693 0)
(-0.0442857267161 0.000882337989686 0)
(-0.0121766632102 0.000242677189095 0)
(-0.000317702551223 4.29764141504e-06 0)
(0 0 0)
(0 0 0)
(0 0 0)
(0 0 0)
(0 0 0)
(0 0 0)
(-0.00063277822431 1.09441229224e-05 0)
(-0.00129912236049 2.58911129669e-05 0)
(-0.000291674582833 3.94555461413e-06 0)
(0 0 0)
(0 0 0)
(0 0 0)
(0 0 0)
(0 0 0)
(0 0 0)
(0 0 0)
(0 0 0)
(0 0 0)
(0 0 0)
(0 0 0)
(0 0 0)
(0 0 0)
(0 0 0)
(0 0 0)
(0 0 0)
(0 0 0)
(0 0 0)
(0 0 0)
(0 0 0)
(0 0 0)
(0 0 0)
(0 0 0)
(0 0 0)
(0 0 0)
(0 0 0)
(-0.000194176229919 3.10551539768e-06 0)
(-0.000190367536488 3.04460188577e-06 0)
(-2.48236668101e-05 3.71929488979e-07 0)
(0 0 0)
(0 0 0)
(0 0 0)
(0 0 0)
(0 0 0)
(0 0 0)
(0 0 0)
(-2.51259245003e-05 3.76458173203e-07 0)
(-2.48256648602e-05 3.7195942548e-07 0)
(-2.55519244368e-06 4.3375837235e-08 0)
(0 0 0)
(0 0 0)
(0 0 0)
(0 0 0)
(0 0 0)
(0 0 0)
(0 0 0)
(0 0 0)
(0 0 0)
(0 0 0)
(0 0 0)
(0 0 0)
(0 0 0)
(0 0 0)
(0 0 0)
(0 0 0)
(0 0 0)
(0 0 0)
(0 0 0)
(0 0 0)
(0 0 0)
(0 0 0)
(0 0 0)
(0 0 0)
(0 0 0)
(0 0 0)
(0 0 0)
(0 0 0)
(0 0 0)
(0 0 0)
(0 0 0)
(0 0 0)
(0 0 0)
(0 0 0)
(0 0 0)
(0 0 0)
(-0.00335769999013 6.34583694597e-05 0)
(-0.00912723197741 0.000172498811886 0)
(-0.00203655643289 3.84896062554e-05 0)
(-0.0867538387576 0.00196860332887 0)
(-0.0177768737751 0.000335971476659 0)
(-0.052619184266 0.00119402556465 0)
(-0.0107822857671 0.000203778263644 0)
(0 0 0)
(0 0 0)
(0 0 0)
(-0.00240583138252 4.54686652109e-05 0)
(0 0 0)
(0 0 0)
(0 0 0)
(0 0 0)
(0 0 0)
(0 0 0)
(-0.017777293231 0.000335979404105 0)
(-0.00396664887969 7.49671116731e-05 0)
(-0.00396663059346 7.49667660751e-05 0)
(0 0 0)
(0 0 0)
(0 0 0)
(0 0 0)
(0 0 0)
(0 0 0)
(0 0 0)
(0 0 0)
(-0.0707509470904 0.00186293136827 0)
(-0.195427160071 0.00509218750539 0)
(-0.0429124937545 0.00112992170414 0)
(-0.803121492296 0.0241772467775 0)
(-0.17715805022 0.00536003531123 0)
(-0.487109172842 0.0146639814678 0)
(-0.10745137894 0.00325101334454 0)
(0 0 0)
(-0.00468595793144 8.85615899457e-05 0)
(0 0 0)
(-0.0228312755281 0.000714976997193 0)
(0 0 0)
(-0.0122051672232 0.000373659267065 0)
(0 0 0)
(-0.0149432499707 0.000384872639809 0)
(-0.0149431739988 0.000384870683105 0)
(-0.0028422102477 5.37159449955e-05 0)
(-0.177146386555 0.00535968241926 0)
(-0.037641840113 0.00117877994944 0)
(-0.0376412599882 0.00117876178244 0)
(-0.00740276762008 0.000226634561623 0)
(0 0 0)
(0 0 0)
(0 0 0)
(-0.00335770543172 6.34584723023e-05 0)
(0 0 0)
(0 0 0)
(0 0 0)
(-0.332599851496 0.0110311179304 0)
(-0.904085284997 0.0299851949817 0)
(-0.201730491084 0.00669066094678 0)
(-2.22736666142 0.0730581212438 0)
(-0.491274972614 0.0159828644815 0)
(-1.33542162348 0.0434458582738 0)
(-0.297972269888 0.00969406274354 0)
(0 0 0)
(-0.0262513816174 0.000887664382312 0)
(0 0 0)
(-0.0664867172392 0.00216304157689 0)
(0 0 0)
(-0.0403261693905 0.00131194898245 0)
(0 0 0)
(-0.0742119785279 0.002461339304 0)
(-0.0742123948104 0.00246135311057 0)
(-0.0140349655855 0.000521194762828 0)
(-0.491267125302 0.0159826091814 0)
(-0.109617292716 0.00356622753443 0)
(-0.109617811188 0.00356624440209 0)
(-0.0244591653545 0.000795740770409 0)
(0 0 0)
(0 0 0)
(0 0 0)
(-0.0133696245946 0.000457760966679 0)
(0 0 0)
(0 0 0)
(0 0 0)
(-7.16085498147 0.208869660753 0)
(-4.2540438434 0.121713874526 0)
(-4.25816125859 0.0960475171583 0)
(-2.01929719834 0.0455474723776 0)
(-0.57226823306 0.0162793332512 0)
(-1.55555957162 0.0442510543055 0)
(-0.347092836151 0.00987376132793 0)
(-2.58030934592 0.0582017192693 0)
(-0.265871315507 0.00599702035392 0)
(-1.22114353095 0.0275442373172 0)
(-0.125864717996 0.00283901734275 0)
(0 0 0)
(-0.0469736202054 0.00133626011923 0)
(0 0 0)
(-0.0952214375456 0.00215341676297 0)
(0 0 0)
(-0.0450639603191 0.00101911386825 0)
(0 0 0)
(0 0 0)
(0 0 0)
(0 0 0)
(0 0 0)
(0 0 0)
(0 0 0)
(0 0 0)
(0 0 0)
(0 0 0)
(0 0 0)
(0 0 0)
(0 0 0)
(0 0 0)
(0 0 0)
(0 0 0)
(0 0 0)
(0 0 0)
(0 0 0)
(0 0 0)
(0 0 0)
(0 0 0)
(0 0 0)
(0 0 0)
(0 0 0)
(0 0 0)
(0 0 0)
(0 0 0)
(0 0 0)
(0 0 0)
(0 0 0)
(0 0 0)
(0 0 0)
(0 0 0)
(0 0 0)
(0 0 0)
(0 0 0)
(0 0 0)
(0 0 0)
(0 0 0)
(0 0 0)
(0 0 0)
(0 0 0)
(-0.347090776732 0.00987370274359 0)
(-0.572254922525 0.0162789546059 0)
(-1.26000845177 0.0284208784125 0)
(-2.63093952743 0.0593437387778 0)
(-0.133597771902 0.00301344489084 0)
(-0.28006398947 0.00631715174708 0)
(-1.55554852456 0.0442507400494 0)
(-0.572254897929 0.0162789539063 0)
(-0.347090219662 0.00987368689658 0)
(-2.62168836571 0.0591350686359 0)
(-1.22602264828 0.0276542911825 0)
(-0.278991591645 0.00629296263299 0)
(-0.12976330307 0.00292695422303 0)
(-0.127686921067 0.00363231404397 0)
(-0.127686988125 0.00363231595159 0)
(-0.0284907924534 0.000810478510153 0)
(-0.740305664051 0.0166984096309 0)
(-0.0751427230122 0.00169934001755 0)
(-0.0768568295759 0.00173810424862 0)
(-0.00556111977603 7.2507209751e-05 0)
(0 0 0)
(0 0 0)
(0 0 0)
(-0.0273313441788 0.00061809374261 0)
(0 0 0)
(0 0 0)
(0 0 0)
(0 0 0)
(0 0 0)
(0 0 0)
(0 0 0)
(0 0 0)
(0 0 0)
(0 0 0)
(0 0 0)
(0 0 0)
(0 0 0)
(0 0 0)
(0 0 0)
(0 0 0)
(0 0 0)
(0 0 0)
(0 0 0)
(0 0 0)
(0 0 0)
(0 0 0)
(0 0 0)
(0 0 0)
(0 0 0)
(0 0 0)
(0 0 0)
(0 0 0)
(0 0 0)
(0 0 0)
(0 0 0)
(0 0 0)
(0 0 0)
(0 0 0)
(0 0 0)
(0 0 0)
(0 0 0)
(0 0 0)
(0 0 0)
(0 0 0)
(0 0 0)
(0 0 0)
(0 0 0)
(0 0 0)
(0 0 0)
(-0.0774465356609 0.00220312414762 0)
(0 0 0)
(0 0 0)
(-0.0484892001419 0.0010965750896 0)
(-0.101711592964 0.00230019053401 0)
(0 0 0)
(0 0 0)
(-0.0469735869275 0.00133625917257 0)
(0 0 0)
(0 0 0)
(-0.101292611575 0.00229071534051 0)
(-0.0470210040592 0.00106337208262 0)
(0 0 0)
(0 0 0)
(0 0 0)
(0 0 0)
(0 0 0)
(-0.0282639822619 0.000639185195686 0)
(0 0 0)
(0 0 0)
(0 0 0)
(0 0 0)
(0 0 0)
(0 0 0)
(0 0 0)
(0 0 0)
(0 0 0)
(0 0 0)
(0 0 0)
(0 0 0)
(0 0 0)
(0 0 0)
(0 0 0)
(0 0 0)
(0 0 0)
(0 0 0)
(0 0 0)
(0 0 0)
(0 0 0)
(0 0 0)
(0 0 0)
(0 0 0)
(0 0 0)
(0 0 0)
(0 0 0)
(0 0 0)
(0 0 0)
(0 0 0)
(0 0 0)
(0 0 0)
(0 0 0)
(0 0 0)
(0 0 0)
(0 0 0)
(0 0 0)
(0 0 0)
(0 0 0)
(0 0 0)
(0 0 0)
(0 0 0)
(0 0 0)
(0 0 0)
(0 0 0)
(0 0 0)
(0 0 0)
(0 0 0)
(0 0 0)
(0 0 0)
(0 0 0)
(0 0 0)
(0 0 0)
(0 0 0)
(0 0 0)
(0 0 0)
(0 0 0)
(0 0 0)
(0 0 0)
(0 0 0)
(0 0 0)
(0 0 0)
(0 0 0)
(0 0 0)
(0 0 0)
(0 0 0)
(0 0 0)
(0 0 0)
(0 0 0)
(0 0 0)
(0 0 0)
(0 0 0)
(0 0 0)
(0 0 0)
(0 0 0)
(0 0 0)
(0 0 0)
(0 0 0)
(0 0 0)
(0 0 0)
(0 0 0)
(0 0 0)
(0 0 0)
(0 0 0)
(0 0 0)
(0 0 0)
(0 0 0)
(0 0 0)
(0 0 0)
(0 0 0)
(0 0 0)
(0 0 0)
(0 0 0)
(0 0 0)
(0 0 0)
(0 0 0)
(0 0 0)
(0 0 0)
(0 0 0)
(0 0 0)
(0 0 0)
(0 0 0)
(0 0 0)
(0 0 0)
(0 0 0)
(0 0 0)
(0 0 0)
(0 0 0)
(0 0 0)
(0 0 0)
(0 0 0)
(0 0 0)
(0 0 0)
(0 0 0)
(0 0 0)
(0 0 0)
(0 0 0)
(0 0 0)
(0 0 0)
(0 0 0)
(0 0 0)
(0 0 0)
(0 0 0)
(0 0 0)
(0 0 0)
(0 0 0)
(0 0 0)
(0 0 0)
(0 0 0)
(0 0 0)
(0 0 0)
(0 0 0)
(0 0 0)
(0 0 0)
(0 0 0)
(0 0 0)
(0 0 0)
(0 0 0)
(0 0 0)
(0 0 0)
(0 0 0)
(0 0 0)
(0 0 0)
(0 0 0)
(0 0 0)
(0 0 0)
(0 0 0)
(0 0 0)
(0 0 0)
(0 0 0)
(0 0 0)
(0 0 0)
(0 0 0)
(0 0 0)
(0 0 0)
(0 0 0)
(0 0 0)
(0 0 0)
(0 0 0)
(0 0 0)
(0 0 0)
(0 0 0)
(0 0 0)
(0 0 0)
(0 0 0)
(0 0 0)
(0 0 0)
(0 0 0)
(0 0 0)
(0 0 0)
(0 0 0)
(0 0 0)
(0 0 0)
(-0.00210918701355 3.73458161215e-05 0)
(-0.00362305331365 6.41507282099e-05 0)
(-0.00128755838052 2.27957200263e-05 0)
(-0.00225684996835 3.99603749646e-05 0)
(-0.135727056501 0.00270419268373 0)
(-0.0817466617815 0.00162870049942 0)
(-0.00332832253758 5.89321481134e-05 0)
(-0.00177844189062 3.14895565937e-05 0)
(-0.00199906470945 3.53959618443e-05 0)
(-0.00111859507164 1.98042904009e-05 0)
(-0.0133322187013 0.000265707058082 0)
(-0.0333721604485 0.00066489876412 0)
(-0.00792380823339 0.000157919084713 0)
(-0.000708154819586 1.25376054762e-05 0)
(-0.000179900581257 3.1850697762e-06 0)
(-0.000438217644204 7.75847284206e-06 0)
(-0.000108294979116 1.91732045827e-06 0)
(0 0 0)
(-0.00104632929797 1.80966348309e-05 0)
(0 0 0)
(-2.4129380467e-05 3.41527168619e-07 0)
(0 0 0)
(-1.43279168507e-05 2.0279728611e-07 0)
(0 0 0)
(0 0 0)
(0 0 0)
(0 0 0)
(0 0 0)
(0 0 0)
(0 0 0)
(0 0 0)
(0 0 0)
(0 0 0)
(0 0 0)
(0 0 0)
(0 0 0)
(0 0 0)
(0 0 0)
(0 0 0)
(0 0 0)
(0 0 0)
(0 0 0)
(0 0 0)
(0 0 0)
(0 0 0)
(0 0 0)
(0 0 0)
(0 0 0)
(0 0 0)
(0 0 0)
(0 0 0)
(0 0 0)
(0 0 0)
(0 0 0)
(0 0 0)
(0 0 0)
(0 0 0)
(0 0 0)
(0 0 0)
(0 0 0)
(0 0 0)
(0 0 0)
(0 0 0)
(0 0 0)
(0 0 0)
(0 0 0)
(-0.0404257368426 0.000805432495349 0)
(-0.00509330224522 0.000101507962465 0)
(-0.00879303834535 0.0001752425761 0)
(-0.000425478757935 7.53293581849e-06 0)
(-0.000800812316922 1.41780704055e-05 0)
(-8.20445442698e-05 1.45256672564e-06 0)
(-0.000165191795912 2.92465645613e-06 0)
(-0.0300793797058 0.000599294205801 0)
(-0.00969838158807 0.000193285791184 0)
(-0.00668406368612 0.000133211353479 0)
(-0.000737782345893 1.30621492988e-05 0)
(-0.000445561207533 7.88848777279e-06 0)
(-0.000163244998188 2.89018916011e-06 0)
(-0.000102900595254 1.82181499141e-06 0)
(-0.00286672309721 5.71329182008e-05 0)
(-0.00271448626587 5.40988845192e-05 0)
(-0.000602983046452 1.0428804796e-05 0)
(-0.0001774333335 3.1413881149e-06 0)
(-4.10259578811e-05 6.75258220633e-07 0)
(-4.01076008842e-05 6.60142714655e-07 0)
(-5.45131666694e-06 9.25391842977e-08 0)
(0 0 0)
(0 0 0)
(0 0 0)
(0 0 0)
(0 0 0)
(0 0 0)
(0 0 0)
(0 0 0)
(0 0 0)
(0 0 0)
(0 0 0)
(0 0 0)
(0 0 0)
(0 0 0)
(0 0 0)
(0 0 0)
(0 0 0)
(0 0 0)
(0 0 0)
(0 0 0)
(0 0 0)
(0 0 0)
(0 0 0)
(0 0 0)
(0 0 0)
(0 0 0)
(0 0 0)
(0 0 0)
(0 0 0)
(0 0 0)
(0 0 0)
(0 0 0)
(0 0 0)
(0 0 0)
(0 0 0)
(0 0 0)
(0 0 0)
(0 0 0)
(0 0 0)
(0 0 0)
(0 0 0)
(0 0 0)
(0 0 0)
(0 0 0)
(0 0 0)
(0 0 0)
(0 0 0)
(0 0 0)
(0 0 0)
(-0.00116254424774 2.31691527778e-05 0)
(0 0 0)
(0 0 0)
(-8.96526077247e-06 1.26894270317e-07 0)
(-1.79523292444e-05 2.54097206738e-07 0)
(0 0 0)
(0 0 0)
(-0.000855327275657 1.47931873823e-05 0)
(0 0 0)
(0 0 0)
(-1.82484291543e-05 2.5828820385e-07 0)
(-1.21307325605e-05 1.7169834718e-07 0)
(0 0 0)
(0 0 0)
(0 0 0)
(0 0 0)
(0 0 0)
(0 0 0)
(0 0 0)
(0 0 0)
(0 0 0)
(0 0 0)
(0 0 0)
(0 0 0)
(0 0 0)
(0 0 0)
(0 0 0)
(0 0 0)
(0 0 0)
(0 0 0)
(0 0 0)
(0 0 0)
(0 0 0)
(0 0 0)
(0 0 0)
(0 0 0)
(0 0 0)
(0 0 0)
(0 0 0)
(0 0 0)
(0 0 0)
(0 0 0)
(0 0 0)
(0 0 0)
(0 0 0)
(0 0 0)
(0 0 0)
(0 0 0)
(0 0 0)
(0 0 0)
(0 0 0)
(0 0 0)
(0 0 0)
(0 0 0)
(0 0 0)
(0 0 0)
(0 0 0)
(0 0 0)
(0 0 0)
(0 0 0)
(0 0 0)
(0 0 0)
(0 0 0)
(0 0 0)
(0 0 0)
(0 0 0)
(0 0 0)
(0 0 0)
(0 0 0)
(0 0 0)
(0 0 0)
(0 0 0)
(0 0 0)
(0 0 0)
(0 0 0)
(0 0 0)
(0 0 0)
(0 0 0)
(0 0 0)
(0 0 0)
(0 0 0)
(0 0 0)
(0 0 0)
(0 0 0)
(0 0 0)
(0 0 0)
(0 0 0)
(0 0 0)
(0 0 0)
(0 0 0)
(0 0 0)
(0 0 0)
(0 0 0)
(0 0 0)
(0 0 0)
(0 0 0)
(0 0 0)
(0 0 0)
(0 0 0)
(0 0 0)
(0 0 0)
(0 0 0)
(0 0 0)
(0 0 0)
(0 0 0)
(0 0 0)
(0 0 0)
(0 0 0)
(0 0 0)
(0 0 0)
(0 0 0)
(0 0 0)
(0 0 0)
(0 0 0)
(0 0 0)
(0 0 0)
(0 0 0)
(0 0 0)
(0 0 0)
(0 0 0)
(0 0 0)
(0 0 0)
(0 0 0)
(0 0 0)
(0 0 0)
(0 0 0)
(0 0 0)
(0 0 0)
(0 0 0)
(0 0 0)
(0 0 0)
(0 0 0)
(0 0 0)
(0 0 0)
(0 0 0)
(0 0 0)
(0 0 0)
(0 0 0)
(0 0 0)
(0 0 0)
(0 0 0)
(0 0 0)
(0 0 0)
(0 0 0)
(0 0 0)
(0 0 0)
(0 0 0)
(0 0 0)
(0 0 0)
(0 0 0)
(0 0 0)
(0 0 0)
(0 0 0)
(0 0 0)
(0 0 0)
(0 0 0)
(0 0 0)
(0 0 0)
(0 0 0)
(0 0 0)
(0 0 0)
(0 0 0)
(0 0 0)
(0 0 0)
(0 0 0)
(0 0 0)
(0 0 0)
(0 0 0)
(0 0 0)
(0 0 0)
(0 0 0)
(0 0 0)
(0 0 0)
(0 0 0)
(0 0 0)
(0 0 0)
(0 0 0)
(0 0 0)
(0 0 0)
(0 0 0)
(0 0 0)
(0 0 0)
(0 0 0)
(0 0 0)
(0 0 0)
(0 0 0)
(0 0 0)
(0 0 0)
(0 0 0)
(0 0 0)
(0 0 0)
(0 0 0)
(0 0 0)
(0 0 0)
(0 0 0)
(0 0 0)
(-7.10127203893 0.176363467493 0)
(-5.51722137752 0.136624881145 0)
(-6.19326700681 0.13969595865 0)
(-3.76183893565 0.0848524205114 0)
(-4.8690840576 0.120574830179 0)
(-5.47433867875 0.123479738377 0)
(-8.05502880222 0.200313914518 0)
(-5.51735701182 0.136628239904 0)
(-2.60615359267 0.0645370922208 0)
(-2.93305287364 0.0661582380515 0)
(-2.94342310435 0.0663921500271 0)
(-3.79187441733 0.0938995113908 0)
(-3.79208235664 0.0939046606645 0)
(-4.26867171949 0.0962845921802 0)
(-1.58058700589 0.0391406284146 0)
(-3.34628330958 0.0828651830633 0)
(-1.37789775467 0.0310800014835 0)
(-2.27885035795 0.0514019797666 0)
(-2.95315675906 0.0731300529018 0)
(-1.21610759376 0.0274306462073 0)
(-1.79103202216 0.0443519518995 0)
(-0.746514975529 0.0184862112331 0)
(-0.35252803646 0.0087297749693 0)
(-0.645616004377 0.014562580065 0)
(-0.234769439082 0.00529548327531 0)
(-0.311112240628 0.00770418114301 0)
(-0.569702572273 0.0128502689923 0)
(-0.845902409467 0.0209473769939 0)
(-1.23092151472 0.0304817396548 0)
(-1.58065748124 0.0391423736203 0)
(-1.77612357415 0.0400624234507 0)
(-0.651105281946 0.0146863967666 0)
(-2.29980399607 0.0569508500964 0)
(-0.845992836603 0.0209496162727 0)
(-0.947799788957 0.0213786681537 0)
(-0.581379755019 0.0143969100557 0)
(-0.166529153774 0.00412381963395 0)
(-0.183144991475 0.004131037 0)
(-0.30523445251 0.0068848992639 0)
(-0.242302508999 0.00600022171088 0)
(-0.399573587713 0.00989478039658 0)
(-0.444214977226 0.010019758073 0)
(-0.0360278802126 0.00089865586403 0)
(-0.129647511093 0.00321050662677 0)
(-0.0305850245969 0.00069167517694 0)
(-0.0841415452055 0.00190284686493 0)
(-0.114414179685 0.00283327831731 0)
(-0.027026975106 0.000611210487323 0)
(-0.0408223476953 0.00101824592297 0)
(-0.00901835607981 0.000172357206103 0)
(0 0 0)
(-0.00789239153829 0.000144271723841 0)
(0 0 0)
(0 0 0)
(-0.00541836686246 7.06459631202e-05 0)
(-0.0102181274137 0.000195287020942 0)
(-0.0280604521019 0.000699921551861 0)
(-0.0612459266757 0.00151665428666 0)
(-0.0655938518257 0.00148339390488 0)
(-0.0131377051247 0.000240155263011 0)
(-0.0891140617056 0.00220676265384 0)
(-0.0192848233188 0.000481028011083 0)
(-0.0210611373075 0.000476294070896 0)
(-0.00513568288987 6.52816653175e-05 0)
(0 0 0)
(0 0 0)
(0 0 0)
(0 0 0)
(0 0 0)
(-0.00422360435319 5.50683637604e-05 0)
(0 0 0)
(0 0 0)
(0 0 0)
(0 0 0)
(0 0 0)
(0 0 0)
(0 0 0)
(0 0 0)
(0 0 0)
(0 0 0)
(0 0 0)
(0 0 0)
(0 0 0)
(0 0 0)
(0 0 0)
(0 0 0)
(0 0 0)
(0 0 0)
(0 0 0)
(0 0 0)
(0 0 0)
(0 0 0)
(0 0 0)
(0 0 0)
(0 0 0)
(0 0 0)
(0 0 0)
(0 0 0)
(0 0 0)
(0 0 0)
(0 0 0)
(0 0 0)
(0 0 0)
(0 0 0)
(0 0 0)
(0 0 0)
(0 0 0)
(0 0 0)
(0 0 0)
(0 0 0)
(0 0 0)
(0 0 0)
(0 0 0)
(0 0 0)
(0 0 0)
(0 0 0)
(0 0 0)
(0 0 0)
(0 0 0)
(0 0 0)
(0 0 0)
(0 0 0)
(0 0 0)
(0 0 0)
(0 0 0)
(0 0 0)
(0 0 0)
(0 0 0)
(0 0 0)
(0 0 0)
(0 0 0)
(0 0 0)
(0 0 0)
(0 0 0)
(0 0 0)
(0 0 0)
(0 0 0)
(0 0 0)
(0 0 0)
(0 0 0)
(0 0 0)
(0 0 0)
(0 0 0)
(0 0 0)
(0 0 0)
(0 0 0)
(0 0 0)
(0 0 0)
(0 0 0)
(0 0 0)
(0 0 0)
(0 0 0)
(0 0 0)
(0 0 0)
(0 0 0)
(0 0 0)
(0 0 0)
(0 0 0)
(0 0 0)
(0 0 0)
(0 0 0)
(0 0 0)
(0 0 0)
(0 0 0)
(0 0 0)
(0 0 0)
(0 0 0)
(0 0 0)
(0 0 0)
(0 0 0)
(0 0 0)
(0 0 0)
(0 0 0)
(0 0 0)
(0 0 0)
(0 0 0)
(0 0 0)
(0 0 0)
(0 0 0)
(0 0 0)
(0 0 0)
(0 0 0)
(0 0 0)
(0 0 0)
(0 0 0)
(0 0 0)
(0 0 0)
(0 0 0)
(0 0 0)
(0 0 0)
(0 0 0)
(0 0 0)
(0 0 0)
(0 0 0)
(0 0 0)
(0 0 0)
(0 0 0)
(0 0 0)
(0 0 0)
(0 0 0)
(0 0 0)
(0 0 0)
(0 0 0)
(0 0 0)
(0 0 0)
(0 0 0)
(0 0 0)
(0 0 0)
(0 0 0)
(0 0 0)
(0 0 0)
(0 0 0)
(0 0 0)
(0 0 0)
(0 0 0)
(0 0 0)
(0 0 0)
(0 0 0)
(0 0 0)
(0 0 0)
(0 0 0)
(0 0 0)
(0 0 0)
(0 0 0)
(0 0 0)
(0 0 0)
(0 0 0)
(0 0 0)
(0 0 0)
(0 0 0)
(0 0 0)
(0 0 0)
(0 0 0)
(0 0 0)
(0 0 0)
(0 0 0)
(0 0 0)
(0 0 0)
(-1.23097674192 0.0304831072652 0)
(-1.58061198432 0.0391412469643 0)
(-1.82506362371 0.0411663201716 0)
(-0.675249331535 0.0152309923975 0)
(-2.29979994912 0.0569507498802 0)
(-0.978417294459 0.0220692797127 0)
(-0.846042846883 0.0209508546947 0)
(-1.58059322497 0.0391407824198 0)
(-3.34612147251 0.0828611754353 0)
(-2.33224381116 0.0526063279115 0)
(-1.41338823009 0.0318805282462 0)
(-2.95295371459 0.0731250248406 0)
(-1.79101943713 0.0443516402519 0)
(-1.25156677938 0.028230467194 0)
(-0.581468111687 0.0143990980627 0)
(-0.166600357004 0.00412558286442 0)
(-0.31964162245 0.00720986885004 0)
(-0.193760795381 0.00437048814942 0)
(-0.242400753035 0.00600265456228 0)
(-0.463313991911 0.0104505573851 0)
(-0.399638241511 0.00989638144117 0)
(-0.746596712343 0.0184882353104 0)
(-0.352675803108 0.00873343416644 0)
(-0.669682650511 0.0151054297758 0)
(-0.248052664959 0.00559510106522 0)
(-0.845987233874 0.0209494775303 0)
(-0.311245792331 0.0077074883305 0)
(-0.592941185109 0.0133744415 0)
(-1.5804654697 0.0391376187715 0)
(-3.34605147156 0.0828594419772 0)
(-2.30615063296 0.0520177675382 0)
(-1.408404221 0.0317681084316 0)
(-2.95283159842 0.0731220008351 0)
(-1.79096997125 0.0443504153111 0)
(-1.23791551669 0.0279225479285 0)
(-1.23080912496 0.0304789565079 0)
(-1.58040246405 0.0391360585405 0)
(-1.78928480043 0.0403592894054 0)
(-0.65750821972 0.0148308220803 0)
(-2.29961995764 0.0569462926884 0)
(-0.845894982733 0.0209471930831 0)
(-0.959984346679 0.0216535042733 0)
(-0.746488483441 0.0184855552003 0)
(-0.352649850665 0.00873279149704 0)
(-0.667057151301 0.0150462087494 0)
(-0.245247390656 0.00553182501357 0)
(-0.845942447415 0.0209483684676 0)
(-0.311205404208 0.00770648818531 0)
(-0.586133078042 0.0132208771466 0)
(-0.581349168123 0.0143961526217 0)
(-0.166565173312 0.00412471159837 0)
(-0.310797053694 0.00701036986028 0)
(-0.189949417304 0.00428451831901 0)
(-0.399550631966 0.0098942119354 0)
(-0.242359503397 0.00600163308307 0)
(-0.454076658164 0.0102421991483 0)
(-0.274577852107 0.00679946731192 0)
(-0.958516021474 0.0237360672245 0)
(-0.394387771805 0.00889585057471 0)
(-0.396664594793 0.00894720682493 0)
(-0.513006539322 0.0127037602201 0)
(-0.513024024661 0.0127041932157 0)
(-0.210863877574 0.00475626700575 0)
(-0.129687444956 0.00321149552296 0)
(-0.100988876887 0.00250082285222 0)
(-0.18498903685 0.00417263147448 0)
(-0.0401545899621 0.000908089284971 0)
(-0.242300678245 0.00600017637527 0)
(-0.0524425524866 0.00130809270594 0)
(-0.0972097013595 0.00219838101406 0)
(-0.129698171296 0.00321176114306 0)
(-0.101022105768 0.00250164571061 0)
(-0.187359946562 0.00422610995436 0)
(-0.0407929409573 0.000922525485151 0)
(-0.242328840179 0.00600087375908 0)
(-0.0524572536946 0.00130845940325 0)
(-0.09794801274 0.0022150778015 0)
(-0.0612588029485 0.0015169731463 0)
(-0.00902405250236 0.00017246607511 0)
(-0.0189460472148 0.000428461664894 0)
(-0.0191042753788 0.000432039968157 0)
(-0.0247720792082 0.000617898530619 0)
(-0.0247757165025 0.000617989256905 0)
(-0.0458609001821 0.00103713652894 0)
(0 0 0)
(-0.0360370782499 0.000898885293851 0)
(-0.0079697792618 0.000145686359725 0)
(-0.0132801267209 0.000242758708252 0)
(-0.0102210912431 0.000195343665118 0)
(-0.0192884053532 0.000481117359004 0)
(0 0 0)
(0 0 0)
(0 0 0)
(0 0 0)
(0 0 0)
(0 0 0)
(0 0 0)
(0 0 0)
(0 0 0)
(0 0 0)
(-0.00486968920568 6.3492172598e-05 0)
(0 0 0)
(-0.00796254591902 0.000152178751418 0)
(0 0 0)
(0 0 0)
(0 0 0)
(0 0 0)
(0 0 0)
(0 0 0)
(0 0 0)
(0 0 0)
(0 0 0)
(0 0 0)
(0 0 0)
(0 0 0)
(0 0 0)
(0 0 0)
(0 0 0)
(0 0 0)
(0 0 0)
(0 0 0)
(0 0 0)
(0 0 0)
(0 0 0)
(0 0 0)
(0 0 0)
(0 0 0)
(0 0 0)
(0 0 0)
(0 0 0)
(0 0 0)
(0 0 0)
(0 0 0)
(0 0 0)
(0 0 0)
(0 0 0)
(0 0 0)
(0 0 0)
(0 0 0)
(0 0 0)
(0 0 0)
(0 0 0)
(0 0 0)
(0 0 0)
(0 0 0)
(0 0 0)
(0 0 0)
(0 0 0)
(0 0 0)
(0 0 0)
(0 0 0)
(0 0 0)
(0 0 0)
(0 0 0)
(0 0 0)
(0 0 0)
(0 0 0)
(0 0 0)
(0 0 0)
(0 0 0)
(0 0 0)
(0 0 0)
(0 0 0)
(0 0 0)
(0 0 0)
(0 0 0)
(0 0 0)
(0 0 0)
(0 0 0)
(0 0 0)
(0 0 0)
(0 0 0)
(0 0 0)
(0 0 0)
(0 0 0)
(0 0 0)
(0 0 0)
(0 0 0)
(0 0 0)
(0 0 0)
(0 0 0)
(0 0 0)
(0 0 0)
(0 0 0)
(0 0 0)
(0 0 0)
(0 0 0)
(0 0 0)
(0 0 0)
(0 0 0)
(0 0 0)
(0 0 0)
(0 0 0)
(0 0 0)
(0 0 0)
(0 0 0)
(0 0 0)
(0 0 0)
(0 0 0)
(0 0 0)
(0 0 0)
(0 0 0)
(0 0 0)
(0 0 0)
(0 0 0)
(0 0 0)
(0 0 0)
(0 0 0)
(0 0 0)
(0 0 0)
(0 0 0)
(0 0 0)
(0 0 0)
(0 0 0)
(0 0 0)
(0 0 0)
(0 0 0)
(0 0 0)
(0 0 0)
(0 0 0)
(0 0 0)
(0 0 0)
(0 0 0)
(0 0 0)
(0 0 0)
(0 0 0)
(0 0 0)
(0 0 0)
(0 0 0)
(0 0 0)
(0 0 0)
(0 0 0)
(0 0 0)
(0 0 0)
(0 0 0)
(0 0 0)
(0 0 0)
(0 0 0)
(0 0 0)
(0 0 0)
(0 0 0)
(0 0 0)
(0 0 0)
(0 0 0)
(0 0 0)
(0 0 0)
(0 0 0)
(0 0 0)
(0 0 0)
(0 0 0)
(0 0 0)
(0 0 0)
(0 0 0)
(0 0 0)
(0 0 0)
(0 0 0)
(0 0 0)
(0 0 0)
(0 0 0)
(0 0 0)
(0 0 0)
(0 0 0)
(0 0 0)
(0 0 0)
(0 0 0)
(0 0 0)
(0 0 0)
(0 0 0)
(0 0 0)
(0 0 0)
(0 0 0)
(0 0 0)
(0 0 0)
(0 0 0)
(0 0 0)
(0 0 0)
(0 0 0)
(0 0 0)
(0 0 0)
(0 0 0)
(-0.0280909578413 0.000700682467058 0)
(-0.0612935028558 0.00151783243224 0)
(-0.0703879925786 0.00159181259008 0)
(-0.0143000288174 0.000261402364347 0)
(-0.0891810549101 0.00220842162997 0)
(-0.0228962396517 0.000517794601151 0)
(-0.0193067017412 0.000481573732132 0)
(-0.0360690140669 0.000899681879968 0)
(-0.12974888876 0.00321301707735 0)
(-0.0900968844159 0.00203752585756 0)
(-0.0331368237474 0.000749383684691 0)
(-0.114507541561 0.00283559027008 0)
(-0.0408706177762 0.00101944994028 0)
(-0.0293364390257 0.000663438624666 0)
(-0.00514279210703 6.53720333456e-05 0)
(0 0 0)
(0 0 0)
(0 0 0)
(0 0 0)
(-0.00462659613812 6.03226670401e-05 0)
(0 0 0)
(-0.0090307476938 0.00017259403241 0)
(0 0 0)
(-0.00864598534243 0.000158047304623 0)
(0 0 0)
(-0.0102330912247 0.000195573006619 0)
(0 0 0)
(-0.00593756140306 7.74153457216e-05 0)
(-0.0360649686402 0.000899580973494 0)
(-0.129741697932 0.00321283900837 0)
(-0.0890168813363 0.00201310176992 0)
(-0.0330025856118 0.000746347911875 0)
(-0.114492282153 0.00283521239603 0)
(-0.0408689444885 0.00101940820288 0)
(-0.0289857660829 0.00065550821516 0)
(-0.0280857322823 0.000700552124137 0)
(-0.0612778635899 0.00151744515163 0)
(-0.0688978062433 0.00155811227724 0)
(-0.0138799018498 0.000253722506911 0)
(-0.0891625140813 0.00220796249695 0)
(-0.0193017740779 0.000481450819724 0)
(-0.022420317489 0.000507031701648 0)
(-0.0090301620746 0.00017258284016 0)
(0 0 0)
(-0.00861366012836 0.000157456404598 0)
(0 0 0)
(-0.0102328736584 0.000195568848531 0)
(0 0 0)
(-0.005873919955 7.65855733001e-05 0)
(-0.00514209454948 6.53631664198e-05 0)
(0 0 0)
(0 0 0)
(0 0 0)
(0 0 0)
(0 0 0)