/*--------------------------------*- C++ -*----------------------------------*\
| =========                 |                                                 |
| \\      /  F ield         | OpenFOAM: The Open Source CFD Toolbox           |
|  \\    /   O peration     | Version:  v1906                                 |
|   \\  /    A nd           | Web:      www.OpenFOAM.com                      |
|    \\/     M anipulation  |                                                 |
\*---------------------------------------------------------------------------*/
FoamFile
{
    version     2.0;
    format      ascii;
    class       volScalarField;
    location    "13.7";
    object      alpha.water;
}
// * * * * * * * * * * * * * * * * * * * * * * * * * * * * * * * * * * * * * //

dimensions      [0 0 0 0 0 0 0];


internalField   nonuniform List<scalar> 
28582
(
0.999974738208
0.999979431334
0.999989156429
0.999989346749
0.9999983911
0.999998601667
0.999987790982
0.999988350262
0.0594841807998
0.0606267986722
1.55109100024e-26
0.999987144575
0.854856811628
0.851436902501
0.99998801382
0.999983469869
0.851595461558
0.997869438987
0.997508312091
0.999981393836
0.999989944691
0.999996472304
0.999993880034
0.999990773333
0.999995149667
0.999998348193
0.999999087566
0.999986300111
0.999986749049
0.0615486574678
-1.72922384557e-28
2.52711215973e-07
0.999989338145
0.999989693036
0.859040329731
0.858537385459
0.998196997968
0.999984441017
0.999982790525
0.999984537587
0.997952037102
0.845181280385
0.997611599956
0.997437200234
0.0601210691967
0.0617333161442
0.000304356615979
0.000309721081147
0.0602823948325
0.000199917044317
0.998089890992
0.997949961177
0.85351237661
0.854734337471
0.998053766187
0.852934564108
0.998000811247
0.997828680096
0.997837849671
0.852492363156
0.851428810084
0.997748696921
0.851677557615
0.997882821651
0.997752800018
0.997840056702
0.852146297751
0.851726289076
0.997740133455
0.852318268452
0.997857013358
0.998022802078
0.852149098523
0.85140590192
0.997783648461
0.852515915764
0.852236706714
0.997910957883
0.997442478193
0.84934468476
0.84779819709
0.997456039551
0.850102830244
0.99740386221
0.851139700958
0.0576789609753
0.000158667873961
0.0560201061319
0.0568895021403
0.000155321970811
0.000155919360542
0.0626228703322
0.000371123164906
0.000375093525617
0.0634441433052
0.000380527968457
0.0626750223102
0.000320653690917
0.998048571812
0.998006841431
0.859151262332
0.858444709243
0.997981808096
0.998061992357
0.858821604362
0.9980500222
0.997991141731
0.858925329213
0.858380313309
0.997988234181
0.998057022321
0.858613721881
0.858046258534
0.857811131709
0.998166545877
0.998144889751
0.857801197737
0.998140806359
0.857930053331
0.998142184827
0.850989465137
0.849369485607
0.997944349848
0.849491529505
0.99813523266
0.8469820991
0.997898671896
0.998000436349
0.847638298481
0.843194556451
0.998089821561
0.997795507018
0.84496937001
0.997489793785
0.997493444014
0.847366017098
0.845455083188
0.843199570455
0.997625728485
0.845302628355
0.841685670843
0.840288371119
0.997318248765
0.997595153268
0.842434695953
0.997499152751
0.843890838145
0.999999455041
0.999981131823
0.0638963466148
-1.04284480457e-27
0.999992496289
0.85633760009
0.999982509134
0.999982911011
0.843064110717
0.839467606399
0.839194848231
0.999983287638
0.999983399007
0.839502969671
0.841344940203
0.0587849225837
0.0644322606746
0.0650419370114
0.000302068846658
0.000344638713052
0.000259887539079
0.0653942759112
0.0655110772666
0.998118932459
0.998131460664
0.85650097841
0.854645351991
0.998130749051
0.855161288373
0.998093934571
0.997419310383
0.997847528502
0.841203524607
0.841689537478
0.997624026344
0.997625465824
0.840377456505
0.997083919267
0.997122974153
0.841298948945
0.838714291389
0.997316688215
0.840179034097
0.996862940022
0.996821577369
0.996648047129
0.84036356603
0.838779472522
0.996706878737
0.840160537858
0.996648306283
0.99678713567
0.996707638985
0.840254740332
0.840426994046
0.99672003611
0.840385753657
0.996841230601
0.996920667928
0.997214314646
0.840840604067
0.840864677308
0.997076096827
0.840489954775
0.997032209472
0.99998539385
0.999987865328
0.999987540604
0.999993924651
0.0426352424151
0.0469000448343
0.0448811540649
0.0484288487301
0.0478354888344
5.02261290391e-26
7.88153714455e-06
1.37233306736e-07
4.37419751788e-06
-4.1332461598e-27
1.63381353609e-07
0.999992168908
0.999992196013
0.898477765343
0.899177396789
1
0.899815681869
0.999990456009
0.999986481047
0.899008867447
0.890154311065
0.999986974176
0.999983797806
0.999979132432
0.899602299249
0.900707762526
0.88997972052
0.887164346498
0.99997113472
0.99996686039
0.898613604123
0.87602658776
0.884359537744
0.870696665865
0.999986323227
0.999991004138
0.887880502001
0.885005885334
0.883519559894
0.999985541088
0.999989923034
0.999988506949
0.882702961578
0.87147856498
0.881373921954
0.8726575241
0.881103402365
0.872616088167
0.0420341342078
0.0415546780114
0.0427030434236
7.29552730107e-06
3.13920574037e-05
4.80171470798e-06
5.12225213398e-06
0.000101625410718
0.000509905095687
8.22070520623e-05
0.000478446153649
0.041441740226
0.0427010034804
0.044217286239
0.0439485566663
0.0456383677167
1.34263420394e-05
3.25328246518e-05
5.13215390775e-05
8.47240035608e-05
0.0501841355911
0.0479771599246
0.0508596795931
0.000121882674057
0.000411938132408
0.000153798394065
0.000311806056056
0.0464661679068
0.0462902808586
4.7657386756e-05
4.75688601803e-05
5.1498696174e-05
0.0508036976379
0.0481741372269
0.0502608420204
8.37428207674e-05
0.000154765936991
6.03829082845e-05
7.62733104744e-05
0.998810297977
0.998823389457
0.89800783334
0.898677762752
0.998813103322
0.898297117149
0.998820641102
0.99880419771
0.998800209258
0.899023636894
0.898838098777
0.9988068531
0.998812659132
0.898601596737
0.998947570824
0.998825965695
0.899728230178
0.900685320808
0.998847541144
0.998926069312
0.90069278879
0.99864599514
0.998739405331
0.898550694696
0.896593946192
0.998734739712
0.998633141511
0.896169865001
0.998517848348
0.998451749777
0.893283407745
0.889890715696
0.998510516856
0.998457610628
0.892862764641
0.99872021483
0.998776795579
0.900392857079
0.897031566191
0.998866754081
0.998651412936
0.897385249152
0.998847746721
0.99918306406
0.900681117504
0.896381876989
0.999020601598
0.998977800827
0.897291417883
0.998581785648
0.998470003064
0.893471697182
0.889660495328
0.998520273204
0.998507860104
0.893290380968
0.998709800794
0.99865690733
0.891196572622
0.888660919425
0.99881591083
0.998577139861
0.892508506613
0.998968835287
0.999197772794
0.8948499811
0.893706763563
0.99914605014
0.99900825776
0.889068676823
0.998882824069
0.998832295862
0.886723189843
0.872768184652
0.999018155358
0.881449087006
0.998693329155
0.998789314769
0.998702167029
0.888551177396
0.881072169878
0.99882141151
0.998672618831
0.884932571084
0.998722904514
0.998556594839
0.87207600578
0.875973727349
0.99862705699
0.879134467311
0.998588437559
0.998510958097
0.998459002896
0.887371451422
0.886303234634
0.998511745842
0.99844341739
0.885741666564
0.998630122931
0.998733556657
0.886345154685
0.883454420041
0.998626563517
0.998756858363
0.884640630408
0.998737122549
0.998941028356
0.883589128539
0.884521240214
0.998888452125
0.998774326697
0.884746012999
0.998805749586
0.998772658777
0.879844730882
0.881262388818
0.99875755889
0.998813952311
0.878838350673
0.998783122474
0.998672128497
0.875945115775
0.871732537424
0.998728559575
0.87527372531
0.998745776356
0.998970805922
0.999028041714
0.881346458131
0.879136626012
0.998973845659
0.999062972127
0.878894477495
0.998957572417
0.999045055626
0.872202380256
0.875923344876
0.999054700892
0.875530154164
0.998941251304
0.999207158723
0.999103430355
0.878883948032
0.881082416115
0.999170777917
0.999133824934
0.878741199273
0.999167695708
0.875800215969
0.999172249937
0.999978591192
0.999989233717
0.999996519017
0.999996857292
0.999994097187
0.999985932229
0.999992614385
0.999992353515
0.999994896778
0.999996984224
0.999995788235
0.999988000413
0.999950628824
0.999993928453
0.99996373473
0.999929114663
0.999961281515
0.999987392171
0.999968521081
0.999950041598
0.99998778922
0.999936638429
0.999956406643
0.999985343069
0.999992388989
0.999992469877
0.999990992598
0.999985315609
0.999975874303
0.999977939746
0.999986556189
0.999993008636
0.999994692773
0.999996714388
0.999996732578
0.999989434541
0.999982360349
0.999978134118
0.999982213711
0.999993926687
0.999998734061
0.999998684354
0.99999621609
0.999986959721
0.999998710499
0.999998399527
0.999995853989
0.999986787141
0.999957416084
0.999999009721
0.999914449154
0.999853980602
0.999927004885
0.999908228621
0.999907976544
0.99995916996
0.999863899022
0.999984311006
0.999967625444
0.999904711502
0.99993471273
0.99997256855
0.99994609449
0.999943896942
0.999983441304
0.999994006849
0.999989557399
0.999970122872
0.999967609889
0.999983093289
0.999986900749
0.999984856207
0.999991860823
0.999992590427
0.999994626437
0.999996632134
0.999997235265
0.999997094218
0.999995508005
0.999994247323
0.999998176089
0.999998896377
0.999997443467
0.999992019267
0.999960739347
1.00002271548
0.999929631668
0.99977396559
0.999879117334
0.999955006687
0.999943913733
0.999970094288
0.999985808494
1.00002707495
0.999993306756
0.999908874072
0.999911228303
0.999966373441
0.999978529808
0.999978185668
0.999995685332
0.999997847883
0.999998840694
0.999998833081
0.999998571535
0.999998467885
0.99999766291
0.999998013364
0.999998907389
0.999998536512
0.9999992893
0.999999989491
1.00000006629
0.999999957819
0.999999644766
0.999999053579
0.9999992546
0.999998893931
0.999999760541
1.00000018467
1.00000023719
1.00000018535
0.999999973293
1.00000005731
0.999999454154
0.999998977533
0.999998584488
0.999993364554
1.00002979845
1.00000161891
0.999866003565
0.999813084683
0.999959144709
0.999970012928
0.999960679561
0.999964902276
0.999973487681
0.999968387691
0.999970010186
0.999967594234
0.999963571904
0.999968876181
0.999971792452
0.999953813801
0.999984440553
0.999978854061
0.999964289177
0.999961058271
0.999974861538
0.999978711257
0.999974659669
0.999967135976
0.99995871785
0.999954097303
0.999978503212
0.999978059663
0.999987872823
0.999995243032
0.999991063023
0.999975802407
0.999954668349
0.999949272654
0.999957881664
0.999990306472
0.999992499488
0.999991624009
0.999977742409
0.999945988143
0.999948412291
0.999965013976
0.999973278407
0.999972395352
0.999976741253
0.0610750827451
0.0631264296014
0.0659666494175
0.0626958402777
0.061036887285
0.0627406054492
0.0652820087283
0.0680467175969
0.0533284091385
0.0588906951382
0.0628018708768
0.0648806724464
0.0645543698517
0.0614092810044
0.0628822602578
0.0642411424637
0.0653875606774
0.0670088122469
0.0527780934189
0.0576108834813
0.0602299106478
0.0604420677408
0.0594438763691
0.0606118443928
0.0615402488509
0.0651406698457
0.067239071013
0.0678537735567
0.0549487918203
0.0559763128706
0.0569099908289
0.0579580478012
0.0594457979536
0.0616049342452
0.0641054409015
0.0657617612399
0.0658365233574
0.0577938037521
0.0584955365193
0.0585106088047
0.0620691669095
0.0638572530914
0.0645907063392
0.0640280509979
0.0650078756827
0.0651253280082
0.0641853607857
-1.12806630217e-24
4.29087289972e-05
6.92632550102e-05
8.9232499028e-05
2.64305088737e-05
5.19922175863e-08
1.35758692034e-07
5.95730413475e-28
-1.63450845046e-27
2.91568063041e-05
5.48046390647e-05
6.07258093786e-05
6.50473075715e-05
3.04203763798e-05
6.10682649232e-24
5.88065465805e-05
-3.23117426779e-26
-5.19596211708e-26
-6.54612302559e-26
2.87072385508e-05
4.67234035642e-05
1.62687751209e-07
6.34202081415e-07
1.65436122511e-25
1.09316268291e-06
-2.35098870164e-38
5.03854456558e-05
-6.16891183402e-25
-2.02060081186e-24
3.69049395547e-05
-1.83434209745e-30
-9.11719266202e-30
-1.60483958897e-28
-2.56437394054e-27
-2.92731940656e-25
-4.8809036259e-24
-6.06370423508e-25
-1.2377781695e-24
3.64252904919e-05
-2.19957723074e-30
-3.19012486088e-27
3.39579393858e-05
-1.34433223718e-26
-4.35950982378e-26
-2.19940772551e-25
3.63837784462e-05
-9.65576521811e-28
-4.6418021752e-26
3.96113316069e-05
0.999973892075
0.999984869678
0.999978299212
0.999968227552
0.999993918844
0.999914218342
0.999971955015
0.999994148857
0.999950242477
0.999959325387
0.999994537993
0.999993153371
0.999986050772
0.99998489132
0.999962130969
0.999984570959
0.999975816604
0.999974603477
0.999951546592
0.999977122271
0.999938375168
0.999936327224
0.999938802757
0.999936638429
0.999936671692
0.999936395697
0.999936946996
0.999936671692
0.999991860643
0.999894128418
0.999980915278
0.999927122934
0.999996580054
0.999921636485
0.999988286359
0.999994001598
0.999993478796
0.999989988895
0.999999380163
1
0.999995385257
0.999994158585
0.99994320881
0.999966426825
0.999943108481
0.999918561602
0.999983960218
0.999944121761
0.999981082467
0.999984984577
0.999937565369
0.999966060973
0.99999143562
0.999994240196
0.999992246003
0.999999997499
1.00000339507
0.99998928453
1.00001047302
0.999998652719
1.00005500913
1.00001716479
1.0000786296
1.00001251725
1.00001808138
1.00001023169
1.00006743333
1.00003575027
1.00009609642
1.00006069794
1.00001201338
0.999990500525
0.999998833839
0.999998683668
1.00002385764
0.999993736593
0.99999890005
1.00001685102
1.00000157589
1.00000155593
1.00003469248
1.00002568085
1.00000046887
1.00000170783
0.999882024799
0.999960055345
0.832467818682
0.826555454393
1.000022304
0.999998501267
1.00000901542
0.831173976938
0.822234692654
0.826071361815
0.818928885127
1.00001955115
1.00001223204
1.00000782251
0.82227369997
0.825248370298
0.818180446169
0.820960018696
0.999965519538
1.00000146923
0.999981521196
0.828187707734
0.84121501538
0.825205541458
0.839229222981
0.999795672033
0.999929210187
0.999881499046
0.844470993306
0.853177011466
0.841130079063
0.844822909148
0.999887368233
0.999885458331
0.999919733185
0.855395570085
0.856667223011
0.845272302719
0.845159186028
0.999972624566
0.999967168725
0.999978337422
0.853864138015
0.84128095041
0.843905984296
0.840195736177
0.999970068074
0.999978740621
0.999976434731
0.838345947829
0.835934852649
0.839139470884
0.834378739329
0.999779681614
0.999966414876
0.999923243399
0.84454697758
0.819233094249
0.839061821002
0.821389712141
0.999965201907
0.999967408245
0.864432830743
0.834871152042
0.865083518601
0.847288423666
0.999971053973
0.999965452995
0.999964298297
0.831433851514
0.827283154854
0.843180523809
0.838298858263
0.999971304781
0.999954811265
0.999948357092
0.826971821581
0.821599186526
0.837049745048
0.833054076555
0.999968780372
0.999945704266
0.999950081168
0.818554137948
0.820999672878
0.831883516502
0.834239616361
0.999969410029
0.999960446666
0.999969221468
0.825116927804
0.838729114803
0.836973113328
0.841875914904
0.999962697949
0.999978253243
0.999977213868
0.841302856374
0.841447426686
0.842991515454
0.839918421623
0.999965930554
0.999978736362
0.999978477676
0.841695439825
0.843069199586
0.838273045032
0.836986345469
0.999971147181
0.999981541631
0.999981498385
0.842481572012
0.840479981581
0.837498229646
0.838933125564
0.999970253888
0.999980386757
0.999978023414
0.83962186248
0.833124492424
0.838969347642
0.834688618403
0.999938309452
0.999963744888
0.999968158334
0.837824670625
0.823735076917
0.839032711211
0.825893032642
0.999980811457
0.999985270674
0.999981899138
0.866554504726
0.851446448508
0.869598357532
0.859901488302
0.999970778216
0.999976728165
0.999973418974
0.847338410575
0.842383176568
0.856544065563
0.852614922902
0.999957915465
0.999967279574
0.999967754729
0.84152718252
0.839333109373
0.852434139728
0.854012110323
0.999966799827
0.999970740386
0.999976225283
0.838972340398
0.839126535344
0.853945595742
0.851456662033
0.999978929018
0.999980951285
0.999980396578
0.840234362888
0.842012993017
0.84995501295
0.845468211511
0.999977779377
0.999980094779
0.99997481933
0.841835115469
0.839038285824
0.844851994608
0.842659437611
0.999973315896
0.999974328318
0.999970435991
0.838518889558
0.837801526053
0.84274933893
0.841833666703
0.999963771629
0.999965532115
0.999958097057
0.837928821905
0.838365779164
0.840833782654
0.837959821168
0.999954598794
0.99995483214
0.999955046385
0.838174463031
0.834624448745
0.8376870334
0.836832218268
0.99996736653
0.999957824964
0.999975519274
0.838834087952
0.828316001175
0.841616491399
0.833005145404
0.869999305811
0.860821377223
0.999977392273
0.999978984061
0.858139101419
0.85542591338
0.858674081853
0.999982690234
0.999979967288
0.999984363694
0.855152524661
0.856327930579
0.859297962102
0.859143729594
0.999994885586
0.999990770821
0.99999541177
0.856126159724
0.853242116069
0.858276359394
0.855176866069
0.999994804687
0.999995896424
0.99999456618
0.851707085482
0.847094174431
0.854419442012
0.853251946981
0.999985239005
0.999991869162
0.999983175423
0.846510851544
0.844256743158
0.852830451437
0.849279308208
0.999965963231
0.999971250579
0.999957083923
0.843047857259
0.839843817043
0.847481354166
0.842342938968
0.999949441604
0.99994935582
0.999949519552
0.839419291749
0.839162331272
0.842105566554
0.842106585679
0.999951630593
0.999951567878
0.999956764545
0.839045421752
0.837941439484
0.842188465034
0.840679479947
0.999980967939
0.999965777583
0.99998787756
0.843236148148
0.834807805636
0.84677036905
0.836866239627
0.999993014673
0.999993380109
0.857283332001
0.854052803134
0.851840912867
0.999993087404
0.999993811531
0.999994610964
0.854067576701
0.854573870415
0.85199552504
0.85232177843
0.999987327361
0.999994228083
0.999991465632
0.854997277526
0.849717350299
0.853444403865
0.846475893104
0.999959898638
0.999984176915
0.999973149705
0.847825907385
0.842900643141
0.843936713957
0.840915244382
0.99994497012
0.9999598461
0.999957292527
0.842498583964
0.842102153763
0.840946912437
0.841190023884
0.99995690156
0.999958140691
0.999962159666
0.84237537179
0.840301480189
0.841847163575
0.838439187502
0.999987690924
0.999969496244
0.999991118609
0.846792279613
0.836923127303
0.84564149906
0.83699361569
0.999975777436
0.840240923688
0.999972239333
0.840355485106
0.840509655685
0.999973544495
0.841087769749
0.837395383268
0.999990547384
0.844465951918
0.836309382807
0.000601960739656
0.00058952522166
0.000697324489038
0.000770199729058
0.0595295820254
0.0605751481784
0.000708758477243
0.000632583900501
0.001037915357
0.00102241091975
0.062236806887
0.0621101599552
0.0632180015482
0.000847580783251
0.00107776321363
0.00124568281271
0.00156087477346
0.0647705342516
0.0640152964488
0.0658105677415
0.00152877852633
0.00127598072581
0.0017400086831
0.00158225381607
0.0644926525482
0.0656930554812
0.0639493218873
0.000722726658756
0.000302687050276
0.00108339982374
0.000759449585248
0.0615195835311
0.0629511984499
0.062273245753
0.000138685362206
0.000113663351831
0.000336992387949
0.000258930791493
0.0617242210459
0.0620562954701
0.0625637318005
0.000173227341202
0.000231212174851
0.00031628783136
0.000285333151955
0.0640090045396
0.0633972841561
0.0641626305567
0.000292994030893
0.000333502247442
0.000287165446053
0.000255074833089
0.0658968534466
0.0651827484962
0.0661927804415
0.000233862740736
0.000151275162232
0.00016162548766
0.000135449387384
0.0737241503026
0.0666796937676
0.0729357523586
0.000182295560155
0.000437121920788
0.000180852257594
0.000624262253982
0.056283434327
0.053296169349
0.0559840641059
0.000986217839967
0.00118908863501
0.000846143720719
0.000943580471128
0.0610760918063
0.0587024640412
0.060773624411
0.00116601061407
0.00112655477881
0.000756448079456
0.00076734908677
0.0639692042921
0.0622079848567
0.0630437355851
0.0012239584836
0.00143981456841
0.000853286034338
0.000961166459001
0.0649355519583
0.0631579739731
0.0625381048262
0.00133953771569
0.000965030477087
0.000911287985527
0.000719899829005
0.0629978425514
0.0618186245281
0.0612073472601
0.000588620548979
0.000686887276172
0.000467184420271
0.000541266431664
0.0621035733385
0.0601746946572
0.0611004120327
0.00124768931081
0.000707528366199
0.00129282542369
0.00100386997982
0.0634535582997
0.0628413968465
0.0642144063425
0.000333481441585
0.00027973170153
0.000395908271787
0.000263163263763
0.0648221402543
0.0650658432413
0.0658542204741
0.000286394540029
0.000239770971072
0.000269355121229
0.000248681990716
0.0669318729019
0.0663844384991
0.0675913572456
0.000164179701484
0.000153532636678
0.000208671163286
0.000177415037165
0.0729439654729
0.0676274283681
0.0729221244615
0.000198400066153
0.000537921724854
0.000218249547869
0.000453250656229
0.0549883278222
0.0519006618679
0.0538042232023
0.000563501960991
0.000734151247476
0.000406797710062
0.000631577848189
0.059284467014
0.0561082932262
0.0572359092255
0.000453690418632
0.000490838049995
0.000374135686519
0.000389306034662
0.0605749813914
0.0576111670365
0.0577044920653
0.000547569152308
0.0005703903327
0.000399702561127
0.00037336728644
0.0598894601115
0.0578820979265
0.0580599436079
0.000542411180216
0.000488471469346
0.000342253201698
0.000332051120103
0.0597943888487
0.0583049715027
0.0589571717298
0.000452530997525
0.000455826911147
0.000359730683057
0.000376190800981
0.0612492109711
0.0599111727424
0.0607133678209
0.00044421054892
0.00051287765152
0.000343396811954
0.000475849268615
0.0631038908308
0.060622539942
0.061922678747
0.000962963569026
0.0007547439081
0.00117579715386
0.00129972389164
0.0665309348681
0.0646243892216
0.0661581157572
0.000294028859432
0.000222098538982
0.000412855356831
0.000178723961746
0.0678745296755
0.066899712939
0.0675237695583
0.000218470497865
0.000200623973666
0.000186652046782
0.000189217588948
0.0727184060356
0.0672732506329
0.0716064064827
0.000260020852924
0.000506116782268
0.00027097088023
0.000567637038606
0.0556890645264
0.0550121299984
0.000270436528532
0.000268045153074
0.000200690348108
0.056331680343
0.0553478444294
0.0560696591221
0.000256975966281
0.000233056196457
0.000189698027033
0.000182962464393
0.0574764580445
0.0569566878467
0.0575297211125
0.000225699339383
0.000233487200113
0.000189740725029
0.00019856063513
0.0586018746358
0.0579096406825
0.0583354106234
0.000258286897994
0.000276207608251
0.000220673239869
0.000267110431038
0.060367131319
0.0591530315064
0.0603584437962
0.000274912747689
0.000336272579646
0.00029168918965
0.000263223313011
0.0628574605172
0.0615385771469
0.062706310356
0.000340530478279
0.000386161133544
0.000253045215143
0.000289504426633
0.0650360757487
0.0635940734519
0.0643578447125
0.000353960919353
0.000265804686003
0.000303215479028
0.000276004256718
0.0665879089472
0.0649137987657
0.065925010775
0.000199973043448
0.000199604407046
0.00021457048654
0.000202826323171
0.0701230596832
0.064697365368
0.0686587905832
0.000260407981649
0.000568436774511
0.00021425605702
0.000537916481963
0.058258426028
0.0592952711167
0.000163608983176
0.000162815709252
0.000163325009593
0.000150957265321
0.058550843056
0.0595617121147
0.0597952366646
0.000162166359278
0.000302744002848
0.00014519188132
0.000320340505868
0.0604277227409
0.0593312552701
0.0613696047779
0.000731396907345
0.000480708147399
0.000994460840303
0.000505724677566
0.0630868340131
0.0631722452591
0.0640282216558
0.00027499928526
0.000291391521319
0.000251128902336
0.000269670927099
0.0643663444728
0.0645417529014
0.0648590037087
0.000273722436681
0.000251380886906
0.000248529798511
0.000232620997993
0.0657712770388
0.0648075556104
0.0659726685481
0.000187118537516
0.000214330170778
0.000187055042898
0.000236913598374
0.0674817498454
0.0638336134648
0.0671033988926
0.000233149500756
0.000530336116714
0.00026841466108
0.000538474626246
0.0646369166926
0.000287091606653
0.0652325494016
0.000255364010624
0.000241066915943
0.000201794034958
0.000184463411935
0.0662076527072
0.000191598592634
0.00022900419149
0.000147805823063
0.000153263268072
0.0672995331925
0.000282380827371
0.000566977910113
0.000228265792845
0.000640767044999
0.997707163122
0.997656643958
0.83223999779
0.829126011693
0.997486820477
0.829447437878
0.997927304731
0.997660136223
0.997468571523
0.827601993633
0.826111734904
0.997554520308
0.997542215308
0.827463633484
0.997176096725
0.997494506128
0.829100430355
0.827812219677
0.997322375281
0.82588713532
0.997347251044
0.997124882141
0.997305249273
0.826329773747
0.81956276764
0.997148973263
0.823242902712
0.997293360134
0.997338172103
0.99738597028
0.826627799573
0.825032661926
0.997463934893
0.997238908599
0.824611823243
0.997260896551
0.997019344664
0.818250120185
0.822320657278
0.997217156146
0.997105087578
0.82185781539
0.997029945137
0.997258855955
0.822455319272
0.819295205475
0.997149940978
0.819337072844
0.997092452832
0.996664093153
0.995950367537
0.823572099316
0.822314041488
0.996045536805
0.820432242324
0.996681179967
0.996986162834
0.99692680131
0.817101252161
0.817408997057
0.997152739998
0.996814195139
0.816947608514
0.996655418224
0.996178910508
0.820453728209
0.818485066718
0.99620516791
0.996559732291
0.818243956633
0.995542114462
0.99545147118
0.832331938383
0.825536526993
0.995585382387
0.830227199407
0.995385127318
0.995626167429
0.99587548958
0.83682437273
0.839571218148
0.995951953989
0.834926459256
0.995474008737
0.996055083958
0.996046161411
0.824308545977
0.830390848033
0.996045602663
0.99603748125
0.829178787578
0.996186791942
0.99650988984
0.838761019591
0.835126482249
0.996492203686
0.996152135596
0.833879814113
0.997337293663
0.996581738889
0.847518420571
0.843008088475
0.996574286391
0.845717918136
0.997367587642
0.997980218795
0.998394206146
0.850402537726
0.850342116053
0.998395894072
0.848028827061
0.997981636846
0.997493681595
0.997000445871
0.841687025161
0.842643707225
0.996960589533
0.9974549145
0.843691990701
0.998013668135
0.998229019356
0.847256712159
0.843692035687
0.998436191827
0.997858335881
0.845152140805
0.998836695624
0.998673581954
0.857379150155
0.851984123819
0.998675141786
0.853382715708
0.998875331617
0.998833614958
0.998842471046
0.857464500159
0.851725547007
0.998768236031
0.852954348392
0.998883375501
0.998992757438
0.998602952448
0.848766308974
0.845786252549
0.998759011124
0.998920083713
0.850288532627
0.998989881205
0.998989342023
0.848707236908
0.845622024497
0.998932870958
0.999015919166
0.8499833167
0.998487243112
0.998734685867
0.849957520308
0.848974519562
0.998638837011
0.845644238297
0.998558130409
0.998276378703
0.998104476702
0.845638889773
0.839247494958
0.998105044604
0.8423234604
0.99831975939
0.99863895098
0.998890048309
0.846702475337
0.84230991926
0.998806974961
0.998708425571
0.844206786334
0.998429061584
0.998245107676
0.840376832134
0.841222229492
0.998222903335
0.998474511063
0.842429639392
0.997844570833
0.997853117433
0.83601079193
0.837109981669
0.997914977039
0.835507901223
0.99773661229
0.997755281347
0.997614207466
0.835940550912
0.834640096018
0.997665675803
0.835498127316
0.997660244643
0.99786395798
0.997999460532
0.838318220802
0.838380552498
0.997978835768
0.997856682555
0.83661872212
0.99773113931
0.997461719919
0.834473581015
0.837068126993
0.997616058567
0.997648609802
0.835786945546
0.996349231232
0.997273748306
0.834950334083
0.83852952672
0.997314402498
0.836466027956
0.995978822986
0.993360692365
0.988870184688
0.784249309169
0.813953773166
0.811566767274
0.992017129384
0.987273075858
0.99634099879
0.997133463863
0.839292236736
0.834258962989
0.997309974388
0.996246877583
0.833648450744
0.993124901573
0.994793172902
0.812581677567
0.789779570884
0.993702955178
0.787833415508
0.994038719387
0.99823358786
0.998612706209
0.852967218214
0.863313924392
0.998340603087
0.85376978235
0.998469745191
0.997938513312
0.997699940989
0.84311256459
0.838753373817
0.997970676906
0.997693878852
0.845578492774
0.9982138216
0.998452999827
0.864629463362
0.859195599001
0.998291802618
0.856406386432
0.998420852234
0.997921374857
0.997853851725
0.842544127186
0.852833896332
0.997678332258
0.998057010073
0.848854232447
0.997318087612
0.997468337417
0.829381953862
0.83447476328
0.997305821574
0.997473487985
0.832411417732
0.997200115797
0.997085445942
0.827438714762
0.830516181261
0.997208824637
0.997050702399
0.831506662199
0.997228637042
0.997615383526
0.838298072909
0.840665126234
0.997428728073
0.997401204904
0.836142035662
0.997023426169
0.996847644129
0.833977005246
0.839241158602
0.996753636278
0.997151961453
0.834966232971
0.996604490706
0.996948570907
0.826309604492
0.829556124526
0.996737192475
0.996853837425
0.828555603952
0.996384146457
0.996312126705
0.824323786416
0.824753400111
0.996512065812
0.99619660918
0.826660110601
0.996164831642
0.996524206591
0.832879609453
0.835772042428
0.996453544739
0.99618624135
0.831488796629
0.995938981135
0.995679935399
0.828098094777
0.834240914014
0.995730724067
0.995894815017
0.829905788798
0.995874559586
0.996141245588
0.816420116805
0.821882762873
0.995982289714
0.996009902062
0.819691306132
0.995840264579
0.995804597775
0.817958552048
0.824638495766
0.995798457005
0.995884482897
0.821516490718
0.995576955656
0.995626822473
0.826220884233
0.831539030217
0.99555701263
0.995660054783
0.824853096536
0.995660511996
0.995984425716
0.828435007136
0.832494360575
0.995853650803
0.995757632529
0.826027409539
0.9961825747
0.995878149969
0.830043580818
0.828624893724
0.996058276057
0.995998980896
0.832958393118
0.996437873588
0.996682928343
0.834675857752
0.839662127899
0.996368511641
0.996695697071
0.836596664431
0.996523548852
0.996317085787
0.831698208959
0.839592686813
0.996154149611
0.996715985252
0.835379106759
0.99688710086
0.997279863204
0.840576889614
0.841387529271
0.997124451719
0.997100493619
0.838394890307
0.997006352495
0.996934372172
0.842676003951
0.841859926653
0.997093337517
0.996882537963
0.842643380741
0.997094139317
0.997453215551
0.841938911866
0.840033401465
0.997239494751
0.997211498511
0.8416201513
0.997192333423
0.997297043228
0.8430988804
0.842803482401
0.997208657716
0.997269067549
0.843253206469
0.997142845445
0.997107682664
0.840264032
0.841511776194
0.997141777939
0.99719781358
0.842117479581
0.997557555552
0.997708002976
0.842578340929
0.839045048391
0.997977878757
0.997368291247
0.839158432406
0.997770461753
0.998356852499
0.843068840655
0.840077296319
0.998226155812
0.997981453474
0.839400438245
0.997294827007
0.99711007413
0.838244429933
0.836654413534
0.997172909952
0.997171498764
0.83695897057
0.997496260603