/*--------------------------------*- C++ -*----------------------------------*\
| =========                 |                                                 |
| \\      /  F ield         | OpenFOAM: The Open Source CFD Toolbox           |
|  \\    /   O peration     | Version:  v1906                                 |
|   \\  /    A nd           | Web:      www.OpenFOAM.com                      |
|    \\/     M anipulation  |                                                 |
\*---------------------------------------------------------------------------*/
FoamFile
{
    version     2.0;
    format      ascii;
    class       volScalarField;
    location    "13.7";
    object      p;
}
// * * * * * * * * * * * * * * * * * * * * * * * * * * * * * * * * * * * * * //

dimensions      [1 -1 -2 0 0 0 0];


internalField   nonuniform List<scalar> 
28582
(
17084.6588416
17084.5223725
12186.8909512
12186.7013264
7289.81187299
7288.98362016
3617.03210807
3616.34000249
52.2423629833
53.9760232013
-27.0924513959
3616.57523386
648.847998993
649.046755439
3616.21302023
3616.34458895
649.250400826
1781.85824915
1781.52740184
17083.5228122
17084.7632291
17085.6482793
12185.6326568
12186.8233031
12187.6691975
7288.02780741
7288.47138889
3614.79927214
3615.86441174
55.2167717613
-27.1011030043
-27.0473659274
3615.12278572
3616.10466797
642.906861795
645.763230943
1782.01843939
3615.31108714
3615.54653384
3614.99729945
1781.25616509
651.872706084
1780.72449479
1778.61318854
53.0288619369
55.2632475516
-22.947506512
-22.948473262
53.334846137
-22.9864996462
1782.2539283
1782.29794776
649.094894767
649.048963646
1782.5410892
649.433560461
1781.94557497
1782.12510402
1781.47979178
649.066498699
649.791017903
1782.03953645
649.624414413
1781.65680129
1782.24413627
1781.60693716
649.745299818
650.169379201
1782.14619955
650.776208011
1781.83539185
1781.97500691
650.732740697
651.522707285
1782.22251591
650.41344815
651.291338094
1782.00884971
1781.21295139
651.959589111
652.306474377
1782.26259486
652.384450708
1782.18221147
652.001270938
50.1524597944
-23.0051698021
48.0803635208
49.1778212713
-23.0723386718
-23.0340634326
56.5194313765
-22.9274918884
-22.9155657295
57.528565672
-22.9407642624
56.5523321002
-22.9210838111
1780.82119871
1779.69800315
643.944370485
643.568716694
1780.28463826
1780.17589363
644.697002731
1781.1254421
1780.95007655
644.945906846
646.665092696
1780.65159922
1781.41397199
645.840407484
647.056403978
648.020660729
1781.97380856
1781.68501898
647.521820066
1781.67942898
646.56493142
1781.70281726
651.03044727
651.553882925
1780.56742507
651.334587404
1781.25590153
651.60179979
1779.89751457
1779.94463809
651.588000957
651.963299559
1780.6450662
1779.3744936
651.655077803
1779.2997103
1780.21852326
651.743672368
651.996131635
651.833684767
1779.97517023
651.655687601
651.815033083
652.168412837
1778.30373929
1779.33902277
652.125520435
1778.97626855
651.71675731
7288.42991735
3614.90441174
57.9704492808
-27.050937269
3616.23597578
648.732978524
3614.86426911
3615.16334338
652.182475371
652.739655662
654.855334925
3615.73551938
3616.16662788
655.517790706
656.346002824
51.4539321498
58.6651850742
59.2936819159
-22.9376004437
-22.9469774933
-22.9776056535
59.6118866085
59.7022083715
1781.27470035
1781.79753528
648.141618657
648.772724775
1781.49791063
648.077260551
1781.56494701
1778.89256835
1779.38364941
652.598187559
652.446123664
1779.02199946
1779.04404874
652.944504467
1778.91142408
1778.32751962
652.63354249
653.399392734
1778.82252753
653.223418402
1778.66801756
1779.21733371
1779.76361465
654.475948474
654.125245711
1779.63396129
653.83821245
1779.17129391
1780.34198605
1780.34249962
655.052340007
655.946849054
1780.01678712
655.460800132
1780.81031251
1780.66509905
1781.37869441
655.865998355
656.249326057
1780.91852807
655.731425557
1781.14691663
3630.36380709
3623.55799079
3622.27502537
3620.25046826
31.4367906973
36.8887873381
34.1157646858
38.5359353871
37.785884492
-27.1002738774
-27.2403113247
-27.0980313827
-27.2107453017
-27.1375997894
-27.1617317168
3630.76951359
3629.93195612
634.847837374
633.36226793
3633.56095237
635.174239067
3627.90585075
3625.03158701
632.922062205
631.835841046
3631.95396591
3626.35723427
3626.73307845
634.745170815
640.848909844
633.324983326
637.662830428
3625.15398334
3620.82059724
642.965218301
641.856160573
638.971098113
640.587090059
3623.63771201
3622.01320107
633.047316353
637.050973191
635.685734317
3619.56445265
3621.02997515
3619.14149757
638.233725
640.190472124
636.762962843
638.566785616
636.335725562
637.951097361
30.627468812
30.012314608
31.4553625388
-23.0798617412
-23.0714898698
-23.0895352305
-23.0809885949
-23.0813093146
-23.0674705412
-23.0701661342
-23.0178949087
29.9975694846
31.4826150271
33.4839125348
33.0156828995
35.1629980671
-23.0995020593
-23.0965522144
-23.1197827363
-23.0961701997
41.2765258638
38.147341311
41.8856132534
-23.0490577261
-22.9836443361
-23.0456241812
-22.9687088089
36.0665843223
35.8914860817
-23.1163511144
-23.0878593022
-23.0978091229
41.4971336441
38.1943528092
40.7661361343
-23.0643334788
-23.0118978087
-23.0798874191
-23.0350797062
1793.94538234
1795.96181857
632.793597578
634.385755927
1795.88791243
632.419894362
1794.04781505
1793.58823452
1794.79781433
633.871924689
631.58083081
1795.50345419
1792.98018579
632.005874707
1799.7961808
1796.73256738
635.722335688
637.191411502
1797.54466336
1798.81688748
637.837839293
1790.48777951
1793.67894505
631.198817648
632.260788864
1792.00011987
1792.00759168
630.688872842
1788.84608161
1788.56035443
632.0167793
630.400978486
1790.22622619
1787.33592431
630.49828765
1794.91904806
1795.40069362
636.671965711
633.963433256
1797.17139542
1793.50109665
635.795129213
1796.06906568
1799.69215057
638.696605772
639.58523233
1798.71552412
1796.5986437
637.71105874
1792.57234659
1789.60825699
633.617120588
634.791767029
1791.47038132
1790.48975061
635.250745602
1793.35252904
1791.07790445
638.50164454
636.293017228
1793.54617798
1791.01902337
636.940065105
1793.89725618
1799.4562227
643.938533813
641.377571849
1797.29097406
1796.05144693
642.222304196
1789.91755889
1786.0671761
643.507441164
641.214108737
1792.64371839
642.187166639
1784.6805965
1791.14479231
1790.45054614
639.995975225
639.908968987
1792.87898206
1789.06749248
640.964459083
1788.05585477
1783.66403457
640.925465055
640.514100981
1786.71160931
641.282259728
1783.98677166
1787.73717133
1788.1504817
634.39084887
632.781591552
1788.88464313
1787.07871302
634.037352471
1788.11534039
1789.37511736
635.77482919
636.520524687
1789.31196362
1788.22612954
635.322697777
1787.4222672
1786.98516146
636.089553086
634.571756584
1787.52940431
1786.89366891
634.934045632
1786.90505272
1788.87363157
639.176098895
637.643359265
1787.77202969
1787.8171755
638.592834915
1785.4501833
1783.61192733
639.948111252
639.720018189
1785.97049019
639.422724951
1783.60761217
1786.32973883
1786.61545201
637.187612008
637.608943521
1787.14808538
1785.834076
638.093297222
1785.09592282
1783.39326518
639.148167053
638.268907586
1784.72947985
638.835149207
1783.56980016
1784.69700637
1786.07280829
637.11486788
636.010602237
1785.28807271
1785.54875382
636.693117164
1782.99669715
637.681581568
1784.23957777
17083.0210635
17082.91576
17083.4268061
17087.079912
17089.0506214
17100.8487153
12185.2348574
12185.134294
12185.6395003
12188.9469921
12190.5121713
12202.9347353
18294.5416986
18299.3054206
17073.144711
17079.7990762
17085.6597487
17090.0127914
17096.0274665
17077.5170149
18296.3174026
18299.8644235
17078.6646364
17081.3181857
17083.7972484
17085.7416551
17087.5477707
17101.6276819
17078.096908
17077.7330243
17078.8951718
17080.8785182
17083.1680909
17085.0005789
17086.3167469
17100.9740307
17081.4992927
17080.857043
17081.196654
17082.4548593
17084.2395766
17085.9319247
17087.7630109
17102.0775398
17084.6763701
17086.288926
17088.2830277
17101.3057098
13394.3590604
13398.6207233
12178.3936759
12183.6910829
12190.5670099
12198.4777504
12259.5688034
12076.6969567
13398.2173687
13401.19726
12182.6902777
12185.6103921
12186.707197
12187.8068349
12189.4343476
12196.0773497
12179.1579478
12180.0854178
12181.9070788
12183.6009488
12185.0324511
12186.3168649
12186.9598467
12197.6457231
12183.3984917
12183.0424045
12183.6148287
12184.9230045
12186.2694867
12187.3588788
12188.3676936
12203.0172466
12186.7288823
12187.9669165
12189.3980822
12203.2222807
8493.21695035
8497.81295423
7279.69364116
7284.44377574
7287.16841824
7285.26332491
7275.97318796
7215.59180949
8497.83860945
8501.71131735
7278.19844576
7282.89091632
7284.79926642
7283.05142476
7273.66319788
7266.04714542
7280.41082233
7280.76804498
7281.7868308
7283.21633566
7283.87634451
7282.91340141
7276.97031726
7295.85726582
7286.76530697
7285.41309473
7285.13193419
7284.91257526
7285.47914705
7285.74228309
7285.07889517
7282.3610475
7300.95211462
7287.93962115
7287.33597204
7287.41207549
7287.47965119
7286.86443763
7285.64869643
7302.12894769
7288.20699666
7287.59164177
7302.26119744
3593.65109401
3597.34745921
3603.90219908
3612.2335653
3617.96189398
3619.93537114
3615.7659899
3591.57077351
3596.70616509
3596.3477374
3598.95432249
3602.99784874
3609.21022096
3612.67249318
3614.20938092
3612.16699583
3600.29123839
3615.95083084
3608.3077029
3604.95971053
3605.48017838
3607.3304359
3608.99874058
3610.02549974
3611.95204027
3612.47958181
3614.18983316
3613.13807489
3611.76483293
3611.90649467
3611.3769159
3611.59882946
3611.84074107
3612.42532641
3614.21058841
3619.53482653
3615.23583359
3614.78193716
3614.88697386
3614.1175641
3613.79950089
3615.33400165
3620.16488303
3615.08517438
3616.26625957
3620.19154237
55.3400158251
58.8702757127
60.8013728232
56.1710065516
54.346814514
56.6163945987
59.5012686903
62.4354684286
46.1785960989
53.0694358236
57.7763430799
60.3915775617
59.1958465656
56.8595018142
56.7377956412
58.3425447559
59.6184823192
61.3445907399
44.7236946401
50.3718313848
53.7712918356
54.1764984495
53.0591783345
54.2631142186
56.4110572791
59.485346879
61.8690656834
62.4574286492
46.8852009637
48.2800840561
49.4149272198
50.7499623604
52.6227643455
55.2324521892
58.3326537314
60.0438023926
60.0462777566
50.2613912661
51.1625352965
52.5421027427
55.7097051811
57.8901023472
58.6466730303
57.839627599
59.2342747306
59.2460008345
58.0747420555
-27.122537035
-27.5763039749
-27.6027216816
-27.7399542869
-27.2913637329
-27.134329966
-27.0720349272
-27.0486863277
-27.1390442361
-27.3773548265
-27.4433549951
-27.6492915728
-27.6832646158
-27.4665504567
-27.0891941755
-27.3747541476
-27.0660167515
-27.1018792227
-27.1277295001
-27.3735238425
-27.4575731136
-27.1656028533
-27.2018253526
-27.1493240469
-27.0617396286
-27.057949436
-27.2293516785
-27.0863688381
-27.181165278
-27.4264299062
-27.1434009805
-27.1570962895
-27.0928263598
-27.0285732553
-27.0477631182
-27.0238661004
-27.0602038021
-27.1383695334
-27.386518259
-27.0853450738
-27.0347708008
-27.154015166
-27.0550378728
-27.0994763738
-27.1511544029
-27.4001790113
-27.0818657771
-27.1639486731
-27.4215970731
18297.1596158
18294.5246128
18297.2446975
15844.8166064
15847.518435
15845.1509912
15847.6331064
18300.8986035
18299.6130706
18301.4427484
15849.7918914
15847.2191749
15849.4734183
15849.4085333
18297.9759591
18298.983529
18299.3685192
15846.9534375
15848.9850452
15849.5280686
15850.4131233
18301.4860324
18300.5034815
18302.0347117
15850.7833261
15851.6422662
15851.9812336
15853.7611549
13396.8295177
13395.5631745
13397.5728425
10943.5109741
10946.146084
10945.0442914
10947.3230797
13400.003661
13398.8058464
13401.1209104
10947.9672962
10949.361151
10948.8744544
10949.8342724
13399.7985079
13400.2152906
13401.3536571
10948.2197572
10949.9943057
10950.4738136
10951.1719423
13402.2113056
13402.7562358
13407.1151285
10951.5567025
10948.7811255
10952.1508302
10955.8384854
8495.89086438
8494.85203605
8497.236606
6043.45163134
6045.87171811
6044.73224544
6046.60713028
8499.41861934
8499.12620422
8500.89342793
6048.00161522
6050.07209573
6048.46596337
6051.68419387
8499.87790245
8500.56263584
8501.36287393
6047.16827278
6048.99510119
6049.95497433
6051.01981855
8499.07041099
8502.37197647
8505.11465652
6050.51103053
6050.83652631
6052.1285459
6054.76339077
3592.19475937
3593.09409805
637.039110912
638.247135391
3595.17624482
3594.34834696
3595.63350922
638.518760892
638.849295314
640.260345464
640.994540487
3600.377934
3597.32980323
3599.82488936
639.52980132
646.088879684
640.845092777
646.157547238
3608.26205294
3603.16699469
3607.23439902
648.970205916
652.114204348
648.113018955
650.185659572
3615.45858135
3610.6140593
3613.22675711
652.026668514
652.479628646
650.260219562
650.719939589
3619.55773741
3615.16252746
3616.29379777
653.337121348
655.633576075
651.173518393
652.544913671
3618.7942745
3616.69645679
3616.65152421
655.618914932
654.160088217
652.771023284
653.31361714
3606.66809276
3616.11855006
3608.51455784
653.790381218
654.602215367
653.661081664
654.430875645
3580.69060301
3595.19780248
3600.37003306
660.927676996
552.422874297
656.215336767
622.587852558
3614.72395144
3608.27907815
639.330608791
634.128278634
640.157547304
638.899652685
3595.46058599
3603.31810304
3600.77031255
634.430052114
639.560191514
639.338643189
643.379239596
3597.71605614
3600.29218174
3600.84380296
641.569403635
643.209128149
644.424041244
645.238396604
3600.43028478
3601.93047469
3603.7537144
642.587014912
645.321753894
644.743859605
643.858839341
3606.37771559
3606.11774888
3608.23084264
647.101666355
649.140797937
644.267713091
645.74785748
3611.24493557
3609.58054692
3610.39466386
649.160686295
649.732152403
645.948326699
646.975158347
3613.72559212
3611.03103956
3611.92164893
650.146614854
652.180784147
647.449138149
651.270327795
3613.94972146
3612.63404376
3613.11229837
652.744663799
653.910696805
652.891363292
656.28724588
3607.50137038
3612.93979891
3611.28700274
654.178544833
655.029946101
656.912659012
657.791669457
3619.02081708
3608.95404691
3629.89205523
656.818482675
625.763872765
659.47880811
629.178690607
3611.86129315
3616.5673389
3613.75329262
640.034381397
639.801273673
638.87074849
640.017242575
3606.01036304
3611.45329192
3609.81635432
640.342842441
643.690486543
640.497987932
642.328401751
3604.93553937
3608.94172033
3608.88781159
644.506744919
645.306757587
642.641680884
644.155810168
3606.34051964
3609.03759706
3609.05179358
645.059908093
643.726808627
644.586768695
644.147167326
3608.21805299
3609.25256191
3609.60840108
643.688593796
644.79679069
643.699550449
643.785939365
3609.4815377
3610.07068698
3610.45239038
645.193866839
646.114765954
644.330086509
646.171798259
3610.99413824
3610.95143545
3611.61664711
646.660257689
650.943889403
646.61648224
650.427122263
3612.38583027
3612.29063637
3612.80279898
652.812046938
656.791186518
652.190600371
655.735283393
3612.90077204
3613.36040495
3614.77651252
657.523416747
658.37987078
656.584423775
658.341579685
3633.96917424
3617.67366068
3635.2427943
660.058799439
631.224695497
660.045645857
632.091568796
638.332826838
639.605649072
3612.22273957
3613.64188063
640.030805511
641.868848235
641.511056916
3611.86389275
3613.63485374
3613.82982277
642.165754447
643.929898722
642.393602974
644.999073647
3611.62561192
3613.90769607
3613.61017436
644.551545505
644.494811216
645.592178032
645.759888393
3611.43590858
3613.31614253
3613.26006935
644.153173829
644.149233942
645.668296626
646.420962051
3611.72351923
3613.37863161
3613.24172312
644.711275133
646.8803066
646.978414542
649.250905415
3611.99744792
3613.09610622
3612.97562911
647.489555836
650.336908328
649.735420451
651.209151506
3613.17939394
3613.20309812
3613.81429262
651.693189025
655.131990995
652.019837856
654.430089739
3616.09856316
3614.86002546
3616.84393664
655.917655251
657.75562176
655.064877723
656.440624869
3635.25539849
3620.2667926
3635.06651691
659.189407237
631.491720164
657.227897602
628.11691357
3614.98927983
3615.89299738
646.332923832
646.279978183
648.275292726
3614.82090561
3615.69677202
3615.73299119
646.308015328
647.184055981
648.496622275
649.673611048
3614.61099988
3615.66908694
3615.28588678
647.685637239
650.008482858
650.157070092
651.626530437
3613.74847977
3614.72286198
3614.33316618
650.471345287
651.805121335
651.854796236
653.280446802
3614.37672438
3614.42104967
3614.85311059
652.546649336
654.634382016
653.864413406
655.020775683
3617.1813713
3615.68218417
3617.37012913
655.119849933
656.336654449
655.240733582
655.605886154
3634.02604026
3619.93133446
3633.0184994
656.992422428
626.925584666
655.872434338
626.018525848
3614.78949208
653.612267596
3615.45983911
654.162555454
655.133140401
3617.81213718
655.295057526
655.390766467
3632.49751109
655.580393842
626.156314459
-22.9735894032
-22.9192409449
-22.9162217514
-22.8404913127
53.0361722602
54.8538553577
-22.9798745012
-22.9938193698
-22.9096273787
-22.8899555379
57.0258134982
57.1824575474
59.0143378572
-23.0345691344
-22.9567694705
-22.9231209095
-22.8756793496
60.4208052518
60.308244304
61.6657636052
-22.9404877801
-22.9937000971
-22.9672978168
-23.0452158318
58.6263162759
61.0305167859
58.8552717749
-22.9471438959
-23.0016846021
-22.9781767953
-22.9522354648
54.73222983
56.7169327435
55.8352335283
-23.0250983196
-23.0396228878
-22.977821022
-22.987405967
55.2164368027
55.7769577592
56.3240219938
-23.0252688679
-23.0300633178
-22.9638964415
-22.9911168102
58.1977225896
57.3755764563
58.2730743346
-23.0035895714
-23.0235520749
-22.9864459034
-23.0200904574
60.0126071581
59.3038098758
60.3678658874
-23.0797850881
-23.1257663697
-23.0785603334
-23.1183449368
69.6879568754
60.9255880445
69.4986345118
-23.1756732981
-23.1124858403
-23.1679000953
-23.0749067463
50.1116439164
45.9455436734
49.366279252
-22.9570102094
-22.885880822
-22.9413996719
-22.9120821429
55.5935298718
52.1736087952
54.6347963709
-22.8822380067
-22.8700435981
-22.9311260692
-22.9299226708
59.5044704372
56.5246166464
57.7150003783
-22.8684739876
-22.8560047447
-22.9162643555
-22.8972918603
60.0435212705
57.922509719
57.0418032546
-22.8279630266
-22.9069864075
-22.8430520432
-22.8860926012
57.6531981984
55.96692583
55.3666039823
-22.918992072
-22.8601535921
-22.8861495053
-22.8485548649
56.6469889752
55.560891588
55.9997518908
-22.9257453944
-22.9437828014
-22.9033705967
-22.915517103
57.3907824681
56.6829107601
58.148168494
-22.9470358683
-22.9859900061
-22.9081480033
-22.978501566
59.006410067
59.3519891372
60.311966355
-22.9813987082
-23.0196001168
-22.9805455773
-23.0129195421
61.3167538779
60.8935704958
62.163575193
-23.0729136005
-23.1105192684
-23.0660660086
-23.1029472536
69.3003806848
62.1065203576
69.1228395859
-23.1550023295
-23.068480565
-23.145111751
-23.0634528406
47.7109370192
43.4700411093
46.1507501683
-22.9973284696
-23.0130319005
-23.0198318088
-23.0533734575
52.5160962775
48.5220076362
49.9883867971
-22.9462879422
-22.9099898613
-22.9926417381
-22.9555994151
54.2850588828
50.5301195281
50.6858301886
-22.8761287721
-22.856991967
-22.9260229442
-22.9035349377
53.5163778084
50.8750090775
51.0604248989
-22.8537925146
-22.8582167257
-22.9001063846
-22.9030442536
53.4600244923
51.4530688322
52.2435821288
-22.849962283
-22.8500714689
-22.8900092974
-22.8942727672
55.1273846446
53.361187341
54.441322723
-22.8967859731
-22.9027525705
-22.9392015628
-22.9324291414
58.0061478113
55.8364936821
57.5551138106
-22.9135966941
-22.9459910499
-22.9469131464
-22.9468602606
61.0480961575
58.9526894335
60.4855656523
-22.9710644151
-23.0259138981
-22.9761847344
-23.0270419674
62.5302141919
61.4004359351
62.0761344774
-23.070849811
-23.0965468056
-23.063954808
-23.088024008
68.9387541321
61.784762735
67.725854021
-23.1457838477
-23.0674354359
-23.1356089871
-23.0623908606
47.9118761631
46.9313962755
-23.0358402935
-23.0105746208
-23.0744080489
48.7236304819
47.3265459585
48.2381436798
-22.9864258046
-22.965703933
-23.0435213444
-23.0097675342
50.0650339086
49.3267296136
50.0317645825
-22.961681938
-22.9626613113
-22.9935609498
-22.9974668903
51.5741929284
50.6213896084
51.2387201326
-22.9565351294
-22.9509435752
-22.9954829352
-22.9798716705
53.8227070982
52.1743706558
53.6064011407
-22.9723745815
-22.9733831645
-22.9769816445
-22.9819894947
56.8116737055
55.1377126855
56.6087719194
-22.9704262606
-22.9822823148
-22.9842185886
-22.9989832939
59.3705589298
57.7264058523
58.5592005883
-22.9836368565
-23.0128102099
-22.9910196924
-23.0096367707
60.9871360193
59.0669968195
60.2153882284
-23.0522016968
-23.0787040222
-23.0456297834
-23.0768347703
66.0143550013
58.5806702625
64.2395087619
-23.1273024985
-23.05342994
-23.1262142353
-23.0483000356
50.8254577405
52.0659403361
-23.0155231046
-23.0186597201
-23.0034623709
-23.0059775067
51.5879020494
52.4138636807
52.9816221556
-23.0221790827
-22.9923189328
-22.9965704017
-22.961331115
54.1927504541
54.0097655029
55.4625597082
-23.0102285176
-22.9897949344
-22.9124794452
-22.9551068169
56.9984847351
56.9687687984
58.0740535876
-22.9807542277
-23.0002807758
-22.9518293558
-22.9716558856
58.4845875131
58.6388680139
59.0076541852
-22.9983140553
-23.0117508596
-22.9848271555
-23.0086311893
60.0388849973
58.8779235204
60.2878941824
-23.0420954348
-23.0737027009
-23.0405670466
-23.0715470098
62.8205102747
57.6606952256
62.346137619
-23.1207388204
-23.0512601898
-23.1183529536
-23.0544084511
58.8250068487
-22.9628923504
59.4732645405
-22.9875905719
-23.0168919196
-23.0033079713
-23.0308488435
60.5254485181
-23.04948894
-23.0775267852
-23.0664355073
-23.0921346682
62.6136410272
-23.1217044943
-23.048428177
-23.1276810982
-23.0514574619
1755.83147194
1757.58771157
634.595365091
636.916734296
1756.6284982
634.49261637
1756.61348673
1755.60310484
1757.6544787
637.459885258
635.867902955
1756.53300756
1756.76990784
634.955804105
1757.10474773
1757.94614014
639.296828385
638.461217969
1757.02504357
639.397299424
1757.89314122
1757.08883957
1758.05970763
639.096073027
639.125432271
1757.30304434
639.25655796
1757.80669096
1757.2403623
1758.31512194
639.203996688
641.294332738
1757.12803178
1758.33263349
640.161109785
1757.23255495
1758.34459592
639.916832443
641.387644242
1757.19322569
1758.23972583
640.141543715
1759.33896123
1758.78304875
641.106639367
639.837145558
1757.84600928
641.412558495
1760.36027562
1761.48220709
1765.12354126
643.419155626
646.402362235
1764.1823789
643.884406065
1762.4509106
1758.91873103
1758.30069647
640.235506876
642.106942814
1757.59800395
1759.34260535
641.679439888
1761.03774443
1763.44090844
646.468170366
644.052443406
1763.61296353
1761.15416946
644.223695744
1770.08053682
1767.97315703
650.979872572
649.03150083
1767.04620048
650.880948349
1770.92482421
1772.82697021
1775.98464251
651.74478892
651.802930405
1775.19629608
651.518920072
1773.64718169
1769.28222131
1766.13721798
648.64120577
649.234871412
1766.36802393
1769.22712122
650.202213701
1771.93057962
1773.67132199
651.155187447
649.899318999
1774.21551566
1771.65642227
650.808584137
1778.867057
1777.93988214
651.946020014
651.683549698
1777.1560929
651.605319215
1779.75355444
1780.41299535
1782.93221713
652.107373334
652.029314558
1781.73269736
651.788651134
1781.4356186
1777.57509618
1775.24235862
651.123556175
650.360610356
1776.10288692
1776.44052669
651.136314094
1778.77824917
1778.38823514
651.554427914
650.463282166
1779.96454325
1777.38537906
651.220332136
1783.99912558
1784.35843052
654.090066764
652.523075992
1782.94147329
653.230375611
1785.82679424
1784.65045418
1786.93455379
655.044027525
654.378338909
1784.53388753
654.049563525
1786.79885883
1782.0546005
1779.28921017
652.054836215
651.633435616
1781.09730159
1779.98176202
652.587239239
1782.55768726
1780.57378743
653.380582854
652.134227051
1782.45416295
1780.44888636
653.122575234
1782.64042154
1786.17846626
655.293540217
654.324587363
1783.80599141
654.118801545
1784.80926579
1781.34722993
1781.78704575
654.567017294
653.419926227
1779.99544251
653.66162206
1783.24789102
1781.17207632
1780.4671162
653.355228739
652.93818965
1781.97382605
1780.12395719
653.325499754
1780.28967225
1779.0417114
653.186562215
653.047526971
1779.36057836
1779.60503152
653.179565165
1777.6249656
1780.68014868
653.34674264
653.26402594
1778.85757392
653.045092363
1779.36489045
1776.13601444
1774.26762063
653.378174503
653.895639033
1773.20615255
653.177149094
1777.44987221
1777.22541388
1778.24161559
653.288970072
653.722854241
1778.37413444
1777.02972906
653.309904139
1775.4179824
1772.52807769
654.077209193
653.862311184
1772.42055542
1775.17976307
653.493035473
1760.25841787
1768.5741737
682.110602106
656.293454478
1767.68000307
664.14554335
1759.87525479
1747.01697536
1741.38948088
747.406363588
626.692430089
678.565695414
1763.26048725
1741.43506865
1761.58706141
1768.54712679
656.493091882
662.264483443
1767.77037399
1762.94717311
664.112918219
1748.03835903
1774.59177119
617.943553464
671.150043074
1750.21741935
677.041420946
1768.69914531
1772.55250695
1778.45452758
636.922490846
639.670112768
1770.94867231
638.032821928
1778.68917509
1767.42367188
1760.88010607
634.994538225
635.984809303
1764.89242739
1763.8438613
636.583091468
1774.48397701
1780.17565398
640.024774373
639.610996431
1776.39325637
638.968436515
1779.38527261
1770.17681056
1770.05386582
637.554267898
638.955316214
1766.9461847
1772.91566119
637.849648226
1761.25204574
1758.75333437
635.612788718
636.244245306
1758.31360846
1761.85809405
637.510139297
1761.33314317
1759.33643201
637.431891531
641.112071711
1758.69091704
1761.68259482
639.352438675
1764.40749829
1768.35998046
637.972427867
640.555456655
1765.1537549
1767.58302984
639.231328121
1764.13411371
1767.06013346
642.486015731
642.091455484
1764.22745438
1767.16210976
640.949601169
1762.06597896
1759.9323542
642.714924785
642.797173643
1759.95597846
1762.09305046
643.889139218
1761.91640521
1759.67714656
643.234912189
644.492616032
1759.82120021
1761.41976155
644.386989542
1764.26646365
1766.99062731
643.796876513
645.035030771
1764.35377479
1766.742252
644.614920382
1764.04538124
1765.98901046
644.969349115
645.298573357
1763.4123221
1766.48312624
645.00187352
1761.27885122
1759.59903061
642.684432871
643.786423828
1760.3743785
1760.93083778
643.19515639
1762.60029017
1763.38679108
643.604086373
644.489151519
1761.61280597
1764.69345796
643.346058446
1762.87559879
1765.59409825
644.315248802
644.36571718
1762.82300308
1765.57636162
643.956196124
1763.91272574
1767.11497804
644.175565051
643.926234516
1765.59858715
1766.122343
643.764764532
1768.88695374
1765.70007494
648.275296464
646.014077566
1768.48079372
1766.73017038
647.07866512
1770.8807936
1772.78872638
648.928836888
648.044938031
1770.87935115
1772.43485953
647.815767387
1769.27154074
1768.46516468
645.009359345
644.810714341
1767.38190037
1769.97144593
645.825537213
1770.89245607
1772.06036663
646.822501778
645.429061764
1772.13298169
1771.18833423
646.57618005
1774.28734032
1774.2178211
649.331111986
648.055955355
1775.19225259
1773.57710809
648.221228728
1774.67164125
1776.54819287
649.413545887
648.740670998
1775.84813018
1775.08274001
648.32192464
1773.58724985
1772.68395319
646.931639234
646.139292602
1773.1071975
1773.0031713
647.099834881
1773.81742124
1773.30552746
647.867884586
646.415213929
1774.03586862
1773.16010043
647.282383393
1776.26734306
1777.27540469
650.716076104
649.20525855
1778.02805668
1775.58801803
649.850470058
1776.99599713
1779.12100918
651.531110089
651.844623003
1778.66923426
1777.79096986
650.877218169
1774.85638401
1773.69216629
648.336706006
648.325763826
1774.43890555
1774.09461382
648.932408144
1775.68922213
1776.22080957
651.584173258
649.723287541
1776.81699703
1774.99813034
650.243815246
1778.9284328
1779.41268101
653.14973561
652.750584145
1779.4704061
1778.46948332
653.378626876
1779.05837682
1778.99292757
653.520250719
654.574819447
1779.28629807
1779.03510872
654.018683492
1778.63387873
1777.36554774
652.833922124
654.179715919
1777.85154603
1778.28650557
653.760056325
1779.06584358
1779.18012324
655.553984641
655.41958995
1779.09123081
1778.89658304
654.762302633
1777.49795082
1778.24496598
654.353209153
654.955285031
1777.03148629
1778.50826023
655.165902186
1776.10072435
1773.17421719
654.567562227
655.897582136
1775.34170143
1774.30541622
655.381812107
1778.17773071
1778.89220233
656.03643894
657.298777147
1778.83303083
1778.55888969
656.356306248
1777.17170479
1776.77940438
656.919238934
657.393052265
1775.67076663
1777.9577346
656.521936999
1767.74947836
1770.3371474
662.866273146
657.542569141
1765.83505676
1771.97271291
663.38063618
1757.27957282
1780.47862341
671.345465771
627.107162107
1755.21502134
671.435678545
1783.08286059
1769.45554648
1774.78065457
658.641024269
664.662891038
1773.59042637
1770.46975377
664.234829959
1758.81202836
1785.43596286
627.997268389
671.730343112
1759.29404502
671.791860437
1784.71314481
1779.23505574
1780.90695533
639.85927517
639.828166647
1777.9578006
639.881980877
1781.54847945
1776.98303172
1772.74171602
639.630272207
640.207211439
1775.16168141
1774.91903209
639.903318212
1780.07803343
1782.03221601
639.371006801
639.241998931
1780.51339817
639.604538151
1781.93145609
1778.20056318
1777.45274583
640.244475264
639.647002729
1776.46102252
1778.93488363
639.887848532
1772.60633366
1771.11469053
641.326470012
640.767297998
1770.29484053
1773.40709017
641.662943859
1772.09509939
1769.63533313
642.632148824
643.487942489
1769.81990028
1771.81925656
642.690768256
1774.31033943
1776.29808013
640.754522172
641.126710487
1775.11043787
1775.62080709
641.461004618
1773.85343729
1775.10364454
642.849647199
641.800205468
1773.61111309
1775.25457213
642.255552734
1771.48971652
1769.47607057
645.015429983
644.095788667
1769.21970329
1771.62204054
644.499865105
1771.50406323
1768.79184388
645.203759349
645.010854656
1769.02591304
1771.55182024
644.775178191
1773.50864644
1775.04698034
643.238499943
643.051191524
1773.4618755
1775.23096317
643.702046498
1773.72583106
1776.03650839
644.562529185
643.551155835
1774.01224634
1775.60462474
644.079419908
1771.31762801
1768.57840267
644.65801348
644.987065856
1768.45463277
1771.49241335
644.7314904
1771.15747226
1768.91780827
644.058527701
643.727935782
1768.57294899
1771.01955149
644.210542642
1773.80842956