/*--------------------------------*- C++ -*----------------------------------*\
| =========                 |                                                 |
| \\      /  F ield         | OpenFOAM: The Open Source CFD Toolbox           |
|  \\    /   O peration     | Version:  v1906                                 |
|   \\  /    A nd           | Web:      www.OpenFOAM.com                      |
|    \\/     M anipulation  |                                                 |
\*---------------------------------------------------------------------------*/
FoamFile
{
    version     2.0;
    format      ascii;
    class       volVectorField;
    location    "11.35";
    object      force.turbine;
}
// * * * * * * * * * * * * * * * * * * * * * * * * * * * * * * * * * * * * * //

dimensions      [1 -2 -2 0 0 0 0];


internalField   nonuniform List<vector> 
28582
(
(0 0 0)
(0 0 0)
(0 0 0)
(0 0 0)
(0 0 0)
(0 0 0)
(0 0 0)
(0 0 0)
(0 0 0)
(0 0 0)
(0 0 0)
(0 0 0)
(0 0 0)
(0 0 0)
(0 0 0)
(0 0 0)
(0 0 0)
(0 0 0)
(0 0 0)
(0 0 0)
(0 0 0)
(0 0 0)
(0 0 0)
(0 0 0)
(0 0 0)
(0 0 0)
(0 0 0)
(0 0 0)
(0 0 0)
(0 0 0)
(0 0 0)
(0 0 0)
(0 0 0)
(0 0 0)
(0 0 0)
(0 0 0)
(0 0 0)
(0 0 0)
(0 0 0)
(0 0 0)
(0 0 0)
(0 0 0)
(0 0 0)
(0 0 0)
(0 0 0)
(0 0 0)
(0 0 0)
(0 0 0)
(0 0 0)
(0 0 0)
(0 0 0)
(0 0 0)
(0 0 0)
(0 0 0)
(0 0 0)
(0 0 0)
(0 0 0)
(0 0 0)
(0 0 0)
(0 0 0)
(0 0 0)
(0 0 0)
(0 0 0)
(0 0 0)
(0 0 0)
(0 0 0)
(0 0 0)
(0 0 0)
(0 0 0)
(0 0 0)
(0 0 0)
(0 0 0)
(0 0 0)
(0 0 0)
(0 0 0)
(0 0 0)
(0 0 0)
(0 0 0)
(0 0 0)
(0 0 0)
(0 0 0)
(0 0 0)
(0 0 0)
(0 0 0)
(0 0 0)
(0 0 0)
(0 0 0)
(0 0 0)
(0 0 0)
(0 0 0)
(0 0 0)
(0 0 0)
(0 0 0)
(0 0 0)
(0 0 0)
(0 0 0)
(0 0 0)
(0 0 0)
(0 0 0)
(0 0 0)
(0 0 0)
(0 0 0)
(0 0 0)
(0 0 0)
(0 0 0)
(0 0 0)
(0 0 0)
(0 0 0)
(0 0 0)
(0 0 0)
(0 0 0)
(0 0 0)
(0 0 0)
(0 0 0)
(0 0 0)
(0 0 0)
(0 0 0)
(0 0 0)
(0 0 0)
(0 0 0)
(0 0 0)
(0 0 0)
(0 0 0)
(0 0 0)
(0 0 0)
(0 0 0)
(0 0 0)
(0 0 0)
(0 0 0)
(0 0 0)
(0 0 0)
(0 0 0)
(0 0 0)
(0 0 0)
(0 0 0)
(0 0 0)
(0 0 0)
(0 0 0)
(0 0 0)
(0 0 0)
(0 0 0)
(0 0 0)
(0 0 0)
(0 0 0)
(0 0 0)
(0 0 0)
(0 0 0)
(0 0 0)
(0 0 0)
(0 0 0)
(0 0 0)
(0 0 0)
(0 0 0)
(0 0 0)
(0 0 0)
(0 0 0)
(0 0 0)
(0 0 0)
(0 0 0)
(0 0 0)
(0 0 0)
(0 0 0)
(0 0 0)
(0 0 0)
(0 0 0)
(0 0 0)
(0 0 0)
(0 0 0)
(0 0 0)
(0 0 0)
(0 0 0)
(0 0 0)
(0 0 0)
(0 0 0)
(0 0 0)
(0 0 0)
(0 0 0)
(0 0 0)
(0 0 0)
(0 0 0)
(0 0 0)
(0 0 0)
(0 0 0)
(0 0 0)
(0 0 0)
(0 0 0)
(0 0 0)
(0 0 0)
(0 0 0)
(0 0 0)
(0 0 0)
(0 0 0)
(0 0 0)
(0 0 0)
(0 0 0)
(0 0 0)
(0 0 0)
(0 0 0)
(0 0 0)
(0 0 0)
(0 0 0)
(0 0 0)
(0 0 0)
(0 0 0)
(0 0 0)
(0 0 0)
(0 0 0)
(0 0 0)
(0 0 0)
(0 0 0)
(0 0 0)
(0 0 0)
(0 0 0)
(0 0 0)
(0 0 0)
(0 0 0)
(0 0 0)
(-0.00342816130389 9.92594182936e-05 0)
(0 0 0)
(0 0 0)
(0 0 0)
(0 0 0)
(-2.30089429558e-05 7.37322936413e-07 0)
(0 0 0)
(-2.24749568613e-06 9.42769665876e-08 0)
(0 0 0)
(0 0 0)
(0 0 0)
(0 0 0)
(0 0 0)
(0 0 0)
(0 0 0)
(0 0 0)
(0 0 0)
(0 0 0)
(0 0 0)
(0 0 0)
(-0.015688429243 0.000510437321531 0)
(0 0 0)
(0 0 0)
(0 0 0)
(-0.0264367359258 0.000775848840006 0)
(0 0 0)
(0 0 0)
(-0.0279071726748 0.000876536367477 0)
(-0.226078695431 -0.0163940742097 0.00876815449416)
(-0.0962983908641 -0.00242494894858 0.00195694939615)
(-2.05687124401 -0.26473283244 0.122981223649)
(-0.00532346794827 0.000121597079998 0)
(-0.0723963349023 0.00212464249037 0)
(0 0 0)
(0 0 0)
(0 0 0)
(0 0 0)
(0 0 0)
(-0.0156883540049 0.000510434873591 0)
(0 0 0)
(0 0 0)
(0 0 0)
(-0.0266460996024 0.000781993114627 0)
(0 0 0)
(0 0 0)
(0 0 0)
(0 0 0)
(0 0 0)
(0 0 0)
(0 0 0)
(0 0 0)
(-1.84522415029e-05 5.17928951787e-07 0)
(0 0 0)
(-1.08727328611e-05 3.05182605208e-07 0)
(-0.000153378054982 4.56679820321e-06 0)
(-0.000641332805281 1.90955446863e-05 0)
(-8.63096487201e-05 2.5698510047e-06 0)
(-0.000371593629178 1.10641194286e-05 0)
(0 0 0)
(0 0 0)
(-0.000331833260982 8.33401440375e-06 0)
(0 0 0)
(0 0 0)
(0 0 0)
(0 0 0)
(0 0 0)
(0 0 0)
(-0.0164193044129 0.000475406627732 0)
(-0.000705361112738 1.88939359085e-05 0)
(-0.00358758457254 0.000103875379885 0)
(-2.79425757738e-05 8.05050488836e-07 0)
(-0.000127891017225 3.80792720143e-06 0)
(-3.45111500813e-06 1.44765863765e-07 0)
(-2.78200453634e-05 8.01520278608e-07 0)
(0 0 0)
(0 0 0)
(0 0 0)
(0 0 0)
(0 0 0)
(-0.000372497924079 9.35531012006e-06 0)
(0 0 0)
(0 0 0)
(0 0 0)
(0 0 0)
(0 0 0)
(0 0 0)
(0 0 0)
(0 0 0)
(0 0 0)
(0 0 0)
(0 0 0)
(0 0 0)
(0 0 0)
(0 0 0)
(0 0 0)
(0 0 0)
(0 0 0)
(0 0 0)
(0 0 0)
(0 0 0)
(-0.00492644909863 0.000105116349064 0)
(0 0 0)
(0 0 0)
(0 0 0)
(0 0 0)
(0 0 0)
(-0.00410202267119 9.36971883273e-05 0)
(0 0 0)
(0 0 0)
(0 0 0)
(0 0 0)
(0 0 0)
(0 0 0)
(0 0 0)
(0 0 0)
(0 0 0)
(0 0 0)
(0 0 0)
(0 0 0)
(0 0 0)
(0 0 0)
(0 0 0)
(0 0 0)
(0 0 0)
(0 0 0)
(0 0 0)
(0 0 0)
(0 0 0)
(0 0 0)
(-0.0349891098027 0.00105770157504 0)
(-0.00776256893658 0.000198909497306 0)
(-0.0128438419462 0.000329112973536 0)
(-0.00989440411261 0.000248224439597 0)
(-0.0187286494292 0.000566156787394 0)
(0 0 0)
(0 0 0)
(0 0 0)
(0 0 0)
(0 0 0)
(0 0 0)
(0 0 0)
(0 0 0)
(0 0 0)
(0 0 0)
(-0.00468559727394 0.000107027026761 0)
(0 0 0)
(-0.00770582413201 0.00019331875422 0)
(0 0 0)
(0 0 0)
(-0.407511632479 -0.054512007652 0.0251407990056)
(-0.425021479387 -0.0650790824395 0.0293412705938)
(-0.455899276229 -0.0525273073961 0.0248709192457)
(-0.0385906601638 0.00113253462936 0)
(-1.88813956519 -0.346689483288 0.152609082731)
(-0.0736826448435 -0.00270368736295 0.0018305236947)
(-0.115030998517 -0.00143490523545 0.0017926285762)
(-1.09472891264 -0.166494173166 0.0752667288042)
(-8.40243610559 -1.57598128007 0.69193930808)
(-1.18514556657 -0.158888181376 0.0732307419184)
(-0.601234093481 -0.0352096466458 0.0198848553023)
(-5.0232448462 -0.955560212737 0.418690774478)
(-0.32187644381 -0.0185107602432 0.0104957024677)
(-1.8850728979 -0.278811245356 0.12670567171)
(-0.0595150454538 0.001775165461 0)
(-0.00873180011096 0.000219057778977 0)
(-0.0182680058476 0.00053611804369 0)
(-0.0183145504762 0.000537484006424 0)
(-0.0240481492852 0.000726962346836 0)
(-0.0240472718637 0.000726935822864 0)
(-0.0438300855979 0.00128629801969 0)
(-0.181819389882 -0.00707573578134 0.0046741262351)
(-0.0981022064013 0.00292611132402 0)
(-0.176317423286 0.00513915042014 0)
(-0.0387477297788 0.00113714421047 0)
(-0.0509042254513 0.00153880678131 0)
(-0.0927769910925 0.00272276127886 0)
(-0.354192455044 -0.0166985568756 0.0102332428079)
(0 0 0)
(0 0 0)
(0 0 0)
(0 0 0)
(0 0 0)
(0 0 0)
(0 0 0)
(0 0 0)
(0 0 0)
(0 0 0)
(0 0 0)
(0 0 0)
(0 0 0)
(0 0 0)
(0 0 0)
(0 0 0)
(0 0 0)
(0 0 0)
(0 0 0)
(0 0 0)
(0 0 0)
(0 0 0)
(0 0 0)
(-0.00470220246271 0.00010740631757 0)
(0 0 0)
(-0.00770539265671 0.000193307929645 0)
(0 0 0)
(0 0 0)
(0 0 0)
(-0.034981100153 0.00105745944773 0)
(-0.0129134151374 0.000330895729811 0)
(-0.00784093922398 0.000200917671996 0)
(-0.0187259995409 0.000566076682728 0)
(0 0 0)
(-0.00989221498569 0.00024816952019 0)
(0 0 0)
(0 0 0)
(0 0 0)
(0 0 0)
(0 0 0)
(0 0 0)
(0 0 0)
(0 0 0)
(0 0 0)
(0 0 0)
(0 0 0)
(0 0 0)
(0 0 0)
(0 0 0)
(0 0 0)
(0 0 0)
(0 0 0)
(0 0 0)
(0 0 0)
(0 0 0)
(0 0 0)
(0 0 0)
(0 0 0)
(0 0 0)
(0 0 0)
(0 0 0)
(0 0 0)
(0 0 0)
(0 0 0)
(0 0 0)
(0 0 0)
(0 0 0)
(0 0 0)
(0 0 0)
(0 0 0)
(0 0 0)
(-0.0150824928743 0.000258355006007 0)
(0 0 0)
(0 0 0)
(0 0 0)
(0 0 0)
(0 0 0)
(0 0 0)
(0 0 0)
(-0.00336550455373 5.7649286258e-05 0)
(0 0 0)
(0 0 0)
(0 0 0)
(0 0 0)
(0 0 0)
(0 0 0)
(0 0 0)
(0 0 0)
(0 0 0)
(0 0 0)
(0 0 0)
(0 0 0)
(0 0 0)
(0 0 0)
(0 0 0)
(0 0 0)
(0 0 0)
(0 0 0)
(0 0 0)
(0 0 0)
(0 0 0)
(0 0 0)
(0 0 0)
(0 0 0)
(0 0 0)
(0 0 0)
(0 0 0)
(-0.322324718937 0.007864984948 0)
(-0.00774386451036 0.000132648241823 0)
(0 0 0)
(0 0 0)
(0 0 0)
(0 0 0)
(0 0 0)
(0 0 0)
(-0.0707809596507 0.00174873322956 0)
(0 0 0)
(0 0 0)
(0 0 0)
(0 0 0)
(0 0 0)
(0 0 0)
(0 0 0)
(0 0 0)
(0 0 0)
(0 0 0)
(0 0 0)
(0 0 0)
(0 0 0)
(0 0 0)
(0 0 0)
(0 0 0)
(0 0 0)
(0 0 0)
(0 0 0)
(0 0 0)
(0 0 0)
(0 0 0)
(0 0 0)
(0 0 0)
(0 0 0)
(0 0 0)
(0 0 0)
(-1.50718929209 0.0495543080289 0)
(-0.0431778171135 0.00138844540524 0)
(0 0 0)
(0 0 0)
(0 0 0)
(0 0 0)
(0 0 0)
(0 0 0)
(-0.330586755014 0.0107444036651 0)
(-0.0065626099412 0.000236162147466 0)
(0 0 0)
(0 0 0)
(0 0 0)
(0 0 0)
(0 0 0)
(0 0 0)
(0 0 0)
(0 0 0)
(0 0 0)
(0 0 0)
(0 0 0)
(0 0 0)
(0 0 0)
(0 0 0)
(0 0 0)
(0 0 0)
(0 0 0)
(0 0 0)
(0 0 0)
(0 0 0)
(0 0 0)
(0 0 0)
(0 0 0)
(0 0 0)
(0 0 0)
(0 0 0)
(0 0 0)
(0 0 0)
(0 0 0)
(0 0 0)
(0 0 0)
(0 0 0)
(0 0 0)
(-2.51145146794 0.0788821774406 0)
(-0.0758492333352 0.002382348518 0)
(0 0 0)
(0 0 0)
(0 0 0)
(0 0 0)
(0 0 0)
(0 0 0)
(-2.51208179541 0.0789019753958 0)
(-0.560522221707 0.0176054420787 0)
(-0.0156881374335 0.000510427827244 0)
(0 0 0)
(0 0 0)
(0 0 0)
(0 0 0)
(0 0 0)
(0 0 0)
(-0.0460107434652 0.00144515141007 0)
(-0.0758586957798 0.00238264572392 0)
(-0.0156882995765 0.000510433102716 0)
(0 0 0)
(0 0 0)
(0 0 0)
(0 0 0)
(0 0 0)
(0 0 0)
(0 0 0)
(0 0 0)
(0 0 0)
(0 0 0)
(0 0 0)
(0 0 0)
(0 0 0)
(0 0 0)
(0 0 0)
(0 0 0)
(0 0 0)
(0 0 0)
(0 0 0)
(0 0 0)
(0 0 0)
(0 0 0)
(0 0 0)
(0 0 0)
(0 0 0)
(0 0 0)
(-0.0670593477669 0.00193686596037 0)
(-0.00212005012296 6.13842008308e-05 0)
(0 0 0)
(0 0 0)
(0 0 0)
(0 0 0)
(0 0 0)
(0 0 0)
(-0.0453868012875 0.00131090076762 0)
(-0.0691692599702 0.00199780626567 0)
(-0.0152727315106 0.000442208610131 0)
(-0.000377598427792 9.48340960978e-06 0)
(0 0 0)
(0 0 0)
(0 0 0)
(0 0 0)
(0 0 0)
(0 0 0)
(-0.00124276931366 3.32890534185e-05 0)
(-0.00213183784073 6.17255039098e-05 0)
(-0.000371530555384 9.33101459098e-06 0)
(0 0 0)
(0 0 0)
(0 0 0)
(0 0 0)
(0 0 0)
(0 0 0)
(0 0 0)
(0 0 0)
(0 0 0)
(0 0 0)
(0 0 0)
(0 0 0)
(0 0 0)
(0 0 0)
(0 0 0)
(0 0 0)
(0 0 0)
(0 0 0)
(0 0 0)
(0 0 0)
(0 0 0)
(0 0 0)
(0 0 0)
(0 0 0)
(0 0 0)
(0 0 0)
(-0.000177764190049 5.72211202987e-06 0)
(-0.000177385226749 5.70991345119e-06 0)
(-2.28066117388e-05 7.30839220613e-07 0)
(0 0 0)
(0 0 0)
(0 0 0)
(0 0 0)
(0 0 0)
(0 0 0)
(0 0 0)
(-2.34088599457e-05 7.50138299984e-07 0)
(-2.3186194036e-05 7.43002957753e-07 0)
(-2.24865107578e-06 9.43254323677e-08 0)
(0 0 0)
(0 0 0)
(0 0 0)
(0 0 0)
(0 0 0)
(0 0 0)
(0 0 0)
(0 0 0)
(0 0 0)
(0 0 0)
(0 0 0)
(0 0 0)
(0 0 0)
(0 0 0)
(0 0 0)
(0 0 0)
(0 0 0)
(0 0 0)
(0 0 0)
(0 0 0)
(0 0 0)
(0 0 0)
(0 0 0)
(0 0 0)
(0 0 0)
(0 0 0)
(0 0 0)
(0 0 0)
(0 0 0)
(0 0 0)
(0 0 0)
(0 0 0)
(0 0 0)
(0 0 0)
(0 0 0)
(0 0 0)
(-0.00336537855723 5.76471280056e-05 0)
(-0.00914835227607 0.000156706363261 0)
(-0.00204127310618 3.49659124658e-05 0)
(-0.0868759997724 0.00182450560608 0)
(-0.0178171225651 0.000305197744543 0)
(-0.0526975930367 0.00110671594197 0)
(-0.0108069042919 0.00018511646891 0)
(0 0 0)
(0 0 0)
(0 0 0)
(-0.0024114593546 4.13070041693e-05 0)
(0 0 0)
(0 0 0)
(0 0 0)
(0 0 0)
(0 0 0)
(0 0 0)
(-0.0178185436798 0.000305222087475 0)
(-0.00397585223966 6.81042144571e-05 0)
(-0.0039758629254 6.81043974982e-05 0)
(0 0 0)
(0 0 0)
(0 0 0)
(0 0 0)
(0 0 0)
(0 0 0)
(0 0 0)
(0 0 0)
(-0.0707836881692 0.00174880064107 0)
(-0.1954884279 0.00477007642482 0)
(-0.0429305454906 0.00106065348412 0)
(-0.801414701453 0.0230601427551 0)
(-0.17699253475 0.0050683283154 0)
(-0.486071986811 0.0139863785688 0)
(-0.107350245508 0.00307406348941 0)
(0 0 0)
(-0.0046968704727 8.04548697156e-05 0)
(0 0 0)
(-0.0228106429413 0.000679673803499 0)
(0 0 0)
(-0.0122050631681 0.000355273887164 0)
(0 0 0)
(-0.0149568190089 0.000360958440586 0)
(-0.0149577717113 0.000360981432506 0)
(-0.00284879884372 4.87983948353e-05 0)
(-0.176976920815 0.0050678811974 0)
(-0.0376026126639 0.00112042044744 0)
(-0.0376047426313 0.00112048391269 0)
(-0.0074016407863 0.000215452362461 0)
(0 0 0)
(0 0 0)
(0 0 0)
(-0.00336525926995 5.76450846785e-05 0)
(0 0 0)
(0 0 0)
(0 0 0)
(-0.330635297216 0.0107459813357 0)
(-0.898601380293 0.0292054530845 0)
(-0.200538138838 0.00651769219802 0)
(-2.20008826805 0.0737345439174 0)
(-0.485227000242 0.016140875877 0)
(-1.31887298068 0.0438717653142 0)
(-0.294310421108 0.00979011467631 0)
(0 0 0)
(-0.0261886752694 0.000842134880315 0)
(0 0 0)
(-0.0656826988698 0.0021849078662 0)
(0 0 0)
(-0.0398387877891 0.00132522083164 0)
(0 0 0)
(-0.0737660582439 0.00239747144898 0)
(-0.0737819616922 0.00239798832712 0)
(-0.0139954766609 0.000500333588596 0)
(-0.485337610492 0.0161445552813 0)
(-0.108291360994 0.0036022674243 0)
(-0.108305011476 0.00360272150193 0)
(-0.02416608339 0.00080387478899 0)
(0 0 0)
(0 0 0)
(0 0 0)
(-0.0133229690879 0.000431608422178 0)
(0 0 0)
(0 0 0)
(0 0 0)
(-7.01734185058 0.224820881135 0)
(-4.16714351411 0.131483095049 0)
(-3.98162414689 0.116052997066 0)
(-1.88087909674 0.0548222655487 0)
(-0.560403277765 0.0176017061685 0)
(-1.52349418104 0.0478514276913 0)
(-0.33994048982 0.0106771906125 0)
(-2.41534683758 0.0704004770703 0)
(-0.255239399954 0.0074395011285 0)
(-1.14075254979 0.0332496859145 0)
(-0.12023312934 0.00350445308041 0)
(0 0 0)
(-0.0460076146791 0.00144505313802 0)
(0 0 0)
(-0.09231683748 0.00270925697759 0)
(0 0 0)
(-0.0434840313555 0.00127614223558 0)
(0 0 0)
(0 0 0)
(0 0 0)
(0 0 0)
(0 0 0)
(0 0 0)
(0 0 0)
(0 0 0)
(0 0 0)
(0 0 0)
(0 0 0)
(0 0 0)
(0 0 0)
(0 0 0)
(0 0 0)
(0 0 0)
(0 0 0)
(0 0 0)
(0 0 0)
(0 0 0)
(0 0 0)
(0 0 0)
(0 0 0)
(0 0 0)
(0 0 0)
(0 0 0)
(0 0 0)
(0 0 0)
(0 0 0)
(0 0 0)
(0 0 0)
(0 0 0)
(0 0 0)
(0 0 0)
(0 0 0)
(0 0 0)
(0 0 0)
(0 0 0)
(0 0 0)
(0 0 0)
(0 0 0)
(0 0 0)
(0 0 0)
(-0.440981360162 -0.00964399732646 0.00876808014168)
(-0.560522363014 0.017605446517 0)
(-2.50807221265 -0.25148164776 0.122943360823)
(-2.44767508092 0.0660926601909 0.00195841142551)
(-0.121262687096 0.00353446175496 0)
(-0.255648343001 0.00745142065293 0)
(-1.52365782232 0.0478565675003 0)
(-0.560524048242 0.0176054994483 0)
(-0.339976142826 0.0106783104378 0)
(-2.42053187711 0.0705516061962 0)
(-1.1406299529 0.0332461125647 0)
(-0.255428468857 0.00744501194821 0)
(-0.120387235064 0.00350894482308 0)
(-0.125069170657 0.00392829749573 0)
(-0.125070930295 0.0039283527642 0)
(-0.0279070844404 0.000876533596123 0)
(-0.691679943047 0.0201604991932 0)
(-0.071661241435 0.00210306942569 0)
(-0.0717610718365 0.00210599918606 0)
(-0.00525388781948 0.000120007751281 0)
(0 0 0)
(0 0 0)
(0 0 0)
(-0.0263554959556 0.00077346466002 0)
(0 0 0)
(0 0 0)
(0 0 0)
(0 0 0)
(0 0 0)
(0 0 0)
(0 0 0)
(0 0 0)
(0 0 0)
(0 0 0)
(0 0 0)
(0 0 0)
(0 0 0)
(0 0 0)
(0 0 0)
(0 0 0)
(0 0 0)
(0 0 0)
(0 0 0)
(0 0 0)
(0 0 0)
(0 0 0)
(0 0 0)
(0 0 0)
(0 0 0)
(0 0 0)
(0 0 0)
(0 0 0)
(0 0 0)
(0 0 0)
(0 0 0)
(0 0 0)
(0 0 0)
(0 0 0)
(0 0 0)
(0 0 0)
(0 0 0)
(0 0 0)
(0 0 0)
(0 0 0)
(0 0 0)
(0 0 0)
(0 0 0)
(0 0 0)
(0 0 0)
(-0.0758588033877 0.00238264910378 0)
(0 0 0)
(0 0 0)
(-0.0439005646399 0.00128836639466 0)
(-0.092606653463 0.00271776231633 0)
(0 0 0)
(0 0 0)
(-0.0460107039449 0.00144515016877 0)
(0 0 0)
(0 0 0)
(-0.0925201071434 0.00271522240892 0)
(-0.0435462286239 0.00127796756223 0)
(0 0 0)
(0 0 0)
(0 0 0)
(0 0 0)
(0 0 0)
(-0.0263759566494 0.000774065127703 0)
(0 0 0)
(0 0 0)
(0 0 0)
(0 0 0)
(0 0 0)
(0 0 0)
(0 0 0)
(0 0 0)
(0 0 0)
(0 0 0)
(0 0 0)
(0 0 0)
(0 0 0)
(0 0 0)
(0 0 0)
(0 0 0)
(0 0 0)
(0 0 0)
(0 0 0)
(0 0 0)
(0 0 0)
(0 0 0)
(0 0 0)
(0 0 0)
(0 0 0)
(0 0 0)
(0 0 0)
(0 0 0)
(0 0 0)
(0 0 0)
(0 0 0)
(0 0 0)
(0 0 0)
(0 0 0)
(0 0 0)
(0 0 0)
(0 0 0)
(0 0 0)
(0 0 0)
(0 0 0)
(0 0 0)
(0 0 0)
(0 0 0)
(0 0 0)
(0 0 0)
(0 0 0)
(0 0 0)
(0 0 0)
(0 0 0)
(0 0 0)
(0 0 0)
(0 0 0)
(0 0 0)
(0 0 0)
(0 0 0)
(0 0 0)
(0 0 0)
(0 0 0)
(0 0 0)
(0 0 0)
(0 0 0)
(0 0 0)
(0 0 0)
(0 0 0)
(0 0 0)
(0 0 0)
(0 0 0)
(0 0 0)
(0 0 0)
(0 0 0)
(0 0 0)
(0 0 0)
(0 0 0)
(0 0 0)
(0 0 0)
(0 0 0)
(0 0 0)
(0 0 0)
(0 0 0)
(0 0 0)
(0 0 0)
(0 0 0)
(0 0 0)
(0 0 0)
(0 0 0)
(0 0 0)
(0 0 0)
(0 0 0)
(0 0 0)
(0 0 0)
(0 0 0)
(0 0 0)
(0 0 0)
(0 0 0)
(0 0 0)
(0 0 0)
(0 0 0)
(0 0 0)
(0 0 0)
(0 0 0)
(0 0 0)
(0 0 0)
(0 0 0)
(0 0 0)
(0 0 0)
(0 0 0)
(0 0 0)
(0 0 0)
(0 0 0)
(0 0 0)
(0 0 0)
(0 0 0)
(0 0 0)
(0 0 0)
(0 0 0)
(0 0 0)
(0 0 0)
(0 0 0)
(0 0 0)
(0 0 0)
(0 0 0)
(0 0 0)
(0 0 0)
(0 0 0)
(0 0 0)
(0 0 0)
(0 0 0)
(0 0 0)
(0 0 0)
(0 0 0)
(0 0 0)
(0 0 0)
(0 0 0)
(0 0 0)
(0 0 0)
(0 0 0)
(0 0 0)
(0 0 0)
(0 0 0)
(0 0 0)
(0 0 0)
(0 0 0)
(0 0 0)
(0 0 0)
(0 0 0)
(0 0 0)
(0 0 0)
(0 0 0)
(0 0 0)
(0 0 0)
(0 0 0)
(0 0 0)
(0 0 0)
(0 0 0)
(0 0 0)
(0 0 0)
(0 0 0)
(0 0 0)
(0 0 0)
(0 0 0)
(0 0 0)
(0 0 0)
(0 0 0)
(0 0 0)
(0 0 0)
(0 0 0)
(0 0 0)
(0 0 0)
(0 0 0)
(0 0 0)
(0 0 0)
(0 0 0)
(0 0 0)
(-0.00160015119782 4.76146222609e-05 0)
(-0.00244362976818 7.27134464017e-05 0)
(-0.000988111785055 2.942081333e-05 0)
(-0.00149453613468 4.4471905908e-05 0)
(-0.177786388136 0.00513497990757 0)
(-0.110451471794 0.00319015473777 0)
(-0.00234016406636 6.96346871472e-05 0)
(-0.00141812816408 4.2198285351e-05 0)
(-0.00142572019029 4.24241961652e-05 0)
(-0.000863699627928 2.57164684308e-05 0)
(-0.0152461837625 0.000441439943257 0)
(-0.041275583213 0.00119215701885 0)
(-0.0093683768804 0.000271253175411 0)
(-0.000524780015629 1.5625210743e-05 0)
(-0.00011821143237 3.5197196692e-06 0)
(-0.000324148221311 9.65144273622e-06 0)
(-7.22455477862e-05 2.15109546055e-06 0)
(0 0 0)
(-0.00122533040065 3.28219314029e-05 0)
(0 0 0)
(-1.40909056526e-05 3.95512273847e-07 0)
(0 0 0)
(-8.55823821642e-06 2.40217934925e-07 0)
(0 0 0)
(0 0 0)
(0 0 0)
(0 0 0)
(0 0 0)
(0 0 0)
(0 0 0)
(0 0 0)
(0 0 0)
(0 0 0)
(0 0 0)
(0 0 0)
(0 0 0)
(0 0 0)
(0 0 0)
(0 0 0)
(0 0 0)
(0 0 0)
(0 0 0)
(0 0 0)
(0 0 0)
(0 0 0)
(0 0 0)
(0 0 0)
(0 0 0)
(0 0 0)
(0 0 0)
(0 0 0)
(0 0 0)
(0 0 0)
(0 0 0)
(0 0 0)
(0 0 0)
(0 0 0)
(0 0 0)
(0 0 0)
(0 0 0)
(0 0 0)
(0 0 0)
(0 0 0)
(0 0 0)
(0 0 0)
(0 0 0)
(-0.0708874667361 0.00204743299644 0)
(-0.00989271141686 0.000286434824251 0)
(-0.0158038671438 0.00045758717879 0)
(-0.000424298255532 1.26333882068e-05 0)
(-0.000664875439185 1.97965214866e-05 0)
(-9.83836085202e-05 2.92935052975e-06 0)
(-0.000155809989275 4.63920851744e-06 0)
(-0.0414246187636 0.00119646159225 0)
(-0.0156374265391 0.000452768036358 0)
(-0.00938319535921 0.000271682231531 0)
(-0.000628025327788 1.86993174404e-05 0)
(-0.000371707707206 1.10675160771e-05 0)
(-0.000126053567195 3.75321752672e-06 0)
(-7.58962003622e-05 2.2597928464e-06 0)
(-0.00348340696106 0.000100859008076 0)
(-0.00344901882495 9.98633296103e-05 0)
(-0.000737399448454 1.97521208164e-05 0)
(-0.000124294066249 3.70082876903e-06 0)
(-2.60046589619e-05 7.49217379913e-07 0)
(-2.63855262517e-05 7.60190505667e-07 0)
(-3.20283706492e-06 1.34351209134e-07 0)
(0 0 0)
(0 0 0)
(0 0 0)
(0 0 0)
(0 0 0)
(0 0 0)
(0 0 0)
(0 0 0)
(0 0 0)
(0 0 0)
(0 0 0)
(0 0 0)
(0 0 0)
(0 0 0)
(0 0 0)
(0 0 0)
(0 0 0)
(0 0 0)
(0 0 0)
(0 0 0)
(0 0 0)
(0 0 0)
(0 0 0)
(0 0 0)
(0 0 0)
(0 0 0)
(0 0 0)
(0 0 0)
(0 0 0)
(0 0 0)
(0 0 0)
(0 0 0)
(0 0 0)
(0 0 0)
(0 0 0)
(0 0 0)
(0 0 0)
(0 0 0)
(0 0 0)
(0 0 0)
(0 0 0)
(0 0 0)
(0 0 0)
(0 0 0)
(0 0 0)
(0 0 0)
(0 0 0)
(0 0 0)
(0 0 0)
(-0.00214638921711 6.21468263118e-05 0)
(0 0 0)
(0 0 0)
(-1.10165591822e-05 3.09219611538e-07 0)
(-1.67559408637e-05 4.70316134025e-07 0)
(0 0 0)
(0 0 0)
(-0.00121793184068 3.26237521791e-05 0)
(0 0 0)
(0 0 0)
(-1.37097919175e-05 3.84814937303e-07 0)
(-8.59340925073e-06 2.41205137316e-07 0)
(0 0 0)
(0 0 0)
(0 0 0)
(0 0 0)
(0 0 0)
(0 0 0)
(0 0 0)
(0 0 0)
(0 0 0)
(0 0 0)
(0 0 0)
(0 0 0)
(0 0 0)
(0 0 0)
(0 0 0)
(0 0 0)
(0 0 0)
(0 0 0)
(0 0 0)
(0 0 0)
(0 0 0)
(0 0 0)
(0 0 0)
(0 0 0)
(0 0 0)
(0 0 0)
(0 0 0)
(0 0 0)
(0 0 0)
(0 0 0)
(0 0 0)
(0 0 0)
(0 0 0)
(0 0 0)
(0 0 0)
(0 0 0)
(0 0 0)
(0 0 0)
(0 0 0)
(0 0 0)
(0 0 0)
(0 0 0)
(0 0 0)
(0 0 0)
(0 0 0)
(0 0 0)
(0 0 0)
(0 0 0)
(0 0 0)
(0 0 0)
(0 0 0)
(0 0 0)
(0 0 0)
(0 0 0)
(0 0 0)
(0 0 0)
(0 0 0)
(0 0 0)
(0 0 0)
(0 0 0)
(0 0 0)
(0 0 0)
(0 0 0)
(0 0 0)
(0 0 0)
(0 0 0)
(0 0 0)
(0 0 0)
(0 0 0)
(0 0 0)
(0 0 0)
(0 0 0)
(0 0 0)
(0 0 0)
(0 0 0)
(0 0 0)
(0 0 0)
(0 0 0)
(0 0 0)
(0 0 0)
(0 0 0)
(0 0 0)
(0 0 0)
(0 0 0)
(0 0 0)
(0 0 0)
(0 0 0)
(0 0 0)
(0 0 0)
(0 0 0)
(0 0 0)
(0 0 0)
(0 0 0)
(0 0 0)
(0 0 0)
(0 0 0)
(0 0 0)
(0 0 0)
(0 0 0)
(0 0 0)
(0 0 0)
(0 0 0)
(0 0 0)
(0 0 0)
(0 0 0)
(0 0 0)
(0 0 0)
(0 0 0)
(0 0 0)
(0 0 0)
(0 0 0)
(0 0 0)
(0 0 0)
(0 0 0)
(0 0 0)
(0 0 0)
(0 0 0)
(0 0 0)
(0 0 0)
(0 0 0)
(0 0 0)
(0 0 0)
(0 0 0)
(0 0 0)
(0 0 0)
(0 0 0)
(0 0 0)
(0 0 0)
(0 0 0)
(0 0 0)
(0 0 0)
(0 0 0)
(0 0 0)
(0 0 0)
(0 0 0)
(0 0 0)
(0 0 0)
(0 0 0)
(0 0 0)
(0 0 0)
(0 0 0)
(0 0 0)
(0 0 0)
(0 0 0)
(0 0 0)
(0 0 0)
(0 0 0)
(0 0 0)
(0 0 0)
(0 0 0)
(0 0 0)
(0 0 0)
(0 0 0)
(0 0 0)
(0 0 0)
(0 0 0)
(0 0 0)
(0 0 0)
(0 0 0)
(0 0 0)
(0 0 0)
(0 0 0)
(0 0 0)
(0 0 0)
(0 0 0)
(0 0 0)
(0 0 0)
(0 0 0)
(0 0 0)
(0 0 0)
(0 0 0)
(0 0 0)
(0 0 0)
(0 0 0)
(0 0 0)
(0 0 0)
(0 0 0)
(0 0 0)
(0 0 0)
(0 0 0)
(0 0 0)
(0 0 0)
(0 0 0)
(0 0 0)
(-6.89746236921 0.206143270094 0)
(-5.35975350106 0.159866286282 0)
(-5.79834484557 0.16900522815 0)
(-3.51461912054 0.102441131417 0)
(-4.72959764339 0.141070519513 0)
(-5.11532912639 0.149097266391 0)
(-7.82525804479 0.234083801539 0)
(-5.35842069127 0.159826532336 0)
(-2.5312207203 0.0754991542488 0)
(-2.73518022956 0.0797227089866 0)
(-2.73700657738 0.0797759418209 0)
(-3.68319775763 0.109859370778 0)
(-3.68253656772 0.109839649353 0)
(-3.97923896508 0.115983475814 0)
(-1.53556846564 0.0458016638049 0)
(-3.25088104561 0.0969645861142 0)
(-1.2939637655 0.0377153562318 0)
(-2.13206195222 0.0621435299662 0)
(-2.8688054275 0.0855683511692 0)
(-1.14185121017 0.0332817087338 0)
(-1.74008012995 0.0519016682674 0)
(-0.725348324612 0.0216350887953 0)
(-0.342638222401 0.0102199289841 0)
(-0.611732269325 0.0178302523388 0)
(-0.225072090731 0.00656021003533 0)
(-0.302363249355 0.0090186404604 0)
(-0.539571637263 0.0157269755572 0)
(-0.82195768863 0.0245166728537 0)
(-1.19586138669 0.0356691625387 0)
(-1.53537233688 0.0457958138388 0)
(-1.65934041545 0.048365044329 0)
(-0.610678013463 0.0177995237848 0)
(-2.23413402459 0.0666378984584 0)
(-0.821850135661 0.0245134648528 0)
(-0.888728503508 0.0259039031825 0)
(-0.564884004634 0.0168488920214 0)
(-0.161830044801 0.00482693248225 0)
(-0.175153500788 0.00510522539627 0)
(-0.288417998117 0.00840656271273 0)
(-0.235474465289 0.00702353723401 0)
(-0.388214375701 0.0115793367199 0)
(-0.419961500514 0.0122406809355 0)
(-0.0349966330654 0.00105792899914 0)
(-0.126041767213 0.00375946939289 0)
(-0.0299419816876 0.00087871860675 0)
(-0.0814106696877 0.00238918956631 0)
(-0.111225766177 0.0033175499907 0)
(-0.0264055683539 0.000774934153542 0)
(-0.0396586949024 0.0011988605683 0)
(-0.00873277331615 0.000219082194122 0)
(0 0 0)
(-0.00775962871602 0.000198834156552 0)
(0 0 0)
(0 0 0)
(-0.00527019306587 0.000120380190895 0)
(-0.00989591728175 0.00024826240101 0)
(-0.0272549572121 0.000823902389446 0)
(-0.0595315954255 0.00177565909984 0)
(-0.0633539017399 0.00185927080078 0)
(-0.0127720898719 0.000327274385159 0)
(-0.0866202663236 0.00258363752944 0)
(-0.01873223129 0.00056626506508 0)
(-0.0205510037093 0.000603118041256 0)
(-0.00492654757377 0.000105118450242 0)
(0 0 0)
(0 0 0)
(0 0 0)
(0 0 0)
(0 0 0)
(-0.00410207662515 9.36984207278e-05 0)
(0 0 0)
(0 0 0)
(0 0 0)
(0 0 0)
(0 0 0)
(0 0 0)
(0 0 0)
(0 0 0)
(0 0 0)
(0 0 0)
(0 0 0)
(0 0 0)
(0 0 0)
(0 0 0)
(0 0 0)
(0 0 0)
(0 0 0)
(0 0 0)
(0 0 0)
(0 0 0)
(0 0 0)
(0 0 0)
(0 0 0)
(0 0 0)
(0 0 0)
(0 0 0)
(0 0 0)
(0 0 0)
(0 0 0)
(0 0 0)
(0 0 0)
(0 0 0)
(0 0 0)
(0 0 0)
(0 0 0)
(0 0 0)
(0 0 0)
(0 0 0)
(0 0 0)
(0 0 0)
(0 0 0)
(0 0 0)
(0 0 0)
(0 0 0)
(0 0 0)
(0 0 0)
(0 0 0)
(0 0 0)
(0 0 0)
(0 0 0)
(0 0 0)
(0 0 0)
(0 0 0)
(0 0 0)
(0 0 0)
(0 0 0)
(0 0 0)
(0 0 0)
(0 0 0)
(0 0 0)
(0 0 0)
(0 0 0)
(0 0 0)
(0 0 0)
(0 0 0)
(0 0 0)
(0 0 0)
(0 0 0)
(0 0 0)
(0 0 0)
(0 0 0)
(0 0 0)
(0 0 0)
(0 0 0)
(0 0 0)
(0 0 0)
(0 0 0)
(0 0 0)
(0 0 0)
(0 0 0)
(0 0 0)
(0 0 0)
(0 0 0)
(0 0 0)
(0 0 0)
(0 0 0)
(0 0 0)
(0 0 0)
(0 0 0)
(0 0 0)
(0 0 0)
(0 0 0)
(0 0 0)
(0 0 0)
(0 0 0)
(0 0 0)
(0 0 0)
(0 0 0)
(0 0 0)
(0 0 0)
(0 0 0)
(0 0 0)
(0 0 0)
(0 0 0)
(0 0 0)
(0 0 0)
(0 0 0)
(0 0 0)
(0 0 0)
(0 0 0)
(0 0 0)
(0 0 0)
(0 0 0)
(0 0 0)
(0 0 0)
(0 0 0)
(0 0 0)
(0 0 0)
(0 0 0)
(0 0 0)
(0 0 0)
(0 0 0)
(0 0 0)
(0 0 0)
(0 0 0)
(0 0 0)
(0 0 0)
(0 0 0)
(0 0 0)
(0 0 0)
(0 0 0)
(0 0 0)
(0 0 0)
(0 0 0)
(0 0 0)
(0 0 0)
(0 0 0)
(0 0 0)
(0 0 0)
(0 0 0)
(0 0 0)
(0 0 0)
(0 0 0)
(0 0 0)
(0 0 0)
(0 0 0)
(0 0 0)
(0 0 0)
(0 0 0)
(0 0 0)
(0 0 0)
(0 0 0)
(0 0 0)
(0 0 0)
(0 0 0)
(0 0 0)
(0 0 0)
(0 0 0)
(0 0 0)
(0 0 0)
(0 0 0)
(0 0 0)
(0 0 0)
(0 0 0)
(0 0 0)
(0 0 0)
(0 0 0)
(0 0 0)
(-2.02284336648 -0.1387599064 0.0752473636576)
(-9.00600128852 -1.55792578005 0.691919284872)
(-2.48381542714 -0.1213087368 0.0733341267718)
(-0.843008973932 -0.0281409608855 0.0198766964398)
(-6.75714075708 -0.903701320744 0.41863710947)
(-1.01672935489 0.00173790822754 0.0104973256721)
(-2.20810204529 -0.269147139173 0.126694681534)
(-1.81585131566 -0.0124822328551 0.0251321308594)
(-3.57539931215 0.0289069714485 0.0293340276284)
(-2.4223334733 0.00470333663906 0.0249031564999)
(-1.2977121697 0.0378246115322 0)
(-4.51924292056 -0.268121863253 0.152575286188)
(-1.7615221876 0.0476210029576 0.00182989461038)
(-1.1694824993 0.0292839675657 0.0017914448157)
(-0.620292798709 0.00600595243612 0.00467290460856)
(-0.161729703948 0.00482393959842 0)
(-0.290561123502 0.00846902871022 0)
(-0.176248224654 0.00513713347721 0)
(-0.235308093525 0.0070185748349 0)
(-0.422371489018 0.0123109252324 0)
(-0.506824066578 -0.0121438688341 0.010232447512)
(-0.724789492522 0.0216184204147 0)
(-0.34236985303 0.0102119242849 0)
(-0.612959536294 0.0178660236735 0)
(-0.225977073221 0.00658658769588 0)
(-0.821299094039 0.0244970288399 0)
(-0.302138608128 0.00901194004801 0)
(-0.541667837828 0.01578807383 0)
(-1.53466403184 0.0457746871029 0)
(-3.2487404006 0.0969007367286 0)
(-2.13351276608 0.0621858170555 0)
(-1.29637436281 0.0377856182739 0)
(-2.8672271768 0.0855212764148 0)
(-1.73885659457 0.0518651736679 0)
(-1.14285897321 0.0333110821545 0)
(-1.19529311122 0.035652212489 0)
(-1.53498560662 0.045784278769 0)
(-1.66037257809 0.0483951289285 0)
(-0.610840584728 0.0178042622739 0)
(-2.23318733303 0.066609661327 0)
(-0.821563528873 0.024504916183 0)
(-0.889421308708 0.0259240964798 0)
(-0.724858756086 0.021620486351 0)
(-0.342382062399 0.0102122884559 0)
(-0.612447508976 0.0178510995363 0)
(-0.225209885652 0.00656422636459 0)
(-0.821326933407 0.0244978592095 0)
(-0.302171636351 0.00901292518647 0)
(-0.540026532942 0.0157402344699 0)
(-0.564558064528 0.01683917015 0)
(-0.161770532872 0.00482515740974 0)
(-0.288616343449 0.00841234391389 0)
(-0.175284912805 0.00510905568207 0)
(-0.388044242496 0.0115742621276 0)
(-0.235352625393 0.00701990309456 0)
(-0.420304818392 0.0122506876732 0)
(-0.266744021536 0.00795621964746 0)
(-0.931080726707 0.0277715044129 0)
(-0.370154084728 0.0107889367063 0)
(-0.370168057395 0.0107893439697 0)
(-0.498385954206 0.0148654432742 0)
(-0.49833556443 0.0148639402897 0)
(-0.197979418178 0.00577053583898 0)
(-0.126001389541 0.00375826504115 0)
(-0.0981365681289 0.00292713623716 0)
(-0.174781285198 0.00509437637255 0)
(-0.0383014540872 0.00112404718977 0)
(-0.235420558277 0.00702192934033 0)
(-0.0509121301513 0.00153904573605 0)
(-0.0919295239963 0.002697890343 0)
(-0.125991463697 0.00375796898129 0)
(-0.0981242060649 0.00292676751176 0)
(-0.174893322622 0.00509764194418 0)
(-0.038363032815 0.00112585436387 0)
(-0.235377444601 0.00702064338133 0)
(-0.050909859881 0.00153897710702 0)
(-0.0919857215783 0.00269953959459 0)
(-0.059514457946 0.00177514793731 0)
(-0.00873179606775 0.000219057677544 0)
(-0.0180889931907 0.000530864491867 0)
(-0.0180974616786 0.00053111301977 0)
(-0.0240473797339 0.000726939083723 0)
(-0.0240481133084 0.000726961259277 0)
(-0.0434220002768 0.00127432178617 0)
(0 0 0)
(-0.0349924478123 0.00105780248124 0)
(-0.00774378274068 0.000198428116359 0)
(-0.0127480532191 0.000326658465536 0)
(-0.00989462070272 0.00024822987327 0)
(-0.0187290976027 0.000566170335433 0)
(0 0 0)
(0 0 0)
(0 0 0)
(0 0 0)
(0 0 0)
(0 0 0)
(0 0 0)
(0 0 0)
(0 0 0)
(0 0 0)
(-0.00463568658937 0.000105886981669 0)
(0 0 0)
(-0.00770545856455 0.000193309583099 0)
(0 0 0)
(0 0 0)
(0 0 0)
(0 0 0)
(0 0 0)
(0 0 0)
(0 0 0)
(0 0 0)
(0 0 0)
(0 0 0)
(0 0 0)
(0 0 0)
(0 0 0)
(0 0 0)
(0 0 0)
(0 0 0)
(0 0 0)
(0 0 0)
(0 0 0)
(0 0 0)
(0 0 0)
(0 0 0)
(0 0 0)
(0 0 0)
(0 0 0)
(0 0 0)
(0 0 0)
(0 0 0)
(0 0 0)
(0 0 0)
(0 0 0)
(0 0 0)
(0 0 0)
(0 0 0)
(0 0 0)
(0 0 0)
(0 0 0)
(0 0 0)
(0 0 0)
(0 0 0)
(0 0 0)
(0 0 0)
(0 0 0)
(0 0 0)
(0 0 0)
(0 0 0)
(0 0 0)
(0 0 0)
(0 0 0)
(0 0 0)
(0 0 0)
(0 0 0)
(0 0 0)
(0 0 0)
(0 0 0)
(0 0 0)
(0 0 0)
(0 0 0)
(0 0 0)
(0 0 0)
(0 0 0)
(0 0 0)
(0 0 0)
(0 0 0)
(0 0 0)
(0 0 0)
(0 0 0)
(0 0 0)
(0 0 0)
(0 0 0)
(0 0 0)
(0 0 0)
(0 0 0)
(0 0 0)
(0 0 0)
(0 0 0)
(0 0 0)
(0 0 0)
(0 0 0)
(0 0 0)
(0 0 0)
(0 0 0)
(0 0 0)
(0 0 0)
(0 0 0)
(0 0 0)
(0 0 0)
(0 0 0)
(0 0 0)
(0 0 0)
(0 0 0)
(0 0 0)
(0 0 0)
(0 0 0)
(0 0 0)
(0 0 0)
(0 0 0)
(0 0 0)
(0 0 0)
(0 0 0)
(0 0 0)
(0 0 0)
(0 0 0)
(0 0 0)
(0 0 0)
(0 0 0)
(0 0 0)
(0 0 0)
(0 0 0)
(0 0 0)
(0 0 0)
(0 0 0)
(0 0 0)
(0 0 0)
(0 0 0)
(0 0 0)
(0 0 0)
(0 0 0)
(0 0 0)
(0 0 0)
(0 0 0)
(0 0 0)
(0 0 0)
(0 0 0)
(0 0 0)
(0 0 0)
(0 0 0)
(0 0 0)
(0 0 0)
(0 0 0)
(0 0 0)
(0 0 0)
(0 0 0)
(0 0 0)
(0 0 0)
(0 0 0)
(0 0 0)
(0 0 0)
(0 0 0)
(0 0 0)
(0 0 0)
(0 0 0)
(0 0 0)
(0 0 0)
(0 0 0)
(0 0 0)
(0 0 0)
(0 0 0)
(0 0 0)
(0 0 0)
(0 0 0)
(0 0 0)
(0 0 0)
(0 0 0)
(0 0 0)
(0 0 0)
(0 0 0)
(0 0 0)
(0 0 0)
(0 0 0)
(0 0 0)
(0 0 0)
(0 0 0)
(0 0 0)
(0 0 0)
(0 0 0)
(0 0 0)
(0 0 0)
(0 0 0)
(0 0 0)
(0 0 0)
(0 0 0)
(0 0 0)
(0 0 0)
(0 0 0)
(0 0 0)
(0 0 0)
(-0.0272402093006 0.000823456568181 0)
(-0.0594966638012 0.0017746171883 0)
(-0.0638035301513 0.00187246621501 0)
(-0.0129177624805 0.000331007126932 0)
(-0.0865645102537 0.00258197448358 0)
(-0.0207395372873 0.000608651007134 0)
(-0.018722293686 0.000565964656768 0)
(-0.0349772028373 0.00105734163402 0)
(-0.125952039047 0.0037567930555 0)
(-0.0818209982805 0.00240123163397 0)
(-0.0300951496075 0.000883213683348 0)
(-0.111151094281 0.00331532273926 0)
(-0.0396353192692 0.00119815393575 0)
(-0.0265982755307 0.000780589603592 0)
(-0.00492471793771 0.000105079411036 0)
(0 0 0)
(0 0 0)
(0 0 0)
(0 0 0)
(-0.00414368341069 9.46487906143e-05 0)
(0 0 0)
(-0.0087293176682 0.000218995501052 0)
(0 0 0)
(-0.00781371933025 0.000200220184422 0)
(0 0 0)
(-0.00989176786299 0.000248158303064 0)
(0 0 0)
(-0.005315106737 0.000121406095684 0)
(-0.0349833924672 0.00105752874313 0)
(-0.125957875379 0.0037569671368 0)
(-0.0815807362889 0.00239418057487 0)
(-0.030064119072 0.000882303018544 0)
(-0.111166408631 0.00331577952299 0)
(-0.039637770419 0.00119822803266 0)
(-0.0265102800461 0.000778007166986 0)
(-0.0272487241371 0.000823713967013 0)
(-0.0595147757156 0.00177515741547 0)
(-0.0634553033329 0.00186224667149 0)