/*--------------------------------*- C++ -*----------------------------------*\
| =========                 |                                                 |
| \\      /  F ield         | OpenFOAM: The Open Source CFD Toolbox           |
|  \\    /   O peration     | Version:  v1906                                 |
|   \\  /    A nd           | Web:      www.OpenFOAM.com                      |
|    \\/     M anipulation  |                                                 |
\*---------------------------------------------------------------------------*/
FoamFile
{
    version     2.0;
    format      ascii;
    class       volScalarField;
    location    "11.35";
    object      p_rgh;
}
// * * * * * * * * * * * * * * * * * * * * * * * * * * * * * * * * * * * * * //

dimensions      [1 -1 -2 0 0 0 0];


internalField   nonuniform List<scalar> 
28582
(
19547.7118121
19545.7075145
19547.4980264
19545.3118176
19546.7271366
19543.8428696
19546.2585619
19542.73463
1244.62554889
1321.15502751
-0.0928511534433
19543.8693342
17090.9668003
16900.6706691
19542.4104091
19541.8527824
16893.0581767
19505.6104291
19505.3994998
19549.3506243
19544.5230283
19544.3270795
19549.6483576
19544.2945795
19544.1595277
19550.2880682
19543.091697
19552.3562731
19542.5597092
1331.70918221
-0.111271808324
-0.0354896915831
19549.3721271
19549.6210194
17255.288725
17188.013976
19530.4867942
19542.6072723
19542.0553563
19542.5739574
19508.4899683
16864.6646168
19508.0548772
19510.0555853
1269.72943521
1337.75294746
8.46905888653
10.0647072013
1298.87332066
10.4142560532
19518.5291644
19510.4448869
17011.0856652
17075.719064
19518.5921073
16990.8013206
19510.3207572
19503.0899426
19498.1825991
16944.2070077
16879.075909
19498.3296362
16923.8269897
19502.3364938
19499.9115108
19498.6037041
16902.2298287
16863.0295046
19498.3503558
16857.9106938
19500.7558141
19506.5699877
16944.3428834
16881.5559106
19502.5531627
16918.301728
16864.0309643
19503.9272407
19504.7374674
16848.9320994
16823.400088
19503.0178411
16815.8832727
19503.283255
16834.6479443
1241.91642645
7.84374776594
1237.21045652
1238.19289233
7.35736914248
7.41119998501
1349.15680713
7.88001513375
9.22066209634
1359.32125793
7.79754319627
1346.00801686
8.14474085125
19532.5494994
19533.8452697
17232.3846336
17275.8254916
19530.7119181
19535.9367783
17249.3500318
19528.0642522
19520.8564819
17218.3136698
17191.7306864
19526.5098103
19521.8737376
17229.2758825
17228.5893462
17173.1974687
19524.5238897
19529.8835619
17185.9652457
19524.1135129
17225.5163025
19508.6566617
16937.2273781
16885.365351
19510.8211017
16918.5963884
19509.8021589
16883.0508912
19512.3451372
19509.004794
16895.2709296
16861.477123
19509.5913167
19512.6319995
16872.5447751
19508.5036748
19506.600663
16864.6285862
16841.3111073
16862.729251
19510.3433964
16889.449382
16874.8631714
16885.6287679
19511.4635791
19511.8311367
16870.3391602
19511.5090584
16887.2923752
19542.6793516
19542.4821258
1368.72355321
-0.0660669181687
19546.5001539
17107.4424265
19542.7924774
19542.7089264
16830.0207694
16868.4089515
16748.8079485
19542.5488141
19542.5860624
16724.5782554
16687.7153912
1244.19167522
1375.70711397
1403.17723557
7.50215515742
7.61524377564
7.59833662709
1427.02542857
1449.33375828
19509.4816381
19517.2830882
17126.8893862
17028.7533384
19516.9925065
17056.1634346
19508.895153
19512.3379911
19508.4243259
16799.9505586
16840.772102
19508.4483672
19512.4930431
16815.5539203
19509.7886632
19511.3377217
16841.9722597
16831.7636553
19510.7998857
16806.6940209
19510.0691969
19508.5599122
19506.0858986
16743.3146646
16787.8086274
19508.1864124
16773.445352
19507.9522942
19509.0562427
19504.9750133
16716.9613451
16702.0710302
19508.2194303
16697.1113227
19505.0614192
19510.5802042
19506.8265852
16697.2924537
16689.650686
19512.4171423
16696.8429291
19505.6147611
19546.6113418
19547.2768447
19553.7381006
19554.8240375
964.473260686
1166.48641492
952.278033016
1120.29889625
1133.1359809
-0.0354253049438
0.0503515120061
-0.0331286761407
-0.199143319516
-0.0961136377251
-0.138049392055
19547.3501955
19546.1104567
17277.5278817
17197.4279191
19548.0590223
17212.6637078
19545.6127456
19545.8358557
17240.1890677
17411.5358383
19551.3473302
19546.8516189
19550.3500566
17249.165158
17264.1243619
17410.2122323
17406.6620321
19554.0334238
19555.42987
17284.4929907
17368.5000628
17404.3577278
17404.8541578
19550.473289
19551.2483359
17440.2920539
17425.6316827
17475.947932
19555.8073688
19554.1499574
19556.2502326
17425.4708322
17412.1340284
17467.625749
17450.2138725
17473.1142749
17448.2025629
903.783214818
916.059070051
947.534402536
9.4023928557
8.82609328331
9.81312999449
7.93200490355
8.0897418038
6.07439262501
5.83826617762
4.77481937109
910.891871731
902.601670689
1063.84513945
953.536711573
1039.65245044
8.62392599407
6.12499481234
7.64266242184
5.86569784076
1248.2333861
1140.00451606
1221.8551597
3.05804317764
2.98275175648
3.11032429025
2.98968846803
1031.94603945
1040.51352052
6.62775960718
5.33111220362
5.23192178862
1197.02369215
1120.47341246
1185.32543347
3.530138472
2.90870119383
3.92566057875
3.33903352448
19517.3445845
19516.92288
17360.3838599
17208.4439833
19515.3990281
17292.7323726
19519.3629107
19516.6245666
19515.7538554
17199.5733095
17281.2732311
19514.4128023
19516.5115378
17278.9308556
19520.041175
19516.4637917
17213.6626425
17210.8450032
19517.8165205
19519.2214706
17206.648116
19519.6997263
19517.4757345
17314.3511472
17291.1147656
19518.4361995
19518.3075647
17366.4890166
19523.6584586
19523.9003387
17355.9613918
17447.1580252
19521.2510403
19525.3886237
17412.6122037
19519.2374272
19516.6283781
17246.0768533
17292.0811176
19519.1432965
19517.2297599
17297.5693837
19523.2991442
19527.7731172
17241.3194078
17306.8734599
19523.0890115
19528.351673
17291.9467189
19521.9298128
19522.9312625
17354.8467689
17411.5617439
19520.4047722
19523.767941
17356.5213817
19524.5916258
19529.5602522
17354.8186078
17409.1031442
19528.6621121
19526.5224108
17349.3704589
19536.8949632
19532.4227343
17305.0011004
17324.6628965
19536.2528643
19533.1112023
17349.303935
19538.3977248
19537.4039531
17323.9776796
17381.8846243
19537.569992
17358.4467884
19537.6427883
19535.8151973
19532.6624215
17359.9789335
17407.0863551
19532.6620733
19535.4481997
17367.7356953
19536.9651997
19535.4431821
17382.3169606
17400.8648305
19536.3925382
17370.2368027
19536.1959946
19528.8340799
19526.3273497
17439.415589
17466.7843138
19526.5761454
19528.275386
17467.0070537
19530.1196851
19529.9566498
17431.6558943
17455.2905307
19527.7791401
19532.0057502
17460.8605463
19532.3087769
19535.8847351
17464.8402389
17484.8719421
19534.0925822
19534.1043033
17473.3889364
19535.8472522
19532.5511964
17423.61507
17451.4962054
19534.8795885
19534.0720376
17449.4115446
19536.3484578
19535.0747189
17410.6040122
17430.9736859
19535.654267
17432.7889889
19535.353619
19537.7243337
19537.5572151
17458.2551516
17467.7995328
19535.9718554
19539.2325023
17454.486021
19538.3612884
19538.4852086
17435.0083214
17455.6805855
19539.7814342
17441.6231963
19537.5471537
19541.2213476
19539.1645277
17468.9746992
17478.6807452
19540.6473717
19540.0038863
17476.8456293
19539.9458997
17455.9042287
19541.0635092
19546.9894025
19545.0895533
19544.1914528
19544.9604418
19546.0826777
19556.6072792
19546.9416984
19545.0083936
19544.2287766
19544.4261893
19545.1531268
19556.150863
19538.5827069
19542.5064072
19538.9570189
19543.007816
19546.423041
19549.6956249
19555.6240197
19535.3880063
19540.2468962
19542.8444075
19543.8114504
19544.4085154
19544.7204409
19544.4362914
19543.7904388
19555.7478667
19545.4587682
19543.8944814
19543.5361125
19543.8601105
19544.3556262
19544.639898
19545.005337
19557.777877
19548.0730626
19545.801847
19544.4926203
19544.2964221
19544.5760768
19544.6974779
19545.0281713
19558.1040519
19544.1953564
19544.6596592
19545.6482623
19557.5369485
19536.1455898
19540.7190976
19542.2131885
19543.4273181
19546.6755977
19553.0312142
19601.6456388
19458.6537246
19540.1813773
19542.8013569
19546.5249312
19546.3074794
19544.8126966
19542.9755797
19539.2702382
19537.0459444
19545.013405
19544.5416053
19544.7103699
19544.4558301
19544.0182908
19543.2487906
19542.2898921
19552.8726724
19548.3307612
19546.0343882
19544.8817323
19544.7071818
19544.622956
19543.7918251
19542.606878
19555.2778114
19544.0412401
19543.9056957
19544.1618397
19556.5223972
19533.1283635
19540.5477306
19543.90255
19542.4254635
19541.9614574
19542.8112726
19547.0510419
19473.1307012
19537.8232215
19542.9131641
19542.5849494
19542.5929094
19541.3844014
19537.607026
19525.6158352
19513.5029659
19546.1152612
19544.7507245
19543.9445649
19543.4800576
19542.4939909
19539.8314281
19532.6299158
19547.2290299
19552.4891679
19548.8995093
19545.872669
19544.150024
19543.6684531
19542.7491347
19540.6170745
19536.0274005
19550.0999577
19546.6040682
19544.0548489
19543.1266196
19542.2852865
19541.1604602
19539.2706911
19553.3271013
19542.072119
19541.1852989
19553.9917089
19537.7659722
19544.0043842
19547.4201153
19544.0113221
19540.2895473
19542.971184
19545.5409722
19516.7363537
19542.9531749
19543.6838346
19545.8735475
19545.8466389
19543.3096033
19542.196372
19542.0440556
19538.5095167
19524.1266498
19555.6744521
19551.1199388
19547.470209
19545.8475729
19545.3600115
19544.0806147
19543.7720013
19543.0113402
19539.3684605
19537.8056606
19554.6317133
19550.2041847
19546.2636936
19544.8117231
19544.8237921
19544.8028459
19542.876486
19540.1055161
19542.0465254
19546.6514996
19544.1387793
19543.9292867
19542.999723
19541.8154422
19541.124287
19543.9549699
19542.0264805
19542.5008161
19545.6074428
1128.27212425
1189.62166352
1260.20917278
1346.71032552
1435.27056946
1481.30535785
1479.85409553
1519.4840161
1262.34280057
1164.92701761
1159.35410099
1213.28312633
1256.76167252
1290.05948859
1364.24335458
1421.38075117
1454.00693339
1504.453641
1220.26453715
1196.29517016
1193.60259829
1215.65662678
1237.7898963
1282.12081472
1293.91221964
1366.15986339
1421.58240116
1479.86938232
1208.56459361
1223.0608862
1225.82573372
1237.32469662
1255.11384662
1268.2996965
1359.11034138
1424.41726065
1457.79705509
1236.57849232
1250.38888648
1260.76747292
1326.70181588
1395.68805792
1453.81634736
1468.20148987
1426.20496479
1470.16299393
1491.26825308
0.00839598829056
-0.134606198553
-0.139255342873
-0.166835881369
0.31817912203
0.795967116035
-0.0936682721384
-0.119820594644
-0.235590421113
1.0881127767
0.500602227757
0.27616471061
-0.140373225132
-0.229591090587
-0.114304208661
1.39916661961
-0.0171591468477
-0.162540358753
-0.22621602749
0.656758190115
0.506344853696
-0.0915371024993
-0.15558060492
-0.143188450721
-0.13852138416
-0.136693017778
1.04052173301
-0.133644293709
-0.278315937973
0.840637239925
-0.0677142912296
-0.148023280627
-0.0889573676967
-0.0941075922846
-0.086450062741
0.247534409018
-0.13943454373
-0.274872502142
1.04005654079
-0.0692185364714
0.0106496607727
0.9241469355
-0.110473875454
-0.140142561229
-0.265020328965
1.05967202885
-0.100698291967
-0.252789189408
1.30302396442
19540.8312033
19538.6958525
19540.9853953
19537.503918
19540.321468
19538.2242484
19540.4506868
19543.2689641
19542.8327114
19543.8382075
19542.2949527
19539.0056501
19541.9529024
19541.1634968
19541.512908
19542.5516512
19542.5978031
19540.2058051
19541.7667888
19542.365787
19542.8945188
19543.6792544
19543.172603
19543.9398532
19542.9897345
19543.092844
19543.8675581
19544.7780051
19539.028232
19536.9303579
19539.5468683
19533.8462339
19537.8254273
19535.2883602
19539.0183774
19541.312767
19541.0528139
19542.2428596
19540.1911245
19540.9225387
19541.0709907
19541.1639069
19541.6304482
19542.4538314
19543.1499059
19539.1520762
19541.0132121
19541.9039204
19541.7845419
19543.1266478
19543.87655
19547.3558003
19542.7170833
19539.7402151
19542.650202
19546.1591341
19537.5222605
19534.9338335
19538.7697908
19533.1151866
19536.7510797
19534.8057692
19537.9536073
19541.606682
19541.7537101
19542.829027
19541.3666686
19543.6568668
19542.0049885
19545.3691614
19539.8436868
19542.4342795
19542.7444898
19540.8260051
19542.0413238
19543.8440583
19544.3939834
19540.4628272
19543.0344132
19545.5443198
19543.4469607
19543.9225433
19544.8009654
19546.613138
19537.6973739
19540.0449311
17233.1341679
17237.3633386
19540.9394797
19541.2022723
19543.0821374
17237.385344
17286.5020278
17237.4188339
17241.5978952
19546.2622905
19544.8939831
19546.2649609
17280.8377142
17243.7772998
17234.4526664
17205.1219265
19546.4175346
19546.3767731
19545.0332787
17238.1721794
17083.6858537
17186.0814136
16992.0438575
19541.3702154
19543.0502614
19541.4899735
16970.6376348
16546.7092952
16910.3991936
16732.5090304
19540.9518213
19540.9962602
19541.347305
16472.198447
16495.187805
16705.4505984
16695.3749071
19545.3074852
19542.4582293
19543.8212566
16542.3562557
16703.6697017
16709.0180657
16749.60345
19535.9983176
19543.8142749
19535.8785251
16748.011744
16633.8903391
16744.2752234
16480.7566324
19499.9569462
19519.9157504
19524.1180526
16682.3470467
15699.2662304
16526.7199565
16408.1165255
19554.3238116
19551.1317627
17364.0585684
17300.5737852
17393.6417148
17318.893628
19542.7359781
19547.897124
19546.002334
17279.3206419
17236.0738198
17303.2456425
17262.802684
19544.9246727
19545.3950913
19545.6250469
17232.9110196
17225.7094706
17247.9894342
17187.82812
19546.1641322
19546.0445629
19546.3839097
17222.5345954
17209.0156274
17175.1912098
17151.1322107
19544.6546211
19546.5051031
19545.4070369
17185.9867986
16976.7201663
17129.0279542
17002.9681718
19542.5046046
19544.1155122
19543.4339965
16936.6997148
16850.2343945
16973.3670841
16958.2867456
19542.2136792
19543.2943908
19543.2518545
16823.6125246
16759.4879067
16955.4233898
16947.3185285
19541.3882798
19542.5575073
19541.2234301
16757.4112142
16749.1957923
16933.0151844
16817.9414063
19532.7502067
19538.7994126
19535.1622162
16731.0290903
16451.803285
16759.6483925
16508.2538325
19541.5929959
19531.3028179
19551.733462
16502.6164818
16430.33894
16559.5926273
16437.8495663
19553.735109
19556.4898852
19555.3339716
17401.1431258
17337.7131329
17439.0853571
17390.5836569
19549.1163712
19553.2187052
19551.0030729
17321.0281344
17257.8323799
17368.1523344
17233.1294303
19546.2645142
19548.9736559
19547.0308051
17234.1099817
17177.7936953
17197.9678171
17148.834636
19545.7216401
19545.9605763
19545.3111103
17171.4428191
17143.1984947
17142.208623
17120.415347
19544.7614777
19545.0106537
19544.907983
17126.4780958
17032.0134243
17106.0553131
17066.6674856
19543.7590292
19544.7592236
19544.6558599
17004.3300297
16961.719288
17058.3120684
17060.8712913
19543.8413562
19544.7287519
19544.4981632
16971.6306993
16993.5268571
17075.774325
17049.4330468
19541.3560348
19543.4495961
19541.6282585
16956.7462045
16793.5611323
16958.8504231
16744.2074828
19537.6197934
19539.7949984
19539.1034936
16749.9247781
16568.6804821
16714.7353366
16617.3415016
19554.1260639
19540.2816205
19555.1960974
16618.6469324
16438.754129
16680.0716789
16440.7459198
17439.0526328
17388.5044596
19552.4425919
19553.7090093
17363.4593626
17235.6246756
17272.4955111
19547.964916
19551.3932129
19548.8366095
17201.7475053
17162.5609841
17243.9401532
17195.9716542
19545.2104032
19546.6350321
19545.2072333
17150.8465093
17105.572778
17167.5129932
17036.8286352
19544.8092621
19544.59588
19544.5391563
17096.8849796
17076.4542568
17032.731207
17080.6771034
19544.8570941
19544.5763912
19544.4632138
17070.341419
17075.6472244
17076.0031471
17028.0903666
19544.09533
19544.0691403
19543.3429628
17089.9115103
16988.3786904
16999.8586835
16857.4603257
19541.2799758
19542.4062235
19541.253705
16918.0744445
16748.0567396
16811.9428899
16721.9602975
19540.2592544
19540.605268
19541.0987801
16715.2662889
16616.1282909
16696.2902098
16579.7181727
19555.7449413
19543.0490265
19556.2131918
16684.2290937
16439.7017341
16661.3445041
16477.6674694
19544.861227
19544.4103833
17144.0208055
17015.3543265
16922.8775376
19544.0350295
19543.5651306
19543.364978
17027.1657473
17086.1731666
16935.5022049
16987.5221175
19543.5823073
19543.2642715
19543.0155898
17082.7233277
16985.1276847
16986.8841845
16878.2226794
19542.3957113
19542.5288336
19542.1289974
16938.1157423
16845.7328276
16834.2651214
16756.2014681
19541.2316718
19541.7275356
19541.4505881
16799.290204
16691.954318
16723.6208119
16637.6915624
19541.865299
19541.6280169
19542.4295759
16678.8162111
16588.5901759
16644.6250131
16570.4929289
19556.6663763
19544.5881152
19556.8103721
16674.4795193
16509.2545928
16660.0404134
16552.762358
19542.2309678
16747.5550294
19542.0123395
16715.6817805
16649.0571083
19543.5281397
16654.2525546
16568.4134238
19556.8745903
16658.9818147
16566.8460945
3.57375885273
1.5390014445
4.12192505907
1.78119742337
1099.92938645
1127.18325534
0.484949549158
0.46705227951
0.62634390923
0.631421041713
1157.23083135
1145.34939933
1172.67289743
0.671348559471
0.960238388887
1.11853098553
1.15320628071
1225.02628059
1202.07960763
1231.34647578
1.33531627279
1.24691899472
1.36344009679
1.21625624993
1303.50173891
1261.5608538
1289.62372832
6.95978118066
20.9098127454
7.82269162804
21.5570118337
1393.90763685
1323.0731261
1363.01900246
27.613978715
28.366205121
26.4987137237
24.3345536213
1461.64460881
1408.52705017
1435.05947291
18.2905815392
14.8825392852
13.2586151269
10.8221341672
1487.53134709
1452.35798713
1463.97640425
12.5245983255
10.3667494519
9.19648998837
7.45631383197
1498.84549961
1468.89555516
1500.66725328
9.26404380538
9.2443056793
7.73942602923
8.23569160568
1573.3794573
1502.76924533
1600.34990282
12.164036079
37.6853237766
12.5946060837
21.0363087994
1194.66121534
1240.43470858
1201.12050922
8.67092095594
7.06441905349
9.88167351778
8.57745236303
1149.95364087
1187.57812939
1174.63923563
5.38260709327
4.67745995501
2.51666936535
2.28221957966
1185.4740165
1173.57187183
1192.512424
2.16568373883
1.27060057442
1.58953954168
1.25358281465
1231.61954892
1215.53083901
1230.81929505
0.755942316581
0.917852096396
1.16153387897
1.74923884397
1281.52255175
1247.72041589
1268.42284593
3.85292207649
14.9666753985
4.69910243245
9.84101322439
1322.41719706
1281.70708298
1300.04032971
30.4216351245
28.1058480046
20.5045764273
21.6986463013
1393.39290301
1336.91478047
1356.89658757
11.8898110699
8.94752799069
10.4387603672
7.29275658666
1440.29324122
1385.97723772
1412.8497563
6.32982638758
4.70471166792
4.87412734699
4.5749161691
1497.85943732
1439.2284167
1477.44434645
4.98063900863
6.08115419894
4.65145287362
5.60676890682
1611.81989609
1492.90171644
1589.94745045
11.1261625078
17.6018834637
10.5190871636
19.2393975564
1205.09074614
1208.42657104
1201.6997637
8.321335253
5.88150354304
8.1542597602
7.79494364153
1194.6866134
1201.46572206
1207.74409263
0.627598111164
1.38221103273
0.951929628889
3.11713459464
1204.75888564
1211.28311512
1217.03875222
1.59749937787
1.37734278034
3.53199829516
3.15377363793
1226.65012384
1223.82319119
1230.22715643
1.94425155119
2.64189520701
2.88472293605
3.2863158785
1264.21092792
1237.07542474
1254.47310868
4.40331420277
5.86022144568
4.13040623078
4.82084159599
1288.46322574
1265.48973098
1266.53182512
6.79769970665
10.7085809574
5.91793011426
9.24019819396
1324.62964696
1268.29066721
1303.79574269
20.6897893423
13.9734720338
20.8576248143
18.4691270688
1395.47217714
1355.22201976
1390.46089951
5.80781451681
5.04193298567
6.19630015866
5.11837517636
1463.22416656
1417.27339114
1452.3212895
4.90275386679
5.58758933632
4.84265548137
5.24814060041
1551.68849294
1466.2516885
1519.75159562
10.4013462598
22.2923370886
9.52640731214
26.2145637879
1217.68164391
1224.6582514
2.41066073673
4.76494894198
5.95127459032
1222.64158838
1230.92573392
1230.80430384
5.0470064197
4.67311779968
6.39967451443
6.26062382531
1231.64916424
1230.82913837
1238.73264262
4.82063516373
4.84255064334
6.81623568398
7.78507898497
1248.40309505
1242.67843643
1251.37349781
5.50002709596
6.28396676397
9.47514644727
10.5258629468
1258.74139914
1262.66391727
1271.92503235
7.00537644348
9.60518094881
10.2373771311
10.8760263129
1308.66682347
1289.70633776
1329.23843969
14.8459998242
16.2094384282
14.6844267903
12.5834211694
1397.17377766
1374.46178123
1412.06295945
6.53449142534
5.3779554181
6.49218914364
5.70288984865
1452.37823383
1437.52868415
1461.9359122
4.95448964646
5.17968310286
5.18525470477
5.39695891626
1507.4294513
1460.02244031
1512.89784528
9.12616471067
28.9012238505
9.18133211
30.9780625195
1246.75395958
1260.1949221
8.8487847
10.4614631589
10.6158157634
12.7275906048
1256.96234854
1271.98186588
1281.26774026
11.2622329849
15.0005982914
12.759909253
16.7103280779
1289.32410175
1285.03130326
1318.75470252
24.3612969102
13.0559604814
24.5722359691
11.5337622221
1360.72486473
1355.88790334
1386.8893144
7.04141890778
6.96039545247
6.94319737502
7.49083529633
1430.83368737
1418.54179173
1449.04354218
7.74142157027
8.31058188207
8.58324234611
9.75976320888
1477.83218473
1467.69052387
1497.50911933
7.62461903369
7.06311216043
8.93208208181
9.13882674801
1527.4034381
1486.45808225
1538.70483376
9.696081334
30.7806834635
11.0205398603
30.277716904
1397.61792697
7.84934277655
1452.65942676
8.46760669028
9.2715155121
7.8626782288
7.77758769393
1504.86070578
8.99060661184
9.64949139441
7.05406579728
8.10565820727
1540.2724312
12.065159788
32.4914878016
11.7286941269
35.0958685267
19525.2346882
19528.4032248
17246.816014
17238.117409
19527.4097442
17242.40566
19526.8103752
19524.553633
19526.7766378
17227.1509174
17239.1419228
19527.1180653
19524.5988434
17224.6916997
19531.4532641
19529.9838512
17253.7733426
17242.3248222
19529.7369375
17253.4259605
19531.8527035
19533.0435192
19535.0522768
17269.5554246
17273.9226477
19534.0918708
17261.4190281
19533.7311723
19531.1930746
19528.9059809
17232.1021261
17240.7966838
19529.5228067
19530.5375781
17243.902284
19532.6422666
19532.6998426
17261.7457512
17239.6908104
19533.6611352
19531.7410078
17251.7895093
19532.5217885
19535.0680129
17266.0820693
17269.098352
19533.9559037
17254.8163369
19533.8658042
19531.386508
19532.2565033
17252.8806233
17232.0008517
19531.0145427
17242.5711263
19532.5150682
19532.1067668
19532.912287
17256.5407422
17224.0190321
19533.4143994
19532.2162142
17243.9232275
19530.7529584
19530.6094267
17214.8586809
17217.7577148
19530.3905667
19531.3045727
17233.0958545
19530.4908742
19532.3201068
17224.4644141
17222.671064
19530.7678462
17199.3437023
19532.2330546
19528.3891868
19524.6922434
17171.4146706
17041.3935388
19523.5913515
17137.5215351
19530.0264092
19529.2233709
19529.8263945
17197.5181599
17150.0899817
19529.9111321
19528.4100135
17166.7454919
19527.4002241
19521.6855567
17020.7157854
17083.5495255
19522.949344
19526.1000809
17108.8512236
19507.2864722
19516.5225546
16830.0914583
16928.3331007
19516.3441689
16805.7282489
19506.3546632
19498.3790647
19487.5771827
16684.1085792
16585.1888975
19490.5774997
16691.0135196
19496.241253
19508.8169274
19516.1006239
16927.5829095
16833.4119733
19516.6264702
19509.629223
16820.7299258
19500.9952895
19496.6607668
16665.8662464
16777.9269724
19493.641309
19503.280272
16740.0150015
19487.3765792
19481.7337619
16419.7643209
16525.6179368
19486.0088338
16483.8392713
19484.0202791
19490.7727519
19494.528998
16447.4278943
16550.9539066
19496.5367319
16504.253671
19488.2946577
19492.04597
19493.7636421
16619.5827518
16683.4320309
19490.7907381
19494.6584179
16595.249282
19495.1860073
19501.5804253
16622.6698169
16685.6600168
19500.2585211
19497.1574383
16601.4656476
19508.9495098
19501.1975
16599.2227095
16594.0688812
19502.9770066
16637.1789156
19507.6461493
19513.700953
19515.8917887
16652.6983166
16722.0232944
19515.7463039
16678.0861054
19512.9452074
19510.5282419
19506.7461466
16649.919004
16725.9706479
19505.7171095
19511.2651921
16677.0744192
19513.9026044
19513.5511815
16721.3949193
16738.7025654
19514.7085729
19513.3761951
16700.4138909
19512.9432128
19516.6651515
16756.4830655
16743.6523487
19515.4674133
16733.0246942
19515.7364493
19505.9284678
19501.737088
16711.6669451
16551.3447598
19496.5276134
16669.0556315
19510.4557811
19509.0906851
19511.7972235
16722.6065578
16719.6286283
19513.2558886
19507.8026164
16709.1876463
19499.8731623
19490.8632096
16499.2125663
16627.0722577
19490.8396115
19499.3901654
16630.7817367
19459.106272
19486.0987393
16613.2607515
16586.2365537
19481.6696235
16539.2227539
19459.4478251
19395.0748382
19366.1146838
16361.1420453
16417.2803717
16211.7563217
19407.544098
19378.5758058
19461.9600879
19481.2359842
16552.4282335
16484.6895039
19479.9888193
19465.4871342
16491.1148388
19412.8801205
19457.0365749
16388.2703789
15956.0101677
19424.6674265
15905.8098364
19440.5519584
19531.5379971
19535.2487251
17348.4319831
17375.6738517
19531.2012675
17362.5567464
19535.2316976
19527.8312024
19523.9513388
17328.1912312
17309.8489594
19527.092459
19525.0137287
17340.884126
19531.1480153
19533.7467577
17375.3212468
17375.0204868
19531.641593
17358.3751561
19534.4438051
19528.337093
19527.2282178
17309.6318627
17348.2890749
19525.845527
19529.3578678
17334.7916422
19523.5878843
19522.6426608
17257.07696
17290.5438367
19522.3700648
19523.86998
17271.4678659
19523.8831909
19524.506744
17243.8229873
17245.5862334
19522.9874549
19524.4772806
17258.2826884
19523.7422464
19526.077408
17294.0872382
17286.722755
19524.4917138
19525.574935
17278.5066981
19523.6388376
19526.3535138
17251.3346775
17275.2859766
19524.1312082
19525.75301
17266.7228663
19526.209184
19526.1304752
17230.4328213
17230.9166336
19527.3929133
19525.5395451
17218.3387807
19526.9522505
19529.1971612
17225.2970026
17201.5613073
19528.3344681
19527.8084374
17209.1552299
19525.3351869
19526.6345348
17235.5875242
17227.2147038
19524.9202863
19526.5121344
17218.9417814
19525.7542171
19526.444168
17198.5461571
17205.6549007
19526.261958
19526.4346718
17208.5513683
19527.9293958
19529.4527487
17217.7891894
17191.6893293
19528.8401124
19528.1912474
17187.2392949
19527.0298944
19526.6159216
17215.2992881
17183.344741
19527.8225561
19525.5822687
17186.2633285
19525.7878941
19526.1188
17185.7360373
17168.2085178
19526.3689746
19525.2361844
17179.9172349
19524.480146
19521.6684149
17171.9959693
17159.4591901
19522.4971138
19523.7974516
17176.0167879
19520.4999563
19524.9510851
17140.2713269
17165.9484016
19522.4550718
19523.4895103
17131.8775603
19516.5796019
19513.6014621
17068.2860609
16972.7153993
19518.7575237
19511.6317219
17063.576832
19516.6268347
19519.0896926
17154.0548278
17089.4723085
19519.8336103
19516.1673194
17120.174577
19512.9763087
19509.8170439
17005.7021769
17048.7896614
19509.6605663
19512.9551793
17069.0851278
19501.6988328
19508.2160687
16896.5437242
16941.2232707
19503.3728704
19506.5629768
16920.0537354
19496.3904562
19493.2114918
16872.1521018
16883.3993908
19498.419161
19492.335429
16901.3101944
19503.4808324
19506.8221114
16974.8680378
16959.9625477
19506.4907384
19503.8382546
16959.1364472
19500.6203688
19502.394455
16933.4196205
16957.2662589
19499.9027301
19502.1206782
16948.6124705
19492.4204053
19491.5320893
16793.1129127
16863.5590338
19492.1253395
19491.8361837
16850.4074819
19494.2118228
19498.0668879
16766.5107192
16830.2280773
19494.1038743
19497.545211
16840.0157212
19501.0503705
19503.1840314
16915.183831
16953.0452893
19500.1888376
19504.6706281
16903.841429
19502.901314
19509.8036071
16880.3203847
16950.8946698
19505.9130249
19506.9851458
16893.5649326
19503.9192798
19503.0382651
16754.6968761
16821.6311576
19505.5864715
19501.6750801
16813.1191508
19503.6483373
19504.0328018
16751.3230383
16792.9103354
19505.5037451
19502.3116881
16804.2769278
19509.3160804
19511.3025567
16864.2527578
16906.7064827
19508.8290089
19510.7525829
16849.6494704
19508.5855804
19507.5655202
16795.5985585
16869.1565015
19507.1228971
19509.5881111
16827.1399925
19493.436646
19500.4262902
16704.6587161
16764.2168496
19495.2972706
19498.86509
16719.7193575
19484.425232
19479.2571689
16604.4270673
16461.3140643
19486.8608484
19476.2118543
16612.9612279
19499.1080677
19503.9583472
16747.6773504
16696.2856094
19503.9185754
19499.2614434
16702.0264965
19491.533054
19487.4661671
16500.959455
16619.9130853
19484.9719032
19492.9365501
16621.4575884
19456.2248686
19471.1032094
16469.0193754
16509.2064852
19457.190849
19468.6366198
16483.5761481
19426.5737703
19460.5730501
15938.4630415
16423.7534613
19423.054765
15978.0039925
19465.2147048
19466.8952245
19481.6521177
16547.4224024
16535.0407714
19478.646582
19470.1023589
16521.2391327
19439.0085273
19477.727158
16433.2870052
16030.4174336
19442.205978
16015.7102925
19474.9918565
19531.9736433
19533.575807
17381.9538459
17419.3173239
19531.7989482
17402.3722204
19533.2981681
19530.6515415
19528.4451037
17358.9636527
17355.2138798
19530.1326095
19529.4440899
17381.141502
19533.4466847
19536.2816525
17423.3435514
17425.6647112
19535.0239571
17405.9677336
19535.2472354
19532.2221617
19533.1693174
17371.6422344
17408.6616332
19531.0957115
19534.0097904
17387.7920261
19528.9813137
19527.6073541
17305.8777792
17337.0653112
19527.3291352
19528.9761842
17322.4554835
19529.8671321
19528.1090314
17283.9704274
17254.3170724
19527.7359254
19529.0841821
17294.7514141
19531.3018583
19533.1396848
17355.0589444
17336.1959929
19530.7842788
19533.3456917
17333.8424606
19531.8136603
19530.6059149
17242.9439834
17288.8660817
19530.2013326
19532.5112006
17291.6928162
19527.0844037
19527.6563546
17205.4285164
17219.4466218
19527.0167099
19527.9349724
17183.6510632
19526.4488254
19525.8242878
17189.244441
17158.873902
19526.4086338
19525.8379355
17170.3004452
19526.5547419
19528.5588537
17207.34508
17165.4483
19528.3662049
19526.7933759
17174.5498715
19524.9967696
19523.0717611
17149.2737684
17155.0667081
19523.5561415
19524.9519534
17163.2760534
19523.5183895
19525.0740475
17164.5045649
17146.4668009
19523.8809916
19524.8494146
17140.0107213
19522.1397161
19520.4794713
17153.6417586
17122.0786351
19522.2398828
19520.6058748
17132.1955584
19520.9946801
19521.5254867
17137.9599712
17134.8846822
19522.2322132
19520.5358787
17132.5757633
19520.4722083
19519.0455381
17121.8571569
17126.0388449
19519.9036646
19519.8186211
17127.1476636
19517.1464441
19518.9849508
17095.0676833