/*--------------------------------*- C++ -*----------------------------------*\
| =========                 |                                                 |
| \\      /  F ield         | OpenFOAM: The Open Source CFD Toolbox           |
|  \\    /   O peration     | Version:  v1906                                 |
|   \\  /    A nd           | Web:      www.OpenFOAM.com                      |
|    \\/     M anipulation  |                                                 |
\*---------------------------------------------------------------------------*/
FoamFile
{
    version     2.0;
    format      ascii;
    class       surfaceScalarField;
    location    "11.35";
    object      phi;
}
// * * * * * * * * * * * * * * * * * * * * * * * * * * * * * * * * * * * * * //

dimensions      [0 3 -1 0 0 0 0];
oriented        oriented;


internalField   nonuniform List<scalar> 
92311
(
0.204057009641
-0.000218679489486
-0.00103772068311
-0.203700754323
0.000900144450914
-0.000167532085056
0.204237785239
-0.000799008392126
0.000785848564991
0.204182403672
-0.000462712545871
-0.00110643200392
-0.203805972723
0.000974143180609
-0.000225829329453
0.204287375289
-0.000812303185058
0.000765745996941
0.204430878942
-0.000296408108983
-0.000205443717651
-0.00111345106523
-0.203780688979
0.00099003199232
-0.000290897833427
-0.000196720294313
-8.46714180291e-05
-7.26503511763e-05
-1.53900387191e-05
0.204462150639
-0.000859685354242
0.000833829432192
-5.85438856021e-05
0.0513145948928
-0.000104993841049
-0.000103594915673
-0.000104069960045
-0.000105793666797
-0.000311436328317
-0.0511832531253
0.00030209234701
-0.0513901394744
0.0514162490767
-1.24785175536e-05
-4.76318558372e-05
-4.03370575098e-05
-2.60743742538e-05
-0.00029377873794
0.000309492763116
0.000129337155975
-0.00923331730454
0.0001148551115
0.000118701461481
0.000106917179952
0.00149744725042
0.00526143191559
0.0019827618431
2.19628974027e-05
-0.0209300464874
-0.00158336555191
-0.000434746900488
0.0191553898513
-1.54350314777e-06
-2.39035585849e-05
-1.01229414233e-05
-3.62969080061e-05
0.00386469928459
-0.026943868659
0.0101426996917
0.00720607348008
0.00775181221388
-0.0360577414694
0.0521541667279
0.0762029914008
0.00754461885201
-7.81130446162e-05
-6.12747811264e-05
-5.38992585034e-05
-8.29631132592e-05
-0.000317200972622
0.000312347798451
0.000139471330542
0.0118348077253
-9.34216203329e-05
9.78230194912e-05
-0.0118493871746
0.0117553891585
-3.30383994032e-05
6.19737788528e-05
-0.0117786482424
-0.000141359979914
0.00013568829308
0.000310897530679
-3.366437304e-06
0.0513662187032
-2.01485913918e-05
-8.61798134612e-06
-2.19555542424e-05
-0.000279531493397
2.55904365242e-05
0.0513352019106
4.1264352648e-05
1.61414110804e-05
2.41006019985e-05
-0.0514084395959
0.000261663075203
7.57894155184e-06
4.08805464388e-05
0.0117150677825
-0.000141456605705
0.000133321143278
9.6240489328e-05
0.0128321791947
-0.0001047395791
1.5001014472e-05
-0.012842051344
0.0128294125961
8.77797438889e-05
5.27315720307e-05
-0.012848110805
-0.000247907566559
0.204081563915
-0.00171606713063
0.00149237002045
-0.203609959061
0.204275444364
-4.42005478271e-05
-0.000392019706423
0.000398946414353
-3.17873112057e-05
0.204358293994
-0.000283451193184
0.000232674650113
-0.000538100790384
0.204112648657
-0.00160114691002
0.00143884603631
-0.203660136258
0.204413051422
-9.40952661071e-05
-0.00055503908007
0.000479557435407
-5.29308283336e-05
0.204564657551
-0.000376172770795
0.000245992804851
-0.000245218619246
-0.000340320810115
-0.00035248187864
-0.0014743281796
0.20403128069
0.00139742308737
-0.203306900733
-0.000247607949829
-8.14111333083e-05
-9.24449924093e-05
-2.06899049789e-05
-3.81261007316e-05
0.20463393674
-0.000498455578973
0.000465313980528
0.0511109258515
-9.46493739715e-05
-7.9493938967e-05
-9.54593886476e-05
-7.92784728146e-05
-0.000380627045676
-0.050993820622
0.000367209293047
0.0513401529798
0.000305645312986
-1.14587421227e-05
-2.75206125903e-05
-1.82400481414e-05
-3.54371250378e-05
-0.000268373824223
-0.00378529208824
0.000212879015069
-0.02112591894
2.17261816951e-05
1.05848943782e-06
2.56332225424e-05
1.75267756988e-06
0.00371801041243
-0.00106717728137
-0.000618739344261
-0.000913454520642
-0.0310638999837
0.0134658557806
0.0673955051046
0.0159845823265
-0.00107706782158
0.00883569434204
0.00394272600847
0.00768932429763
0.00482246118484
-0.00690449147446
0.032902850406
-0.00731985535846
0.000306698019728
-0.000109374815495
-0.000133497199356
-0.000109175829084
-0.000136196596376
0.0512323819738
-0.000280172040192
-0.000109229570519
-0.00013335764151
-0.000109420718004
-0.000131651111318
0.0512017536687
0.000304756227713
-0.0510685655444
-7.83206722154e-05
8.43609380399e-05
0.0119035380842
7.58503002082e-06
-2.13737302371e-05
-0.0118958431662
-0.000108832910231
0.000170651934588
-0.0118933487029
-1.93417752562e-05
-2.17565245789e-05
0.011872592
-0.000130014739302
0.012757658912
-7.94030324342e-05
8.56734271881e-05
-0.0127431331377
0.000251879670958
-2.07150758367e-05
-3.821742947e-05
-3.53848277394e-05
-2.27178657593e-05
0.0513535527567
-0.000240682622137
0.0512605464691
2.12002267899e-05
3.16511385355e-05
3.66049186953e-05
9.81128057635e-06
0.000260342148077
2.14189777696e-05
-8.74340581826e-07
-5.29796607617e-06
-2.25134447576e-05
0.0512461374406
0.000235660600777
9.54997677639e-05
-0.000105232220304
1.16857535989e-05
0.0128187959757
-2.89189879431e-05
3.26880356749e-05
-0.0116263995933
-9.55551258016e-05
0.011615757444
0.000102491553213
9.24538056284e-05
4.71540059171e-05
0.0128064598099
-0.0127891362104
4.53493129968e-05
0.0127782359143
-7.93260474868e-05
6.6345860429e-05
-0.0146885055532
7.085195473e-05
2.44133531793e-05
6.02768669762e-05
0.00364474419643
0.000272144110959
0.00134923220602
-0.00379328712577
-6.53412310509e-05
-7.96588603162e-05
-7.35709678823e-05
-6.23567144239e-05
-0.0127719463273
0.00177004586404
0.0134927631222
-0.00468327631428
-0.0100880590879
0.0163734516641
0.00474525734093
0.0151154542977
-0.008950046171
-0.00407232260146
5.38620559176e-05
-2.24992336878e-05
-1.11735734652e-05
-2.71818005785e-05
0.00443001397893
5.11932729021e-05
-0.0014978022502
0.0189108776456
0.00550863381469
8.99987199754e-05
0.0128212826997
-8.78789022482e-05
-0.0127888783622
-0.0128255343346
-0.00012545740716
-9.46757384559e-05
0.0128498391729
9.22327111971e-05
-0.000115867674064
0.000137142382448
0.0118135266119
0.000114903240414
0.000134644007459
0.0118232086055
-0.0118401203887
-9.24312887381e-05
-0.0127932723669
8.83360970639e-05
0.0118043909698
-0.000115564355588
0.0128497351907
-9.17425759134e-05
0.012871469901
-9.4956682275e-05
-9.3188433044e-05
8.83635923208e-05
9.07338105348e-05
-0.0128737460934
0.0128719580874
-8.83463930851e-05
-0.000129330040373
0.000109975720788
0.000125045335648
4.8340524648e-05
-0.0117718205943
0.0117536711475
-0.000147146222276
0.0128696032689
8.69465433139e-05
-0.000131511444129
-9.03330051563e-05
-0.0128641048991
-3.40876901875e-06
-9.5075842852e-05
0.0128591093872
9.09777707581e-05
9.33433695174e-05
0.0128638011698
-9.20736009874e-05
-0.00014111109344
1.80370664709e-05
0.011684042135
0.000131580458045
3.00245147457e-05
0.0117185984796
-0.000147640383717
8.83274063954e-05
0.0116920280108
-0.000145221637906
0.0128554306506
-9.49021784137e-05
-1.65367461175e-05
-0.0128375034676
0.0128315523627
-0.000102408103852
-0.000128818509046
-0.0116727710978
0.0116553196115
0.000128188661715
-0.0116743656976
-0.000124514440852
0.0116610810552
1.59346597906e-05
-0.000101851245618
9.42851555065e-05
-0.000137743806156
6.68364997354e-06
0.000132155331284
-0.000140459292175
-9.92452233759e-05
7.99284704084e-05
-0.0128501909887
0.01282852729
7.07753257727e-05
-0.000129733138737
-0.0117054612928
0.0116980866847
-0.0117183173321
0.0117173385404
-0.000128467374373
8.35120283385e-05
4.37649601568e-05
-0.0128649923002
-5.74572309593e-05
0.000142963669289
-0.011737159938
-0.000140206720589
-0.0128684186831
6.8252138342e-05
-0.0117216187136
0.00273524271112
-0.000612352301876
0.000117754077099
0.000146408059315
0.000133296906488
0.000108851734159
-0.00332905908507
0.000872447983453
-0.000172328670875
-0.00644190773753
-0.0149538205569
0.0129554476942
0.0101111877557
-0.00229295379224
0.00278566882331
8.11034567372e-05
8.20990712226e-05
9.17948173774e-05
-0.00397983306771
0.00199932079067
0.00115460143049
0.00288814518462
8.40569897338e-05
0.00012776471105
9.82851070691e-05
-0.00493231737892
-0.00127925021231
-0.0116899952963
-0.00341637602424
0.00983001739461
0.00744330132396
-0.00097350481539
-0.0151879678849
-0.00260890192028
-0.0123811488966
-4.3944027458e-05
-8.02922212965e-05
-6.91534093072e-05
-2.17454352126e-05
-0.00135198648792
0.00365146356796
-0.00701842691071
-0.000491701239503
-0.0068687546952
0.00572520125336
-0.000566485343281
0.00686174905488
-3.84040783446e-05
-1.246103221e-05
2.47867861877e-05
8.6285315202e-06
-0.0131036555309
-0.005555284602
0.00401035781032
-0.00497321442567
0.00106240613889
7.34665951483e-05
2.60959504513e-05
9.84818987468e-06
8.37043883489e-06
-0.0196889830566
0.00527787278502
-0.00538222350097
0.00742251598888
-7.57716165374e-05
-0.0127355529711
-0.000111836026946
0.012745390621
8.3126265936e-05
0.0127489296562
8.59279876631e-05
-8.80338179447e-05
-0.0127419367101
0.000105894889902
-2.15820800241e-06
0.0119024748679
-2.15840650936e-05
8.59101322154e-05
0.0119023408745
-0.0118946429025
-3.9369306514e-06
0.0127561468512
-7.24030880062e-05
-0.0127289638589
8.61337950499e-05
0.011902362182
-2.2169017504e-05
-6.19498706743e-05
0.0127573729837
-0.000134747888195
7.54234247408e-05
-0.012765011773
5.45896636117e-05
-4.11173731215e-05
0.0127888226734
0.000126088035586
-1.27947715068e-05
-1.99979586944e-05
0.00018007560321
-0.0118912075507
-5.40975167407e-05
0.0118736838792
-5.3691948296e-05
7.23618691372e-05
0.0127837117196
-3.7928326999e-05
0.0118682170456
4.68955390299e-05
-5.00910895611e-05
-0.011877285723
0.000167212304114
6.89007550429e-05
0.0118533627005
-7.48400580761e-05
-8.13910870173e-05
0.0127841543842
8.89448593064e-05
0.0127554255719
-0.000125558803339
-0.012743079999
0.000167467336825
-0.0118846105632
0.0118653402769
0.0127824015112
-0.0118922099258
-2.567120781e-05
0.0128277133793
-0.000103258337653
-0.0001249340386
0.0116484477941
0.000127899004221
0.0116605322214
-0.000111640638007
-0.000103425096434
2.32535328863e-06
0.0128136565999
8.8003824008e-05
3.30868237326e-05
-0.000113663958956
0.0116366465906
0.000118000004085
0.0128267070309
-0.000104823046191
0.0116530107642
-0.00010202969187
-9.44509822156e-05
0.0128126076171
-1.84625142966e-06
7.66369174199e-05
-0.0128299445449
8.15407472445e-05
0.0128331817513
-9.03108450594e-05
3.30776208604e-05
-0.00010533223408
0.00010858770069
9.30649972635e-06
-0.0116491830852
-8.25062993521e-05
0.0116366634923
-0.000100015505936
6.4166112032e-05
0.0128165857941
-9.49064809352e-05
-0.0128036495738
6.48650270724e-05
-8.81979630654e-05
6.95342717435e-05
8.00914055208e-05
7.38881723141e-05
-0.000109908063812
0.0116995284364
0.0117171673403
-0.000109951666214
0.000100682082059
0.0117109228721
-9.86756994396e-05
1.70254627436e-05
0.0127990593351
0.0116934621935
0.0117146422299
8.69753273924e-05
-8.37652422286e-05
-1.20184861241e-05
7.51168582615e-05
0.0117082877382
-6.92449052002e-05
-6.74778003159e-05
0.0127780772757
5.48485467562e-05
0.0127950687589
-4.00595908043e-06
2.84551401677e-05
-0.0116902008443
0.0116791087706
0.012797758539
-9.18755964249e-05
-9.91848463586e-05
-9.16036286128e-05
-0.000210834316195
0.204980876061
-7.61242254328e-05
0.000169930327079
0.000188314275701
-2.23695871734e-05
-3.501367048e-05
-3.40754025497e-05
-2.01881753585e-05
-0.000196348006882
0.0513813583122
2.58981036399e-05
-0.00763693501545
-0.000137683402807
2.11927807792e-05
2.09707794624e-05
2.32136950774e-05
0.00556956798881
-0.0175754424817
0.00600992354831
0.00666976160567
0.00655247938057
0.0232670162728
0.0190102206097
0.00600177396921
0.010408650577
-0.000131965559636
-0.000124224879425
-0.000126383171721
-0.000128647894075
0.000337793027514
-0.000279595168949
0.0513433540512
-0.000135497756499
0.000170095189909
8.05512941289e-05
0.0118361447478
0.051271381695
-3.64985044216e-05
-1.45940432808e-05
-2.73969188289e-05
-3.22388514094e-05
0.000174811109774
0.0512865706961
-2.89115686691e-05
-3.07732435406e-05
-2.67868370745e-05
-2.97264842428e-05
-8.61912637046e-05
9.57321247851e-05
3.03022744448e-05
0.0115981074911
-8.10758047302e-05
9.43020815738e-05
-2.05092686296e-05
1.21938034237e-05
6.37323245327e-05
0.011710373039
-5.74013251089e-05
0.011693278619
-2.04042699598e-05
2.78747239035e-05
1.33853460734e-05
-0.0116930511018
-2.09495852171e-05
0.0513062911739
-1.39924624787e-05
-2.51153019782e-05
-2.01243550926e-05
-1.92578998232e-05
6.40048799485e-05
-8.74518741453e-06
3.57828999121e-06
-4.41371973125e-06
-2.91163868952e-06
-1.50209417165e-06
-8.10781077337e-06
1.58255427209e-05
8.62710674149e-05
0.0512869090802
-6.57507795357e-05
-8.57953805464e-06
1.79422001945e-05
-5.32053172236e-06
0.0116941931699
-5.00802228646e-06
2.09360308207e-05
-7.69977113834e-06
-2.85399174903e-05
-0.0116921739432
0.0116850386039
2.23219146545e-05
0.000141299858779
0.000123820578419
0.000127836312396
0.00226007223643
-0.00761514674972
0.00299546895184
-0.0130554907413
-0.000178380029656
2.79478979623e-05
2.66506702127e-05
2.51361333798e-05
-0.00760707746418
3.66578534257e-05
-0.0121609037116
1.34119070545e-05
2.66177420279e-05
1.77035621872e-05
0.00700002239064
-0.00800954569887
-0.00155790656366
0.00538805506563
-0.00334026272874
-0.00245280274319
0.00239048777886
0.00138432076043
0.000437370434001
0.00228899727633
-0.0112882080049
8.72372266747e-06
-3.27711567022e-06
-2.65564551891e-06
0.00470329631894
0.000130849542641
-0.00571825733353
-7.67537036106e-06
-1.60206783097e-05
-5.39523711374e-06
-0.00046578576888
0.00017340499549
-0.00958301144989
-0.00136276588334
-0.0128207088163
-0.000176738510013
8.177523584e-05
-6.58780728962e-05
0.0128495905781
-7.92373552948e-05
0.0128214634112
0.000177573103822
0.0118470100948
6.26489735171e-05
9.42787634824e-05
0.000166787984963
0.011813824761
-6.61914931253e-05
7.13935018445e-05
0.0118210524169
0.0128498330726
-4.65882803648e-05
-0.0128213849964
-1.36927924141e-05
3.41112289121e-05
0.0128251997029
0.0128382659125
6.27246219995e-05
-7.25415151803e-05
2.02306825492e-05
-6.85151616476e-05
8.29086981758e-05
0.0115846661741
1.2255910513e-05
0.0116273017884
-6.30276903187e-05
-5.91972207687e-05
0.0128370034891
5.00211724016e-05
-4.65580661493e-05
0.0116148970002
-0.0128025199157
-3.55539795129e-05
2.75134842698e-05
0.0128081580326
-4.95506077157e-05
0.0127831910347
4.21404086012e-05
3.16834918605e-05
0.0116761166812
4.90423809612e-05
3.46441690857e-05
0.0117011176432
-4.77752506942e-05
0.0116682271093
0.0127904035269
2.28045398415e-05
0.0128142504795
-2.79187277713e-05
1.09101203335e-05
-1.79765198032e-05
1.56307161582e-06
-0.0128003172307
0.0128027813805
-6.83811754692e-06
1.93011691623e-05
-0.0116611405994
0.0116608015792
7.84630030996e-06
2.93619955446e-05
3.74990636646e-05
-3.20726538568e-05
0.0128143265769
-6.00608466076e-06
2.61890864555e-05
8.86924416738e-06
-0.0128121740236
-2.04390855908e-06
-1.94627243038e-05
0.0128033599522
1.63303753528e-05
1.21990280451e-05
0.0128022048405
-1.88097838955e-05
1.18495517676e-05
0.0116661254887
-1.37751712164e-05
-1.37565671443e-05
5.32145375491e-06
0.0116962424946
2.85239145167e-06
6.08451550069e-06
0.0116720476708
-2.442330583e-05
0.012796257536
-2.74628095981e-05
0.0127986756051
1.336564645e-06
-2.44917753973e-05
2.34347173678e-05
2.70242515459e-05
-0.012792248109
0.012788305191
-3.37391342786e-05
-4.54401557644e-06
-0.0116763347623
-3.18849549686e-05
0.0116765443605
-2.57372053581e-05
-3.26508258352e-06
1.68188488091e-05
2.64801031728e-05
0.0127931955948
-3.41326804961e-05
-3.18526019419e-05
-0.000725625442783
-0.0502346170734
0.0501282095194
0.000775183555608
8.01034820182e-05
2.8652241759e-05
7.7500456346e-05
3.92348642621e-05
-0.00016929732922
-0.000811700253506
0.0504661470601
4.10577964942e-05
1.9512418785e-05
3.57585432967e-05
2.53319955883e-05
-6.6288501056e-05
-0.0505156838924
0.000805523871975
-0.00102360365158
-0.050430680925
0.0504850685065
0.000926729941939
6.54062741922e-05
5.95919438485e-05
7.19570990129e-05
5.61232786401e-05
-0.000210604501972
-0.000801223364051
5.61780333962e-05
5.42187759229e-05
5.41077453988e-05
5.75791814952e-05
-0.000119762838012
0.0505447340004
0.000703080102146
-0.0505489038655
-0.000108062777631
0.00288108304228
0.0260097857291
-0.0252582199903
0.0018666995133
-0.00491191731544
-0.000183377267159
-0.000126157147673
-0.000178806681337
-0.000312583236798
0.0171505385963
-0.0063321234087
0.00363648704028
-0.0138600426501
-0.000350240307058
-0.000286647309089
-0.000324049676243
0.000644511820006
-7.61202427471e-05
-0.00403243236649
-0.0301477589626
-0.00321058508495
-9.44922448807e-05
-8.10620163481e-05
-9.38584065721e-05
0.0355385944666
0.00219713867243
-0.000185234790896
-0.0047783361372
0.0200814676039
-0.00935487627956
0.0024109303812
-0.0076437613416
-0.000203324325239
-0.000154092413466
-0.000172820302337
-0.00011488106781
-8.97486912527e-05
-0.000115749544064
-0.000113463404091
-0.000112719810035
-0.00944670414046
-0.00181416844954
-0.00501948487399
0.0168269342238
0.0796833311522
-0.0204440466296
0.0058437263809
0.0140120578877
0.00845042060659
0.0174609934687
0.015403268653
-0.0342871923784
-0.0488320666296
0.0145442371085
0.0131672284282
0.0157704898727
0.0143755307372
0.00569985896698
0.059502676098
0.0558593777154
-0.0272457652568
0.0107626014181
0.0183648005606
0.0109227011348
0.0167101564767
-0.0184275484655
-0.0307996475559
0.0196085097003
0.0168064584202
0.0172395015845
0.014670117634
0.0635149466307
0.0605449849958
0.0106252343976
0.0150220681823
0.0148253766008
-0.0319069990126
-0.011719474649
0.0118106094186
0.0139963447
0.0122508525362
0.0122458841873
0.0102011521908
0.0769622209846
-0.0121841844242
0.000398622411551
-0.000106430732682
-8.68816683585e-05
-7.76965471108e-05
-0.000117104055227
0.0500861480585
0.000270527796799
-0.000118976786124
-0.0502483082601
0.0501002254468
0.000585271052845
-7.82120910603e-05
-3.35819249346e-05
-5.05865336957e-05
-6.54244880521e-05
0.000204835625007
-0.0502640732568
-0.000117417990476
0.000100277133459
-0.0122046497686
1.47173779946e-05
0.0122026632166
3.97817326959e-06
0.0122116990864
3.92488555369e-05
-1.9906820197e-05
1.74844287079e-05
-3.75177714915e-05
-0.0122114571788
8.15908453223e-05
2.972199203e-05
1.49741035045e-05
8.91833418886e-05
-0.000523230727452
0.0124901065801
0.0124162304892
0.0124820259297
0.0124912751718
-0.00019854195389
4.89277706235e-05
9.03377212786e-05
-2.17445496645e-05
-4.61832519756e-05
0.0121413844092
0.000696233106781
-3.43070885496e-05
-1.86823596027e-05
-4.72083986215e-05
-2.26648957029e-06
8.50190226331e-05
-0.0503282607847
0.0503632747653
-2.7784291457e-05
1.01666207788e-05
1.71024218234e-06
-1.78713954251e-05
3.97631486979e-05
-0.0504104934217
0.00073735803156
0.0122307609933
5.59882078144e-06
1.07709712489e-05
-0.0122354010839
2.77311226538e-05
0.0122517483363
2.73908904632e-05
-1.14609544066e-05
-3.08773339814e-06
-0.0122534492988
-1.03782674399e-05
0.000991908764664
0.000110874512155
0.000159235702873
0.000111902595689
0.000156293917246
0.0499049918963
-0.000234213177153
-0.00019824950688
-0.000227764331121
-0.000191703846902
-0.00013626633498
-9.13267380295e-05
-0.000127746733656
-9.9999356052e-05
0.0502805772792
5.16529814263e-05
2.77847420344e-05
2.55379591431e-05
4.9597943082e-05
-0.000109292566893
0.0502947855823
0.000889169047589
7.23479345496e-05
9.14459682566e-05
0.000104935582979
6.72153628528e-05
-0.000247838677116
-2.28007480356e-05
0.0121604141097
3.3022522075e-05
0.0119325162501
0.000286159936803
-0.000207820109591
-0.0120074880158
7.4272139767e-05
-7.77316791909e-05
-1.76050752839e-05
0.000102178615165
-3.0407778299e-05
4.48687554757e-07
0.0121960993952
0.012006055663
4.28698874983e-06
0.000201234912207
-0.000108830270361
-2.77048692876e-05
-0.0120751476913
0.0502957397008
0.000135842732436
9.73995433466e-05
0.000110207045354
0.000115726046444
-0.00108289454813
-0.000401124081654
0.00118855573594
0.000137564329675
0.000114433878651
0.0001188115094
0.000137331400984
0.0506912735156
-0.00059499530822
-0.00149749590792
-0.000220800925287
0.0118527356479
8.55944066797e-05
-9.76248612346e-05
0.000273438211972
-0.000237912868257
-0.0117620971827
0.000136028676683
0.011740130391
-0.000149706235301
8.96219259503e-06
0.000211548489571
-0.000109034904249
-3.44872990272e-05
0.0119290088751
7.52222403305e-05
0.000180831987603
-0.000103850880937
-9.8652808224e-05
-0.011818315161
0.0117646714484
0.000831014271503
4.42594920091e-05
5.89493851733e-05
4.13048179634e-05
5.64556047004e-05
-0.000107285104343
0.0505121422862
4.59740724244e-05
6.38549025455e-05
5.64157892541e-05
5.26257823585e-05
-0.000106513600831
-0.0505580882196
0.000764558600685
-2.14551623317e-05
0.012193425223
-2.79741584852e-05
-0.0122382792212
0.012018132863
0.000175569071394
-8.06580020764e-05
-0.0120840004208
-2.4705525899e-05
0.0120301893965
0.000149619688031
-9.43880493733e-05
4.14679271223e-05
-0.0120864025373
-4.04451741828e-05
0.000988542078172
6.43415882906e-05
7.04200937472e-05
7.17761394074e-05
6.22306858468e-05
0.0506760100047
-0.000259718192912
0.0505365155456
5.49994406263e-05
5.77244977737e-05
5.06678137968e-05
5.94807924807e-05
-0.000121696190971
4.79887649854e-05
4.34906441901e-05
5.24388561217e-05
4.29376380566e-05
0.050634227713
0.000835187543522
-0.000131274419514
-7.47794849796e-05
0.0119431570066
-2.66735981388e-05
0.000181836949631
-7.77050694087e-05
-0.0118317310628
2.64944883304e-05
0.0117763655267
-5.00383243349e-05
0.000134448303084
-7.96999228624e-05
5.0714135498e-05
0.0119746786518
-3.32116467274e-05
0.00010460292542
-4.73050497982e-05
2.47073409511e-05
-0.0118862380264
0.0118374320747
-7.71777468469e-05
0.0119781109839
-3.6484003706e-05
-0.0120293784818
-3.9703755998e-05
-0.0118992768687
0.0118596095014
7.34037359801e-05
-2.72794730012e-05
-0.00529115789737
0.000184292754005
8.99206933191e-05
0.000146612761741
-0.0224387029985
0.00268744094459
0.020798695963
0.00371071949523
-0.0234499048458
-0.00436280986619
5.26307721205e-05
6.05822869973e-05
0.000106820737275
0.0210280649104
0.00125458872333
-0.00243552241624
-6.96158748806e-05
-0.000190132818718
-0.000166782282756
0.00597950929214
-0.0235988423226
-0.00704086196951
-0.00571759744611
-0.000128848101009
0.00417011884877
0.0145066019456
-0.0029624764763
-0.00043115933236
0.00906547981355
0.00132434657895
-0.00733207908499
-0.00703781094191
0.0145911304282
-0.00135088113796
-0.00335730658024
0.011868780714
-0.0011987412017
-0.00752805840988
0.0146785787999
0.00817274861758
-0.010415236658
-0.00227534556193
0.011824974042
0.0128372383297
-0.00230989471707
-0.00634661515463
0.0155177701399
-0.00896822432974
-0.00233453846086
0.0129201142746
-0.00103089040938
4.44491933441e-05
-2.57774974642e-05
2.44823982926e-05
-0.000697887411978
0.023334588502
-0.0306887830518
-2.54361176784e-05
6.18265107027e-06
1.15577298579e-05
0.0290000012512
-0.00083038983099
0.00152124242477
0.0037187279569
-0.0121442559722
-0.000244842169415
-0.000292861165621
-0.000253473692465
0.00138361856713
-0.0279176244788
-0.00447798700234
-0.000104999887613
-0.000117007350171
-0.00013322421198
-0.00934808448223
-0.0189817636732
0.00493912013116
-0.000233674673773
-0.000173518550428
-0.000200606172347
-0.0073013150075
-0.00779220186678
0.0139529931258
-0.00514975300356
0.000708095953352
-0.00599557085042
-0.00872279205479
0.0133686852928
0.00230168156212
-0.00610739614618
0.00219135262747
-0.011617790048
-0.000288567880317
-0.000236235119472
-0.000256242034997
0.00226472874343
0.00187958603677
-0.00825970713683
-0.0108737202152
-0.000260459905346
-0.000232449011723
-0.00028581874543
-0.00929380324163
0.00411737086207
-0.000237224785154
-0.000187124416896
-0.00024367941931
-4.11738964233e-05
0.00628240933843
-0.00616079810164
-0.0037509494711
0.00641105934354
0.00803802782211
-0.00554062426124
-8.39680422462e-05
0.00971787368942
0.0024122587813
-0.00691507661442
-0.000153865841313
-0.000156677487068
-0.000138411058918
-0.00612992240735
-0.0183119561253
-0.000134949937888
-0.000130753898827
-0.000117896635682
0.0272550430917
0.000131161602532
-0.00295365340746
0.00869157727802
-0.00706224100824
-0.00564854450357
0.00470391715416
0.00679827635956
0.000834497723925
-0.00459741939483
0.00315906310162
-0.00710182858855
-0.000182402746614
-0.00014786645241
-0.000149226590778
-0.000633325620806
-0.00972507816948
-0.00571862777675
-0.000133738342709
-0.00014292944892
-0.000136459147152
-0.00520514956172
-0.000124093430097
-0.000109031890202
-0.000128318974605
-0.00199772398908
0.00110314979301
0.0105039300577
-0.00496461241614
-0.000746587650252
0.0163054414799
0.0124419438764
-0.00407045060905
0.0192498524214
-0.00256698346549
0.0126779142356
-0.000138179376078
-9.58603549067e-05
0.000121265298356
-0.0126716624448
0.000102293285174
-0.0126760018342
0.0126398709897
-5.24666878602e-05
8.92630967822e-06
0.000175325124561
1.10105536497e-05
-0.0122158322813
7.14595180363e-05
-0.0121958721404
2.95399508303e-05
0.0121984819449
0.000130484419943
0.0126437938851
2.45002309378e-05
-0.0122031140836
-4.76235382933e-05
-0.0126659214075
0.012680356881
0.000139250808957
-9.92734887518e-05
-0.0126772081056
-0.000152523942791
-0.0126802992188
0.0126564082306
0.000160111531555
4.18825489606e-05
-0.01221160485
0.0122148205158
7.02650682104e-05
-3.55381824325e-05
3.40482185702e-05
-0.0122201057802
0.0126500073774
0.000145145142393
-0.0126816605576
-0.0122155343308
-0.0126428236012
0.000171729290145
0.000112250572723
-0.00014788551915
0.0125882861538
-0.000154507017464
0.0126550200145
0.000163366435306
2.63584352109e-06
0.0121404907948
-4.4793126348e-05
-0.000129568839772
-5.58413119225e-05
5.49412487913e-05
0.012081800568
-0.000131014645295
0.000175866324452
0.0126099335568
-4.96344478533e-05
0.0120797170181
-0.00015552957948
0.0126935224814
-3.91802105916e-05
0.000161747744091
-0.0126949362665
-0.0126872682186
0.000165801390748
0.012673529707
5.59340771397e-05
2.89288462072e-05
-0.0122418439739
-8.80319384979e-06
-0.0122448777002
1.79600229319e-05
0.0122379238479
-0.0126893676733
0.000166148475705
0.012681918155
2.34304921478e-05
-0.0122543216994
0.0126963923775
0.000168139453024
-3.18346068364e-05
-0.012698999191
-0.000171711765922
-0.0127000329575
0.0126917941966
0.000178740181838
-5.2137664876e-06
-0.0122509727802
0.012245943854
2.18748160326e-05
-1.04645651903e-05
-0.0122568590267
-1.97646773869e-06
0.0126874149341
-0.0127018776869
0.000173734785931
-0.0122582639284
-0.000173596476368
-0.012677019885
0.00010851333853
0.0126516422369
0.000170516075573
0.0126726303377
0.000169908455912
-0.000111941727134
4.29467052772e-05
0.0120992477487
-4.42239547855e-05
0.0121714281417
1.75111155558e-05
0.0126397355873
0.000169787105914
0.0121174293533
2.59376419251e-05
-0.000194162305678
0.0126327546655
0.000141278809241
0.000182368636832
-0.0126148341616
0.000197118353742
0.0125700298656
-0.000200985719591
-0.000140235103539
5.39766587338e-05
-6.74002775203e-05
-0.000201263191254
-0.0120267827391
5.68202318941e-05
0.0119520471647
-0.000198071353554
0.000191928969713
0.0125926605596
3.15159783559e-05
-0.012679740591
0.000175260102874
6.73303193637e-05
0.0126592608186
-0.000173639321394
0.0126822685156
0.000180122300791
-2.87294672262e-05
0.0121870481012
-5.87997009037e-05
-6.68314873456e-06
0.0121567243869
-1.20245558152e-05
0.0126645927875
0.000183701898626
0.0121406022367
0.0126431708252
0.000180968994676
8.9897300762e-05
-0.000190892450086
-0.0126537523589
0.0126293448
0.00019786217417
-0.000134613859599
-0.0120554533512
0.0119858552513
-7.06045761745e-05
-5.98873693559e-06
-1.54282129867e-05
0.0126143116997
0.000188096992712
-0.000242355903881
-0.0125736232964
0.000246041116383
0.0125373233297
0.000233558379019
-0.000201096707676
0.0125406582128
0.000220535721459
-0.000177561653848
-0.000234534615987
-0.000276445510969
0.000112357895693
0.0117847874833
-0.000118365515898
-0.000197216581486
0.011875562156
7.20637287562e-05
0.0125049648283
-0.000219511250017
-0.000263840961065
0.000213551326815
-0.000171528309826
0.0118075986523
0.000101587733659
-0.000275526655105
0.000229147132367
0.0125447195354
0.000270002622762
-0.000231298964038
-0.0125130722717
0.000306129442556
0.0125555710939
-0.000331868923354
-0.000254639338103
-0.000256308172411
0.000123599409498
-0.000133143738295
-0.0117758773263
-0.000209647485037
0.000143314430379
0.0117419394295
-0.00029335256388
-0.000246772127091
0.000127683248729
0.000299614485637
0.0125771320614
-0.000235854064932
-0.0125958679745
0.000216617894521
0.000178226840043
0.0125704318823
-0.000202196596086
0.0126152984612
0.000204498576604
-0.000139804931794
0.0119025663252
-0.000139070220509
-5.90581877714e-05
0.011860049571
3.4574428537e-05
0.0125935926393
0.000214700705197
0.0118373897945
0.000240531870677
0.000162259940601
0.012575027079
-0.0125938285379
-0.000262584325466
0.000250091742324
0.0126168999505
-0.0117990912714
-0.000145916042209
0.0117529600003
-0.00012285078989
-8.44141530354e-05
6.19443173276e-05
0.00023605768067
0.0126034254256
-0.000189157776151
-0.0126907533728
5.3319873974e-05
0.0126758129907
0.000191852689616
0.0126868752408
0.00018613480072
-0.0126951231906
-4.57395189645e-05
-2.73291749917e-05
0.0121600284274
-3.24147542761e-05
0.0121906118211
-0.0122339028472
-3.35970621658e-05
0.0126716026947
-0.0127009538575
0.000188951258504
0.0121600968565
-3.73958887882e-05
-0.000187776927161
0.0126639669902
5.26514222665e-05
0.00019127187443
-0.0126588076789
0.000196580120611
0.0126383449588
-5.4347449446e-05
-3.8969853927e-05
-7.34444920364e-05
-0.012090283887
-4.4375982185e-05
0.012026589129
0.000199206083366
0.0126442312835
-5.50349131092e-05
0.012667722535
0.00018750764407
6.14417971801e-05
-0.0126794638398
-0.000193539316976
-0.0126708500754
0.0126523981966
0.000181394144063
-7.96207578957e-05
-0.0120889275333
0.0120307274675
-7.48270083561e-05
4.74559694565e-05
-0.0121479091422