/*--------------------------------*- C++ -*----------------------------------*\
| =========                 |                                                 |
| \\      /  F ield         | OpenFOAM: The Open Source CFD Toolbox           |
|  \\    /   O peration     | Version:  v1906                                 |
|   \\  /    A nd           | Web:      www.OpenFOAM.com                      |
|    \\/     M anipulation  |                                                 |
\*---------------------------------------------------------------------------*/
FoamFile
{
    version     2.0;
    format      ascii;
    class       volVectorField;
    location    "7.45";
    object      U;
}
// * * * * * * * * * * * * * * * * * * * * * * * * * * * * * * * * * * * * * //

dimensions      [0 1 -1 0 0 0 0];


internalField   nonuniform List<vector> 
28582
(
(0.814449580024 0.00304769877811 -0.000653242978797)
(0.815813393905 0.00127034923896 -0.000368908432777)
(0.815207878286 0.00333658118629 -0.00108447640623)
(0.816116588072 0.00161077374605 -9.40326712165e-05)
(0.816976261884 0.00414169483789 -0.00279285741546)
(0.817073700234 0.00246239569476 -0.000402213688795)
(0.818780921418 0.00616661619929 -0.00647758595684)
(0.820967301832 0.00456190891495 0.00102760094086)
(-0.156225602324 -0.0364637291844 -0.00998667708543)
(-0.191093428326 -0.0327340457755 0.00886601899782)
(-0.440185135925 -0.216225176637 0.709740482815)
(0.820999071451 0.00526426465139 -0.00163729872732)
(0.782584035481 0.000361051801719 -0.0120039204572)
(0.780419675606 0.00097747250883 -0.0047711874055)
(0.818539110416 0.00300396634108 0.00249899279538)
(0.816648680638 0.00346752125676 0.00435007817678)
(0.779564005627 5.15371302599e-05 -0.00231835625882)
(0.815114430991 0.0041789604444 0.00624717012157)
(0.813905954887 0.00517090228467 0.00745131708207)
(0.813373490741 0.00577550427632 -0.00109607090821)
(0.816194449733 -0.000983981563061 -0.000351222976641)
(0.815030979105 -0.00186842952002 -0.000517705327397)
(0.813602583764 0.00577323500478 -0.00253190550627)
(0.816155265577 -0.000761804541617 0.000214456093521)
(0.81493438142 -0.00185320543331 -0.000144965689454)
(0.814340984991 0.00614778992854 -0.00608539549012)
(0.816004291495 -0.00026942024643 9.07316137728e-05)
(0.813368277032 0.00608210639879 -0.00919853348735)
(0.817073607186 0.00166868651586 0.000566626056365)
(-0.145360871983 -0.00762519213047 -0.00080437726451)
(0.3861497753 0.447180914107 0.308892488807)
(-0.368602720659 -0.262011013783 -0.446572586454)
(0.818833582016 0.00462164561109 -0.0104194536551)
(0.817882243313 0.00548553432931 -0.0103658022182)
(0.780976275984 0.00730325975287 -0.0108497060676)
(0.783040940526 0.00697072984836 -0.0113009121053)
(0.815554482706 0.00635005202666 -0.0163839586585)
(0.813987786223 -0.000314818759356 -0.000442324200995)
(0.815417463533 0.0025780921355 0.00217826145931)
(0.812138363805 0.000533749050573 0.000324077657551)
(0.813588548287 0.00333654151215 0.0046856308287)
(0.776411821305 -0.00290359891277 -0.000811395118867)
(0.812327947723 0.00433237264022 0.00568260385663)
(0.807691904632 0.00264619809997 0.00372451185098)
(-0.217993324391 -0.0696449311165 0.00540429508026)
(-0.117880242732 -0.0621826483456 0.0128085960233)
(-0.148245786941 -0.0528371024947 -0.178208878105)
(-0.188441391342 0.062256781782 -0.0995962886923)
(-0.238844808175 -0.0641649456441 0.012842991405)
(-0.0721892298351 0.0963266662368 -0.0462276057847)
(0.820703353916 0.0077610910207 -0.0140192074037)
(0.822984861479 0.00867599178147 -0.0106217950665)
(0.782192108893 0.000559302542598 -0.0107525689358)
(0.781951229988 0.00120794053381 -0.0118505117202)
(0.820915973003 0.00867282412835 -0.0139391924456)
(0.781297152937 0.00134867908499 -0.00982727628597)
(0.823084107976 0.00786577856927 -0.011760901605)
(0.822327617945 0.00831458548457 -0.00789897597217)
(0.823003788989 0.00707647765662 -0.00364095446149)
(0.782271153925 0.000979747146919 -0.00887574854267)
(0.778934714719 0.00166879558394 -0.00308247563455)
(0.822155887199 0.00750085177963 -0.00198039860344)
(0.781214683657 0.0017555473517 -0.00728649308363)
(0.822893223554 0.00768739834712 -0.00932319832809)
(0.819816760464 0.00622245641138 0.00434395152907)
(0.821885899985 0.00626958149802 -0.00181030663106)
(0.77737091956 -0.00066599669751 0.000134482126848)
(0.777789720448 0.000520201614251 -0.000287391998607)
(0.821308205688 0.00681177147245 -0.0002634888333)
(0.7758469625 -0.000200807611312 0.00243058761865)
(0.820456156971 0.00590855559274 0.00266526960997)
(0.816420797599 0.00391224844563 0.0050035722888)
(0.775515102684 -0.00288792444533 0.00313811101951)
(0.774115685056 -0.00151086380423 0.00440270350777)
(0.817914803093 0.00556159025392 0.00439604749408)
(0.775970607735 -0.00190219041967 0.00205685277488)
(0.77449375254 -0.000830090260985 0.00376592176458)
(0.818947456556 0.00512823724644 0.00295158464463)
(0.812969314559 0.00540086035018 0.00950420695706)
(0.773523421445 -0.000871407146857 0.00398880559268)
(0.772687303065 6.99292326594e-05 0.00735765834659)
(0.816961466044 0.00637570431807 0.00592895100724)
(0.772768774824 0.000772421941563 0.00691360207129)
(0.816062409379 0.00647948763465 0.00785048348683)
(0.773851074902 -0.000410914284429 0.00394954912439)
(-0.100524543583 0.0376159614352 -0.0197098701234)
(0.0458615034633 0.171030689784 0.179217959627)
(0.00191683636743 0.0555587754068 -0.016432474949)
(-0.136929951632 0.0573169069766 -0.0175089833182)
(0.0655373365421 0.15450796326 0.20940360713)
(-0.0424810876763 0.20206376791 0.159753987117)
(-0.0392755199881 -0.076226849021 0.00431178750987)
(-0.192247550995 -0.0253997979617 -0.029635249937)
(-0.211140242244 -0.0451652417789 0.0527391936035)
(0.0317986391986 -0.0880057959768 0.00281790331289)
(-0.128347650334 -0.045399035677 0.0384702292285)
(-0.105088242872 -0.0120483190932 -0.00412734445557)
(-0.0815615702344 -0.0639151857969 0.076530392269)
(0.813621966249 0.00550296619168 -0.0174432937117)
(0.811344524283 0.00607140921623 -0.0147333950505)
(0.781427087711 0.00738654313719 -0.0116718679609)
(0.780443463777 0.00426875174492 -0.0110342200003)
(0.814527044589 0.00538111165309 -0.0170514745551)
(0.810745636631 0.00611053331112 -0.0148984531442)
(0.780583088968 0.00452556681648 -0.0121564424976)
(0.816240506046 0.00491433164103 -0.0160603321571)
(0.82044213361 0.00404439306551 -0.0157796287544)
(0.782159875348 0.00710253730181 -0.0115712614346)
(0.782500992687 0.00475408021092 -0.0122975798624)
(0.816975613926 0.00473730217454 -0.0153784787914)
(0.819774934867 0.00443186783306 -0.0167955908854)
(0.781539850943 0.00457859136321 -0.0124490979703)
(0.781688961953 0.00078833147594 -0.0130071849172)
(0.782101240215 0.00134305624218 -0.0132679437155)
(0.819418939792 0.00649632680807 -0.017379416696)
(0.815790324944 0.00567542153438 -0.0160905949346)
(0.782600120078 0.00244514216526 -0.0129205518441)
(0.819617523786 0.0053874241024 -0.0170302906414)
(0.781699554739 0.00209016552053 -0.0127178944778)
(0.814661706157 0.00312833012819 0.00361879800719)
(0.775047969274 -0.00360264619036 0.00273794603626)
(0.774212783789 -0.00175920520933 0.00400342478708)
(0.811609057293 0.00234327326523 0.0037091979342)
(0.775190281973 -0.00395422469252 0.00172213616041)
(0.812710508057 0.0020137946561 0.0028526578631)
(0.774702751506 -0.00171300968543 0.0029378038065)
(0.810360149119 0.000963880290165 0.00208107707249)
(0.811008594269 -0.000260702350541 -0.000707855558545)
(0.775642267896 -0.00353828482145 0.000973397088699)
(0.776064447344 -0.000886602952818 -0.000394906566348)
(0.811515304831 0.000753878390221 0.00147321435987)
(0.809863051055 -0.000271799188069 -0.000472973319512)
(0.775263203854 -0.00143292790231 0.00188620240971)
(0.809055973241 0.0039310212417 0.00659750270433)
(0.811373194002 0.00476693968406 0.00778029788137)
(0.773770573398 -0.00109434408259 0.00342205321296)
(0.772960271195 -0.000184399830026 0.00687423418378)
(0.774030707739 -0.000408426525588 0.00576487067505)
(0.810270084676 0.00346417424657 0.00425791196346)
(0.774616626146 -0.00104695553169 0.00184064147405)
(0.774828768197 -0.00102447767974 0.00346557431736)
(0.775500319911 -0.00161203766733 -6.65233309327e-05)
(0.807246437329 0.00196301645221 0.000263195575001)
(0.808960816452 0.00202988664793 0.00204002769347)
(0.77598836856 -0.000956798424818 -0.00235886713125)
(0.808380788695 0.000782222127324 -0.000732981652982)
(0.775367526197 -0.00111027544262 0.000454400223642)
(0.814920554108 -0.00204450095421 -0.0015087585368)
(0.813505094776 -0.00212904395971 -0.00282885723532)
(-0.0857047769319 -0.0136570462687 -0.0112829301433)
(-0.0694370948261 -0.174221498418 -0.445848067556)
(0.819534231053 0.00517710563295 -0.00749646341839)
(0.782415190697 0.00155603980669 -0.0127806724379)
(0.811867360724 -0.000952319427663 -0.00260435504216)
(0.812730390234 -0.00214425648506 -0.00381619098913)
(0.776704101838 -0.00244615342803 -0.00197456867757)
(0.77530508439 -0.00257884685865 -0.00192757299692)
(0.773580153248 -0.00631289242895 -0.0074578588579)
(0.814449417086 -0.00290783844253 -0.00354403330855)
(0.815926149964 -0.00400292280714 -0.00275630664666)
(0.772444084817 -0.00792444513909 -0.00770378000296)
(0.770044455581 -0.00973591524291 -0.00413714318752)
(-0.168174869465 -0.0109590423758 -0.0115302265228)
(0.0249275112337 -0.0940481392568 -0.00366775879662)
(0.0295838497758 -0.0898277044885 -0.00643559983057)
(-0.0115077773094 -0.0401285140405 0.105766254785)
(-0.0620927187144 -0.00433975586776 0.111274758922)
(-0.0378942705115 -0.00608488693221 0.154926154466)
(-0.012279114155 -0.0666259543904 -0.00733538115162)
(-0.0660916834792 -0.0371742574292 -0.00307586291048)
(0.82323045118 0.00512121519188 -0.0132327065506)
(0.820547406916 0.00643309167323 -0.0153319728042)
(0.78325050926 0.00241478947647 -0.0122931264681)
(0.78217261402 0.00178196443486 -0.011749333538)
(0.820780891939 0.00510196600009 -0.0148373177558)
(0.783108074679 0.00249398566377 -0.011066923088)
(0.823072600325 0.00650452457666 -0.0135901438834)
(0.809868270602 -0.00277658330855 -0.0049053765985)
(0.810681398648 -0.00143714608332 -0.00180727149731)
(0.777129984325 -0.00208118627858 -0.00370351980541)
(0.776076798416 -0.000844929445871 -0.00139750524304)
(0.811067696206 -0.00237272311114 -0.00467935639749)
(0.809507852756 -0.00169506349969 -0.00168459454295)
(0.776291998644 -0.000974928204683 -0.00342003141313)
(0.808610122729 -0.0017834572246 -0.00624370765819)
(0.806996292484 0.000814999515814 -0.0019052168394)
(0.775792891332 -0.00111216923677 -0.00364346975144)
(0.775215388821 -0.00356491037422 -0.00523793758705)
(0.808094380175 -0.000675454029959 -0.00235565911315)
(0.775484223532 -0.0015929196058 -0.00630336604583)
(0.807702994562 -8.48422705148e-05 -0.00621213146251)
(0.809878284528 -0.00271441533647 -0.00695809119217)
(0.811095098163 -0.00194181473097 -0.00941042417309)
(0.774304445223 -0.00384890991785 -0.0080804132817)
(0.774509577435 -0.00509361096116 -0.0065426176149)
(0.811668893823 -0.00357219560787 -0.00909415734016)
(0.774954791817 -0.00279453422626 -0.00719070464026)
(0.809225457589 -0.000884415256274 -0.00713082164155)
(0.814596179959 -0.00462578715564 -0.00839751637786)
(0.812278858038 -0.0023441449379 -0.00882686965137)
(0.773025943238 -0.00542603844963 -0.00788185891113)
(0.77122470404 -0.00897836029089 -0.006998718538)
(0.812902560571 -0.0039098588171 -0.00855814420965)
(0.771740274343 -0.00662049495749 -0.00695999339955)
(0.814275053028 -0.00341254370563 -0.00861653609427)
(0.815610072485 -0.00492489240856 -0.00685303053035)
(0.815777625589 -0.00415525494526 -0.00535588490435)
(0.770283719358 -0.00813986735607 -0.00397045575299)
(0.770507379265 -0.00969009165807 -0.00599710497087)
(0.816183335619 -0.00507478322285 -0.00505627898952)
(0.770903783545 -0.00772768154847 -0.00605556654333)
(0.815267267405 -0.00388467657652 -0.00698226336645)
(0.791294421393 0.0117381498023 0.00131016402393)
(0.797658006507 0.0125714634496 -0.000188613421499)
(0.800583759434 0.0175828539599 -0.00050460099959)
(0.802033863593 0.0105230779936 -0.00100685370623)
(0.236399701416 0.0393183221264 0.00526840475302)
(0.355089528258 -0.00145161694733 0.0016766958097)
(0.284933064765 0.0185882492834 0.00233485153575)
(0.457316134905 0.0412599563249 0.000166371913688)
(0.433695895885 0.0977412269918 3.41545811501e-05)
(0.281504615439 -0.00464566238134 -0.344575600175)
(0.371367799293 -0.0456809082236 0.482084109449)
(0.186255142928 -0.012182544194 -0.309371155071)
(0.390174649704 -0.124139222936 0.110946735707)
(0.146860607049 -0.00943519560574 -0.292146765296)
(0.400821147587 -0.070269410889 -0.11789443704)
(0.787738622129 0.0025346591278 0.000575443898124)
(0.78920202704 0.00539774131976 0.000845495475767)
(0.785565672842 -0.000840759729508 -0.000306823796275)
(0.786320253586 0.00346956503472 -0.000689930660666)
(0.787405912245 0.00801131094248 0.0030616408044)
(0.784812781883 0.00444935759416 -7.66066775019e-06)
(0.791016442174 0.00823455813361 0.00120525494773)
(0.794102388724 0.00997279034958 0.00103912272028)
(0.787038807894 0.00401062757576 -0.00152077947913)
(0.78840630251 0.00586373913704 -0.000102207454828)
(0.790962934672 0.0152205385308 0.00381567815758)
(0.794806282311 0.0128975957689 0.000556670586567)
(0.795386948507 0.0168814843434 0.00163253819112)
(0.786128481988 0.00510137594342 -0.00138820649692)
(0.781219600676 0.0096297034658 -0.00116130271131)
(0.788233957166 0.0056272455006 9.91308161757e-06)
(0.785720733318 0.00613686473439 0.000283557881593)
(0.79772338461 0.0204563996278 0.00150714987413)
(0.799872696757 0.024617999369 0.00280372637727)
(0.780286812266 0.0113444396848 -0.00130922416878)
(0.782145693424 0.0148797821429 -0.00243208180551)
(0.784729423358 0.00691141076534 0.000657664309751)
(0.784632208001 0.00938480747752 0.000507004264103)
(0.798418986936 0.0151786844054 0.000451053846484)
(0.800154342951 0.0122873523196 0.000151768853129)
(0.787982504747 0.00501644462845 0.000595923333566)
(0.786351203075 0.00573861907623 0.00155354525905)
(0.787769845579 0.00816812508816 0.00328207667332)
(0.8023260861 0.019506924046 0.000119351099437)
(0.801598816222 0.0138368773136 -0.000407720156501)
(0.803247510262 0.0144449248917 1.78125210478e-05)
(0.785601626429 0.00644042689497 0.00204848733908)
(0.785357262818 0.00919975893107 0.00333713878558)
(0.787434029648 0.0085975326686 0.00340936456513)
(0.78636009409 0.0101855891661 0.00353729089978)
(0.78780043346 0.00996903616876 0.0029886377022)
(0.786709622973 0.0112854968569 0.00338518925972)
(0.226807971625 -0.0548396855225 0.00124992264723)
(0.223143272656 -0.00212473565219 0.00156115677073)
(0.271202132823 0.000789622679549 0.00523939054024)
(0.216828845925 -0.046293308358 -0.21225680451)
(0.333061611888 -0.0138554982055 -0.259298821666)
(0.235222840315 -0.0414027595662 -0.204919361027)
(0.356958111185 -0.0221823744038 -0.219325241722)
(0.327310484132 0.0298922250387 -0.165376911334)
(0.194162709988 0.0523975679326 -0.0532649393353)
(0.352400492465 -0.0218917575971 -0.114388583486)
(0.259085650503 -0.010686357359 -0.0717553500485)
(0.183413696593 0.0290274247083 -0.00115462799593)
(0.164521803345 0.00987111394797 -0.000649314397115)
(0.320017704212 0.0361970001346 0.00527857458797)
(0.252991892184 0.0193089452917 0.00435068736734)
(0.359457931885 0.025645528141 0.00568782849114)
(0.217536785487 -0.0435570232097 -0.122376541389)
(0.330337395565 -0.0380803193609 -0.138252503598)
(0.204722527804 -0.0272642209023 -0.140573126073)
(0.321220918333 -0.0214113408054 -0.168907973216)
(0.384143723961 -0.0162121950507 -0.0049392817046)
(0.44031023608 0.015151702695 0.00515566638348)
(0.50024759251 -0.000731853699934 -0.000909299765283)
(0.350902950424 -0.0518074431022 -0.0689672464277)
(0.308733208071 -0.0475099621786 -0.0281238877032)
(0.342391055196 -0.041142095652 -0.169779944896)
(0.318610797379 -0.0559477407745 -0.0710880519921)
(0.374062686811 0.0366303428845 0.00170111862884)
(0.371539229766 0.051905930974 0.000982393970923)
(0.194810965954 -0.0288613671658 -0.156465783784)
(0.27920566549 -0.0291749261502 -0.170841015465)
(0.275507558569 -0.0119411052149 -0.182591907538)
(0.51573698437 0.0358001461279 -0.0024928593566)
(0.452302835229 0.0660987082128 -0.000106507242935)
(0.512064531194 0.0627683380461 -0.00187040917614)
(0.351267029252 -0.0459038263586 -0.161623687278)
(0.353401880119 -0.0427970913552 -0.153570379956)
(0.35656714428 -0.0190974587339 -0.180691662556)
(0.36979823127 -0.0146378564931 -0.150031306014)
(0.79348676573 0.00279227400898 0.000359647586968)
(0.792536529303 0.0020658665596 0.00115281105067)
(0.786586488438 -0.000885400691002 -0.000336924801737)
(0.785619881089 0.00103658803235 -0.000402569797315)
(0.792971076288 0.00372685536556 0.00101826275247)
(0.786674786856 0.000992580157561 -0.000448107923525)
(0.793107624687 0.00177883487873 0.000374971096723)
(0.794160205878 0.00398422584072 0.000457702338474)
(0.794412404631 0.00637004067606 0.000990122679156)
(0.785992764216 0.00183118020668 -0.000495717654892)
(0.787323220375 0.00321454733151 -0.000633568871715)
(0.79351638226 0.00517699268052 0.00090511245572)
(0.794837185585 0.0054406977963 0.00022389643811)
(0.786938165824 0.00170652270913 -0.000509094992037)
(0.792328657672 0.00711869460934 0.00311020014087)
(0.793788528268 0.00742354528039 0.00132428298011)
(0.784040005336 0.00263984950855 -9.29144453089e-06)
(0.782963912734 0.00542183347712 0.00119723614975)
(0.792574266922 0.00570465709408 0.00201362107991)
(0.793553072595 0.00844748852736 0.00338058212812)
(0.781987553262 0.00331243998525 0.00116183190966)
(0.796448689065 0.00776339249211 -0.000330363319781)
(0.795231176082 0.00772501767508 3.85721488402e-05)
(0.787826930316 0.00361755597662 -0.000909150674659)
(0.788034715387 0.00536652832485 -0.0011952512176)
(0.795605227849 0.00666571337253 -0.000382590751384)
(0.796376622014 0.00889164448965 5.3237915658e-05)
(0.788169858088 0.00498440764003 -0.000805195902162)
(0.797681543124 0.00893603703446 -0.000658330034286)
(0.798934177949 0.0108374169941 0.000407291442766)
(0.788248548964 0.00519322777631 -0.000800980255727)
(0.788360672789 0.0058205899793 -0.000143062850526)
(0.797702412884 0.0102260168881 -0.000131747132402)
(0.798763427627 0.00963205391365 -0.000329215093922)
(0.788304328969 0.00502635171078 -0.000729279016435)
(0.79580821373 0.0117392994375 -5.12226683287e-05)
(0.794843694088 0.00897995452785 -0.000413872773379)
(0.784420210715 0.00605995672708 -0.001473662272)
(0.787023795967 0.0055956423919 -0.00159723924407)
(0.79456083002 0.0099950728762 0.000546736756804)
(0.795852303405 0.0104022385481 -0.000693151887689)
(0.785414022023 0.00622104825174 -0.00220920928471)
(0.795572430987 0.0133697538623 -0.000869013004642)
(0.793380821972 0.0131799774955 0.000678602742351)
(0.782527763214 0.00775862637897 -0.000582679627393)
(0.782963254547 0.00847397823597 -0.00140212997014)
(0.793960464542 0.0112203770929 0.000218541939797)
(0.795624152999 0.0152653295304 0.00013390844236)
(0.783961956877 0.0072339122161 -0.00174728782748)
(0.797476237129 0.0132247692912 -0.000511916248851)
(0.798904275585 0.0123077732688 -4.11982569455e-05)
(0.787657088424 0.00513483176322 -0.00112444343945)
(0.787491901747 0.00563850366824 0.000228111508797)
(0.797481479209 0.0117289994454 -0.0010990436306)
(0.798933700668 0.0136990641046 0.000839775629717)
(0.786542774913 0.00578762664123 -0.00136753124333)
(0.797488823341 0.0148609724667 -0.00126482961846)
(0.799271012222 0.0169925721481 0.000561799139488)
(0.784362960404 0.00770330844992 -0.00128538572502)
(0.786373713546 0.00573468981907 0.000113553751017)
(0.797387250864 0.0166880716194 -0.000838822370615)
(0.79898411616 0.0152963207529 9.26112305628e-05)
(0.785428970442 0.00663712367289 -0.00121648836687)
(0.796857682242 0.0199530622065 -0.000141980002469)
(0.793516412568 0.0155057335453 -0.000331846568452)
(0.780441281566 0.0128335897663 -0.00201101778904)
(0.781694561945 0.0100691073387 -0.000627564298213)
(0.79421503521 0.0184257318699 -7.35546287378e-05)
(0.796264388595 0.0174314390948 -0.000639929837011)
(0.781458688755 0.0113679593365 -0.00127034828584)
(0.798770385997 0.0219238059857 -0.00121864012721)
(0.799421755658 0.0227882003833 0.000493356378462)
(0.780930260361 0.0140789192414 -0.0024402068283)
(0.78289621091 0.0129009775371 -0.00209588896016)
(0.79656383503 0.0207399360403 -0.000651980818272)
(0.781711592853 0.0121948413682 -0.0017352765512)
(0.801090155074 0.023443730002 -0.000163334216495)
(0.798856619989 0.0203589150318 -0.000985801383156)
(0.799913699977 0.0184907830386 0.000155786481437)
(0.783439013275 0.00908381267102 -0.000732471188507)
(0.784181683507 0.00778125326058 0.00082641967993)
(0.798347047074 0.0184047478856 -0.00111799728018)
(0.800563544559 0.0201819896339 0.000343895987337)
(0.782842193457 0.0103441354467 -0.000630165133319)
(0.800581883614 0.022033850473 -0.00156155901272)
(0.803384775931 0.0224514549945 -7.03894123857e-05)
(0.783762715346 0.0119861896139 -0.00176414867209)
(0.784119733276 0.00870184500443 0.00111339222421)
(0.801898459801 0.0215336124846 -6.98438302968e-05)
(0.782906877613 0.011389857953 -0.000847143759111)
(0.802578513714 0.0233027363267 -0.00166610186762)
(0.801703031218 0.0129686743632 0.00194426635995)
(0.800247882945 0.0124481108958 0.000495341267321)
(0.787418700404 0.00511899706531 0.0010257838923)
(0.788203426195 0.00589818043288 0.00125930603816)
(0.800521331989 0.0136719745842 0.00120958159109)
(0.801360733196 0.0119213229976 0.00106940810605)
(0.787851151259 0.00615305256513 0.00188782685281)
(0.801779022286 0.0140881820153 0.00149862009268)
(0.800917558635 0.0165975305506 0.00117755009573)
(0.78676600228 0.00540017208514 0.00142007629127)
(0.786925740734 0.00660355736096 0.00246744879731)
(0.800607897486 0.0151988104978 0.00077713594933)
(0.802057207786 0.0152183077307 0.00198505903366)
(0.787177307718 0.00630946322033 0.00229853207796)
(0.802652756078 0.0126100653682 0.00206350516782)
(0.803554371079 0.0116972015825 0.00264843554156)
(0.787384940909 0.00728470100039 0.00291436965248)
(0.787907205077 0.00779994772141 0.00307126745159)
(0.802902670458 0.0134680332556 0.00245481242621)
(0.803363290348 0.0110796221747 0.00227764117058)
(0.787458134624 0.00676056165856 0.00267321753163)
(0.802882203629 0.0170657881669 0.00211655845569)
(0.801387758786 0.0178665312579 0.000919297257001)
(0.785117275243 0.00737742252172 0.00248883525623)
(0.786339216723 0.00707800505703 0.00275108810326)
(0.802003741299 0.0191264395862 0.00124934718521)
(0.802360061822 0.0162016301443 0.00154248696416)
(0.78594889245 0.0078063927507 0.00318857520481)
(0.803570277289 0.0177227856097 0.00188718196682)
(0.804188441744 0.0206955633038 0.001518237013)
(0.784838377218 0.00819791206613 0.00301341998249)
(0.78587425575 0.00928243621745 0.00405444777948)
(0.80300162607 0.0200653961086 0.00119285211597)
(0.78567367729 0.00856471833243 0.00365544796967)
(0.8044542892 0.0180479006987 0.00240566986213)
(0.803489892074 0.0149816736448 0.00233247963457)
(0.803567395876 0.0124324923466 0.00233941379366)
(0.786999437682 0.00792241383151 0.00319271347824)
(0.787091614277 0.00907677432516 0.00321352893815)
(0.803051551805 0.0143316787053 0.00217145765768)
(0.803929400737 0.012924331584 0.00236190085318)
(0.786581444069 0.0087216002091 0.00320096593739)
(0.803974658431 0.0154874897372 0.00205548178219)
(0.804891500435 0.0135298756691 0.00223622628619)
(0.786009049038 0.0101402938658 0.00378531815067)
(0.786614412452 0.00949811534265 0.00334887415233)
(0.804325152765 0.0133967533904 0.00199980852044)
(0.786129249728 0.00948155205712 0.00346490991265)
(0.804736221432 0.0156672558215 0.00239737625369)
(0.80445300995 0.00907025467595 0.00155690192583)
(0.80391055208 0.0104108532928 0.00226220229323)
(0.787474904832 0.0103602570445 0.00297949908136)
(0.788056460372 0.0105184344829 0.0026363617611)
(0.804229496292 0.0108183762568 0.00220299175956)
(0.80427644058 0.0086656518009 0.00163983597575)
(0.787601422793 0.0107716720257 0.00257118704816)
(0.805017510344 0.0114197396323 0.00204777280893)
(0.786950708598 0.0108333602802 0.00308601863846)
(0.804520956551 0.0112496409064 0.00189159434835)
(0.816560242876 0.00327691885134 -0.00093446292029)
(0.818079504778 0.00123286868506 -0.00053440952495)
(0.818093844613 -0.000946711408937 -0.000398761089968)
(0.81480386176 -0.00388471824632 -0.000399799593309)
(0.81013115521 -0.00529664828277 -0.000190877539544)
(0.823228633659 -0.0419890420444 3.04903957435e-05)
(0.817283818224 0.00331153135561 -0.00173524489409)
(0.8185034799 0.00143254865749 -0.000426978626657)
(0.818322064225 -0.000517385845502 -1.46992741836e-05)
(0.815051340372 -0.00405109882188 0.000198575802116)
(0.810658641729 -0.00569226882958 0.00171140608607)
(0.824517865272 -0.0438744476658 0.00255417572361)
(0.815894402566 0.00582546842398 -0.000637543076474)
(0.812650991971 0.0059998296542 0.000119602586214)
(0.791792017698 0.00992754105194 0.00190814860227)
(0.788672437558 0.0098555790305 0.00132418739387)
(0.786490413594 0.0106246317762 0.00344757595136)
(0.78169191075 0.00739875606321 0.00742779688889)
(0.785655014563 0.00656946155287 0.00625215441602)
(0.743008017258 -0.0291855277922 0.0254432139974)
(0.825587030782 0.00483779643862 0.000288154485919)
(0.823652741014 0.00276025707601 -5.03797140429e-07)
(0.821553972121 -0.0005584457184 -0.000849221321591)
(0.819374175065 -0.00292466226351 -0.00245385389094)
(0.819381083324 -0.00509211252545 -0.00307429227393)
(0.818763281938 -0.0090208268518 -1.36588103845e-05)
(0.813043232997 -0.00729020282502 0.00372314587096)
(0.816489628102 -0.0741718025823 0.0107485323449)
(0.819518905132 0.00526683943664 -0.00121814090931)
(0.822576939938 0.00316967433171 -0.000863134337005)
(0.82273260377 0.00201883915323 -0.001153961445)
(0.821764091392 0.000382984547174 -0.00148330064009)
(0.820634482612 -0.00146810603714 -0.00148185362455)
(0.820641448303 -0.00571398630122 2.2305465089e-05)
(0.814078353054 -0.00726216363347 0.00210798361653)
(0.822289523894 -0.0594695568563 0.00458545447088)
(0.815968465109 0.00635098011367 -0.00104484878917)
(0.819127863881 0.00258730173136 -0.000597004050334)
(0.819920775012 0.000250396756003 -0.000593631629701)
(0.819631719827 -0.00202518251593 -0.000729333489185)
(0.818194643806 -0.00309448818366 -0.000982323806052)
(0.818245706867 -0.00613488633806 -0.000555662222899)
(0.812560840535 -0.00771799104885 0.000497374065772)
(0.823618168331 -0.062402967117 0.00154485469351)
(0.816367292645 -0.00190506938377 -0.000435105083961)
(0.816203836178 -0.00447626065242 -0.000232672100841)
(0.811254803469 -0.00603442540492 8.05310882214e-05)
(0.824852599102 -0.0481184903156 0.000355448725287)
(0.638695882815 0.0419797739013 0.00917748810239)
(0.637243662458 0.0394647301377 0.0134023068478)
(0.649769311401 0.0227959191715 0.0167696864974)
(0.649771634113 0.0198735063336 0.0166511780946)
(0.650585003435 0.0210536270639 0.0194392204683)
(0.649582452475 0.0174116991715 0.0262678424975)
(0.694856808943 0.018954892902 0.024905943271)
(0.550417518515 -0.0666727165043 0.0461785099814)
(0.772930992158 0.0133030473311 0.00563897536133)
(0.770167143316 0.00859602367859 0.00710822747248)
(0.778986342107 0.00103702336611 0.0111700888678)
(0.776273603132 -0.000913973236613 0.0126908659173)
(0.776806672685 -0.0020973843249 0.015304192226)
(0.781891826047 -0.00799807320605 0.0174132726768)
(0.792921016337 -0.00283634674879 0.0209109650605)
(0.793068510705 -0.12748263756 0.0280222573424)
(0.820954245391 0.00591157358212 -0.00221737300424)
(0.823014526167 0.00384137670255 -0.00164596897762)
(0.822776422158 0.00294913401388 0.000238682732005)
(0.821623768913 0.00276351439076 0.000720341049359)
(0.821342777158 0.00165439217051 0.001275058443)
(0.822925656489 -0.00328538112586 0.00146550971481)
(0.81797005366 -0.00663226356261 0.00541020470078)
(0.836101974147 -0.0834608137248 0.00957902202575)
(0.816468800469 0.00602701472402 -0.00248184829107)
(0.819775115953 0.00303312701054 -0.0015813274553)
(0.820039344864 0.000985216594815 1.16009455427e-05)
(0.819575869416 -0.00156231393958 0.000384291265729)
(0.818380567377 -0.00341256552457 0.000596630259512)
(0.819335142318 -0.0071935745356 0.00154374869331)
(0.81452106215 -0.00902725674243 0.00413129608876)
(0.82899866413 -0.0709331721224 0.00618936691823)
(0.816478472561 -0.00162200920657 3.24584339791e-05)
(0.816817281726 -0.00427947811761 0.000579886733468)
(0.811907856123 -0.0063789677709 0.00242556109622)
(0.82703401704 -0.0543522668689 0.00353468763028)
(0.634199580401 -0.0153916301039 0.0150643504055)
(0.631980507545 -0.0159564474461 0.0168975662741)
(0.642742989635 -0.0214818882091 0.0216421773787)
(0.639744732376 -0.0213151764346 0.0227851665692)
(0.640894157698 -0.0218184025789 0.0252949361277)
(0.641886413984 -0.022293307833 0.025546518199)
(0.693510941982 -0.0114235505202 0.0284494228897)
(0.558520434012 -0.150779951451 -0.00150583539987)
(0.733588562148 0.00569991870555 0.0187568584738)
(0.734979209094 -0.000766217454421 0.0198011980081)
(0.789042222886 -0.00284589480849 0.00898341682725)
(0.785866977186 -0.00298408567336 0.0104060255808)
(0.784190424733 -0.00540143006199 0.0110642136097)
(0.788559403591 -0.00859908798379 0.00937454703997)
(0.801867797384 -0.00344140002226 0.00727316713396)
(0.817107526973 -0.13709481448 0.000764090678)
(0.821829105146 0.00488963989675 -0.0052999526405)
(0.825617994544 0.00345107515204 -0.00373153202483)
(0.825195009926 -9.61873899505e-05 -0.00132109771746)
(0.822603261693 -0.00254244045513 0.000178229539614)
(0.821332682399 -0.0044324147145 0.000327282312292)
(0.824650569734 -0.00839855636538 -0.000493966891324)
(0.821460290731 -0.0121942047267 -0.00137084347463)
(0.851228700349 -0.102706306256 -0.00267919756231)
(0.810679182218 0.00939973856965 -0.00462332019066)
(0.817349868614 0.00601637037133 -0.00558068039402)
(0.821572279762 0.00243670268164 -0.00368529283163)
(0.822003928727 -3.59740148893e-05 -0.000951662947949)
(0.820963847215 -0.00243242540485 0.000390457348443)
(0.818889143469 -0.00469780338458 0.000230289525807)