/*--------------------------------*- C++ -*----------------------------------*\
| =========                 |                                                 |
| \\      /  F ield         | OpenFOAM: The Open Source CFD Toolbox           |
|  \\    /   O peration     | Version:  v1906                                 |
|   \\  /    A nd           | Web:      www.OpenFOAM.com                      |
|    \\/     M anipulation  |                                                 |
\*---------------------------------------------------------------------------*/
FoamFile
{
    version     2.0;
    format      ascii;
    class       volScalarField;
    location    "0.45";
    object      alpha.water;
}
// * * * * * * * * * * * * * * * * * * * * * * * * * * * * * * * * * * * * * //

dimensions      [0 0 0 0 0 0 0];


internalField   nonuniform List<scalar> 
28582
(
1.0000000216
1.0000001286
1.00000016127
1.00000022131
1.00000003763
1.00000005835
0.999999804497
0.999999837879
0.00223999773941
0.00317311435276
1.10772891607e-10
0.999999857988
0.993346759784
0.987528060825
1.00000013262
0.9999999419
0.986386905055
0.999999052005
1
1.00000001499
1.0000005705
1.00000054286
1.00000004773
1.00000044111
1.00000041728
0.999999947891
1.00000007982
0.999999787034
0.999999959541
0.0022817585469
4.45081589388e-10
2.64909052101e-10
0.999999582812
0.999999500767
0.99052211601
0.988294763492
0.999999899379
1.00000017902
1.0000000645
0.99999969136
1.00000093334
0.98742389971
1.00000027164
0.999998175676
0.00265054460135
0.00326566811473
3.52946138359e-08
1.48631675404e-07
0.00331898586082
5.46897412972e-09
0.999997726706
0.999998871343
0.995502429483
0.995376508687
0.999998112132
0.99164000645
0.999997839946
0.999996064967
0.999998612056
0.993055367021
0.994435201916
0.999997943141
0.98997339682
0.999996000707
0.999999849477
0.999997796991
0.992637846017
0.99178881911
0.999997459053
0.985177254488
1.00000010505
1
0.987635121818
0.993441831963
0.999997834708
0.991755254582
0.984532565421
1.00000128098
1
0.993691742286
0.988115557313
0.999999062322
0.991803289747
1.00000131202
0.985301680363
0.00180233205206
1.92493514436e-09
0.00275437984374
0.00276143119271
3.59998859928e-09
1.48536493191e-10
0.00179115675465
1.09904132197e-07
5.44022780577e-09
0.00131333737267
6.60476968703e-08
0.00208784092337
3.01063182516e-08
0.999998575706
0.999998921553
0.993084542108
0.995297381348
0.999998077078
0.999998313256
0.991854253347
0.999996706412
0.99999928315
0.991378378458
0.994979060581
0.999996401407
0.999999074363
0.991226965784
0.996369810912
0.993067872288
1
0.999999783311
0.995186541239
1.00000195887
0.993266531823
0.999997941048
0.98746099354
0.992925169898
1
0.993638355385
1
0.988656644141
0.999997652823
0.999997927351
0.99160805761
0.99363663026
0.99999573684
0.999996628929
0.988904573899
0.999996962826
0.999998001937
0.993558621126
0.988693643469
0.994895991595
0.999998014591
0.99095363347
0.993429916859
0.991397803404
0.999996206479
0.99999774264
0.994238218302
0.99999815221
0.991627341449
1.00000006412
0.999999458387
0.0022100106622
3.47287668168e-10
0.999999751732
0.992610700493
0.999998966195
0.9999993374
0.986463039498
0.991995428581
0.986513563134
0.999999495353
0.999999664867
0.987739387234
0.984157557531
0.00232928685637
0.00167937650132
0.00190078108822
1.73891076414e-09
9.35369802165e-08
8.62350326382e-10
0.00191696313324
0.00178491973599
0.999999311581
0.999999097986
0.992610443584
0.995770132001
0.999996694475
0.988544258664
0.999993886778
0.999998412046
0.999994884452
0.991522085286
0.990715725973
0.999997923321
0.999995503982
0.984624150635
0.99999536692
0.99999200318
0.990681039437
0.994132209827
1.0000004695
0.987738433503
0.999992538806
0.99999915659
0.999991943976
0.991465542062
0.990507677053
0.999999379253
0.987938517723
0.999994450871
0.999998672615
0.999993593163
0.987624970505
0.991584473677
0.999998681769
0.984684883787
0.999993540998
0.999998359262
0.999988504959
0.989398822663
0.987201015301
0.999999691255
0.98659549472
0.999992332853
1.00000009305
0.999999786379
0.999999989522
0.9999999217
0.00471750663719
0.00596888618876
0.00251461766681
0.00331018347301
0.00247154423416
7.09298351726e-10
1.94352571258e-12
9.83694489685e-10
1.39239335249e-09
1.11225597574e-09
8.37967332581e-10
1.0000003158
1.00000021325
0.996879908995
0.996052198046
1.00000007204
0.997214702599
1.0000000996
1.00000000271
0.995242218113
0.997113354442
1
0.999999719732
0.999999913568
0.997056244393
0.997826233203
0.998812545751
0.999536538537
1.00000036874
1.00000041586
0.998364270197
0.998960754903
0.999585508888
0.998620091539
1.00000001073
0.999999825256
0.997356776469
0.998054081007
0.997130059425
1.00000007518
0.99999999555
1.00000005771
0.997476950578
0.995568942185
0.9971018142
0.994691234799
0.996499825055
0.993448114005
0.0048011537142
0.0043659453087
0.00558759716817
9.55422480217e-07
1.33284990816e-08
2.84355507421e-09
7.62794757984e-10
4.00048600119e-10
1.11848864887e-09
8.22428780015e-09
1.43891868222e-08
0.00451631721498
0.00329438238424
0.00574469594133
0.00330658590881
0.00335792793516
4.61274489129e-07
6.27235116008e-08
4.4483684109e-07
3.17619494813e-08
0.00577289207076
0.00407831446687
0.00385845692619
1.14989621821e-08
2.68904134036e-07
6.46397103911e-07
7.57882856015e-09
0.00290325698063
0.00177497882842
1.89555146564e-07
3.7873611084e-07
1.21036733668e-09
0.00306693319389
0.00240931385794
0.00247674420246
4.71556217847e-09
3.0478439966e-07
2.5348834804e-07
4.09652019627e-09
1.00000000308
0.999999148748
0.995552504438
0.998207018477
0.999999714258
0.996994867253
1.00000008769
0.99999928448
0.999998861532
0.997082860566
0.995482913671
1.0000001778
0.999999008667
0.995933968662
1.00000040147
1.00000043071
0.99732707477
0.997441629177
0.999998732732
1.00000148289
0.998228163965
0.999999045439
0.999999851147
0.994233506285
0.997200417395
0.999999841706
0.999999717926
0.996391088932
1.00000007436
0.999999504216
0.997755865594
0.996464414469
0.999999258015
0.999999727324
0.995505976009
1.00000119118
0.999999621698
0.997087706485
0.997543551448
1.00000152169
1.00000069256
0.998408746774
1.00000137849
1.00000233275
0.997120190411
0.999321764578
1.00000285687
1.00000328865
0.999170034269
1.00000045882
0.999999193683
0.998097039379
0.999448955418
1.00000102472
1.00000007019
0.998665905777
1.00000102769
1.00000124675
0.998775888684
0.999446627486
1.00000117022
1.00000092091
0.998977055577
1.00000197366
1.00000118827
0.99834955873
0.999457248478
1.00000146361
1.0000038098
0.999798862404
1.00000088839
1.00000236607
0.998564995153
0.999830639925
1.00000218704
0.999901407438
1.00000256672
1.00000161653
1.00000127323
0.998719624261
0.999293135573
1.00000143466
1.0000012641
0.998902595875
1.0000021074
1.00000197128
0.997990861759
0.998831761518
1.00000190114
0.998718807026
1.00000220689
0.999999572296
1.00000069208
0.998223918508
0.99894191323
0.999999991191
0.999999202858
0.998979713981
0.999999527058
0.999999536564
0.99822111061
0.998704067037
0.999998455216
0.99999948483
0.998997030582
0.999998620204
1.00000004166
0.997707002272
0.998860175279
0.99999965777
0.999999461786
0.998222220796
1.00000039271
0.99999981339
0.996577332454
0.998065926326
0.99999978135
0.999999543962
0.997224797607
1.00000025254
1.00000113872
0.995277710032
0.99852604537
1.00000066942
0.997534863223
1.00000182537
1.00000012471
1.00000052093
0.99620340859
0.997818447242
0.999999355337
1.00000000032
0.995739974822
1
1.00000191746
0.996671279446
0.997023152807
1.00000132875
0.995348587255
1.00000147246
0.999999726568
0.999998793378
0.996223509607
0.997456096602
0.999998787584
0.999998419485
0.994551143149
0.999999506847
0.994658470685
0.99999968421
1.00000019405
1.00000018033
1.00000012182
1.00000053454
1.00000047944
1.00000041295
1.00000003202
1.00000005535
1.00000004232
1.00000037117
1.00000028513
1.00000015114
0.999997334413
0.999999253967
0.999999637665
0.999999990257
1.00000015037
1.00000026708
1.00000030019
1.00000028923
0.999995298083
0.999997687979
0.99999955184
0.999999937395
1.00000003213
1.00000007325
1.00000008809
1.0000000413
0.999999905246
0.999999870827
0.999999812471
0.999999924278
1
1.00000002772
1.00000003779
1.00000001966
0.999999886886
0.999999854906
0.999999935146
0.999999990399
0.999999975421
1.00000002491
1.00000002836
1.00000001746
1.00000013424
1.00000011942
1.00000009037
1.00000002333
0.999997993289
0.999999087565
0.999999486767
0.999999875754
1.00000005161
1.00000015053
1.00000007717
1.00000005508
0.99999660013
0.999998493745
0.999999499221
0.999999898218
0.999999993227
1.00000000885
1.00000003887
1.00000000134
0.999999765369
0.999999805033
0.999999810652
0.999999912585
0.999999980161
1.00000000281
1.00000000358
1.00000000119
0.999999839943
0.999999824351
0.999999929777
0.999999965345
1.00000001473
1.00000002886
1.00000002852
1.00000005749
1.00000002479
1.00000003491
1.00000003707
1.00000008631
0.999998744064
0.999999604136
0.999999536297
0.999999529157
0.999999761109
0.999999798055
0.999999826562
1.00000002663
0.999999014396
0.999998952691
0.999999497624
0.99999985063
0.999999953049
0.999999984937
0.999999926177
0.99999994303
0.99999984128
0.999999895883
0.999999894556
0.999999978366
1.00000001674
1.00000001719
1.00000001602
1.00000008543
0.999999995704
0.999999893302
0.999999979027
1.00000001874
1.00000003122
1.0000000396
1.0000000598
1.0000001125
1.00000018976
0.99999993175
1.00000002009
1.00000002936
1.00000006779
1.00000007316
1.00000012852
1.0000001992
1.00000003387
1.00000004719
1.00000005867
0.99999985035
0.999999645068
0.999999580286
0.99999778291
0.999998896613
0.999999293922
0.999999094547
0.999999531019
1.0000007345
0.999999770651
0.999999972584
0.999999221329
0.999999774133
0.999999633213
0.999999663238
0.99999965941
0.999999935276
1.00000016534
1.00000010431
0.999999923261
0.999999797566
0.999999825911
0.999999776406
0.999999753625
0.999999759127
0.999999829747
0.999999848875
0.999999948025
0.999999963093
0.999999993935
0.999999936394
0.999999890352
0.999999863699
0.999999807303
0.99999985114
0.999999986444
0.999999604971
0.999999980425
0.999999938719
0.999999950088
0.99999986226
0.999999792285
0.999999827319
0.999999441276
0.999999527514
0.999999541236
0.00103382002104
0.00155187567127
0.00168142353355
0.00149698449963
0.00197497469716
0.00208925975252
0.00227340440624
0.00284556533649
0.0044354135342
0.00186236111574
0.000987960609436
0.00115308338947
0.00141217206017
0.002262859041
0.00276308756732
0.00260381659963
0.00210180640614
0.00268076211707
0.00274050274642
0.00249327781671
0.00254803352345
0.00263170608159
0.00269455274033
0.00284085937984
0.00302335713279
0.00312047067957
0.00316355125683
0.00416847459833
0.00293456042332
0.00294097028051
0.00289161800744
0.00293087692112
0.00293539991272
0.00304245275085
0.00313501742795
0.00335813158898
0.00461390874398
0.00276160985177
0.00294169480903
0.00283483661358
0.00294548921338
0.00292982521828
0.00301615309393
0.00422505540563
0.00217602394416
0.00216218603316
0.00290201866077
1.58357864584e-09
3.44727643754e-10
2.31804797838e-10
1.51665703411e-10
1.89958321206e-10
2.57524358097e-10
1.89502985978e-10
5.27483528256e-10
4.46397909685e-10
7.38507968061e-09
1.56819112587e-09
6.40686546373e-10
3.61243675236e-10
2.24208526493e-10
1.36107125336e-10
2.82188179433e-10
5.21452568558e-10
2.65179255679e-10
5.52767776531e-10
9.81137036716e-09
6.11549293788e-10
9.52371177957e-10
6.71233681144e-10
5.89441881255e-10
6.21505779128e-10
6.04926335506e-10
5.63968183798e-10
4.45886449116e-10
5.85884363249e-10
1.96083570543e-08
7.18087084273e-10
3.39331084492e-10
7.65297868474e-10
7.14176573568e-10
5.86398248336e-10
5.19138273814e-10
4.26895762846e-10
6.28921194028e-10
2.23885157951e-08
3.90830983521e-10
3.22921291823e-10
4.1395691208e-10
4.88723085977e-10
4.61566315678e-10
5.33125033914e-10
1.50807620254e-08
3.95160630871e-10
4.47832616045e-10
8.38268289022e-09
0.999998163278
0.999995237046
0.999995585704
0.999996352626
0.99999827081
0.999995947495
0.999996446764
0.99999881204
0.999995943054
0.999997554518
0.99999723672
0.999998218683
0.999996900016
0.999998226138
0.999995615987
0.999997681809
0.999998656551
0.999995014759
0.999996165142
0.999997651668
0.999998399498
0.999998098467
0.999998513308
0.999998832544
0.999996807934
0.999998043232
0.999998859877
0.99999911097
0.999998098774
0.999996404646
0.999997757072
0.999997656772
0.999999080443
0.999997359346
0.999998725566
0.999998871046
0.999997490709
0.999998144676
0.999998587484
0.999998749453
0.999998880916
0.999998637277
0.999997362416
0.999997804313
0.999998874406
0.999997227511
0.999998467646
0.999998525945
0.999998954361
0.999998472202
0.999998829745
0.999999001431
0.999998367715
0.999998493041
0.999999319252
0.999999243111
0.999999099899
0.999998451884
0.999998934106
0.999998783576
0.99999925281
0.99999928736
0.999999492535
0.99999935816
0.999998924997
0.999998659482
0.999999393848
0.999999204883
0.999999462669
0.999999158668
0.999998643927
0.999999107938
0.999999468634
0.999999225849
0.999999433637
0.99999919232
0.999999760792
0.999998666825
0.99999946445
0.999999537076
0.999999339336
0.999998926116
0.999999805947
0.99999989778
1.00000019439
0.999999515517
0.981641332703
0.984523143573
0.999999413982
0.999999176796
0.999999093028
0.985576601104
0.982835736213
0.98706459229
0.986703236044
0.999999494938
0.999999319475
0.999999169306
0.984553278222
0.986109157313
0.990036141633
0.990110681157
0.999999203343
0.999998662376
0.99999698616
0.986429206523
0.988386903143
0.991874078054
0.988429588588
0.99999794565
0.999998727464
0.999998550831
0.989512582262
0.987705681882
0.989029288375
0.984983285805
0.999998994707
0.999999189554
0.999998331282
0.988253590442
0.984589716896
0.985235226953
0.983161136829
0.99999705587
0.99999923501
0.999998870971
0.985753182774
0.980480715473
0.983544290916
0.98229200299
0.999998740559
0.999997550793
0.999998123029
0.982221046289
0.975268537865
0.984889667084
0.978228725797
0.999999507923
0.999998210412
0.999997773399
0.978598707046
0.963398144669
0.982725074972
0.967887913996
1.00000066754
0.999999948333
0.998155601888
0.987655142487
0.998238551262
0.990553332091
1.00000068515
1.00000096336
0.999999838021
0.983303388044
0.985027205395
0.988319252538
0.985554642091
0.999999726624
0.999999815951
0.999998878621
0.986786297405
0.986743729372
0.98558971907
0.985948339313
0.999999839251
0.999999886847
0.99999911187
0.988992858777
0.989413487646
0.986204690872
0.986874008543
0.999999541619
0.999999803147
0.999998849882
0.990549307617
0.988670149092
0.986894738154
0.985714157618
0.999999875507
0.999999805931
0.999998828505
0.988084474193
0.984811415126
0.985523649562
0.984191504162
0.999999893826
1.00000013144
0.999998772349
0.984113543306
0.98257822659
0.98378398329
0.981966996314
0.99999982064
0.999999924447
0.999998530603
0.982379390954
0.981101467043
0.981836766152
0.979339181451
0.999999176968
0.999999481207
0.999998027798
0.983567493262
0.977783462398
0.980169245558
0.974543705389
0.999999801272
0.999999203566
0.999997044727
0.982118675441
0.967026571164
0.977005511393
0.960780118542
1.00000076709
1.00000024685
0.999999974613
0.994784805785
0.990619616431
0.993954148983
0.991095360864
1.00000069313
1.00000095132
0.999999447324
0.988409445422
0.985931363006
0.989868990192
0.987733998146
1.00000071917
1.00000074391
0.999999319137
0.985090914112
0.985839226864
0.987134632909
0.986791292654
1.00000050389
1.00000074753
0.999999358981
0.98537033633
0.986630562206
0.98633878491
0.986408106358
1.0000004435
1.00000057785
0.99999932365
0.986008498662
0.985891420005
0.986125761189
0.985968248808
1.00000036147
1.00000045666
0.999999112666
0.985051733365
0.98451598585
0.985630525737
0.984377939273
1.00000031323
1.00000033601
0.999998834488
0.983577334875
0.982080661258
0.984042085887
0.981952815433
1.00000024527
1.00000017604
0.99999852705
0.981386024984
0.978720371573
0.981732131774
0.978368462202
1.00000036032
1.00000027276
0.999998319444
0.979002499641
0.973075315911
0.978689751039
0.972372986391
0.999998954096
1.00000096349
0.999998001735
0.975073374042
0.95840115854
0.973857647598
0.956997984676
0.992684542958
0.991486296311
1.00000064817
0.999999721908
0.989907121721
0.988517379119
0.988387660103
1.00000092099
1.00000015775
0.999999293718
0.987643745608
0.987516724337
0.987461807227
0.98793247678
1.00000082038
1.00000038819
0.999999620925
0.986484152925
0.986689271689
0.987911853852
0.987669036623
1.00000060322
1.00000074344
0.999999248146
0.985926745086
0.986479427443
0.987081790849
0.98633083573
1.00000046626
1.00000057447
0.999999216695
0.985654315935
0.984886090736
0.986168267172
0.984945713857
1.00000033746
1.00000062174
0.999999017311
0.984071970498
0.982322400485
0.984625590049
0.982553249853
1.00000037644
1.00000032691
0.999998609221
0.981705833677
0.978465935412
0.982466276112
0.978982064432
1.000001166
1.00000034485
0.999998285647
0.978649704443
0.971985796716
0.979465761196
0.972782650129
0.999999517181
1.00000122058
0.999998115024
0.973437204619
0.95633409857
0.974366759292
0.957274357838
1.00000032365
0.999999196141
0.987888368118
0.98864232629
0.988112634621
1.00000070833
1.00000013559
0.999999837745
0.987530153719
0.986511104061
0.98756328794
0.987864896952
1.00000064268
1.00000011243
0.99999848984
0.985917493043
0.985147097139
0.988194330159
0.986450877328
1.00000057846
0.999999759528
0.999999369857
0.984282658424
0.982970277599
0.986206861505
0.983920100699
1.00000025793
0.999999937829
0.999998643697
0.982360538585
0.9794692635
0.984274261545
0.981097960255
1.00000076342
0.999999629761
0.999998285743
0.97988258416
0.972956224321
0.982850537151
0.97568086941
0.999999135246
1.00000017889
0.999997902484
0.974596135702
0.956960014793
0.978388689608
0.961613624674
0.999998839995
0.985242970175
0.999998598867
0.985251275365
0.982141897141
0.999999270437
0.984555247189
0.976651390196
0.999998171805
0.980455210667
0.963391748346
1.95679700534e-08
4.42615786924e-07
9.3862499327e-08
4.76015156989e-07
0.000801203907491
0.000829893288693
1.39990270461e-08
6.93554136742e-08
6.09794838696e-08
4.42358761431e-09
0.00124141721485
0.000586338980645
0.000719722958535
2.78889639376e-08
2.21562546156e-08
3.99463488639e-08
3.40911686947e-08
0.00158732510607
0.000959540134127
0.0010846175781
6.26402212349e-10
3.96249720392e-10
4.06975088376e-08
4.61651212628e-08
0.00163666548221
0.00124938322618
0.00163460007591
2.77109990235e-09
7.95975046528e-08
5.81451077173e-08
6.01541843507e-10
0.00165658042133
0.00195579813408
0.00221823401151
7.66334105834e-08
5.27191726935e-08
9.5770188975e-08
1.34883601204e-09
0.00193829574303
0.00268071954794
0.00257403090988
4.81072196381e-10
8.64461084475e-08
8.23706212732e-08
1.2313351619e-09
0.00212254728726
0.00241015451038
0.00225404362021
2.97370994647e-08
9.90614777477e-08
1.54799973116e-07
9.01887249394e-08
0.00238104546031
0.00204546374662
0.00196494909719
9.28638934701e-08
1.23085440414e-07
1.04965395305e-07
1.33015492939e-07
0.00457168847381
0.00254184640971
0.00455995583394
2.87739451059e-07
1.17864587448e-06
2.86436536115e-07
1.59322727362e-06
0.0030129865692
0.00345815812664
0.00251833563393
4.23948619374e-08
2.76240860814e-07
6.2360158558e-07
6.55040524193e-10
0.00106042421011
0.00231269923775
0.00196538565672
7.27129266153e-08
6.0052764682e-08
1.9286587838e-07
2.76842285706e-09
0.000978031804527
0.00203127792828
0.00195460163269
1.92159072845e-08
4.68883997916e-08
1.25566136199e-07
2.30794238344e-09
0.00115871892477
0.00220026991041
0.00215740740152
2.69420369997e-08
5.29312544686e-08
7.18094782133e-08
1.50100160293e-09
0.00170780958457
0.00239293372762
0.00247473379256
2.66603530265e-08
7.77499998135e-08
5.6766191797e-08
1.31534955691e-09
0.00260327418372
0.00287818718145
0.00282716637218
1.84098146878e-09
8.31824390557e-08
1.45933057007e-07
1.8251035705e-09
0.00293782426352
0.00320313700542
0.00305581183632
2.1207897624e-09
1.49491066339e-07
1.70469363702e-07
2.66120024775e-09
0.00238844275659
0.00315037950713
0.00292692240697
2.1163953417e-09
1.17086960405e-07
1.27088193492e-07
3.13338515336e-09
0.00202922495757
0.00283240281587
0.00290918589509
1.02742860886e-07
1.43356497633e-07
1.54978612386e-07
4.84956424768e-08
0.0046597168968
0.003471793362
0.0058289352922
2.86838750974e-07
1.65289332818e-06
4.33494301902e-07
1.95300308654e-06
0.00262665696995
0.00288623950993
0.00276074832001
1.80764895193e-09
3.05037138026e-07
6.72761001306e-10
6.00095969519e-09
0.00265713437293
0.00259883873052
0.00249926265771
4.44494402867e-09
1.96905244906e-07
2.97575928673e-07
4.01459418564e-09
0.00273480000753
0.00292453817352
0.00274399195306
4.45870140301e-09
1.51526409821e-07
2.38885936832e-07
3.03307681527e-09
0.00279677147248
0.0030010788122
0.0028067670677
2.6348708867e-09
1.62416668771e-07
2.18352280146e-07
2.50671231857e-09
0.00290678657421
0.00309053553794
0.00290426389211
1.668476852e-09
1.82336235472e-07
2.29978506497e-07
2.28480929557e-09
0.00306209727474
0.00315749172458
0.00302771316816
1.277065783e-09
2.03644446668e-07
2.32527965723e-07
2.07032130213e-09
0.00318714688297
0.00330038184984
0.00316735888167
1.37052487915e-09
1.93269249796e-07
2.35438240107e-07
1.91613105963e-09
0.00318223222932
0.00338278630404
0.0032823574289
1.65765474544e-09
1.5737294782e-07
2.09726724781e-07
3.56589258572e-09
0.0033541958073
0.00346358518789
0.00370729956171
4.02205867666e-09
2.29236380812e-07
2.08647714065e-07
5.98083103049e-08
0.00679576735551
0.00462467359619
0.00751038727028
5.56793413149e-08
3.05006673419e-06
6.84145638985e-07
3.52138168255e-06
0.00307695572645
0.00294812444501
5.52003514662e-09
3.15390500566e-07
1.64809053032e-09
0.00311697109843
0.00301639808253
0.00291604341614
4.39194507191e-09
2.58171236386e-07
4.61043399325e-09
1.99216785075e-09
0.00308532834693
0.00322945802514
0.00301211705107
2.28526281837e-09
2.45041883292e-07
2.29350783141e-07
1.34210275929e-09
0.00306980802649
0.00320294934224
0.00297218448292
1.01245184946e-09
2.79186571727e-07
2.24103659236e-07
6.98572716745e-10
0.00308682704776
0.00316354983254
0.00298064198457
8.57069693622e-10
2.53356747012e-07
2.05988190719e-07
5.9512261042e-10
0.00317098791967
0.0032445474448
0.00308386530509
1.03024191579e-09
2.41585769138e-07
1.88454523486e-07
6.3143950568e-10
0.00326778746584
0.00327216983458
0.00315519856292
1.43935501259e-09
2.16990546444e-07
1.80189267305e-07
1.75488364258e-09
0.00369049178026
0.00338301337013
0.00362167666858
3.79282882036e-09
3.34444763079e-07
1.89158012269e-07
2.19922291922e-08
0.00749702297643
0.00463913729222
0.00753366836484
3.23036884318e-07
3.9781757932e-06
6.57715011341e-07
3.46937034117e-06
0.00299713952606
0.00266064060093
1.8484283097e-10
2.59068331826e-07
1.26702969721e-08
2.60577325989e-10
0.00306502782814
0.00332701566954
0.00325087186486
2.18645100337e-09
2.34445498225e-07
1.57394412359e-08
7.12259258954e-08
0.00296780826633
0.00290549408048
0.00265224079213
1.64140125748e-09
1.70860296754e-07
1.82311716746e-07
3.55850038781e-10
0.00303136132909
0.00303986938782
0.00276406467494
2.38918528447e-09
2.31678034875e-07
1.04570912792e-07
1.8183013847e-09
0.00302287173999
0.00274604961371
0.00251014033175
3.0057322745e-09
2.10868042585e-07
1.38122335004e-07
2.18427569312e-09
0.00335592194218
0.00263141367135
0.00283105684629
4.85938752412e-09
2.84112066545e-07
1.29021691597e-07
1.43748912276e-08
0.00704948428235
0.00376938739307
0.00627250810528
1.52255441509e-07
3.26750376348e-06
4.08202492667e-07
2.11421112423e-06
0.002366652062
1.49025445039e-07
0.00215347519603
2.38093100996e-09
1.27173473066e-07
1.13288279814e-07
6.01997036983e-08
0.00216861999975
2.03163565552e-09
1.63826370199e-07
8.47185533743e-08
1.06705771841e-07
0.0047109684698
3.05036418767e-07
1.4992810412e-06
2.84897091507e-07
1.32513552228e-06
0.999994231229
0.999995941589
0.980186617213
0.985284167023
0.999996740786
0.984457797874
0.99999770505
0.999994786209
0.999995470629
0.98522459504
0.987290108361
0.999999199278
1
0.984877963863
0.999995211262
0.999995353475
0.987133769142
0.982438115852
0.99999348795
0.982648357562
0.999995260398
0.99999439486
0.999994959464
0.98433908478
0.989770247276
0.999995544262
0.986034019424
0.999992093553
0.999995155305
0.999994394865
0.982232093445
0.988497511832
0.999998881844
0.99999286786
0.983766171576
0.999995596761
0.999991865051
0.990308873163
0.986262224645
0.999999437297
0.999994744398
0.987951395379
0.999997711074
0.999993260301
0.990937018975
0.987389283426
0.999994569146
0.98470674414
0.999995432963
0.999995282465
0.99999762549
0.989291062544
0.992186280675
0.999997459271
0.986371681266
0.999995570624
0.999995219052
0.999995957586
0.987924484341
0.993541794631
0.999999444634
0.999995948966
0.987191276698
0.999996620581
0.999993160578
0.993396895024
0.991506048227
0.999999893445
0.999995657313
0.989649209892
0.999997410941
0.99999556615
0.992742445203
0.99023875207
0.999995673884
0.986570720336
0.999997272425
0.999988069863
0.999991864125
0.991035949935
0.993295953727
0.999989332599
0.98741095204
1.00000426878
0.999988826991
0.999997445899
0.99098502131
0.995012250678
1.00000125506
0.999994622989
0.989093415404
0.999994300497
0.99999831784
0.993208385712
0.992406897052
1.00000094493
1.00000217404
0.989578161158
0.99999590436
0.999998939238
0.994130409837
0.991101780064
0.99999987983
0.988030488069
0.999993533098
0.999995536955
0.9999878984
0.991004445673
0.993122150573
0.999998232708
0.988601705697
0.999991566807
0.999995883552
0.999998478178
0.990172184957
0.993652845653
0.99999484246
0.999997996942
0.987529248825
0.999997587716
0.999998829599
0.992449648808
0.990389935945
0.999997982157
0.999998668637
0.987558410289
0.999998037501
0.99998840451
0.992337875401
0.989219103504
0.999997056777
0.984492621166
0.999994648397
0.999996863639
0.999986813511
0.988128162899
0.991623597689
0.99999985598
0.985337861558
0.999992644201
0.99999709742
0.999994947122
0.988840801237
0.991829389616
0.999998361691
0.999996476368
0.984244116902
0.999997294516
0.999998014986
0.99108312172
0.988882756042
0.999997497949
0.999996683562
0.984591556136
0.999994737803
0.999988321195
0.990735915685
0.987443310053
1.00000099977
0.982565499849
0.999987031322
0.999979098288
0.999998714031
0.985302275185
0.989466921421
0.999998322518
0.983883929877
1.00000684826
0.999997757513
0.999993252246
0.987130803129
0.990446237244
0.999998260281
0.999995854039
0.983052069279
0.999992227011
0.999989146227
0.989253403706
0.986171449892
0.999984504955
1.00000278662
0.984327152224
0.999993872115
0.999994861564
0.987830542464
0.983079892829
0.999991733239
0.978731720728
0.999995132758
0.999990618752
0.999991035488
0.980420729791
0.985699520394
0.999993432464
0.981544086847
0.999990090369
0.999990261
0.999993265971
0.98350366387
0.988031681884
1.0000036012
0.999996124018
0.980048730397
0.999995338586
0.99998441944
0.985224151116
0.980120108127
0.999998633613
0.999991648638
0.983403234255
0.999989602856
0.999987463606
0.982627925987
0.976654353235
0.999987523498
0.972451005754
0.999990235617
0.99998612125
0.999984851823
0.971030926448
0.974428859179
0.975113773875
0.999990392713
0.999980969856
0.999989543539
0.999986059833
0.975022813961
0.982795969016
1.00000020759
0.999982851329
0.973458001902
0.999991109954
0.999976931697
0.974171170673
0.969538833436
0.999986408521
0.977101299397
1.00000529346
1
1.00000136227
0.997146832459
0.99929238532
1.00000271836
0.9962235108
1.00000355801
0.999993827913
1
0.992579492438
0.994926342495
1.00000346231
1
0.991854205659
0.999996448987
1.00000183605
0.996282698627
0.998781243982
1.00000199697
0.995333845035
1.0000005343
0.9999989757
1
0.99342485947
0.996725169089
1
1.0000042651
0.991270119867
0.999996638952
0.999997742544
0.988773014719
0.991206712127
1
1.0000010251
0.983845591216
0.999991702051
0.999992804799
0.98672015315
0.99057794889
0.999998230394
1
0.983612208738
0.999992498291
1
0.989594467967
0.99436179527
0.9999989447
1
0.984717138012
0.999998983177
0.999999660826
0.990083538709
0.992224753804
0.999998514964
0.999999604137
0.983347501091
0.999999080644
0.999993588288
0.989575725893
0.988822474885
0.99999594003
0.999997698818
0.986071561116
0.999998243384
0.999991130188
0.987405499494
0.992331048832
0.999994080095
0.999999408579
0.987414878291
0.999997980396
0.999996676131
0.988535895784
0.992938239015
0.999999345947
0.999998018506
0.98534415047
0.999997391893
0.999999008586
0.991714969043
0.991317570562
0.999998614065
0.999998736299
0.985359193336
0.999999307148
0.999991334293
0.992982815672
0.990343509457
0.99999537278
0.99999804749
0.987540082233
0.999997954819
0.999992534506
0.991138216615
0.994149842316
0.999995734321
0.999999623631
0.988505116127
0.999998068139
0.999996368956
0.990164747459
0.993415380967
0.999999533373
0.999997831174
0.986682617717
0.999997464497
0.999999235614
0.993161632347
0.992084501223
0.999998262429
0.999998673224
0.986704913223
0.999998788933
0.999991865281
0.994254219328
0.992069482522
0.999997766283
0.999996400858
0.988346429546
0.999996815896
0.999998552378
0.991458730039
0.994276135839
0.999995668324
0.999998483382
0.988439138026
0.999996959187
0.999996789712
0.991409171938
0.993516786755
0.999999143412
0.999997736463
0.98721967232
0.999996495292
0.999999357356
0.992954592443
0.991685859344
0.999999183133
0.999998401489
0.986751656398
0.999998859432
0.999991333973
0.992241189811
0.991704707194
0.999992923856
0.999995125078
0.984881164937
0.999996504592
0.999995878967
0.988874390238
0.992147582603
0.999996340667
0.999997096264
0.984239115033
0.999996610524
0.999996724109
0.990714457226
0.992847576979
0.999998288532
0.99999768666
0.985383492481
0.999995196302
0.999999063196
0.991621341547
0.991001055944
0.999998837151
0.999998104409
0.984321623188
0.999999001434
0.99998882955
0.990536022924
0.989919833915
0.999992108528
0.999994704374
0.98196344473
0.999995852024
0.999994406705
0.987195831436
0.990516898931
0.999995707407
0.999996288488
0.981186677128
0.999995929243
0.999996083073
0.98929074827
0.991666965224
0.999997643192
0.999997092541
0.983144630138
0.999994208531
0.99999857553
0.990371839463
0.989333575021
0.999998047012
0.999997167654
0.982067880275
0.999998139434
0.999986261197
0.989115017566
0.987949773449
0.999990921619
0.999993332473
0.980242254725