/*--------------------------------*- C++ -*----------------------------------*\
| =========                 |                                                 |
| \\      /  F ield         | OpenFOAM: The Open Source CFD Toolbox           |
|  \\    /   O peration     | Version:  v1906                                 |
|   \\  /    A nd           | Web:      www.OpenFOAM.com                      |
|    \\/     M anipulation  |                                                 |
\*---------------------------------------------------------------------------*/
FoamFile
{
    version     2.0;
    format      ascii;
    class       volVectorField;
    location    "0.45";
    object      U;
}
// * * * * * * * * * * * * * * * * * * * * * * * * * * * * * * * * * * * * * //

dimensions      [0 1 -1 0 0 0 0];


internalField   nonuniform List<vector> 
28582
(
(0.800954863865 -0.000410364204379 -0.000170900739667)
(0.801212403275 -0.000348504595863 -0.000218990814641)
(0.800863382066 -0.000369456604527 -0.000550841898686)
(0.801126137404 -0.000323370834871 -0.000655525188347)
(0.80075470208 -0.000327815051297 -0.000930534248517)
(0.80095867078 -0.000269483585359 -0.00107174287555)
(0.80058367323 -2.3310868074e-05 -0.00205452799584)
(0.80073094128 -5.11178125017e-05 -0.00176130770014)
(0.426940806421 0.0146458542036 0.0018665786117)
(0.691312928594 0.017513696013 -0.00641190511124)
(-0.0292070078733 -0.00860646334388 -0.0187997672897)
(0.80064817344 -2.78476392338e-05 -0.00185708546008)
(0.80074697511 0.00277396845357 -0.00214344856523)
(0.795857186212 0.00086996598239 -0.00111188934318)
(0.800697877423 -8.4059017049e-05 -0.00177253251518)
(0.800788888462 -0.000188385584959 -0.000684918226987)
(0.801418663776 0.00374946778873 -0.00247082992059)
(0.801172094079 -0.000452029396437 -0.00303078068868)
(0.801137349722 0.000204334859633 -0.00253238063948)
(0.801063128077 -0.00085860631615 -0.000262514349444)
(0.801574636216 -0.000270673468727 -0.000265999647491)
(0.802100776305 -0.00020010496364 -0.000307314631613)
(0.801237346098 -0.00106113761228 -0.00052493886283)
(0.801491054678 -0.000242278332671 -0.000810834835908)
(0.802031596818 -0.000173165829877 -0.00093415235817)
(0.800908230084 -0.000894657236344 -0.000715121655103)
(0.801301933576 -0.000188486339133 -0.00140419756072)
(0.800415273029 -0.000725917844219 -0.00251305531431)
(0.800798999638 -0.000145972404066 -0.00195069039162)
(0.65860178272 0.0864833906103 0.00107400720481)
(0.000494377241515 -0.0221193412092 0.0135799670524)
(-0.00676497797116 -0.027527536493 0.0290504760378)
(0.800330468747 -0.000641548766564 -0.00236518290309)
(0.800708890871 -0.000786492003351 0.000305042870805)
(0.800986834484 0.00294803225513 -0.000892085419075)
(0.796639623627 0.00125489232976 -7.13288051909e-05)
(0.800349135364 0.000403074203811 3.12135922453e-06)
(0.801087111305 -0.000185692741784 -0.00189513716036)
(0.800842143212 -0.000181424970538 -0.00142105955184)
(0.801200989081 -8.99858050787e-05 -0.0016390744489)
(0.800365318294 0.000234026213932 -0.000638973711681)
(0.796226404747 0.0017001541396 -0.00203549661017)
(0.800216712564 -0.0004818063736 -0.000409623942645)
(0.800691344573 0.000632699511099 -0.00106736949907)
(0.463178641153 -0.0150733277896 0.000341757963164)
(0.745882663461 0.0354020771628 -0.0146893152997)
(-0.0520342005092 -0.00204599201819 -0.0873567250244)
(-0.00734797098023 -0.00128822195251 0.0660009197097)
(0.613573480688 -0.0178429668786 -0.00819256027037)
(0.0183790886239 0.00904740924912 -0.248801852089)
(0.800791458748 0.000453151366503 -0.00306639280201)
(0.79992996593 -0.000516899460954 -0.00217302923848)
(0.802772722561 -0.00109468949798 -0.000735309019011)
(0.79836179119 0.00209648939876 -0.000132659454421)
(0.800198335981 8.03849892358e-05 -0.000571927032779)
(0.796521258622 -0.0015239814018 -0.00199410306992)
(0.801202513687 -0.000197996755746 -0.00165119555703)
(0.801149980219 -0.00103564043837 -0.00396939851217)
(0.800158229516 6.55561345676e-05 -0.00212733369975)
(0.798108756357 -0.00338815860214 0.00103815036116)
(0.803600977837 0.000636522300403 -0.00156108963541)
(0.801631700441 -0.000373480035642 -0.00268850687262)
(0.801142211794 -0.00394666904289 -0.00336283817816)
(0.80043830243 -0.000672717514689 9.49065281584e-05)
(0.800095638137 -0.000321543347619 -0.00118067189839)
(0.801071461621 0.000712649792985 -0.00373221355402)
(0.804578803219 -0.0012754641547 -0.000150290520726)
(0.798551915971 0.00336980490836 0.00115475381802)
(0.800634357013 0.000256238185044 0.000352873073503)
(0.796154765597 -0.00123480990022 -0.000834102571796)
(0.8015527214 9.4042694616e-05 -0.00172700001544)
(0.799635710202 -0.000105358427344 -0.00116872704458)
(0.796443904844 0.000406968396072 -0.0004653305761)
(0.805092693536 0.000211730144206 -0.00197985910779)
(0.800802600872 -0.00101718842524 -0.00382688789615)
(0.799387835647 -0.00422384409939 0.00216262974616)
(0.802160069962 -0.00439800148365 -0.00307493055837)
(0.800287083719 -0.000625780212409 0.0010104132568)
(0.799850545442 0.000285803756871 5.7642599298e-05)
(0.805081155495 -0.000291822411738 -0.001452028399)
(0.797388931571 2.8199704188e-05 0.000164288792818)
(0.800796896536 0.000641422608041 -0.00329567145332)
(0.799915685032 0.00403223631151 0.00238290317641)
(0.800530218836 0.000686079983242 0.00200748999403)
(0.802290393757 0.00402922169062 -0.00266198575998)
(0.436257867989 0.150987763094 0.00896187965896)
(0.0224509097294 -0.0301356456327 -0.0100016115894)
(0.596456514973 0.147067278432 -0.00703272471984)
(0.577949054225 0.10195151785 -0.00164379367575)
(-0.00871525380355 -0.0507806083225 -0.253267999868)
(0.0113053602604 -0.0576716734369 -0.0248187883613)
(0.714310697062 0.108874954365 0.0056619673567)
(0.00221106097358 -0.0360813769171 0.339301239644)
(-0.0434359522909 -0.0292707779169 0.001572226013)
(0.517588713854 0.155548754414 0.0127869721403)
(0.0119294171297 -0.0380290859501 0.230055354842)
(0.527080916257 0.145761027476 0.00219295040905)
(0.0132630489447 -0.044497406488 0.0470968594835)
(0.800003196298 -0.00201818326532 -0.00151875069171)
(0.800642577647 -3.39661540336e-05 -0.00245004826094)
(0.803112829379 -0.000378301562389 0.000841726544283)
(0.799141545225 0.00227489496072 2.04158007458e-05)
(0.801012669341 -0.000423493762964 -0.000855558751113)
(0.800242743936 -0.00161225609494 -0.000379017515738)
(0.797696909642 -0.000518930093781 -0.0011277325685)
(0.800710632665 -0.00228407091765 -0.00322024749871)
(0.799490200858 -0.000290748119435 -0.00132758966749)
(0.799123383023 -0.0022157081454 0.00249986061906)
(0.803157492785 0.000529026014435 -0.00148642800195)
(0.800023058886 -0.000847601976926 0.00106429843026)
(0.801046333353 -0.00161041795832 -0.00243350750744)
(0.801446305025 -0.00299453342878 -0.00248423240337)
(0.798816707444 0.00298610135159 -0.000427995696266)
(0.797341385359 -0.000120680151925 -0.00175891619124)
(0.80015311038 -0.000155937146543 -0.00128516996005)
(0.800827197018 -0.000951753182224 -0.00237047015656)
(0.802657604539 -0.000883033388061 -0.000654422895549)
(0.801114804445 -0.00134828486919 -0.00114880456513)
(0.800871454515 0.00252498824892 -0.00222768565536)
(0.800799786498 0.000505105088673 -0.00398476303869)
(0.802019134458 0.00359151833512 -0.00290370485349)
(0.799845852342 0.00370602067457 3.95504781512e-05)
(0.800055188525 -0.000442698113454 -0.00219694908334)
(0.804456271469 -0.000805068551641 -0.00147374997128)
(0.801384833952 -0.000153016962839 -0.00283152727392)
(0.797134148536 -0.000339447676336 -0.00168350391394)
(0.801309166286 -0.00104706196127 -0.00437947387597)
(0.800366232522 -1.2542359142e-05 -0.00267725836445)
(0.799176340196 -0.0032677503558 0.000570410612848)
(0.804207450484 0.00159189075492 -0.00203721414053)
(0.800605806564 -0.000765677861664 -0.000286624279681)
(0.80199131225 -0.000171657158823 -0.00313005062419)
(0.801856288113 -0.00306540519503 -0.00341985334831)
(0.801125384556 0.000113860705804 -0.00255446155627)
(0.800662147106 -0.000381645479868 -0.00296659458033)
(0.800346367091 -0.00270463332968 0.000185997943909)
(0.802450332018 -0.00284564013369 -0.00248008448582)
(0.804196955828 0.000872952175996 -0.00191192799082)
(0.799945818191 -3.03752093971e-05 -0.00227233774177)
(0.797469817256 0.0014019934549 -0.00200590958753)
(0.799809439831 0.00297137625536 -0.000618082424823)
(0.797764742707 -0.000777559999598 -0.00237463050057)
(0.800526406272 -0.000124260423041 -0.00290051633057)
(0.801297587694 0.000460648084306 -0.0040737392416)
(0.803948398162 -0.000332809729663 -0.00190032781103)
(0.801931289336 -0.000299110398697 -0.00246898687956)
(0.801853917578 0.0036626983632 -0.00360215562175)
(0.801888691269 -0.000127952101879 -0.00167428241406)
(0.801440782542 -0.000169737965353 -0.00199362380778)
(0.551520902619 0.120987370577 -0.00686130465138)
(0.00136682486062 -0.0250022328463 0.0215171422595)
(0.800723602896 -0.00063265880381 -0.000121425095608)
(0.80129489864 -0.00240569795108 -0.00271737175847)
(0.801489044191 -6.67570075219e-05 -0.00181251468744)
(0.801739402454 -7.58861476752e-05 -0.0019618641659)
(0.801549542702 0.00439772787274 -0.00364383237032)
(0.802008402117 -0.00290044975496 -0.00354761449592)
(0.796137372278 -0.000380612722392 -0.00201553399103)
(0.80201205595 -0.000119906109979 -0.00204294391265)
(0.802404476705 -5.20911446259e-05 -0.00215366997059)
(0.803046803637 -0.00378008402755 -0.00417225044362)
(0.796322053668 -0.000728894179133 -0.00267380293671)
(0.483374514183 0.105270442546 0.00204089527869)
(0.457383309546 0.193034540603 0.00297523514619)
(0.499796687024 0.10825436174 -0.00225845653455)
(-0.00909562201424 -0.0381323839672 -0.348514767762)
(0.0427324967662 -0.0580553392014 0.229538729399)
(0.00158102992429 -0.0332343252427 -0.0885473354174)
(0.542234953043 0.131632748771 -2.00665338757e-05)
(0.537467643979 0.0770548760878 0.00107001994366)
(0.79993039583 -0.000978807402548 -0.00128666667407)
(0.800991080826 -0.000617251433295 -0.00261016512991)
(0.798741838205 -0.00269033546228 0.00108870447871)
(0.8031909722 0.00148356887774 -0.00126417277054)
(0.800346719626 -0.00161800861844 0.000751736609691)
(0.796520017946 0.00117572733214 -0.00116431398544)
(0.80136462221 -2.81300214452e-05 -0.00155373949553)
(0.800675474028 -0.000487912703693 -0.00233182422844)
(0.801881242976 0.000635768287376 -0.00462747915623)
(0.805163673033 -0.00119811616854 -0.00110448880438)
(0.798788005886 0.00468347007915 0.000311614927026)
(0.802598354382 -0.00011444168061 -0.00287388733097)
(0.801154559406 0.00030420215987 -0.000594943383348)
(0.796344567982 -0.000226510173 -0.00156053957231)
(0.800809498317 -0.000103383827719 -0.00214503122134)
(0.801759322685 -0.000683260289781 -0.00439733526993)
(0.799037201819 -0.00223491043082 0.000143089609743)
(0.804041479059 0.00190328828927 -0.00172631176414)
(0.801132040811 -0.000879032991851 0.00010464251134)
(0.796558094338 0.00239650402374 -0.00219086036145)
(0.802328095195 0.000133108534982 -0.00280124334383)
(0.802060397627 0.000493099058753 -0.00409948248237)
(0.800781919404 -0.000166048734925 -0.00301198329994)
(0.804850430568 -0.000864373038081 -0.00166550228201)
(0.79836095008 0.00489867256817 0.000514165279787)
(0.802549203186 -0.000256975531721 -0.00244460155806)
(0.801906041948 0.0046336653629 -0.00384054613331)
(0.801227681753 0.000734042512737 -0.000522194365353)
(0.801132325646 -5.18322317867e-05 -0.00248974729721)
(0.802316221413 -0.000880618464028 -0.00535872127678)
(0.799600999141 -0.00303286323311 0.000554461344978)
(0.805759227939 0.0017317430986 -0.00210306041433)
(0.801532488462 -0.000955652277939 0.000229728975288)
(0.79673341873 0.00227801109568 -0.00226902470269)
(0.803059421031 0.000152713209674 -0.00345959978079)
(0.802674176009 0.000639213555529 -0.0049716211255)
(0.801258386017 -1.64998060413e-05 -0.00350440409834)
(0.805770757511 -0.000887357449935 -0.00239599433106)
(0.799098566795 0.00511367312753 0.000538226062205)
(0.803307224586 -0.000401291317796 -0.00313640265527)
(0.802788876812 0.00488939111815 -0.00441411568722)
(0.801734943339 0.000977697899998 -0.000376224240545)
(0.79722419487 0.00209976134931 0.00131602963311)
(0.799548240974 0.00156856412004 -0.000803412764678)
(0.800575552533 0.00277479894884 -0.00185577492577)
(0.800955822275 0.00135187800711 -0.00250945429955)
(0.612116546628 0.168725808082 0.00172871307429)
(0.627542650698 0.247246470033 -0.00433278296522)
(0.619612204355 0.13232520608 0.0135232510275)
(0.54702145099 0.109370003539 0.000740705532051)
(0.46222472267 -0.00161972949822 -0.000262797669281)
(0.0673413133554 -0.0345267222137 -0.0565148153116)
(-0.0188293558446 -0.0423445001607 -0.098379500947)
(0.0133929806976 -0.0228775145239 -0.0226399110381)
(-0.00813396010384 -0.0643739293664 -0.0174358484472)
(0.0283836400399 -0.0106184054849 0.0494501320738)
(0.00208751901 0.00152068659323 0.00759840499241)
(0.796319446661 0.000234052462339 0.00196826769985)
(0.796947242672 0.00148023148128 0.0028306641603)
(0.79757563698 -0.0004787439067 0.00296023087751)
(0.798531728401 0.00118610652493 0.0026814121124)
(0.795171786714 0.00246174349927 0.00418583279027)
(0.798896474101 0.00103236686448 0.00274660622332)
(0.797896705928 0.0012820560358 0.00100620418981)
(0.798657303578 0.00156167926203 0.00270178688401)
(0.79854307366 0.000995726300102 0.00279629781232)
(0.799348246336 0.00189479437384 0.00160430350938)
(0.796769674265 0.00417012584411 0.00507857665799)
(0.798577119808 0.00231438711891 0.00312511134861)
(0.798621763591 0.00372800526452 0.00467318325365)
(0.799096816848 0.00150138233772 0.00245772842248)
(0.797056791931 0.00302357471276 0.00408359974813)
(0.800035641776 0.00160983104538 0.000811114573892)
(0.798612031481 0.00224109993426 0.00142067026443)
(0.799938432417 0.00568614834787 0.00497714912658)
(0.8030366827 0.00652690274753 0.00371800925607)
(0.797297137525 0.0041284697969 0.00425774429429)
(0.801443223007 0.00607504583551 0.00167631665249)
(0.799243193174 0.00282888365818 0.00139484535874)
(0.799805587356 0.00264009235462 0.000757673191388)
(0.799975971487 0.00216858790886 -0.00193876581163)
(0.799970996808 0.00153330899819 0.00319080305292)
(0.800247361027 0.00155162428497 0.00146168106073)
(0.799457013247 0.00194832496786 0.00126118116522)
(0.798869935477 0.00112478540369 0.000476918749569)
(0.802024912578 0.00260382648471 -6.65455031106e-05)
(0.800611005134 0.0018183084502 0.00397161007779)
(0.801374816087 0.00179621145811 0.00399194949665)
(0.799880728501 0.00231574608877 0.00188441988352)
(0.799506725056 0.00208009022681 0.00191294545696)
(0.799898008731 0.000513083028225 0.00027826887293)
(0.798144225901 0.00108716182544 0.000241590947099)
(0.800106963514 0.00193212467891 0.00023694230532)
(0.798219669656 0.00169617961621 0.00036862145719)
(0.611429079477 -0.0473303525054 0.0043356028618)
(0.621036515895 0.016133138457 0.00596016093363)
(0.572423924669 0.052630277807 0.00344661711432)
(0.0381614041945 -0.00838784220966 0.152352531027)
(0.057018110284 -0.0112662704633 -0.321839817086)
(0.00535826238038 0.00306929289684 -0.0722967066673)
(0.0351690351204 -0.0245521859488 -0.138056395853)
(0.0445184500593 -0.0182386160133 -0.531008956199)
(0.0477612283852 -0.0247273655267 -0.602013072365)
(0.0679199433693 -0.0191735777972 -0.381626560233)
(0.0270058104398 -0.0433774390077 -0.561984256253)
(0.680199597268 0.0968107764926 0.00182077318568)
(0.708022186329 0.134416865231 0.00305835245846)
(0.585357631661 0.197084974543 0.000214536903306)
(0.603824130424 0.177055737636 0.00936850769522)
(0.551904868582 0.227839261739 0.0174744112817)
(0.0283637473121 -0.042335543288 0.0853342148861)
(0.0398088941488 -0.0285220872134 -0.080230963568)
(0.0286094123857 -0.0357345992346 0.257498282552)
(0.0263898153482 -0.0526994558636 0.0159763365362)
(0.750972367515 0.281865757864 -0.0109355331209)
(0.595822134003 0.222887322994 0.00201774659797)
(0.685371160999 0.212866701347 0.000222671298421)
(0.0420968893742 -0.057999999264 -0.264052565247)
(0.0211387886514 -0.0503144044738 -0.0940908356097)
(0.0854857668049 -0.0444369121144 0.189264601926)
(-0.00114195518103 -0.0700442413641 -0.0449962738632)
(0.495263162128 0.118467373655 0.00630860299587)
(0.436196934921 0.0889451856783 0.0186109650841)
(0.00524886377925 -0.0206332357812 0.198853507139)
(0.0576671143497 -0.0231663807701 0.238453554603)
(0.0303934808871 -0.0250171931751 -0.125349771507)
(0.613867479755 0.0959748836497 0.00360732633732)
(0.484777528965 0.0940483883699 0.00340023634459)
(0.496488968865 0.0556007019403 0.00325425061992)
(0.0253617520101 -0.0218864777209 -0.236269458801)
(0.0306209596501 -0.0228783557248 0.167747752418)
(0.070966497518 -0.0204127073902 0.191474360727)
(0.035572964214 -0.0020823193495 -0.0740088833235)
(0.797721133167 -9.97178137307e-05 0.00233832122541)
(0.796318099 -6.68891168676e-05 0.00444222284854)
(0.798486288525 -0.00131838214669 0.004098690058)
(0.799455413643 -0.000358507311817 0.00171471592343)
(0.797319473341 0.000375342669802 0.00306586700835)
(0.799556648306 -0.00132461289658 0.00104952782494)
(0.797193632198 -0.000329912537 0.00535070031798)
(0.797719642729 0.00111726792751 0.00282955708469)
(0.797282637725 0.00179903839204 0.00460589938367)
(0.799300670297 0.000197295277141 0.0024260707055)
(0.799079094338 0.00201086383713 0.00312161037697)
(0.797608578663 0.00099994812383 0.00373799237118)
(0.797880537197 0.00178178216061 0.00481302886248)
(0.799256600624 0.00102393567219 0.0014615941323)
(0.795226134473 0.00186182350642 0.00441910195095)
(0.796953984541 0.00187954723303 0.00475210814713)
(0.797993934587 0.000152605403715 0.00325433959214)
(0.79842043768 0.00203562707939 0.00373005353915)
(0.796257442101 0.0012450528497 0.00509408509529)
(0.796327515953 0.0026794989906 0.00592418694823)
(0.796765039928 0.0011044853593 0.00255202286898)
(0.798658489659 -1.97113469707e-05 0.00210991942733)
(0.797585879398 0.00124186469944 0.00374365699195)
(0.799345959392 -0.000211036745704 0.00394094221984)
(0.80043052641 0.00068816247576 0.00187876484247)
(0.798206139622 0.000689215449305 0.00498297550281)
(0.798565520483 0.000450939895876 0.00303374234616)
(0.800566654858 -0.000584693888921 0.00117047997165)
(0.798706270327 0.000889485513366 0.0013963663601)
(0.798454704295 0.00205938605474 0.00337700376608)
(0.800591191624 0.000835751345578 0.00116353085247)
(0.799999474178 0.00265365137363 0.00215600153437)
(0.798780135748 0.000754728716977 0.00202144997953)
(0.798785808631 0.00203577343899 0.00367277491031)
(0.80024492666 0.00173639004725 0.000650471451076)
(0.796899194626 0.00164103484059 0.00309657319799)
(0.797359146206 0.00180805333963 0.00311600186563)
(0.799070362968 0.00129294447513 0.00331869048519)
(0.798872077705 0.00168380875305 0.00210843095086)
(0.796965984221 0.00193945745695 0.0042105366799)
(0.797587210632 0.00106372007191 0.00357484398213)
(0.798473967379 0.00162174269209 0.00175775878476)
(0.79677873132 0.0020715426505 0.0034851328058)
(0.796325030867 0.00319696200374 0.00449187442389)
(0.797848015192 0.00199200195542 0.00432335586607)
(0.797795469987 0.00284503803436 0.00262240818627)
(0.79630084775 0.00262554861606 0.00492462510817)
(0.796977203148 0.00343789466295 0.00415417645133)
(0.798542833082 0.00183772633218 0.00199865357188)
(0.798064413478 0.00152318592292 0.00229627392163)
(0.798485982376 0.00219339896049 0.00272185272116)
(0.799939820768 0.000724426265552 0.00160034711292)
(0.799892220263 0.00199151801672 0.00100377541391)
(0.798307991095 0.000945482635477 0.00270600918349)
(0.798471279472 0.00261021420739 0.00289529923584)
(0.799245877547 0.00190118712214 0.00153364843528)
(0.798253017692 0.00246585981348 0.00228746651211)
(0.798721364511 0.00387312612068 0.00377444704907)
(0.798682990163 0.00246905701092 0.00264984343734)
(0.798883360077 0.00213334796359 0.00151956820107)
(0.798502492477 0.00313540872881 0.0025215720278)
(0.79834238007 0.00337378263546 0.00383983215972)
(0.799163121388 0.002236932394 0.00186424278472)
(0.799074210856 0.00534790853632 0.00427264945787)
(0.79707459309 0.00392400555769 0.00379300416656)
(0.798414396926 0.00491167791232 0.00456098550177)
(0.797684732087 0.00352206007403 0.00261279895033)
(0.798825080617 0.00445526438353 0.00414396172507)
(0.797554321923 0.00452823071026 0.0041439358881)
(0.798860177492 0.00405761794037 0.00247146162281)
(0.801041004371 0.00617717713817 0.00454224533389)
(0.803905891994 0.00461979572884 0.00103090510877)
(0.799482030346 0.0059543582542 0.00341852479688)
(0.801835773785 0.00550657627173 0.00179740555215)
(0.800513965506 0.00516263811913 0.00252155597976)
(0.800697735269 0.00486634878079 0.00218203950188)
(0.8036213033 0.00597099265314 0.00497709927251)
(0.800087651966 0.00503892142403 0.00098364544348)
(0.799354567605 0.00467180708471 0.00368831070692)
(0.798654716458 0.00292894983629 0.0025096588281)
(0.799866778319 0.00350208382287 0.00181669102258)
(0.798962041524 0.00398770711071 0.00190541924893)
(0.800382549464 0.00504972249577 0.00470236617066)
(0.799801612753 0.00377794159831 0.00193559600201)
(0.801976254483 0.00515241356066 0.00104752810632)
(0.801906503376 0.00428544267235 0.00364876021791)
(0.802566152917 0.00287015336141 0.00251266202856)
(0.799652506535 0.00370682982012 0.00177247360199)
(0.800975198227 0.00494323887043 0.00472903245576)
(0.801049829548 0.003942873885 0.00200667697758)
(0.803735816376 0.00473740781534 0.00153004391528)
(0.79946187491 0.000550208690825 0.00105027588844)
(0.799152931209 0.00189903562422 0.0011303284841)
(0.800019100972 0.0013854855239 0.00155698132415)
(0.800425224638 0.00078625397094 0.000303667209824)
(0.799245700627 0.00223259951909 0.00103007068884)
(0.799462715817 0.000403101619845 0.00100389388409)
(0.79950502423 0.00011266628382 0.000292956124442)
(0.799685518248 0.000746764257389 0.00102838755317)
(0.799797056168 0.00361476575261 0.000194172388042)
(0.799356411889 0.00144087853952 0.00132421284326)
(0.79968524131 0.000353038038744 0.00083560854558)
(0.799362883021 0.00272934529339 0.000587356151158)
(0.79983611164 0.00101859943704 0.00193195650579)
(0.799670448601 9.19256553659e-05 0.000318368665591)
(0.799965053038 0.000575298767114 0.00124068235991)
(0.800026911936 0.00186147681566 0.00217469234183)
(0.80004169829 5.88040829578e-05 0.0014041608584)
(0.799179330571 0.001472689639 0.000501855174645)
(0.800271119696 0.000593886470851 0.00143894935985)
(0.799878411276 0.00168486742207 0.00221651456379)
(0.799508140075 0.000753832526236 0.000885997444645)
(0.799854269261 0.00103942038329 0.00173336319043)
(0.800231072041 0.00393992016231 0.000589931539355)
(0.800602630523 0.00138529951207 0.00297772235012)
(0.798764611616 0.000736431247919 0.00112598926154)
(0.800576097479 0.00386293924081 0.00127692210655)
(0.799774023184 0.00119420602479 0.00234204113445)
(0.798658329425 2.15483556956e-05 0.000618532219101)
(0.800540148382 0.000709373359482 0.000347993153556)
(0.801540000767 0.0035081361285 -0.00072798711324)
(0.799961102461 0.00122931009802 0.0034307150861)
(0.801638692291 0.000423462967929 1.59751095546e-05)
(0.800871200051 0.00360019522544 0.00132421162591)
(0.800610478592 -0.000978804555203 -0.000178152289049)
(0.801428911407 0.000998069317388 0.000462155069305)
(0.800139281349 0.00111503149606 0.000639106412726)
(0.800347132796 0.00201894163518 0.00176010565426)
(0.799483071417 3.87938532221e-05 0.00194736312539)
(0.800670467864 0.00176569553413 0.000613511902381)
(0.800146018058 0.000734487513381 0.0017035641353)
(0.800616227801 0.00254180997564 0.00226768774372)
(0.798918365286 0.00122268984744 0.000827933340486)
(0.801068442315 0.00143191440976 -0.00034989006484)
(0.800568233473 0.00257266573259 0.00220424126242)
(0.801898216974 -0.000131499794323 0.00104954586383)
(0.799039841329 0.00299827697445 0.00117729182688)
(0.800462021581 0.00296911730759 0.00303372699312)
(0.800536189835 0.00192842918541 0.000124578692015)
(0.801767761305 0.00107549092803 0.000264241172198)
(0.80032304108 -0.000413993737175 -0.000630490291533)
(0.800936413089 0.00213474318826 -0.000950654267791)
(0.801289689742 0.000212274812259 0.00135854477833)
(0.798851186509 0.000444532366333 0.00022635439453)
(0.801118509126 0.00192276008618 -6.97981940405e-05)
(0.800383887323 5.35740943076e-06 0.000317552249339)
(0.798236420018 -0.00130142703145 -0.000635894773613)
(0.800761447486 0.00229895152022 -0.00129123753333)
(0.79948494796 -0.000422065589882 0.00214648904246)
(0.800772402755 0.00186818670365 0.000595810565925)
(0.800976722134 -0.000650496541081 -0.000225035938791)
(0.80113067611 -0.000462087390079 -0.00024151547919)
(0.801487000039 -0.000349268415352 -0.000277774477376)
(0.802551654829 -0.000148346202414 -0.000334475517059)
(0.803663272027 -0.0001123857541 -0.000381123150461)
(0.801374567376 -0.000138228006376 -0.000349552906285)
(0.800983292652 -0.000654927155074 -0.0006215442069)
(0.801079748905 -0.000452604195779 -0.000712858982221)
(0.801414698658 -0.000338331562719 -0.000837335970398)
(0.802496544283 -0.000127853773999 -0.00101202785533)
(0.803655425156 -9.81713831413e-05 -0.00113791629704)
(0.80130037431 -0.000119061250854 -0.00101957562667)
(0.797141386383 -0.00121690696844 0.00112626835935)
(0.798082496395 -0.000521572816956 -0.000216065106549)
(0.799311912621 -0.000383760472134 -0.000216052039344)
(0.800599362464 -0.000163465071378 -0.000302051217348)
(0.801533316663 -9.02266692263e-05 -0.000339581408443)
(0.802181030495 -5.58659555497e-05 -0.000353694590215)
(0.803494613718 -3.33485557041e-05 -0.000397611285578)
(0.801248298654 -3.06528595709e-05 -0.000367099167461)
(0.799371814037 -0.00346618934944 0.000254107075031)
(0.799157424016 -0.0018138188497 -0.000757831014221)
(0.799958730604 -0.00131100542337 -0.000235696968729)
(0.800834442902 -0.000501756774718 -0.000314662487493)
(0.801626065597 -0.000238291851894 -0.000344437967899)
(0.802234176707 -0.00014699626825 -0.000364937150183)
(0.8035198702 -9.80411407875e-05 -0.00040538820883)
(0.801269477876 -0.000104575358256 -0.000372913734354)
(0.800978514112 -0.0022506681604 -0.000125123945399)
(0.80042947296 -0.000706875062724 -0.000234843282326)
(0.80052555848 -0.000494824767169 -0.00027408468828)
(0.800955494155 -0.000431840145688 -0.000302195972108)
(0.80172210964 -0.000293388277736 -0.000334740076716)
(0.802299320151 -0.00018959240326 -0.000354790788631)
(0.803550680454 -0.000123986665886 -0.000398540608155)
(0.801289105975 -0.000133467037796 -0.000368198809886)
(0.800686965671 -0.00139724304304 -4.46382002619e-06)
(0.80055613738 -0.00113748861076 -0.000154463243148)
(0.800894128031 -0.000832143488496 -0.000216060794707)
(0.801372631307 -0.000517190309831 -0.000276423048544)
(0.801936128504 -0.000326506868518 -0.000318430390341)
(0.802425454186 -0.000213435232921 -0.000344485746274)
(0.803594585539 -0.000143868380874 -0.000389739283375)
(0.801323151139 -0.000160306437158 -0.000361471727247)
(0.802028209328 -0.000256474000989 -0.000314828929196)
(0.802495399075 -0.000183415148369 -0.000342264012109)
(0.80363258721 -0.000131528194988 -0.000387900731339)
(0.801352060502 -0.000157850788574 -0.000357897757645)
(0.791807220451 -0.00117351256788 0.00230344873627)
(0.797042738315 -0.000595836320563 -0.00022552189426)
(0.798911885489 -0.000374222544739 -0.000725983104988)
(0.800500564908 -0.000153769490914 -0.000867730199677)
(0.801483091171 -8.78645343782e-05 -0.000995021955888)
(0.802140061833 -5.43850548681e-05 -0.00105785197335)
(0.803492543232 -2.88052394893e-05 -0.00118614551468)
(0.801173033689 -2.45786445919e-05 -0.00106751337099)
(0.796989732828 -0.00554722017145 0.000479264239329)
(0.798511183055 -0.00186580660147 -0.00109052913158)
(0.799644565247 -0.00135398829198 -0.000766239724068)
(0.800763761481 -0.000507881758287 -0.000895521689909)
(0.801580229875 -0.000234673354487 -0.00102810607137)
(0.802192651937 -0.000147898519547 -0.00110391142232)
(0.80352202539 -9.9255296301e-05 -0.00120971873006)
(0.801204973733 -0.00010681532839 -0.00108856930775)
(0.800949446373 -0.00303553005538 -0.000473099488988)
(0.800395447274 -0.000865152980702 -0.000731098286228)
(0.800477134729 -0.00046855036526 -0.000816790662188)
(0.800904217388 -0.000393518842022 -0.000900081807071)
(0.801673139489 -0.000267426447867 -0.00101114936457)
(0.802255942756 -0.000168056680863 -0.00107416965293)
(0.803547974799 -0.000109180815699 -0.00118860755698)
(0.801220426178 -0.000117387158056 -0.00107962426715)
(0.800168828131 -0.00103737438463 -0.000449958641721)
(0.800281356396 -0.00107514705721 -0.000589404972064)
(0.800791326356 -0.000775655642783 -0.000711569127085)
(0.801284583501 -0.000484815516125 -0.000845205459554)
(0.801868373848 -0.000305663224847 -0.000964657263733)
(0.802372818799 -0.000199706485265 -0.00104256063292)
(0.803588487316 -0.000134028428018 -0.00116016313415)
(0.801250515334 -0.000146098853245 -0.00105814203228)
(0.801962759524 -0.000245153983979 -0.000955254914744)
(0.802441155387 -0.000172800351499 -0.00104061832822)
(0.803626173866 -0.000123083979194 -0.00116012902474)
(0.801279846102 -0.000140509368074 -0.00105133629524)
(0.787417690961 -0.0020304932905 -0.00174932578106)
(0.795868470041 -0.000794748429484 -0.00138075341903)
(0.798756023716 -0.000340163250146 -0.00243179795177)
(0.800101673329 -0.000124004992155 -0.00182791900104)
(0.80127008028 -7.70993373027e-05 -0.00198865958154)
(0.80207147349 -4.80751892055e-05 -0.00189607748456)
(0.803501424945 -2.66960399219e-05 -0.0022342750544)
(0.800978918832 -1.43882349906e-05 -0.0021188637942)
(0.796237590125 -0.0056036531205 -0.00186336235076)
(0.798391102611 -0.00177189594625 -0.00201936796683)
(0.799577493104 -0.00137838021525 -0.00257692456266)
(0.800427602124 -0.0005403604515 -0.00193175771316)
(0.801378371075 -0.000255534172318 -0.00191137657452)
(0.802093000885 -0.000162099939373 -0.00207675901697)
(0.803569533566 -0.000101331834811 -0.00230634091022)
(0.801039807124 -0.00012169868239 -0.00212727436075)
(0.800235427808 -0.00298764263261 -0.00171957513096)
(0.800036265833 -0.000922790067388 -0.0016272239943)
(0.800289265845 -0.000650139650862 -0.00162048694755)
(0.800791124494 -0.000423187991028 -0.00165706915269)