/*--------------------------------*- C++ -*----------------------------------*\
| =========                 |                                                 |
| \\      /  F ield         | OpenFOAM: The Open Source CFD Toolbox           |
|  \\    /   O peration     | Version:  v1906                                 |
|   \\  /    A nd           | Web:      www.OpenFOAM.com                      |
|    \\/     M anipulation  |                                                 |
\*---------------------------------------------------------------------------*/
FoamFile
{
    version     2.0;
    format      ascii;
    class       volScalarField;
    location    "3.95";
    object      p;
}
// * * * * * * * * * * * * * * * * * * * * * * * * * * * * * * * * * * * * * //

dimensions      [1 -1 -2 0 0 0 0];


internalField   nonuniform List<scalar> 
28582
(
17110.6118371
17109.0443059
12212.8089893
12211.117222
7315.26912326
7313.22721872
3642.72074069
3640.09489232
10.3156397102
13.2226562276
-27.0462562668
3641.26955637
618.653015287
617.524058881
3639.24144572
3639.41365661
617.762261814
1802.17506082
1802.10264786
17111.2079765
17107.609042
17106.0431752
12213.4087999
12209.5363868
12207.8168902
7316.24646881
7311.3586229
3643.7309654
3638.58123945
14.9032462421
-27.0292255557
-26.9966217545
3642.79902278
3643.60263323
619.166915117
617.832389134
1808.30081937
3637.66659505
3638.96477323
3638.48450407
1802.14351367
623.982526378
1802.10290045
1802.63181822
10.9630660347
13.035103651
-23.1944271207
-23.1928782879
11.9549916731
-23.2049321878
1806.60043077
1805.04612216
618.146918518
618.657221312
1806.20889699
617.959691644
1805.61829193
1804.13298992
1803.86898012
617.638943799
617.54931003
1803.38249053
617.644563509
1804.6635019
1802.45604845
1803.25133837
618.121710187
617.548943756
1802.81441584
618.042031295
1802.68726423
1802.28344853
619.516227738
619.398155615
1802.24638783
618.691387975
618.679370233
1802.35989543
1802.02254562
619.12581845
618.756436146
1802.19938213
618.364517952
1802.20421991
618.536054577
9.38834466578
-23.2426551844
9.94839307337
9.55848166587
-23.2534131352
-23.2493910907
14.2699502083
-23.17492701
-23.1693642687
16.2343397355
-23.141994046
17.2559553567
-23.1339548562
1807.88623679
1807.68332252
618.500824774
619.512317819
1806.93054052
1808.51808767
619.041948064
1807.41157587
1806.19232047
618.094077562
618.236426555
1806.48953704
1807.05721726
618.584969335
619.060349586
618.897152212
1807.62122714
1807.99198935
618.575886772
1807.46382433
618.835349754
1802.23672198
620.521197043
620.275930952
1802.15026051
621.683570564
1802.11704001
621.264925161
1801.99971129
1801.14429845
622.892457054
623.638958232
1801.76593675
1801.61795778
622.515255618
1802.28149158
1802.00313783
619.842097649
619.279417745
620.29389068
1802.21735496
620.793427272
621.625390969
623.025313551
1802.92413784
1802.31268378
623.372005282
1802.24286422
622.076666559
7309.09394117
3636.12632247
20.2019138768
-26.9826375052
3642.72806399
618.696189129
3637.21191938
3635.05897413
625.029434713
624.553212807
626.72681954
3632.4931045
3630.33932698
626.797717108
628.232531966
9.38332986349
18.8060344483
22.042034369
-23.0791039612
-23.0863748322
-23.0317370348
25.6492483975
29.1899472918
1806.44931991
1806.77351309
618.443058165
618.461852399
1806.89777083
618.310608523
1806.16425631
1799.66685434
1800.11472111
625.630011219
624.6986946
1798.55924026
1800.84176359
625.662031989
1800.75870777
1802.6807786
624.62050805
625.683188505
1801.75151104
625.717445895
1801.73008745
1799.12139135
1797.67671891
626.997250939
626.414150636
1797.05344645
626.513127242
1799.96496284
1792.74768976
1795.30397412
627.421891021
627.263313097
1794.91538628
627.782556656
1793.05052753
1791.01529037
1790.7976376
628.612804327
627.783564552
1790.16112273
628.091609272
1791.42484189
3657.78009037
3654.2133994
3652.37261237
3650.47968813
6.06991043874
10.5917365504
3.95226409877
8.98065655057
7.8836292115
-27.1028771147
-27.3041109333
-27.0132144174
-27.2125329251
-26.9668760348
-27.1609113104
3659.09966077
3658.05801016
621.877277631
621.395804706
3660.57156015
622.742129532
3656.45451159
3655.14707635
620.922830321
619.145460485
3657.91910481
3655.7904125
3655.27699393
622.120774968
623.493529155
620.292352061
622.790180795
3653.40415203
3650.45014906
624.084758485
623.33682184
623.164056592
622.155002404
3653.76286649
3652.51228059
619.524530075
622.339119823
620.131689407
3650.35532484
3651.51710544
3649.9888071
622.775115157
621.876192164
620.261258307
620.797603648
619.423075797
620.335457859
5.53399753367
5.31204185392
6.17398289052
-23.3637784686
-23.341880951
-23.3503610689
-23.31787698
-23.3160768432
-23.2487709727
-23.3088499489
-23.2627804307
4.62549695775
3.74939680357
8.43920544473
5.14325703718
7.55940024571
-23.3167754843
-23.3007449398
-23.3124585101
-23.3030859745
11.5153764992
10.0390426712
11.0390692937
-23.3015039711
-23.2786357999
-23.3069121911
-23.2911223474
6.22495754854
5.65026520749
-23.3112562748
-23.3021990686
-23.303516289
10.3568811824
8.25134026202
9.6358122661
-23.3063023687
-23.2916485028
-23.3105636667
-23.2956129445
1821.18893799
1822.92142692
620.714407349
621.867746622
1822.63852018
620.637453104
1821.40307263
1820.85357275
1821.62601448
621.63015313
620.085773641
1822.1680484
1820.35991852
620.479623462
1824.00153117
1822.42803641
622.893481273
623.135932356
1823.29319331
1822.66406795
623.920775163
1819.4696121
1820.89313525
619.649948788
620.194870822
1819.84542183
1820.28123917
619.245513456
1819.07664378
1819.51292748
619.703124834
617.970040409
1819.89205444
1818.65446459
618.668543047
1820.69983876
1821.4367666
622.426613639
621.062742485
1821.3990042
1820.69693869
622.329035705
1820.06336717
1820.09654752
622.432128671
622.583163759
1820.82007763
1818.76871198
623.263878585
1820.19986442
1819.93148728
620.661745584
621.024498521
1820.27127627
1819.80758533
621.979586805
1819.49351108
1818.08773053
622.381710911
621.63893868
1818.14197256
1819.14364523
622.978075093
1816.54079846
1819.38043936
623.628331448
621.967881395
1818.37333687
1817.49706574
623.22770459
1815.25110386
1814.16482623
623.280027521
622.743053631
1816.41759951
623.588259833
1813.60107487
1815.49851367
1816.70214197
621.849299478
622.212765512
1816.57466706
1815.32149986
622.867083749
1814.48493273
1812.91797103
622.217524054
621.980376273
1814.06195148
622.993601912
1813.24697446
1819.06759498
1819.50127995
620.435579804
618.640652487
1819.51290575
1818.88772123
619.897155204
1818.5466294
1817.9258459
621.221647368
621.120708625
1818.94715374
1817.48218503
621.079720949
1817.82883346
1815.99617836
620.482045615
619.357758252
1816.85454879
1816.91880505
620.297984854
1814.9462719
1816.57344718
621.971714216
621.191555652
1815.19458835
1816.23279841
622.043144607
1813.89635745
1812.85647811
621.802371164
621.243809937
1813.87739095
621.838575105
1812.97142142
1814.60755912
1814.97260603
620.599689348
620.28354629
1815.76161676
1814.22046775
621.359190717
1813.66941024
1812.69009677
620.890518122
620.743721566
1813.46001588
621.311113985
1812.90218787
1813.15815293
1814.21332139
619.772869084
619.161201423
1813.70529827
1813.71160722
619.458160723
1812.63807658
620.204076417
1813.20456731
17109.4078398
17108.1592548
17106.9863669
17104.4267168
17103.2014614
17103.5080647
12211.6320937
12210.3283111
12208.9584211
12206.0122058
12204.8469215
12205.2375215
18324.0285741
18326.5005875
17100.4280657
17103.9749145
17105.4950528
17104.0066973
17102.1745538
17100.1343101
18325.6638305
18328.7064162
17105.5124336
17106.3882121
17105.5935403
17103.81573
17102.0612881
17100.5068789
17106.5281291
17105.9147655
17106.1996298
17105.8824131
17104.823008
17103.2558175
17101.7816829
17100.8771294
17109.2277739
17107.6821392
17107.2441019
17106.6287514
17105.2506909
17103.4807296
17101.9736442
17101.6965752
17105.4436613
17103.7230324
17102.3765463
17102.5174018
13423.6823775
13426.0314365
12204.3296979
12205.816328
12207.4246664
12206.1529035
12203.1865072
12200.4086116
13427.9368185
13429.3570646
12209.3411787
12209.6468985
12208.1059567
12205.622271
12203.194323
12201.1425886
12208.3289516
12208.4154713
12208.6548179
12208.0309008
12206.6978554
12204.6887839
12202.9191685
12201.6904974
12211.4482457
12209.9976957
12209.5278427
12208.7976072
12207.2049038
12205.0227666
12203.3797978
12202.7655919
12207.1382683
12205.1421307
12203.8533189
12203.8473172
8524.34797711
8527.68710118
7308.08087904
7310.00306734
7310.55717258
7307.10067849
7301.92625928
7299.26682012
8529.45716257
8532.03195711
7308.7835048
7310.64437397
7310.56704903
7306.27432655
7301.46766554
7299.81631519
7310.90666419
7311.13112162
7310.96472017
7310.72041108
7308.86847223
7305.06223504
7301.00320268
7300.50622877
7317.20053818
7314.05247753
7312.70468102
7311.89680337
7310.86727442
7308.64648059
7304.74314033
7300.86124822
7301.64077687
7314.3768128
7312.72654666
7310.82493923
7308.26107804
7304.5505334
7301.6985056
7302.88901076
7306.01185527
7303.54833639
7304.43591221
3629.96826539
3632.82484278
3634.35290765
3637.554348
3640.56368045
3634.9947896
3626.32509572
3624.7580603
3632.97708554
3633.44139813
3635.42442391
3636.00014293
3638.74760686
3640.70176713
3635.03820074
3626.60301126
3624.79455496
3647.98208673
3642.27218585
3638.36044611
3638.39207573
3638.25438207
3638.85393794
3639.61017905
3633.48437941
3625.71962098
3624.65098868
3645.02820652
3641.18403472
3639.6958664
3638.87418118
3638.99974085
3638.2670281
3631.41847821
3624.80769632
3624.57359861
3642.10343135
3640.18770068
3638.50698806
3635.95823633
3629.49863826
3625.45650683
3626.29352649
3631.14170987
3628.27902167
3629.33170409
11.0203005046
11.0443262754
10.2409112652
10.2483476715
13.9637802479
24.6995008127
30.9572307254
31.641444533
11.3886971671
9.39440777398
8.57927568424
9.33688818294
9.33014200279
9.70428748984
14.2110056957
24.6267268281
29.8928217764
30.0369273829
10.1892811311
9.22973565574
8.92077293875
8.60399632719
9.41248879626
11.1166629588
16.0884220611
25.7117050126
30.7069356932
31.9021581307
9.85411527724
11.130890272
10.4558478156
10.6119598427
12.4501530253
18.2199755372
27.0283093005
32.2030242124
35.3047005691
9.13848518081
10.8221389138
14.3288585599
20.8491618423
28.5412124812
32.8535924634
34.4216498429
27.1643220211
32.0990246368
33.5055512644
-27.1410162494
-27.0554884333
-27.0510911805
-27.0396463328
-27.0232059368
-26.9917650949
-26.9932976894
-27.0344077829
-27.1595755205
-27.5118923846
-27.0603161384
-27.0086292625
-27.0087563758
-27.0163621903
-27.0099546994
-26.983722495
-27.006526435
-27.0349368835
-27.1592336685
-27.5079727024
-27.0799979571
-27.0154337034
-26.9992268411
-26.9943941027
-26.9994228178
-26.9886769074
-27.0562979605
-27.0322360959
-27.1681797684
-27.4890066576
-27.0507804081
-27.021032489
-26.9923094674
-27.0046725188
-26.9871940652
-27.0960065623
-27.0359396683
-27.1953115208
-27.5129390065
-27.0097362937
-27.0493750009
-27.0593262179
-27.1847028555
-27.0664607256
-27.2041297014
-27.5958211565
-27.0437486598
-27.1928771593
-27.6275368728
18325.5338225
18324.0788188
18326.3536356
15873.9843184
15875.7226305
15874.6188255
15876.1601205
18327.402467
18327.5950159
18328.3213029
15876.6834931
15874.3826033
15876.9888142
15876.9803033
18327.4231567
18327.784188
18328.3148742
15876.5701786
15878.2133762
15878.5712161
15879.2577759
18329.0660175
18329.3988379
18330.1365479
15879.0357226
15879.0752343
15880.4656148
15881.3828722
13425.1609308
13424.9880558
13426.1594981
10973.4378976
10975.0490183
10975.085312
10976.7456105
13426.4983745
13426.8444878
13428.4089022
10976.048349
10976.5414624
10977.9252787
10978.392438
13428.8505899
13429.6083986
13430.3662398
10978.484996
10979.6190915
10980.785006
10981.149827
13429.7093683
13431.5094349
13434.5508592
10980.4097415
10978.0492953
10981.7466253
10984.1238004
8526.24256604
8526.48974138
8528.22230938
6076.40212698
6078.52161462
6078.53310166
6080.13456503
8528.33353792
8529.56372598
8530.29434042
6080.29338745
6081.09983137
6081.4317299
6083.38894403
8530.83207208
8532.02675634
8532.57915622
6081.07650685
6082.58252412
6083.37729458
6084.39316005
8530.04327078
8533.13958441
8534.73560775
6083.55666394
6083.69374045
6085.34616097
6086.77277708
3627.55530426
3630.05871349
611.716893218
612.230964194
3631.70075071
3631.76205926
3632.89576143
612.773879899
614.555138846
612.753752056
613.841787766
3633.40557984
3633.67513039
3634.33610378
614.766195705
614.379145889
614.075365357
614.218272795
3635.70255118
3634.74602987
3636.14699011
614.340495665
614.934569736
614.229237403
614.947698738
3639.75583421
3637.93017623
3639.97372328
615.512830779
619.807493355
615.51740993
619.815651516
3638.89869505
3640.67854968
3639.1970579
622.504401346
630.735237006
622.656830297
630.596998187
3629.73933054
3635.28689847
3630.08070723
631.427790632
627.138756566
631.245850184
627.209543946
3624.83114231
3626.55865772
3624.86044364
625.478363451
625.064824665
625.569812915
624.018480768
3625.31200592
3624.79836786
3625.37794303
627.509447073
610.625423343
625.934170321
608.464808465
3646.77654206
3642.74474624
623.109239116
616.342796808
621.607653802
619.084603064
3632.29387086
3638.79965003
3636.22166341
614.552963772
612.559418957
618.006569122
615.038474558
3634.69283341
3635.77881905
3636.52259433
612.736719628
613.584164866
614.389204534
614.138249818
3635.8665807
3637.27606451
3637.66402039
613.906244591
614.245613377
614.424789473
614.84159847
3637.19869077
3638.05306165
3638.42270397
614.305715074
615.142677101
614.967310156
615.280889974
3640.27663632
3639.1018811
3640.04164542
615.73325014
620.01824604
615.851802237
620.707760954
3638.9874854
3640.2339024
3638.30949113
622.840649361
630.372782603
623.519575687
630.363110925
3630.13004627
3634.33506917
3629.65082061
630.981824174
627.227623201
630.647943153
626.948321961
3624.87935628
3626.2905447
3624.74483217
625.687543807
624.078098306
625.537347355
624.947683814
3625.58706086
3624.60597668
3625.96275404
625.838650254
607.681469931
626.820874215
608.732907154
3645.26123947
3648.2484506
3646.26927267
621.371804256
619.608712266
620.364455095
620.070711384
3639.80768577
3643.9678393
3641.71019451
618.795423693
616.25097036
619.685671593
618.17106634
3638.15049203
3639.92227895
3638.99832769
615.599242689
614.860343798
617.686115215
616.597092131
3638.43985745
3638.9208694
3638.68934797
614.928448804
615.312919128
616.533316325
615.781808233
3638.28707656
3638.3965324
3638.44248348
615.150492695
615.272340234
615.352413312
615.93184541
3639.70141464
3638.90692418
3639.50084922
615.939559773
621.169795837
616.871838227
622.909124544
3637.39752423
3638.98832034
3636.43099533
624.001521548
630.487813001
625.739092636
630.44446713
3628.85752696
3632.47656401
3628.00923348
630.598130513
626.758880717
629.894826256
626.082468567
3624.35207796
3625.26147836
3624.07137711
625.413674807
625.513931614
624.971248856
627.652537439
3626.67514474
3624.32934529
3627.35798161
627.614904489
610.092275235
630.316068244
614.239403426
620.034072851
619.96152531
3642.98174508
3644.13274371
619.67536127
618.453713939
619.342018766
3640.12157811
3642.55817846
3641.48576522
618.090787926
617.146449167
618.893167357
617.703690868
3639.32591534
3640.89822604
3640.36975477
617.041874468
616.21265512
617.408916658
617.71132424
3638.75414091
3639.60104274
3639.0247918
615.654871173
616.255989501
617.452000565
617.550794738
3639.22450768
3638.81457937
3638.49723343
617.332521939
623.583192144
618.541503634
624.348001739
3635.47711929
3637.07046454
3634.1789852
626.369039093
630.270442212
626.759846677
627.999459794
3627.19697147
3630.2716692
3626.68314326
629.528333855
625.955009857
627.156327097
625.687170106
3623.68122771
3624.58787141
3624.01878792
624.936565501
628.5215551
625.603123999
630.538949111
3628.03908347
3625.09047911
3628.69884581
631.326697527
615.046663313
632.801740463
615.074775576
3641.28482685
3641.51244072
617.546431599
618.233342902
617.798800435
3639.16131119
3640.26942147
3639.24989756
618.208035279
618.049861079
617.906468497
619.465752395
3637.67443228
3638.48358284
3637.39580352
618.921455736
624.201168059
620.532547479
624.189732843
3633.03022833
3635.61037174
3632.93505749
626.263682966
627.185711806
625.202308555
626.425825681
3626.84191686
3629.98062171
3627.900354
626.576268227
626.062339041
626.787782799
628.189475125
3625.14321435
3626.95957109
3626.8003587
626.380695577
630.917934386
628.654546618
632.306266678
3629.35257261
3627.71799529
3630.2286112
632.871605729
614.36635753
633.804877223
613.330638268
3633.75243006
626.73334556
3629.16906199
627.243084127
628.684331492
3628.37644265
629.151955499
632.770494847
3631.59219044
634.188418309
613.544496169
-23.2344901951
-23.2703667454
-23.2453727957
-23.285062337
10.3362010798
9.49092743514
-23.2683013856
-23.2547394578
-23.2738504497
-23.262807844
11.2167768657
9.97072964363
10.2060368269
-23.2525444902
-23.2528835347
-23.2586809613
-23.2519787299
10.6228928357
10.2825711129
10.1511234199
-23.2491445578
-23.2475150659
-23.2466794116
-23.2457581193
10.1069548172
9.91570039598
9.75929932874
-23.2416934341
-23.2378329669
-23.2415639294
-23.2374292732
11.1886884654
9.8749727168
10.8068807996
-23.2319949428
-23.2086331881
-23.2315979712
-23.2093724459
18.9826335208
13.7503365373
18.9011970749
-23.1503065765
-23.0866295884
-23.1559457312
-23.0884066286
29.3833220477
24.4857133483
28.782527915
-22.9832060543
-22.9587548868
-22.9952917397
-22.9636267766
30.7170838372
30.2367664697
29.9210430835
-22.9667026131
-22.9679446085
-22.9715029598
-22.9698148521
32.5414185526
30.4743126743
31.5491475926
-23.0112363175
-22.9263723145
-23.012577005
-22.921912361
10.1786477136
10.7061513352
9.90013603984
-23.2795255674
-23.2838316361
-23.2833974475
-23.2870972049
8.57561380458
9.22991194455
8.52520315437
-23.2881413266
-23.2700849683
-23.2852925002
-23.2723832306
8.96325120021
8.12599821269
8.12440387039
-23.2569392554
-23.2480364772
-23.2618783643
-23.2483231518
9.39228431068
8.48926908013
8.64964745399
-23.2430573341
-23.2422885875
-23.242341849
-23.2382727125
9.36456521919
8.91153175265
9.41580088236
-23.2382812977
-23.2352073596
-23.2320047699
-23.2277573233
10.9845245915
10.2584208321
11.8821810804
-23.2354816364
-23.2071055708
-23.2283843126
-23.1957051687
19.2986613772
15.1543392318
20.0534179247
-23.15595008
-23.0900358192
-23.1462061419
-23.0871184466
28.5731410157
25.1175569961
28.8317812628
-22.9979675343
-22.9733872064
-22.9989037384
-22.9814889025
29.6198171897
30.0830526571
29.9147928463
-22.9780098463
-22.9690219622
-22.9860709017
-22.9721176459
30.9386667525
30.526405694
31.4670831917
-23.0089168916
-22.9172950802
-23.0082926902
-22.9256544953
9.59191310547
9.6863027082
9.56464414692
-23.2833953328
-23.2838181009
-23.2776315119
-23.2725126501
9.11727404061
9.84428242906
10.2153758092
-23.2772329459
-23.2704437419
-23.2681956184
-23.272401352
8.65933502808
10.2617601827
10.0277593231
-23.2673444831
-23.2583522671
-23.2760270321
-23.2699837126
8.88127489834
9.76746056542
9.82528872893
-23.2436038545
-23.2404438808
-23.2564354913
-23.2352140744
10.1513282671
10.1839194077
10.8017027018
-23.2231995137
-23.2142525545
-23.212265134
-23.1990188883
12.8254880604
11.7826437207
13.7121128208
-23.2009331455
-23.1680611234
-23.182397238
-23.1518293118
20.8718056627
17.1008536172
21.7713588494
-23.1291671578
-23.0784667521
-23.1172124745
-23.0681942754
29.354001762
26.3608598515
30.0373625803
-22.9830885554
-22.9758419775
-22.9724809647
-22.9727036571
30.7877965974
31.5061335841
32.0531685113
-22.9864412969
-22.97327123
-22.9911625443
-22.9785305687
32.9908085971
33.8686095447
34.9730355998
-23.0048651386
-22.9382615103
-23.0036362276
-22.9412590661
10.7170027996
10.2632588071
-23.2545518514
-23.2602867197
-23.2431421725
10.9325385011
10.6143634311
10.4324049522
-23.2708401811
-23.2722318908
-23.2509118574
-23.2647141848
10.3413018747
9.91905360389
10.0375797444
-23.250353383
-23.2267406416
-23.2417111665
-23.2248927039
11.2334019762
10.7229407725
11.7347993057
-23.1993998348
-23.1853532842
-23.2043935097
-23.1908970497
14.6886586932
13.2186455689
15.6814347375
-23.1727203475
-23.1449101304
-23.1747460936
-23.1453725537
22.6789428575
19.5120956944
23.8322466697
-23.1131032908
-23.0589193538
-23.1126034628
-23.0510062315
30.7414230742
27.9277140998
31.3658685329
-22.9530377735
-22.9616391765
-22.9447125202
-22.9411244891
33.2722454818
32.6884561411
34.0890528212
-22.9776869563
-22.970926134
-22.9590511639
-22.9618720767
36.0484322673
35.3168402646
35.6182384879
-22.9975346805
-22.9409488387
-22.9943822219
-22.9339447383
9.49393164273
9.95698248623
-23.226454505
-23.2148431661
-23.2271806267
-23.2156735613
12.4198991858
11.2589271629
12.8959945318
-23.2181147289
-23.2130296611
-23.2104927878
-23.2064265595
17.0775352326
14.9356036973
17.7203524657
-23.1998391122
-23.1661719039
-23.1951222268
-23.1617961664
24.8329657859
21.1283647756
24.7466275842
-23.119908832
-23.0524585898
-23.1122194362
-23.0470859992
31.5775457581
28.2774386939
31.2359137068
-22.9461035887
-22.9250936653
-22.9389727516
-22.9180711578
33.8019790699
32.589088733
33.2817559264
-22.942982579
-22.9512902388
-22.9367724462
-22.9497054861
34.7285596672
33.6932232429
34.2944387564
-22.9996395951
-22.9230951676
-23.008893835
-22.9218299804
23.6013270091
-23.0312909015
30.332937257
-22.9430686975
-22.9323138556
-22.959222152
-22.9553248443
33.0699002407
-22.948585514
-22.9585943219
-22.9670691288
-22.965904859
34.3535443442
-23.0225172665
-22.9274103386
-23.0212000548
-22.9352157313
1792.29793783
1792.2033516
610.79142759
611.950620251
1792.93705738
610.919403904
1791.48738656
1793.44281212
1795.52958047
612.140241281
611.617309245
1794.10228932
1794.83472636
611.262931029
1794.86362293
1793.20004649
613.716968823
612.868189452
1793.85839962
613.603406306
1794.35778982
1795.71267511
1796.0010526
614.363756753
614.273803607
1796.27260316
614.068424597
1795.35475019
1795.6528951
1796.14969736
612.856574043
613.362028219
1794.84098509
1796.76481119
613.576469341
1796.30525924
1797.47175534
614.115931963
613.698731248
1796.73632246
1797.20078599
613.943545844
1796.96361539
1796.51000219
614.729919049
614.478972744
1796.69897272
614.425971049
1796.84267287
1797.29643118
1797.43828709
614.541499306
614.246417158
1797.49061527
614.342819076
1797.21675076
1797.35459695
1797.76379566
614.331582046
614.17258589
1797.09764104
1797.99628683
614.290977184
1797.67708502
1798.51442551
614.215944325
614.220968965
1797.90271988
1798.30565758
614.271418294
1798.35038912
1797.88312124
614.382137598
614.199182005
1797.91984211
614.311496241
1798.32974722
1798.95245677
1799.78778148
614.562383771
614.949670274
1799.86693313
614.543130504
1798.90219154
1798.63668163
1798.79595314
614.21935078
614.324102244
1798.23707924
1799.16368867
614.327256105
1799.27009247
1800.59833937
614.942192422
614.520308346
1800.17790323
1799.75959963
614.513174652
1802.1625469
1800.78588519
616.524686333
615.530928992
1800.86107706
616.490146569
1802.0976693
1803.58233283
1805.17684737
617.89297727
619.699813113
1805.42405697
617.769035207
1803.46313204
1802.48629733
1801.55257556
615.535458618
616.453928612
1801.21138453
1802.75797593
616.440071953
1803.86584053
1805.69774223
619.674811433
617.743412326
1805.60893231
1804.0781064
617.678143999
1807.97775071
1806.66278135
625.56275035
622.408098853
1806.96931114
625.530983403
1807.64391429
1807.55688846
1805.32250411
628.802832549
630.749756619
1805.63922592
628.797355811
1807.23165314
1808.1154367
1807.10317023
622.492585595
625.707014675
1807.1228005
1807.99129388
625.571531925
1807.71111018
1805.45111717
630.708185057
628.798820957
1805.74249174
1807.46656521
628.794952743
1797.10468359
1801.74385144
630.498097823
631.396682281
1802.07191488
630.762971224
1796.64240495
1792.02833559
1786.62589366
628.564697611
627.125018957
1787.16558122
629.207187891
1791.4037876
1797.30062082
1801.97586695
631.337573127
630.67268253
1802.12987339
1797.2709149
630.795933652
1792.40539123
1787.90240257
627.141842403
628.951082039
1787.60143535
1792.45582875
629.232819771
1782.83035489
1783.85581622
624.221129332
625.186557304
1784.07355947
624.033403626
1782.86781388
1782.72087931
1782.83975394
624.195869836
624.521567666
1782.85329765
623.670416262
1782.79470545
1783.00284062
1784.88805988
625.194852644
624.126635429
1784.41359657
1783.3583793
623.960833651
1782.76035806
1782.84220679
624.099112225
623.396304577
1782.80120714
1782.93286987
623.377523256
1781.15666868
1782.8045603
631.225225125
626.871195515
1782.68409187
630.453105095
1781.47555375
1777.5472808
1781.79930408
635.601421645
609.806941494
634.894876613
1781.53315879
1777.94203765
1780.99045639
1782.47968345
626.272670866
629.171044996
1782.53285416
1780.84047826
629.627530129
1776.40839468
1781.29286517
609.222086305
633.003870443
1775.97694332
633.571180039
1781.42171983
1809.07904689
1811.34038737
620.997218681
622.123442314
1807.76875546
621.238413807
1811.4115868
1806.4004886
1801.07349643
618.367486911
617.269056504
1804.20799501
1803.56900096
619.523397311
1809.81780381
1811.81512726
621.593818133
620.554408508
1810.53726993
620.915708298
1811.616426
1807.81775701
1807.39051368
618.035558876
619.731105967
1805.64069021
1809.05518168
619.743653217
1799.40426251
1798.57021837
613.015589304
615.331902313
1796.94652656
1801.04520259
614.331098987
1798.64013567
1796.85614929
612.390185192
613.051667109
1796.52724592
1798.53305277
613.443024912
1801.8062201
1805.62711249
616.604357257
616.78461662
1803.48562693
1804.05468992
615.602044675
1800.75751231
1801.87970224
613.930118595
615.825862126
1800.18873384
1802.79905004
614.648314136
1798.91603655
1797.28052998
613.122183991
613.003619898
1797.67616679
1798.68661308
613.167795356
1799.10312321
1798.1954869
613.384713088
613.540094926
1797.91699294
1799.30569339
613.258760095
1800.04047691
1801.3625321
613.556064989
614.172504929
1799.99399927
1801.20986281
613.439841513
1800.17057754
1801.37501379
613.774296004
614.067528716
1800.34739798
1801.27406216
613.547309134
1799.66250622
1798.50801788
614.095579318
613.903396814
1798.75778673
1799.50212229
614.122993039
1799.90763146
1799.15004393
614.204981067
614.372401124
1799.01545282
1799.98354183
614.269548674
1800.6167819
1801.47146174
614.035143965
614.566307268
1800.47368102
1801.53823402
614.222081554
1800.77756795
1801.49003543
614.550579751
614.660888537
1800.77044685
1801.59376002
614.32280208
1800.31353673
1799.34891804
614.447069311
614.493362715
1799.69852795
1800.08923552
614.611125316
1800.69114231
1801.00735801
614.704351041
615.284432675
1800.23403594
1801.31099253
614.863621856
1800.87859165
1801.30498187
614.835643512
615.070220573
1800.82955139
1801.06325607
614.953241496
1801.02423356
1801.17252595
615.36302443
615.106289472
1801.37010408
1800.98422155
615.115764005
1803.01355044
1801.90552439
616.633025485
615.828799389
1802.98032636
1802.06575786
616.761970603
1804.14840173
1805.73778639
617.972149579
620.195074109
1804.2181897
1805.56102536
618.135783695
1802.81624002
1801.70512444
615.789502665
616.958265091
1801.94552241
1802.589136
616.737909739
1803.93993248
1805.16974344
620.401503151
618.554303308
1805.34574553
1803.74919549
618.243226915
1807.32425307
1807.06497593
625.747261312
623.009919369
1807.73605805
1806.80262721
625.882855072
1806.53612737
1804.99010934
628.690667573
630.243165383
1807.07207341
1804.41571978
628.658039497
1806.99671473
1806.29808654
623.217249362
626.379709639
1806.5190287
1806.74978977
626.053153891
1806.13447038
1803.53091292
630.241737189
629.060896216
1803.9428083
1805.85757531
628.743157175
1796.73286738
1801.6020517
630.475437643
630.772912319
1797.13211676
1801.04731874
630.269799838
1792.30230678
1788.11051809
628.78940392
627.113293404
1792.46998904
1788.06598731
628.790119514
1796.21824968
1800.03144763
630.683568436
630.077932339
1800.54988777
1795.67060932
630.123696515
1791.88755129
1787.32345352
626.992642681
628.497129463
1787.79062011
1791.34245253
628.616959065
1783.55924079
1785.16030503
624.28266206
625.511540361
1783.55518237
1785.13379209
624.366340168
1783.07233696
1782.87324464
623.476737577
624.238762387
1783.02264823
1782.92899873
623.698851142
1783.51840483
1784.67792071
625.462811624
624.506527631
1784.97841211
1783.43937923
624.415093943
1783.11950492
1783.10964945
624.489096901
624.12695528
1783.01057114
1783.13380444
623.87978284
1780.59112891
1782.35848822
628.756162593
625.928299628
1780.70000404
1782.31132321
628.73898679
1775.40931225
1781.16344358
632.411410515
607.475259565
1775.71519923
632.246921486
1781.14330876
1780.59535487
1782.6120248
626.218214507
629.630827909
1782.43003002
1780.78248364
628.922207672
1775.33652239
1781.80274841
607.944811612
633.154737361
1775.54532063
632.290066957
1781.35457138
1811.40290422
1811.99491756
620.54718917
621.051355717
1811.07149412
620.855258495
1812.12995349
1810.55527241
1808.70458736
619.984371545
619.760718854
1809.98878809
1809.52782879
620.327480493
1811.60065106
1812.14606476
620.776767444
620.160551023
1811.76650686
620.65236853
1812.20287428
1810.89446284
1810.18474354
619.898110443
620.228298341
1809.94261005
1811.17672382
620.344132859
1806.81932828
1807.18367385
617.871854614
619.286104602
1805.73884507
1808.21597243
618.656933005
1805.50267086
1803.3670046
617.066834844
617.126540547
1804.45696748
1804.29617506
617.887323865
1807.34929302
1808.96108022
619.606725919
619.169216322
1808.72129261
1807.64034484
619.068229466
1806.02431732
1805.11547668
617.737984841
618.595147076
1804.78953426
1806.32314252
618.426909553
1802.75557039
1802.63120027
615.183422441
616.431230622
1802.20125072
1803.37621631
615.887991624
1802.53928296
1802.10986574
614.946570587
615.440474151
1802.08047061
1802.46452552
615.583573387
1803.06524058
1804.09809187
617.090466573
617.097552301
1803.77565873
1803.29859588
616.547037305
1802.71808233
1802.7491441
616.005318751
616.735097884
1802.56061109
1802.88457715
616.256592179
1802.37875567
1802.15075148
615.099022704
615.363368594
1802.16460375
1802.4177835
615.47782284
1802.19652909
1801.78069801
615.257480658
615.465969798
1802.07374243
1801.78226716