/*--------------------------------*- C++ -*----------------------------------*\
| =========                 |                                                 |
| \\      /  F ield         | OpenFOAM: The Open Source CFD Toolbox           |
|  \\    /   O peration     | Version:  v1906                                 |
|   \\  /    A nd           | Web:      www.OpenFOAM.com                      |
|    \\/     M anipulation  |                                                 |
\*---------------------------------------------------------------------------*/
FoamFile
{
    version     2.0;
    format      ascii;
    class       volScalarField;
    location    "3.95";
    object      p_rgh;
}
// * * * * * * * * * * * * * * * * * * * * * * * * * * * * * * * * * * * * * //

dimensions      [1 -1 -2 0 0 0 0];


internalField   nonuniform List<scalar> 
28582
(
19559.6076608
19558.0400837
19559.79633
19558.1044218
19560.248184
19558.2074783
19561.2500583
19558.5960442
557.224052244
610.497307481
-0.0169246773093
19559.7846806
18505.3419316
18402.7356653
19557.7411842
19557.9222863
18375.6390473
19553.3953981
19553.3729897
19560.2019751
19556.6017618
19555.0340131
19560.3894205
19556.5192594
19554.7990938
19561.2214215
19556.3502425
19562.2652772
19557.0700766
638.981139964
-0.0126435790433
0.0647452740905
19561.3507425
19562.1475655
18504.6057315
18489.2685542
19562.3014255
19556.1492793
19557.4769279
19557.0465536
19553.3141878
18177.6385635
19553.4398563
19554.3491468
568.523890928
607.928296726
2.08465753368
2.49407672622
587.163014161
2.86583753082
19560.8548421
19559.0166137
18469.2109276
18475.7457016
19560.3367892
18435.4496657
19559.8799276
19557.7827546
19557.4814155
18432.4771101
18366.261418
19556.5534052
18402.8505267
19558.7380178
19554.4493617
19556.3465889
18341.0130566
18339.1449724
19555.4042221
18322.8065628
19555.3477403
19554.1559456
18300.9088011
18295.545777
19553.8934006
18317.9638923
18309.8813056
19554.4983406
19553.4574698
18294.3010197
18296.9431337
19553.8825211
18312.309444
19553.9530469
18307.4602903
541.535561733
0.982112908816
553.88805382
544.792888413
0.774832137681
0.778225230871
627.338274356
2.84191072482
2.89653985118
659.542730497
4.49431502263
678.75814913
4.33789550038
19561.4917211
19561.2538943
18484.3589016
18527.648215
19560.5289681
19562.0920603
18524.7978848
19561.1394758
19560.1964354
18485.6260494
18536.0579378
19560.1671039
19561.0624651
18530.4588161
18541.4904236
18544.2812961
19561.89545
19562.1549889
18540.6110272
19562.2215635
18537.319207
19553.8935905
18282.7050724
18277.1611976
19553.3025069
18256.2851563
19553.7662359
18256.7993242
19553.128978
19552.2379079
18222.1377754
18189.6698918
19553.2188307
19552.5396939
18226.8216432
19553.8871304
19553.5060016
18281.0576508
18278.9097904
18268.735228
19553.820361
18264.9899214
18258.3470285
18250.1466849
19555.0448511
19553.8760169
18216.3751326
19553.5888509
18244.201718
19554.0928625
19554.6035183
727.760711384
0.140214690331
19561.2873302
18538.7385667
19555.8216065
19553.6799333
18119.4881203
18227.1065198
18008.7093454
19551.0875588
19548.9321238
17891.8702852
17605.8360486
540.35480334
701.945757381
757.280390488
6.43166406645
6.16033203097
8.06011228885
821.416510772
886.89911387
19561.7086447
19561.2602035
18539.247053
18522.2470349
19562.1551313
18534.0274135
19561.0779027
19549.519697
19550.6542694
18037.259808
18137.1912844
19548.2300493
19551.3586289
18080.0573825
19551.4766487
19554.9782746
18180.1595985
18181.3074065
19552.8015117
18131.8542073
19553.7703176
19549.3641384
19548.1635808
17967.1189436
18105.7352847
19546.4195558
18057.0142971
19551.4981129
19539.5510896
19544.3059842
17870.1458288
17780.0567357
19543.1799056
17767.9533471
19540.3998496
19536.1264295
19535.6282019
17579.3523003
17687.3567272
19534.1441745
17661.6476731
19537.21066
19576.4720135
19572.7876059
19570.9420062
19569.0341501
481.113703635
562.263407547
440.10082688
531.306474884
513.141756214
0.0560322765674
0.283287480981
0.103857621369
0.184224749207
0.0625333595575
0.190840514
19577.6638545
19576.6146325
18860.6651459
18874.8219811
19579.155954
18890.1768087
19574.9974841
19573.7343304
18878.8351412
18903.570674
19576.6378313
19574.492373
19574.0213979
18876.6473164
18688.5598705
18906.0299415
18752.3403769
19572.180033
19569.2163198
18654.0342638
18538.8620723
18693.5317862
18533.7682857
19572.3491072
19571.1494654
18919.2209113
18787.5126473
18777.0192447
19568.9086699
19570.1514447
19568.5951127
18721.5295701
18545.0807895
18704.4136457
18578.65108
18685.5138589
18592.5953829
476.625243251
472.611982136
483.797529758
1.13723189472
3.2017411831
2.2888866194
3.92526700102
6.0790622554
6.52780557692
6.3247736545
6.05582972127
457.713770253
440.381733819
523.540170366
462.757783625
506.495001264
2.53382189876
3.89679687356
1.90073496944
3.44276523475
579.749748653
552.401439327
569.976888117
5.77152262358
5.49940090082
5.45165153219
5.28617762766
480.175582227
469.992344628
1.04634806609
2.62005276874
2.13862907541
556.878538626
518.537566799
544.353522092
4.79792236835
5.22639105354
3.86459406147
4.92688027052
19575.8999497
19577.9928071
18845.0897103
18854.2282222
19577.3841466
18836.8656532
19576.4848977
19575.1717155
19576.5196251
18857.1588892
18838.0516579
19576.6947319
19574.9359928
18836.6952854
19578.914527
19577.5583645
18885.3548725
18862.0362268
19578.26542
19577.8205928
18878.0894502
19574.0095579
19575.6361119
18849.8690174
18879.8170267
19574.5860016
19575.0707302
18867.913122
19573.955675
19574.6792361
18899.5114835
18886.2418289
19574.9692331
19573.7519449
18878.8281172
19575.1627992
19576.4100509
18840.9013817
18863.0318078
19576.055346
19575.4018089
18831.050652
19574.4479264
19573.7595357
18752.4427486
18715.2288442
19574.9066519
19572.5222774
18789.5333182
19575.079569
19575.1301935
18887.9990385
18886.6454619
19575.2150376
19574.8264786
18860.5527039
19574.1029532
19572.8401062
18739.8710675
18821.6827284
19571.9658644
19574.0329742
18815.8131901
19569.8407337
19572.6741398
18597.4243414
18602.5843877
19571.5175818
19570.5652785
18558.6114536
19568.7675714
19568.1098915
18535.9216047
18561.3986239
19570.0598179
18571.9876454
19567.4581023
19568.9321163
19570.9971003
18620.9451246
18630.2120831
19569.9118489
19569.3949975
18562.3775073
19568.032794
19566.8646237
18563.4457245
18553.4916405
19568.1479044
18569.0184604
19566.80216
19574.2663012
19574.8700231
18911.6931143
18909.7894476
19574.711612
19574.4550317
18917.2778024
19573.7413124
19572.8637143
18858.7857317
18815.9709212
19574.0983706
19572.6186193
18881.0232563
19573.0061034
19570.8839331
18814.1464502
18849.8848439
19571.9081929
19572.0510235
18873.2631323
19569.4471041
19571.0845312
18655.7900339
18718.054751
19568.9948308
19570.8675854
18632.1026254
19568.0408876
19566.9764519
18573.0014713
18595.630773
19567.6913737
18607.3122144
19567.0163453
19569.1137547
19569.6604435
18725.2467209
18666.1536497
19570.3496613
19568.5622678
18635.4687559
19567.782334
19566.9684521
18604.0930344
18616.6076665
19567.7653625
18610.9797231
19566.9555289
19567.3261935
19568.6268262
18661.0787124
18674.3732404
19567.6324926
19568.040858
18621.768213
19566.7192478
18626.3507177
19567.1774821
19558.4017914
19557.1533303
19555.9810197
19553.4163657
19552.1883289
19552.4930024
19558.6147831
19557.3123702
19555.9439961
19552.9924646
19551.8229184
19552.2107993
19548.5303087
19550.9450323
19549.2761496
19552.8444949
19554.4361258
19552.983794
19551.1589663
19549.1147366
19550.1523762
19553.2005027
19554.4929817
19555.3518943
19554.5444817
19552.780706
19551.0440416
19549.4964938
19555.5144294
19554.9019407
19555.1868797
19554.871571
19553.8130755
19552.245683
19550.7712326
19549.8681292
19558.2167256
19556.6740185
19556.2366229
19555.6212395
19554.2440673
19552.4736751
19550.9661437
19550.6897719
19554.4371333
19552.7157648
19551.3685781
19551.5109138
19546.1628071
19547.4760854
19550.0391685
19552.6268726
19554.3762247
19553.1144554
19550.1457921
19547.3705485
19550.4188219
19550.8103418
19555.6570918
19556.5012922
19555.0661398
19552.5899126
19550.1619488
19548.1186029
19555.2318578
19555.2565515
19555.5520856
19554.9895416
19553.671403
19551.6624285
19549.8935451
19548.6717887
19558.4265339
19556.9778668
19556.5089115
19555.778754
19554.1848204
19551.9998219
19550.3564063
19549.7479133
19554.1245613
19552.1277695
19550.839389
19550.8423919
19544.8658733
19542.7935411
19552.3407908
19554.9331418
19555.5241189
19552.0864552
19546.9096249
19544.2482597
19550.0170521
19550.4521039
19553.3479554
19555.5829489
19555.5336841
19551.2509824
19546.4454122
19544.8025094
19555.8649971
19556.0224603
19555.8741063
19555.6730529
19553.8330972
19550.0317211
19545.9805319
19545.4985839
19562.1639684
19559.0223757
19557.6755801
19556.8704118
19555.8414528
19553.6171765
19549.7124665
19545.8384905
19546.6321499
19559.3540986
19557.705075
19555.8066456
19553.2450154
19549.5356221
19546.6910527
19547.8915142
19551.0163391
19548.5568589
19549.449503
19548.6624149
19548.1534993
19552.2297415
19556.0083605
19559.1277979
19553.5758357
19544.8755689
19543.3822517
19551.5980656
19552.0298002
19553.9653555
19554.5235172
19557.2969257
19559.2956576
19553.5961977
19545.1070475
19543.4479958
19566.5183823
19560.803521
19556.881952
19556.9133233
19556.7878154
19557.3910272
19558.1373491
19551.9383919
19544.126966
19543.1198308
19563.5999562
19559.7273114
19558.2481977
19557.4149544
19557.4978791
19556.7389872
19549.8475407
19543.1763803
19543.0348152
19560.6779003
19558.7639859
19557.0201309
19554.4266826
19547.908767
19543.8371269
19544.7547329
19549.5915135
19546.7191501
19547.8212172
576.236240388
576.084459939
560.239738901
559.605571345
618.786552108
806.947115702
919.865333894
929.480394032
580.242873407
544.134103246
528.609271967
543.815487521
543.322187147
548.249661432
622.587245762
805.845958617
899.980919806
895.941163201
553.203030908
537.615136607
533.626085918
526.752526264
543.489936999
572.358863577
655.946817118
824.584932328
914.71994494
934.217700251
549.492421234
575.939467039
561.863010596
561.524196972
592.54107156
693.692598657
846.419100479
942.735243467
997.175363834
534.559127286
569.041185825
629.848165047
742.233581743
874.572780863
951.532028357
973.107847541
849.313945093
938.002874419
953.128091627
0.0117493606992
-0.073828177404
-0.073591180458
-0.0621463328049
-0.0457059368431
-0.0138260651302
0.0611468018514
0.273684094101
-0.127056461094
1.14653212706
0.0174981231568
-0.0260001446163
-0.0312484894886
-0.0388621902879
-0.0324546994117
-0.00111099692825
0.0823227514636
0.193485820033
-0.129279139037
1.30118242747
0.107022564504
0.00268452799576
-0.0134190620492
-0.00867501956458
-0.0073045556592
0.016626177817
0.0861132668611
0.242217496806
-0.160150223978
0.840849596157
-0.00973003164903
-0.0198878454772
-0.00157587259105
0.011734432144
0.0347434655984
0.144987745123
0.320595481682
-0.174097107748
0.763583485803
-0.0169362697783
-0.0464129926279
0.0128905039055
0.198391726823
0.132392115955
-0.11032910194
1.3299328993
0.00995750932866
-0.12612853464
1.58550114036
19550.0077541
19548.5638431
19550.8385428
19547.4333935
19548.8700627
19548.0869579
19549.31526
19551.867283
19552.0817238
19552.8140183
19549.7514577
19547.4495811
19550.0582113
19550.1748918
19551.9157568
19552.2735984
19552.8085002
19549.9987098
19551.644323
19552.0507612
19552.7217366
19553.5585516
19553.8928869
19554.6294034
19552.4784123
19552.5123499
19553.9258611
19554.8516725
19547.3739635
19547.4932191
19548.1754384
19544.9917983
19545.5683511
19546.4160916
19545.2184034
19546.6892516
19546.8558402
19548.6566133
19543.589955
19544.1045829
19545.230275
19545.6973187
19550.9161485
19552.0157087
19552.7871875
19549.9924644
19550.8194939
19552.2709229
19552.495929
19551.2646895
19553.9213156
19557.0000727
19549.6443867
19545.64422
19552.7215897
19554.9910789
19544.1054948
19546.9836793
19547.4039285
19545.7696945
19543.7233274
19548.0376536
19547.7081206
19544.5136413
19544.7635532
19546.9124875
19543.6595645
19547.850905
19547.5939478
19550.8468881
19550.9958043
19552.5475734
19552.9744068
19550.6519785
19551.6934636
19552.9295045
19553.9140247
19547.590215
19553.1662672
19554.6841497
19552.1324419
19552.4321716
19554.8358057
19556.2433178
19546.9646463
19549.1491134
18223.1758149
18329.0765829
19549.0022982
19550.4340754
19551.0876069
18229.0706134
18274.3616793
18328.4071195
18334.4589238
19549.6298888
19551.3062696
19552.0568436
18284.8679811
18317.9337393
18335.3085369
18348.7724721
19554.1284756
19552.9098693
19554.575549
18330.6867295
18361.6864844
18358.5986102
18393.2386038
19558.2590493
19556.4118223
19558.5151842
18378.6815415
18417.735312
18409.3629858
18457.1000439
19557.4592034
19559.2770009
19557.8200004
18422.3395223
18279.9633825
18462.812683
18283.7801092
19548.3250909
19553.809175
19548.6104441
18117.9190902
17499.8858369
18124.0827474
17578.8702182
19543.420423
19545.1084839
19543.4914162
17414.460301
17385.5427679
17491.350037
17441.1779346
19543.9838781
19543.5310339
19544.2066681
17441.2883152
17420.9208315
17501.4215487
17422.3953325
19565.5391168
19561.4881623
18539.9731011
18424.9495068
18553.0943224
18531.2225227
19550.9187885
19557.5089181
19554.86386
18402.5392129
18378.1035922
18521.3794826
18486.1576441
19553.2577552
19554.3594687
19555.0661787
18372.6394233
18365.8038788
18477.4237002
18469.7113356
19554.3893639
19555.7896675
19556.1550007
18364.5279176
18374.0017288
18463.2200482
18456.7006268
19555.7292937
19556.5294283
19556.9030604
18381.231561
18409.8076576
18451.3090228
18398.9586303
19558.8527194
19557.6021098
19558.5553566
18423.2706946
18459.9644641
18390.7405042
18393.7621741
19557.5646112
19558.7801523
19556.8597796
18455.7677561
18263.3956399
18389.4448082
18195.1782952
19548.5886171
19552.7909046
19548.0710722
18107.2774264
17592.847857
18041.5543956
17563.5434876
19543.4798472
19544.6979479
19543.1833963
17511.1187728
17456.4113598
17486.8483718
17451.3056235
19544.3208407
19543.1742717
19544.5753343
17516.0021673
17417.8049823
17504.1342887
17393.233464
19563.7966862
19566.841156
19564.8517062
18562.2472691
18561.9265186
18583.3792978
18574.5366407
19558.3380675
19562.5328054
19560.2589867
18552.0390308
18499.8548602
18545.9646677
18448.8638251
19556.6754601
19558.4259924
19557.5230947
18486.6668663
18478.4433921
18430.9374776
18412.8313709
19556.967758
19557.4566318
19557.247934
18479.680591
18462.3840447
18422.6552292
18398.1751446
19556.8185276
19556.9548008
19556.9822425
18440.1301399
18372.0697304
18374.0435041
18336.8470933
19558.2506031
19557.4703295
19558.0530489
18364.2826252
18385.8754029
18340.2084794
18360.5616727
19555.8841238
19557.5599888
19554.9756434
18380.6348125
18177.3757079
18348.7013657
18091.9197055
19547.2455636
19550.9305765
19546.3811529
18022.8016897
17544.6963038
17929.0743921
17445.1498434
19542.8028274
19543.6553967
19542.5116286
17466.2001957
17443.9801641
17373.1057921
17368.353307
19545.2127677
19542.8887794
19545.9506922
17489.7975177
17389.4923901
17396.781764
17364.6373671
18597.3739307
18582.3581103
19561.5112625
19562.6751201
18548.5043664
18432.4866285
18496.983981
19558.6376572
19561.0756718
19560.0064047
18414.3965514
18397.9226978
18474.3997607
18450.7875627
19557.8695484
19559.4472085
19558.9397904
18415.2441546
18398.7927005
18466.9078126
18473.0006892
19557.2974741
19558.1830007
19557.5883594
18370.0249384
18338.9135413
18435.6158196
18327.8307008
19557.7522847
19557.3516561
19557.0369893
18338.3088883
18349.4895677
18311.6483943
18277.1208612
19553.926584
19555.5821005
19552.6661829
18335.3873925
18061.2379556
18234.9977544
17869.1276304
19545.558917
19548.6995764
19545.0195197
17898.1647626
17422.1304106
17716.278771
17346.5158776
19542.1352402
19542.9605297
19542.4627513
17353.8373192
17360.7640066
17320.8216211
17369.3820854
19546.5678673
19543.6223081
19547.2698539
17391.0236935
17361.3313092
17420.916887
17383.0349398
19559.883642
19560.1008611
18501.8928377
18508.7745511
18445.2081643
19557.6965632
19558.8341993
19557.7672191
18461.7911905
18309.6022266
18400.3292234
18304.7504149
19556.1513298
19556.9617786
19555.8755317
18279.6747852
18216.8922832
18282.1206216
18162.7106719
19551.4335112
19554.0645472
19551.365887
18167.0700417
17808.2592912
18093.8213924
17794.4432167
19545.219334
19548.3731974
19546.2651075
17673.48673
17361.0811286
17701.8007479
17478.2241064
19543.5895368
19545.3701977
19545.2510962
17347.0967237
17399.7370973
17457.0243093
17517.9046123
19547.8673101
19546.2315607
19548.7898804
17454.185787
17377.6833755
17576.7888865
17303.0609363
19552.2048036
17847.8737025
19547.6150843
17755.2101265
17524.3565199
19546.8358662
17488.509767
17538.996751
19550.1125271
17595.9466612
17287.6627525
4.60546461199
1.33877379129
3.88948199635
0.935171413903
562.417326621
546.895856516
0.078245517724
0.0475894759492
0.0526418553236
0.0397002666971
579.33548536
556.894203564
560.162305154
0.0519195636
0.0570779557907
0.0467141300226
0.0743709563225
567.689280541
561.483030669
559.192367004
0.057546842232
0.056363914005
0.100006121421
0.0955227553714
557.769726432
554.679071368
551.27854632
0.0757901505585
0.188040483734
0.102366520653
0.109353033993
573.3318964
552.387168531
566.043519245
0.371441890092
0.515543310247
0.125126055053
0.364221290179
706.126513053
614.708558415
704.75222784
1.5544110716
5.11275169374
1.84854341383
5.04714261389
890.808331206
803.388883535
879.22120407
8.40514684972
11.2647135337
8.00460683996
10.7283877521
917.532453698
906.446305449
901.97775299
10.2755084502
8.13007016424
9.84934728502
7.99299231996
918.29940809
906.465035718
901.075476393
12.221598682
27.1915138271
12.2583951105
28.0095841397
556.625629997
564.292091606
551.132248968
3.43746010495
1.35111933935
3.59354185187
1.7603240052
527.069294557
539.292663173
525.805741473
0.633827718763
0.0443873360513
1.02451868639
0.354925661971
536.580076615
517.690689582
518.958069503
0.0493468649528
0.0689929290078
0.0479303793516
0.0574028497072
544.696850796
527.131581655
529.535635349
0.0890745297856
0.0992688942715
0.0876480684523
0.117245493095
543.442347693
534.520524439
544.02228647
0.115422754362
0.129877741587
0.208425354536
0.210344194066
568.384110133
558.071150389
585.028739964
0.106780602216
0.606008129986
0.377703428321
1.11754482495
711.489685891
639.934915033
725.449831879
2.37239085336
5.4260565473
2.93347964695
5.81716520677
875.42906495
814.754762194
879.778293849
7.98892689695
10.3687434847
8.37627953121
10.8661601325
895.091018369
903.278892368
900.049571671
9.6497476948
8.20846320456
9.87892258366
8.43027099318
885.402770871
904.211405012
894.769959067
12.91137194
29.0377808672
13.7408167499
29.9545004657
543.186543376
543.598767121
541.970287251
4.15931241081
2.4343153351
4.54824491795
3.6470180201
536.261521748
549.762311689
557.90104445
1.35099388925
0.896858927039
2.60874174423
1.9535553391
528.593956032
559.333232327
554.756270904
0.458261222268
0.129323817115
1.50395262037
0.906500066775
533.460141262
549.881616814
550.382833055
0.0624578547359
0.124205770585
0.459236048858
0.95809588124
556.439693428
555.158367585
564.838811529
0.404664310428
0.938480152854
2.0857419291
3.06827607458
600.645205061
580.647890472
613.835862485
1.35066350568
1.98852811524
3.30552843319
3.43544275555
739.961945751
673.231371994
756.047569163
3.52972410351
6.28854916409
4.59562533666
7.04007678977
887.979957683
835.661800282
900.224043639
8.83403806267
11.4584535341
9.44546849668
11.9992607246
916.652136245
929.497374762
941.306893603
9.7153419301
7.95590140945
10.1827420823
8.17716972382
932.503402983
970.258439533
968.091474693
11.9761615636
25.0294142007
11.812753507
25.3875614065
568.153726419
559.198704156
2.93332427835
2.41324172138
1.96342652664
571.963256472
567.459490815
562.726810463
1.90047560658
1.06010826582
1.40669448368
0.886572202163
558.755844473
550.822614476
552.743638493
0.94165294945
1.68366677436
0.957767252072
1.09948737857
570.852882844
564.091336137
581.630941047
2.70304789032
3.20115151303
1.75923556979
2.23845995026
632.153089308
607.14243439
649.687872852
3.19370824006
3.26969914815
2.56664890518
3.37230617653
771.534789949
717.129193637
791.985329887
4.78884943452
7.55847896493
5.63718280708
8.73612983592
912.371720806
862.592956649
923.066531693
9.88101116834
12.5556509654
10.8822302578
13.275761463
965.004121156
951.599414086
980.007477331
10.5459590604
8.37583240092
10.9522936536
8.64792066601
988.729417823
995.970284944
979.499340982
11.3456809575
24.546563893
11.9774292679
25.5546886508
541.585031831
550.800698104
0.739246556541
0.561540838323
1.1959024222
1.45886242398
598.190721328
576.166101075
606.102371665
0.387796968684
1.15461039131
1.43610289004
1.69148435087
676.963562864
640.455211776
688.416010612
2.11552870578
3.87805352821
2.7031010915
4.52577339774
810.083437551
746.415746649
807.276857556
6.73217692761
9.81953750616
7.21247887941
10.4709113618
927.835603156
869.199206367
921.174023335
10.9992840038
12.5060718031
11.3588957394
12.2992479511
970.449558924
946.012144832
958.352336904
11.6186038736
10.4327609112
11.4147876349
10.8674871348
955.194520847
957.467850894
949.228085821
15.1777389857
30.0661055149
16.6080206783
30.6104038889
785.953513214
8.97183899191
906.044071248
10.1347591634
10.8184605334
8.88282132211
9.72398838391
955.245299111
11.028483366
10.9745124914
10.2164365648
9.52012187404
945.375297247
17.2461627367
33.9890014168
14.159989279
33.1275854157
19546.8480852
19546.894754
18212.5658839
18249.6457552
19547.6682096
18246.2402715
19546.1037512
19548.2632392
19549.807523
18281.210753
18318.6897641
19549.2921433
19548.8164929
18278.9178396
19549.8558836
19547.8747054
18242.8623598
18259.0439524
19548.8196726
18268.9616355
19548.955235
19550.6188555
19549.8227218
18260.6865371
18284.1857575
19550.8846679
18275.5398781
19549.6172433
19550.9266962
19550.8941694
18289.8915147
18330.8917784
19550.1139793
19551.5801371
18301.6162525
19551.5438315
19551.9875934
18313.1935345
18332.7904613
19551.8636529
19551.9252207
18306.9767413
19551.0031643
19550.1327314
18296.242781
18293.4709294
19550.9695117
18301.4183026
19550.4849564
19551.3269015
19551.287541
18307.0814084
18316.4937546
19551.5555102
18309.5394462
19550.9214424
19551.9939153
19552.2595528
18318.5453013
18337.8071076
19551.9769429
19552.5208344
18322.4810047
19552.1964659
19552.9203657
18330.6509104
18342.3786269
19552.3593239
19552.8186863
18326.5215395
19552.5962911
19551.9534727
18341.0259785
18325.0482007
19552.0861815
18335.6841827
19552.4760814
19553.1960072
19553.5508294
18350.949058
18363.0564879
19553.9005348
18349.009298
19553.0005706
19552.9132117
19553.0684116
18337.3772265
18369.7383726
19552.5632402
19553.2876046
18346.2962395
19553.4767492
19554.4951903
18376.2256603
18380.6750496
19554.2112501
19553.7151687
18359.3446451
19554.2907885
19554.037077
18397.5016845
18379.5676948
19554.0176966
18400.9311624
19555.1162458
19555.115372
19558.4885885
18411.3964813
18444.2817503
19556.860892
18423.7598214
19556.4727907
19555.6042311
19555.3478096
18394.3494321
18427.8205305
19554.7704547
19556.518733
18413.270212
19556.9071625
19559.7039441
18447.5721425
18445.9393002
19558.7428954
19557.851649
18430.6987696
19559.3340345
19560.5961487
18422.6634109
18453.3670631
19558.6194744
18443.1658688
19561.8369082
19558.2215023
19557.6189057
18376.7447973
18291.9516768
19555.217275
18389.1761268
19561.0385399
19561.5001293
19561.2082119
18457.9343777
18449.226172
19560.6149369
19562.1363901
18446.876257
19560.7777936
19558.0051353
18290.9956677
18386.5784281
19557.6946113
19561.1469572
18390.4344909
19542.9941985
19551.9340468
17908.2759896
18121.3514198
19549.8944463
17922.7531878
19543.4295207
19535.6697401
19527.0362479
17680.6107616
17542.9926095
19528.2727208
17725.2519985
19534.505685
19545.0503733
19552.9355648
18127.8619029
17937.995857
19552.111569
19545.6683034
17936.2574322
19537.8470627
19531.237475
17569.1721275
17741.3783003
19530.3762084
19538.3155354
17744.5953748
19522.138602
19522.8980081
17359.0659672
17433.6217208
19523.060513
17367.307408
19521.7155504
19522.5703672
19523.9413607
17370.3992028
17408.8315495
19523.6553036
17379.6879212
19522.549088
19523.1705587
19526.2291648
17457.2372272
17432.4667918
19524.9108783
19524.0595366
17389.9868181
19523.5635378
19524.8062622
17423.0215746
17419.7700347
19524.7439214
19524.0714754
17393.8136033
19523.4636344
19525.5373835
17488.4482033
17465.8470323
19525.3078644
17507.5191775
19523.9601246
19518.0810985
19524.3409801
17295.277317
17422.6273926
17311.3886022
19523.707679
19518.8596673
19524.014367
19525.8893887
17482.963351
17529.055842
19526.0507147
19523.9216872
17514.1497745
19517.3948106
19524.1560542
17419.6330873
17320.0760763
19517.2354938
17310.7683431
19523.7792727
19562.5928892
19565.2226912
18503.7865336
18523.1824406
19561.6413757
18519.01182
19565.0697873
19560.3153158
19555.0897104
18456.9348338
18467.2402404
19558.2274604
19557.5420084
18506.4926196
19562.9698833
19565.5322375
18525.7978077
18558.4186651
19564.2192995
18519.8640857
19564.7408567
19561.2402026
19561.5123171
18507.8281551
18542.2489973
19559.0764035
19563.0459506
18521.28928
19553.2323047
19552.3448218
18363.6402558
18419.8973676
19550.5115485
19554.6867602
18413.0657628
19552.4778567
19550.8852929
18368.6461266
18425.055357
19550.0329326
19552.7185391
18420.065894
19555.4487718
19559.7957351
18473.0026817
18509.3805265
19556.8527359
19558.3487922
18455.3157073
19554.9005859
19556.2598812
18450.4141576
18498.9661471
19554.5557717
19557.18613
18454.0766527
19553.5351729
19551.8576922
18370.042299
18425.626016
19552.7003402
19553.347349
18418.2869439
19553.8384762
19553.0215806
18368.2528298
18399.018854
19552.8895993
19554.0355284
18404.181422
19554.538709
19555.6202763
18451.003558
18472.629511
19554.4484264
19555.3652628
18450.867425
19554.4810168
19555.330338
18437.1466394
18469.9582306
19554.8656756
19555.4209084
18444.6912772
19554.3970218
19553.3298403
18366.170735
18397.8119327
19553.6158334
19554.2510367
18398.6608004
19554.5994456
19553.9430932
18369.2307572
18403.5158859
19553.8858788
19554.6317143
18400.7173524
19555.1639101
19555.4374248
18431.3401475
18457.2885461
19555.029806
19555.6055148
18430.7605186
19555.3742304
19555.6878958
18432.6830333
18455.7725294
19555.4198977
19555.7203995
18431.0783926
19554.803133
19553.9586074
18390.0313726
18406.3675439
19554.0231703
19554.7081703
18409.7574149
19555.0835576
19554.8657256
18398.8246705
18423.7293539
19554.297092
19555.580653
18417.2190287
19555.3989324
19555.4968806
18434.2394423
18437.7634209
19555.4766855
19555.2364802
18437.5727696
19555.3609595
19554.8977919
18419.0255461
18420.5181194
19555.3047141
19554.9380307
18430.402676
19556.9410744
19555.5608257
18439.5601833
18431.3174305
19556.5744184
19556.124322
18433.4169765
19558.0122061
19559.391811
18451.9948822
18440.3884533
19557.7496082
19559.2925243
18439.481496
19556.1229843
19555.469151
18411.5196205
18384.0934349
19555.2703858
19556.4215862
18409.5144033
19557.2302554
19559.1163165
18416.0678121
18388.7554524
19558.6907125
19557.6211272
18413.9898786
19560.827348
19560.8126724
18434.6087088
18436.1068431
19561.2887878
19560.4527881
18412.6007006
19559.6454883
19556.775681
18367.7970229
18237.0349512
19559.9758986
19556.5376865
18342.9870745
19560.1707656
19560.179308
18411.3467669
18368.5205837
19559.8872327
19560.4092433
18388.1883401
19558.7744295
19555.3622738
18213.7461348
18303.3189765
19555.6143437
19558.8900018
18318.5892665
19545.010399
19551.7671209
17928.6278401
18081.4166735
19544.9253759
19551.385396
17912.2707203
19538.356891
19531.4042284
17745.0264904
17591.0352362
19537.9277522
19531.8182256
17739.5899062
19543.9043182
19550.1981673
18061.6242245
17873.8008824
19550.5717702
19543.5238093
17892.3701632
19537.1471234
19530.519096
17580.779401
17704.9329201
19530.7374693
19536.7383638
17724.7400322
19524.9151692
19526.7257248
17449.5164141
17501.3665951
19524.4780009
19526.8092031
17444.5058331
19524.4968592
19525.1783561
17434.8967999
17467.9871572
19524.428939
19524.934732
17444.2001684
19524.0580014
19526.174424
17496.9763581
17436.0022767
19525.9040105
19523.773768
17442.6218633
19523.8996961
19524.771057
17469.5858119
17431.3994733
19524.529464
19523.9498251
17445.89529
19523.4705938
19525.8652088
17529.371813
17519.1253307
19523.6911982
19525.7124103
17528.138912
19515.9373324
19523.1541634
17325.4293157
17411.4396146
19516.1197763
17323.1127669
19523.006781
19522.7979147
19525.5179166
17520.1162626
17508.4813445
19525.1854278
19523.0662712
17522.357669
19515.0836367
19523.1701098
17404.0910136
17304.7137518
19515.3832891
17315.6561043
19522.5852391
19565.3100466
19565.792077
18574.3509062
18575.3481636
19564.3948875
18566.1003852
19565.9755981
19564.3543339
19562.7943897
18567.7349619
18585.0248383
19563.6175619
19563.4672377
18577.1286237
19565.6009538
19566.3484553
18586.2395848
18598.901392
19565.8435306
18572.962795
19566.1046843
19564.8785683
19564.5531445
18580.2140894
18596.628434
19564.0951277
19565.4179533
18576.5044954
19560.9384927
19561.3503436
18541.9840303
18572.0563872
19559.8891259
19562.3287864
18547.198274
19559.4553255
19557.3745467
18521.8177272
18494.1579347
19558.5927682
19558.1332829
18520.3812055
19561.3860365
19563.2004204
18559.0199541
18514.7632051
19562.7568833
19561.6044892
18527.2174669
19560.0388111
19558.5466848
18471.5862544
18478.0051054
19558.5638892
19559.8194691
18498.1350486
19556.210932
19556.4873251
18476.524225
18478.1932738
19555.7707351
19556.8711862
18464.7867128
19555.7697016
19555.8438129
18477.5240467
18466.6700514
19555.6419938
19555.7141025
18465.3491409
19556.3983213
19557.3686303
18450.1156064
18412.5854026
19557.1667596
19556.2628216
18434.4512352
19556.0822902
19555.4910467
18433.927533
18409.6296477
19555.8790017
19555.5199103
18435.8702944
19555.9645575
19556.005072
18478.9464507
18468.8541377
19556.1655057
19555.9329395
18471.0786212
19555.8268956
19555.8218732
18473.3167202
18449.7799666
19556.0198362
19555.3523152
18464.6126822
19556.1294393
19555.6873643
18435.7745858
18425.8364309
19555.8434532
19555.7368291
18437.6148629
19555.9428871
19555.0629581
18419.5458707