/*--------------------------------*- C++ -*----------------------------------*\
| =========                 |                                                 |
| \\      /  F ield         | OpenFOAM: The Open Source CFD Toolbox           |
|  \\    /   O peration     | Version:  v1906                                 |
|   \\  /    A nd           | Web:      www.OpenFOAM.com                      |
|    \\/     M anipulation  |                                                 |
\*---------------------------------------------------------------------------*/
FoamFile
{
    version     2.0;
    format      ascii;
    class       volScalarField;
    location    "0.8";
    object      alpha.water;
}
// * * * * * * * * * * * * * * * * * * * * * * * * * * * * * * * * * * * * * //

dimensions      [0 0 0 0 0 0 0];


internalField   nonuniform List<scalar> 
28582
(
1.00000043096
1.00000064309
1.00000093839
1.00000121954
1.0000005926
1.00000074943
1.00000078676
1.00000083412
0.00621671924998
0.0075229167435
3.23117426779e-27
1.00000114641
0.987628235024
0.97401122363
1.00000100193
1.00000067132
0.981979796695
0.999994534008
0.999992694918
1.00000034808
1.00000191144
1.00000216702
1.00000059586
1.00000199312
1.00000205981
1.00000042583
1.00000101833
1.00000020124
1.00000064886
0.00734420527377
2.6324241654e-08
1.70058206185e-08
1.00000043361
1.00000023066
0.984680692188
0.977654456291
0.999993663419
1.00000086365
1.00000060983
1.00000099808
0.999993549227
0.970778746271
0.999993533275
0.999995747287
0.00647806750078
0.00690357177462
2.37313808731e-08
1.17761424719e-07
0.00697420757148
3.43962586296e-09
0.9999926885
0.999996168855
0.984724627291
0.97563126622
0.999997189536
0.977888479629
0.999996237309
0.99999647468
0.999990831004
0.972750350477
0.983207332115
0.999994139807
0.984864955574
0.999993836121
0.999989940813
0.999993352868
0.982347287234
0.970458432275
0.999991466754
0.970805329441
0.999992674296
0.999994387527
0.969497242995
0.980664907901
0.999992470585
0.970467457374
0.97902652806
0.999991323458
0.999995330025
0.98096786388
0.971822689249
0.999990868694
0.972148345876
0.999988903175
0.979655795438
0.005866077946
2.25480761874e-06
0.00569546792417
0.00586274903288
9.0074092964e-09
1.31633862962e-08
0.00699443774087
1.73656196178e-06
1.12736948171e-07
0.00663111913558
3.36609846373e-06
0.00692162663187
1.26916537124e-06
0.999994674065
0.999990262145
0.98545849708
0.978764629378
0.999994859802
0.999994453506
0.979335191469
0.999996401589
0.999995966248
0.977010677102
0.984102130957
0.999995417468
0.999995609114
0.985446733836
0.978219856183
0.980603616351
0.999997558624
0.999995885667
0.985222223423
0.999997893121
0.987155214725
0.999995041139
0.978841074906
0.970253899462
0.999992221757
0.980370760478
0.999991004542
0.970635951397
0.999994622277
0.999989626285
0.969096291501
0.979670876325
0.999993897869
0.999997704829
0.980680595863
0.999996130769
0.999998852571
0.970686318823
0.981116066002
0.981951806301
0.999993939045
0.971458664114
0.972205117673
0.975950524985
0.999996200702
0.999995174934
0.979311226924
0.999992735496
0.981796513859
1.00000095835
1.0000005935
0.00694935849291
1.17930282031e-08
1.00000057427
0.987319518224
0.999999941833
0.999999902496
0.980337879953
0.983962683362
0.968307107235
0.999999459733
0.999999654691
0.979477296548
0.96353518002
0.00617067343757
0.00698728098347
0.00739939196729
1.66412664678e-08
3.38240550856e-06
4.42557102378e-07
0.00817589596264
0.00850397847653
0.999994116868
1
0.974706003565
0.984492036245
0.999996327279
0.976730734141
0.999993178539
0.99998168585
0.999990262592
0.97789144859
0.967129910049
0.999982969081
0.99998257208
0.970767712748
0.999989905673
0.999991162143
0.966556248529
0.977398537583
0.999996123812
0.971980430498
0.999988969663
0.99999278452
0.999975728926
0.976421594194
0.961810187375
0.999995563546
0.981314097996
0.999982609666
0.999990204001
0.999980985375
0.960445867966
0.973745369575
0.999990088846
0.965792774841
0.999986500995
0.99999396021
0.999971435454
0.971791461052
0.956940454693
0.999996282792
0.977017756873
0.999981735222
1.00000288869
1.00000112762
1.00000061438
1.00000063944
0.00921116691689
0.00856730254947
0.00709282776547
0.00577664005659
0.0041872704136
3.28542377332e-09
1.24773336872e-10
1.28325208248e-08
2.17299046144e-09
3.52051233312e-08
1.45660620207e-08
1.00000196381
1.00000162784
0.995550911964
0.994734851477
1.0000020855
0.995533062983
1.0000005956
1.00000120998
0.994075172735
0.994967921807
1.0000028051
1.00000266348
1.00000277549
0.99459565836
0.997044763194
0.996163685116
0.999209178369
1.00000331985
1.00000301893
0.997343762628
0.99818637989
0.999111887476
0.998062897462
1.00000151435
1.00000119942
0.995336780129
0.998053997241
0.998562696847
1.00000070721
1.00000137227
1.00000064127
0.998196736662
0.996535082415
0.998445878141
0.994537439467
0.99791669222
0.992305655692
0.00920510363293
0.00936556616606
0.0102165050908
2.95301379365e-06
1.11381720528e-07
2.57646457169e-08
3.36361489647e-09
3.2469588693e-10
4.52537516784e-10
3.26109146325e-09
8.76638172417e-09
0.00826065981749
0.00764436361978
0.00894941374752
0.00797574463273
0.00738019592498
6.47600251985e-07
7.68153555807e-08
4.72659079739e-06
8.70888476017e-07
0.00736413124335
0.00711593605771
0.00657717616498
8.51092471792e-08
1.63676411375e-07
1.76989356445e-06
5.83030386597e-07
0.00656449291309
0.00501421410183
2.14777542066e-06
3.24770819553e-06
1.80439025936e-06
0.00594398099783
0.0050621081634
0.00553267881658
3.3670712041e-07
1.27744647405e-06
2.56800829451e-06
1.5744499696e-06
1.00000094481
1.00000460836
0.995192163407
0.996083024178
1.00000562708
0.995678441809
1.00000196944
1.00000076786
1.00000261731
0.994919240301
0.993963707678
1.00000394001
0.999999636572
0.994636124591
1.00000451822
1.00000579236
0.995562546912
0.996240116916
1.00000594316
1.00001002475
0.996558872109
1
1.0000000814
0.993452208302
0.995152620753
0.999997567017
1.0000005729
0.994599995217
1.00000009756
1.00000366138
0.99468348893
0.994101552149
1.00000532219
1.00000028039
0.994397317479
1.00001081007
1.00000310807
0.995416637111
0.995783760827
1.00001038623
1.00000718148
0.996689900255
1.00001381643
1.00000992515
0.996482908311
0.998075219853
1.00001260529
1.0000127827
0.99747921953
1.00001198474
1.00000504536
0.995336381283
0.99730937991
1.00001167537
1.00000561175
0.996682117534
1.00001125808
1.00000495166
0.998790020469
0.998232916595
1.00001067451
1.00000582271
0.998037550175
1.00000843966
1.00000764346
0.997810311111
0.997953136817
1.00000567541
1.00000948483
0.998221216348
1.00000474204
1.0000031592
0.997372957024
0.996411939327
1.00000632759
0.999085390468
1.00000615518
1.00000555669
1.00000424884
0.998706830533
0.998325325205
1.00000807061
1.00000292194
0.998843192461
1.00000612068
1.000002801
0.996477448001
0.99677308028
1.00000371181
0.998814174986
1.00000465436
1.00000395055
1.00000502913
0.996103852569
0.994768484349
1.00000781517
1.00000682081
0.995318769549
1.00000332754
1.0000051215
0.997175006823
0.99796457298
1.0000070831
1.00000421801
0.996710350124
1.00000376508
1.00000384823
0.99828885341
0.997779068716
1.00000353888
1.00000467892
0.997805712814
1.00000080521
1.0000034785
0.998124290078
0.998220521139
1.00000078135
1.00000025459
0.998623164703
0.999999889723
1.00000142416
0.996305503114
0.993952782069
1.00000043718
0.998148429289
0.999999523478
0.999998484441
1.00000252538
0.997822374657
0.997089362296
0.999999625102
1.00000003501
0.997615366717
0.99999884892
0.999999802181
0.994766694982
0.993831516054
0.999999601017
0.99674844801
1.00000046732
0.999999372832
0.999997527251
0.996977992807
0.9955879933
0.999996942027
0.999998689787
0.996057082687
0.999998403404
0.992520546314
0.999998841786
1.00000102619
1.00000110688
1.00000098043
1.000002144
1.00000195699
1.00000173672
1.00000098198
1.00000104651
1.00000099561
1.00000190478
1.00000159334
1.0000011297
0.99998737654
0.999998806239
1.00000066972
1.00000142103
1.00000172029
1.00000201007
1.00000211666
1.00000209432
0.999990012065
0.99999399129
1.00000020497
1.00000050868
1.00000079835
1.00000095203
1.00000097671
1.00000074842
0.99999993068
0.999999982435
1.00000029164
1.00000055899
1.00000075455
1.00000084671
1.00000084543
1.00000066034
1.00000045382
1.00000057302
1.00000071481
1.00000089186
1.00000065239
1.00000077867
1.00000077608
1.00000060536
1.00000127267
1.00000112694
1.00000095968
1.00000059896
0.999993493914
0.999998948858
1.00000079846
1.0000014241
1.00000165785
1.0000018771
1.00000216528
1.00000192421
0.999991008731
0.999998824425
1.00000047949
1.00000065324
1.00000086588
1.00000094265
1.00000087347
1.00000056834
0.999999876086
1.00000014593
1.00000055742
1.0000007245
1.00000087486
1.00000092595
1.00000088035
1.00000063206
1.00000056837
1.00000058059
1.00000067485
1.00000080169
1.0000008404
1.00000093909
1.00000089189
1.00000068968
1.00000101531
1.0000008483
1.0000007213
1.00000047426
0.999996795439
0.999999797954
1.00000023674
1.00000034403
1.00000045366
1.00000093149
1.00000135864
1.00000132761
0.999998077846
0.99999985751
1.0000001317
1.00000020959
1.00000041318
1.00000044064
1.00000070874
1.00000071249
1.00000009411
1.00000029312
1.00000049702
1.00000053358
1.00000061111
1.00000062621
1.00000062716
1.00000059555
1.00000013411
1.00000066071
1.00000046254
1.00000048683
1.00000057886
1.00000072503
1.00000075138
1.00000079736
1.00000076014
1.00000073748
1.00000079727
1.00000080111
1.00000068147
1.00000055814
1.0000006551
1.00000061497
1.00000089582
1.00000069914
1.00000052732
0.999999797716
1.00000007135
0.999999958438
1.00000024628
0.999998919957
1
0.999997988981
0.999999753145
1.00000179832
1.00000086199
1.00000205787
1.00000196925
1.00000030582
0.99999995254
1.00000002545
1.00000029211
1.00000164845
1.00000040566
1.00000061664
1.000000933
1.00000123284
1.00000087635
1.00000079983
1.0000007398
1.00000074875
1.00000111243
1.00000160666
1.00000103844
1.00000116608
1.0000012233
1.00000151676
1.0000015926
1.00000145659
1.00000130236
1.00000164061
1.0000024136
1.00000017785
1.00000059533
1.00000135302
1.00000132954
1.00000134137
1.0000014728
1.00000194301
0.999998916914
0.999999407486
1.00000036099
0.00896836601992
0.00857468065031
0.00764558352547
0.00763996992294
0.00782536377382
0.00894397910572
0.00992742660833
0.0126053214095
0.00671460297232
0.00733776058962
0.00817854959261
0.00831152841127
0.00792109537685
0.00746618890119
0.00804023424262
0.00856600073625
0.00960900025828
0.0128452414998
0.0064071271903
0.00714024505934
0.007509742128
0.0073422061636
0.00731281602422
0.00768880887226
0.00818363089537
0.0087367840015
0.00969829490384
0.0129271440649
0.00665666928113
0.00696337152056
0.00717805919341
0.00742573552547
0.00771148289258
0.00815441524648
0.0088179249452
0.00999362622986
0.0133765408367
0.0064291383263
0.00729883251757
0.00759531342906
0.00783505668643
0.00840754483511
0.00952072087998
0.0129470851321
0.00767775322435
0.0088261577133
0.0127411021372
1.64768734729e-09
4.67974668951e-08
3.29602027892e-08
1.89195504096e-08
1.80270314919e-08
1.63147069058e-08
4.12315571309e-09
1.41111818379e-08
7.02323822987e-08
9.70563388879e-07
1.11755317615e-08
2.5672482304e-08
2.07499207417e-08
1.66064620202e-08
1.23296375158e-08
6.08688877879e-10
1.20844151984e-09
3.1214993109e-09
6.63761438881e-08
9.3017765363e-07
1.24965729182e-08
1.10483202065e-08
2.02149474295e-09
1.68167387409e-09
2.19648170886e-09
3.06533892952e-09
2.94853594292e-09
2.33987483751e-09
2.83938346677e-08
7.52462993075e-07
1.51011710189e-09
9.60063442333e-10
1.86725109914e-09
3.82982599563e-09
3.96257894695e-09
3.4808075968e-09
3.3967940818e-09
3.19238435514e-08
8.00010106208e-07
2.9332347037e-09
7.98277273234e-10
2.21170664487e-09
2.34639171888e-09
3.84641093046e-09
3.31205093683e-08
7.06100142508e-07
1.46968320043e-08
8.02587615386e-08
1.08498832159e-06
0.999996181188
0.99999203226
0.999990302423
0.9999898372
0.999996205507
0.999986930182
0.999994543813
0.999999434088
0.999992180674
0.999997820365
0.999997494922
0.999999159347
0.999997238691
0.999999623347
0.99999010928
0.999994732886
0.999996979592
0.999989608785
0.999990721321
0.999994843773
0.999997310146
0.999998696681
0.99999903949
1.00000053054
0.999995121561
0.999999507582
0.999999767926
1.00000100083
0.999997585858
0.999991522844
0.999997004715
0.999994128487
0.999998565894
0.999993695182
0.999999366887
0.999999802343
0.999998873459
1.00000028583
0.99999982473
1.00000011939
1.00000019123
1.00000115857
0.999996603141
0.999996223356
0.9999981136
0.999995028976
0.999998547219
0.999997301383
0.999999470641
1.00000044564
0.99999988319
1.00000086475
1.00000012673
1.00000106491
1.00000044839
1.00000116559
0.999999764981
0.999997590242
0.999999905701
0.999997965168
0.999999786662
0.999997269649
1.0000004092
1.00000049853
1.00000087923
1.00000070411
1.00000065366
1.00000061558
1.00000157323
1.00000122379
1.00000024456
0.999999092571
1.00000014789
0.999998338927
0.999999997789
1.00000054161
1.00000087642
1.00000041674
1.00000106669
1.00000107814
1.00000146007
1.00000123121
1.00000101758
1.00000130174
1.00000121739
1
0.960119337852
0.96510103383
1.00000040847
0.999998962232
0.999999236807
0.969956310689
0.957843820817
0.975485113552
0.963828400637
1.00000017832
1.00000062244
1.00000013879
0.973082880758
0.960272216891
0.976012394752
0.962318015203
0.999999482897
0.999999736036
1.00000079161
0.97595512608
0.964636295164
0.978184126884
0.964622033233
0.999997750973
0.999997711111
0.999997048618
0.978936309599
0.967078909977
0.978938973632
0.964186219863
1.00000003939
0.999997716727
0.999997525841
0.979519294566
0.96286420446
0.977120750982
0.961404341908
1.00000045015
0.99999782829
0.999998206168
0.975767474225
0.95814415267
0.974187009779
0.959595997035
0.999998335937
0.999999189491
0.999997460802
0.971666133936
0.954668573388
0.972376300049
0.957093420774
1.00000005098
0.999999099151
0.999999598339
0.967907464522
0.947190350902
0.969262005469
0.948039962077
1.00000359222
1.00000249113
0.997863457417
0.973615168924
0.997964556006
0.981012705542
1.00000167036
1.00000287313
1.00000093083
0.981854985987
0.966323752306
0.986265951048
0.967191897306
1.00000187065
1.00000028477
0.999998920434
0.977286320877
0.965362611176
0.977917124931
0.965535333697
1.00000220926
0.999999864801
0.999998697628
0.977255075254
0.963702792676
0.977482050154
0.965636271925
1.00000040298
0.999999179573
0.999998785146
0.978777603997
0.964538779275
0.977843932318
0.965667163873
0.999999457799
0.999998821365
0.999998342393
0.978990634949
0.963691272725
0.976997135624
0.963262798608
0.999999481779
0.999998645069
0.999998557467
0.976522203144
0.961057137812
0.974308837627
0.959976393364
1.0000004398
0.999998808204
0.999998423576
0.97384452596
0.960010458653
0.971624104498
0.957131779003
1.00000136635
0.999999165474
0.999998615237
0.972268913298
0.957536160461
0.969707096755
0.954822763341
1.00000213015
0.999999286082
0.999998390764
0.969500211882
0.947967597424
0.967222040866
0.944943893448
1.00000113501
1.00000076007
1.0000001255
0.996055921486
0.981974780092
0.995190935933
0.98274796676
1.00000091196
1.00000120777
1.00000034424
0.987295564341
0.969069277971
0.986560391933
0.972885949478
1.00000138747
1.00000123236
1.00000064828
0.978887471581
0.966302585864
0.979947765947
0.96834270328
1.00000093275
1.00000091973
1.00000028889
0.977519042083
0.966347210667
0.97716047145
0.967453573834
1.00000050374
1.00000055311
1.00000006974
0.977671995214
0.966096214069
0.976671144108
0.966536875655
1.00000050166
1.00000046071
1.00000002201
0.976965110694
0.963832197384
0.975940649227
0.964423838868
1.00000057731
1.00000021899
0.999999711481
0.974658624813
0.960516773511
0.974290174121
0.960983403012
1.00000091831
0.999999924921
0.999999482985
0.971863823659
0.95707176027
0.971449378101
0.956567467368
1.00000144103
1.00000034808
0.999999964387
0.969477688965
0.954245813262
0.96816532342
0.952120730266
1.00000026979
1.00000078784
1.00000006343
0.96690512905
0.943767076385
0.964402479371
0.940070946128
0.993344132915
0.981388233169
1.00000210573
1.0000005051
0.985921479547
0.974186445309
0.97827108225
1.0000016094
1.00000052051
0.999999674654
0.981122236298
0.97005433564
0.983711794506
0.976050006926
1.00000192983
0.999999616788
1.00000002435
0.978576144685
0.96866366391
0.982108485773
0.971002632068
1.00000209983
1.00000112071
1.00000089329
0.97770399036
0.967416432257
0.978952548511
0.968565528111
1.00000194686
1.00000127619
1.000000804
0.976744992177
0.96513766308
0.97723972012
0.966280742229
1.000001691
1.00000101445
1.00000050233
0.974963565718
0.961580454779
0.975544045386
0.962177160433
1.00000192316
1.00000060389
1.00000011906
0.972082143691
0.957092818683
0.972651000718
0.957791627534
1.00000266903
1.0000007783
1.00000048191
0.968627010208
0.952533742106
0.969546943414
0.953317932412
1.00000136255
1.00000117717
1.00000066857
0.964763331121
0.940348711506
0.96559700563
0.940948726782
1.00000060903
0.999999611396
0.983990355098
0.971400560639
0.972965825354
1.00000175075
0.999999806742
1.00000000878
0.979740849036
0.969267265303
0.98117048478
0.969323934268
1.00000176046
1.00000021969
0.999999201005
0.978103080012
0.967127679323
0.97833020718
0.969029249346
1.00000155117
0.999998445795
0.999999052523
0.976455389483
0.962860426474
0.97870751476
0.965209980092
1.00000170987
0.99999916607
0.999999121675
0.973483010962
0.958684830306
0.976251429048
0.962311365609
1.00000212391
0.999999562819
0.999999334064
0.970494414092
0.954284508594
0.973794687239
0.957723951585
1.00000084387
1.00000012045
0.999999596346
0.966571899626
0.942141630419
0.96940933718
0.945755164234
0.999998341315
0.966443200389
0.999998267807
0.977541989868
0.964067656239
0.99999984892
0.974871850835
0.959361802155
0.99999930725
0.970158754329
0.947397646016
1.51567791619e-08
9.44820379296e-07
5.22784819825e-08
6.96136224626e-07
0.00816966568897
0.00761795736123
1.79891324856e-06
5.62023791868e-06
3.7681273616e-06
3.9752503384e-06
0.00901085650765
0.0082365516727
0.00902362045988
2.80879245724e-06
1.22000004568e-06
5.21578390148e-06
3.46564643335e-06
0.00834616088591
0.00886976499149
0.00860928892911
1.03036285374e-08
2.85390291707e-07
3.2413736135e-06
3.4091340342e-06
0.00778559573499
0.00817408784598
0.00761830094088
3.21585441546e-08
2.2565835169e-06
4.13940832716e-06
1.1959226464e-06
0.00774731684486
0.00769697605119
0.00762557617282
3.2606721559e-06
2.35827645396e-06
1.66850215521e-06
1.34156879157e-08
0.00847518810604
0.00780800570498
0.00817638716115
5.24367012798e-07
1.85549738062e-06
7.58470650914e-08
9.87402271961e-09
0.00941258441457
0.00862199186997
0.00901578502993
1.1527265851e-06
3.1153593446e-06
1.33437559438e-06
1.63248835203e-06
0.0108791933251
0.00950085059785
0.0107688533358
2.64647682087e-06
7.48106249536e-06
4.66778238624e-06
9.74377499618e-06
0.016658203842
0.0127784267317
0.0168137294499
1.69130165662e-05
5.37617028555e-05
1.95490732183e-05
5.72405042871e-05
0.00679424654967
0.00642795564509
0.00676557829503
1.75307836732e-07
8.08830520785e-07
2.81973022605e-06
1.53763119694e-06
0.00801814586431
0.00723185010669
0.00782603565614
1.75030101605e-06
4.3536762728e-06
2.17964422012e-06
4.11623941083e-08
0.00817087341523
0.00767123852418
0.00756131005192
3.68650839369e-06
3.91468291101e-06
1.32697006961e-06
1.71258423616e-08
0.0081790821337
0.00731507000332
0.00734703700286
2.7392566217e-06
3.8024328138e-06
3.47396356695e-07
8.72403484937e-09
0.00780317959645
0.00724435513995
0.0073261915884
3.02367399629e-06
2.99777219796e-06
2.55871548399e-07
9.28222753165e-09
0.00778411551716
0.00754562616924
0.00784668523386
5.59147487109e-08
1.43347235011e-07
1.94167631616e-07
7.9136239984e-09
0.008415584982
0.00814951153096
0.00836499214887
5.23726723099e-09
2.47405686035e-07
2.23730701708e-07
5.08337331989e-09
0.00893158134775
0.00862134523878
0.00886737244772
5.09442624503e-09
1.76366848526e-06
1.6734802987e-07
1.0068401898e-08
0.0108245320857
0.00947483374093
0.010589234588
4.32628122552e-06
1.02648224099e-05
2.44967398012e-06
5.06162903159e-06
0.016892399088
0.0125881256546
0.016563032792
1.98533007587e-05
5.81102024516e-05
1.61229385285e-05
5.06371779689e-05
0.00662644857862
0.00561082031384
0.00644441277731
1.38994502749e-06
3.21772553503e-06
5.50127286486e-07
2.41633859376e-07
0.00742868576727
0.00698088550293
0.00724695145555
8.12610905718e-08
5.13544411465e-07
2.50483672982e-06
4.27306998034e-08
0.00741532809399
0.00730282544454
0.00742978589762
1.31043560232e-08
1.82746040386e-07
5.91389544136e-07
1.66783258855e-08
0.00731979559417
0.00740931735317
0.00736961798417
5.73898860007e-09
2.32667789713e-07
3.80365030702e-07
1.35934121781e-08
0.00749819707974
0.00745668462484
0.00752146575222
4.19150280238e-09
3.29953379309e-07
4.17720080703e-07
1.58077305613e-08
0.0080514598315
0.00777964355068
0.00792305194261
6.49275697951e-09
4.94537788207e-07
6.57178827886e-07
1.20959713364e-08
0.00858458938144
0.00826968676647
0.00845012301164
6.37886905308e-09
5.19542018262e-07
6.48391698818e-07
6.12868998746e-09
0.00921305186863
0.00884991336488
0.00919983185575
3.62414581519e-09
4.92199215833e-07
4.81698185114e-07
1.10327583021e-08
0.010974012646
0.00997990786748
0.0111775293683
2.07782116173e-08
5.68807920276e-06
1.81455643521e-06
3.99998111019e-06
0.0168034419118
0.0131216160159
0.016941810456
1.16983379891e-05
5.02505638444e-05
1.49424439471e-05
5.04592507498e-05
0.00683566089763
0.00662847686822
2.99601037643e-08
6.4339825112e-07
3.0517491355e-09
0.00715982025614
0.00646018044493
0.0066283150256
1.52608415718e-08
4.1854609084e-07
4.05175225463e-09
1.85071896022e-09
0.00738932450898
0.00707566022687
0.00711122538483
9.53940156264e-09
4.54274642043e-07
2.64161217273e-07
8.49813560733e-09
0.00773206573933
0.00734928196562
0.00745072044803
1.07210342974e-08
9.17007496887e-07
4.04714885201e-07
6.79674369108e-09
0.00804919452855
0.00772912971215
0.00773658972511
1.12095163901e-08
1.04900429255e-06
5.87750727388e-07
1.11752479596e-09
0.00862715661945
0.00806567956764
0.00825455654785
1.28227561861e-08
1.04264042398e-06
3.47894556624e-07
2.45950265131e-09
0.00941811005383
0.00867305776167
0.00901961761837
5.40876952516e-09
1.16907831004e-06
3.7989890437e-07
7.41633749669e-09
0.0114382340643
0.00987303041709
0.0110949635864
1.65616825372e-08
6.8736752099e-06
1.72237751035e-06
3.56317915563e-06
0.0172557597095
0.0131667324516
0.0169690512828
1.35077928588e-05
5.42860633978e-05
1.49263903918e-05
5.01494683396e-05
0.00738203222252
0.0069573984468
6.68611950427e-09
6.04890304672e-07
1.32479828125e-06
9.89977411395e-09
0.00759357556514
0.0072917803354
0.00747413347272
1.21912894148e-08
5.66347886257e-07
1.2136173596e-08
7.00558573384e-08
0.00781659668792
0.00745392275867
0.00721250824369
7.84015790792e-09
4.17807400445e-07
4.96094660544e-07
2.57610317194e-09
0.00833432371346
0.00740746802397
0.00753517086792
7.20437351662e-09
6.99339588605e-07
9.76029801764e-08
4.43404558469e-09
0.00898012205761
0.0079826605652
0.00826319373956
7.52249863289e-09
1.06872493685e-06
6.37572556275e-07
9.49053807606e-09
0.0109905652259
0.00916498695827
0.0104049204274
2.47359273106e-08
6.66714921621e-06
2.9598238673e-06
4.17206362162e-06
0.0168884979865
0.0126415224333
0.0165614393629
1.16126439869e-05
5.05465202632e-05
1.42092851034e-05
4.70304698089e-05
0.00773575914817
9.06608735202e-07
0.00827007544076
7.04199881445e-09
2.39439382305e-06
2.69752315236e-06
2.65155191676e-06
0.0104745963023
7.32754506073e-07
8.62085138694e-06
5.96347012037e-06
8.71385974423e-06
0.017159195852
1.65331138818e-05
5.88842144098e-05
1.81968011274e-05
6.07685917291e-05
0.999968396905
0.999981024125
0.949158198072
0.965384520706
0.999976921643
0.973147424063
0.999985894881
0.99996645697
0.999983642195
0.968560644978
0.955589877194
0.999977034561
0.999996366765
0.974338251671
0.99997423412
0.999984379131
0.962505931789
0.950106268493
0.999965298108
0.961382430086
0.999983622402
0.999981629669
0.999976925059
0.946383514381
0.964840264253
0.999984954641
0.972114114585
0.999972928811
0.99998161302
0.999979195516
0.953688009681
0.968145694848
0.999983626741
0.999984800631
0.964298830585
0.999986661943
0.999973747147
0.965904543471
0.952843506721
0.999992540171
0.999985300332
0.973412438054
0.999979975412
0.999983735725
0.968572300463
0.949019427519
0.999976529328
0.959109133545
0.999986733766
0.999986333421
0.999980102616
0.953237115588
0.971148306805
0.999985835601
0.974993715181
0.999979970106
0.999985257306
0.999977866527
0.949949196368
0.968855729267
0.99999094053
0.999992689612
0.960906453935
0.99998873748
0.999978691862
0.970901593716
0.952764908322
0.999993942822
0.999991648625
0.976076742777
0.999979944439
0.999984994
0.973509137719
0.956528226362
0.999978406581
0.963522411159
0.999984749783
0.999975444343
0.999978217751
0.959396273163
0.974849102418
0.999969346614
0.978080151995
0.999991206295
0.999983896989
0.999983399565
0.955092846168
0.972782220244
0.999999094985
0.999980739612
0.963383230207
0.999971416044
0.999991498834
0.975005410074
0.956758831525
0.999986515689
1.00000013852
0.978711343739
0.999988333354
1
0.975286494037
0.96054644115
0.999998797995
0.966597286847
0.999993254837
0.99999016823
0.99998270249
0.96072545549
0.974653030137
0.999992914414
0.97926440642
0.999992853405
0.999985649852
0.999993621892
0.959767324276
0.974597858413
0.999986227358
0.999993269065
0.965645102436
0.999991428455
0.999985761078
0.97529137293
0.958767735872
0.999989605185
0.999987007273
0.978845975263
0.999985184335
0.999981577073
0.97460435585
0.958828481524
0.99998583422
0.964805741217
0.999983793535
0.999990763664
0.999974372488
0.957721943614
0.972562687544
0.99999376822
0.976894692168
0.999979432235
0.99998327153
0.999985915745
0.959565992273
0.974179598381
0.999981559983
0.999983322645
0.963531872147
0.999989749318
0.999981730726
0.973308976042
0.957946384529
0.999989131979
0.999982098378
0.976262351495
0.999978070872
0.999977083671
0.971352323872
0.955620940337
0.99999247327
0.96065690929
0.999974369473
0.999977833451
0.999987312854
0.95330587905
0.969376887864
0.999983559582
0.973649341605
0.999996579369
0.999984234654
0.999984242192
0.956904374007
0.971617410434
0.999982559357
0.999982849145
0.960312401538
0.999979753213
0.999970704417
0.970029857909
0.955409541706
0.999970920404
0.999987708309
0.973559485078
0.999971146524
0.999989787944
0.967400242213
0.952150289836
0.999973375118
0.95689680325
0.999990995792
0.999979776764
0.999971326507
0.950242793248
0.965318073383
0.999981272905
0.970070985191
0.999977220653
0.999981789702
0.999990374698
0.952901119143
0.967894451888
0.999998384066
0.999989093261
0.958153601035
0.999984418378
0.999971719878
0.965081819249
0.951487322165
0.999989963652
0.999986693269
0.970646061225
0.999964920024
0.999977262269
0.964126306637
0.950994408273
0.999964089398
0.955992574031
0.999974712077
0.999970595827
0.999958866477
0.947554048214
0.952111998497
0.963521559639
0.999969265478
0.999957254286
0.99997521536
0.999975912234
0.950736968192
0.963734818368
0.999982870988
0.999975480608
0.956769355408
0.999976417533
0.999962626637
0.951344783757
0.947068044003
0.999960230052
0.964058635839
0.999983641687
0.99998905306
1.00000143076
0.988988709362
0.988431631753
0.999999514163
0.990658545721
1
0.999981220917
0.999994678916
0.97155964263
0.980970732217
0.999994884539
0.999988791255
0.991389897607
0.999987955463
1.00000134482
0.988410580303
0.98998301513
1
0.990588335486
1
0.999977743023
0.999998749173
0.984643066603
0.978140490404
0.999990609951
0.999999457129
0.992250016575
0.999986318184
0.999995884769
0.976347412416
0.962852316298
0.999997956357
0.999999069675
0.967430519408
0.999963530594
0.999971932989
0.961023743707
0.974085275983
0.999993295419
0.999972680111
0.978234043414
0.999981398343
0.999998156923
0.968273468412
0.981000732202
0.99999775952
0.999998687975
0.970266409264
0.999983362973
0.999990387795
0.977704472455
0.964164335209
0.999987527647
0.999991767706
0.980214894284
0.999985783667
0.999975205992
0.971762179813
0.959129765442
0.999980792336
0.999981422369
0.966352330404
0.999992584063
0.999966103073
0.956826817935
0.97102744005
0.999974172938
0.999996559607
0.976786287142
0.99998847843
0.99999191974
0.963414603882
0.975452501966
0.999984440081
0.999987396341
0.966585445651
0.999993953187
0.999989364168
0.974434233319
0.96098343254
0.999993183764
0.999987812233
0.977388914913
0.999990432634
0.999978057791
0.97128927091
0.955811878052
0.999994922846
0.99999214065
0.964203757707
0.99999457076
0.999974758885
0.955400505141
0.973230907984
0.99998599084
0.999997632312
0.977664163088
0.999987383454
0.999990633777
0.96032254689
0.975372670393
0.99998476612
0.999986384383
0.965005800971
0.999992789337
0.999987188578
0.975630645493
0.961542485496
0.999991127826
0.999985519614
0.977972123967
0.999989242107
0.999983996617
0.974275692122
0.958359092022
1
0.999988962703
0.965158503777
0.999992828575
0.999982391805
0.958283923925
0.974974348222
0.999984188697
0.999993317485
0.978672353882
0.999984758564
0.999989228871
0.961650751823
0.976456234177
0.999983347381
0.999985474012
0.965597653135
0.999989078509
0.999986655897
0.97665027226
0.962644912689
0.999989111351
0.999984887335
0.978507271413
0.999979857255
0.99998589379
0.976164611031
0.959682043403
0.999976501399
0.9999828214
0.964294894696
0.999986226545
0.999974719806
0.960732612452
0.974808668314
0.999974461057
0.999986983158
0.976685147255
0.999982595941
0.999989664629
0.962015013668
0.976333602011
0.999984192614
0.999986875665
0.964027500797
0.999984790389
0.999983713154
0.975841476971
0.961781673172
0.99998563316
0.999983292824
0.976083484005
0.999975586186
0.999975922028
0.975279417202
0.959001789959
0.999970816322
0.999979014596
0.961570910948
0.999984173651
0.999972113279
0.959646867437
0.972581014036
0.999971453384
0.999987135919
0.973379407855
0.999980189861
0.999989870712
0.960572165429
0.974637016932
0.999982384601
0.999986906721
0.961165330678
0.999983569746
0.999979743005
0.973410985266
0.959254592686
0.99998463407
0.99998054237
0.972962250222
0.999972334332
0.999974954477
0.972685518159
0.956496915962
0.9999704211
0.999977380826
0.958968537652
0.999982447551
0.999970093767
0.957414069888
0.969646947497
0.999968484003