/*--------------------------------*- C++ -*----------------------------------*\
| =========                 |                                                 |
| \\      /  F ield         | OpenFOAM: The Open Source CFD Toolbox           |
|  \\    /   O peration     | Version:  v1906                                 |
|   \\  /    A nd           | Web:      www.OpenFOAM.com                      |
|    \\/     M anipulation  |                                                 |
\*---------------------------------------------------------------------------*/
FoamFile
{
    version     2.0;
    format      ascii;
    class       volVectorField;
    location    "0.8";
    object      U;
}
// * * * * * * * * * * * * * * * * * * * * * * * * * * * * * * * * * * * * * //

dimensions      [0 1 -1 0 0 0 0];


internalField   nonuniform List<vector> 
28582
(
(0.802020407835 -0.00091794899894 -0.00024057433568)
(0.802170413511 -0.000863948233317 -0.000273919581881)
(0.801911934052 -0.000860449236616 -0.000804821269049)
(0.802109936903 -0.000838415977159 -0.000845272456946)
(0.801841784238 -0.000868162121927 -0.00150552778877)
(0.802046336088 -0.000814603794174 -0.00141445634432)
(0.801749906253 -0.000410590299103 -0.00296987912854)
(0.802052564183 -0.000506607109757 -0.00223621586352)
(0.543300905948 0.0129898310522 -0.00157478436726)
(0.71210070451 0.0247436389146 -0.00416485350461)
(-0.0307616689315 -0.00846308167145 -0.0346780941838)
(0.801961057423 -0.000514841516092 -0.00273569790937)
(0.802022468262 0.00344099361951 -0.00520366330514)
(0.79593397608 0.00235455526389 -0.0035798106557)
(0.80192373958 -0.000473640778871 -0.00217133007606)
(0.802024070758 -0.00069360553625 -0.000714757994638)
(0.802412272549 0.00561958437239 -0.00534972471841)
(0.803024615681 -0.000281344361734 -0.00134471743529)
(0.802897306455 -0.000778989956161 -0.000614928640135)
(0.80241142844 -0.00162847044425 -0.000390581569632)
(0.802511596166 -0.000731167625535 -0.00031829451232)
(0.803065481222 -0.000588530124724 -0.000344662378252)
(0.802602188134 -0.00199644370454 -0.000742916323039)
(0.802459494309 -0.000716291257585 -0.000977736017038)
(0.803052152997 -0.000572268193269 -0.00105621751673)
(0.802231051142 -0.00199043822755 -0.00106682294407)
(0.802303832863 -0.000715166234222 -0.00177402744062)
(0.801700213922 -0.00198332101571 -0.00302728195551)
(0.801808737476 -0.000537390837123 -0.00234868718507)
(0.778212168607 0.0838631022482 -0.00462441193538)
(-0.00540566643234 -0.0373288633182 0.0383499994502)
(-0.0388388557083 -0.0477666900959 0.0172088371387)
(0.801561588341 -0.00210617203276 -0.00316866366127)
(0.801753999439 -0.00183732350709 -0.000277181496313)
(0.803075198952 0.00371246939455 -0.00233712112854)
(0.796971421878 0.00172539171556 -0.0012253514889)
(0.801118403878 -0.000164880978583 -0.000186492057141)
(0.80197148039 -0.000725748909381 -0.00250773366543)
(0.801697318743 -0.000749165622449 -0.0012868921439)
(0.801938621238 -0.000775106008944 -0.00219553545651)
(0.801195382861 0.000887202898818 0.00254133495254)
(0.798286747873 0.00250266832023 -0.00327112267917)
(0.80104188051 -0.00209387171668 0.00299159470828)
(0.801154205047 0.000365475005058 -0.000357195364319)
(0.547521966063 0.0263765450017 0.00103926050297)
(0.733210832296 0.0546354906972 -0.00287975201285)
(0.0519943360037 0.0327313528235 -0.278500865259)
(0.0436601277667 0.0398868444738 -0.193893993032)
(0.59654997912 0.0177964754257 3.8051272071e-06)
(0.0457406176596 0.00184567851517 -0.215999489179)
(0.802179211643 0.00105787353081 -0.00705582671928)
(0.800965365992 -0.000779634927869 -0.00478851745017)
(0.80348389531 -0.00159462469725 -0.00251586721113)
(0.798149059028 0.00234798839317 0.000457396440523)
(0.801490435443 0.000761792038908 -0.000249978481038)
(0.797033890622 -0.00253059003854 -0.00393946687522)
(0.803026355987 -0.000733219261763 -0.00379198296737)
(0.802569738623 -0.00189988544492 -0.0066399234673)
(0.801146538539 5.57981743785e-05 -0.00452135605007)
(0.797575125096 -0.00365157732872 0.0010323574665)
(0.804447451817 0.00159829859374 -0.00189847835615)
(0.803543790558 -0.000122529569362 -0.00251069859934)
(0.802151307023 -0.00447364316844 -0.00546506168187)
(0.801711596233 -0.00163124988471 0.000117003308449)
(0.801254712836 -0.000793183322873 -0.00270040266273)
(0.802646350475 0.00136122228026 -0.00674714167775)
(0.804877614735 -0.0012630729514 -0.000964283732293)
(0.797754999485 0.00429806784745 0.00260687439516)
(0.802026103839 0.000849301759732 0.00204438852741)
(0.795562914222 -0.00184674398257 -0.00211456605711)
(0.803629401226 -0.000384275981239 -0.00215293306673)
(0.80049195035 0.00021620077479 -0.00258978189484)
(0.795412665835 0.00176026540538 -0.00123186970404)
(0.805143713332 0.00202666823082 -9.36384747358e-05)
(0.802360748476 -0.00203377276043 -0.00543802923492)
(0.797334966501 -0.00462053164106 0.00387151283134)
(0.802156670138 -0.00519615792491 -0.00438381413437)
(0.801710490157 -0.00145625365764 0.00229857916846)
(0.800488757811 -0.000684471137828 -0.000558771904076)
(0.805048103712 -0.00157057130056 0.000463137053536)
(0.796616772399 -0.000569599973147 -0.000290048812602)
(0.802276555777 0.000869823473654 -0.00464875715276)
(0.798210897347 0.00509314679092 0.00417484359517)
(0.801779784628 0.000849274533378 0.00351775159009)
(0.802281686279 0.00489701441281 -0.00367673106791)
(0.601557440304 0.156623084778 0.000349091542752)
(0.0292197972358 0.00920599139476 0.265671202243)
(0.722779581934 0.160837338377 0.00154196435985)
(0.655160470087 0.159884516585 0.00164104756095)
(-0.0231201104265 0.00293979070304 -0.0836116052613)
(0.00894113599835 -0.0493311146053 -0.00264349576452)
(0.817731113848 0.115765939826 -0.00530516891129)
(0.0970730921837 0.0453156237969 0.0474733022809)
(-0.0290515212284 0.0409524043329 -0.0691990679669)
(0.774489614271 0.137794146998 -0.00378339905641)
(0.0810719378299 0.00355845102688 0.276687318609)
(0.736178852869 0.140701209515 -0.000800031244948)
(-0.00666269283318 0.0058350314323 0.0913037554215)
(0.800540322675 -0.00336674023767 -0.00284269250864)
(0.801749018821 -0.000518394220304 -0.00452340035341)
(0.804558159644 -0.000667480194114 -0.000544421018612)
(0.800179196631 0.00321852111983 0.00150264575387)
(0.802393886596 -0.00178095878344 -0.00264245872016)
(0.801146119637 -0.00217526075798 0.000980535346332)
(0.797871632788 -0.000923837718968 -0.00200187886508)
(0.801750536781 -0.00425395246637 -0.0052392158559)
(0.800598210435 -0.00155285916441 -0.00317434751956)
(0.799152679718 -0.00291688244386 0.00220000487858)
(0.803770657726 0.00182130944968 -0.00155893304479)
(0.801214643261 -0.00276706039779 0.000514443397476)
(0.802517060186 -0.00299999702981 -0.00259156244855)
(0.802338017909 -0.00300982173474 -0.00416991729389)
(0.799338292684 0.00303183347769 -0.000478116350626)
(0.798006932887 -0.00163710528973 -0.00445895189809)
(0.800696496317 -0.00143163637982 -0.0043450533075)
(0.801675372605 -0.00165969073155 -0.00497147705348)
(0.803766448913 -0.00118681705662 -0.00211964251048)
(0.802477723045 -0.00313274574945 -0.00246817837468)
(0.802533466045 0.00308966892873 -0.00412243174095)
(0.801706100303 0.00134589523346 -0.00625098237533)
(0.803083119719 0.0053768225721 -0.00465625479238)
(0.799284462074 0.00534755892649 0.00355720240282)
(0.800212748544 -0.00088649538292 -0.00283158041513)
(0.805893683625 -0.000398213830097 -0.00176070157749)
(0.802634449029 -0.000337604401686 -0.00324186476863)
(0.797558211871 -0.000363220826181 -0.0018134388006)
(0.801783474251 -0.00237782941943 -0.00621199747742)
(0.801110873843 -0.000258271049773 -0.0047324262896)
(0.800088124497 -0.00328162367961 0.00160952449235)
(0.804988899637 0.00183226653642 -0.00223358823568)
(0.801424425597 -0.00180959735388 0.00058942395088)
(0.80300354837 -0.000825991325371 -0.00310406509162)
(0.80349641536 -0.00324663283472 -0.00480368874151)
(0.801951355482 -0.000681960566548 -0.00225496725046)
(0.801354690929 -0.0019987690559 -0.00438827074008)
(0.79942643132 -0.00453251890181 0.00398572293192)
(0.802702711753 -0.00360296105478 -0.00340932092884)
(0.804514191271 0.00144312187267 -0.00123686666881)
(0.79993375015 -0.000784355210787 -0.0024126349687)
(0.797838822705 0.000657379281396 -0.00131645353817)
(0.801103753494 0.00319306553981 0.000180620373906)
(0.800224033764 -0.00097627211363 -0.00431869383139)
(0.801120891709 -0.00118986142987 -0.00550728188775)
(0.801485606161 0.000246657315457 -0.00594612789603)
(0.804558040461 -0.000873326133116 -0.00262636751461)
(0.802764306656 -0.00142467360395 -0.00338941897989)
(0.803440248866 0.00328406650924 -0.00452700293766)
(0.803038600513 -0.000573961302465 -0.00197718339836)
(0.802674467929 -0.000842018972455 -0.00248325692722)
(0.667870201399 0.126971544718 0.00148881353123)
(-0.00158408152868 -0.0397422186115 0.0339914142022)
(0.801967631538 -0.00179096195334 -0.000631016154728)
(0.801977236119 -0.00328459943813 -0.00575300152988)
(0.802730199851 -0.000755502892908 -0.00233120865367)
(0.803375364585 -0.000651391468209 -0.00233556901811)
(0.803463132677 0.00495065891294 -0.00479509954914)
(0.803161724289 -0.00218127412559 -0.0052672969749)
(0.798755964638 -0.00290613183681 -0.00558462893505)
(0.80366018698 -0.000576012223588 -0.00218806857063)
(0.803797175315 -0.000442374527314 -0.00192990790559)
(0.803094226544 -0.00437907492368 -0.00616176190603)
(0.799342052674 -0.00253414518338 -0.00507457361444)
(0.556137565245 0.130053124605 0.000899021955757)
(0.636844014881 0.122959660662 -0.000439191603086)
(0.618892346007 0.0713805023186 0.000735133310063)
(-0.00476971063496 -0.0230219038301 -0.0864503334135)
(0.0927227291276 0.0066484144527 0.273607848698)
(0.0380780863762 -0.0192470197212 0.0461853290167)
(0.653991154107 0.0490807028425 -0.00219725845911)
(0.658698362015 0.0205799360078 -0.000248084098601)
(0.800915064269 -0.00214075782569 -0.00359812650529)
(0.802266270964 -0.00232703666163 -0.00614397924014)
(0.798185448906 -0.00317544699104 0.000741366225427)
(0.803501470099 0.00187203617764 -0.00263264524047)
(0.801368719904 -0.00377495895462 0.000606497261277)
(0.796543864634 0.0019206242911 -0.0032048891885)
(0.803143633593 -0.000645356720597 -0.00249718982039)
(0.802056739351 -0.00195163668299 -0.00537566537306)
(0.802800226584 0.000766642560857 -0.00646399963896)
(0.805258178463 -0.000641661749024 -0.0012605318611)
(0.799769734933 0.00366136942655 0.000466105036293)
(0.804145620002 -0.00135301807213 -0.0017747598317)
(0.802215352261 2.79790005706e-05 -8.76987806224e-05)
(0.798596964676 -0.00183084927929 -0.00426009763594)
(0.802095068312 -0.000442330114204 -0.00584052721311)
(0.802823666823 -0.00196093820818 -0.00673314522629)
(0.800015769585 -0.00204456468722 -0.000553140858376)
(0.803115132425 0.00222382407741 -0.00238507977769)
(0.802160881634 -0.00232943103568 -0.000645060938348)
(0.799034094786 0.00245242432237 -0.00490326325596)
(0.804014114256 2.7015906306e-05 -0.00313166812176)
(0.803692311936 0.000567106171984 -0.00647453780543)
(0.802561343298 -0.00139099447316 -0.00664750153574)
(0.804067759329 -0.00212890316412 -0.00127857279922)
(0.799104372736 0.00272298855516 -9.09153212299e-05)
(0.80474590247 -0.00185432311035 -0.00112763129532)
(0.803027493528 0.00399784634056 -0.00534896723591)
(0.802955839237 0.000815863660458 -0.000319150770781)
(0.802849353289 -0.000135827178256 -0.00452735069818)
(0.804190022606 -0.00229166933496 -0.00776026718736)
(0.798520639813 -0.00380198089417 0.00191749491525)
(0.803793697091 0.00278776305046 -0.00105688742426)
(0.803424076717 -0.00264029196095 0.00191073488031)
(0.798731067279 0.00209778555989 -0.00403641257653)
(0.805215069683 0.000295615912721 -0.00213911845885)
(0.804209630474 0.000923129442231 -0.00564953805303)
(0.802871599996 -0.00102039395749 -0.00606722126206)
(0.803889658167 -0.00237908431144 -0.000720623910104)
(0.799367796343 0.00356175279531 0.00142257025004)
(0.804960237839 -0.00148298169932 -0.000692535478459)
(0.803545032569 0.00374140616632 -0.00473609033429)
(0.803568431465 0.00120365948816 0.000864514759808)
(0.794385178111 0.00457451459843 0.000913501575569)
(0.798167666422 0.00392323080812 -0.000582129551833)
(0.801203630364 0.00629520737168 -0.00336245938504)
(0.801713350067 0.00332210670267 -0.00273636800294)
(0.618219751477 0.207198095091 -0.00188305962337)
(0.700624245364 0.31753362807 -0.00819095249744)
(0.74302846394 0.238790833596 -0.00279062651674)
(0.634707391288 0.340462266872 0.0083006965368)
(0.465296366748 0.0830972844194 0.0185348367024)
(0.0889687791299 -0.044764010989 -0.077758684157)
(-0.00726116474367 -0.0672156808407 -0.116325884669)
(0.0215108700654 -0.0581894323004 -0.0507926069408)
(-0.00719025398714 -0.109432941289 -0.0561016817342)
(0.0143644253762 -0.0526065268332 0.058260896802)
(0.0188652692872 -0.0326018442641 0.0229695429146)
(0.793184252826 0.000820979209115 0.00200352341815)
(0.794110863919 0.0025029884507 0.00288746598079)
(0.794603696371 -0.000510069346603 0.00430455739802)
(0.795727888164 0.00236795946411 0.00297634755684)
(0.791991771851 0.00399766400475 0.00336605265078)
(0.795084142863 0.00323386949789 0.00302332942367)
(0.795449416054 0.00269615140277 0.00166998858081)
(0.79647169596 0.00318159047114 0.00274691030003)
(0.796154987533 0.00229059349547 0.00473378398698)
(0.798021873821 0.00316252045348 0.00172717833483)
(0.79475600595 0.00664436634201 0.00199319968856)
(0.796503204436 0.0047604140783 0.00207332564156)
(0.79730950207 0.00661263104028 0.00250297708163)
(0.795577615055 0.00265193014948 0.00470491271019)
(0.796372489006 0.00519791195177 0.00380903392218)
(0.798157918222 0.00403554833734 0.00160957379983)
(0.798658038293 0.00636885379988 -0.000620696369035)
(0.799387104099 0.00904584247966 0.00343164631267)
(0.804244434913 0.0114476745563 0.00344420236436)
(0.796730664719 0.0063872104261 0.00378764586408)
(0.802780034248 0.00903747719738 0.00150909119585)
(0.798713442766 0.00739033196898 -0.000834597751775)
(0.801417478957 0.00750748981095 -0.00230183707388)
(0.79905118002 0.0051192491795 -0.00201019849414)
(0.799531901442 0.00384199294076 0.00169494884144)
(0.799128881719 0.00361069131212 0.00282053102012)
(0.799568902514 0.00533840789376 0.000871110898697)
(0.800464054177 0.00347613801564 -0.00120059205176)
(0.80357076537 0.00666617143639 -0.00310553252515)
(0.801241266164 0.00445780888711 0.00201572241394)
(0.803118042259 0.00463541406103 0.00198584808642)
(0.79986078189 0.00607809685425 0.00066235457689)
(0.802282908557 0.00577581923956 0.000740019466136)
(0.799991075127 0.00378628341213 -0.000814743201589)
(0.799666305045 0.0021834527586 -0.00184241477211)
(0.800651201114 0.00287762890238 -0.000717569605495)
(0.79940446545 0.00328326570451 -0.000584818699254)
(0.549529589211 -0.0335264558157 0.000628071069387)
(0.580481881539 0.0395318910932 -0.000217321351029)
(0.562115831552 0.0736173085429 -0.000691578529529)
(0.0296662987525 0.0115903505021 -0.0337693223793)
(0.0424558245152 -0.00981459884667 -0.261243986657)
(0.0203270967634 0.0241877091211 -0.157683526752)
(0.0309379384766 0.00828606300563 -0.320031368403)
(0.0255241481203 -0.0200225399299 -0.561758969914)
(0.0591071982985 -0.0295138624539 -0.71855072181)
(0.0343393906573 0.00652896872393 -0.44736701203)
(0.042798330933 -0.0266776809131 -0.53924978219)
(0.625216553258 0.135174457481 0.00475487266414)
(0.698971193848 0.185674482151 -0.00132215967589)
(0.628189992723 0.292749820849 -0.00460737332036)
(0.680978763179 0.276165396999 -0.0012331636764)
(0.655511605441 0.387839846061 -0.00123066659889)
(0.0385668766346 -0.0111761710717 -0.136782083411)
(0.0235708838815 -0.0236197035166 -0.299699780699)
(0.113384586074 0.0283019490308 0.167930255712)
(0.0287460156019 -0.0464163863444 0.00580092820375)
(0.801071241019 0.390198067574 -0.0107935350877)
(0.678602818757 0.425835629295 -0.00749799691134)
(0.737758219088 0.403957541459 -0.00286356445903)
(0.0262727331281 -0.0465832873427 -0.398492587396)
(0.0419146180502 -0.0354645592468 -0.28587197048)
(0.104178586938 -0.0523731825242 0.000540408893067)
(0.0459829143989 -0.0590566126427 0.0482011574227)
(0.677972161608 0.332929517227 -0.00200444658408)
(0.657492826903 0.275281186523 0.0101085248446)
(0.0484120206039 -0.0120837784719 0.0351682649341)
(0.0749566453206 -0.0298411828472 0.175167672983)
(0.0453467965394 -0.0494797414677 0.301505500493)
(0.656739739838 0.292037406059 -0.00177820981197)
(0.567698900361 0.261103466129 0.00569918687573)
(0.558256601586 0.182709646761 0.00305845894633)
(0.0336710906727 -0.0694611081964 0.0507089503344)
(0.0916875794891 -0.0750311845749 0.0637916439715)
(0.110359847565 -0.0443580583052 0.320356652656)
(0.0690675759203 -0.0389498157502 0.204496976702)
(0.794050676534 0.000968586669594 0.00236271023754)
(0.793092611957 0.000216911295151 0.00527327918757)
(0.795297238925 -0.000385235100947 0.00351330161031)
(0.794603795475 0.00026472034847 0.00124498856209)
(0.793090094795 0.00112636703864 0.00232391724459)
(0.795159674612 0.000123798578027 0.0012427395705)
(0.793996567811 0.000317573350618 0.00429007254937)
(0.794367219875 0.00219296547248 0.00435276402488)
(0.794180417822 0.00330182197512 0.00425091173593)
(0.794866476036 0.00171776612251 0.00298176783748)
(0.795877994911 0.00193712757605 0.00294158369781)
(0.79332554949 0.00268042791351 0.00422457042884)
(0.794706259967 0.00282454284213 0.0039262504134)
(0.795784646542 0.00118070669799 0.00304279376734)
(0.791900681945 0.00351371701172 0.00424033574414)
(0.793247055745 0.00405973276639 0.00453967032929)
(0.794494360093 0.00225446674994 0.00266794639619)
(0.794793744568 0.00388124449152 0.00287184770723)
(0.792820530298 0.00307316161694 0.00400893574316)
(0.792704660547 0.00476819247923 0.00436488439747)
(0.794078442632 0.00253565566011 0.00287098191634)
(0.795761718296 0.00176169652076 0.00246283836654)
(0.794633468106 0.0028193118601 0.0055137907614)
(0.796747828524 0.00166376081414 0.00436364516255)
(0.796811304531 0.00265081673494 0.00172834923608)
(0.795419213656 0.0022468808832 0.00474013407621)
(0.795231973373 0.00236709790046 0.00249543353614)
(0.797131424582 0.00193796355765 0.00180109145935)
(0.79621842935 0.0023045967495 0.0034042222139)
(0.796449781368 0.00351111201971 0.00259366256446)
(0.797691599563 0.00315798460169 0.00256074044856)
(0.797955084729 0.00308335635543 0.00200696413286)
(0.795856421487 0.00277151011138 0.00338954398397)
(0.796746057967 0.00290669709902 0.00268741186543)
(0.79790498969 0.00294754016436 0.00249094949288)
(0.794573202151 0.00362895586429 0.00197290893453)
(0.793907271909 0.00346292664943 0.00535841164412)
(0.795392487975 0.00355112927856 0.00387576982361)
(0.796758441474 0.00331817955339 0.00131652070951)
(0.793499176725 0.00432322924933 0.00413261125513)
(0.794967107677 0.00283605847212 0.00211227869095)
(0.796848135224 0.00409454981404 0.0012887163472)
(0.794412454746 0.00474644309827 0.00172987838139)
(0.794215452798 0.00609266716574 0.00403402812258)
(0.795883963438 0.00453988395284 0.00327456844651)
(0.79689671427 0.00605268893942 0.000435196580704)
(0.793654191294 0.00522310108126 0.00347153621517)
(0.795043851896 0.00560838838475 0.00130223783304)
(0.796558872173 0.00531540790711 0.00102938267169)
(0.795279152718 0.00414840813384 0.0018233868644)
(0.796090364421 0.00444465954618 0.00256452828685)
(0.797481261409 0.00401842282193 0.00193788904708)
(0.798027684579 0.00517272587503 0.000767939671644)
(0.795513299974 0.00337697312976 0.0025088675233)
(0.79606948478 0.00531086364158 0.00193989640245)
(0.797428943077 0.00485519499037 0.00126525456463)
(0.79558975681 0.00482617313507 0.000775063895182)
(0.797289167452 0.00699499017528 0.000736780194963)
(0.797940919426 0.00631560175194 0.000229801362898)
(0.798310289438 0.00586139667786 -0.000252899815269)
(0.796625736822 0.00608876733811 0.000195097182028)
(0.796464059731 0.00623383394594 0.000676293741035)
(0.797740816417 0.00539551657508 0.00040697010835)
(0.798013485874 0.00845352822991 0.00121413128845)
(0.795156355963 0.00735430186754 0.00348862061041)
(0.797566181735 0.00751117640335 0.0037630527866)
(0.797540000617 0.00693337993448 0.000510744046356)
(0.797408213234 0.00820666035415 0.00331613238271)
(0.796152906739 0.00720394112999 0.00109278987594)
(0.798726995144 0.00791901630807 0.0002469694202)
(0.800739005269 0.00980197579269 0.000368149585784)
(0.804685542871 0.00974098481824 0.000591969232633)
(0.799462134058 0.00910535077745 0.00332103560276)
(0.801644996234 0.0090569707537 -0.00113329788252)
(0.800283579847 0.00911061816917 0.00263244122969)
(0.799830040514 0.00889872879487 -7.06530532744e-05)
(0.804832985683 0.0103667454017 0.000371059943333)
(0.799663002295 0.00825260625843 -0.000558736444185)
(0.798468774 0.00801725440488 0.000176531928791)
(0.798605135407 0.00744840750362 0.000492299195367)
(0.799236222586 0.00754804940588 -0.00126274186996)
(0.798113279689 0.00705298937099 6.29770319417e-05)
(0.799950166505 0.00891358891704 -0.000246215999581)
(0.79999672229 0.00744085221697 0.000603648348557)
(0.801993768953 0.00911148630109 -0.0011986807434)
(0.804143100443 0.00935465488674 -0.000988098192867)
(0.801698266313 0.00788066331443 -0.00109232311505)
(0.800403539613 0.00671610834385 -0.0015712009016)
(0.802074840722 0.00921595333516 -0.000287746165767)
(0.800692005088 0.0077824444147 0.000365835230984)
(0.805281234692 0.00945009014856 -0.0031375707343)
(0.797512173178 0.00289610733262 -0.000271898877317)
(0.797102878036 0.00391364858535 0.00244569263414)
(0.799140038295 0.00374931402357 0.00267666437714)
(0.799045388783 0.00301171388193 0.00100221129786)
(0.797066584371 0.00450889088509 0.00199109877814)
(0.797622505565 0.00266410539487 0.000993061754061)
(0.799218880103 0.00279757713903 -0.000165621745333)
(0.798163632436 0.00347332830873 -0.00125017237484)
(0.798478857114 0.00620425460056 -0.000396771083334)
(0.799058311912 0.00453051769786 0.00184935780541)
(0.799991446468 0.00422309691439 -0.0013332278009)
(0.797495716831 0.00521992464712 0.000753016596088)
(0.799164892906 0.00409443323729 -0.00160546621645)
(0.799684544827 0.00342924292817 -0.00116281616011)
(0.798554006841 0.00324236271476 0.000462472919206)
(0.7997275213 0.00414709035947 -7.42811058074e-05)
(0.800319063042 0.00397560024739 3.63470726113e-05)
(0.800621896381 0.00359261829119 -0.000614464769905)
(0.799500918872 0.00351817754088 0.00039147339739)
(0.798941432294 0.00394745955828 0.000424531594777)
(0.800477797746 0.00370666905408 1.97071554642e-05)
(0.801002045141 0.00501683448763 -0.00107058055242)
(0.799820523111 0.00722078431377 -0.00115120906672)
(0.799801744919 0.00673128606139 0.000316817536537)
(0.80002357611 0.00418187025274 -0.00133590709352)
(0.800832133946 0.00805442150965 -0.00152829107446)
(0.800140294135 0.00447549799359 -0.00145990357262)
(0.799807440309 0.00420153077035 -0.00129878990766)
(0.80249865485 0.00503085946468 -0.0013047154909)
(0.80430815577 0.00838402799874 -0.00202713260229)
(0.800304694117 0.00661626624516 0.000440935809233)
(0.800794891577 0.00484714344786 -0.000983589125452)
(0.802712460821 0.00805134367841 -0.00175978395944)
(0.799912088367 0.00483223918985 -0.00117678867072)
(0.803566498266 0.00516880437039 -0.00105005129184)
(0.801572441891 0.00420432524491 -0.000303967149742)
(0.800854737915 0.00459854767192 0.000319862396003)
(0.799995136633 0.00409049617334 0.000168537652079)
(0.799558838859 0.00382884485078 -0.000662503183676)
(0.800688099449 0.00394937773467 9.45629182587e-05)
(0.801479568246 0.0048675695164 0.000472522096248)
(0.800400258505 0.00382886002733 0.000332938669112)
(0.802900335822 0.00439154536322 0.000291609319578)
(0.802962798993 0.00476761344524 -0.00111869150185)
(0.801179200961 0.0032431001152 0.000814561837138)
(0.799371947217 0.00331765685877 -0.000449182273759)
(0.802095349757 0.00501298903289 0.000587699129462)
(0.800814303347 0.00400022447723 0.000965865510626)
(0.803607171901 0.00398005848556 0.000275596219687)
(0.801705784593 0.00226304701455 -0.00236218686334)
(0.801339127787 0.00422104203484 -0.00171338378755)
(0.799849518569 0.00279823288144 -0.000509102505775)
(0.799893132821 0.000892579696832 -0.00158037309583)
(0.802029545416 0.00415621863909 -0.00158166224862)
(0.801056259811 0.00245271917266 -0.00148578957579)
(0.799188435947 0.000236513217686 -0.00216523927296)
(0.80324843781 0.00496950164947 -0.00237510862829)
(0.798972866294 0.00245556124216 0.000412154437846)
(0.802725351632 0.00420588995853 -0.000867776694123)
(0.802121344292 -0.00151005830361 -0.000336467138126)
(0.802091902895 -0.00118632578505 -0.000314312382178)
(0.802358416811 -0.000923078985046 -0.000330616064989)
(0.803434983527 -0.000465531814432 -0.000334405018357)
(0.804577903451 -0.000377042658791 -0.000354140210723)
(0.801716870097 -0.000499890689481 -0.000349009035633)
(0.802232941227 -0.00168267523826 -0.000819333954766)
(0.802098855159 -0.00120843379157 -0.000892995216333)
(0.802330796565 -0.000932202802488 -0.000991183285036)
(0.803433025267 -0.000447635238968 -0.000992497120426)
(0.80458316079 -0.000363257378153 -0.0010137815342)
(0.801645432292 -0.000474543405538 -0.00100739647828)
(0.797280903521 -0.00224952250808 0.00394849408084)
(0.796747422803 -0.00100062269246 0.000749067841966)
(0.798474300284 -0.00087590024854 -5.00497484772e-05)
(0.800272437638 -0.000421702108691 -0.000295818020613)
(0.80174624073 -0.00023196795759 -0.000363084071238)
(0.802505701954 -0.000149652097612 -0.000356061307703)
(0.80417123379 -0.000102719878109 -0.000379484832684)
(0.801355101686 -0.000117199584488 -0.000377042868736)
(0.801444267776 -0.00694866020662 0.0016347199555)
(0.798859492188 -0.00396640449242 -0.000138545257405)
(0.79969957294 -0.00254966998215 -0.000144814495334)
(0.800848688649 -0.00130857973495 -0.000331336563319)
(0.801981831359 -0.000679722119905 -0.000365507973949)
(0.802646995484 -0.000408759287974 -0.000357046422588)
(0.804224505336 -0.000268931453859 -0.000381668850951)
(0.801410403436 -0.000318543157524 -0.000378098136245)
(0.802925980363 -0.00425521710418 0.000107098045628)
(0.801258408348 -0.00250708370667 -0.000171318173123)
(0.801086113209 -0.00152548463185 -0.000283819835961)
(0.8014143698 -0.00110391536499 -0.00033246716817)
(0.802280944354 -0.000780042516639 -0.000356621866588)
(0.802847999008 -0.000542887704622 -0.0003445652164)
(0.804310293815 -0.000378134991675 -0.00036545401874)
(0.801480939236 -0.000449516562571 -0.000359475432723)
(0.802366461648 -0.0026548554053 0.000156669353026)
(0.801534531478 -0.0022516304854 -0.000131077454638)
(0.801577636313 -0.00180775761773 -0.000229427638982)
(0.802055387039 -0.0012553365835 -0.000301826467102)
(0.802703717072 -0.000861824787134 -0.00033854572122)
(0.803139781752 -0.000609009870362 -0.000333387992321)
(0.804420354225 -0.00044591591984 -0.000353785757665)
(0.801579631833 -0.000549158240194 -0.000348572476202)
(0.802916811267 -0.000718218983357 -0.000344914127847)
(0.803307970906 -0.000551197040644 -0.000334105693192)
(0.804507190517 -0.000430030994062 -0.000353713582755)
(0.801657354731 -0.000557479431412 -0.000347342106658)
(0.77889739016 -0.00163222010569 0.00859396785056)
(0.792667795097 -0.00120634643112 0.00192075370448)
(0.797527174311 -0.000996410845779 -0.000371323449344)
(0.799979710417 -0.000438478584717 -0.000791047381129)
(0.801692156268 -0.000223656124521 -0.00101948197658)
(0.80249212635 -0.000144376720157 -0.00102332874839)
(0.804178727 -0.000106080497842 -0.0010815237776)
(0.801281767839 -0.000121251539716 -0.00107790413792)
(0.794947796435 -0.0132367650426 0.00403933314021)
(0.796742674691 -0.00525873847685 0.000176164710825)
(0.799071279081 -0.00277017087357 -0.000611291157512)
(0.800688476314 -0.00134891391975 -0.000855683693928)
(0.801972372982 -0.000676728552327 -0.00102837225261)
(0.802645471557 -0.000398075843563 -0.00102486352475)
(0.804225830359 -0.000256903466864 -0.00107812911259)
(0.801347071747 -0.000302406511143 -0.00108462689213)
(0.802884508322 -0.00664105310092 -0.000193935957242)
(0.801214950455 -0.00325509637823 -0.000563843827865)
(0.800999508313 -0.00163157453434 -0.000814861431217)
(0.80136946601 -0.00107372827729 -0.000960904931467)
(0.802277564597 -0.000753239373046 -0.00105369058525)
(0.80285242821 -0.000517197545295 -0.00100818322171)
(0.804318379462 -0.000351302520687 -0.00103140392472)
(0.801417657986 -0.00040632998512 -0.00102294483644)
(0.801810646803 -0.001793274862 -0.000386713503113)
(0.801188403128 -0.00205989301541 -0.000676385130042)
(0.801352026017 -0.00179957665888 -0.000783331673868)
(0.801958698686 -0.00124076371499 -0.000947718940071)
(0.80267768768 -0.000845924121989 -0.00103096310421)
(0.803132064258 -0.000596008674449 -0.000985996214119)
(0.804428898235 -0.000434608278682 -0.00100244070768)
(0.80151231559 -0.000526277133785 -0.000991695962031)
(0.802912820452 -0.000721700694335 -0.00104027414979)
(0.803308455387 -0.000549671746714 -0.000986525294229)
(0.804513913449 -0.000429271847592 -0.00100567734667)
(0.801590300903 -0.000544664200998 -0.000993657142215)
(0.770164865483 -0.00484907006411 -0.00129975731645)
(0.788953085896 -0.00198253660849 -0.000542576825408)
(0.797109349127 -0.00114257636658 -0.00275081777094)
(0.799327638972 -0.000442439731387 -0.00236405030834)
(0.801356923137 -0.000176166434224 -0.00236927399034)
(0.802437579505 -0.000111686832851 -0.00201472469092)
(0.804188861894 -0.000127003543763 -0.00205870038932)
(0.80107691298 -0.000155682577028 -0.0022323625572)
(0.792467009458 -0.0145649269797 -0.00116963947134)
(0.795829863696 -0.00566578964863 -0.00141424785713)
(0.799018272902 -0.00293863706127 -0.0031063434774)
(0.800210885681 -0.00147521036902 -0.00251423829219)
(0.801723731339 -0.000717241327592 -0.00215509173648)
(0.802547327411 -0.000395553152243 -0.00198002346206)
(0.804246890977 -0.000219920114288 -0.00206653795993)
(0.801165738237 -0.000270728712012 -0.00225084079125)
(0.802223945271 -0.00655843748415 -0.00232803856367)
(0.800569526516 -0.00339287215116 -0.00179160549974)
(0.800589587234 -0.00209021567932 -0.00187714002529)
(0.801191798292 -0.00131996840498 -0.00199575669684)
(0.802240538763 -0.000811743146102 -0.00200777171772)