/*--------------------------------*- C++ -*----------------------------------*\
| =========                 |                                                 |
| \\      /  F ield         | OpenFOAM: The Open Source CFD Toolbox           |
|  \\    /   O peration     | Version:  v1906                                 |
|   \\  /    A nd           | Web:      www.OpenFOAM.com                      |
|    \\/     M anipulation  |                                                 |
\*---------------------------------------------------------------------------*/
FoamFile
{
    version     2.0;
    format      ascii;
    class       volScalarField;
    location    "7.2";
    object      p;
}
// * * * * * * * * * * * * * * * * * * * * * * * * * * * * * * * * * * * * * //

dimensions      [1 -1 -2 0 0 0 0];


internalField   nonuniform List<scalar> 
28582
(
17099.3067183
17097.3753423
12200.5606868
12198.7380376
7299.99536706
7298.23161927
3625.20215217
3620.83944724
36.7874809494
42.5391988652
-27.8467927732
3621.93576774
634.411303347
631.503598657
3622.04021944
3621.86682303
631.192907572
1785.15889643
1785.3638157
17101.6315603
17097.0194826
17097.397026
12203.7399464
12198.9331373
12199.56315
7305.85789509
7300.09002372
3636.88385328
3624.52983967
43.6848090578
-27.4190353296
-27.2293230979
3631.93682425
3631.53125837
632.947522506
633.115259504
1797.86302116
3627.37254663
3624.97578378
3628.39289029
1787.88564877
646.784503994
1788.24612715
1794.18136191
39.2083403105
45.1063125787
-23.1436203115
-23.0915357225
40.8763426188
-23.0952601691
1788.47401795
1782.29054623
633.352076203
633.965998734
1785.98034535
632.878595211
1784.73966032
1779.62641089
1779.83885191
632.100573382
631.243042069
1778.41386928
631.777016494
1781.72642251
1780.48907613
1779.70207268
632.384126175
631.272269229
1778.72128479
633.211641973
1781.06682547
1785.19103987
638.164846256
639.460549196
1782.40803467
635.200009454
636.418130779
1782.67037826
1785.43101117
640.880418546
642.120850725
1782.34367621
639.090986242
1782.14722001
637.907746042
31.2482039396
-23.0679157436
25.896555184
29.7093104379
-23.0389376767
-23.022410775
45.7950763401
-23.1182020905
-23.0501739616
45.6426810248
-23.1435740937
44.518995823
-23.0494725717
1801.92104921
1804.49106405
633.432423145
634.019927175
1801.66068053
1804.67554483
634.354921468
1798.62886453
1794.90646944
633.488316465
633.94168189
1798.38728336
1795.12477211
634.236979974
636.020420034
635.325494554
1793.98932626
1798.55253235
634.806379177
1794.89174794
635.197445919
1787.74620687
641.135037034
642.493292869
1790.54433664
643.407837543
1790.25174207
644.67681945
1792.73961225
1794.04275069
645.347663
647.82708022
1792.36131632
1794.4943974
646.489188572
1791.67027651
1788.5661389
643.692820403
644.977238215
647.167001843
1791.14630286
645.850006201
648.701313588
649.607770837
1796.07875333
1793.4869781
648.547411051
1795.36167221
647.449214431
7301.66509268
3628.993067
44.2732555037
-27.2193131742
3626.75290908
634.429932591
3630.38497734
3630.79570473
647.721335497
650.155631904
648.816761187
3629.91189093
3628.56305686
647.562269907
644.842074367
34.2642601443
44.634413941
43.7713001543
-23.0273237005
-23.0865099974
-23.0316051208
43.5279866736
44.2765937798
1787.76288598
1790.24080091
634.084116611
633.44902392
1791.30395712
633.132879365
1786.54228635
1796.01039878
1795.10473607
647.561709939
648.5450439
1795.15288324
1795.67431348
648.397403309
1797.10653636
1797.44924528
649.158092016
650.206560199
1796.60054081
649.228814459
1798.11313821
1796.70723794
1797.00269031
647.612122506
649.674565079
1795.71991613
648.575133978
1797.89952963
1792.79466806
1795.63676064
646.361475213
646.421814629
1794.37498976
645.24383099
1793.93951916
1791.31221503
1790.95232525
643.779135155
645.44349638
1790.10171637
644.311575059
1792.33393149
3655.79682145
3650.94644825
3648.79745213
3646.79496141
15.4490439127
15.8300897561
13.0179305454
13.5272899654
13.3665326249
-27.1431258952
-27.2473284112
-27.08688237
-27.1480881524
-27.0626607149
-27.0794590852
3657.88764085
3657.10814411
630.534453601
630.053843003
3658.09452431
630.50802963
3655.41199442
3653.42390359
629.40623872
626.259978888
3656.04383876
3653.14138255
3652.57660989
629.77962712
630.624283231
626.610041166
626.993323039
3651.25713825
3648.25636909
630.439658977
626.413836034
626.811329658
625.209275297
3650.12599529
3648.56031125
625.664225148
626.062225463
624.37357155
3646.59839262
3647.4707679
3646.09737529
625.856136828
624.58185655
624.309032942
623.594151768
624.124552204
623.494571378
15.8161725962
15.6663296806
16.9971200939
-23.1914184536
-23.2148467931
-23.1917424906
-23.2187925601
-23.2458270047
-23.191125227
-23.2496281951
-23.1916211751
14.4797416043
12.9621441377
15.8605799865
13.9149108907
14.3537772489
-23.2118581921
-23.2354013858
-23.2196685192
-23.2385771305
15.8312384972
14.4218645763
14.3158528983
-23.2498526379
-23.2183594758
-23.2512104017
-23.216859109
13.517047697
13.2728765699
-23.2209912993
-23.2405685558
-23.241189334
13.6209678004
13.3900590392
13.316314685
-23.2418226357
-23.2136831165
-23.2464601886
-23.2209705208
1819.87458873
1820.28006305
629.869040017
630.59200858
1819.99837696
629.948828277
1820.07363435
1819.66808659
1819.33308524
630.501195618
629.625542378
1819.68656822
1819.40223968
629.915854631
1820.25964856
1819.34950375
631.079453585
631.033860823
1819.91144936
1819.56954941
631.636021063
1818.28289481
1818.88202317
628.987858251
628.493058984
1818.96532719
1818.23322761
627.933411773
1817.47625851
1816.53700161
627.320445028
625.637792236
1817.4159066
1816.61705059
626.687287245
1818.13055471
1818.78955726
630.205190384
628.905781404
1818.86651955
1818.19243852
629.111227668
1818.06223691
1819.05347447
630.46033062
629.335262302
1819.07434616
1817.81912066
629.191300251
1817.124272
1816.37850981
627.655957082
626.900098858
1817.27608388
1816.19450438
627.886815057
1816.94606956
1815.58056045
628.024590508
626.956909384
1816.62790669
1815.95510841
627.941830392
1816.024069
1818.62595619
629.591547388
629.161366875
1817.32238927
1817.22882637
628.482839458
1814.06938984
1811.54931824
628.233839125
625.790114302
1815.05830737
627.356578749
1810.99994025
1814.82580098
1814.96853958
627.851148956
626.430244719
1815.95326092
1813.99362148
627.360062333
1813.03748831
1810.60251945
625.397565414
625.947579707
1812.54817324
626.543137021
1810.53668841
1814.27773189
1815.41797667
625.946690914
624.846396594
1815.20040528
1814.48037925
625.188112407
1814.02762687
1814.55045754
626.028851904
625.375683045
1814.92222928
1813.68746079
625.335811474
1813.21929223
1812.25092433
624.791816102
624.321036869
1812.8883739
1812.53915869
624.782787308
1812.51649836
1813.9907042
625.545661703
625.146310434
1813.19835985
1813.17548455
624.903115034
1811.66784715
1810.6078555
625.185405257
624.069204835
1812.09383563
624.624165728
1810.58106336
1811.9263111
1811.8766618
624.657054052
624.239258932
1812.44179316
1811.45180231
624.530378221
1811.26953172
1810.23358622
623.790383591
623.989331916
1810.91648352
624.25852693
1810.43037726
1810.7811796
1811.47761833
624.044859151
623.999313948
1811.10015338
1811.12310149
623.927898546
1810.03542505
623.800578303
1810.61633754
17098.1441685
17096.0395237
17095.7061151
17097.6370887
17097.8455714
17102.6867452
12199.6947079
12197.546712
12197.5761576
12199.6815126
12199.606332
12204.2319908
18314.2793303
18315.878076
17085.717649
17089.6998647
17093.9228631
17097.5122612
17103.1147653
17094.5361634
18316.471815
18317.1694841
17091.5278241
17092.2360865
17093.6424792
17094.7070814
17095.0703334
17099.3640665
17096.9741231
17093.6389458
17092.3086812
17092.9327899
17093.935009
17094.4125649
17094.9308934
17100.3348872
17100.0278733
17096.2834373
17094.4612635
17094.6309381
17095.4159213
17095.544297
17095.70258
17101.0793891
17096.1649207
17096.3401728
17096.3747199
17101.5214399
13414.5088958
13415.2561769
12189.3486792
12190.8188101
12193.9934111
12199.5116463
12212.9716238
12165.0427254
13418.7234822
13418.3084996
12194.2083306
12195.046686
12195.4930649
12195.2353658
12194.1320521
12187.9684514
12198.5994483
12195.4613746
12194.0848844
12194.5018244
12195.038219
12195.2024981
12194.516244
12197.3563604
12202.07674
12198.0731883
12196.2519524
12196.5134188
12197.2629822
12197.1228511
12196.3934538
12201.0539403
12198.1924916
12198.0060435
12197.6139649
12202.5732037
8515.06940261
8515.97360763
7288.31614701
7290.10587582
7295.02891205
7300.75366231
7310.92968894
7255.13967308
8519.96756797
8520.27295737
7288.17894401
7290.85624187
7295.44109516
7296.18446647
7291.1609597
7280.62079044
7300.98899059
7295.89467996
7292.17291747
7293.97370934
7296.23251213
7296.40260349
7293.17996432
7295.34061863
7310.73956115
7304.59708635
7298.55637015
7295.49407865
7296.69314934
7298.26905768
7297.85798355
7295.11063176
7299.8799822
7300.23341469
7297.47936395
7298.65222969
7299.92803118
7299.23315164
7297.23911062
7302.81968379
7301.17035443
7299.64525947
7304.9889414
3622.14081763
3621.23595813
3611.41528769
3611.19551687
3620.48928144
3627.06315633
3631.66566434
3638.50858454
3625.64309294
3625.76248518
3622.67918614
3612.59247863
3612.27401477
3621.2147761
3625.25294757
3623.59044348
3617.96142399
3643.67722386
3637.11833733
3631.90511675
3623.11672841
3614.55998373
3615.50919658
3622.55250775
3625.54290473
3622.86509578
3621.19007571
3641.88646766
3635.99507
3625.02734058
3618.73007849
3620.35296864
3624.87207227
3626.00004547
3623.28669168
3622.29913734
3627.12611762
3621.43679801
3623.30542536
3626.89933426
3626.50277287
3624.07881684
3624.6231738
3628.32516358
3626.32664858
3627.463678
20.9125275443
27.004550058
36.8276060895
45.8759830143
50.5764360106
45.1653610551
43.4067855797
43.7884198458
16.2453935247
17.4331748927
21.0053924853
28.6634472654
35.8693512179
44.5013237773
46.0566637012
43.3018330276
42.8484550882
42.9162375224
13.4537231706
14.818242867
21.7870235127
31.1016692608
36.8900501779
42.0861372239
42.8629022046
40.1201469187
41.502111233
42.4094943581
14.8954274308
23.2408953785
31.8519308178
35.3972482494
38.8920652288
41.3883154189
40.2260895859
41.7031668415
42.5870431426
32.5961685494
36.1600277212
39.7386644172
42.434046523
41.488133165
42.5701185585
43.8272364636
42.6888258589
43.9363858927
45.8623630462
-27.2031383826
-27.0740668679
-27.1432750275
-27.3727317108
-27.7121803274
-27.2961194125
-27.2505469784
-27.1167388362
-27.1702981889
-27.4678022635
-27.2278324514
-27.1010143319
-27.1651572978
-27.134861289
-27.2518896077
-27.3577205513
-27.29017668
-27.153327135
-27.2119496246
-27.4765547256
-27.1777121944
-26.9593493687
-27.1170244502
-27.0924622616
-27.2046028183
-27.268234696
-27.3721585974
-27.1294481248
-27.221541795
-27.3886013965
-27.0000850182
-27.1639335577
-27.1780009791
-27.2353936682
-27.1855138859
-27.3921104308
-27.1183235974
-27.2267567881
-27.3954219368
-27.5242572938
-27.5732991181
-27.5708877879
-27.3821392303
-27.1279158592
-27.2153164128
-27.5090714938
-27.0794907052
-27.2169070321
-27.6378495642
18315.3278151
18314.5976275
18315.7135771
15864.6601181
15865.9051436
15865.493416
15866.2862977
18315.7130081
18316.5805697
18316.5664326
15866.5817096
15862.0193761
15866.5973027
15864.4614233
18316.615609
18319.0527781
18317.9770906
15867.4474651
15867.7953366
15869.7468425
15869.071772
18316.906989
18317.7337377
18317.6140531
15867.909562
15866.8133784
15868.9808689
15869.0483009
13415.2215484
13416.032719
13416.3287202
10964.2497765
10965.1630314
10966.0331107
10966.6816285
13414.5628863
13415.9461109
13415.9183753
10965.1880392
10964.0052126
10966.4193943
10965.0302081
13418.6755422
13420.5970033
13420.1248996
10969.127478
10969.4141974
10971.4607991
10970.5370883
13417.0578714
13419.6715944
13421.8406469
10969.2223111
10964.1011301
10969.5643518
10971.0837926
8516.155356
8517.13103093
8517.84697197
6067.55969033
6068.68044993
6069.50106356
6069.99112286
8514.03910739
8517.53758841
8515.97539002
6068.33880712
6065.66588262
6069.0719423
6068.03629765
8520.42960879
8522.49889466
8521.54209141
6071.89728093
6072.04943569
6074.35676243
6073.18247157
8514.52481943
8520.30771508
8519.94116307
6071.11354706
6067.38010123
6071.66303267
6070.55153851
3619.59082874
3621.91385159
616.377066764
617.561758542
3623.56652641
3623.86431784
3624.55127111
619.906154998
628.750233906
620.762270581
629.684093969
3616.30633488
3622.03462198
3616.80212227
630.235116443
624.84363272
630.488908987
624.079100096
3609.20712891
3611.62388396
3609.44974251
621.30704493
623.973023252
620.725427413
624.326450885
3616.03483191
3611.50832701
3616.37598193
630.259927978
645.664130375
630.31868998
643.89175523
3623.5858542
3620.98323011
3623.79077832
649.113835103
650.181464224
646.468872539
648.029794667
3629.51785389
3626.16773494
3627.35129771
649.054012382
647.218608503
647.445595084
645.351991944
3633.30804854
3627.10751027
3624.10595624
646.094986349
644.86259194
644.407685593
641.956292091
3603.71566632
3616.54327928
3611.94167324
646.288417044
605.72471648
641.685549612
616.357675354
3642.68291675
3636.5473944
624.187059906
617.502684756
624.2192833
620.681579631
3624.92238064
3632.07617651
3629.76128048
616.290954396
618.541432381
620.000360437
622.149620473
3625.47871049
3628.55066195
3626.56163832
621.510699604
630.346083378
624.676616684
631.715359981
3617.25792639
3623.13022013
3617.99381687
630.932410732
624.016425996
631.514437631
624.29785074
3610.26714202
3614.0893632
3612.13858404
620.686025728
624.724619946
621.010562834
626.244453307
3616.80636503
3613.99225128
3618.04070225
630.402407764
643.256866511
631.259818933
642.182304504
3623.79774558
3621.96435585
3624.23847224
645.420879192
647.03699113
643.531792063
644.351974086
3625.08003127
3625.47476639
3624.7866229
646.583777057
644.759270553
643.855524102
642.411488674
3621.39486011
3623.01548924
3621.15227406
643.891488214
641.115424095
641.55618718
639.184822493
3622.63307978
3619.01769553
3627.59102772
641.048407532
617.74901966
639.339222769
619.971032015
3640.39558463
3644.25851884
3642.24439708
624.017969222
621.544225031
623.24904101
623.236201284
3634.51120056
3640.23296794
3637.95624677
620.92091129
623.504393714
623.955778822
628.452389286
3628.01843973
3634.46855848
3629.28531362
626.05951339
631.894341319
630.186169812
630.574846817
3617.84807778
3623.74643263
3618.87600059
631.267727296
624.461354772
629.580872153
626.006179802
3613.23736815
3616.52324968
3616.05287198
621.533612605
627.010269856
624.498800005
629.380512521
3619.16113447
3618.23935665
3621.21107117
631.501355935
641.968480866
632.597058385
641.367757816
3624.68217475
3623.80480178
3625.53723759
643.214956363
643.74702226
642.603447029
643.190086274
3624.62879464
3625.87198774
3624.8257774
643.264837965
641.915022041
642.677197243
640.725857973
3621.55452441
3623.11046528
3621.8804537
641.061165031
638.800858361
639.971354549
638.204852538
3629.75783158
3621.61815423
3630.56994264
639.044387187
620.67426576
638.362406808
622.184258612
623.272631156
623.460071003
3639.80728632
3640.48255644
624.30533886
629.722812459
631.279042924
3630.46488385
3636.66184764
3631.40023387
631.078848045
630.578545818
632.270197188
632.371797894
3620.70979289
3626.33076064
3622.33881281
629.894307679
626.834668145
631.748992512
629.229826325
3618.49541488
3620.41291056
3620.3592888
625.608691112
630.056727247
628.516633568
632.559060065
3622.84964616
3622.10154631
3624.36913451
632.980802438
641.214981854
635.223683687
642.394511423
3626.13952085
3625.91883105
3626.66720571
642.566349388
643.272567395
643.661205036
643.694648394
3624.8143644
3626.13303226
3624.91804825
642.770906305
640.312636293
642.541031463
639.991587122
3622.23317591
3623.54228638
3622.89549515
639.70401111
638.452326447
639.781434108
640.231672579
3631.02769917
3623.20024739
3631.50149474
638.401145772
622.971782208
640.350190382
624.743771425
3623.23837607
3623.05821707
632.461448217
629.823118761
631.274379635
3621.59518603
3621.49745461
3621.9970056
629.189594719
633.505080102
630.76956663
636.569758629
3625.55988766
3624.03314675
3626.56510308
636.143045381
643.088267775
639.412272235
645.859552478
3627.33220081
3627.9356402
3628.11682341
644.363533042
643.719341519
646.867149868
644.390887213
3625.17716979
3627.27577435
3626.016152
642.381010849
640.142164257
643.292781927
641.317421318
3623.82988176
3625.13953268
3625.06345731
640.009164118
640.93155802
641.3110001
643.293256595
3632.14075038
3626.10074183
3632.85330908
641.379702436
624.840635763
644.495950689
626.371681314
3629.1811523
645.372296984
3627.10892553
644.127490105
641.97780187
3626.27597722
641.929778292
644.09874188
3633.54446502
645.551543025
626.3473301
-23.1620094256
-23.1524633832
-23.1519135481
-23.1521394354
19.3449952229
19.1066233942
-23.1126974114
-23.11688922
-23.0939302574
-23.0997977077
22.9744486268
20.948538462
23.5694867304
-23.145403378
-23.1181050852
-23.1135497584
-23.0867197118
32.2822023008
27.4001387027
32.0866205512
-23.0654888979
-23.0230865909
-23.0163772893
-22.9784294731
40.3893501901
36.0048928883
39.6252677239
-23.0307080691
-23.0192908887
-22.9788446114
-22.9144473894
49.292138761
44.9350126786
47.6339461867
-23.0539908389
-23.1158780521
-22.9230193298
-23.0143090409
48.8374640611
48.131115749
46.9714290503
-23.1493610405
-23.1815390078
-23.0743839734
-23.1493162763
44.0355480836
44.6607721249
43.6025801693
-23.147779307
-23.154701886
-23.1166997932
-23.1512384355
44.0478881955
43.2227577002
44.102148073
-23.1437911546
-23.1506353625
-23.1561617846
-23.1629078046
45.3603677984
43.0190890714
46.243215148
-23.1984728266
-23.1145751426
-23.2103833007
-23.111017807
16.7669948333
14.5336128709
15.2166978328
-23.2003466647
-23.1777335748
-23.2046375723
-23.179361732
18.6031993413
16.4002148391
18.2293861871
-23.115468113
-23.0991593375
-23.1169032225
-23.0964317993
24.829018175
21.3512484705
25.8673706088
-23.0822824709
-23.0582233048
-23.0519129187
-23.0148937564
32.5653861756
30.1690973928
33.905200386
-22.9384595487
-22.8885499248
-22.8932586198
-22.8674045182
39.4780739506
36.5934065574
39.6066810816
-22.825164563
-22.7533066879
-22.8422163837
-22.8298194814
46.4314033876
43.6594999454
45.2838450718
-22.8392798548
-22.9645042894
-22.9259696047
-22.9871860273
45.006235135
44.3964817963
43.177557054
-23.0490635782
-23.1301724501
-22.9863598407
-23.0932797602
42.8440391285
41.5961709195
41.56108922
-23.0772682056
-23.1605819088
-23.0664856778
-23.1584564853
43.7740373994
42.0080741836
43.3501709603
-23.1592164168
-23.163814445
-23.1509089097
-23.1570357057
46.6701558351
42.5239211754
46.7275896706
-23.2155870064
-23.1072774959
-23.2091837832
-23.1057422072
13.6171195973
13.2268758223
13.4649749484
-23.2043612828
-23.1665820591
-23.2152087582
-23.1590486827
17.5837670951
14.388245145
17.4556798326
-23.1144169469
-23.0808034772
-23.1120087359
-23.0850395062
26.6061243401
22.3722106076
27.371690853
-23.000722681
-22.949031849
-22.982253527
-22.9349428906
34.9316854441
31.6997355748
34.8327697901
-22.8427511695
-22.8486468742
-22.8518113867
-22.8649652964
39.2652186847
36.2430303541
37.9953728943
-22.8900962911
-22.9472901634
-22.9263668901
-23.0066712144
43.9101563936
40.0420318345
42.2239375411
-22.9910334673
-23.0063907319
-23.0887641069
-23.1119545942
41.7364129104
41.7434767212
40.6983405442
-23.0591197789
-23.0928924937
-23.1326178596
-23.1194092052
40.5432235009
39.7309529865
40.1765939909
-23.0641237172
-23.1526948772
-23.0866367971
-23.1445150362
43.2174660536
41.3940512086
43.4495276606
-23.1337833051
-23.1444950399
-23.1198400002
-23.1297989462
46.8335225792
42.4906946907
46.8650754625
-23.1916552137
-23.1063445099
-23.1827135341
-23.1034073025
18.1852077616
19.7726655729
-23.0927202458
-23.0910041622
-23.0774630239
28.0347174309
24.5951320197
28.8857585754
-22.9747285959
-22.9437712016
-22.9860517008
-22.9692823
34.1592138551
31.9639255914
33.9186171071
-22.9079055152
-22.9216765317
-22.9540857888
-22.9641618043
36.8446121148
35.243559546
36.6820348521
-22.9647706498
-23.033346818
-22.9885808297
-23.041108979
41.1659931838
38.864730258
40.9377329692
-23.1043575567
-23.1202744663
-23.0812919714
-23.0775661839
40.722201823
41.5897510343
41.4580246369
-23.1300566078
-23.1045156324
-23.0833921929
-23.0718575323
40.547470964
40.9038548179
41.1941786867
-23.0706348211
-23.1066536339
-23.0424193965
-23.0718460309
43.9950440676
42.0964888329
44.1903889948
-23.0803014668
-23.0943179149
-23.05183736
-23.0704340692
46.9802697792
43.0000574061
46.7877142347
-23.1554156682
-23.0907580712
-23.141631932
-23.08574862
34.6421899521
36.5551577385
-23.0384533507
-23.0538418797
-23.0829896971
-23.0945521978
37.7521187538
38.148302506
39.7904274012
-23.0675573037
-23.0813979376
-23.0704157786
-23.0601818638
41.653431357
41.6385919594
43.2567948488
-23.1128252671
-23.1064003232
-23.0853551217
-23.09017193
42.2751646619
43.5794103711
42.8131646453
-23.0126692257
-23.0436686081
-23.0503049936
-23.0364155527
41.8499760812
42.0936130628
42.4273774418
-23.0050663188
-23.0305774131
-22.988449564
-23.0097050857
44.3439789597
43.0548905389
44.6594494309
-23.0319032951
-23.0484666134
-23.020071337
-23.0336402534
46.9865243284
44.9631938559
47.5921599914
-23.1341651007
-23.0847877772
-23.126675144
-23.0935852963
43.293750832
-23.0092798182
43.1829353227
-22.989746442
-23.0046372114
-22.9953930018
-23.0018195277
45.2676669156
-23.0145179557
-23.0264257315
-23.0065242256
-23.0186092507
48.3430575998
-23.1253478532
-23.0960947387
-23.113552173
-23.0842433849
1783.11131856
1784.90677611
613.690745902
616.420288266
1785.30230638
613.934070134
1782.4903282
1784.14637425
1787.83305215
616.730365489
615.294801361
1786.25797227
1786.0981748
614.292100736
1791.01698461
1787.89519722
623.143896916
619.874604621
1788.19767238
623.095180395
1790.78507539
1792.91761557
1793.171434
626.278448875
628.520570091
1793.03667334
626.155864284
1792.85789206
1791.77076827
1790.30539802
620.270197944
624.009487716
1789.08488368
1792.83036023
623.582214364
1793.45642493
1793.73734773
628.947912734
627.32955135
1793.34516478
1794.18072152
626.754042918
1786.46724518
1791.10000138
629.829935568
629.809157542
1790.84944602
629.355470768
1786.65809546
1780.29292153
1772.83394884
627.755526801
624.605153412
1773.10198092
627.450394761
1780.26582507
1786.36142135
1790.91702181
629.979663617
629.583697118
1790.85960706
1786.2333056
629.361085579
1780.2659444
1773.14049017
624.272160654
627.25561726
1773.23102631
1780.10192907
627.210138428
1764.28852232
1766.85898994
618.980247449
621.16152337
1767.39408816
618.998421699
1763.39540667
1764.0894267
1764.54410527
619.131774007
624.044990468
1765.41596383
619.343164655
1763.13936806
1765.03047041
1767.85999197
620.911094828
618.87511611
1767.7812228
1765.36721624
618.999370634
1764.82852041
1766.72255328
624.201876987
619.70324943
1766.17235179
1765.33147306
619.573381348
1772.94337924
1767.74462489
635.984024276
630.124471707
1768.58924508
635.692276857
1772.140883
1777.61422359
1781.65729339
641.241668865
645.310694911
1782.14121691
640.977738958
1776.9214791
1773.59133019
1769.88906408
630.29805623
635.334429676
1769.30765773
1774.19343756
635.512170936
1778.05781826
1782.89352324
644.408769112
639.825316338
1782.44671497
1778.57677305
640.207098175
1788.24550963
1785.48842112
650.504953748
648.451018058
1785.66244335
649.750808441
1788.17668324
1790.09114157
1791.32714629
650.717401274
649.690313968
1791.32599654
650.192760313
1789.9748957
1788.31488223
1786.1231803
647.197820683
647.652135725
1785.79837763
1788.43946475
648.612182392
1790.06255881
1791.05887603
648.85772671
648.098193976
1791.20003329
1790.00938903
649.085915546
1793.34540053
1792.74686813
648.478190639
648.607496205
1792.58203596
648.11747164
1793.68505417
1793.72562435
1794.11804147
648.147992897
646.714010568
1793.48985328
647.750994622
1794.29237517
1792.89021412
1791.97312722
648.107571961
646.852823474
1792.28282126
1792.42455824
647.543056167
1793.00461762
1791.72073577
646.102554403
646.354793868
1792.63649025
1792.33426929
647.076227296
1792.20890692
1793.66328148
645.490051426
645.668922976
1793.05129642
645.153850285
1792.80283579
1791.03704848
1789.72634745
645.075759477
644.20102426
1788.47232289
644.730273352
1791.86721399
1790.97957271
1790.98996117
645.129245217
643.75976939
1792.09653824
1789.64051911
644.543298657
1789.21502543
1784.40419411
642.998655112
642.981930733
1786.15403938
1787.61688449
643.849113408
1779.60614543
1786.60293672
650.367838701
645.094294189
1784.74831885
648.274228943
1782.12129173
1770.10904487
1775.38112663
657.427371993
608.935901909
653.47152021
1778.06022589
1774.06564983
1776.24753202
1779.64494999
642.939259168
643.55186493
1781.6409823
1774.24869959
645.009894217
1766.45688091
1784.44742781
613.195420962
646.950147098
1764.40110556
648.582504416
1781.60600761
1802.77363536
1806.72101821
621.630357147
623.869395848
1801.42218634
622.074399977
1806.99916489
1798.51096166
1792.01511108
619.286098197
618.690689319
1796.12496088
1794.9877595
620.341004074
1804.18424065
1808.1340784
623.936632101
622.87931243
1805.63777223
622.379299674
1807.46754057
1800.95313026
1800.75002541
619.762450739
621.530059156
1798.00950345
1803.14944623
621.061244056
1790.92500491
1789.31063002
615.771655129
617.495135997
1788.04563706
1792.36619688
617.376970244
1790.81983088
1789.56814169
616.449932583
619.724882969
1788.20290495
1791.74535088
618.211587977
1793.93088899
1798.64759831
618.695815796
619.757091103
1795.49766558
1797.07303624
618.69021881
1793.46632903
1796.35970635
620.946466577
620.439566623
1793.97185582
1796.27247635
619.569111095
1794.79098522
1791.63887348
624.628343531
622.328049466
1793.73892784
1793.24309124
625.458595868
1795.38161926
1793.9839928
628.132190353
630.917718611
1794.74993653
1794.26379972
628.876161265
1795.87748847
1796.78224255
623.455252432
627.495385499
1794.90902213
1797.10652998
626.456809011
1795.84027389
1794.1547585
631.376609631
630.372704737
1794.25377005
1796.41185652
629.605172515
1785.64864459
1790.84800109
629.864064714
631.346641134
1785.86853247
1790.8795831
630.163046772
1779.29510313
1772.93071906
627.281619056
624.040450668
1779.72852251
1772.5398765
627.168330677
1785.13829315
1790.02073731
631.657557482
629.956210197
1790.57956655
1784.44152903
630.190123496
1778.78417707
1771.93676176
624.189735709
627.153365645
1772.21182769
1778.26503371
627.227189605
1765.52469243
1767.75093726
618.945210603
620.719453015
1765.38497015
1767.55952992
619.191639574
1765.85590639
1767.12738886
620.012270748
625.05952406
1765.48691828
1767.62623933
620.584161296
1766.02268937
1767.79390335
620.810255399
619.87726285
1767.58314652
1766.75740859
619.452816183
1766.68081365
1769.58198891
625.799896459
621.938488317
1768.58694559
1767.7019714
621.286664037
1775.03109815
1770.32706493
635.181338119
630.506391609
1774.57039647
1770.85516797
635.00019063
1779.44182092
1783.21838922
639.430829235
642.729451556
1778.9772841
1783.69307335
639.226165591
1775.75585069
1772.82110868
630.914815769
635.272633285
1771.76031659
1776.67311096
635.218919929
1780.14826819
1784.92274286
642.501530135
639.309969152
1784.30923629
1780.93867412
639.380342541
1788.7590456
1786.26649321
646.538765047
644.748617908
1788.45929897
1786.77255785
645.575178425
1789.96944062
1790.81709695
646.96818921
645.987874457
1789.90848782
1790.66306652
645.909133792
1789.04380957
1787.74943253
644.126937954
644.084174038
1787.26059888
1789.514844
644.756055763
1790.11739517
1790.98250888
645.097045416
644.400985829
1790.67198721
1790.54037693
645.058079013
1791.33252908
1791.49061457
645.981432581
645.573911157
1791.79134695
1791.12660189
645.112923402
1791.03658235
1790.82646569
645.500102124
643.939320582
1791.56844671
1790.23600785
644.725662857
1791.19093656
1791.19858534
644.637251017
643.367071598
1790.95446361
1791.38539913
644.209612347
1790.77910633
1789.55729833
643.09276417
642.99749996
1789.81989701
1790.75698883
643.814161319
1787.23089195
1789.80319037
643.094054038
643.133355225
1788.22437239
1788.94137171
642.327472226
1785.02446287
1783.2451898
642.145198392
640.384202341
1786.05884799
1782.31468711
641.394421002
1786.51840258
1787.89817669
642.272356074
640.883404802
1788.34693799
1785.96622108
641.571657222
1784.31273259
1781.19700853
639.827045262
640.08602804
1781.62377073
1783.77811117
640.757225087
1773.6638096
1779.59444758
643.151093529
640.410839097
1774.33734974
1778.68895411
642.658865029
1764.52741699
1785.90357069
646.698151676
618.357155699
1765.14731659
646.118610854
1786.40742482
1773.73588504
1778.01432151
639.907940831
641.822245909
1778.22467707
1773.69294143
642.356654613
1765.31980003
1786.55921055
618.969956767
645.063023207
1765.51873887
646.021107545
1786.72587165
1807.87209015
1808.78064377
623.295316542
623.573017489
1806.85701224
623.169770572
1809.25026661
1806.37850734
1803.14114315
622.319791571
622.439070566
1805.02508864
1804.96692798
622.830390952
1808.45515336
1809.47545017
623.324428961
622.973302061
1808.78280948
622.981016626
1809.43288387
1807.47924778
1807.54952085
622.962238853
622.958431766
1806.45877572
1808.15654026
622.860793471
1802.88223663
1801.47687915
620.923044123
622.083837398
1800.09235345
1803.89906172
622.455200677
1802.00461947
1798.86038811
621.753167624
625.031284729
1799.1571369
1801.37837115
623.446250228
1805.18617067
1807.07585361
623.263289503
625.073539899
1805.68037502
1806.78671768
623.958445428
1804.44331899
1805.27401749
626.738982068
626.720054744
1803.54914867
1806.3337289
625.171567198
1799.42897271
1798.74617386
628.723023555
627.517962453
1798.37250222
1800.72682605
629.797323041
1796.92146933
1793.89263324
631.059560224
631.658098961
1796.84728845
1793.32763039
631.377656404
1800.03577179
1803.34310113
628.876820999
631.059448579
1802.23104088
1800.40553422
630.494922064
1796.71393556
1792.23600071
631.10632683
631.242070789
1792.68271093
1796.51440778
631.330786795
1783.20826184
1789.43962473
629.595635695
630.756728369
1783.84749775
1788.68698661
628.976374328
1777.84270372
1772.07148901
627.086700795
624.79466769
1777.98767793
1772.75986632
626.767457191
1783.13787264
1788.00720942
630.096169193