/*--------------------------------*- C++ -*----------------------------------*\
| =========                 |                                                 |
| \\      /  F ield         | OpenFOAM: The Open Source CFD Toolbox           |
|  \\    /   O peration     | Version:  v1906                                 |
|   \\  /    A nd           | Web:      www.OpenFOAM.com                      |
|    \\/     M anipulation  |                                                 |
\*---------------------------------------------------------------------------*/
FoamFile
{
    version     2.0;
    format      ascii;
    class       volScalarField;
    location    "10.65";
    object      p_rgh;
}
// * * * * * * * * * * * * * * * * * * * * * * * * * * * * * * * * * * * * * //

dimensions      [1 -1 -2 0 0 0 0];


internalField   nonuniform List<scalar> 
28582
(
19548.6195861
19547.2043512
19548.9301616
19547.195097
19549.6230771
19547.0090819
19551.9898264
19547.5160218
1187.09586053
1266.04867653
-0.12342942566
19549.6398546
17397.251345
17189.2423635
19546.0778347
19545.2486847
17117.7169453
19517.6079828
19514.4795264
19548.3885619
19546.1859321
19545.9463759
19548.7611067
19546.1413745
19545.8421464
19550.182021
19545.5222443
19552.1139973
19545.5223786
1293.3888379
-0.132616425629
-0.0713127496249
19551.3847074
19552.7552239
17449.1580162
17424.1613651
19532.6151169
19545.4396632
19544.7167633
19545.069446
19517.8281472
16966.2694596
19515.1031346
19514.954916
1225.16996972
1297.09593867
12.1851464534
10.9364869805
1248.87604944
12.1453874591
19529.8354983
19528.4048752
17356.6578736
17397.7493037
19530.4069511
17344.8337899
19528.336694
19526.2096706
19523.1470053
17276.5294495
17168.1219645
19523.3307344
17259.6326814
19526.0247546
19518.9481845
19520.6307046
17063.7815878
17089.7379975
19520.6664885
17021.8625776
19519.2923625
19518.8076044
17042.4979927
16973.6069738
19518.050283
17046.5665159
16994.4405274
19518.7074101
19510.5438327
16914.7515089
16848.7483622
19514.3623624
16877.6187299
19510.2322006
16932.6111683
1135.29256794
1.55153168098
1116.05085953
1127.76990162
0.856621757852
0.979035695727
1310.99022696
11.2034061934
9.24181409384
1340.48006948
10.6021855075
1324.72167667
8.90047232241
19534.9572779
19535.7573974
17441.0919183
17459.5889265
19533.5510705
19537.1944479
17454.016948
19532.9314907
19529.8865025
17432.8128895
17441.8352162
19531.7151041
19531.0082166
17447.5507078
17452.6608704
17447.8230387
19530.4144192
19532.5326274
17445.6181931
19530.5444055
17448.9370502
19519.1784007
17036.6292673
16960.503492
19518.4736269
17029.5366578
19519.5829717
16954.7116335
19519.5207894
19521.0465353
17004.6590536
16931.5953547
19520.1403663
19520.9407432
16940.9266677
19513.3146451
19511.5260563
16919.3469546
16858.6789115
16873.2314465
19516.5982993
16929.8436145
16885.5482314
16902.0010938
19516.307372
19518.1976622
16940.8599233
19519.3447003
16939.2284936
19544.8248932
19545.2093971
1353.69752091
-0.0846427908831
19551.3212155
17418.3067524
19545.3839881
19545.1482591
16924.7913598
16894.4199356
16817.1431833
19544.5757285
19543.6953099
16776.5139343
16671.6396464
1167.70323928
1372.56762114
1398.99425483
8.54469756194
9.68785196009
9.46336966372
1420.25448485
1436.38912781
19526.5379102
19528.8995308
17420.3619156
17374.1053214
19528.9097822
17387.4744186
19526.7865479
19523.5726639
19522.0983924
16887.2108234
16910.8533555
19522.9338871
19522.2109445
16886.129141
19520.0047121
19516.8243655
16920.5719736
16878.5991881
19519.7282477
16886.4718504
19516.8831992
19519.9259063
19515.6222936
16809.5456388
16851.7950042
19519.2640606
16847.8362169
19516.5769507
19517.4527451
19514.3316636
16776.6937714
16734.8167267
19518.4492819
16750.1348734
19512.9470313
19516.3971995
19510.4156432
16708.6112102
16699.721752
19515.1800055
16728.1096097
19511.6730731
19556.735503
19548.0865644
19540.0806558
19540.9962481
891.724944468
977.486263278
892.465839086
971.672091604
988.419404719
0.0697857406063
0.650678637877
0.187960701129
-0.126394032713
0.0652496149247
-0.0753764766683
19571.1995235
19569.2297321
18357.1132839
18226.0813245
19562.2048275
18031.7362111
19564.4318739
19558.793408
18121.2628014
17815.2364914
19549.1305365
19551.3843738
19544.2685138
17930.4678085
17226.4691733
17661.6587934
17193.8197617
19540.3453159
19538.1042614
17058.0956032
16869.0855512
17126.1527756
17022.9119015
19542.8432693
19542.1153365
17645.6180796
17237.6629935
17264.7651012
19539.4261733
19540.4621208
19541.0270138
17172.1718124
17070.5767267
17243.4303331
17209.1369377
17253.7961595
17240.4977229
818.228566168
840.37407929
882.003404058
6.85219780472
10.2175380463
7.91620694527
11.2834562628
20.1386947907
29.4649520327
17.6464344607
25.1859018514
848.90173249
850.598225582
940.460898057
895.446797767
935.218499337
9.15696965991
11.914982041
10.1117145334
11.9468532971
1049.69398216
968.891079513
1062.77561644
12.5697702891
17.3687979109
11.5735164272
13.7880599018
932.862260431
936.003720206
9.80771481741
10.719638495
10.8007017941
1063.36019913
980.214822151
1056.12472477
9.89206655979
10.1279025826
9.66040753311
9.04199295628
19577.1207727
19571.5347574
18493.3040066
18358.9284483
19570.9853316
18502.2081867
19577.3806139
19575.8834107
19564.8642237
18304.2027971
18390.518023
19569.1794393
19572.5133012
18457.6414694
19548.4403719
19555.336814
18116.7309632
17787.9324656
19559.822214
19543.3798347
17883.8875037
19561.2211498
19558.811707
18282.4550835
17992.7158966
19566.2718268
19553.2374126
18159.0958007
19555.2306924
19543.4856572
17906.4491984
17952.5571842
19548.204487
19550.304964
18058.5940918
19532.9382356
19549.6190906
17705.7080564
17800.8960392
19537.4481355
19544.2059206
17593.8294864
19520.8084594
19509.833078
17469.7920941
17158.0431632
19523.9095177
19507.1879615
17381.8996261
19528.3121079
19535.5826272
17732.10675
17493.8761023
19538.9301008
19525.3934536
17545.1824487
19517.0024482
19506.1945414
17184.1523046
17348.7163059
19505.9530769
19515.0983769
17365.341451
19496.5351476
19500.4075491
16888.2473555
17038.0317266
19497.4151719
19498.0077083
16919.0579438
19495.8254932
19498.8583515
16881.4738351
16901.5414882
19496.8560293
16897.9075043
19498.6325606
19498.7529475
19500.9713933
17077.9652309
17047.1881109
19500.0463217
19500.5814141
16991.6894405
19498.0584255
19502.9455558
16956.8566843
17019.2945485
19500.4434058
16963.1101546
19500.517729
19522.2466924
19532.3072899
17500.2360804
17608.7039216
19523.6541141
19530.4444937
17480.2024394
19514.6106512
19507.816922
17366.6262
17255.5538398
19515.1509467
19507.9256661
17371.4268099
19515.4945593
19511.4992209
17265.4778849
17345.7493295
19510.6039292
19515.4920167
17360.8500094
19504.1740162
19503.8790678
17105.0397987
17209.2691429
19503.1464298
19504.7840169
17155.1050078
19505.3036353
19506.4017515
17071.4817823
17127.2130621
19503.5904688
17119.5084663
19508.6534134
19507.1425088
19508.2118874
17232.2226123
17216.0729923
19507.6896121
19509.0617773
17195.2758716
19508.3056575
19514.735862
17171.5413642
17193.3516044
19510.9283203
17164.6370422
19511.8682745
19512.4377818
19510.6636488
17232.256541
17256.0476384
19511.505474
19511.6510736
17249.2228378
19517.7017219
17224.8232282
19513.7411406
19546.9896875
19545.704315
19545.0405921
19546.2508539
19546.9092665
19556.6559299
19547.3225886
19545.93117
19545.2621699
19545.7548112
19545.9013239
19555.8359496
19534.7688913
19539.801789
19537.4175521
19542.3619796
19546.5849909
19549.7887484
19555.1630109
19536.005612
19536.9145361
19540.3717328
19542.4893556
19543.6307292
19544.2804581
19544.0545087
19542.9562555
19554.0913761
19542.9266498
19542.219268
19542.5187269
19543.2427227
19543.9588714
19544.295022
19544.5442381
19556.8240113
19546.2192296
19544.8762322
19544.2669206
19544.4402064
19544.872555
19544.8954417
19544.9632616
19557.3306262
19545.1307402
19545.447358
19546.0128479
19557.1207694
19532.682257
19537.7702626
19540.1895095
19543.3566417
19547.174943
19552.3819113
19594.5627102
19468.1358977
19536.6958753
19540.2273234
19544.9817101
19545.3295926
19544.544628
19542.65279
19537.8526006
19533.4762887
19542.2235432
19542.7664719
19543.6881844
19543.8390221
19543.4267822
19542.6241451
19541.4384632
19551.7558291
19546.3412286
19545.251739
19544.8162372
19544.8871844
19544.7791375
19543.8564469
19542.4255844
19554.1346194
19545.0297965
19544.7429672
19544.468592
19555.7631689
19530.1955666
19537.2949912
19541.8130607
19543.4644865
19544.7675823
19544.5675079
19550.5668506
19470.9761856
19534.3652606
19540.6711747
19540.6741463
19541.607342
19540.9823887
19536.9567296
19524.8551536
19512.1483729
19542.9998244
19543.0160552
19543.1377788
19542.5062402
19541.5792204
19538.9696618
19532.4232387
19546.3232746
19548.602312
19547.2770782
19545.7491691
19544.7899032
19544.1720736
19543.2981994
19541.0180585
19536.6357512
19549.5547952
19548.1041568
19546.153728
19545.0293295
19544.0854556
19542.7458619
19540.2212605
19552.6308664
19543.7853602
19541.7852445
19553.0123561
19532.1871389
19540.2152451
19544.9743662
19547.4124509
19546.4915305
19546.5241265
19545.9142279
19516.4170253
19533.0319358
19537.1138416
19540.9503013
19543.495166
19543.4525326
19541.9114922
19540.8205502
19536.7171366
19523.0905447
19540.8872901
19543.3084854
19542.917264
19543.2129515
19544.0298262
19542.7730194
19541.0931775
19540.053314
19537.5948968
19537.8303074
19548.7969755
19548.2605399
19546.4989758
19545.4846439
19544.5685948
19543.7911341
19542.187559
19539.8725861
19542.460259
19550.2187518
19547.1557513
19545.977813
19545.1219378
19543.4786879
19542.2509156
19544.0811984
19544.2543582
19543.2758177
19544.5947897
1227.66772604
1197.14105032
1207.94114623
1249.51511938
1336.35651669
1405.84017498
1445.08838336
1466.83037157
1150.01897708
1236.04007777
1243.29540623
1246.13315664
1261.45331471
1307.20916996
1364.74548211
1429.84095336
1480.81037448
1498.41890086
1138.65930826
1219.09044013
1207.82949866
1224.12269689
1259.63015446
1295.80737046
1338.67196653
1439.47928045
1492.88349552
1536.6680259
1163.5316457
1163.52208985
1181.91341163
1218.35213349
1243.6756289
1298.14857586
1394.36064172
1457.23911694
1508.61204215
1152.24647087
1193.16288246
1222.43514232
1313.59475685
1375.0660225
1418.16831839
1453.46207409
1399.14229465
1423.11925565
1420.52921894
0.191992558071
-0.085877985111
-0.0825641821083
-0.106769100691
-0.0519348017307
0.384770501828
-0.0845221451325
-0.0907826060722
-0.258979885814
1.49411386956
1.1695819114
0.751877961037
-0.0539512457676
-0.22977440623
-0.118956934493
1.18187406569
0.235534644082
-0.11965164392
-0.244123351923
0.819205826971
0.746929107036
0.00665923365513
-0.110915288079
-0.0990997033473
-0.134856285677
-0.0989074601327
1.71931310246
-0.133419724964
-0.303314969791
0.930307261715
0.0321168241526
-0.138809029373
-0.114199703854
-0.159008554584
-0.09083634608
0.415715367798
-0.121873721002
-0.286153346
1.03760469098
-0.115483526721
0.0250638460688
0.835774339545
-0.119709047603
-0.132315784563
-0.276393323133
1.14083458339
-0.112116739547
-0.277501116789
1.48156622938
19537.616925
19535.1417603
19537.8520979
19534.0681505
19537.1933081
19534.7092241
19537.3472267
19541.0966759
19540.1828325
19541.7687016
19539.4254935
19536.7114015
19539.1988317
19538.9429021
19538.5721105
19539.4915526
19539.8680203
19536.7099305
19538.6929201
19539.0915204
19540.0070087
19541.7034747
19540.8501805
19542.0985792
19540.4706208
19541.0452937
19541.475471
19542.8324611
19535.8190228
19533.9044336
19536.6079008
19530.9489685
19534.8558207
19532.6912227
19536.1371154
19538.7403761
19538.0732155
19539.9605748
19537.0875115
19538.1981245
19537.963054
19538.4397385
19538.6500076
19538.7572228
19539.9437912
19535.711357
19538.388362
19537.992272
19539.3214786
19541.040744
19541.4091922
19545.4258479
19540.1206739
19537.4025582
19540.4578857
19544.0609419
19534.7748646
19532.2523631
19536.1099742
19528.8500603
19535.2859038
19531.4532925
19536.481036
19538.6654839
19538.495585
19539.7430579
19538.6206168
19540.6178077
19539.3620085
19542.3794925
19538.0363737
19537.9801184
19539.444436
19535.2394942
19538.3261135
19538.6559368
19540.0842867
19537.8819112
19540.639723
19543.4053931
19540.7090127
19541.1753372
19541.4017194
19543.9604428
19528.8076831
19532.2760638
16994.4753765
16982.1944536
19536.6743587
19534.9893646
19537.9057207
17001.5294684
17090.9578513
16983.684984
17046.9472207
19542.6578302
19540.6393979
19542.6311564
17124.5462127
17171.4671986
17068.5768934
17106.7308914
19546.6797828
19544.1746446
19545.0487483
17192.6838906
17255.847951
17115.5576512
17113.5270289
19547.1866288
19545.2272369
19544.5526812
17242.5241634
17102.1398917
17075.7295503
16862.6339171
19545.9158864
19543.7073636
19543.3543125
17013.3779315
16783.565965
16789.4695938
16694.1402359
19547.1446174
19543.6367845
19543.8820119
16788.584971
16828.9720942
16706.3355838
16723.887435
19535.5493754
19542.7089761
19534.1107711
16819.2223828
16632.4939857
16713.5412759
16448.961633
19496.6048503
19517.5337487
19520.0245506
16677.7454443
16010.2122761
16522.7716161
16462.9836684
19537.7083081
19538.1954313
16881.9231529
17020.2305671
17033.866631
17151.1434667
19535.3171756
19539.0493736
19539.2704435
17012.3397952
16993.6224367
17152.4910381
17125.9236773
19539.1388698
19539.6640549
19540.5982419
16991.5790468
17030.6273969
17107.8935174
17056.8981368
19542.5381788
19541.9238121
19543.3800743
17046.4275618
17090.7220856
17056.9620413
17075.3396988
19543.6568329
19544.2940461
19544.1291362
17096.1227588
17057.5069344
17072.3891827
16957.9129488
19542.7677332
19543.1681392
19541.9939972
17012.8102736
16820.2849549
16908.2199153
16799.1440884
19541.3324821
19541.0892217
19540.3745439
16771.4275825
16727.7201187
16766.6141503
16718.9334594
19539.6916455
19539.7911852
19538.6593822
16721.3854429
16674.2351039
16702.1441775
16626.1609527
19531.3599602
19536.6133531
19533.7513202
16657.3116225
16412.5334854
16607.7851248
16405.2981877
19540.6668347
19530.7335608
19550.3954239
16492.6916466
16493.405005
16484.6453524
16495.8417289
19542.4494136
19543.2948745
19545.360104
17078.9400527
17180.4383063
17234.2173244
17310.602098
19543.3154825
19546.4434731
19546.6725462
17191.7938005
17173.0790222
17337.1194812
17326.0302299
19542.7241578
19545.9966672
19544.9993921
17153.0757968
17095.5153712
17291.6568526
17155.4898944
19543.8061308
19544.6346717
19544.6186025
17091.0716372
17096.269009
17142.4775891
17142.2900244
19543.6659756
19544.5897589
19544.1418402
17080.2440896
16974.1997635
17123.7071656
17042.8284164
19541.9131128
19543.5056824
19542.9715959
16932.9000811
16806.5928441
17015.977242
16956.9497166
19540.5667385
19542.5910122
19541.9430142
16776.6634687
16745.9317417
16937.6003006
16882.788886
19539.0016109
19541.0880856
19539.9830222
16714.6440439
16588.841276
16828.5608457
16620.2391672
19536.9906185
19538.7522428
19538.8631071
16570.2747623
16456.976392
16595.2221082
16537.7891321
19554.0400149
19540.5393303
19555.3304743
16524.9576633
16514.7733614
16595.9714629
16514.1927502
17266.5242708
17332.3681292
19548.9898871
19550.9349936
17362.5772927
17350.7409894
17436.3741131
19547.1571709
19550.4476175
19549.5697914
17318.0385672
17216.2794331
17422.1148639
17386.3439039
19545.9524911
19548.7165036
19547.5875851
17196.6418479
17166.3481973
17372.1405647
17270.0125392
19545.0290703
19546.5402257
19545.8555911
17144.7262582
17068.1986602
17218.673962
17125.7258475
19544.2092187
19545.5011677
19545.3150421
17045.2616261
16986.6167452
17124.9486643
17102.0369903
19543.2079191
19545.0603792
19544.1968324
16970.5299032
16904.3478609
17088.6171832
16894.6664372
19540.9373668
19542.9713951
19541.8754985
16842.5215804
16645.681825
16836.3824938
16734.345588
19540.4084547
19541.1972868
19541.64308
16622.24256
16568.7328166
16723.9407845
16632.6169959
19555.8744573
19543.5187008
19555.8498152
16625.8516358
16509.3488763
16690.366071
16518.2319003
19548.6334352
19549.3711499
17404.3829242
17261.94187
17209.4011131
19546.3342086
19547.6687572
19546.6015154
17213.2632496
17168.7147209
17153.6432493
17125.6972575
19545.776653
19546.2328992
19545.9645507
17165.4432001
17091.1135711
17143.2611698
17011.6690346
19544.2833831
19545.335298
19544.6537561
17031.2483405
16907.1864598
16941.794621
16874.3924158
19542.7639915
19544.0144009
19543.476875
16880.0931923
16755.5733298
16862.2846634
16803.7680315
19542.4644534
19543.0143238
19543.1100956
16741.8787343
16636.150817
16802.7789242
16675.2111218
19555.725821
19544.2873556
19555.2829178
16700.7647015
16512.3136738
16744.2005634
16544.3318767
19544.808736
16848.8921163
19543.707988
16832.6356289
16788.04854
19543.4285915
16787.9910702
16665.8596178
19555.0638394
16736.6823825
16564.5927818
15.7642193752
4.71999479495
18.4076954981
5.55612492559
1213.23135583
1244.62700241
1.16004056917
1.04666925662
1.41878244252
1.32892808518
1211.62329414
1246.33691699
1229.94486747
1.49283437573
1.58806095702
2.04005800647
1.88630489661
1198.80332503
1220.29288574
1221.86145988
1.48840574685
1.01386030687
1.64608283673
1.01550283822
1220.75608423
1233.34692075
1254.25129225
1.13848725072
2.91743970611
1.26795423822
5.73910109549
1288.74277353
1283.87558992
1320.36713395
9.11790908399
17.3424140581
13.8001698739
20.5293080616
1377.33495391
1362.05249619
1393.02370721
19.0642493365
19.3759944623
19.6980643853
18.2665294289
1424.59187505
1418.44587313
1434.23246346
14.601177338
9.39592711946
12.5301694035
8.25560543532
1482.0276105
1457.02921012
1507.65115407
8.39831338344
9.54855859668
8.25449674409
10.6632826071
1510.44554263
1468.41456853
1559.96449114
17.9809963124
51.4536846427
17.453290384
26.2178522974
1205.39170666
1147.21430532
1209.41982279
27.5421111682
15.3639630184
26.1256360915
14.8068631299
1240.7383281
1235.06455109
1229.26957387
10.0198361369
8.75844689001
4.92532019325
3.48688052228
1239.39392863
1230.44314246
1233.60848574
5.64472559299
3.11082689207
2.83941995772
2.01565573792
1248.80304027
1248.22231248
1258.77790585
0.968646725502
0.819725241768
1.37716693037
1.34042894427
1282.1233757
1270.72921892
1292.52137196
1.43538313294
6.33878144553
3.46215815552
7.56976068217
1330.32818612
1307.01458861
1321.44059331
18.1632093141
28.1855563269
17.5411298041
27.8327531916
1396.02188856
1362.4626541
1403.32825557
25.0105001601
20.024523058
26.4400586689
18.5117605324
1459.62632804
1440.73044593
1475.64200521
9.39021428634
7.20146695316
8.55247482605
7.41975774386
1526.53764064
1494.66320427
1532.29414173
7.82674857657
11.3336294017
8.8958539426
12.1795303438
1587.92582846
1522.81808678
1595.70325116
16.2118747128
20.1643820478
16.4755489188
21.3505583343
1201.41766906
1121.30959996
1184.10611215
18.7855278199
6.52487290594
16.1410849235
6.39287342687
1212.57433725
1187.81244321
1186.29133259
0.69906621426
0.630395893396
0.604413612821
0.518606852442
1210.90632749
1184.91611804
1195.23960445
0.987132631055
1.13756328643
0.872710071066
1.50685929968
1241.34743115
1207.48102249
1224.07588646
1.8070251829
2.18388330194
2.33435289265
2.73084646605
1278.62432435
1238.72378581
1252.36646067
4.08414757197
6.73658685732
3.47497791614
4.80652593533
1318.27818546
1263.32959928
1283.49206183
8.75984553381
12.359854614
6.95552681079
10.1546731555
1387.72072897
1305.18866373
1369.4071379
34.6115439358
26.4682386637
28.8105406896
24.281268009
1472.66619151
1423.88170941
1456.03808203
9.87762136417
8.71748729136
9.47418812909
8.22450984325
1524.88802746
1478.01621839
1506.8955862
9.78206555599
11.7421714374
8.99925303368
10.0311604727
1594.07320396
1529.962214
1575.7665436
16.8653516098
23.89338164
15.8309044899
26.7754071852
1161.9320884
1138.15589542
0.683569037581
0.570815878756
0.567701587938
1168.47257786
1133.69486649
1137.63907024
1.25792745257
1.72253540814
1.11628961982
1.23499351898
1201.40724557
1155.25825583
1184.00414578
2.30997608387
2.4641060848
1.84317741882
2.55928736329
1231.5068669
1202.08446207
1218.97771022
3.13972410863
4.43906551672
4.60245442979
7.29408424954
1263.02663166
1235.50669242
1251.85721494
6.52678627664
10.4182591612
8.06314706541
9.25809666583
1344.44085876
1283.46349761
1337.55078234
18.2936911057
18.6206221728
14.5977571324
13.3957563153
1430.82309096
1379.40917174
1412.0517956
8.64157129912
7.58916027643
7.51302887794
6.53880164539
1488.50921393
1432.67923038
1470.14595288
7.82975884948
8.63518329279
6.45791989509
7.47659387245
1553.76538745
1480.73470444
1529.86187541
14.3584241132
29.0370804017
12.8765391465
32.5069632981
1183.88521152
1201.22657554
2.19382801492
4.23502866249
3.49358558204
6.93919262491
1199.79376557
1210.20987133
1217.21848708
9.66347339253
14.9491393042
13.6166718374
20.1976809998
1266.8604054
1231.93187286
1285.80692248
20.6987389791
14.0416161228
24.9810020626
12.3113633392
1349.40498044
1334.49905017
1363.66281387
6.62260577075
6.36331324355
6.79167603769
6.70265383937
1400.02367619
1384.56252679
1401.81694641
6.75260205019
6.78956453363
6.99760598708
7.0272503
1461.44216266
1415.3277341
1449.87192621
6.40681710607
7.42380573759
6.3209490172
6.72223318597
1507.48125897
1434.92646433
1488.3104776
11.9134909766
33.7652509423
10.8437530715
35.1970150142
1378.23965877
8.52664830375
1414.37081555
8.32518440667
8.39799791801
9.69268182307
10.0403386859
1449.26772927
7.38934121183
7.48992926247
9.10109045128
9.10886497978
1469.02786382
11.3604783759
39.5964693119
12.5106222051
39.800727759
19518.4138169
19519.0662917
17000.1691619
16973.4110377
19518.3504983
16971.5828229
19518.9215433
19518.2896693
19518.2529401
16964.0452548
16985.5340502
19517.9367297
19518.1485249
16961.034044
19516.5044093
19518.1620001
17021.9449288
16980.8641567
19517.0068364
17000.4412784
19517.3148945
19517.3923866
19519.3322057
17055.4728952
17080.9814467
19518.4327893
17038.8654441
19518.075074
19516.3175624
19518.0699485
16976.1081213
16993.6912406
19516.8916121
19517.3609036
16999.9377961
19517.0075712
19518.9911947
17070.137501
17021.2675656
19518.1324579
19517.9518658
17033.7737313
19521.7563715
19520.8260647
17147.201097
17110.0795273
19520.0391768
17128.6149705
19522.0627802
19522.7615165
19523.5295461
17162.7288212
17157.2933813
19523.5472608
17148.6470682
19522.9964558
19521.1787296
19520.1952472
17099.4048956
17085.6512615
19519.7774172
19521.1221016
17113.9438217
19521.9824902
19522.0917253
17137.2833829
17104.2708274
19522.430938
19521.8088383
17128.5897648
19524.787849
19524.0195403
17221.7884586
17171.7818865
19524.0861731
17188.7496151
19525.1297839
19525.7451226
19527.2672784
17242.8945866
17220.0101989
19525.9687613
17205.7495538
19526.4129183
19522.860204
19521.8255055
17150.8980024
17129.3188784
19522.5188932
19521.6680756
17163.2271283
19523.2473018
19518.5780921
17164.8179242
17127.7947654
19522.2671552
19520.8590415
17172.7046991
19524.3241447
19527.2493424
17225.4931665
17204.282039
19525.4510163
17176.4500978
19526.6302154
19523.2290553
19524.8042801
17171.2641703
17029.2393148
19521.3202869
17113.0968031
19526.3166709
19519.1728255
19515.8025982
17135.7007622
17022.3919176
19520.6753131
19513.3403987
17096.4406094
19518.3653089
19511.6650452
16943.7844205
16944.1385122
19517.2767865
19512.2912139
17024.3038478
19516.9867388
19522.6440344
16914.1858468
16936.4655847
19519.1780574
16847.0647142
19519.4185586
19514.7621059
19515.7460771
16840.8055587
16741.6201033
19514.1491718
16783.5107151
19516.4052992
19513.8977934
19510.8797659
16859.4436294
16724.3910458
19515.6054783
19510.2660051
16783.3322207
19512.1648803
19510.5576032
16723.3551238
16703.8425062
19512.6675296
19509.8665513
16750.0533828
19514.8185938
19516.0067057
16799.8161975
16754.649832
19514.5576641
16770.5486934
19516.357654
19513.4391724
19511.5640091
16827.8142767
16802.4898296
19510.2031685
16795.339906
19515.2526422
19513.2569994
19511.0066969
16738.1899578
16718.9976135
19513.2609792
19510.8526945
16754.8953091
19511.4778648
19505.6005928
16774.7259896
16722.8165456
19508.0811731
19508.8629243
16773.5201379
19502.0057021
19506.6137016
16807.9253676
16792.8859877
19505.5476783
16773.8216313
19505.0362616
19496.7179906
19497.4072012
16732.8879062
16555.8899562
19492.2858165
16677.5393938
19501.6353332
19499.8730412
19500.9443025
16760.6501816
16703.7611915
19503.7277689
19496.6714561
16737.7522162
19493.3403905
19485.2320476
16483.7901812
16597.1964958
19488.8689003
19489.5059082
16623.6103476
19465.4613486
19486.5821435
16573.3933221
16601.4699149
19482.748501
16523.3150465
19465.525775
19418.1719738
19411.4702457
16029.3571628
16369.4735868
16051.0229617
19440.8685827
19400.1625031
19466.2875151
19479.1689956
16560.1428263
16489.348837
19481.208298
19467.3801239
16504.8548421
19426.7827874
19470.8176991
16421.8629082
15995.1520692
19435.452156
15951.9351456
19457.7149952
19508.4097964
19502.9771272
16925.9075124
16916.7845441
19506.8978581
16965.6729704
19503.0663232
19511.8701828
19512.9364181
16986.3715769
17075.162541
19509.9184424
19515.0334487
17027.3368956
19509.1360753
19507.1941343
16966.9786027
17056.6466423
19512.438616
16999.7019969
19504.4405935
19513.3660447
19520.7587257
17099.5738756
17095.0059409
19516.8882443
19516.9136474
17050.6303204
19518.3728775
19515.1155212
17010.497802
17071.4752703
19516.3238871
19517.6366821
17068.3123238
19518.3129623
19516.4014284
17003.1080466
17040.575015
19516.6477032
19517.7844638
17057.3616474
19519.7419482
19522.707787
17103.435751
17149.2805819
19519.2756109
19522.8049161
17099.64557
19519.4008262
19521.3186739
17073.0111466
17140.7577236
19518.6487346
19522.3069695
17090.5629993
19516.2601828
19515.7489775
16994.9396281
17026.5639858
19514.8364191
19517.0808518
17015.7570788
19515.6427011
19515.1689141
17010.6393715
17021.9842562
19514.8734242
19515.1680121
17018.6818751
19515.634321
19519.7950282
17054.5040491
17084.7885341
19517.4204025
19517.656717
17037.3349326
19514.1766806
19514.0981393
17034.4467179
17070.153207
19512.9844111
19515.7041471
17036.3956958
19513.4222763
19515.1602493
17062.5929078
17027.4033269
19514.7056953
19514.5267443
17032.1712284
19512.0503843
19513.6962227
17083.7490519
17061.2772206
19514.2450198
19511.0295567
17046.5343953
19510.0906558
19512.8106437
17034.3821875
17056.7675747
19511.6979351
19511.2993572
17035.3160077
19509.0875412
19510.1854033
17067.1069893
17061.5370388
19508.7362917
19510.4025738
17047.9642936
19508.7870741
19513.1093042
17101.9616999
17074.0056014
19511.8350691
19510.471009
17081.5311464
19505.7642424
19506.803909
17086.0688661
17017.6556886
19509.8726804
19501.2793055
17060.5929435
19507.1350497
19509.4543573
17073.8110097
17054.2367722
19508.5194449
19507.501177
17064.7896776
19504.6158739
19501.6009997
16978.8653392
17012.4878288
19501.4748431
19504.6499463
17027.4353638
19496.2289939
19504.2378589
16956.6987611
16960.6953499
19502.3767103
19497.7683836
16898.1206098
19495.7115575
19502.2272998
16889.457681
16774.8851781
19501.6744801
19496.5964151
16835.1263109
19499.4443937
19500.480268
16930.2017581
16863.0699033
19500.0897208
19500.2913562
16878.8057159
19499.785442
19502.4113536
16794.4716261
16831.6901648
19501.373781
19501.1092274
16838.199551
19499.4801858
19502.435565
16722.1012932
16736.9904756
19503.0539922
19497.948775
16722.327481
19499.8435287
19502.4903809
16725.8178205
16707.0008009
19503.1140416
19499.4895233
16715.1837609
19503.4831903
19503.2668707
16768.5189228
16747.3523233
19502.8802375
19503.9004928
16747.3494538
19503.7236097
19503.2346289
16703.6865018
16732.9535727
19503.4188881
19503.9430093
16725.7351998
19495.4770206
19501.2600062
16700.5742349
16695.7928217
19499.9195077
19497.934714
16679.4745623
19492.3830802
19493.8868819
16682.2429604
16649.7406752
19497.5164946
19488.6407362
16659.46505
19498.9946983
19501.521481
16686.3321631
16682.2598376
19501.7142521
19499.0516629
16668.238236
19495.5991472
19491.7645666
16615.6886838
16653.147984
19491.9365127
19495.5771162
16640.6301291
19481.8100419
19489.6675061
16647.765608
16639.615473
19485.5915387
19484.9914245
16632.3458455
19475.5174735
19472.9521904
16550.6237037
16396.0045466
19478.2995551
19470.6092949
16533.9437067
19484.2563156
19488.8612763
16595.8876234
16575.340807
19488.0251686
19485.7514912
16579.4796292
19477.8587572
19476.9294912
16407.5236623
16498.541423
19474.1323132
19480.0301687
16504.0254736
19457.4500869
19467.7212465
16482.0213676
16478.3732756
19458.0910123
19466.0939679
16474.9224237
19435.3472059
19473.0498213
16017.8547689
16489.2041209
19433.6849574
16040.5146835
19476.2420033
19464.9619291
19474.2606615
16487.2446106
16482.1412129
19471.3517069
19467.3514789
16485.2385483
19448.0178722
19487.3289912
16501.2928005
16075.6587592
19449.1416003
16076.8225581
19486.2490618
19518.2366714
19510.6232367
17097.4545295
17138.2633975
19515.666509
17158.410665
19513.0807784
19522.8140889
19524.1436455
17131.8546014
17225.6529466
19520.2494202
19526.4610548
17182.9603363
19521.710907
19519.6674542
17183.6272807
17260.4600726
19524.9765777
17202.4761397
19516.5610254
19526.5343626
19531.7116739
17264.2494261
17279.2510507
19529.6739961
19528.9825301
17225.6562871
19527.8127517
19525.4315809
17193.4924452
17242.698214
19525.3103597
19527.9076725
17250.6633095
19526.9218802
19523.1124774
17186.8984604
17233.652055
19524.4584968
19525.3653857
17245.3556088
19530.1606869
19532.5292294
17283.1612513
17346.0488108
19530.474123
19532.3420927
17290.1510472
19529.065436
19529.0886972
17275.4402371
17340.8845438
19527.2084427
19531.1705471
17285.6598657
19521.2108214
19521.461691
17123.9210421
17212.4592055
19519.1209547
19523.5253843
17184.4492595
19519.2143162
19515.5638445
17108.2988715
17121.3660459
19516.733072
19517.6183945
17157.0548605
19522.7156438
19527.0972277
17251.3572415
17246.5150482
19525.2041041
19524.6029757
17219.6306126
19520.542072
19520.4553798
17128.6399624
17200.3539697
19518.9247222
19522.3034755
17175.641276
19517.5397552
19515.4618564
17085.3953633
17113.3504907
19515.4736688
19517.4280643
17105.8338387
19517.540793
19515.0753285
17088.031418
17104.8820051
19515.4478
19516.7946257
17109.403041
19519.5842416
19520.4548146
17116.0295748
17133.3869344
19518.9374514
19521.1000466
17114.0036814
19520.3424215
19521.4049375
17125.7129663
17138.7525181
19520.4257336
19521.5028812
17118.7829075