/*--------------------------------*- C++ -*----------------------------------*\
| =========                 |                                                 |
| \\      /  F ield         | OpenFOAM: The Open Source CFD Toolbox           |
|  \\    /   O peration     | Version:  v1906                                 |
|   \\  /    A nd           | Web:      www.OpenFOAM.com                      |
|    \\/     M anipulation  |                                                 |
\*---------------------------------------------------------------------------*/
FoamFile
{
    version     2.0;
    format      ascii;
    class       surfaceScalarField;
    location    "10.65";
    object      phi;
}
// * * * * * * * * * * * * * * * * * * * * * * * * * * * * * * * * * * * * * //

dimensions      [0 3 -1 0 0 0 0];
oriented        oriented;


internalField   nonuniform List<scalar> 
92311
(
0.203910300225
-0.000173850640696
-0.00104290505511
-0.203614478083
0.000920934002061
-0.000198869138625
0.204109884834
-0.000724423936479
0.000723740482488
0.20394614653
-0.000386988671554
-0.00108581211456
-0.203630905207
0.000983755365247
-0.000423262538288
0.204177112783
-0.000684621350984
0.000678189703495
0.203990459009
-0.000197166823045
-0.000291264476614
-0.000964004367453
-0.203404238339
0.000976122356153
-0.000196752747164
-0.000300138331123
-0.000272204461494
-0.000206959042925
-0.000230641126773
0.204424752951
-0.000515279512717
0.000661086596954
-0.000293489870619
0.0511224740407
-7.71396242314e-05
-9.89644409599e-05
-7.7912867035e-05
-9.61867627163e-05
-0.000262921434731
-0.0509846479771
0.000278176172751
-0.0512425822024
0.0513091123186
-9.00587368635e-05
-9.84695442593e-05
-0.000102111953666
-8.31301677902e-05
-0.000146526087054
0.000181587268964
5.40284534321e-05
-0.00254768510338
7.01104329425e-05
6.52356763519e-05
8.76446960982e-05
-0.00185140878412
-0.000186013520858
0.00237030773802
0.00193762854212
-0.0170942377897
0.00359794399711
0.000765395081002
0.0132675616322
2.65997197657e-05
4.60503975575e-05
3.32618260859e-05
5.96037732284e-05
-0.000702180846819
-0.0377080690607
0.00404840563044
0.00457644565159
0.00542411818309
-0.0365034270674
0.0666178230988
0.0767435218088
0.00305185815598
-0.000103818000252
-0.000109439004329
-0.000115849915137
-0.000103559571301
-0.000175142732795
0.00019649156347
9.10937609595e-05
0.0117620619242
-0.000120706444923
9.72953065465e-05
-0.0117757068401
0.0117639087303
-0.000121406229262
0.000128454453585
-0.0117528544676
-0.000102053262945
8.39401135284e-05
0.000161078540954
-5.44378600262e-05
0.0513126365566
-4.70327151589e-05
-7.09056750885e-05
-6.45461448473e-05
-0.000134540283552
-5.00525506271e-05
0.0512822798152
-5.53381998251e-05
-7.53060108448e-05
-7.93892876198e-05
-0.0512702875431
0.000178551210095
-9.71341170377e-05
0.00011050331381
0.0117636991639
-9.23879521603e-05
7.92313004441e-05
2.98581429092e-05
0.0128314133236
-2.96560051888e-05
-4.2393522821e-05
-0.0128436636906
0.0128312572068
3.12766106979e-05
-3.66219776977e-05
-0.0128460939986
-0.000139241994325
0.20407084567
-0.00180419309828
0.00159004248849
-0.20371745274
0.204195199318
-8.89910820177e-05
-0.000261005603085
0.000265038238688
-7.79454429173e-05
0.204330705104
-0.000122484257263
6.53094078542e-05
-0.000239975716048
0.204064282238
-0.0017646886812
0.00156213071855
-0.203760962561
0.204349609205
-0.00020906521088
-0.000381392900682
0.000329285269098
-0.00011269214258
0.204486203433
-0.000158848601566
5.73663761605e-05
-0.000157325626692
-0.000152771468017
-0.000144033900072
-0.00159484260694
0.20392547092
0.00146969619283
-0.203437174163
-0.000148967662558
-0.000125746490634
-0.000104481781244
-0.000125233193381
-9.68036081427e-05
0.204590809106
-0.00018710563485
0.000264171196415
0.0510578075202
-5.8066739379e-05
-4.86341258416e-05
-5.96310942904e-05
-4.94858848087e-05
-0.000409584635214
-0.0509873330184
0.000397628115081
0.0513109717608
0.000133712997571
-4.65356054284e-05
-3.85776569834e-05
-3.6690241342e-05
-3.4852211982e-05
-0.000101160578987
0.0027088721657
0.000688530973212
-0.0186791421526
2.80717460743e-05
3.25219709336e-05
2.89960790176e-05
3.0627586339e-05
-0.00193267018107
0.00192806984955
0.00353756513507
0.0039861958465
-0.0343063507633
0.017070525154
0.0676709948639
0.0166621918385
0.00197977673636
0.00378374653233
0.00223747229666
0.00436759528454
0.0026631827916
-0.0120341825335
0.0319789085775
-0.00699730971035
0.000314420236528
-6.15636178319e-05
-6.53455370771e-05
-6.06892733129e-05
-6.62570540163e-05
0.0511672212566
-0.000322741059811
-5.79398553839e-05
-6.57527014874e-05
-5.73984677507e-05
-6.41311116469e-05
0.0510720494264
0.000307255082089
-0.0509637434456
5.29421202433e-06
5.98263973543e-05
0.0118780331786
2.6221625626e-05
-7.44184582721e-05
-0.0118949155905
1.32707596049e-05
8.44462962389e-05
-0.011816033744
1.68548989152e-05
-6.84309331536e-05
0.0117699817035
-7.29682908022e-05
0.0127363091766
-7.5064766846e-05
7.96534923047e-05
-0.01272586971
7.88618637067e-05
-3.37689492749e-05
-3.36463346147e-05
-3.33339281272e-05
-2.61984376251e-05
0.0513132128224
-5.86158537564e-05
0.0512649405469
-3.52949706423e-05
-2.12925668523e-05
-4.22117287964e-05
-2.12482170602e-05
0.000145883209394
-2.35742317214e-05
-1.9021255411e-05
-2.21112356551e-05
-2.41789876922e-05
0.0512275473464
0.000108346603219
3.47570640309e-05
-3.88244656741e-05
-3.01535036625e-05
0.0128190735324
-6.26137828167e-05
3.39113903386e-05
-0.0117096585287
4.53902735578e-05
0.0117149775472
-2.20400553968e-05
3.83244582791e-05
-2.49101069231e-05
0.0128173089368
-0.012803645163
-4.00582492549e-06
0.0127877105451
-3.77178772924e-05
3.41516664018e-05
-0.00751573979872
0.000120468242207
0.00013569182121
0.000126829987163
-0.00083141736608
0.00318390793688
0.00211146639087
0.00121603091923
3.17098110529e-05
4.27981256796e-05
7.47595893741e-05
5.29191874274e-05
-0.0119396251009
0.00554733362564
0.00857204906456
-0.00288053966228
-0.0153830710795
0.0191437349842
0.0043834096911
0.0158113415882
-0.0120339597274
-0.00131910509599
0.00152640618329
6.64289006174e-05
0.000117533753067
9.83436572228e-05
4.10867413005e-06
0.00384229081288
0.000232312593355
0.0174664415769
0.00506607953385
5.97778483746e-05
0.0127624698483
-6.34538986193e-05
-0.0127448852183
-0.0127530622479
-0.000128727636363
-5.03977915589e-05
0.0127792412135
5.39761503069e-05
-0.000118965878139
0.000120665110297
0.0117372780875
9.31177010778e-05
9.97888364085e-05
0.0117722035759
-0.0117827870168
-0.000144715845191
-0.0127345755483
6.3182746037e-05
0.011750818065
-0.000138652578103
0.0127910763948
-5.45378553983e-05
0.0128061555754
-0.000134919036983
-4.44469442778e-05
4.86577881034e-05
3.7075074938e-05
-0.0128177801348
0.012841341323
-4.14674007846e-05
-0.000110822612078
0.000127564755336
8.82502471225e-05
0.000142726228418
-0.0117630513264
0.0117737279305
-0.000119736706023
0.0128300115072
4.02491765073e-05
-0.000130970183987
-4.69486821996e-05
-0.0128501089745
-9.43407893702e-05
-2.41119244069e-05
0.0128494245111
2.90907103988e-05
2.58471522978e-05
0.0128578744268
-3.02449303771e-05
-8.60784671894e-05
7.14851907733e-05
0.0117675936971
7.71123236945e-05
0.000126588605001
0.0117764639516
-0.000104158972668
3.0398064271e-05
0.0117840038467
-8.96786034287e-05
0.0128509180602
-2.8655602564e-05
-3.41026983837e-05
-0.0128376819571
0.0128255497034
-3.04643982754e-05
-4.7602328776e-05
-0.0117567461035
0.0117448604164
5.19399498547e-05
-0.0117705977945
-3.63262360907e-05
0.0117629957144
-6.81123859171e-05
-2.63183219136e-05
2.93116111289e-05
-6.70038465002e-05
4.8779122775e-05
6.23684749816e-05
-6.2151671576e-05
-2.87854064354e-05
-3.89062031324e-05
-0.0128467546999
0.0128309045204
3.071897127e-05
-3.97761431535e-05
-0.0118082994691
0.011806870711
-0.0118323442775
0.0118390419264
-4.25221653113e-05
3.0384869247e-05
-7.32064474652e-05
-0.0128492394959
8.23404475432e-05
7.07847545339e-05
-0.0118375991633
-7.3129803944e-05
-0.0128436183343
3.02873434472e-05
-0.0118198624285
0.00162166023834
-0.0025281442568
2.36967510184e-06
8.01844773329e-06
1.2307485984e-06
-3.18416810138e-06
0.000510304044312
-0.00140731407488
0.00179488969421
-0.0118754436265
-0.00869812891422
0.0190492023214
0.00507060284091
-0.000473006148532
0.000970226014307
-2.99565328341e-06
-3.13076392158e-06
-3.24728132789e-06
-0.00385194789465
0.00258423819306
0.000785046814747
0.000282656450375
-1.25276900592e-05
-1.26278692606e-05
-1.42574401762e-05
-0.00148736000353
-0.00174426357364
-0.00692158304047
-0.00719825937187
0.00775412106406
0.0108719578633
-0.00527114730306
-0.00926419068352
0.000747160305682
-0.0130623020767
1.23327694755e-05
5.91996781496e-06
-6.15970567322e-06
4.77281969519e-06
0.00306748225287
0.00392403695856
-0.011038363271
-0.00373939651101
-0.00955149211438
0.00436697200245
0.000652599097341
0.0010843821709
-3.09408164662e-06
2.97779273314e-06
2.12056257985e-05
1.64169626179e-05
-0.0129804124041
-0.00185709307351
0.00538650838836
-0.00761022548282
-0.0037977636622
0.000607623214575
5.12853170055e-05
3.74358450844e-05
4.2308751997e-05
-0.0177521822691
-0.000643736042763
-0.00745591575233
0.0065586962537
-8.69108430109e-05
-0.0127397679957
-7.21809469125e-05
0.0127515413486
8.92547975708e-05
0.0127533316457
9.93223421499e-05
-0.000100851357132
-0.0127406010828
7.41901273031e-05
2.32583515556e-05
0.0118545247755
-7.69027000181e-05
5.9014478565e-05
0.0118795864884
-0.0118971245745
-1.83765548152e-05
0.0127653117548
-8.43770028345e-05
-0.0127298922896
9.8962624109e-05
0.0118536695592
-2.62057681265e-05
-6.86804470729e-05
0.0127627767438
-7.80067311346e-05
7.38653833072e-05
-0.0127782368968
5.67658101059e-05
-4.88423986434e-05
0.0127893659652
7.81846275175e-05
2.23495792842e-05
-7.45866823943e-05
8.74084094191e-05
-0.0118127337519
-3.5575349939e-05
0.0117651289415
-6.4199457266e-05
6.60994953789e-05
0.0127744482506
-2.9021448076e-05
0.0118092304107
6.16555540196e-05
-9.61660351997e-05
-0.0118452995855
8.80643572582e-05
6.66116386724e-05
0.0117624998855
-9.98953842586e-05
-6.80663767096e-05
0.0127526240149
7.39548178941e-05
0.0127488481678
-6.98855940093e-05
-0.0127376414132
8.26400136448e-05
-0.0118105340821
0.011760138416
0.012765315508
-0.0118509824008
-3.00025393566e-05
0.0128160275458
-3.78777880012e-05
-2.42217589335e-05
0.0117317323078
3.5405240157e-05
0.0117488289625
-7.69412980268e-06
-4.27573623084e-05
-2.42134251576e-05
0.0128130701551
3.62793325313e-05
3.41463021935e-05
-6.18180311444e-07
0.011708950839
1.82235798638e-05
0.0128147622992
-4.21905703924e-05
0.0117292028196
2.54018253475e-05
-3.91468735242e-05
0.0128073095972
-2.03122976598e-05
3.14513501877e-05
-0.0128176009062
3.15951755362e-05
0.0128209342765
-3.4643429067e-05
3.53721734547e-05
1.77616882723e-05
-2.54473430995e-06
1.82403174544e-05
-0.0117228653184
6.81864112302e-05
0.011719273119
-3.98764967679e-05
2.27237826824e-05
0.0128082804129
4.6074419779e-05
-0.0128159655244
-5.5540690822e-06
-3.97929869578e-05
3.63545136629e-05
-2.68789784558e-05
3.7840612249e-05
-5.04466223271e-06
0.0117917068204
0.0118183151246
-5.258912769e-06
-2.94826732046e-05
0.0118037674064
3.23427885129e-05
-1.30939972591e-05
0.0128055659228
0.0117792427657
0.0117898261302
-5.2006537583e-05
5.89467853902e-05
1.31008860287e-05
-7.59279868577e-05
0.0117732467156
8.24773456874e-05
-3.02351845724e-05
0.0127798005596
3.22292076433e-05
0.0127959182042
-1.87682663728e-05
2.79458641818e-05
-0.0117709363511
0.0117564711203
0.0127921657666
-0.000115064746316
-0.000115223200695
-0.000127591264249
5.81109107501e-05
0.204879491589
-0.000127805829794
2.62367473997e-05
3.58613102585e-05
-3.19040299765e-05
-3.535752363e-05
-3.58252972597e-05
-3.00855979413e-05
-1.33162840333e-05
0.051308795362
6.3667686172e-05
-0.00418436403821
0.000759208357877
5.84441667632e-05
4.8850810593e-05
5.19546215632e-05
0.00116498887
-0.0157148851487
0.00448820180469
0.00534758445158
0.00573366664735
0.0339542478948
0.0146761593714
0.0049410246766
0.00588581583555
-8.40898388799e-05
-7.11183225889e-05
-6.84499903116e-05
-8.77122301684e-05
0.000177354845954
-0.000243628647935
0.051186777437
-5.01068123369e-05
9.46681516425e-05
6.63767756571e-05
0.0117487524578
0.0512218807005
-4.19018689215e-05
-3.22393829705e-05
-3.46643893073e-05
-3.89042347705e-05
7.41113484832e-05
0.0512351370564
-4.51801355972e-05
-5.189754114e-05
-4.96517767566e-05
-4.41516867817e-05
4.56737827419e-05
4.44485482142e-06
2.9092417718e-05
0.0117211294402
5.26292455251e-05
-2.42341497562e-05
-2.61000507251e-05
2.94871095089e-05
-9.13629791342e-05
0.0117679060206
9.32383477503e-05
0.0117486535339
-5.30031350142e-05
5.88123553343e-05
-7.308469126e-05
-0.0117538189959
7.28276287038e-05
0.0512528091426
-3.93702211113e-05
-4.72646138235e-05
-4.38044715108e-05
-4.65123374883e-05
0.000118550871976
0.000106562198449
-6.58355323024e-05
-2.64031645797e-05
-2.97786871429e-05
-2.14285772373e-05
-3.47735852561e-05
8.2186123118e-05
0.000163416114104
0.0512392895448
-0.000119704520144
-5.82622064504e-05
5.57462381715e-05
-5.24589818536e-05
0.0117473545408
5.64880573237e-05
-3.99006978228e-05
2.51938853776e-05
2.97399088732e-06
-0.0117626275767
0.0117742017182
1.61245328679e-07
4.12727826141e-05
7.29262129809e-05
5.7237611786e-05
-0.00104710137849
-0.00243975376141
0.00192377529294
-0.012235020031
0.000546726272657
5.12145325144e-05
3.40053044465e-05
5.75956639781e-05
-0.00564543044716
0.000479090416128
-0.0110671270888
5.77265903853e-05
4.62403103265e-05
5.99599270677e-05
0.00534690797429
-0.00721098081147
-0.00347101405727
0.00601870020156
-0.004755125693
-0.00388438396648
-0.00130534068778
0.00313562339382
-0.000811710820887
1.03545334586e-05
-0.0100970413564
5.06634324065e-05
5.9186022106e-05
4.45679732146e-05
0.00483690338438
0.000226508148274
-0.00624620592336
3.36009066772e-05
5.10463790628e-05
4.10700941676e-05
0.00140226363773
0.000244962621395
-0.0089110351662
-0.00299867283736
-0.0127800373956
-0.000112224494758
4.72845410652e-05
-4.42305036528e-05
0.0128051138153
-5.55420996822e-05
0.0127682488275
8.55251703993e-05
0.0117437215767
3.84821152405e-05
6.84515653592e-05
0.000122006907547
0.011724267249
-5.31473253255e-05
4.11062440471e-05
0.0117160513386
0.0127952791504
-7.48138818924e-06
-0.0128059061623
-1.99926252387e-05
5.46507948456e-07
0.012800935026
0.0128208739883
2.055794673e-05
-2.67220548476e-05
1.84486337221e-05
5.08597071455e-05
-2.25752082417e-05
0.0117328178562
1.85045807436e-05
0.0117247835506
7.74850552057e-05
-1.5596346887e-05
0.0128116961788
1.1447664202e-05
7.9068118114e-05
0.0117285198993
-0.0127881417994
-4.93071776332e-05
9.83292266188e-06
0.0127863030718
-2.12321469185e-05
0.0127720681802
2.62738348315e-05
4.03941254518e-05
0.0117534428172
-9.2906721603e-05
4.4098573752e-05
0.0117565883782
9.4267204433e-05
0.0117478936108
0.0127715301927
1.57412315815e-05
0.0127847154852
-5.05050651734e-05
-3.27752145694e-06
1.02146413907e-05
1.58595690065e-05
-0.0127696400939
0.0127691671337
-8.31599054425e-06
5.06949373001e-05
-0.0117475369988
0.0117484495818
-6.69616021228e-05
-8.54996174929e-05
5.03300846893e-05
8.46319467115e-05
0.0127827935573
1.88206014362e-05
-7.56506096195e-05
4.971712615e-06
-0.0127804608674
-3.51471947202e-05
-2.80031915422e-05
0.0127776458447
2.66021323951e-05
2.3617539039e-05
0.0127702707765
-1.61565954135e-05
4.235241183e-05
0.0117548440659
-5.04957160493e-05
-3.42123181957e-05
4.96389472233e-05
0.0117533262986
3.79330532957e-05
2.45039478974e-05
0.0117637885939
-3.36336848366e-05
0.0127722921259
-2.68556348747e-05
0.0127783161585
-2.53672208245e-05
-3.05844994496e-05
2.88632273053e-05
3.09067796158e-05
-0.0127750681467
0.012773427042
-3.38336160175e-05
1.68640213737e-05
-0.011774949598
7.52547334166e-06
0.0117871880688
-1.55227665854e-05
3.8723365862e-05
1.85743595719e-05
2.8345002842e-05
0.0127763120796
-1.09833699705e-05
-2.94076672162e-05
-0.000664422548742
-0.0497575669085
0.0499768968235
0.000924822442752
-0.000292404401702
-0.000269352572139
-0.000297000219679
-0.000275592622137
0.000654646649158
-0.000992095325177
0.0505874074716
-0.000184004506996
-0.000198076054174
-0.00020212089472
-0.000183849197214
0.000481287488494
-0.0502690909096
0.000960241085501
-0.00130307507836
-0.0508198780114
0.0511148416943
0.00115523322326
-1.70646779454e-05
-8.13763286855e-05
-3.36097501996e-05
-6.63552626937e-05
5.12796729917e-05
-0.00098831613475
2.79125932085e-05
-2.69072089363e-05
2.14425093183e-05
-1.54819536289e-05
2.03299589334e-05
0.0510458349228
0.000835889771772
-0.0509207405424
0.000374447158138
0.00267472210593
0.0171737769222
-0.0212938514231
-0.0027298331979
0.00268237270364
0.000395721680113
0.000359186472349
0.000349057829025
0.000156859641362
0.0280538509674
-0.032121218079
0.00538521377664
-0.000642269958801
5.39096693726e-05
9.91358016306e-05
1.22851796199e-05
-0.00100013982281
0.0001959418735
0.000503153027325
-0.0315174379993
6.78384379182e-05
0.000176270039067
0.000165840115669
0.000148464937608
0.0304876509235
-0.000228093893311
3.08080025985e-06
-0.0070878402543
0.0304023232406
-0.0266077279996
0.0051511723145
-0.0017247723039
-5.36762765742e-05
-1.78867007316e-05
-6.54898124759e-05
-4.33740454188e-05
-0.00284096029581
-9.22309135609e-05
-5.26260173109e-05
-9.34085800832e-05
-0.0227202151467
0.000434781533962
-0.00250797766707
0.027915875516
0.115452742822
-0.0161736912684
-0.00292267871273
-0.00442120823085
-0.00377371585925
-0.00485604584503
0.0117442676752
-0.0584248383972
-0.0449706675449
-0.00415386430944
0.00192800669333
-0.00413502850432
0.00404480689879
0.0336020821503
0.0464220588308
0.0945142651854
-0.0217185421977
-0.00271902607244
-0.00117278728146
-0.000753188578095
0.00168987830228
-0.0451554394884
-0.0315926027674
0.00705108755182
0.0135344918007
0.00955314451878
0.0142181221636
0.14410119706
0.0818067304223
0.00547471495494
0.0059453951929
0.00689200880734
-0.0388592859518
-0.0116994223995
0.00631711197081
0.00867179524362
0.0121573028687
0.00883100115218
0.011931737917
0.114978160272
-0.00888492661981
0.000107195920587
-0.000218818237251
-0.000243074191357
-0.000254891549839
-0.000212491916253
0.0494537052326
0.000669341029904
0.00012096501414
-0.0494216424887
0.0494653898175
0.000426035308503
-0.000233533468451
-0.000282128194781
-0.000273429684492
-0.000245830250036
0.000700929767039
-0.0494501143339
-0.000276572145383
0.000292506121135
-0.0121011467829
1.2405496828e-05
0.0120800380076
-6.4892012346e-06
0.0120862610605
7.38530413406e-05
-0.000376716622195
0.000372675906637
-4.49657348459e-05
-0.0121100735589
-0.000289436670261
-0.000276581972908
-0.000260198555364
-0.000292477201279
-0.000288022933443
0.0124356139879
0.0123428128669
0.0124167083185
0.0123943874662
0.000618046443525
9.76637620478e-05
-0.00039881616249
0.00038066155475
-6.3472519694e-05
0.0120710432791
0.000712157599944
-0.000256514899551
-0.000294153651445
-0.000249325905987
-0.000301144292493
0.000694554649131
-0.0496368257361
0.0500450268886
-0.000235696673683
-0.00026654780928
-0.000274254803479
-0.000234060416854
0.00066657449901
-0.0498279404478
0.000839030750701
0.0121011478406
-0.00035885251353
0.000384035355609
-0.0121271985444
7.41714539752e-05
0.0121567081501
-0.000252842680243
0.00031386939009
-6.93881080856e-05
-0.0121906566087
4.21929788975e-05
0.00126885723591
-0.000222562851858
-0.000222114062752
-0.000230711555405
-0.000203497798103
0.0501983881028
-0.000259016794694
-0.000203021752327
-0.000282029254359
-0.000203925876103
7.66701873393e-05
9.88620944114e-05
7.85765458983e-05
8.17799389551e-05
0.0503124540929
-0.000259984677134
-0.000239719587079
-0.00024696766385
-0.000243395460881
0.000655071951205
0.0506674452898
0.00120337709792
-0.000192251233759
-0.000153508701807
-0.000175430995458
-0.00017624482204
0.000407797807159
0.000370978190691
0.012091187031
0.000112751164974
0.0120651375856
-0.000317419540505
0.000303305657479
-0.0120698440972
0.0001837144962
-0.000164850731802
8.20301606458e-05
-0.000239371667372
0.000285411610873
-0.000113658418313
0.0121424139836
0.0120857780601
0.000129866139335
-0.000121180667334
0.000165104112244
-0.00016319306006
-0.0120964093562
0.0509778223594
-4.79156082437e-05
-9.21003518793e-05
-0.000108579165612
-2.9963069239e-05
-0.00141679261212
8.13499493378e-05
0.00135543442606
2.86338425762e-05
0.000100879358352
3.79153709432e-05
0.000102887889383
0.051403305511
-0.000320858659509
-0.00173076216629
0.000188577545194
0.0120208295462
0.000189071451944
-0.000176210470543
0.000234951605128
-0.000158324063673
-0.0119059584283
0.000183936126942
0.0118247226825
-0.000179194108143
0.000127564073055
-1.01707391787e-05
0.000104587319924
-0.0001622029301
0.0120262401635
0.00013277940035
0.000235488237849
-0.000137484632379
-0.000155034809115
-0.0119026011095
0.0118267893819
0.00105139373049
-0.000140763951368
-0.000133851010116
-0.000154025740502
-0.000115511613498
0.000463444562686
0.0508836617216
-0.000112847621195
-7.60456343595e-05
-9.01249565083e-05
-0.000104743320984
0.000379445147154
-0.0507181503057
0.000890255321759
0.000248610361636
0.0121612890968
4.79477447105e-05
-0.012179938358
0.0120956292446
-9.50656128986e-05
0.00014226975586
-0.0121095039443
9.64143657223e-05
0.0121255971973
-2.92264328316e-05
5.84840144481e-05
-5.22119651903e-05
-0.0121472992806
4.46266205871e-05
0.00113098473497
2.97206894558e-05
7.42659414276e-05
1.95456201424e-05
7.90669410189e-05
0.0512788668769
-0.000142377997171
0.0511046132558
-5.78626118153e-06
-4.15900484311e-05
-5.16178470686e-05
1.06531395437e-05
3.39117935673e-05
3.16472278347e-05
7.88201979914e-05
4.32989708253e-05
7.04053545755e-05
0.0511938057968
0.000967602606911
-0.000149975598637
8.9733782183e-05
0.0120354571249
0.000100955553606
0.000201530471009
-0.000116638530439
-0.0119071469845
0.000115785781836
0.0118391655991
5.69020452419e-05
3.73281075033e-05
3.32267217408e-05
-6.34596617299e-05
0.0120616202492
8.36214294132e-05
0.000177850471574
-0.000113752974927
-9.32993619901e-05
-0.0119401392886
0.0118855908745
1.8645864266e-05
0.0120769490888
5.82500993449e-05
-0.0121404830108
-0.00010461576061
-0.0119559996375
0.0118996440737
0.000157683670106
8.68511426726e-05
0.000538507675306
0.00021665419357
0.00031233452284
0.000236846932904
-0.0138656640878
-0.00465622292356
0.0130607004113
0.00388109029303
-0.015030359868
-0.00318755861584
0.000341424507699
0.000310455286085
0.000267746246791
0.0134067146247
0.00405700950106
0.00199630207478
0.000378627135564
0.000431911936422
0.000417798418384
0.00079728746258
-0.0167754793196
-0.00425756239753
-0.00546566517028
-0.00148304737394
0.00237785711074
0.0059152849788
-0.00390273650503
-0.00419531657009
-0.00216574607027
0.00158445139381
-0.00571074099501
-0.00859539732693
0.00703186226171
-0.00625895324344
-0.00561714382843
-0.00260963213433
-0.00967531372085
-0.00383013777688
-0.000363980096108
0.00551762932191
-0.00367270162931
-0.013194072467
0.00301496521748
0.00611906112715
-0.00870099949043
-0.00515527162303
-0.0003713739657
-0.00435851827511
-0.00836440427581
0.00442273677863
-0.00600717714378
0.000305738771246
0.000355463143383
0.000325224500014
0.00426271221772
0.014389645281
-0.0219443597417
0.000301867916352
0.000248410277483
0.000276450831081
0.0178409804476
0.00368141974652
-0.00666301862368
0.00271725427434
0.00133144197836
0.000368528711364
0.000247543597704
0.000296967311149
0.00147157633625
-0.026772821079
0.00154413521054
0.000302311931633
0.000224274501372
0.000291945406945
0.000448719332261
-0.0308097014361
0.00560418177324
0.000177146025185
0.000166068762636
0.000237731265198
-0.00826080926805
-0.00915719023293
0.00879193120527
-0.00546911366938
-0.00821211591952
-0.00963329463718
-0.00964915277173
0.0109312982043
-0.00747746666559
-0.00548385634942
0.00297849998568
-0.00708461990066
-9.29979915492e-05
-0.000270771886536
-0.000125781503101
-0.0273887160026
0.000107136593948
-0.0303366933778
-0.00218159912069
5.81636328726e-05
-4.4599388102e-05
-1.92539903507e-05
-0.00792383852581
0.00467248357798
-0.000248512904997
-0.000129885652512
-0.000119068306263
-0.0233783286306
-0.00459599350216
-0.00231210382601
-9.40964344706e-05
-0.00246761229719
-0.00177094109555
-0.000656995231579
0.00304013078821
0.00138865225874
0.00405438881289
3.28318661502e-05
0.000137070428156
6.48927603757e-05
0.000103672600865
-0.000441787296166
-0.0274788968092
4.5485419749e-05
7.65166600151e-05
8.73021815206e-05
0.0307018276183
0.00103381131811
-0.0096189897729
0.0128120269348
-0.00731296921037
-0.00460235498086
-0.00451477005269
-0.00155952385465
0.00786423068359
-0.00445575108833
0.0039737491685
-0.00749390848852
-0.000111007661658
-0.000201104092875
-0.000122764008148
-0.0177794009861
-0.0232344692738
-0.00172998369251
-2.56989869066e-05
-8.09638877942e-05
-6.19648244828e-05
-0.00652644706639
-0.000163895361891
-0.000134848831962
-0.000111863436676
-0.0148214479016
0.00267550958524
0.00317316069395
-0.0014107212391
0.000496788366759
0.0103835518275
0.00618561214698
-0.00206519588751
0.0143462325917
-0.00226102066924
0.0123682419022
-0.000251353442885
2.92547634021e-05
3.10842664936e-06
-0.0123680282696
-2.53038841998e-05
-0.0123678928009
0.0123854346677
5.74233152652e-05
9.81065565649e-06
0.000230770252285
-5.53643512826e-06
-0.0121194041687
0.000322404798346
-0.0120995356914
2.73526247717e-05
0.0120754965795
2.04362485964e-05
0.0123902069835
1.59236159554e-05
-0.0121198757087
4.86339986848e-05
-0.0123689129181
0.0123819170072
3.85900943639e-05
-0.000275795509177
-0.0123750431378
-7.01299414799e-05
-0.0124086270803
0.0124435141905
0.000126394517459
0.000350165203787
-0.0121026032326
0.0120765566385
0.00030829138074
-2.73869021046e-05
4.81888725325e-05
-0.0121284912521
0.0124090601347
8.54391801698e-05
-0.0123926102897
-0.012121758908
-0.0124456393935
0.000143452272276
-0.000396939026624
-7.10168573496e-05
0.0124807986215
-9.85364255158e-05
0.0124856455186
0.000161706049792
0.000355122761972
0.0120721118271
-3.41551139614e-05
0.000403790410114
-8.3875870508e-05
0.000120269068131
0.0120638805206
-3.89746139433e-05
0.000214950326959
0.0125262549878
-5.01961200803e-05
0.0120598133208
-0.000134005598065
0.0124877468771
-0.000332145622064
0.000173763359187
-0.0124518254089
-0.0124456214211
0.000175574892883
0.0124866653704
0.000322380821001
5.0294971138e-05
-0.0121455553702
0.000378686791523
-0.0121431918768
8.03723419616e-05
0.0121134961461
-0.0124200499617
0.000214022548921
0.0125276146134
6.19518224588e-05
-0.0121615073625
0.0125232733925
0.000204574293138
-0.000307753367366
-0.0124815269038
-0.000243796592327
-0.0125565501925
0.0125991899834
0.000248492238915
0.000345603834051
-0.0121701607428
0.0121380200719
0.000286335914603
-5.02968428191e-05
-0.0122081676468
2.99905738057e-05
0.0125651135356
-0.0125127749205
0.000213347593425
-0.0121892044061
-0.000264022850764
-0.0125817713659
-0.000366934137782
0.012633879157
0.000286585610861
0.0125414393812
0.000209105411116
0.00039751764707
0.000136329933035
0.0120750974279
0.000360330262232
0.0121012557153
0.000124762764067
0.012593521699
0.00024007272707
0.012083194346
0.000138307011134
-0.000287563371255
0.0127068002906
-0.000312963215365
0.000305037939872
-0.0126682489075
0.00033477053132
0.012722514537
-0.000307422038353
0.000349410568126
0.000167393644693
-0.000141841340662
0.000251124592395
-0.0120682285992
0.000186914888307
0.0120616921826
-0.000242866086375
0.000337517356445
0.0127522752316
0.000167600500927
-0.012617047413
0.000301664042584
-0.000323240345073
0.0126649203698
-0.000265875552871
0.0126468189842
0.000263981722946
0.000323960012052
0.0121291393446
0.000277259108475
-0.000127930605228
0.0121188849566
9.86233122254e-05
0.0126902767478
0.000292316851596
0.0121081708069
0.0127347212242
0.000315589579924
-0.000272520549382
-0.000338248685687
-0.0127509919604
0.0127801315892
0.000320615928988
0.000213362997905
-0.0120918158825
0.0120799001032
0.000224778733109
-0.000149896620851
0.000113604488953
0.012771949368
0.000303573865618
-0.000368333092379
-0.0127953687844
-3.63814144602e-05
0.0128027654133
0.000367830402923
2.90102224522e-05
0.0127729936978
0.00035549475112
0.00011935057429
-0.000336721746091
5.82602684969e-05
0.000191627725624
0.0120063150269
-0.000181056495796
0.00015042637301
0.0120145348143
0.000185216241379
0.0127834605357
4.40123229982e-05
-0.000364610916888
0.000353363043482
0.000109303293402
0.0119939934298
0.000186387835887
-0.00038272317734
1.9962135929e-05
0.0128679098003
0.00036871065266
-7.12934650968e-05
-0.0128537306445
0.00039439758268
0.0128556856561
-0.000403409535745
-0.000151531419742
7.99052482754e-06
0.000179457925417
-0.000180959693217
-0.0118996781494
-0.000185257082772
0.000175472417171
0.011821663302
-0.000389044068864
-5.65403447608e-05
0.000168039515798
0.000380961917312
0.0128565511956
-0.000161067636039
-0.0128058910373
0.000348552553022
-3.97078779223e-05
0.0128164640339
-0.000341983131426
0.0128118328866
0.000322620348283
0.000131769672465
0.0120293416392
2.05708105819e-05
-0.000158759703008
0.0119883661265
0.000131594940733
0.0128213882271
0.0003291295394
0.0119976248301
0.000339368457117
5.21349085316e-06
0.0128687011278
-0.0128631067603
-0.000346979527777
0.000323634420561
0.0128497040243
-0.0119077651862
-0.000146977204873
0.0118259844246
-1.86961311352e-05
-0.000143150611159
0.000117150608374
0.000316693342366
0.0128581333003
-0.000288334300468
-0.0126927532839
-0.000203433801663
0.0127283137484
0.000272190068282
0.0126721564544
0.000263887261777
-0.0126217421623
0.000237495065867
6.44062434873e-05
0.0121344120215
0.000216130134446
0.0121717804259
-0.0121930960435
1.87352925658e-05
0.0127113334484
-0.0126425534937
0.00024555018579
0.0121470266729
3.42612548269e-05
-0.000293996544108
0.0127680295321
-0.000162551683612
0.000275878867657
-0.0127618458387
0.000305393957256
0.0127854078215
0.000195066029869
8.03266683001e-05
0.00011088138488
-0.0121171969742
6.77266518671e-05
0.0120997810739
0.000283868721696
0.0127849203573
5.10932763301e-05
0.0127755323672
0.000258853710219
-0.000127801835349
-0.012743611839
-0.000263752954582
-0.0127794266825
0.0127858602485
0.000239671928008
8.03024762625e-05
-0.0121355879688
0.0121162156974
0.000106398655658
-3.83148859228e-05
-0.0121734603475