/*--------------------------------*- C++ -*----------------------------------*\
| =========                 |                                                 |
| \\      /  F ield         | OpenFOAM: The Open Source CFD Toolbox           |
|  \\    /   O peration     | Version:  v1906                                 |
|   \\  /    A nd           | Web:      www.OpenFOAM.com                      |
|    \\/     M anipulation  |                                                 |
\*---------------------------------------------------------------------------*/
FoamFile
{
    version     2.0;
    format      ascii;
    class       volVectorField;
    location    "10.65";
    object      U;
}
// * * * * * * * * * * * * * * * * * * * * * * * * * * * * * * * * * * * * * //

dimensions      [0 1 -1 0 0 0 0];


internalField   nonuniform List<vector> 
28582
(
(0.815025005681 0.00389140187283 -0.000683490922772)
(0.816377439916 0.00294288385842 -0.000781332903337)
(0.815335262468 0.00417082153291 -0.000768167893812)
(0.8167947016 0.00278144976673 -0.000819398162779)
(0.815258777014 0.00379410912151 -0.00262186277469)
(0.817370924706 0.00231169454048 -0.00262164087155)
(0.816903561638 0.00452835558228 -0.00384214341117)
(0.820090642402 0.00251845732851 -0.00448356205316)
(-0.00761006169005 0.0372010224134 -0.00569548199294)
(-0.263678388898 0.0436856089056 -0.00289763969353)
(-0.175887005254 0.105611806849 -0.339958552275)
(0.819420070296 0.00296004467394 -0.00549244044995)
(0.753317503142 -0.00704241932578 -0.00361727931237)
(0.752191409313 -0.00582687713607 -0.00559556326942)
(0.821004819163 0.00224918921424 -0.00305062036814)
(0.820503488424 0.00269647325021 -0.00324286266139)
(0.752741179272 -0.00529904662122 -0.00504188496453)
(0.82153610897 0.0017723169963 -0.00390887822812)
(0.821651860652 0.00204295072091 -0.00365397007274)
(0.814481910328 0.00690611251388 -0.000788375838423)
(0.817842713446 0.000942637753853 -0.000488838921071)
(0.817460633278 0.000227406341368 -0.000567899409875)
(0.814473687822 0.00666437206375 -0.000450104888298)
(0.818317427077 0.00129616232516 -0.000123211931238)
(0.817758847939 0.000245769564593 5.76378052195e-05)
(0.81403019788 0.0063324758837 -0.00164679076353)
(0.818995763789 0.000800615276741 -0.00174084219111)
(0.815980267407 0.00647345891272 -0.00309321067638)
(0.821323298454 0.0018307110926 -0.0018650030623)
(-0.289051128218 0.0464824163123 -0.00511950138026)
(0.184767935077 0.292290667832 -0.300184940783)
(-0.11147932411 -0.194273953105 -0.250547219152)
(0.817936832914 0.00511526292191 -0.00290744525394)
(0.816385450498 0.00496544452876 -0.00276418729037)
(0.761394348238 0.00289944138703 -0.00333536300332)
(0.754982347561 0.00276607380844 -0.00394248834406)
(0.815057827044 0.00493014940333 -0.00442107138606)
(0.821192221804 0.00104458268807 -0.00151119637653)
(0.820865109603 0.00228056681766 -0.00156951692695)
(0.819969596767 0.00153423542211 -0.00126610519695)
(0.82115566338 0.00220027223425 -0.00327548481477)
(0.749250775756 0.0019584993984 -0.000776115888775)
(0.821194322489 0.00243490227023 -0.00291490073184)
(0.819175529343 0.00219835506586 -0.00129622792324)
(-0.0661143808552 0.03465020609 -0.0128683509795)
(-0.181670698818 0.0714949397357 -0.00234529014042)
(-0.27809547306 0.0594620992784 0.0519843106131)
(-0.223995929956 0.0478722182322 0.0349860708344)
(-0.172460231967 0.0333660775514 -0.00745573169287)
(-0.280839156628 0.01909980142 0.0467258038089)
(0.816616740724 0.00396743335416 -0.00604341805907)
(0.817159587454 0.00342052993727 -0.00854053751645)
(0.752443805376 -0.00682964617823 -0.00458463612987)
(0.753973623656 -0.00853109863838 -0.00432175829688)
(0.815953912489 0.00403986782482 -0.00624387201512)
(0.753007104843 -0.00827686642737 -0.00529773454854)
(0.817881506118 0.00335525292032 -0.00828172923138)
(0.818647125496 0.00300201805078 -0.00848053766488)
(0.82107235465 0.00258226766393 -0.00893402775875)
(0.752057041204 -0.00643395921486 -0.00532469006859)
(0.752972787932 -0.00724672697091 -0.00649493492019)
(0.820437102396 0.00241942142516 -0.00961331034041)
(0.752954278077 -0.00778272081486 -0.00612460300846)
(0.819348221463 0.00299297166435 -0.00844159891378)
(0.822026845349 0.00153554831449 -0.00707436603098)
(0.822009902441 0.00188367672817 -0.00815755695015)
(0.752667256882 -0.00499028257841 -0.0036130384448)
(0.753589202659 -0.00652941749875 -0.00617326926719)
(0.821449569868 0.00164317724685 -0.00870044598029)
(0.75338098363 -0.00588327273988 -0.00500875805582)
(0.822300029967 0.00175080231653 -0.00625102567442)
(0.821316217334 0.00195879533451 -0.003370769333)
(0.752283724116 -0.00315844651481 -0.00146157062879)
(0.753178186843 -0.00294720650325 -0.00258196705438)
(0.821867970276 0.00164764797766 -0.00583378913464)
(0.752481490632 -0.003915047564 -0.00220122294157)
(0.753445707144 -0.00447724352601 -0.00369582129801)
(0.821935050323 0.00178113436814 -0.00492783467791)
(0.821727208892 0.00178263705871 -0.00397140742576)
(0.755775893469 -0.0020633486249 -0.00230353994484)
(0.757170614374 -0.00297687014948 -0.00279033409953)
(0.82188170174 0.0019246103984 -0.00636392414084)
(0.75738386083 -0.00509688917911 -0.00509531599123)
(0.821782659015 0.00179535829681 -0.00683389927843)
(0.755902947433 -0.00396744474327 -0.00422594938722)
(0.0304386230907 0.0411184315243 0.0062811507337)
(-0.112609284157 0.284152282372 0.0704979442979)
(-0.0144580934868 0.0589168711441 0.00764225951995)
(0.000901070086042 0.039557999102 0.00916868839059)
(-0.071425144845 0.167680984059 0.0337479898243)
(-0.128829275462 0.133301061483 0.0113189394289)
(-0.213555974846 0.0322604372751 0.000964020127581)
(-0.220468350323 -0.0790837494996 0.0269615719116)
(-0.179463783765 -0.0560954541584 0.0421541545486)
(-0.206408091124 -0.0442788263892 -0.00120949419832)
(-0.152411953524 -0.0978643116497 0.0223907736745)
(-0.29774467528 0.00405617494966 -0.00961929841437)
(-0.140430730569 -0.0928064437663 0.0395883021692)
(0.815804774056 0.00554721407157 -0.00426397083896)
(0.8153513441 0.0063974063425 -0.00328844892033)
(0.759578866139 0.0029393919081 -0.00380191334143)
(0.761471373175 0.00035207738798 -0.00338145516862)
(0.816662639775 0.00556273804792 -0.00446190093627)
(0.814649594415 0.00624371302648 -0.00325340279369)
(0.759653437124 7.75166386876e-06 -0.00381549708521)
(0.816617405663 0.00447659443404 -0.00470882817712)
(0.818227126479 0.00348994457918 -0.00524697314275)
(0.757338151103 0.002845885832 -0.00395403391169)
(0.754904873958 -0.000629066823336 -0.00403718207583)
(0.817476492822 0.00434999234631 -0.00468637791963)
(0.817245372119 0.00388894606811 -0.00540375415188)
(0.757217598554 -0.000117916610126 -0.00392576050128)
(0.756654952087 -0.00493436806263 -0.00361554357511)
(0.754673397621 -0.00523640455999 -0.00407793573321)
(0.815690474797 0.00454014051336 -0.00542558243104)
(0.815762544662 0.00481422199893 -0.00432558141927)
(0.754643764606 -0.00365802305248 -0.00363752799001)
(0.816492563907 0.0043528556788 -0.00522091826627)
(0.756849239803 -0.00330595212971 -0.00335096596276)
(0.820800248025 0.002554279212 -0.00290388947275)
(0.751224253641 -0.00199478883616 -0.000761530329087)
(0.752127626556 -0.0011632105445 -0.00144449299276)
(0.820501508643 0.0023921897448 -0.00249431029535)
(0.750832145434 -0.000875605386508 -0.000765796627138)
(0.820449563969 0.00296641631076 -0.00284419063143)
(0.751596694302 0.000720624913633 -0.00114256117772)
(0.820036314254 0.00211040200183 -0.00227025900023)
(0.82048985549 0.0025396684873 -0.00284853560072)
(0.74962506774 0.000428165703999 -0.00080448404914)
(0.750088801325 0.00372688929877 9.89930599951e-05)
(0.820415177161 0.00287435154122 -0.00289010138993)
(0.819892526485 0.00149772451176 -0.00202447432812)
(0.750533184608 0.00206137163685 -0.000443560750753)
(0.819951270617 0.0023023391508 -0.00106984010493)
(0.820985375828 0.00226112532136 -0.00319903802743)
(0.755085722209 1.89601687853e-05 -0.00124945257858)
(0.75695961651 -0.000580426216343 -0.00160084411253)
(0.756246944737 0.00178084746558 -0.000164805304719)
(0.820201527073 0.0025369280222 -0.00153819774106)
(0.754521191956 0.00213189121606 -0.000608134445597)
(0.755052737551 0.0035291826207 0.000473080006995)
(0.754619543863 0.00507586038084 4.01587852069e-05)
(0.818156972041 0.00190055470155 -0.00141771125209)
(0.819343409608 0.0022842578025 -0.00173921808143)
(0.753380685737 0.00488060849727 -0.000759024737363)
(0.818906978727 0.00170623885439 -0.00207446508118)
(0.753606583864 0.00343445158943 -0.00047411681064)
(0.819190506289 -9.8096616121e-05 -0.00119634831031)
(0.821165140702 0.000320692679836 -0.0021046804088)
(-0.267124408068 -0.0439531861688 -0.0114051249364)
(0.00627571991185 -0.0470709829364 -0.345569605222)
(0.818143106255 0.00403432752997 -0.00351784128123)
(0.75253355239 -0.00524676262371 -0.00414982630111)
(0.819793701243 0.000895311931293 -0.00200202117812)
(0.819522800005 -0.000483390297245 -0.00223047292414)
(0.749818784812 0.0022440986772 -0.000622351962968)
(0.753141921307 0.0061091584473 -0.000583123155594)
(0.752475527715 0.00503596925407 -0.00230483460845)
(0.819807815007 -0.00164118879767 -0.00231472439435)
(0.819878346162 -0.00268993527742 -0.00143838209379)
(0.752100188876 0.00378137961825 -0.002473719308)
(0.753068170263 0.000208254130741 -0.00134413556837)
(-0.0093040735971 0.0285553997744 -0.00349755152193)
(-0.199500014311 -0.0969347447007 -0.00570697740674)
(-0.18493559291 -0.110581866553 -0.00660957738485)
(-0.0905074352555 -0.0570532588435 0.0440451835362)
(-0.0761564294593 -0.0615092752709 0.0285424501405)
(-0.0608400654468 -0.0382704008744 0.0240879678563)
(-0.166403270803 -0.0986557379814 -0.00689374263241)
(-0.157191480702 -0.0474398048949 -0.00575995419441)
(0.818842954326 0.00299305484365 -0.00731969763558)
(0.817138732793 0.00377078022552 -0.00578731787509)
(0.752252128285 -0.00358819180659 -0.00341836784059)
(0.751496873481 -0.0052677049153 -0.0053444966801)
(0.817860157164 0.0035409284716 -0.0054866267352)
(0.751098947163 -0.0037146659818 -0.00446568264207)
(0.818102532487 0.00327364595289 -0.00764857374133)
(0.819254863388 -0.000188899465129 -0.00227435793618)
(0.820314078367 0.00195534712646 -0.00264793791851)
(0.750128837096 0.00205817100694 -4.57402614261e-05)
(0.750210464892 0.00436286695931 0.000105969622363)
(0.820013405716 0.00117272555982 -0.00229934260552)
(0.819595093958 0.000660121071532 -0.00207053811159)
(0.750424255836 0.00440290804306 0.000110561841678)
(0.81827730954 0.000279848447812 -0.00340966376957)
(0.817579000394 0.00147500159895 -0.00241621236462)
(0.752217458008 0.00547559588044 -0.00141143088895)
(0.752976025685 0.00621296005399 -0.00134244956468)
(0.818501929394 0.000968201385413 -0.00279683856851)
(0.752004137527 0.00553922351594 -0.00201679002021)
(0.817487414971 0.000742896228626 -0.0032435995267)
(0.818159303311 -0.000334451901535 -0.00357172401109)
(0.817177949274 -0.00098053813738 -0.00433149464716)
(0.752066837804 0.00442759457291 -0.0023638164647)
(0.752306628014 0.00578135830544 -0.00176833720559)
(0.818124685716 -0.00110204764684 -0.0038216696833)
(0.751911280343 0.00511861740665 -0.00219758533791)
(0.817212658814 -0.000177814958672 -0.00363827549412)
(0.818004365201 -0.00173318972564 -0.00284186901663)
(0.817309624975 -0.00154452133732 -0.00393092898603)
(0.752300571915 0.0032784514507 -0.00209577107166)
(0.751965721794 0.00258965460475 -0.00231659314976)
(0.81808334184 -0.00156142104985 -0.00325566270316)
(0.752601357634 0.00210552803843 -0.00170890177813)
(0.817540947419 -0.00201319079651 -0.00371208983113)
(0.817846782431 -0.00193435899695 -0.00205268455428)
(0.817715006973 -0.00227265337664 -0.00241399424615)
(0.753932848746 -0.000643088090737 -0.000892530777372)
(0.752495817327 0.00132273997158 -0.00206294213212)
(0.81779222725 -0.00185166878932 -0.00159696583987)
(0.753040253036 0.000724602446578 -0.00138398462414)
(0.817528241113 -0.00215279879288 -0.00297497287114)
(0.800578606571 0.0124586251177 -0.0137523621887)
(0.806337134113 0.0159092295178 -0.00854757994157)
(0.814628235934 0.020491572122 -0.000402685433828)
(0.814369198464 0.0146170030354 0.00025250915025)
(-0.287699112294 -0.0526165908004 -0.0399262075497)
(-0.53466664082 0.0512568583913 0.0079185718291)
(-0.497294767531 0.0218750562098 -0.0112996932901)
(-0.492919082793 0.112514690676 0.0165880326362)
(-0.432135870106 0.0318316647431 0.0160024306584)
(0.334562005883 -0.0201659132925 -0.134086860265)
(0.507212165551 -0.220428239505 0.280438916132)
(0.209961452825 -0.0984308959467 -0.157614221486)
(0.572551469505 -0.161351217933 -0.418315397406)
(0.158258437011 -0.0654231771186 -0.308728985128)
(0.544287834504 -0.0732964249529 -0.380799251562)
(0.792025595418 -0.000238935660739 -0.01358327024)
(0.793105473535 0.00388067004665 -0.0142808541177)
(0.77413112326 0.000522492555687 -0.0120806923647)
(0.774969981176 0.00395503340822 -0.0162134822368)
(0.795632397646 0.00755156422411 -0.0139544439995)
(0.773698603375 0.00526573026359 -0.0169117767843)
(0.796179622281 0.00900237191055 -0.0140202190243)
(0.800117224493 0.0124212846342 -0.0125701456921)
(0.775777309014 0.0047725823782 -0.0168838721186)
(0.77897704644 0.00367022692738 -0.0152208776274)
(0.802608289239 0.0184964030068 -0.00822198455127)
(0.804188210081 0.0154520691911 -0.0118866623559)
(0.808809405271 0.0202012758177 -0.00657208307347)
(0.774952556584 0.00658536557102 -0.0173190138703)
(0.772137810881 0.0111091849623 -0.0181148763075)
(0.778573908429 0.0062187370854 -0.0145590012616)
(0.773301285122 0.00945869419832 -0.0116139196634)
(0.81380365798 0.0233303483329 0.000236741420365)
(0.818025980328 0.0252536569299 0.00777834934784)
(0.771807764495 0.0118959856656 -0.0148231430321)
(0.758166893496 0.0120242786514 0.00431257392928)
(0.772296776416 0.00935014902923 -0.00862679521478)
(0.758613937729 0.00922139405248 0.00571205095783)
(0.811943618409 0.018606865137 -0.00650132371615)
(0.813715062567 0.015781517992 -0.00483776783644)
(0.779836908818 0.0042854820756 -0.0132347183189)
(0.773911233819 0.0075651398702 -0.0106017096288)
(0.776041628906 0.00309799137247 -0.00516285285192)
(0.818258528824 0.0202110000886 0.00428810715841)
(0.81458130552 0.0175071621308 -0.000118599537135)
(0.817640597448 0.0169840950293 0.00375825019481)
(0.772783921447 0.00758216802782 -0.00770233611812)
(0.759297179841 0.008155959842 0.00472214653877)
(0.774422642661 0.0038598080079 -0.00324564354086)
(0.761675061264 0.00570564722455 0.00499740499937)
(0.775243768608 0.00350972305922 -0.00238276655563)
(0.762697187116 0.00523099059405 0.00432076386416)
(-0.213674063513 0.0420731012538 -0.028268983988)
(-0.22653610502 -0.0210349198685 -0.0348088889652)
(-0.243135792853 -0.0318157854523 -0.0462070103509)
(-0.0901084662607 -0.0653422920593 0.105657066458)
(-0.0422380615874 -0.0460003637903 0.133132022679)
(-0.108194886474 -0.114854633423 0.126361132799)
(-0.0731459134078 -0.0797816131529 0.148528410614)
(-0.103430028202 -0.0630093177538 0.0121237866791)
(-0.21775395929 -0.0636509047389 -0.143855885501)
(-0.143776498232 -0.0721824869731 0.00928905720093)
(-0.123273377106 -0.0669606546423 -0.190764048883)
(-0.247354831761 -0.0768391572188 -0.0355414718685)
(-0.307573107869 -0.115818391111 -0.0274750053309)
(-0.378270937916 -0.00242214000851 -0.027651166871)
(-0.373537065424 -0.038987299229 -0.0245670849604)
(-0.471124505066 0.0831725293458 -0.00756676425106)
(-0.133669979584 -0.14739878577 0.128378675474)
(-0.146224035771 -0.0956687942034 0.0886097669238)
(-0.164082988659 -0.160059059139 0.0851775266545)
(-0.156286388549 -0.0880324360747 0.0294949933892)
(-0.526624955789 0.0281919387342 0.0305497529796)
(-0.5340115357 0.114913299462 0.0153343540543)
(-0.459435366045 0.0648706627424 0.029923442155)
(-0.140834715071 -0.0809454966778 -0.0108188347601)
(0.0293555357054 -0.054376914283 -0.196287430326)
(-0.112181645457 -0.0028925885179 -0.0632682263727)
(0.0785367329659 0.0485963443806 -0.21709681477)
(-0.502161979941 0.0967640585141 0.000932327022806)
(-0.468380527747 0.0380638061267 0.00325018232901)
(-0.177320926104 -0.133683891707 0.0135283950528)
(-0.135386494048 -0.0772451684203 0.00258533387136)
(-0.0936305485308 -0.0731716356758 -0.015003372902)
(-0.372229551662 0.0845691425969 0.0248115841797)
(-0.435723238879 0.0569437466553 0.0161246435311)
(-0.316140387524 0.0454495904352 0.0213252570432)
(-0.0374143691606 -0.0172172122063 -0.0535144234543)
(0.162877307923 0.0392800997124 -0.191421783006)
(0.022998779347 -0.0292331991132 -0.0546204197584)
(0.21070796518 -0.0231855409166 -0.17220687868)
(0.792157237944 -0.000857954958398 -0.0161917732015)
(0.792547603161 -0.00267100865495 -0.0188467230188)
(0.775282650953 0.000577479833828 -0.00868222075008)
(0.773966322348 0.0012912174132 -0.0133245394878)
(0.7927118048 -0.000162825592564 -0.0204813598901)
(0.775355449458 0.000814010089591 -0.00944746843929)
(0.79210497336 -0.00248968641217 -0.0151164563717)
(0.792873617085 0.00126714225636 -0.0175957555923)
(0.795716131315 0.00617877984155 -0.0234035979174)
(0.774227583877 0.00219049057501 -0.014581954589)
(0.775702362125 0.00253935767229 -0.012451335644)
(0.793781973355 0.00275018641149 -0.0223385847909)
(0.794329639176 0.00369745942313 -0.0194382578685)
(0.775429435879 0.0013578079607 -0.0106560089176)
(0.798889908568 0.00670727200156 -0.0248764923951)
(0.798814882666 0.00811561597832 -0.0237098713939)
(0.773330867504 0.00303899921831 -0.0156236067365)
(0.772877524847 0.0067464889601 -0.019763860963)
(0.796620110509 0.00431108054745 -0.0218933568866)
(0.801337822111 0.011303703805 -0.0250596890234)
(0.772631388253 0.00409924608312 -0.0186287091761)
(0.798636796322 0.0097974615169 -0.0207849704236)
(0.798273934497 0.00946479032667 -0.0247213801269)
(0.776882652049 0.0030864023183 -0.0136651991456)
(0.776509899989 0.00489985155819 -0.0172848447356)
(0.796379802659 0.0068591020618 -0.0201317046739)
(0.801060668687 0.0124324008165 -0.0249206567746)
(0.778014770249 0.00364308561259 -0.0148956342479)
(0.80055736738 0.0120073846264 -0.0193731261588)
(0.805630604983 0.015860772293 -0.0214722319231)
(0.777654078596 0.00470005483781 -0.0161139473432)
(0.781370114389 0.00259743773102 -0.013671793065)
(0.803424409393 0.0146105283949 -0.0228981141507)
(0.802385495775 0.0133382846475 -0.0186135065429)
(0.78020369135 0.00353992370608 -0.014153088392)
(0.807927496032 0.0176090284462 -0.0243952156034)
(0.800871076661 0.0117967903414 -0.0229287185556)
(0.773744148569 0.00806080095235 -0.0195135741526)
(0.775784986413 0.00763708415072 -0.0176002786792)
(0.80542500972 0.0153622409608 -0.0253950047206)
(0.803184454212 0.0142796416357 -0.0229006693717)
(0.774058189769 0.00870644085471 -0.0184857343481)
(0.809831655662 0.0190206883614 -0.0202399919023)
(0.813551113876 0.020519292943 -0.0203068695998)
(0.77417999655 0.00996384115168 -0.0192841138302)
(0.771758287133 0.0118530234047 -0.0160089532351)
(0.807481847594 0.016936874392 -0.0215762131095)
(0.81557987465 0.0215276792709 -0.0180561776486)
(0.774297663187 0.0106409800752 -0.0177548944334)
(0.809870060673 0.0188775179107 -0.0218144853712)
(0.807431956152 0.0170851832077 -0.0193054850025)
(0.777694317934 0.00772131401857 -0.0163199656737)
(0.776109179667 0.00728669990367 -0.0144920287772)
(0.805443349102 0.0161867620407 -0.0207604190307)
(0.811488820025 0.0191391777382 -0.0196351937259)
(0.775446410424 0.00853423951343 -0.0166743997723)
(0.811589267929 0.0199912930214 -0.0179013480592)
(0.817756165767 0.0212740804965 -0.0133028608689)
(0.773100091431 0.0114784603717 -0.0146343251326)
(0.775828923984 0.00852614520219 -0.0134231166173)
(0.81717971804 0.0217626678861 -0.0156740566181)
(0.812876157725 0.019965330466 -0.0158304265447)
(0.775392024048 0.0103096788852 -0.0160075159218)
(0.819456542586 0.0238153390249 -0.00229675574428)
(0.814682399683 0.0222276432373 -0.0142904296306)
(0.767526960874 0.0122118867745 -0.00896127986202)
(0.771430469268 0.0120027900907 -0.0124626315553)
(0.818256638389 0.0235108013083 -0.00403707332652)
(0.816062668009 0.0227865699936 -0.0126882796876)
(0.766993584805 0.0121776916525 -0.00653797739705)
(0.821102482436 0.0242564064491 0.00135057027711)
(0.821466503501 0.0260726670155 0.00985174917338)
(0.765467175152 0.0118785095818 -0.00379457662107)
(0.757841351533 0.0116310887452 0.0068606042179)
(0.820169768162 0.0252013613375 -0.000261463614036)
(0.7647209574 0.0112252379753 -0.00143122303236)
(0.822328142096 0.0251355577787 0.0106908126642)
(0.820263899124 0.0230679903455 -0.00332345352822)
(0.817565153883 0.0215733265815 -0.00963311629143)
(0.772311356864 0.0114459700407 -0.0111067042672)
(0.76745866862 0.00938143392099 -0.00347760961794)
(0.816901658905 0.0223378412237 -0.0114802167194)
(0.8202855411 0.0220392343401 -0.00184366983754)
(0.767570977777 0.0115426972136 -0.00567246169101)
(0.821571810377 0.0227626061731 -0.000116205441935)
(0.822241973011 0.0216702869358 0.00741940687425)
(0.758460433349 0.0110870004761 0.00566045692655)
(0.764193390878 0.00837354078448 -0.000243123648226)
(0.821506556098 0.0212244400031 0.000843211491263)
(0.764871629177 0.0105121189167 -0.00141472514082)
(0.822459941735 0.0234875711779 0.00793785740166)
(0.813959410023 0.0180391166928 -0.0149997558857)
(0.808993704155 0.0171381836582 -0.0166860368031)
(0.777093457366 0.00552768617608 -0.0127986072403)
(0.780552121526 0.00192553850956 -0.0116513233687)
(0.812797236429 0.0186931341294 -0.0169571742854)
(0.810247316531 0.0163583197026 -0.0149712125912)
(0.777741761713 0.00298208919929 -0.0112637706694)
(0.81462133661 0.0183666104041 -0.0121324859476)
(0.818457320141 0.0202602510023 -0.0112120875987)
(0.776417651351 0.00644416134429 -0.0117715511745)
(0.774264361457 0.00515496580314 -0.00841397333512)
(0.813829960068 0.0191937748545 -0.0137051783668)
(0.818497097759 0.0189788703452 -0.00929183977631)
(0.77708840781 0.00407149100737 -0.0100996610391)
(0.815402357902 0.0172676029747 -0.00991239589335)
(0.8185620958 0.0161540557053 -0.00544190476221)
(0.775360297565 0.00365013944032 -0.00664548452792)
(0.77860230219 0.00234137160342 -0.00741363779692)
(0.818662243118 0.0176849916372 -0.00704338712198)
(0.81590612408 0.0158849317293 -0.00885769112325)
(0.778005707973 0.00268919000151 -0.00852157744997)
(0.819653075069 0.0191560880493 -0.00062577385479)
(0.818012442334 0.0202877816089 -0.00809019215329)
(0.767793549995 0.00779375018277 -0.00316271401586)
(0.772933098303 0.00564184880491 -0.00594018859815)
(0.820137875761 0.0206391294315 -0.00192239414962)
(0.818087568805 0.0188718679251 -0.00652704273911)
(0.768161857113 0.00615271494468 -0.00164698193183)
(0.820662902894 0.0181869043033 0.00146270098192)
(0.821747131121 0.0198475456522 0.0063217715511)
(0.764111532452 0.00695983235024 -0.000524606298436)
(0.75986325531 0.00686175246105 0.00508903091636)
(0.821173221244 0.0197246850372 0.000430123039482)
(0.764250584076 0.00568042072206 0.000440133700092)
(0.820857062861 0.0181368198346 0.00657068888462)
(0.819378609905 0.0178428227703 0.000162646322482)
(0.818374404799 0.0162102562793 -0.003475315999)
(0.773801193129 0.00426533940311 -0.0046526969619)
(0.769898069282 0.00450138149315 0.000230509975789)
(0.818164902557 0.0176066868765 -0.00471169035816)
(0.818981849824 0.0166065172028 0.00134986356951)
(0.769409870261 0.00490705401744 -0.00107104068671)
(0.820267301834 0.0169299460687 0.00187934698805)
(0.819051119779 0.0153464846949 0.00667215244709)
(0.761143393036 0.00580342801055 0.00428358130695)
(0.766196370905 0.00456213507991 0.00197079059741)
(0.819717911804 0.0157025846137 0.00312744396362)
(0.765463352705 0.00452650384446 0.00061315272101)
(0.820062432685 0.0166931470316 0.00594002277464)
(0.818550444263 0.0140109361659 0.00307105800799)
(0.818496543515 0.0147934701354 -0.00191216756386)
(0.770940067276 0.00409853460712 0.000823106492054)
(0.775338165523 0.00404740173016 -0.00129683760896)
(0.818856426853 0.0153589665981 0.00242028647207)
(0.818500803034 0.0134487107322 -0.000783414164078)
(0.77098122412 0.00464290535588 0.00132915917259)
(0.818265824835 0.0142745685701 0.00644170749237)
(0.767236693018 0.00421352818357 0.00225944167286)
(0.819161695416 0.0145294727622 0.00383247761734)
(0.817003205713 0.00456314029772 -0.000782117308498)
(0.818606822519 0.00314185878808 -0.00078284220194)
(0.819474036422 0.0013570895448 -0.000667873259848)
(0.817109658764 -0.00144756705662 -0.0002136835551)
(0.810132038362 -0.0027146179275 0.000341784302202)
(0.834436386477 -0.051110124714 0.000726122707593)
(0.817433643559 0.00471873315855 -0.000655346446152)
(0.818893311208 0.00298645236552 -0.00031557866427)
(0.819810347894 0.00199836083455 0.000176290259681)
(0.8180373819 -0.00161570052944 0.00157233893377)
(0.811139158843 -0.0035869779124 0.00433089580809)
(0.838307139847 -0.0568682643833 0.00575411217044)
(0.816761894801 0.00644187702184 0.000150906975777)
(0.812466193581 0.0065222492073 0.000752979564234)
(0.788219205195 0.0107678539323 0.00278888475781)
(0.78362417256 0.0114138836034 0.00241260519581)
(0.780573216923 0.0127830929996 0.00229291217088)
(0.77302640917 0.0164895278236 0.00047100680508)
(0.78173291832 0.0198640736782 -0.0202847318528)
(0.716243909937 -0.0160999026815 0.024854921595)
(0.827512518014 0.00558666814737 0.000329204536733)
(0.824299402861 0.00356586832418 0.000218094393609)
(0.819722748381 0.000560674279335 -0.00109292792189)
(0.81755296218 -0.00104929757956 -0.00309576715056)
(0.816338011859 0.000401345332189 -0.00342727214765)
(0.817812067444 0.00347639601902 -0.00263103694137)
(0.811017066172 0.010292767863 0.000873075924768)
(0.840592574586 -0.0841050890017 0.0133633017779)
(0.82078188767 0.00622193689629 -0.000489785298085)
(0.82245234167 0.00475868592224 -0.000875989770724)
(0.822467664353 0.003583687923 -0.00134033408104)
(0.821729869425 0.0031318785138 -0.00221236061554)
(0.820205806846 0.00292719475305 -0.00183520840687)
(0.820180981394 0.00230879942442 -0.000277977234206)
(0.812617265228 0.000939891711633 0.00180647557695)
(0.843728561459 -0.0672434340512 0.00489873728138)
(0.816826391342 0.0070768700075 -0.000653147303044)
(0.819547086542 0.00420917580025 -0.000545087513919)
(0.820467940934 0.0023160819033 -0.000878277472609)
(0.820544688763 0.00105484845557 -0.00099785320373)
(0.819417041346 0.000505831985052 -0.0010537239046)
(0.819416429934 -0.000707124745732 -0.000207357510869)
(0.811747821093 -0.00199501298771 0.00130951014273)
(0.839531632475 -0.0698247254436 0.00313165488216)
(0.818762875345 0.000888796581909 -0.000759482710295)
(0.818501263099 -0.000598748198886 -0.000218017433493)
(0.810947303086 -0.00224591040846 0.000758008566341)
(0.837497257822 -0.054751237744 0.0015293891052)
(0.639311630768 0.0421485245237 0.0124228251977)
(0.63511904549 0.0402660182633 0.0143083541671)
(0.644349982532 0.0252298695431 0.0207055961281)
(0.642004772505 0.0221155845505 0.016250359753)
(0.639503153125 0.0232343041867 0.0148340311638)
(0.609987193131 0.0264470325699 0.0173616081795)
(0.679161401218 0.0404738504011 0.0161902416611)
(0.26341685923 -0.0737982018179 0.0601183669418)
(0.774497131035 0.0134291781839 0.0089765411709)
(0.769081906112 0.00958361496158 0.00831945698159)
(0.774679590729 0.00301085548126 0.011823817444)
(0.772268799966 0.00277125645239 0.0134812444985)
(0.772021380947 0.00457358250663 0.014244079041)
(0.773843623371 0.00716521434408 0.0178217705372)
(0.776992986267 0.0395098455073 0.0284230645734)
(0.812456980351 -0.171327238171 0.046096615594)
(0.822012560228 0.00658950622319 0.000701083948134)
(0.821741152783 0.00516622595504 0.000399920304085)
(0.821525634297 0.00550440617852 0.000320941221283)
(0.821310838712 0.00658682127284 0.000687658795511)
(0.821390993411 0.00682042723764 0.00180721371455)
(0.823500904743 0.00592213105544 0.00443239372037)
(0.817592234865 0.0030819767532 0.0115069819733)
(0.880473882736 -0.117586270171 0.0164690682127)
(0.817378552452 0.00691930896241 -0.000119707447434)
(0.819776034551 0.00456822806539 -5.44371512318e-05)
(0.820602987865 0.00271537917754 6.08399001034e-05)
(0.820437210112 0.00219776417915 0.000306643655555)
(0.82003816682 0.00145435260433 0.00129430748317)
(0.821806845251 -0.000313696079264 0.00375265617742)
(0.815315313009 -0.00274336992772 0.00839955750672)
(0.853451585501 -0.088285297891 0.0119078078978)
(0.819265777292 0.00117642466036 0.000665005757521)
(0.819925194087 -0.000592883511495 0.00228892847455)
(0.812806242558 -0.00321182998652 0.00550398635226)
(0.844637049618 -0.0660958809231 0.00740323132814)
(0.634403091283 -0.0148915553366 0.0221168973171)
(0.626887021416 -0.0153924411645 0.0218183054956)
(0.632763612254 -0.0193465844584 0.0241627826182)
(0.633073802356 -0.0179461832764 0.0210594513565)
(0.635232431237 -0.0136095471158 0.0211220339487)
(0.626584441417 -0.00272547606491 0.0247379634118)
(0.684384125847 0.0456777132216 0.0617544960842)
(0.495948334328 -0.371083340547 0.0155246811666)
(0.735896757136 0.00519172533287 0.0259771658265)
(0.730854728839 0.00049984286749 0.0246992858741)
(0.781811807347 0.000998266555726 0.00895353286472)
(0.781798103482 0.00146756851376 0.00985155151268)
(0.78383255062 0.00330395879955 0.0114342562339)
(0.792986396503 0.0022826088424 0.0118642022575)
(0.80514983731 0.0192669997969 0.0129091456872)
(0.897087937958 -0.195844043923 0.00446905741961)
(0.822038861113 0.0049801816951 1.30250023769e-05)
(0.822430463761 0.00461392722824 -0.00108718949073)
(0.822727663061 0.00320149994045 -0.00183382764947)
(0.823134946664 0.00226401247945 -0.00133581414333)
(0.824180382778 0.00148879554248 0.000404980108473)
(0.83008857735 -0.00191077907896 0.00112545845624)
(0.824296357 -0.00703020723553 0.000926754548096)
(0.910145553084 -0.173704257917 0.00213368012137)
(0.813673676929 0.010371077267 0.000103017087175)
(0.81686193052 0.00594406560199 -0.000984128582642)
(0.820277646308 0.00378407281859 -0.00129376429284)
(0.821705095746 0.00216171208358 -0.0012233327518)
(0.821894142131 0.000991316826101 -0.000672632697876)
(0.822277162232 -0.000245556987428 0.000466580958759)
(0.826134125716 -0.00309734289597 0.0014645664917)
(0.820216879853 -0.00697331532558 0.00133500102271)