/*--------------------------------*- C++ -*----------------------------------*\
| =========                 |                                                 |
| \\      /  F ield         | OpenFOAM: The Open Source CFD Toolbox           |
|  \\    /   O peration     | Version:  v1906                                 |
|   \\  /    A nd           | Web:      www.OpenFOAM.com                      |
|    \\/     M anipulation  |                                                 |
\*---------------------------------------------------------------------------*/
FoamFile
{
    version     2.0;
    format      ascii;
    class       volVectorField;
    location    "7.5";
    object      U;
}
// * * * * * * * * * * * * * * * * * * * * * * * * * * * * * * * * * * * * * //

dimensions      [0 1 -1 0 0 0 0];


internalField   nonuniform List<vector> 
28582
(
(0.814524097736 0.00307544329992 -0.000631470606135)
(0.815837250794 0.0012927622965 -0.000347550676196)
(0.815292977668 0.00337370624119 -0.000950631026344)
(0.816127686693 0.00163801408571 -2.69369257291e-06)
(0.81706808831 0.00422897313481 -0.00247838969487)
(0.817013266391 0.00248422696929 -0.000181680988608)
(0.819071917141 0.00645802521555 -0.0057612622433)
(0.820835141976 0.00470341250307 0.00144702731101)
(-0.16509158645 -0.0472496626514 -0.00756450553806)
(-0.183487591589 -0.0421718754334 0.0089012356122)
(-0.459595338406 -0.207105264036 0.701724210109)
(0.820942128773 0.00549147749208 -0.000976809351458)
(0.782485865792 0.000297646716164 -0.0115471589044)
(0.780091904301 0.000782725956296 -0.00391947040966)
(0.818270749618 0.00305893548047 0.00276021179763)
(0.816387846687 0.00345009722629 0.00454336224024)
(0.778729238552 -0.000348849214099 -0.00128422441949)
(0.814689803032 0.00423840994256 0.00644838411254)
(0.813518783343 0.00516986138364 0.00760395939966)
(0.813468310256 0.00582197911931 -0.00109495629564)
(0.816214716514 -0.000990481415562 -0.000340451001329)
(0.815048474398 -0.00186540190994 -0.000519583177599)
(0.81373656983 0.00584912182718 -0.00251738827095)
(0.816153556759 -0.00076481438677 0.000245238536178)
(0.814940319645 -0.00186477508624 -0.000148102275082)
(0.814563894409 0.00628613584104 -0.0061132300077)
(0.815930478604 -0.000280356772743 0.000125137705975)
(0.813803812271 0.00634983746587 -0.00949421750298)
(0.816955884182 0.00173902422993 0.000611785817741)
(-0.141958763327 -0.0167335107254 -0.00178246146824)
(0.386354979864 0.47102335674 0.307473802825)
(-0.376423371699 -0.262946217372 -0.442297897538)
(0.819379152241 0.00484262179174 -0.0104049509328)
(0.818400205408 0.00585351264936 -0.0101995556745)
(0.780333849362 0.00700061462334 -0.0115828719147)
(0.782614964126 0.00676886805564 -0.0116050245418)
(0.816259740063 0.00696020740417 -0.0166516621396)
(0.813975037631 -0.000236568631216 -0.000541745490094)
(0.815253093646 0.00256007920877 0.00225403196307)
(0.812084764111 0.000524229281371 0.000257288193294)
(0.813211474072 0.00331655067878 0.00483911459981)
(0.775896705636 -0.00376796991137 -0.000927297772948)
(0.811953444132 0.00423522969584 0.00583225955954)
(0.807475928527 0.00252045979639 0.00399970177971)
(-0.225002648263 -0.0795104534673 0.00800159291156)
(-0.102851613521 -0.0694985853467 0.0130408502102)
(-0.149602153571 -0.051016539011 -0.178940063843)
(-0.190145136715 0.0641620051963 -0.107109515427)
(-0.234438664774 -0.0750933192029 0.0146992623538)
(-0.0785310686133 0.0988785501617 -0.0635614346481)
(0.821351751817 0.00843081090775 -0.0132359794616)
(0.823041555851 0.00901532721998 -0.00905556933633)
(0.781964016994 0.000466166010043 -0.00997348296498)
(0.781682723136 0.00126487347248 -0.0111036781933)
(0.821414368442 0.00927114080406 -0.0128796354933)
(0.781105210581 0.00133880450515 -0.00882266247645)
(0.823329735131 0.0083616924551 -0.0104605445299)
(0.82210747671 0.00848976522017 -0.00637406192179)
(0.822541985831 0.00732083533144 -0.00240245664045)
(0.782106747841 0.000843658829974 -0.00802784565927)
(0.778452357525 0.00117465776669 -0.00175030826561)
(0.821679627495 0.0077267308111 -0.000445254661749)
(0.781063485915 0.00155003571124 -0.00599490900718)
(0.822777096486 0.00798330180828 -0.00811611684908)
(0.819339214559 0.00629865294743 0.00493294868394)
(0.821456554224 0.00644053068569 -0.000793867725137)
(0.776419259034 -0.00117715419288 0.000680966232121)
(0.776838410225 -0.00014498138133 0.000863152025577)
(0.820821606399 0.00699788800211 0.000959749216363)
(0.774874239695 -0.000914289615816 0.00311068930957)
(0.820001131273 0.00605912385135 0.0032255049347)
(0.816042198872 0.00400428186471 0.00508595133335)
(0.774491242685 -0.00352967852782 0.00324299849847)
(0.773031303818 -0.0022103177345 0.0046027570796)
(0.817439659875 0.00564407955753 0.00477840880207)
(0.774869765545 -0.00243708284504 0.00221271345918)
(0.773398278234 -0.00145209986807 0.00417461940616)
(0.818432463924 0.00527100264023 0.00325397340959)
(0.812533969788 0.00528055894883 0.00965617407379)
(0.772483746656 -0.00154679222551 0.00417120953556)
(0.771702768525 -0.000575671593344 0.00756064862684)
(0.816443742931 0.00634926782949 0.00624084651586)
(0.771799800235 0.000113443667213 0.00738548427005)
(0.815539012356 0.00635986731591 0.00827426026479)
(0.772888082511 -0.00106414395865 0.00427640977967)
(-0.112252431075 0.0281701778953 -0.0200658543154)
(0.037453974006 0.174534174631 0.169241061329)
(-0.0159733655522 0.0475175024857 -0.0176281148748)
(-0.150937778916 0.0492178537656 -0.0178968872715)
(0.0569541790292 0.155802730792 0.207548681258)
(-0.049042136539 0.204155714274 0.152478907361)
(-0.0289853056781 -0.0827836450933 0.00321061319892)
(-0.197746249078 -0.0250466355465 -0.0299745688307)
(-0.213899251996 -0.0444233687595 0.056949145144)
(0.0379021998982 -0.093356170368 0.00121527757291)
(-0.13674787741 -0.0424014674116 0.0383575044744)
(-0.104922332918 -0.0197082784355 -0.00510330802115)
(-0.0884047691527 -0.0611348073487 0.082520224002)
(0.814389656889 0.0058914270557 -0.0181565913595)
(0.811867809536 0.00629619230813 -0.0155654592252)
(0.780930697894 0.00709447393919 -0.0123724650429)
(0.779867450634 0.00391656723911 -0.0117503002791)
(0.815274658108 0.00559494682697 -0.0178357447887)
(0.811320618649 0.00646215261832 -0.0157225925924)
(0.780095223645 0.0042163287457 -0.012777742108)
(0.816945678671 0.00532783024394 -0.0165490152905)
(0.821262021218 0.00424938111695 -0.0160459636266)
(0.781729454751 0.00685724796029 -0.0121928163706)
(0.782035868526 0.00455984129567 -0.0126572505)
(0.817718780424 0.00495313868781 -0.0159896775834)
(0.820571772999 0.00482708544471 -0.0170002728618)
(0.781024507532 0.00433996011136 -0.0129601896021)
(0.781252100613 0.000636358372703 -0.0133764254789)
(0.781841194142 0.00124834063834 -0.0133203929189)
(0.820260593952 0.00713944113299 -0.0171863429481)
(0.816488987487 0.00620325856874 -0.0163574154984)
(0.782189972077 0.00229110229002 -0.0131038549468)
(0.820414885041 0.00595324289455 -0.0169669056355)
(0.781241929965 0.00184878681526 -0.0130257417132)
(0.814322012569 0.00317595679266 0.00370875763578)
(0.774128333646 -0.00437031096583 0.00287689766036)
(0.773210654574 -0.00249832139094 0.00416492573626)
(0.811401153911 0.00240425018648 0.00365473457366)
(0.774411224102 -0.00480902796127 0.0017352043032)
(0.812494201739 0.00214723625409 0.00272353379141)
(0.773914173115 -0.00250168789237 0.00303763213564)
(0.810191466809 0.00103133814765 0.00207559459179)
(0.811005722754 -0.000163836282407 -0.000965410341121)
(0.77499021486 -0.0044100850508 0.000926798908408)
(0.775598165238 -0.00170597464373 -0.000510316996271)
(0.811375707883 0.000865395824612 0.00136797475277)
(0.809804597142 -0.000254150737808 -0.000683856312158)
(0.774644318312 -0.00225234994466 0.00194576196995)
(0.80890845876 0.00381367481695 0.00667296035482)
(0.811029148207 0.00457302835858 0.00788513404941)
(0.772755673154 -0.00177586659344 0.00360258731871)
(0.771997839482 -0.000786410387006 0.00702403644968)
(0.773250744668 -0.000939519435594 0.00598163823878)
(0.810061450373 0.00343986864661 0.00433954300859)
(0.773778608339 -0.00175787163774 0.00206270170144)
(0.774282868102 -0.00149705297234 0.00390367942764)
(0.775219705382 -0.00198119296778 9.35916967035e-05)
(0.807056953567 0.0018012967029 0.000241384290252)
(0.808749568893 0.00205390218476 0.00214951344864)
(0.775595271504 -0.00164283570977 -0.00240797662041)
(0.808256049468 0.000769237402761 -0.000923779586989)
(0.774743555185 -0.00180444411605 0.00066659990756)
(0.81489927823 -0.00208857609397 -0.00151806195878)
(0.813491878173 -0.00213458055621 -0.0028219603991)
(-0.0847148770933 -0.0193793815239 -0.0119117409705)
(-0.0730830677397 -0.176401167382 -0.448146779095)
(0.819895630554 0.00547136142885 -0.00709031575151)
(0.782276059377 0.00150202218503 -0.0125270930382)
(0.811765731516 -0.00109168573131 -0.00269388153032)
(0.812653726279 -0.00236604169753 -0.0039167166143)
(0.77636196397 -0.003276368524 -0.00201392650537)
(0.775266182683 -0.0028538920553 -0.00196007632954)
(0.773987636438 -0.006526604682 -0.00771543457307)
(0.814354602667 -0.00307766419986 -0.00356750580753)
(0.8159499405 -0.00410238211676 -0.0026343890282)
(0.772826631737 -0.00808979145584 -0.007971569048)
(0.769907815718 -0.0100927788528 -0.00432059877053)
(-0.175676780163 -0.0233094620231 -0.00984514432349)
(0.0291903743697 -0.0966797280236 -0.00506239383685)
(0.0327039731473 -0.0927544212528 -0.00669448246971)
(-0.0190429832763 -0.0389687410465 0.0974658691477)
(-0.0717444907953 -0.00249466822125 0.103861950166)
(-0.0449962418594 -0.00642382250296 0.155806876316)
(-0.0113879109907 -0.0696591241341 -0.00676638436703)
(-0.0671809611048 -0.0404309212814 -0.002176629682)
(0.823710519941 0.00564482530581 -0.0126109599903)
(0.821244702942 0.00709553075682 -0.0149057173565)
(0.783086827217 0.00234130416598 -0.0123688377889)
(0.781834489499 0.00170716961814 -0.0112590328639)
(0.821492470574 0.00566454989834 -0.0147029069835)
(0.782910818767 0.00243616459778 -0.0108628374972)
(0.823422846956 0.00708356833187 -0.0126938002156)
(0.809965876858 -0.00294525238183 -0.00467929206697)
(0.810841326474 -0.00141159885967 -0.00184343865938)
(0.77685266087 -0.00278150247468 -0.00344764226129)
(0.775843595385 -0.00159926204355 -0.00149549746128)
(0.811223579231 -0.00242039447865 -0.00440238133224)
(0.809615595404 -0.0017736258631 -0.0017162725327)
(0.776216612248 -0.0015685664895 -0.00323083800057)
(0.808632342649 -0.0020175436938 -0.00612896133878)
(0.806899589408 0.00061061305322 -0.00188213372799)
(0.775685307465 -0.00173803735527 -0.00372816306322)
(0.775376670775 -0.00377225950811 -0.00526489098494)
(0.808121032829 -0.000785280563681 -0.00238795197734)
(0.775584006436 -0.00208772389633 -0.00622524701846)
(0.807587972547 -0.000432069973401 -0.0062677140361)
(0.809798336039 -0.00301553407096 -0.00681874798793)
(0.811049665321 -0.0023101352156 -0.00957490726771)
(0.77460498497 -0.00414727252553 -0.00810476901488)
(0.774869918772 -0.00532811289933 -0.00679748416432)
(0.811571084829 -0.00392434506171 -0.00902084237324)
(0.775203027555 -0.00319894716886 -0.00714361440466)
(0.809080418991 -0.0012289949779 -0.0072456662426)
(0.81444887116 -0.00483085585941 -0.00844752419269)
(0.812220047617 -0.00264500810851 -0.00904415699722)
(0.773364371084 -0.00560045289603 -0.00803744704297)
(0.771485004315 -0.00920934485628 -0.00728246979558)
(0.812787166108 -0.00422067686412 -0.00858285809402)
(0.771996160168 -0.0067758222476 -0.00710175518765)
(0.814185703619 -0.00357423943284 -0.00883913835729)
(0.815513992891 -0.00511836356977 -0.00698414820239)
(0.815837950924 -0.00424255682734 -0.00549936583534)
(0.770180611616 -0.00839154490173 -0.00412141184094)
(0.770616463673 -0.00999586757442 -0.00626800666314)
(0.816172329262 -0.00520255354049 -0.0051943948755)
(0.771036570267 -0.00791737378746 -0.00626623608992)
(0.815290176353 -0.00404993015658 -0.00716549750784)
(0.791326131346 0.011631761889 0.0013733868933)
(0.797758089802 0.0124217729667 -0.000267023323707)
(0.800640513487 0.0174557832358 -0.000699113421694)
(0.802072813534 0.0104871567908 -0.00113648741489)
(0.230328422674 0.0467722020514 0.005541999822)
(0.35187173932 0.0111940151982 0.00241422275642)
(0.279935362947 0.0194913594331 0.00203056646269)
(0.454785473499 0.0429079430904 0.000141018432815)
(0.431673370814 0.0934534112393 -7.18119877618e-05)
(0.278282771739 -0.0050048793086 -0.345756099861)
(0.369818441598 -0.0456240056258 0.479995858675)
(0.184292632505 -0.0160931950314 -0.306328750041)
(0.394897517391 -0.129801121672 0.104031157727)
(0.144224962039 -0.0110538190881 -0.288186126034)
(0.395277161139 -0.0707508595604 -0.121614475487)
(0.787969705305 0.00251876866279 0.000701091759778)
(0.789379864329 0.0053415859926 0.000978656361487)
(0.785674417549 -0.00067541719182 0.000132414493764)
(0.78644337335 0.00340520581379 -0.000318266821086)
(0.787419149399 0.00795125494429 0.00323238731059)
(0.784974665814 0.00438786178597 0.000127939811803)
(0.791229631074 0.00806994018838 0.00130609709911)
(0.794261601756 0.00982686759826 0.00108609463021)
(0.787160028905 0.00392000177092 -0.000943207687238)
(0.788357565738 0.00599982751737 -0.000199332513408)
(0.790931084147 0.015213088766 0.00389406294465)
(0.794901192806 0.0127006821442 0.000540953634052)
(0.795441195302 0.016739317084 0.00154518093373)
(0.786272280067 0.00506583957991 -0.000974543044732)
(0.781485998608 0.00958134762511 -0.000729467834837)
(0.788260403023 0.00584869742679 -0.000109778169859)
(0.786015323152 0.00625775378339 0.000131614869363)
(0.797862052548 0.02040717301 0.00135442577364)
(0.800047922123 0.0243362034541 0.00256247272275)
(0.780525913515 0.0113853380573 -0.000871822049968)
(0.782207900524 0.0149333600769 -0.00228584585905)
(0.785063364955 0.00698169220518 0.000434613065888)
(0.784743290832 0.00941900175358 2.51010684697e-05)
(0.798479714342 0.0150347534859 0.000345046571147)
(0.80022176851 0.0121932289397 4.69054492234e-05)
(0.78812019075 0.00518289119532 0.000401026662511)
(0.786604967861 0.00580651147258 0.00138244855541)
(0.787936723227 0.00809997264105 0.00315609731274)
(0.802404831722 0.019272253402 -8.36147047136e-05)
(0.801629054495 0.0137653698433 -0.000589641018226)
(0.803268403636 0.0143340458025 -0.000168516119353)
(0.785914845334 0.00641700884734 0.00181474338915)
(0.785431176048 0.00920835319882 0.00285625363266)
(0.787659089204 0.00850224862006 0.00338071077582)
(0.786478590129 0.00997781370238 0.00334412751911)
(0.787984794396 0.0097667650988 0.00296984105968)
(0.786820828997 0.0110424640617 0.00319303802014)
(0.217046110165 -0.0531154757311 0.00147130778113)
(0.214357502885 9.68614518856e-05 0.00187273507095)
(0.265479444974 0.00652842110384 0.00570334838652)
(0.21623874829 -0.046790009219 -0.227845743365)
(0.33129945888 -0.0139814064168 -0.27601213853)
(0.234006293063 -0.0408618088962 -0.212019839065)
(0.354954098205 -0.0214575116098 -0.235357470045)
(0.326353024358 0.0276649317741 -0.184957060433)
(0.190264223013 0.0517730714175 -0.0541549935349)
(0.351475306825 -0.0221836979294 -0.121942600374)
(0.256132499327 -0.00973407193674 -0.0719074302782)
(0.176479109631 0.0339551755822 -0.00125124734134)
(0.157458668002 0.0160493662522 -0.000981496423663)
(0.31657322225 0.0475104057102 0.00559634187633)
(0.245984566829 0.0248294337207 0.00390917849874)
(0.353675105739 0.0328215699028 0.00550381674974)
(0.215210254139 -0.04320643466 -0.122549735759)
(0.326977590577 -0.0370095055894 -0.142996196323)
(0.202894056695 -0.0276003037706 -0.133794427593)
(0.316907798128 -0.0201498303465 -0.162049043768)
(0.380180953162 -0.00588742147059 -0.00453036595023)
(0.437199307843 0.0235569626045 0.00521962140453)
(0.49537720314 0.00867375733932 -0.000998003629494)
(0.348567411539 -0.0503731427231 -0.0713279944923)
(0.306761026515 -0.045276408626 -0.02588486485)
(0.33959606943 -0.0400048299377 -0.159322185118)
(0.317174271572 -0.0555670889297 -0.0605980175188)
(0.369966245825 0.0375340221126 0.00150205013004)
(0.369079134867 0.0496137897086 0.000684090387022)
(0.192290939233 -0.0286567004088 -0.152400306785)
(0.273582405498 -0.0282934836675 -0.16545762319)
(0.269870449577 -0.0122366031346 -0.181092937067)
(0.511965732751 0.0377950820891 -0.00226502803994)
(0.45089919468 0.063367086952 -0.000332627960286)
(0.509275712343 0.0599324171999 -0.00163523070672)
(0.346737461272 -0.0459452168145 -0.151602197369)
(0.349404916283 -0.0433400684225 -0.13741765261)
(0.35180883585 -0.020086307843 -0.176162697423)
(0.366207104797 -0.0154377725265 -0.141232141368)
(0.793738186043 0.00281377718864 0.000898785055856)
(0.792743153571 0.00214432567637 0.00162350271196)
(0.786480278465 -0.000710963323676 4.03232898838e-05)
(0.785724274897 0.00114647057941 7.09325799169e-05)
(0.793145794741 0.00369240768792 0.00149278910964)
(0.786535263548 0.00111463929535 2.03205531526e-05)
(0.793375224748 0.00189662657909 0.000832209368069)
(0.794397478718 0.0039093954133 0.00100405572444)
(0.794542188536 0.0062105771857 0.00144630185819)
(0.786051145712 0.00184843998075 -7.96301378519e-05)
(0.78723935689 0.00314902299779 -0.000252260882525)
(0.7936699347 0.00507090129454 0.00134751130382)
(0.795064117044 0.0052998148017 0.00062649269752)
(0.786792899919 0.00174840576447 -4.44678050649e-05)
(0.792372114654 0.00705357660225 0.00339432878652)
(0.793792513926 0.00737177613102 0.00170554037673)
(0.784257130525 0.00258465853911 0.000251875343981)
(0.783240024505 0.00541100283577 0.00119864957665)
(0.792575620658 0.00561441420048 0.00241013861153)
(0.793632463175 0.00834944813537 0.00357636592541)
(0.782218215261 0.00328126509683 0.00123650354233)
(0.796700614804 0.00746784235356 1.28777514916e-05)
(0.79536641552 0.00751951224744 0.000592841335109)
(0.787771048792 0.00360439121716 -0.000529595337615)
(0.788037982054 0.00545069140858 -0.000854599243856)
(0.795860356044 0.00647943699419 2.16954377469e-06)
(0.796546037702 0.00861511719347 0.000456673738583)
(0.788055469657 0.00502637654884 -0.000516603801725)
(0.797883045665 0.0086109580598 -0.000618648227032)
(0.799068723774 0.0105215706814 0.000273647053649)
(0.78820778649 0.00532148809299 -0.000747004203155)
(0.788240613076 0.00593391137619 -0.000242890631912)
(0.79786158418 0.00990640649882 -2.02049829832e-05)
(0.798928048273 0.00939100220924 -0.000427608185689)
(0.78817645834 0.0051425170206 -0.000737067720795)
(0.795852695454 0.0115425325165 0.000311871467742)
(0.794906246302 0.00885618717219 5.20206412492e-05)
(0.784670035827 0.00602310067776 -0.0012756396273)
(0.787287318736 0.00568665395302 -0.00117070277754)
(0.79462122749 0.00994641583308 0.000886181829815)
(0.795979202028 0.0101301179461 -0.000290204291257)
(0.785676432543 0.00628448747813 -0.00192759431424)
(0.795658194082 0.0131755122929 -0.000603462956961)
(0.793524910565 0.0130432947043 0.00117018013694)
(0.782805925188 0.00764995044606 -0.00031925580994)
(0.783281721894 0.00851501493025 -0.00142549189537)
(0.794104472119 0.0111246438894 0.000606273029046)
(0.795690355877 0.0150735066067 0.000327390972075)
(0.784198021627 0.00729712515925 -0.00166638480532)
(0.797564087608 0.0129376573755 -0.000416712586636)
(0.799053902894 0.0119930344379 -0.000153591164488)
(0.787808831675 0.00528242120245 -0.000976994986686)
(0.787736000651 0.00583661116044 0.000136792028652)
(0.797628122511 0.0113646045814 -0.000939148031713)
(0.799076713547 0.0134166815912 0.000762118442707)
(0.786792523316 0.00581256746752 -0.00128909737547)
(0.797641693435 0.0146039117255 -0.00118262583488)
(0.79937781953 0.0167405576456 0.000438089183802)
(0.784677676122 0.00772020394467 -0.00131405053669)
(0.786638921333 0.00591385333134 5.34429772015e-05)
(0.797490192954 0.0164699998982 -0.000855964534511)
(0.799124668909 0.0150095309479 5.31210786246e-05)
(0.785702702023 0.0066851514305 -0.00116768658418)
(0.797096680016 0.019746983582 4.89893981687e-05)
(0.793661756347 0.0153624758471 0.00025477192791)
(0.780675417147 0.0129453909923 -0.00159423327873)
(0.782037639534 0.0101255913357 -0.000614943432513)
(0.794354385428 0.0183792441497 0.000425730138072)
(0.796413644202 0.0172128867977 -0.000411702144509)
(0.781736371432 0.0114825221472 -0.00119356815802)
(0.799024764086 0.0217296413579 -0.00123587986462)
(0.799502566496 0.022662832051 0.000626771626867)
(0.78115933813 0.0142163238597 -0.00214087675123)
(0.782935759485 0.0129768756506 -0.00215982240069)
(0.796673535184 0.0207513961953 -0.000360431753029)
(0.781903521613 0.0123004264947 -0.00169227677519)
(0.801329994831 0.023141172357 -0.000282312830432)
(0.799062064423 0.0201165528461 -0.00114974772568)
(0.800052119994 0.0182348289743 -2.14024165033e-05)
(0.783766742406 0.00908116918527 -0.000868698902146)
(0.7844257578 0.00781361082905 0.000487026185034)
(0.798465035567 0.0181955910057 -0.00118565964999)
(0.8007329258 0.0199000082635 5.32166331405e-05)
(0.783135161737 0.0103437481097 -0.000808793436977)
(0.800782652418 0.021754868169 -0.00186073475863)
(0.803574685258 0.0221064739226 -0.000533001796041)
(0.783838885806 0.0119960105363 -0.00198864601683)
(0.784311930988 0.00873219190388 0.000696463388801)
(0.802081930618 0.0212442219155 -0.000540151731969)
(0.783112774066 0.0113812829872 -0.001045841422)
(0.802798118642 0.0229457165967 -0.0019505830304)
(0.801829272094 0.0128114271079 0.00171525529154)
(0.800357870006 0.0122103415476 0.000320591891831)
(0.787575655574 0.00522490262673 0.000832101121384)
(0.788292299243 0.00595720415985 0.00102022881563)
(0.800647068019 0.0134281252556 0.00104142221852)
(0.801437893105 0.0117499926596 0.00082384944167)
(0.788007658207 0.00621790382463 0.00162621755838)
(0.801932660367 0.0139226117271 0.00131528426862)
(0.801039046958 0.0163823600898 0.000980647860714)
(0.786956624688 0.00549631100025 0.00125656184744)
(0.787144662419 0.00662615098221 0.00231519141994)
(0.800751682747 0.0149447519238 0.000618460748693)
(0.802192333731 0.0150639427879 0.00180140167611)
(0.787375013141 0.00637474182005 0.00212066136972)
(0.802802816999 0.0124908938843 0.00186356895103)
(0.803733105735 0.0116272838025 0.00247071275197)
(0.787541989814 0.0071836461922 0.00275697498509)
(0.788053472133 0.00770441045536 0.00286797766089)
(0.803055412284 0.0133542793165 0.00226391700846)
(0.803515772502 0.0110226496615 0.00204502082396)
(0.787595969439 0.00668357859462 0.00250052870311)
(0.802999491667 0.0169381227905 0.00175576989477)
(0.801520101618 0.0176485054171 0.000685431110301)
(0.785405310377 0.00733827937765 0.00215496916902)
(0.786605448624 0.00702671650253 0.00253359913428)
(0.802138930707 0.0188966291914 0.000886338286485)
(0.802486660318 0.0160683998571 0.00128162529409)
(0.786231549448 0.00771640368123 0.00288014723736)
(0.80370077545 0.0176037793562 0.0014719378164)
(0.804386414891 0.0203850933423 0.00100640705975)
(0.78502296878 0.00815880299338 0.00256247024534)
(0.785934122746 0.00923324884081 0.00367581560672)
(0.803148425879 0.0198265866761 0.000694450113116)
(0.785904433856 0.00846523416337 0.00330582333637)
(0.804624164091 0.0178445449503 0.00194332971859)
(0.80360782719 0.0149170979293 0.00213005220463)
(0.803734070691 0.0123635721695 0.00221544951069)
(0.787245919345 0.00778422486301 0.00306357771227)
(0.78735566608 0.00895440878942 0.00318212554663)
(0.803199291636 0.0142396642618 0.00198215970168)
(0.804034838939 0.0128621021649 0.00224124273256)
(0.786891698548 0.00855209830039 0.00307548978173)
(0.804067822627 0.0154446535939 0.00180092967128)
(0.804955656761 0.0134437368839 0.00195014698504)
(0.786108787716 0.00999188234047 0.00352695955421)
(0.786874051468 0.00930007248543 0.00325469383719)
(0.804395786715 0.0133523607401 0.00181232188887)
(0.786408893291 0.00929459875833 0.00329116433274)
(0.804828647815 0.0155419636251 0.00201702842715)
(0.804567525873 0.00901223692218 0.00142859656712)
(0.804055999231 0.0103404952849 0.00216788554475)
(0.787702833183 0.0101682964715 0.00291882173443)
(0.78825535293 0.0103183275638 0.00253751470597)
(0.804321801732 0.0107527035906 0.00209587654678)
(0.804420257885 0.00860564861004 0.00147511069105)
(0.787812919407 0.0106021179102 0.00248965713292)
(0.805063243625 0.0113570313102 0.00179447548357)
(0.787173732056 0.0105969815785 0.00296224149471)
(0.804581712716 0.0111960398872 0.00172049525503)
(0.816641229249 0.00330457290764 -0.000917426225642)
(0.818115312732 0.00125450003666 -0.000525560110636)
(0.818133266805 -0.000933943388106 -0.000395948602334)
(0.814842976126 -0.00387757665281 -0.000402647943401)
(0.810155105221 -0.00528911631035 -0.000188082759214)
(0.82351143488 -0.0423875352355 3.68381124837e-05)
(0.817376491451 0.0033537443758 -0.00165160799099)
(0.818526753651 0.00145778276398 -0.000352609334631)
(0.818344127726 -0.000503131285112 1.4352036225e-05)
(0.815086629793 -0.00405350167396 0.000210834325413)
(0.810688079748 -0.00569682562792 0.00173720274258)
(0.824847528459 -0.0443272280613 0.00256912622853)
(0.81595262318 0.00585685238296 -0.000648397506843)
(0.812709539897 0.00597846016356 0.000164791708944)
(0.791690178936 0.00993542329188 0.0019691370297)
(0.78851233684 0.00988030551492 0.00132577185353)
(0.786237277252 0.0107323174241 0.00334159315201)
(0.781437070445 0.00768644655644 0.00725592886838)
(0.785517862041 0.00694513077644 0.00589806594786)
(0.742375649513 -0.0292752567785 0.0256826861244)
(0.825627715254 0.00476413663465 0.000290760774861)
(0.823708368391 0.00273614316917 1.26013861079e-05)
(0.821534350467 -0.000599082557953 -0.000824861073197)
(0.819318963685 -0.00285221297011 -0.00239355996783)
(0.819239677691 -0.00488403353109 -0.00311994889963)
(0.818793264721 -0.00860058860507 -0.000183702978389)
(0.813127317751 -0.00694105333408 0.00364555283738)
(0.817061398069 -0.0749088131136 0.0109055300931)
(0.819617342393 0.0052826346278 -0.00124548776754)
(0.822668868983 0.00315383882876 -0.000840328141106)
(0.822758737755 0.00198910155872 -0.00111745518415)
(0.821719212369 0.000423915809876 -0.00144867945413)
(0.820562897333 -0.00132355980067 -0.00149275997104)
(0.820657572955 -0.00550506147856 -3.11617508212e-05)
(0.814133131669 -0.00712786750887 0.00209796944428)
(0.822861954971 -0.0601056209101 0.00463490316581)
(0.81607066313 0.00638472714274 -0.00107178425701)
(0.819235542457 0.00260285209068 -0.000588637292133)
(0.819953650493 0.000250072585259 -0.000574432228789)
(0.819620728137 -0.0020164214454 -0.000713132540012)
(0.818173039967 -0.00305827777124 -0.000977167082924)
(0.818264848741 -0.00601859520276 -0.000564829958398)
(0.812611149557 -0.00760833445701 0.00049152825956)
(0.824068445708 -0.0629559035868 0.00156124962382)
(0.816387100489 -0.00186175973841 -0.000438945301812)
(0.816247904596 -0.00440374459967 -0.000226645705279)
(0.811271762151 -0.00600055742516 9.99317281538e-05)
(0.825204452511 -0.0485362196813 0.000377407963679)
(0.638795261832 0.0419629076973 0.00912557907216)
(0.637325663567 0.0394402516332 0.0135094642913)
(0.649667162782 0.0228241817105 0.0169928136619)
(0.649558497718 0.0198356051743 0.0166846445266)
(0.650237925408 0.0210007875311 0.0191699632071)
(0.648799925761 0.0178181822007 0.0259118730213)
(0.693986917552 0.0197780855404 0.0247513917074)
(0.545233630705 -0.067689822925 0.0469467555199)
(0.772992941069 0.013255722042 0.00559096020289)
(0.77025734987 0.00857930312512 0.00717508672155)
(0.778969576023 0.00104752938382 0.0113503146966)
(0.776128184128 -0.000926900826106 0.0127613686217)
(0.776574687779 -0.00193995198684 0.015239780885)
(0.781512043493 -0.00747432262174 0.0173266526082)
(0.792572222324 -0.00206880918923 0.0211392120999)
(0.793357016025 -0.129124740576 0.0285113072395)
(0.821094140983 0.00594007998634 -0.00222875252181)
(0.823142210527 0.00384593731675 -0.0015709401638)
(0.82281495721 0.00289667544734 0.000359534145484)
(0.821571542679 0.00276517833046 0.00079343388201)
(0.821248343124 0.00173000013575 0.00130716701258)
(0.822903224446 -0.00298117346177 0.00148682417647)
(0.818096751691 -0.00634260477805 0.00545489548327)
(0.837128582072 -0.0846176504109 0.00968649468864)
(0.816604835749 0.00604624717317 -0.0025078415314)
(0.819900724441 0.00301729577742 -0.00152460341635)
(0.820073558504 0.00100137797174 9.5311311397e-05)
(0.819553285476 -0.0015238561366 0.000442655205323)
(0.818346068898 -0.00334205057681 0.000614573279609)
(0.81936623859 -0.0070784378766 0.00155658654824)
(0.814581672062 -0.0089625677499 0.00418811055269)
(0.829600796627 -0.0717544641545 0.00626345072768)
(0.816502067804 -0.00159995107066 3.99634528849e-05)
(0.816863446071 -0.00420151691126 0.000598790812846)
(0.811945981404 -0.00631529838743 0.00246220332293)
(0.827444393051 -0.0548770932989 0.00355759331596)
(0.634364268017 -0.0154546092206 0.0148860703737)
(0.632155597124 -0.0160082958485 0.0170302050283)
(0.642712846757 -0.0215142118786 0.0220054638146)
(0.639549580141 -0.021294378161 0.0228729085234)
(0.640401467292 -0.0217095975275 0.0250534343599)
(0.641136604931 -0.0219176537746 0.0256058015801)
(0.69285591465 -0.0106754351886 0.0292272563598)
(0.554332077093 -0.154757415945 -0.00117298707513)
(0.733760433386 0.00566855748663 0.018615474691)
(0.735165280862 -0.000740368040093 0.0199508092339)
(0.788964666642 -0.00287571438181 0.0093615686316)
(0.785754565219 -0.00302390843138 0.0106080647469)
(0.784049464219 -0.00530027539245 0.0110232685537)
(0.788372104889 -0.00817660281426 0.00939383111455)
(0.801904227117 -0.00276089409986 0.00733242147769)
(0.818375096091 -0.139074016034 0.000739830991104)
(0.822064759671 0.00493235391969 -0.00542118811196)
(0.825853312685 0.00346883138978 -0.00347091590285)
(0.82525772275 -0.000171219427986 -0.00102222831866)
(0.822473058321 -0.00261406607156 0.000270601932252)
(0.821215519531 -0.00440935549982 0.000220000284589)
(0.824630580199 -0.00811011448557 -0.000536826302332)
(0.821597248988 -0.0119664870339 -0.00131959282615)
(0.852547364955 -0.104476698556 -0.0026711968036)
(0.81083484437 0.00944816161981 -0.00487641978883)
(0.817595883206 0.00605614418609 -0.00566244866862)
(0.82178578674 0.00244564987054 -0.00351185780313)
(0.822005013979 -9.88268130113e-05 -0.000781105262187)
(0.82089768509 -0.00243770703745 0.000422008722686)
(0.81886935882 -0.00467351413458 0.000193298926403)