/*--------------------------------*- C++ -*----------------------------------*\
| =========                 |                                                 |
| \\      /  F ield         | OpenFOAM: The Open Source CFD Toolbox           |
|  \\    /   O peration     | Version:  v1906                                 |
|   \\  /    A nd           | Web:      www.OpenFOAM.com                      |
|    \\/     M anipulation  |                                                 |
\*---------------------------------------------------------------------------*/
FoamFile
{
    version     2.0;
    format      ascii;
    class       volScalarField;
    location    "9.5";
    object      alpha.water;
}
// * * * * * * * * * * * * * * * * * * * * * * * * * * * * * * * * * * * * * //

dimensions      [0 0 0 0 0 0 0];


internalField   nonuniform List<scalar> 
28582
(
0.999995948771
0.999992949031
0.999996330189
0.999995024107
1.00000043834
1.00000050546
0.999998878672
0.999998442865
0.0534008627347
0.0554414615849
4.23242681475e-06
0.999998591523
0.879801864136
0.87848528896
0.999997606747
0.999998172597
0.87596583727
0.998857080174
0.998944180704
0.999998687564
0.999996183137
0.999997766816
0.999998007949
0.999996640286
0.999998640871
1.00000105738
1.0000007662
0.999988135051
0.999995981031
0.0569440074295
-1.76324152623e-38
6.33492537129e-26
0.999988217252
0.999998612522
0.873286710393
0.872379539547
0.99867679369
0.999993727951
0.999997471941
0.999999354059
0.998840303492
0.859744018468
0.998904224093
0.998787041518
0.0538029480831
0.0545176999909
0.000279695023219
0.00050055457699
0.0547257604391
0.00047854843739
0.998933819203
0.999006006498
0.879561443459
0.881612122476
0.999051055359
0.881099830272
0.998893009295
0.99897731836
0.998868590744
0.879201253415
0.880226408571
0.998968238746
0.880682246931
0.998874803611
0.998924921515
0.998859079605
0.872992333072
0.878101592025
0.998953772463
0.87514658839
0.998828538479
0.998789103668
0.866066613951
0.868586434596
0.998884354701
0.869541250882
0.871871414184
0.998796079918
0.998967818821
0.871485964478
0.875101003297
0.998982392615
0.878244159619
0.999010569128
0.875789622135
0.0541904242656
0.000124285526498
0.0533180941748
0.0556546753724
0.000117983411301
0.000107108972066
0.055644768687
0.000272363559851
0.000364035899892
0.0569967883407
0.000377927820552
0.0583621144649
0.000394898634898
0.998283098411
0.998324996387
0.873594540198
0.874724361198
0.998323350096
0.99829705036
0.875154911998
0.998272385058
0.998294999132
0.873170134858
0.874077695808
0.998317426501
0.99825898462
0.874759407718
0.878791115907
0.878493742535
0.99867604771
0.998486345098
0.876083945192
0.998485190104
0.876615272288
0.998778739182
0.863558117886
0.865644657231
0.998812425797
0.861485894897
0.998749792021
0.863337545395
0.998765843166
0.998608844716
0.860513900001
0.860898036691
0.998691230508
0.998693658116
0.86218968272
0.998860221607
0.998909034919
0.868023824723
0.871843815627
0.868504946466
0.998860645706
0.865066185772
0.865811294498
0.863261540579
0.998704875912
0.998805533338
0.861843080999
0.998745407712
0.863497797334
1.00000050126
0.999993784361
0.0599134494555
-7.07513076384e-27
0.999997291668
0.878105911766
0.999998991324
0.999999460938
0.858720432277
0.861224067769
0.857950766345
0.999998260518
0.999998304976
0.858133913826
0.857339503319
0.0548854930765
0.0587273628632
0.0601130064155
0.000397747866498
0.000378134020185
0.0003626354472
0.0609507849245
0.0618806651093
0.998461596439
0.998663736557
0.875704498682
0.877856905041
0.998467819378
0.875339402919
0.998639118297
0.99849107637
0.998511577596
0.857323631303
0.859332783524
0.998428421099
0.99859061185
0.85814708115
0.998568113829
0.998595828057
0.860417422277
0.85931451123
0.998663350487
0.85958137556
0.998506884373
0.998528558335
0.998489242692
0.858073194968
0.858139907216
0.998526836006
0.858674941306
0.998486808636
0.998577600075
0.998502372176
0.857883181731
0.858184236433
0.998536174989
0.857636825259
0.998540410759
0.998638922923
0.998634368736
0.856063428488
0.857927766983
0.998650723615
0.857150091624
0.998603444831
1.00000967879
1.00000275175
1.00000275606
0.999999178923
0.0301106924991
0.0366883130848
0.0315768490879
0.0387436241639
0.0394379719012
-2.77496973837e-26
1.5467085373e-05
1.56650177665e-07
7.95350009503e-06
3.83798065666e-06
1.01934200505e-05
1.00000262478
1.00000211993
0.951421497851
0.952218406537
1.00000525692
0.952927671502
1.00000205048
1.00000278491
0.952095650409
0.95120683079
1.0000101736
1.00000744812
1.00000973689
0.952667936322
0.953748106563
0.95138621893
0.949280506963
1.00000909532
1.00000564924
0.952040067748
0.920794781945
0.943186744295
0.906478489227
1.00000425012
1.00000442412
0.950872318847
0.944191344649
0.92990535649
0.999997991799
0.999999368486
0.999995026116
0.937320515171
0.902662012716
0.922022784438
0.892301956693
0.920148840291
0.89215063916
0.0292249049215
0.028877742926
0.0300080762303
8.95765901117e-06
4.48953305053e-06
9.06625475408e-06
7.27489661061e-06
4.1815037231e-05
0.000615023821653
6.2985523245e-05
0.000402074138068
0.0286304600726
0.0286769814328
0.0324617244985
0.0305334921158
0.0333833587486
9.17038092722e-06
2.15068011987e-05
1.77173948353e-05
7.88161013496e-05
0.0421198316703
0.0381487027341
0.041861184017
0.000138571607892
0.000377773208702
0.00023231173961
0.000430234261835
0.0353691025981
0.0366182530008
9.55600814759e-05
0.000207228372133
0.000290670134806
0.0416568954306
0.0392592000716
0.0417681132063
0.000311813416269
0.000442159720135
0.000355542372877
0.000448862755636
0.999728541602
0.999749561166
0.950365633728
0.951849269775
0.999758789577
0.950847769756
0.999711413785
0.999721517479
0.999784166473
0.952023402128
0.951449988791
0.999763330919
0.999745069782
0.951159039313
0.999981005022
0.999872509342
0.952871762066
0.953568605268
0.999871691264
0.999973711257
0.953652400783
0.999751760326
0.999789062844
0.951538296296
0.951904381696
0.999764574146
0.999777185215
0.951567305546
0.999762453919
0.999787696527
0.951733580247
0.951045607614
0.999789934169
0.999763623538
0.951461159569
0.999937719162
0.999849665787
0.9532607211
0.952337589015
0.999958812629
0.999832208555
0.952767987866
1
0.999999454948
0.953675526631
0.953132487738
0.999999932053
1
0.952967023551
0.999918606325
0.999829543518
0.951978717277
0.951555566658
0.999847581958
0.99992895592
0.952283097298
0.999984853253
0.999994640469
0.951658372747
0.950940236263
1
0.999995765299
0.95218682805
0.999956028714
1
0.948258776038
0.950442000182
0.999982270989
0.999994100625
0.944871941884
0.999900431919
0.999787535585
0.936745012531
0.915515726302
0.999899524723
0.932001470722
0.999729824748
0.999917959052
0.999973683388
0.946941283566
0.934225661478
0.999969941018
0.999908918971
0.939291235783
0.999831183916
0.999630536536
0.911383890281
0.921278300934
0.999811480252
0.92689835863
0.999648278027
0.999908258124
0.999865465181
0.95069602819
0.949578613879
0.999933797412
0.999856956881
0.948444320352
0.999941426359
0.999963115488
0.9480217335
0.939670254793
0.999960355456
0.999930058477
0.944782790664
0.999926302715
0.999840079486
0.934008377588
0.936301597749
0.999892839095
0.999881000857
0.939923681328
0.999784354406
0.999926481037
0.927757039974
0.931760039518
0.999828495919
0.999869544751
0.921564393104
0.999651680902
0.999498927995
0.916097865793
0.897427153069
0.999697928361
0.909944983939
0.999414938262
0.999684876945
0.999776401393
0.926405844509
0.912589227985
0.999812215126
0.999640668707
0.916512172407
0.999529174317
0.999267827223
0.894646666546
0.902606600021
0.99948191207
0.906121985767
0.999318847428
0.999603532704
0.999722290621
0.91128285678
0.918821012629
0.99959330076
0.999711525968
0.91086767049
0.999270399822
0.902027669224
0.999461539224
0.999993659436
0.999992899703
0.999996087909
0.999997605156
0.999997503002
0.999990276691
0.999996310791
0.999996300466
0.999997220289
0.999998822813
0.999996437539
0.999988939876
0.999999682568
0.999990398551
0.999960196861
0.999984084245
0.999988387133
0.999994136974
0.999996626759
0.999988419783
0.999997565614
0.999997774018
0.999984493626
0.999977092423
0.999977094215
0.999985603126
0.999997388077
0.999990356429
0.999996984946
0.99999077259
0.999990799807
0.999994462329
0.999997661846
0.999999283712
0.999999094214
0.999993651645
0.999997431468
0.999990705735
0.999992789936
0.999998014339
0.999999120087
0.999998901974
0.999995927222
0.999989144198
0.999999106589
0.999999137661
0.999997173275
0.999989212309
0.999992873595
0.999784937754
0.999968678601
0.999998149352
0.999999571049
0.999999170744
0.999956552781
0.999909171201
0.99998887508
0.999969059416
0.999921738661
0.999982159205
0.999998407246
0.999999408569
0.999997485901
0.999987272385
0.999993379895
0.999983413488
0.999980254749
0.99998728319
0.999996774467
0.999999394344
0.999999263324
0.99999761557
0.99999804401
0.999997855181
0.999998256382
0.999998787162
0.99999906493
0.999998942477
0.999997709921
0.999996905744
0.999998973282
0.999998810892
0.999996691254
0.999993301206
0.999983541639
0.999784937754
0.999986994783
1.00000122899
1.00000731244
1.00000651132
0.999997179762
0.999958491161
0.999977076571
0.999900076847
0.999972131757
0.999997867103
1.0000032098
1.00000788383
1.00000888466
1.00000572403
0.999999731002
0.999996858007
0.999997567801
0.999999632813
1.00000126726
1.00000299739
1.00000403184
1.00000389034
1.00000012728
1.00000073562
1.00000074798
1.00000088136
1.00000109949
1.00000147649
1.00000174019
1.00000170924
1.00000171366
1.00000075082
1.00000085526
1.00000125386
1.00000178625
1.00000198801
1.00000197379
1.00000217138
1.00000069755
1.00000068448
1.00000082703
1.00001880439
0.999993718269
0.999987601852
0.99999403511
0.999997038771
1.00000008089
1.00002076832
1.00001630225
0.999986702172
0.999999785353
0.999999160536
0.999996576872
0.999996287384
0.999992926842
0.999988124582
0.999991403031
0.999986094877
0.999993047187
0.999987675983
0.999990390593
0.999994208128
0.999994470092
0.999994015376
0.999990945066
0.999988631525
0.999992255879
0.999992366252
0.9999851255
0.999991529013
0.999993624902
0.999994179867
0.999992374276
0.999990214357
0.999989688697
0.999989344617
0.999988740632
0.99998703407
0.999990167534
0.999990228822
0.999987522689
0.999985212919
0.999985142443
0.999986326783
0.999995136494
0.999998835818
0.999994598787
0.0548582951179
0.0581960612219
0.0561410263331
0.0548445427124
0.0568270656846
0.0605246331081
0.0635008720589
0.0649284149528
0.0446894509423
0.0490927661918
0.0541911269228
0.0576602463443
0.056279639762
0.055629518284
0.0582372148264
0.0610650913832
0.0635279413437
0.0645402192872
0.0442463274479
0.0491816812275
0.0543205787509
0.0570514933667
0.0572469195637
0.0580858239347
0.0602125194163
0.0625278436161
0.0637879713162
0.0638095172121
0.0470698847228
0.0546520890935
0.057481341495
0.058494420438
0.0596211864816
0.0607914484175
0.0640640723047
0.0652136190528
0.0653759803748
0.0563856463007
0.0571752846876
0.0574418655693
0.0612968397248
0.0637600393081
0.0656325288088
0.0661848049045
0.0620618626119
0.0638039120987
0.0653612557884
7.57580486166e-05
5.99196511559e-06
5.70778355278e-24
-1.74646684085e-25
5.76486502868e-07
1.88326145559e-06
4.07035122524e-06
-9.4737109576e-30
-1.24341660604e-28
9.68037280168e-05
9.65459457177e-05
0.000106323888211
4.48047443433e-05
-1.2085013363e-24
-5.81050174307e-27
1.55603120665e-05
2.85082658349e-05
-2.84197399148e-26
-1.13626084666e-27
5.4861261561e-05
7.67380821898e-05
-4.86000655939e-26
-1.24849229393e-29
-6.94527100836e-30
1.30065742517e-25
4.92057403187e-06
8.06352819783e-05
-7.39575342658e-24
-3.20199927649e-25
5.00208557701e-05
1.05879118407e-23
-2.07128240511e-28
-3.58549272967e-27
-1.0448934343e-27
5.7423946057e-08
6.73289649079e-05
-2.85348196286e-24
-4.33273379485e-26
5.33773865175e-05
9.69243704066e-09
1.20431532619e-05
6.62207271643e-05
-1.47261184542e-26
-1.28662512606e-25
-3.01724946028e-26
6.48253179031e-05
-2.39101692078e-27
-4.17377545788e-26
9.97184392421e-05
0.999998500948
0.999998093842
0.999996921236
1
0.999971252187
0.99999892841
0.999989122909
0.999957518988
0.99999645677
0.999997800174
0.999841312154
0.999846119149
0.999948318587
0.999923688831
0.999997340301
0.999993824354
0.999993735368
0.999996694738
0.999994212349
0.999994387158
0.999995954951
0.99999780563
0.999995604287
0.999996109888
0.99998735779
0.999986081858
0.999994931715
0.999990730918
0.999886813324
0.999996096202
0.999960077542
0.999987836061
0.999883291846
0.99998393987
0.999863495467
0.999882119369
0.999801909455
0.999840268423
0.999785131489
0.999859964997
0.999784937754
0.999819123414
0.999987888215
0.99998539381
0.999993729688
0.999981637214
0.999970818857
0.999981683987
0.999988182906
0.99989588619
0.999993147488
0.999987909683
0.999855379846
0.999819680496
0.999981512869
0.999943634409
0.999889036606
0.999976211536
0.999902545195
0.999989794515
0.999936519932
0.9999902193
0.999959088562
0.999885107473
0.999785131489
0.999865080541
0.999887972152
0.999937828054
0.999904801612
0.99993786992
0.999970267597
0.999992302271
0.999991764507
0.999991637967
0.999987103999
0.999998592395
0.999998451111
0.999834133186
0.999983131436
0.999964906512
0.999964423198
0.99995872682
0.999997778307
0.999997837907
1.00001220757
1.00001428221
0.841903310176
0.842047377083
1.00000834639
1.00001599006
1.00000752625
0.845722424937
0.857946464369
0.845188336434
0.859221534458
0.999982793893
0.999999721928
0.999996918227
0.861212504679
0.868870549298
0.862411119122
0.869358078849
0.999992089908
0.999996036151
0.999993628657
0.870163352735
0.875368892201
0.870434519984
0.873189184351
0.999994662061
0.999995704757
1
0.875535697765
0.874530036637
0.873258272062
0.872434239001
0.999996110604
1.00000179681
1.00000101915
0.874130286696
0.866174027261
0.871802025951
0.860640688002
1.00001371711
0.999999711136
1.00001232734
0.860840593503
0.849264541706
0.854457947429
0.841691420198
1.00002242423
1.00002923715
1.00003331058
0.848304521441
0.843165649706
0.841292731679
0.833618130043
0.99996232956
1.00000563419
0.999959484109
0.843281641717
0.804283441679
0.836508749675
0.830655916533
0.999996701708
0.999988558354
0.902412962402
0.855712908613
0.89241363457
0.860058628195
0.999994939567
0.99998872017
0.99998665129
0.847076608498
0.845162363942
0.85479643761
0.853569523144
0.999998961717
0.999987406826
0.99999065179
0.847408611924
0.859331840436
0.855379521125
0.861806912881
0.999997315552
0.999990727162
0.999993186102
0.861895221013
0.868784604776
0.863913347905
0.868499354957
0.999997158167
0.999991943996
0.999993238738
0.869979598531
0.872161044004
0.870103268731
0.872253408897
0.99999513265
0.999992392394
0.999995232216
0.872881196684
0.872871107227
0.871622985753
0.866728067604
0.999988098938
0.999992243795
0.999989458826
0.871566424176
0.858517728991
0.862937308459
0.847351062098
0.999988053597
0.999989073561
0.99998948907
0.852604612472
0.840788910869
0.844527753329
0.841725641813
0.99999511562
0.999994087322
0.999993895334
0.840732503528
0.834413081429
0.842546431748
0.842375928054
0.999966621399
0.999989258273
0.99998552179
0.837471189474
0.833970224786
0.845688497345
0.839141270173
0.999990664378
0.999990866333
0.99998404683
0.889933088805
0.860408693775
0.883049114544
0.865369197324
0.999989872932
0.999991757441
0.999991278685
0.856690538668
0.856885966617
0.864106977517
0.865657621453
0.999991435613
0.999992574519
0.999993849178
0.858697388873
0.863125505312
0.866370592697
0.868857115122
0.999993860776
0.999993555876
0.999996184474
0.864806957193
0.867945405842
0.868534168349
0.868303524088
0.999993553196
0.999993887671
0.999994996286
0.869496399501
0.870684392216
0.867952970974
0.862420546521
0.9999904704
0.999991455187
0.999989553558
0.869183015249
0.861481411167
0.859693438861
0.848489222525
0.999988052511
0.999988786183
0.999987363748
0.857613714412
0.84609174021
0.846522782962
0.846058466037
0.999992064984
0.999990032678
0.999992400333
0.844392983304
0.843225705234
0.846926416776
0.847591033496
0.999994732087
0.999994910055
0.999994718572
0.843868500055
0.843838880767
0.847902539139
0.845802196839
0.999994390503
0.999994407474
0.999995171242
0.847582202139
0.84019774351
0.849655900543
0.840632629001
0.883892129921
0.868231107069
0.999990686938
0.999994988996
0.866792620605
0.867941556022
0.872374283028
0.999992321876
0.999996195618
0.999995827946
0.868204673575
0.868908984501
0.871994231707
0.870683845651
0.999993045028
0.999993097507
0.999993631323
0.868207572767
0.866975130117
0.869740341099
0.867137198599
0.999992078243
0.999990685686
0.99999020122
0.866029419876
0.860304540719
0.865629677106
0.85868223706
0.999991511022
0.99999043358
0.999989401995
0.857759692725
0.847835412097
0.856534066184
0.852837669901
0.999992779787
0.999992452731
0.999991357918
0.848178695917
0.848913469671
0.852273418932
0.852228131231
0.999990672509
0.999989997274
0.999989254604
0.848727406685
0.847967856843
0.851643819277
0.848271928903
0.999990110916
0.999987989116
0.999988538322
0.847866514185
0.846127341434
0.847526560573
0.846453021245
0.999992059711
0.999988836574
0.999992888679
0.849892030355
0.840908319433
0.850471886773
0.841810390947
0.999988826955
0.99999652636
0.871561567646
0.869027234576
0.876592179471
0.99999162044
0.99999453898
0.999991457075
0.867899618482
0.859709760947
0.874786590061
0.863476096564
0.999991588093
0.999990249691
0.999987426661
0.858306870601
0.855767856324
0.863133847221
0.860623146569
0.999987515873
0.999986834067
0.99998561374
0.854801809253
0.851694565325
0.858222508279
0.853020020112
0.999985364809
0.999985130962
0.999986832161
0.851001948618
0.848269207566
0.852676984529
0.850861378422
0.999986519931
0.999988188695
0.999990775674
0.847750287453
0.846698308195
0.850225038268
0.846969114612
0.999990859812
0.999990370049
0.999993484884
0.850321352857
0.841237308228
0.850294401558
0.839802233535
0.999993500418
0.854709177278
0.999997740099
0.854357100615
0.852016956115
0.999998491859
0.851970352677
0.846300936131
0.999994654312
0.849796003576
0.840029827587
0.00115707299554
0.00113235568606
0.00113322517653
0.0012339709108
0.0516333350257
0.0520809390562
0.000645204215479
0.000533383308146
0.000700004084843
0.0005896360575
0.0563732895123
0.0550436194217
0.0563111859785
0.0003545002539
0.000207389698222
0.000446151782366
0.000245781616883
0.0568198246187
0.0577816952254
0.0564806611257
0.000116058749894
5.90373199925e-05
0.000116302386711
5.30917939435e-05
0.0549403599013
0.056032109927
0.0552019265533
6.81473583599e-05
8.99095936185e-05
5.71207712166e-05
5.55287676306e-05
0.0556997588168
0.0551297686059
0.0563192798017
2.37480092341e-05
1.19377380849e-05
7.88102935002e-05
3.53479702745e-05
0.0588761625118
0.0576839789591
0.0595993194845
0.000108077458042
0.000466627941855
0.000167586551714
0.00052011464887
0.0621325911957
0.060977053399
0.0623738344095
0.000651204047629
0.000721298672715
0.000678660125098
0.000745908686233
0.0646343349273
0.0636715086943
0.065310247531
0.000563013028144
0.000513241779859
0.00057401881975
0.000547355117533
0.0652319013435
0.0643301444964
0.0675333069216
0.000857326725257
0.00239621913134
0.000883680509347
0.00140261312824
0.0470435775255
0.0442729908195
0.0467854223097
0.00114663478907
0.00159060421244
0.00109347367788
0.00153453177251
0.0510917650124
0.0491352759358
0.0513487362603
0.0014378258812
0.00147179803631
0.00118010351381
0.0009358162064
0.0563930481001
0.0541496965504
0.0565285892286
0.00119436332659
0.000486668705399
0.000578968550138
0.000289415760161
0.0567748014751
0.0573124426772
0.0571799098481
7.56469093369e-05
4.07293399079e-05
9.41868476929e-05
5.61107650269e-05
0.0557381027165
0.056756467166
0.0564747188933
3.71918987692e-05
2.68646639403e-05
4.7289199168e-05
3.1667810838e-05
0.0566763826491
0.0566937999535
0.0577848297899
7.92258532211e-05
0.000179994104343
0.000107566586266
0.000339815895862
0.0598125529593
0.0590076122446
0.0603835243477
0.000380489085473
0.000702344410298
0.000722969560747
0.000968642574498
0.062445682934
0.0615898659105
0.0627541669231
0.000683131534921
0.000674463190216
0.000698026911057
0.000601807427407
0.0650654595533
0.0635070222509
0.0644798602661
0.000553219899014
0.000499438619824
0.000494344013573
0.000441471266671
0.0678455752289
0.0639083209382
0.0673346707199
0.000753852205004
0.000902863634991
0.000613020224734
0.000806349303921
0.0469023688215
0.0440391013987
0.0456848515636
0.000944917117077
0.00113674098672
0.000901198052007
0.00101077573957
0.051633823927
0.0482910632019
0.0511450133579
0.000438669881713
0.00027092548722
0.000307259839604
0.000182149879602
0.0564879064612
0.0543479534925
0.0563640061671
0.000178396596467
0.000115730548289
0.000121946620688
9.13409381885e-05
0.0573811057956
0.0572144862307
0.0575092519227
0.000117612389002
9.21784935596e-05
0.000119026264777
0.000110539466953
0.0575025276118
0.0580973470835
0.0586222055188
7.95586134834e-05
0.000115604362521
0.000122643795234
0.000199828177654
0.0593043857969
0.0592862524457
0.0604098225439
0.000233099258157
0.000396036220904
0.000332401266382
0.000516752835006
0.0608795778659
0.0609035802123
0.0616562856741
0.000871435135442
0.00133646384769
0.00119489983234
0.00148966190408
0.0634278970047
0.0634057257772
0.0641972549168
0.000687188815229
0.000566569447642
0.000673392195477
0.000547731782423
0.0645192064435
0.0644513641406
0.0651659165634
0.000494839852961
0.000467112543887
0.000528255778233
0.000529406049544
0.0673064050663
0.064465302584
0.0672500913393
0.00058139516475
0.000744058555574
0.000639152037178
0.000743275581779
0.0507767787183
0.0501454016728
0.00024768096011
0.000141750124036
0.000127938936918
0.0565815351197
0.0543366484392
0.0565036263663
0.000110236043669
9.7582641679e-05
9.83950912227e-05
9.40697068743e-05
0.0578702017017
0.0572824418391
0.057664944603
0.000128224719902
0.000121971698691
0.000125963269429
0.000128308790987
0.0589456373442
0.0582536279913
0.058790378769
0.000141401583513
0.000202998798235
0.000168932129237
0.000251290197891
0.0606787026638
0.0591574906658
0.06021300126
0.00034356834717
0.00052100643837
0.000396757348921
0.000548486085004
0.0623053054123
0.0612033492713
0.0627226832775
0.00129290760644
0.00139532286686
0.0011897337392
0.0010438028923
0.0647901545748
0.0641318438417
0.0649961754131
0.000633228642338
0.000517924733852
0.000588403335039
0.000492789074848
0.0659671077025
0.0657310630281
0.0666292542526
0.000533066335445
0.000557685391257
0.000527139309892
0.000574909015159
0.0671515702029
0.0660027227663
0.0668671753482
0.000732832760401
0.000812526932636
0.000764187563259
0.000978480279259
0.0568050424073
0.0553188117788
0.000132667773326
0.000150856536083
0.000142550944669
0.000169843126243
0.0575596678845
0.0558644503467
0.0561391720568
0.000291182777716
0.000523915376466
0.000386377657838
0.000866752100376
0.0591692128433
0.0560388283044
0.0581410271592
0.00112992945749
0.00116779288584
0.00168312521466
0.00114817818696
0.0627919841088
0.0608793070157
0.062521767037
0.000567257450899
0.000483812438404
0.000467506926184
0.000424037644412
0.0648230324072
0.0632877356533
0.0641626705411
0.000461458522673
0.000462839670953
0.00044340171772
0.000435886544227
0.0666799214637
0.0649859183299
0.0662827094448
0.00047390827365
0.000532539632709
0.000424524707737
0.000489008814869
0.0665435224186
0.0659279769357
0.0664376489069
0.000755685459696
0.00115875626714
0.000760427703669
0.00152100057617
0.0612881416406
0.000413269962697
0.0630250240753
0.000416073190267
0.000424132268354
0.000317433029066
0.000302117328146
0.0656883356564
0.000374481546226
0.000436860876396
0.000280095901488
0.000334038481797
0.0658770815159
0.000791341144016
0.00197678685034
0.000781639574276
0.00222646168784
0.998305100247
0.998329515934
0.8375978502
0.841272989956
0.998338223331
0.837278983526
0.998302946799
0.998224380661
0.998272662102
0.841303702935
0.839444892188
0.998269604351
0.998242131513
0.836897392305
0.99840675412
0.998358629723
0.848831972269
0.844567305129
0.998377288935
0.848543666781
0.998375402708
0.998433583614
0.99847149796
0.852742245875
0.858548323807
0.99849497765
0.853442116994
0.998397989888
0.998279635916
0.998274527378
0.844648637326
0.849653465092
0.998265065732
0.998285495748
0.848217013239
0.998320074962
0.998381857844
0.858865921594
0.854564156854
0.998406629
0.998312282358
0.853303722594
0.998616493287
0.998539199504
0.864084907142
0.861368446592
0.998558121235
0.863977707098
0.998582471995
0.998678512222
0.998777585011
0.866693385439
0.868862042892
0.998775335346
0.866616777668
0.99864925572
0.998580047439
0.998461934888
0.861943041419
0.865487612104
0.998490626671
0.998540621111
0.864362018429
0.998681706479
0.998829307037
0.869155185665
0.86771271982
0.998820251548
0.998661582775
0.866884131416
0.999022632534
0.998907006823
0.871460881058
0.87014976771
0.998899702644
0.871351711517
0.998968958593
0.999069528792
0.999070351019
0.873393427486
0.874808064325
0.999095994591
0.8731515909
0.999017978405
0.999039249817
0.99898334206
0.870301187444
0.871349117234
0.998954707276
0.999037580375
0.871219853955
0.999068447102
0.999062227722
0.873997584413
0.872383787798
0.999090236951
0.999050435221
0.872556601145
0.999060984838
0.999083333587
0.875077101612
0.874916502615
0.999102285072
0.874423117473
0.999050167125
0.998929387545
0.998710452545
0.874845649834
0.873575785137
0.998726459883
0.874075282684
0.998921609364
0.99906298124
0.999062543872
0.8742153356
0.872775305599
0.999094550682
0.999045365497
0.87377699998
0.998964082039
0.99881538527
0.872814906074
0.872508768911
0.99879881165
0.998953571558
0.873285230249
0.998465045493
0.998576801623
0.873245619864
0.873007160394
0.998594819189
0.871741065312
0.998474318673
0.998299904572
0.9981240612
0.870448434212
0.86449901334
0.998098960252
0.868620339213
0.998322938243
0.998493721929
0.998669811984
0.87219004268
0.87013828692
0.998663903288
0.998484470669
0.87073082574
0.998297881065
0.997977750563
0.862618230713
0.866267801033
0.99806319594
0.99824618059
0.867129437569
0.997939159784
0.99803454794
0.855879944075
0.859163748006
0.997967374858
0.853674049645
0.998007439812
0.997929293924
0.99800336173
0.852068505125
0.846269999735
0.997937050687
0.849416849871
0.997993589363
0.997893264346
0.997864666451
0.856934659768
0.848616058639
0.997917967104
0.997816951591
0.851093440584
0.99788036375
0.997884704609
0.844048893121
0.844678857826
0.997930162762
0.997822769777
0.846781889397
0.998073195265
0.99803077712
0.847891350242
0.845357622269
0.997975241604
0.844613992196
0.998123379497
0.998196631521
0.998449705059
0.845725247296
0.838256776031
0.998341640441
0.841623049697
0.99828880408
0.998049975798
0.997901472468
0.843397282252
0.840559237631
0.99798581358
0.997940127967
0.842559319543
0.998062406025
0.997945431588
0.835535700057
0.837539516878
0.998084681682
0.997938077752
0.839161380005
0.997758268999
0.998354091462
0.837501633897
0.839318434987
0.998257565347
0.833955946436
0.997827960428
0.995832472967
0.995700328956
0.81547323368
0.818944083394
0.807590652725
0.996055013707
0.995424941661
0.997174550376
0.997780231224
0.838256579384
0.833658359258
0.997894416711
0.997149516165
0.833697737878
0.995104919243
0.995726405917
0.826124100409
0.807848800186
0.995309395604
0.804462687567
0.995580072024
0.999219096912
0.999607081667
0.883319580807
0.89847242644
0.999276281563
0.881841873387
0.999517110406
0.998872446502
0.998535289815
0.868914804009
0.857106516191
0.998911059252
0.998520361786
0.868614713053
0.999107607612
0.999403090186
0.896313087807
0.879270551168
0.999070270491
0.881177357528
0.999423411525
0.99876091375
0.998449506131
0.859005653743
0.869024816747
0.998409286166
0.998734276105
0.869525915265
0.998040326764
0.99816481694
0.840682123836
0.850153288655
0.998008770415
0.998156298043
0.844555038338
0.997878888345
0.997905370154
0.842909511432
0.848016269484
0.997895996919
0.997866040321
0.846052418744
0.997954626688
0.998170998112
0.853025138536
0.850838632595
0.998069351036
0.998070423451
0.848540930954
0.997785769858
0.997897913256
0.850992973473
0.851720748826
0.997776444277
0.997902886499
0.849537307896
0.997824255015
0.997880503135
0.85120198481
0.850331895403
0.997876556257
0.997829787807
0.853174256959
0.997832235062
0.997963980528
0.855474123314
0.859948161555
0.997891545252
0.997888525329
0.856087021809
0.997790378473
0.99791204447
0.852821973839
0.857584058633
0.997777177376
0.997941563132
0.855243538618
0.997818826691
0.998002805758
0.860603582894
0.859345900759
0.99789091297
0.997960808176
0.857603663989
0.998105171806
0.998065036336
0.864528936044
0.862875500589
0.998171606166
0.997986261113
0.86508006895
0.998215701094
0.998476657697
0.866892051568
0.86884195756
0.998307881525
0.998337114313
0.866892284964
0.998087891354
0.99807750804
0.862777866061
0.865620603038
0.997985434882
0.998175461244
0.864443558046
0.998178601974
0.998328759606
0.86820626347
0.866964733487
0.998264728075
0.99825741884
0.866192145165
0.998580161104
0.998652195046
0.870753702452
0.870177594943
0.998708270389
0.998477780221
0.871041915889
0.998612449997
0.998714295842
0.871337092443
0.872235382566
0.998711181018
0.998631821244
0.871734884223
0.998459822091
0.99840929213
0.869841033879
0.871358491935
0.998365746469
0.998505676501
0.870810017861
0.998526960856
0.998623544324
0.872261915633
0.872171942861
0.998578493181
0.9985723249
0.871502001889
0.99864541184
0.998720917369
0.872596704462
0.872712456718
0.998717190813
0.998652336945
0.872649934072
0.998600701224
0.998570472589
0.872512941701
0.872808946599
0.998681182444
0.998474917874
0.872784565319
0.99863937602
0.998625614884
0.872565425877
0.87069762421
0.998639415893
0.998605087701
0.872250254642
0.998603583692
0.998382607264
0.869808061832
0.869267997159
0.998487680732
0.998531358484
0.871257707357
0.998088165263
0.998429154128
0.869152765034
0.870784521461
0.998231591014
0.998287373923
0.867365052455
0.997909609088
0.997772906565
0.864396648019
0.855475637387
0.998014978584
0.99767939367
0.861923804388
0.998158439825
0.998228927794
0.867010176719
0.857879708338
0.998327950708
0.998028033459
0.863146117717
0.997997065155
0.997685909919
0.851954730357
0.852142623872
0.997798910319
0.997854975187