/*--------------------------------*- C++ -*----------------------------------*\
| =========                 |                                                 |
| \\      /  F ield         | OpenFOAM: The Open Source CFD Toolbox           |
|  \\    /   O peration     | Version:  v1906                                 |
|   \\  /    A nd           | Web:      www.OpenFOAM.com                      |
|    \\/     M anipulation  |                                                 |
\*---------------------------------------------------------------------------*/
FoamFile
{
    version     2.0;
    format      ascii;
    class       surfaceScalarField;
    location    "9.5";
    object      phi;
}
// * * * * * * * * * * * * * * * * * * * * * * * * * * * * * * * * * * * * * //

dimensions      [0 3 -1 0 0 0 0];
oriented        oriented;


internalField   nonuniform List<scalar> 
92311
(
0.203977626202
4.87300521078e-05
-0.00120246755684
-0.203858454701
0.00103456635122
-1.86634073782e-05
0.204044250782
-0.000848204305574
0.00080029976687
0.203943407112
0.000183904143968
-0.00123292307808
-0.203889423527
0.00104380817743
-3.76675022313e-05
0.204040552442
-0.000801407211598
0.000723299643421
0.203765931574
9.26051578972e-05
5.60006218899e-05
-0.00109724381667
-0.203733835004
0.000980748185138
7.44567198239e-05
4.52817096228e-05
-2.92307202182e-05
-8.76273699422e-05
-0.000122200834042
0.204076531265
-0.00061988828453
0.000557696913318
-4.6998464431e-05
0.0510219254662
4.91399005573e-05
4.05691860095e-05
5.25723299572e-05
3.5498181511e-05
-0.000354686088035
-0.0510640439676
0.000311658490176
-0.051030738559
0.0510855507269
-1.92637016563e-05
-5.60059353864e-08
-4.60373046539e-06
-1.60239783969e-05
-0.00019335767926
0.000149256326823
-5.66292859742e-05
0.00665770261895
-4.20956629649e-05
-5.12763380155e-05
-4.10301874861e-05
-0.00236178124924
-0.00505399261578
-0.00385644564489
0.00480553489843
-0.007298223455
0.00803859628077
-0.000253268864298
0.00180434567701
5.84004408004e-05
5.78173116563e-05
6.81302892099e-05
6.21690434154e-05
-0.00253793917564
-0.064221021721
0.00129685360503
0.00301862654833
0.00480418648218
-0.0332389086484
0.11402646903
0.0201910400697
0.00190221091551
3.3537072458e-05
1.41988089886e-05
1.09758575156e-05
3.11944884914e-05
-0.000267923989012
0.000225240047676
-7.00814507767e-05
0.0118400126168
9.56221635838e-06
1.03647250228e-06
-0.0118371042615
0.0118298361528
-3.70383936771e-07
-1.06899592838e-05
-0.0118385101185
6.72735706447e-05
-4.74768273538e-05
6.65965541109e-05
-2.36614341829e-05
0.0511405054003
-1.91744539104e-05
-2.24085258357e-05
-2.18735426037e-05
-0.000122060494568
-4.42617968594e-05
0.0510558880468
-4.91732485239e-05
-3.50353568744e-05
-3.41955232414e-05
-0.0509916518419
4.28028364583e-05
-4.61232822699e-05
-2.72889000549e-06
0.0118601339578
7.63892131336e-05
-5.78274221422e-05
-8.71451950893e-06
0.0127725296176
-5.26479523035e-06
-1.56316616645e-05
-0.0127665779494
0.0127604537103
-1.85161542095e-05
-4.27090689693e-05
-0.012752154018
-1.32474932562e-05
0.204301590937
-0.00204747454811
0.00179843506196
-0.204039303886
0.204100342211
-9.83644433911e-06
-0.000346142268735
0.000299747578222
-2.41759715959e-05
0.204194424606
-0.000209768761221
0.000139796798883
0.000202012964032
0.204358010733
-0.00213083853427
0.0018466689879
-0.204288963217
0.204191575618
-3.66324384044e-05
-0.000464002278664
0.000339625420061
1.54568627091e-05
0.204298363417
-0.000250506881452
0.000104006909746
0.000201354891778
0.000219374520479
0.000201215330477
-0.0020757129349
0.204302945568
0.00176119558819
-0.204610160932
0.000201926284424
-5.5105421501e-05
-3.90366233829e-05
-0.0001159591504
-0.000100639621224
0.204436346913
-0.00027952048142
0.000193637142962
0.0512523709854
8.29572119096e-05
7.94046088167e-05
8.12713497718e-05
8.13946067403e-05
-0.000554101266932
-0.0513508398359
0.000528902691196
0.0511640466191
1.68585363829e-05
-9.48312671107e-06
-2.96836803214e-06
-9.34595632268e-07
9.9496813156e-06
-9.20656910698e-05
0.00647341267974
-0.000196241820733
-0.0102467680495
3.16024269872e-05
5.2770085837e-05
1.11646904546e-05
3.37800463351e-05
-0.00345779097361
0.0132340446659
0.0183569100865
0.0148150458967
-0.059422650785
0.0135816438086
0.103350948321
-0.000172834822808
0.0156713432689
0.00237844369225
0.00304047719623
0.00289556482922
0.00378896855449
-0.0292400965415
0.0345322724548
-0.00439723735225
0.000439581453874
6.90447863602e-05
6.4167056791e-05
6.78965373602e-05
6.56337142013e-05
0.0512168478256
-0.000451468548177
7.47408324351e-05
7.14729354983e-05
6.89662124588e-05
6.51784254137e-05
0.0511437330962
0.000400150884889
-0.0511834432373
0.000171699490526
-0.000100671705954
0.0117876621565
2.35612159206e-05
-5.58713698672e-05
-0.0118263698738
9.44313499264e-05
-6.67604768823e-05
-0.0117467961227
3.11618639272e-05
-5.95406938512e-05
0.0117475311828
9.48146342769e-05
0.0127634678861
-0.000107720940249
0.000103435750002
-0.0127792415443
-3.60529598427e-05
8.79540556078e-06
2.10367404916e-05
1.81535115228e-05
1.34636958421e-05
0.0511583868229
-5.87946184645e-05
0.0511311978565
-3.69085551148e-05
-4.37956171109e-05
-4.18368013888e-05
-2.96642312182e-05
-2.22835034138e-05
-3.71859258867e-05
-3.10984662101e-05
-2.10770788158e-05
-1.03631601583e-05
0.0511609052478
-6.7074405712e-05
-1.63412006132e-05
3.89058012004e-06
-1.30993241164e-06
0.0127768310448
9.86331691777e-06
-5.3616165552e-05
-0.011954844485
1.46567262077e-05
0.0119540057911
2.99406828513e-05
-2.77143728128e-05
-3.29364257823e-05
0.012767916775
-0.0127668625506
-4.18986893565e-05
0.0127750579298
4.39825010408e-05
-4.7459169441e-05
0.0039277051953
-2.40501433856e-05
6.56691997844e-06
-1.8056765251e-05
-0.00205267519471
0.00644209227866
-0.0016240754055
0.000767456580513
9.59516697123e-05
8.09934225791e-05
7.82907221775e-05
9.31904815647e-05
0.00205140652592
0.0105879699733
-0.00571603532852
-0.00724440481633
-0.019249367481
0.0162576527972
0.0123098534542
0.0103261322262
-0.0131525234622
-0.00164948532623
-0.000702332449067
5.7686014654e-05
5.37763000333e-05
6.2476822739e-05
-0.00177402791258
0.00798913868741
-0.00392921820784
0.00780116024255
0.0105577142375
7.70080552577e-05
0.0127372794088
-8.49385900623e-05
-0.0127502480445
-0.0127313216417
5.21640819184e-05
-7.44980831757e-05
0.0127256505293
6.85865857797e-05
2.69122509375e-05
-4.75205177606e-05
0.0118366544429
-1.8089403332e-05
-7.32177555823e-05
0.0118727836615
-0.0118670930996
2.59033732887e-05
-0.0127439765288
6.9050858401e-05
0.0118651494723
4.57329367022e-05
0.0127318057666
-8.0995594978e-05
0.0127243041749
3.86214026433e-05
-5.9730314853e-05
5.60249031348e-05
5.18369392028e-05
-0.0127320828958
0.0127416659656
-5.79392441369e-05
4.65863014501e-05
-3.71167499266e-05
-3.53820913315e-05
-6.41227357433e-06
-0.0118664096967
0.0118539276578
9.27355539718e-05
0.0127325484489
4.80985378326e-05
6.59389008722e-05
-6.59472630797e-05
-0.0127390105009
-2.74092094789e-05
-2.66880837413e-05
0.0127532235271
2.06193161558e-05
3.97425512016e-05
0.0127495715005
-5.03896144547e-05
8.5372518896e-05
1.87235597284e-05
0.0118796852876
-6.59492911395e-05
4.72771498113e-06
0.0118794300924
0.000100009442481
3.35109950775e-05
0.0118893792289
0.000110682283326
0.0127634457186
-3.77388614626e-05
-3.84119879876e-06
-0.012776760237
0.0127798870166
-2.3655910216e-05
7.7545997239e-05
-0.0119014567311
0.0119238228549
-4.5292308261e-05
-0.011905092294
0.000101552691581
0.0119233297562
-2.57327260388e-05
-1.9860152825e-05
9.93413590319e-06
8.35852393005e-05
2.18133491975e-05
-5.89855565693e-05
0.000104499267471
-3.31756779639e-05
-5.28561737486e-05
-0.0127336977371
0.0127425801913
-2.36495339109e-05
0.000138118608683
-0.0119239793362
0.0119406636156
-0.0119321206472
0.0119408880922
0.000157426273665
2.74185049724e-06
-4.14439953896e-05
-0.0127384491897
3.76746120976e-05
-0.000138642111719
-0.0119122982627
0.000159476219247
-0.0127223970963
-4.83965603934e-06
-0.0119064009953
-0.00660302192096
-0.000493108944184
-9.38139355445e-05
-8.61546112978e-05
-9.01409524171e-05
-0.000115456480024
0.00262017559739
0.00221464327458
0.00264683654651
-0.0210193275175
0.00238158795278
0.0280274504359
-0.00275806550393
-0.00714708823382
-0.00841027859726
-0.000167569293947
-0.000162795145371
-0.000163248579773
0.000467553304767
0.000890019506249
0.014865142764
-0.00712017348176
-0.000119736684282
-9.62588391273e-05
-0.00011429227912
-0.00237640205274
0.0022807008364
0.00323619589563
-0.0141325903045
0.0011645601805
0.0196806639849
-0.013759304812
0.00366757996953
0.000943991881017
-0.00127960385852
7.36019340706e-05
8.25619758892e-05
7.88197635489e-05
5.68475405193e-05
0.00856893402551
-0.00301793011313
-0.0177790882602
0.00488261898173
-0.0141450982087
0.000822400074636
0.000988896382705
-0.00320528297215
6.05246998536e-05
5.08550234455e-05
1.66494445417e-05
2.63790011883e-05
-0.00400638973594
0.00478779340645
-0.00110334882829
-0.0154247703764
0.00264359724519
-0.00012664386548
-8.27471420797e-06
8.0246156921e-06
1.37074288222e-05
-0.0110928479659
-0.00223679567146
-0.0127895380413
0.00119943131953
-0.000116646162577
-0.0128115509845
9.88980220125e-05
0.0127908313519
0.000121411480875
0.0128228321217
0.000127246992293
-0.000123204318079
-0.0128481568698
-0.000100173717997
2.38180598156e-05
0.0117582440075
-6.18851727993e-05
-0.000100787981086
0.0117887973303
-0.0118246307144
-2.6868043384e-06
0.0128004162161
-0.000113185393273
-0.0128358035882
0.00013207925958
0.0117573032999
-9.10643092813e-06
-0.000110691438022
0.0127750209933
7.98355728329e-05
0.000115756834237
-0.0127859300579
0.000102056742244
-9.6667504525e-05
0.0127779443672
-7.82244466674e-05
2.6131640863e-05
-5.61095953899e-05
-6.90950807835e-05
-0.0117494481554
3.51796341531e-06
0.0117499554569
-0.000106541028345
0.000107237703202
0.0127663393301
-4.16356648806e-07
0.0118015817487
1.86222582267e-05
-2.39307843137e-05
-0.0117952636697
-8.30283198047e-05
9.57323407941e-06
0.0117992614455
-1.03524572485e-05
-9.98599727926e-05
0.0127539321479
9.78847336179e-05
0.0127701831492
9.28738372058e-05
-0.0127860405547
-8.20224083354e-05
-0.0117712368555
0.0117761909847
0.01276071044
-0.0117755348984
1.74155316169e-05
0.01277966752
-1.62670403212e-05
6.21233956263e-05
0.0119351064709
-2.43212205298e-05
0.0119380990933
9.88977960167e-05
6.82854209637e-06
2.29557143412e-05
0.0127702065306
-2.41080836479e-05
-4.66355924806e-05
4.20748431815e-05
0.0119521352716
-1.17684577608e-06
0.0127683316443
-1.85802456079e-05
0.0119533101182
8.36042397526e-05
5.68186491697e-06
0.0127659749212
3.39762331231e-05
-2.67192694624e-05
-0.0127612476409
-1.02566695359e-06
0.0127549129274
-2.53401925554e-05
-5.31605767164e-05
2.79606502174e-05
1.41866345746e-05
-4.05762060452e-05
-0.0119558601908
6.3055077631e-05
0.01195612932
-2.23946938288e-05
-2.39299325143e-05
0.0127615849322
7.29605243071e-05
-0.0127583503929
-4.68611312358e-05
4.14784423452e-05
-4.69607565534e-05
-5.03606196464e-05
-3.47726178979e-05
0.000126155489655
0.0119540865983
0.0119583425004
0.000140979619531
-0.000110924243677
0.0119750250753
0.000126193351631
-1.31322786127e-05
0.012768876069
0.0119704789113
0.0119768661779
-9.39155923962e-05
0.000111129193047
3.07996835056e-05
-8.81889064169e-05
0.0119775659284
0.000107767011583
4.02409262335e-05
0.0127757833887
-4.1395395666e-05
0.0127711378871
-6.0890161294e-06
-8.72165309796e-06
-0.011969672053
0.0119698935064
0.0127683073115
-5.39804094814e-06
-4.05310557465e-05
2.65304374423e-06
-0.000102333151908
0.204592361263
-2.56059618858e-06
7.51589588425e-06
-4.39480840076e-05
1.563070646e-05
1.99032970199e-05
1.6492036766e-05
1.50484062438e-05
-2.95553185476e-05
0.0511593355161
1.52975512016e-06
-0.000346140393446
8.81713620315e-05
7.68922070848e-06
6.50319785125e-06
6.24698668247e-06
-0.000399749924953
-0.010456913015
0.00673637667373
0.00589508759187
0.00648434990417
0.0440119398805
0.00148314426982
0.00665372677352
0.000696319749312
4.10523674277e-05
5.83376364284e-05
5.20499163061e-05
4.51704879284e-05
-0.000138352125715
-0.000386517816584
0.0511174054722
6.29259300188e-05
-7.16122634175e-05
-7.37903025244e-07
0.0118097328537
0.0511695531596
8.0138256702e-06
-2.18071125829e-05
-2.18705975156e-06
-1.01865832886e-05
-6.72188464118e-05
0.0511441522369
1.33283844106e-05
1.23911736986e-05
1.69787702996e-05
-1.66305455028e-06
2.85281535608e-05
-4.17036424756e-05
-4.22094818664e-05
0.0119538266788
1.98971305127e-06
4.18748585677e-05
-3.43772380726e-05
2.37996922178e-05
-7.12925257644e-05
0.0119658155611
9.34178222031e-05
0.0119491350435
-6.86755650245e-06
-1.79826256416e-05
-3.31557535072e-05
-0.011948087685
5.69552379118e-05
0.05112034387
7.11159589425e-06
7.60933497065e-06
1.04861350089e-05
9.72495836186e-06
-4.61563643044e-06
1.54483841418e-05
-2.19286075034e-05
7.15965789045e-07
-8.37445851029e-07
-5.06307669219e-06
6.53629627945e-06
1.69694055611e-05
2.46462482781e-05
0.0510922728584
-1.48715173105e-05
-3.10532695352e-06
-1.65270448477e-05
-1.75355986004e-05
0.0119443824229
4.18321581367e-05
-8.71410973932e-06
-3.30025020539e-06
3.17748423973e-05
-0.0119369180748
0.0119288140474
-1.16926933829e-05
-7.7966148009e-05
-5.25127975629e-05
-6.66709477057e-05
0.00093612680585
0.00431490788592
-0.004731948571
-0.00543953765554
0.000580187828902
5.03610253061e-06
2.09753841187e-05
2.81001552502e-06
0.000443080224282
0.000451912183663
-0.00567421449584
1.13723137311e-05
9.42088233527e-06
8.18570907352e-06
0.00258342531873
-0.00283605477346
0.00111313761225
0.00105427683486
-0.00813301486775
-0.00830735849409
0.00049776130962
0.000857262744566
-0.00240149279077
0.000215066179913
-0.00630432785102
1.26441049464e-05
-5.85706805722e-07
1.81865735016e-05
0.00304981820678
0.000704577052094
-0.00315748444224
3.02544763957e-05
5.68520018771e-06
2.48042713182e-05
0.00196937068958
0.000430573632517
-0.00683432900194
-0.00193957477764
-0.0127502412517
5.06964683562e-05
8.07437628361e-05
-8.67318326278e-05
0.0127465960628
-8.66693754611e-05
0.0127424636334
-7.00994865822e-05
0.0117810004271
-1.34099081276e-05
-1.44863327488e-05
-5.02448610377e-05
0.0118038533765
-9.41760446043e-05
-2.61114984155e-05
0.0117766686996
0.0127371593226
-5.36407072895e-06
-0.0127615656028
3.67235360076e-05
-1.41659974897e-05
0.0127599825001
0.0127566287505
1.72640237753e-06
-2.58626373382e-05
-3.72616852255e-05
-9.90974011986e-06
5.5853365331e-05
0.0119528139076
-3.49109992041e-05
0.0119507785787
4.87023133169e-05
-2.63170681639e-05
0.0127566914105
-1.82960479048e-05
3.46454781228e-05
0.011949087365
-0.0127683104953
2.01479844066e-05
-2.18881283322e-05
0.0127638540477
2.89467980423e-05
0.0127767918509
-2.81905457639e-05
-8.42745303558e-06
0.0119606964255
-6.31085258479e-05
6.3066660251e-06
0.0119562826328
8.73013705093e-05
0.0119550561199
0.0127734736289
-2.26676529131e-05
0.012757746151
2.14887822529e-05
-1.27334997083e-05
1.06333590815e-05
3.74486223896e-06
-0.0127679314617
0.0127627324752
-4.17279922633e-06
-1.94337008176e-05
-0.0119530424995
0.0119518965836
-1.25579844622e-06
-4.84968799015e-05
-4.77023610059e-06
7.06260520813e-05
0.0127531902579
5.8602086747e-06
-1.67688825249e-05
-1.37523867605e-05
-0.0127487178352
4.34746719588e-06
3.90814067594e-06
0.012744259116
3.31420763066e-06
7.36172934664e-07
0.0127522874569
7.88205987912e-07
-1.05805723443e-05
0.0119448541216
1.26774983475e-05
-5.49213711903e-07
-1.72125394345e-05
0.0119391099269
2.23521845496e-05
5.20627385528e-06
0.0119383423489
2.84127239712e-05
0.01274397072
4.80062054242e-06
0.0127381531708
6.48829785108e-08
2.99570802616e-06
3.81079584385e-06
-9.44083523431e-07
-0.0127374776118
0.0127334478638
8.1489969137e-07
1.15982923282e-05
-0.0119357482033
5.80007806856e-05
0.0119281053556
1.29008428911e-05
-1.27020851156e-05
7.56401683901e-06
7.39246863515e-06
0.0127363792444
4.03742265884e-05
3.37742191999e-06
-0.000520514419227
-0.0493122175098
0.0492446590688
0.000593543348003
-2.06828632509e-05
-2.15590327516e-05
-1.60266731802e-05
-2.26436396945e-05
7.51496351777e-05
-0.00058405036743
0.0497599099537
-0.000111021500385
-8.40434558793e-05
-9.17711145599e-05
-0.000100476326396
0.000327707008674
-0.0496965445524
0.000580377247398
-0.00101185459886
-0.0500035578798
0.0503987873426
0.000932932932477
-0.000258544608596
-0.000184507940817
-0.000246389918998
-0.000200045483739
0.000573194837322
-0.000851719950193
-0.000232139474933
-0.000194594137437
-0.000234805508833
-0.00019591820538
0.000560258951503
0.0507257751523
0.000763201304914
-0.0503400300523
-4.54991359057e-05
-0.00265328642304
-0.013345414319
0.0124465845758
0.00354289407891
0.000175437279829
-4.75284767363e-05
-4.66248856055e-05
-4.44101849186e-05
8.01184660653e-05
-0.00762926671294
-0.00319809630743
0.00566879907841
0.0081734686716
0.000164230431931
0.000111076001405
0.000221897232867
-0.00362257319607
1.42922587933e-05
-0.00406193307499
-0.00341603893419
0.00758587867313
2.68835644353e-05
3.81489377802e-05
7.07825056789e-05
-0.00294852872646
0.00268956019803
0.000252116436985
-0.00673504357302
0.0100602842693
-0.0139618861406
0.00386732763201
0.0055659475456
0.000324392541957
0.000288319045879
0.000339580155888
0.000256432961159
0.000552006336222
0.000287982696241
0.000246555999751
0.000267504648259
-0.018103264552
-0.00421383223263
0.0047730599843
0.0159337828641
0.0860487353881
-0.0104384909907
0.0022098331028
0.00111775312594
0.00209317697196
0.000294577741085
-0.00267795683233
-0.041173122037
-0.0314799360522
-0.0143864647934
-0.0171202037915
-0.0154410779599
-0.0179617957347
0.0575425003171
0.0300427738447
0.093789781871
-0.0217536379008
0.00136106625358
-0.00289614722916
-0.000988298778241
-0.00825054204622
-0.0406582945704
-0.032159932057
-0.00876284151239
-0.0132240829867
-0.00960217182036
-0.0108581205248
0.167572470386
0.0802705557173
-0.00622151475446
-0.00810343658905
-0.00696554917401
-0.0332930418531
-0.0114525326793
-0.00738770239954
-0.00423650063819
-0.00638130631761
-0.00401548779068
-0.00596051556337
0.117293427516
-0.00931261987512
0.000197743204987
-1.35276972117e-05
-1.9926738212e-05
-1.35580685412e-05
-1.90281677547e-05
0.0490466808294
7.57037518029e-05
-2.241218275e-05
-0.049231631222
0.0490615860123
0.000355838863204
-1.10346804604e-05
-5.64420292575e-06
-1.21774741143e-05
-9.76833613695e-06
6.41986678782e-05
-0.0492452628667
3.85659321684e-05
3.34089671747e-05
-0.0121550284101
2.4450907972e-05
0.012077483207
-1.87068887619e-05
0.0120851016436
5.59627531607e-05
4.5838801778e-05
1.3761003897e-05
-4.40047351266e-05
-0.0121567471311
-9.59856383596e-06
-1.08928836716e-05
-1.51697412929e-05
-3.67091097465e-06
-0.000313859310355
0.0122657764282
0.0121849021579
0.0121719094093
0.0122338846387
3.77314510486e-05
5.74778411533e-05
4.32375659533e-05
1.7354860628e-05
-4.6611908922e-05
0.0120140279835
0.00044274662288
-1.04884020262e-05
-6.37203384767e-06
-1.12281607373e-05
-6.40004798253e-06
2.4757770908e-05
-0.0493893662251
0.0495110851951
-1.85009444848e-05
-2.8291473937e-05
-1.76339901544e-05
-2.79799334471e-05
5.12061466368e-05
-0.0495058124765
0.000478535169216
0.0120889177254
5.43187362491e-05
1.23787064757e-05
-0.0121589225814
5.93501631399e-05
0.0120954830563
4.23557779436e-05
3.57599173077e-05
-5.68170575342e-05
-0.0121638338622
4.65570830383e-05
0.000832600226298
-4.21185197023e-05
-4.12348496161e-05
-3.48841257784e-05
-5.36467107093e-05
0.0491632932019
-0.000196591678422
-0.000163658308489
-0.00019153990956
-0.000161936575283
2.40831916104e-05
3.34861627596e-05
3.73053780614e-05
3.94180512405e-05
0.0494897298408
-4.55451375648e-05
-5.2075810041e-05
-4.14744303625e-05
-5.93278867721e-05
0.000229091683784
0.0496661417487
0.000779267784864
-8.26299153864e-05
-0.000118070211687
-9.67430018322e-05
-9.61702413501e-05
0.000270349300539
1.83424598782e-05
0.0120210933075
6.12703292671e-05
0.0118429256035
1.25977614091e-05
4.00600513715e-05
-0.0119030913737
9.24926099141e-05
-8.43766906549e-05
4.17915575327e-05
2.42544567425e-05
5.03103385434e-05
-5.67142093785e-05
0.0120360734753
0.0118760409809
6.97197496295e-05
-9.37636001992e-05
0.000158398013203
-8.15720483441e-05
-0.011928588054
0.0500293103744
-0.000207392704093
-0.0001642509905
-0.000146347475997
-0.000232276866789
-0.00110719371525
0.000482395979611
0.00130747150751
-0.000208989645659
-0.000288088700456
-0.000225060460698
-0.000284138234784
0.0508988704991
0.000449907384917
-0.00162062139329
8.82987291782e-05
0.0118225125131
0.000108200717124
-9.63656013942e-05
-0.000474535699332
0.000384241112493
-0.011868802108
0.000235401999432
0.0119483980937
-0.000225323441398
0.000107885900658
-0.000237935235484
0.000212523958478
-0.000105634869358
0.0118987274272
0.000255923199117
-0.000421942879957
0.000379127597318
-0.000261660405042
-0.0119719266128
0.0120204915301
0.000734924591731
-0.0001500513078
-0.00015922988639
-0.000136072056803
-0.000182897211344
0.000428902184565
0.0502114732341
-0.000162267586549
-0.000200650159081
-0.000191946358072
-0.000168139621884
0.000491768467958
-0.0499500490494
0.000704716327697
7.32718324306e-05
0.0120378597359
3.92059918346e-05
-0.0120950649296
0.0119061111629
-0.000162423199985
0.000192705061953
-0.0119415822894
7.45021937818e-05
0.0119735748578
-0.000238013555792
0.000243559743344
-8.35621233405e-05
-0.0119825235134
8.68571089795e-05
0.00109700319352
-0.000253268475212
-0.000292464210393
-0.000243018915885
-0.000292536394854
0.0509500345097
0.000740895402847
0.0506058043458
-0.000246471864146
-0.000203135392666
-0.000197374898513
-0.000247770575572
0.000582003261526
-0.00023273766296
-0.000257446638256
-0.000233822812646
-0.000264233517421
0.0510290616043
0.000948265294861
0.000714010649133
0.00022851679486
0.0119307534363
0.000106997711208
-0.000382055479667
0.000359574369858
-0.0120016376536
0.000240878098412
0.0120392170088
0.000112377518015
-0.00027053492151
0.000245207765117
-0.000112521865934
0.0119990761634
0.000164131383341
-0.000282274367694
0.00029154157464
-0.000197104375257
-0.0120517514811
0.0120754338837
0.00024024142635
0.012011729189
0.000106126784396
-0.0119893110083
0.000282381293679
-0.0120617007525
0.0120873400773
-0.000279125141419
0.000135223957859
0.00177839205308
-3.57948437052e-05
-4.16489802659e-05
-4.12866910916e-05
0.0133509184587
-0.00127237745737
-0.0121233068284
-0.00157467975571
0.0133789180495
0.00238870817029
-4.28271678888e-05
-4.5200463245e-05
-4.16063460231e-05
-0.0123586657499
-0.00145365071581
-0.000479309331124
-4.12741483739e-05
-4.74007592978e-05
-4.79394302993e-05
-0.00204906461983
0.013433180803
0.00707474273615
-0.00273005382359
0.000624620192343
0.00199912175971
-0.0048052934577
0.000285892677599
0.00993172782394
-0.000770145404197
-0.00124019119559
0.00823719900963
-0.00430002810513
-0.00518069899725
0.0119724792284
-0.00168630342804
-0.00152169276082
0.00216300883389
0.00207398040049
-0.00514186344313
-0.00356671002208
0.00524697913205
-0.00750810146127
-0.00676292867764
-0.00593119163975
0.00736948625111
-0.00143593206106
-0.00736522841168
0.002237359886
0.000281685689353
-0.00789732386715
0.00330984548548
-5.05564853606e-05
-5.26932576204e-05
-5.49065080542e-05
-0.00176559632344
-0.0122900079497
0.0105468922477
-5.3566361603e-05
-4.52841826383e-05
-5.33232555325e-05
-0.0101380579497
-0.000705415701846
0.00380141641005
0.00445069607061
0.0036282706941
-2.39389300048e-05
2.47323599167e-06
-1.89843666799e-05
-0.0032505552232
0.00768999108983
0.00245018551508
-3.48201613556e-05
-1.94841178905e-05
-3.42874617839e-05
0.00784068074938
-0.000457280337266
0.00456552776864
4.35141220159e-05
3.72249864163e-05
1.67455114859e-05
0.00663945624278
-0.00447523179283
-0.00481676174263
-0.00273313887456
0.00846248327517
0.00663018403775
-0.00464056230116
-0.005034657708
0.00630780483287
-0.00285776008988
0.00838120957458
0.00726661924606
0.000362848541534
0.000490825630007
0.000410313014433
-0.0158478095463
-0.00475530738121
-0.0102759011926
0.00773109137905
0.000178011345038
0.000328469027787
0.000277616802999
0.00570453013927
0.00793080106596
0.000450105308639
0.00040431011606
0.00038967309347
-0.0171916528098
0.00760639974387
-0.00111437743659
0.0028277759654
0.0011127353485
0.00402256171534
-0.000711249608885
0.00125655624806
0.000416799841704
0.00301351029601
0.00754778519013
0.000107416916071
0.000218681668106
0.000159446189389
0.00559969741273
-0.013220272357
0.000220878300259
0.000193419203989
0.000171096334737
0.0105850938321
-0.000772958274225
0.00228138468579
-0.00227924317656
-0.00329387326022
-0.00184684784957
0.000735103017323
0.000165851765041
-0.000305618972886
-0.00308054024075
0.00345074657556
0.00532840072273
0.000363572501596
0.000351515767516
0.000356541931968
-0.0162601342859
-0.0145058215303
0.00455973308433
0.000268356608725
0.000294790920723
0.000313238829816
0.00542313759344
0.000313176083557
0.000294142846838
0.000315187931078
-0.016698852974
-0.000982543832341
0.00223873999993
-0.000836722464812
-0.000671797070594
0.00313079733855
0.00226354250087
-0.00237849942685
0.00345057050843
-0.00240708143077
0.0123371944841
-2.06191037032e-05
-2.93711855182e-05
4.74172029197e-05
-0.0123481432327
3.39278415399e-05
-0.0123331374806
0.0123221130697
-9.35566208535e-06
2.6170312241e-05
3.01092124687e-05
-1.8826836507e-05
-0.0122284585916
2.3494276712e-05
-0.0121549885681
3.46026765477e-05
0.0120796412156
5.52222049593e-05
0.0123259336611
3.58483873648e-05
-0.012226703504
-6.68070648315e-06
-0.0123446637413
0.0123455036275
6.40070949284e-05
-1.79819303806e-05
-0.0123551108461
-7.62952216259e-05
-0.0123575716321
0.0123502075719
9.1711150314e-05
2.29596954568e-05
-0.0121564894048
0.0120811958043
1.51839195481e-05
-4.45926061187e-05
5.42248095037e-05
-0.0122271099706
0.0123353240568
7.70195895236e-05
-0.0123650945451
-0.0122251649168
-0.012320287887
0.000104514049042
-1.3438497057e-05
-7.73795807427e-05
0.0122969852188
-8.86142466916e-05
0.0123400418692
0.000105306532885
2.15784037551e-05
0.012010586899
-3.85951805194e-05
7.16545865216e-06
-5.41149861316e-05
6.66029915807e-05
0.0119475042845
-6.71530318625e-05
0.000126436028386
0.0123217080989
-4.28774847776e-05
0.011938211247
-8.46181250303e-05
0.0123863358314
-1.44923103506e-05
9.00976139792e-05
-0.0123878178916
-0.0123731890091
0.000100911567054
0.0123700214796
1.56084399095e-05
5.66902150735e-05
-0.0122275733343
1.34884370498e-05
-0.0121595503913
6.07122727146e-05
0.012092140564
-0.0123764349757
0.000108350257074
0.0123860156327
5.57158104034e-05
-0.0122280043839
0.0124009662325
8.88443592292e-05
-1.59787211006e-05
-0.0124022480903
-0.000107122847429
-0.0124122505582
0.0124162970841
0.000110319737122
1.79721320128e-05
-0.0121633346226
0.0120953493489
3.03856153069e-05
-5.33186639167e-05
-0.0122309207061
4.46552662807e-05
0.0124023818927
-0.0124133107884
9.2231911288e-05
-0.0122302895292
-0.000135591237866
-0.0123777238678
-1.83027417151e-05
0.0123683539377
0.000142193440323
0.0123602893618
0.000111805145656
1.12778062379e-05
7.13823080232e-05
0.0119569957604
2.05773943252e-05
0.0120257033827
6.01082815827e-05
0.0123462384608
0.000118027676502
0.0119631088171
6.98323282809e-05
-0.000145681290887
0.012355032573
-3.69541186193e-05
0.000153584771375
-0.0123290190088
0.000179161453175
0.0123192767334
-0.000170654646772
2.30244232218e-05
8.0699638531e-05
-7.35841534317e-05
6.71348696288e-05
-0.0119134785388
8.70027286131e-05
0.0118527192289
-0.000140481181077
0.000185863222769
0.0123611242046
7.42569006297e-05
-0.0123949709812
0.000136698579171
-3.68439248123e-05
0.012391832318
-0.000113428053339
0.0124109507194
0.000116916152565
2.97371640998e-05
0.0120345800633
6.48770643931e-05
-6.52103647151e-05
0.0119701342932
4.68260544996e-05
0.0124136528569
0.000138952553145
0.0119683667228
0.0123803272559
0.000148444142245
-6.6335473349e-05
-0.000177589872625
-0.0124096012663
0.0124416214791
0.000185662664556
0.000110999622273
-0.0119231168797
0.0118609243211
0.000100288254394
-6.89736809055e-05
4.7780132526e-05
0.0124024339178
0.000156343517935
-0.000248183901193
-0.0123779929704
-0.00023858437223
0.0124486251732
0.00026858232393
0.000147932616269
0.0123235496395
0.000202349213772
7.54244488834e-05
-0.000194082550286
0.000193861070786
0.000134032479202
0.0117829372392
-0.000124201778328
0.000123711965072
0.0118450535221
0.000102836086953
0.0123880360323
0.000122212182443
-0.000241055712643
0.000219398641309
8.98782221876e-05
0.0118216050568
0.000141719858579
-0.00029388129033
-0.00029774491217
0.012573419035
0.000317065002904
0.000150075283643
-0.0125188510306
0.000350047109763
0.012677821657
-0.000344316163303
0.000219760843122
0.000263394981596
0.00017266569471
-0.00015871485943
-0.0119076440065
0.000393309302094
0.000262380362679
0.0119796335418
-0.00028945697559
0.000129041905202
0.00019907342147
0.000369528602274
0.012711387059
0.000237264008385
-0.0124280181264
0.000260632645354
-0.00027628358552
0.0125053405446
-0.000215789830486
0.0124801160523
0.000225507783432
0.000167836862713
0.0118678252009
0.000314908037804
-0.000146275567441
0.011904847678
0.000153786646575
0.0125587393539
0.000265086397871
0.0118651813624
0.00030921441702
-0.000314094014871
0.0126192330176
-0.0126626265757
-0.000355978538275
0.000349602473331
0.0127605040918
-0.011943213868
0.000388142515101
0.012007670558
0.000327766157757
-0.000199108511813
0.000209103276696
0.000308532884599
0.012737994067
-0.000131909352985
-0.0124401534892
-0.000140275154466
0.0124594301573
0.000141838170137
0.0124251462288
0.000110615686958
-0.01242995781
9.73818302431e-05
4.51961494801e-05
0.0119692656347
0.000109212964733
0.0120359593493
-0.0120950441624
2.69905537788e-05
0.0124375524785
-0.0124406008265
0.000119720743702
0.0119728320552
3.88301874176e-05
-0.000151518029848
0.0124727251808
-0.000176569873928
0.000164641177577
-0.0124406537814
0.000180120581041
0.0124796372459
0.000134009429903
4.86638968485e-05
0.000234727172253
-0.011952814143
8.25240295124e-05
0.0119286163662
0.000188738848233
0.0125161126592
5.15705890486e-05
0.0125015861972
0.000165713096148
-0.000180637509306
-0.0124840992896
-0.00018738256625
-0.0125271074592
0.0125707000206
0.000186890354714
0.000233759627805
-0.0119696148934
0.011955869544
0.000195866261288
-5.86646592831e-05
-0.0119958596886
6.97127773793e-05