/*--------------------------------*- C++ -*----------------------------------*\
| =========                 |                                                 |
| \\      /  F ield         | OpenFOAM: The Open Source CFD Toolbox           |
|  \\    /   O peration     | Version:  v1906                                 |
|   \\  /    A nd           | Web:      www.OpenFOAM.com                      |
|    \\/     M anipulation  |                                                 |
\*---------------------------------------------------------------------------*/
FoamFile
{
    version     2.0;
    format      ascii;
    class       volScalarField;
    location    "4.95";
    object      p;
}
// * * * * * * * * * * * * * * * * * * * * * * * * * * * * * * * * * * * * * //

dimensions      [1 -1 -2 0 0 0 0];


internalField   nonuniform List<scalar> 
28582
(
17105.8329957
17103.9884575
12208.1593333
12206.4809289
7311.05017442
7309.51848647
3638.54951736
3638.9364174
9.61802590026
17.5223738375
-27.0882320512
3638.83712941
614.498148244
618.888763236
3638.26439532
3639.17150942
620.846807308
1804.38023251
1805.25953325
17106.7008295
17102.3101599
17100.6207778
12208.6008133
12204.5062655
12202.3281851
7310.52376437
7306.83202166
3636.60110948
3636.21555041
20.605268763
-27.0363085595
-27.0432105738
3636.07971046
3637.47663301
613.514903629
612.754666504
1800.10589331
3632.68181355
3636.89282275
3632.99574368
1803.01360885
626.801037712
1803.74369931
1798.7826402
11.4310602031
17.2927032443
-23.189625442
-23.1775967954
14.1660779865
-23.1948635247
1801.28398057
1802.64121673
615.624913745
615.355327763
1802.15307642
616.388204337
1801.8998778
1803.2269843
1803.24120929
617.099882979
619.363520626
1803.90571127
617.703736964
1802.48043123
1805.08061871
1803.90259285
622.749820205
621.266430935
1804.59556024
623.212382392
1804.34851755
1803.74771503
626.186414193
626.535087801
1805.05066564
624.719704362
625.185439442
1804.3329048
1806.15885746
627.255090597
628.000639288
1805.9323445
626.250489157
1806.64027133
625.842258209
8.36412331497
-23.233505595
8.64088429365
8.82775466355
-23.2439172934
-23.2248427459
20.737354257
-23.134696068
-23.1220215586
23.8579248898
-23.1284139343
23.2499359559
-23.1067303725
1799.42247195
1799.19069955
613.191123765
613.415104054
1798.6982663
1800.10734347
613.115872269
1798.85873313
1798.0322571
612.959567868
612.729939932
1798.26825529
1798.49867392
612.776834458
612.694782751
612.888182195
1799.93745312
1799.398381
612.66101912
1799.07031369
612.516316292
1802.50331711
627.097954979
627.457233829
1800.85391974
627.374439044
1800.54121462
627.691208682
1798.12593371
1795.11991324
627.160155436
626.963017148
1798.03608649
1795.06257527
627.321373443
1802.05732099
1804.65127375
628.151893878
629.128899543
629.178831219
1801.35631651
628.289229256
628.684455056
627.980830173
1795.0282445
1798.36288169
627.312112665
1795.01111989
627.85852444
7302.70704679
3628.7614874
25.9971564319
-27.2193413304
3637.32938299
613.557356714
3628.6940207
3625.37078447
626.12769809
626.772726979
623.290599274
3623.75416217
3624.01016464
624.078096526
630.34537586
9.53249584713
26.8731712872
28.8237060215
-23.0998773237
-23.1255633917
-23.1199145693
30.330472231
32.4654766206
1799.77143979
1800.14331466
613.014239217
614.739627626
1799.13438615
614.014964048
1800.67808269
1788.56238365
1792.02408672
625.386692426
626.253426586
1788.95397513
1791.83540295
625.41974745
1787.98700879
1791.14888492
626.414672944
625.391566442
1791.49861512
625.362859741
1787.3683359
1785.44141355
1783.83811655
623.691777631
623.991566272
1784.43236295
624.197238634
1784.76075683
1784.74301135
1784.1324297
624.347991732
626.051574462
1784.45747376
626.158521955
1784.57903268
1785.69749824
1787.09927184
630.359256912
628.471114769
1787.0128044
628.427566656
1785.70755
3661.91402581
3655.39625837
3647.91084443
3646.36986824
11.3686004455
14.4639086366
13.7989994091
16.4813398192
14.8841177626
-27.0659660893
-27.3316777646
-27.0498546179
-27.3286192196
-27.0675121847
-27.3509984195
3665.77597669
3664.72037197
630.268936024
630.185180837
3664.80884628
631.032824435
3662.71143211
3660.79656026
630.147528327
629.804248156
3659.79936892
3658.59246446
3655.27630403
630.959066287
629.31468742
629.573545361
626.401617931
3651.29206119
3646.9672757
628.125583275
625.073908004
624.808933126
622.934930829
3651.63641727
3649.70953168
628.965962157
625.127477377
622.929368905
3644.15619603
3646.32807025
3642.90537311
623.668808259
622.712275805
622.344535592
621.564183103
622.625725346
621.125250134
9.66631665982
9.78215346077
10.6495094231
-23.2761832951
-23.2883531411
-23.2781115169
-23.2930483218
-23.3205792193
-23.2805066779
-23.3230356361
-23.2867108385
9.70008813003
9.98095787889
13.3783483424
12.577355812
14.8967949432
-23.2592656488
-23.2726637024
-23.2440931141
-23.2648305108
14.4245424405
15.6292419923
15.3405465065
-23.3117547539
-23.2752791988
-23.2977501093
-23.2648009669
15.8072352617
15.6284876639
-23.2316561481
-23.2485146511
-23.2429480944
16.201435646
16.2906901753
16.2185465397
-23.2856306572
-23.2631872757
-23.2875353914
-23.2739451277
1829.66840221
1830.32261988
629.56287734
630.27344526
1830.09367723
629.564795531
1829.8231818
1829.38580592
1828.9604004
630.278481044
629.409279231
1829.65600573
1828.93546304
629.56289114
1829.09477006
1828.67328354
631.071979158
631.520739203
1829.61838358
1827.82169127
631.64442314
1827.54917887
1828.00839287
629.254023267
630.094142628
1828.28738893
1826.87308289
629.202232956
1826.86162411
1824.73434416
629.929975327
629.18492694
1825.97686722
1826.20636956
629.270822181
1824.16382736
1827.30217895
631.06345414
630.639493479
1826.12570544
1825.9675762
630.388140026
1821.89322542
1822.22503529
630.527075104
628.632794833
1824.40439307
1819.54529072
629.343436618
1821.91850187
1822.3842109
630.13718523
628.845494165
1824.30261504
1819.49895458
629.665093076
1819.25423263
1813.92820124
627.682028976
627.824853411
1816.74177803
1816.63781364
628.436441779
1815.39145329
1819.87990792
627.96090071
628.098357886
1817.81717984
1817.456693
626.760902981
1813.15676904
1811.73504682
627.330450262
624.532800361
1815.36854608
625.662108764
1810.06133261
1812.9906919
1811.94662215
627.045843628
624.741900144
1814.80401865
1810.71558749
625.612923168
1811.08184222
1807.0505938
623.616119193
624.268257429
1809.20920932
624.418173958
1808.32080836
1814.90240472
1820.37250338
627.780211319
628.473483275
1817.04531113
1818.59204557
626.781127451
1811.62273222
1811.48872217
626.472934941
624.079014579
1814.03660868
1809.57760495
624.69599795
1810.37881214
1808.58636647
623.240780455
623.940877678
1808.56173765
1810.40969563
623.833764502
1807.93136437
1809.88191562
623.800475867
623.574761211
1809.05138831
1808.58130686
622.990586867
1806.67467999
1805.93692487
623.634098139
622.442818698
1807.80930211
622.799372184
1804.97982414
1807.11980372
1807.53241684
622.908608366
622.215859588
1807.72374799
1806.88203544
622.464180431
1805.87203275
1804.30776571
621.907477847
621.959859737
1805.73694831
622.301983211
1804.24714315
1807.46105193
1807.94212147
622.142677298
622.60579628
1806.90906559
1808.69308493
622.037137972
1804.48121691
621.773798511
1805.78559621
17104.4112885
17102.9487343
17101.7559602
17099.1498438
17098.515299
17100.2014673
12206.6031491
12205.4088729
12203.9243092
12200.6833075
12200.1275351
12201.9330077
18319.7254188
18322.170981
17093.1515307
17097.6593967
17099.6792264
17100.4831412
17101.4624091
17098.6577822
18321.1978163
18323.3995961
17099.6828408
17100.3658571
17100.4046053
17100.0289502
17099.6063056
17099.0530655
17101.2028496
17099.5731537
17100.261845
17100.319484
17099.5300574
17098.8944077
17098.6243787
17099.1074044
17104.4101837
17102.4075061
17101.7223787
17101.2193472
17100.1170242
17099.1153782
17098.750711
17099.8384036
17100.3234684
17099.0173676
17098.5006047
17100.0057687
13419.107997
13421.7840409
12198.6462435
12200.1460839
12200.9401545
12200.6110669
12202.2526699
12197.3467657
13422.7446076
13424.4610449
12203.3262328
12203.669755
12201.8507558
12200.6813929
12200.9147708
12199.0051853
12202.1934841
12201.9787767
12203.1172462
12202.5570818
12200.809578
12199.9156525
12199.5514653
12199.8383794
12206.1076977
12204.811232
12204.3390543
12203.5316705
12201.741072
12200.2522843
12200.079672
12201.3023889
12201.9453282
12200.3250761
12199.9430317
12201.6932739
8518.28335573
8522.83222066
7303.15065167
7303.71852951
7301.37790949
7299.0520919
7302.04394899
7297.7140611
8522.4267864
8526.53894886
7303.27691454
7303.67635416
7300.96896009
7298.60242291
7300.45719029
7299.39241708
7303.06096168
7304.09021242
7305.87521311
7304.6165665
7300.67277024
7298.22260032
7299.36902152
7300.81130359
7310.27348114
7307.48773144
7306.9230347
7307.03590356
7305.19912037
7301.19783675
7298.9536684
7299.9173682
7302.19099146
7309.04977776
7308.10926692
7305.99591702
7302.18435153
7299.73583638
7299.8892998
7302.45049858
7299.87623413
7299.83276895
7302.50862612
3621.25017978
3627.53604838
3632.35519793
3634.06110991
3626.73443377
3620.62123874
3626.05178416
3633.45382202
3624.15574477
3623.14692711
3628.81881143
3633.0678595
3634.90036795
3626.42028281
3619.76520693
3624.68204563
3631.21016801
3640.0054774
3630.69428316
3626.84166399
3630.2779419
3634.92643572
3635.19353892
3626.09785636
3619.5368306
3624.13199857
3630.63945774
3634.93049218
3631.99179686
3633.14469245
3635.87882465
3634.86424209
3626.33059062
3621.05010777
3624.60282564
3630.00353054
3635.95325552
3636.8326131
3635.09488142
3627.80520179
3623.31270965
3625.22216402
3628.49266879
3624.115495
3625.18142264
3627.52915781
7.6099186752
7.71151040704
9.25592161637
14.6901108508
26.7464825727
32.5717018689
39.9738350023
43.2012296147
13.6293583216
11.9020014692
10.4462242786
9.42081412075
9.92933511878
16.3897984394
27.1031943807
32.609665385
40.9089769657
44.1651957535
15.2724379031
13.3892914555
13.0930538701
13.0924512918
14.0748885826
19.4059313702
27.4365389257
32.4760705002
40.1065000359
42.9676621123
12.5578185874
11.0845604159
11.0789711087
14.7667917327
21.3404666396
27.7413491388
32.0199476058
37.6471268259
40.6844389927
9.58241103084
15.2129859394
21.1400090494
26.2163281224
29.6619947149
34.3823841122
38.0427432778
29.7990465714
33.728650415
36.1828205957
-27.1253875503
-27.0699146416
-27.0048083886
-27.030706047
-27.0629273673
-27.1085305618
-27.517206023
-27.1347753375
-27.374466698
-27.77902976
-27.1287402611
-27.1289426747
-27.0869884543
-27.033769648
-27.0712412384
-27.1680801112
-27.6402244812
-27.1368326687
-27.3921838619
-27.8416687391
-27.2727321613
-27.1699485447
-27.1391402029
-27.1035866597
-27.1086545094
-27.0911704505
-27.631749679
-27.1292692785
-27.377417929
-27.6998208376
-27.070103318
-27.0419174827
-27.0293496346
-27.0737426827
-27.0763055891
-27.5956674382
-27.1294338541
-27.3578641594
-27.6544405473
-27.0572714544
-27.1854254725
-27.3165728089
-27.5999621543
-27.1492622191
-27.3587889133
-27.7848285145
-27.1338882125
-27.3150595874
-27.7926456054
18321.0941311
18319.742806
18321.5428712
15869.8331715
15871.3763172
15870.3873492
15871.6625853
18322.4877309
18322.9237436
18323.2400723
15872.6042747
15869.1973531
15872.6546365
15871.848193
18322.2867624
18323.2277885
18323.0724559
15871.890878
15873.1731805
15873.7608289
15874.1971916
18323.3278173
18323.779712
18324.389931
15874.0961012
15873.9938928
15875.2687597
15876.0239995
13420.5953101
13420.3645535
13421.3902269
10968.3140788
10970.2518603
10969.7254787
10971.4402116
13422.1732046
13422.1093246
13423.5953347
10971.8231233
10971.9266011
10972.8499752
10973.4114175
13423.7802518
13424.134103
13424.8839434
10972.501495
10974.118195
10974.3198732
10975.040698
13424.4682866
13425.9187887
13429.3052138
10975.3152642
10972.3045247
10975.7743063
10978.801287
8520.74756944
8519.95105303
8522.20512385
6069.40288397
6072.24243122
6071.05419587
6073.3380496
8523.59802963
8524.12692942
8525.44982807
6074.95606487
6076.48559477
6075.62221776
6078.39889667
8524.62265858
8524.39913364
8525.57453063
6072.84542132
6075.2403119
6074.5265432
6076.36262408
8524.13860699
8526.74576445
8529.06689599
6077.51876352
6078.18898026
6078.09679051
6080.80582372
3618.50188204
3620.41456954
604.561626036
605.980713087
3624.56618316
3622.46987156
3625.29546798
604.382818736
606.799352598
606.515829365
608.006528754
3630.0189798
3628.2211258
3630.54460577
607.632730641
610.923997868
608.621548213
611.209789431
3633.93279924
3632.30816242
3633.57001963
612.168351052
618.30054201
612.530346654
619.418007039
3631.45354781
3633.94682274
3631.172374
621.810002244
630.344167442
623.200127958
629.808180987
3622.31232023
3626.42101984
3621.81054994
628.506203716
618.905560582
627.715768393
618.917090423
3622.02092123
3620.05449986
3621.53060918
618.491480177
632.569737961
618.69310076
633.067621831
3629.9061182
3625.35740669
3629.20356391
636.974126145
645.943885582
637.658834287
646.793050993
3629.39285777
3632.47769325
3629.44833284
648.814948067
621.852746917
649.449116288
623.274426263
3641.19621337
3633.9670518
621.895370417
611.146035383
621.754404701
614.811369264
3621.8583675
3627.95637305
3624.73397622
608.876990604
606.81131726
612.92861482
610.144466892
3625.83311921
3624.63257144
3626.52478167
607.402940854
609.136120966
610.672742684
612.217944607
3631.41339692
3629.48405847
3632.48842809
609.54236139
612.085303128
612.869956666
616.102251916
3634.48579769
3634.92861349
3636.10807562
613.407678492
620.397368035
617.36601741
623.895373151
3631.86817857
3635.51824817
3632.04733534
624.119808938
629.415634083
627.021103947
629.225418864
3621.65890957
3626.32084341
3621.43856914
627.19253308
619.148727119
626.593568386
619.138855011
3620.93119047
3619.45410794
3620.72000412
618.996029814
633.263540215
619.107469607
633.04944734
3628.27658752
3624.30207152
3627.61625974
637.647364632
646.702760994
637.215608474
646.01121549
3629.80415359
3630.74501
3630.61209154
649.199870312
623.433116958
648.237088526
623.210231985
3635.1797808
3639.63655456
3636.08671622
621.70447896
615.449032339
620.892846205
615.925059081
3627.67311032
3632.81677769
3630.40547408
613.719714422
611.208666103
614.803848722
612.33255171
3628.0310432
3629.42916033
3629.98025521
611.50564253
612.800903571
612.407900379
613.410208158
3632.75610788
3631.49253938
3633.53737046
613.787113634
616.794523996
614.231707893
617.756099912
3636.10492643
3635.35258142
3636.23551328
618.124726953
624.544229262
619.435262603
626.4935264
3631.55755418
3634.99837751
3631.39133383
627.592013293
629.531463817
629.158757149
628.577068357
3621.2490569
3626.14971311
3621.68633379
626.645864966
619.113571296
625.689019935
619.561907198
3620.74003799
3620.16044657
3621.16921169
619.170364804
632.883153176
620.879233672
632.284617964
3627.30194558
3624.27769094
3627.2711682
636.920537387
645.672870846
635.687574366
643.977144171
3631.38870253
3630.23102433
3631.86087092
647.908957535
622.78331611
646.229284969
621.429402587
620.400529782
615.964557586
3632.92556883
3635.56861051
614.987652354
612.541366041
613.756412674
3632.21720735
3634.57192586
3634.38979341
612.547594962
613.219971888
613.358752394
612.718611255
3634.54832157
3634.73411671
3635.54654366
613.925395084
617.536079517
613.164378306
617.646980164
3636.41061198
3636.35658274
3636.5737603
619.400106477
626.803076114
619.77453281
626.660320115
3631.16115732
3634.86408995
3631.26407137
629.305250293
627.929752951
628.238212659
626.653304278
3622.41495006
3626.97752571
3623.54515681
625.362350478
620.171437415
625.040327248
622.132715433
3622.06777501
3622.15134487
3622.96696668
621.743360918
631.976308649
623.400629446
630.918577648
3627.22728835
3625.00108476
3627.11710295
635.084271729
643.05157016
633.47029813
640.13658193
3632.09951537
3629.23653213
3631.75750071
645.482980357
620.704787472
642.277937537
617.554984523
3636.3576407
3637.58746192
612.949684059
617.472550904
618.222097498
3636.82662039
3637.82620427
3637.46655936
619.951828114
626.692664552
620.440481422
626.23695186
3631.68960261
3635.61448858
3632.27725618
628.044954461
626.475468768
627.199810528
626.651356891
3624.69569595
3628.5553842
3625.49130478
625.163935571
622.797663103
625.871942178
624.108699237
3623.75476542
3624.01288139
3624.16658301
623.727750574
630.421407051
624.25871983
629.96335127
3626.84352988
3625.27917065
3626.53408802
632.808993337
639.055676222
631.843466045
636.714036825
3631.14072243
3627.59632489
3630.50714786
640.956522179
616.558132882
637.834727961
614.832102714
3625.61991937
624.108558191
3624.15498155
624.297265678
630.1083771
3626.39329438
631.868107633
636.28235503
3630.42200196
637.251685288
613.969320546
-23.2522117737
-23.2556815933
-23.2547968254
-23.2521133621
9.58378462093
10.1047173403
-23.2620580867
-23.2730369357
-23.2604439271
-23.2634953846
7.17013027348
8.80654477702
7.69896952535
-23.2421578647
-23.2119836557
-23.25648001
-23.2373801003
8.45661353519
7.68771463031
8.14808251922
-23.2147369138
-23.217595436
-23.2369667346
-23.2369921017
11.0378955771
9.09453233869
11.2184375454
-23.2137501312
-23.2113484939
-23.23326558
-23.2290868409
20.8645076337
15.1401267968
21.298517532
-23.1660022203
-23.1181941394
-23.1823977912
-23.1340345696
30.4802082148
27.0088520548
30.562629869
-23.0696561027
-23.0404125153
-23.1046151847
-23.0833955678
37.099277576
32.6726979297
37.4510468719
-22.9402900599
-23.0073128789
-22.9504541207
-23.0033055317
42.1689375837
40.6906726988
43.0211855128
-23.0273197041
-23.0354931239
-23.0236186156
-23.0315677337
43.8376630645
43.9543835832
44.3873014865
-23.0842422851
-23.0517209003
-23.086464298
-23.0749516591
12.7801785676
14.4637788452
13.5848610524
-23.250961561
-23.2567835211
-23.2435571799
-23.2475167648
11.0283543906
12.7406222868
12.128326698
-23.2410948646
-23.241166587
-23.2284392932
-23.2244705407
9.91471746314
12.2887121533
12.2704582056
-23.2430044399
-23.254718645
-23.2312157743
-23.2371896334
9.13819525016
11.8100644499
11.8750210231
-23.2610791027
-23.2460314252
-23.2462367059
-23.2611821611
12.0986877935
12.3445159077
14.2169407626
-23.2308102661
-23.2098711343
-23.2350403926
-23.1975070697
22.1058675626
18.1769659921
22.9123430795
-23.1767866465
-23.1284388044
-23.1699596321
-23.1219847938
30.4040941726
27.1962034426
30.2476215006
-23.1249216556
-23.113183913
-23.1381667198
-23.1381759431
37.540274088
32.5275196018
37.4571820835
-22.9721380211
-23.0150121613
-22.9960765145
-23.0291032208
43.3780939633
40.6814740124
43.1381796699
-23.0251191237
-23.0278407387
-23.0412549513
-23.0408293748
44.7837350577
43.7439034553
44.2774574234
-23.0882484848
-23.088082458
-23.0944791712
-23.0892265912
14.2603982386
15.3316884537
14.2712370882
-23.2514211378
-23.2462161201
-23.2573511064
-23.2379738415
13.0871791292
13.3601252607
12.771908956
-23.2173281655
-23.2163010096
-23.2098714111
-23.2074916366
12.9429224547
12.2908841682
12.1282330087
-23.2229817604
-23.2275065211
-23.2121177682
-23.2123628269
13.3180977995
12.4621673109
13.4223186212
-23.219682495
-23.223715802
-23.2077903867
-23.2028989582
15.8060825181
14.9376978319
17.0166965363
-23.2070608989
-23.179035015
-23.1901666249
-23.1770309896
23.5928288778
20.5854056613
24.3837777085
-23.1341728782
-23.0911293005
-23.1268667848
-23.0833623833
30.2372616066
27.8133957121
30.1233201056
-23.1295048695
-23.1335400519
-23.1333128649
-23.148205028
37.2012313827
32.4466970031
36.6617090735
-23.0207222052
-23.0495590465
-23.056200371
-23.0661530162
42.5360234291
39.0542331641
41.3122470509
-23.0594192958
-23.0586445224
-23.0793102992
-23.0740016353
43.2197179199
41.8843003286
42.1952085925
-23.0989524015
-23.0841174436
-23.1139000219
-23.0756387572
11.7619296106
10.4180764445
-23.1995634598
-23.2025541545
-23.2196560853
10.715670887
9.7941606892
9.4457459124
-23.2084325274
-23.2078480647
-23.2204192458
-23.210447993
12.4719310285
10.0224304956
11.9780871078
-23.1985374979
-23.1922226059
-23.1986535766
-23.1958810651
17.5631716643
14.8860164589
17.8767975763
-23.1809869653
-23.1658866058
-23.1797214829
-23.1598600802
24.6814337292
21.297757378
24.1910157852
-23.1208107131
-23.0772377809
-23.1234947797
-23.0807235588
29.6585055115
27.0060192063
28.7873457139
-23.1425798914
-23.1603261995
-23.1387072777
-23.1574424263
35.4476509696
30.8485146378
33.7626295972
-23.0927839974
-23.0868177349
-23.0908608967
-23.0730752463
39.7825007358
35.9540870977
37.9961976165
-23.094549809
-23.0857011594
-23.1002484415
-23.089796618
41.2945314861
39.2512801354
39.9716817587
-23.1252322531
-23.0758626333
-23.127972132
-23.0773645064
11.7815877822
11.5582508548
-23.2054986236
-23.2015198525
-23.2149059582
-23.2051546435
18.1760629075
14.4921936706
17.7892107024
-23.1952852433
-23.1866689632
-23.1982331527
-23.1880682397
23.5796546452
20.7610611523
23.1607739378
-23.1568274127
-23.1180312918
-23.1573326988
-23.1286900616
28.0477933205
25.7707922832
27.8128869284
-23.129208033
-23.1460493153
-23.1439147966
-23.1543499058
32.1668399222
29.3301401035
31.6859479965
-23.0876323486
-23.0879288659
-23.0838938237
-23.0954598321
36.5202826994
33.6336445347
35.7928594378
-23.10626614
-23.0926292827
-23.1121629962
-23.0946923665
38.9904350065
36.9972684049
37.9991322291
-23.1371770213
-23.0684881884
-23.1410076822
-23.0624251044
28.1339787427
-23.0985939626
32.1483304303
-23.0656548848
-23.0986447123
-23.0836759134
-23.105970567
35.3648229346
-23.1047641995
-23.0920988739
-23.1072328225
-23.0895027769
36.9554648159
-23.1403804482
-23.0539018023
-23.1419875897
-23.0616919919
1781.22162277
1782.22684809
604.704512938
604.765902393
1782.5359565
604.206484817
1781.0824942
1781.67133305
1783.78394058
605.232587134
605.968207915
1783.02078932
1782.75057542
604.701400895
1785.75686675
1783.70147469
605.001480663
604.894212345
1784.11088565
605.204870918
1785.52139539
1787.41442594
1788.80914214
605.923376928
606.836903688
1789.02423013
605.913492739
1787.2453751
1786.30302536
1785.32193316
605.816974698
606.945088557
1784.73855413
1786.91990421
606.081921077
1787.83728442
1789.74402479
607.296157239
607.34216719
1789.39126128
1788.36831276
606.433317474
1791.72416902
1790.1985537
608.684813473
607.633175636
1790.39560394
608.60827711
1791.57578711
1793.02747188
1794.35492995
609.785662319
610.762964393
1794.42964444
609.650116584
1792.91820306
1791.98193571
1791.05352246
608.036040642
609.399483899
1790.74486196
1792.38968307
608.877389479
1793.32329426
1795.21752014
610.830044266
610.20246385
1794.7280485
1793.79864475
609.728004165
1797.64144938
1795.91135704
613.706153758
612.02328989
1795.98505276
613.573004555
1797.56399925
1799.37731165
1801.11772896
615.734098478
618.315763128
1801.27712764
615.654288164
1799.31471431
1797.94486058
1796.77305996
612.101649212
614.209213946
1796.25813749
1798.48868403
613.712831623
1799.71523262
1802.07691424
618.667258028
616.525902976
1801.64208301
1800.28461315
615.910920444
1803.73370211
1802.71366545
625.713230919
621.987835041
1802.90075192
625.936213256
1803.58012649
1802.36711131
1798.32053411
629.468401631
630.538493661
1798.26684566
629.723118604
1802.32213224
1803.85694037
1803.71306708
622.497587193
626.757029338
1803.32637891
1803.92506176
626.279504003
1802.16438376
1797.2576815
630.28486382
629.650564299
1797.8925643
1801.78783879
629.678442633
1784.471342
1792.07013027
625.490396002
628.685453205
1791.864134
625.553148786
1784.83858376
1778.10085877
1774.89782111
621.284047445
618.884747484
1774.29331997
621.222133229
1778.53624438
1784.14635166
1790.81561274
628.296614442
624.765631221
1791.48209121
1783.62362878
625.282052943
1778.07296136
1774.3146555
618.819705177
620.970461864
1774.2625619
1777.87497693
621.139605346
1776.84192171
1775.02158562
622.198851783
618.499542486
1774.50443393
621.987464903
1777.0411782
1779.89744213
1784.29124457
627.530791722
632.754741874
1783.94478143
627.581981617
1780.30554848
1776.83537608
1774.4748386
618.522207042
622.269363983
1774.43848419
1776.80165244
622.109976867
1779.84914696
1783.51304983
632.937373619
627.8792231
1783.72864981
1779.74837927
627.716058533
1790.79059607
1787.85061931
640.385823718
637.145335408
1787.56968761
640.740700429
1791.00916738
1793.53812787
1795.28495393
643.432010019
646.402164491
1795.11172445
644.002100727
1793.63780391
1790.61945581
1787.12345778
637.495852898
641.22554733
1787.35577415
1790.33768612
641.099029964
1793.37981939
1794.25215901
646.730136012
644.359965164
1794.80347407
1792.95691614
644.38290677
1791.67517272
1794.70979151
651.622216595
649.149485574
1794.57751574
652.021378802
1791.94130549
1787.01356577
1788.72852423
654.534670385
622.359974524
655.113710122
1788.85339393
1787.12938918
1791.21980877
1793.54156531
649.390153514
651.738109858
1794.1554465
1790.72146189
651.822511679
1786.51224867
1789.09782614
622.846691078
654.235288599
1785.94970497
654.326524961
1789.02258653
1801.2573022
1806.96304144
618.846716959
622.316618456
1801.11883014
618.864284231
1806.11446376
1796.19039385
1789.78852526
614.853293227
612.959918559
1794.90625197
1791.5174095
615.614400182
1801.13139193
1804.38597439
621.824788656
619.74265515
1801.0593767
619.176123948
1805.07472215
1797.04751442
1794.28082431
614.215277757
617.188681688
1792.95181495
1797.46277279
616.787453084
1786.36512051
1786.34997864
607.607751037
610.566803458
1784.58277295
1788.21922873
608.731863363
1785.47390808
1784.54328269
606.897703071
607.960937689
1784.03957775
1785.48473518
607.977577279
1787.93411662
1791.5089989
611.679388506
611.365771348
1789.91436748
1789.19105448
609.963227387
1786.65613091
1787.62703184
609.084715132
610.224763171
1786.48084534
1787.91328657
609.087510497
1787.52131747
1785.76594069
607.962351419
608.431923424
1787.14962011
1786.28773571
608.904218183
1788.89525165
1790.01320325
608.618691506
610.197102322
1788.68727338
1790.30594501
609.499295201
1787.96986522
1787.86956349
609.704935691
611.099777358
1787.02526556
1788.5363592
610.164898545
1789.13765526
1790.77690656
611.379168214
611.602705364
1790.46859295
1789.53264818
610.782098193
1793.32860748
1791.36338886
610.365111471
610.722834676
1792.82580135
1791.73572576
611.479650169
1794.80036056
1795.81453377
611.080644063
613.28033311
1794.28934448
1796.3775806
612.257857514
1793.6367168
1792.26261332
611.941213899
613.729930558
1792.01991016
1793.92961853
612.796532912
1795.26431701
1797.26536491
614.974751292
614.848657401
1796.93043574
1795.56429793
613.871930603
1799.64792833
1797.29344813
615.095587642
614.551804188
1798.94849651
1797.90430021
616.271649326
1801.34724407
1802.54724154
617.436535543
621.483748111
1800.6831036
1803.07669391
618.590897516
1800.25930705
1799.01554613
616.14432619
619.021921129
1798.55651252
1800.67204065
617.864377476
1801.89612602
1803.82133873
622.873974054
621.253826033
1803.51659847
1802.26253769
620.122554556
1803.51657275
1803.88928544
627.29600195
624.982715934
1803.72896304
1804.11480609
627.680423683
1800.66320383
1796.50786192
629.523396059
628.973155697
1801.2157925
1795.80602994
629.427898125
1803.39141399
1804.47033166
626.094936477
629.217748904
1804.30020977
1803.4169989
628.41949473
1800.39811815
1795.20431594
628.984959473
630.150910488
1795.47331429
1800.20683175
629.653803329
1783.01408848
1790.24758259
624.443843143
626.690541609
1783.38609345
1789.62767806
624.019798349
1777.84054282
1774.59421272
621.053594188
619.204807237
1777.98847076
1774.73655798
620.915007485
1782.83732348
1789.00824755
626.559110428
623.71463246
1789.30537717
1782.60244477
623.864371631
1777.82220596
1774.9965223
619.169964241
620.749083739
1774.8559774
1777.76002531
620.826392092
1776.81597604
1774.71463897
622.571247688
619.112463015
1776.98740355
1774.82639401
622.791162381
1779.4643112
1783.41809383
628.167805902
633.255004233
1779.8721822
1783.19441766
628.215817953
1776.99827804
1775.13672096
619.084519743
622.894857864
1774.97752713
1777.01183731
622.874579431
1779.39680361
1783.07104691
633.189958466
628.205437472
1783.09872853
1779.43747774
628.250034655
1789.76643006
1786.9315173
641.147188653
637.562839061
1790.04016365
1786.67498946
641.059738667
1792.2714336
1793.81397036
644.301369402
646.577182067
1792.54601803
1793.52550643
644.255882736
1789.55997592
1786.44613222
637.378636491
640.619035785
1786.52286148
1789.43490317
640.817999706
1792.0033768
1793.03466931
646.229632051
643.750261865
1793.21927356
1791.82562533
644.008046339
1789.99433308
1793.08623505
651.409336641
648.919120571
1790.34881313
1792.76257402
651.108621297
1785.04180061
1789.16742257
654.025112889
623.596131341
1785.45402041
653.638594585
1789.35332036
1789.71326536
1792.30151625
648.422499909
650.301964207
1792.46910803
1789.68224222
650.527789269
1784.90355029
1790.02888469
623.516074783
652.793664511
1784.88133563
653.084611603
1789.7227263
1800.87981139
1803.65413728
619.924268192
621.364235966
1800.92574647
619.857056002
1803.01522619
1798.43708955
1795.16924545
617.548800465
615.82399209
1797.94631517
1795.61865245
618.237482878
1800.82473487
1802.66657817
621.006491605
619.239237506
1801.0412008
619.706579204
1802.63504325
1798.7149822
1797.25920816
616.005967874
617.225736305
1796.22693317
1799.05150638
618.171703795
1791.53837825
1792.61719811
612.244177587
613.407348552
1790.435804
1793.13576103
612.580055139
1790.43340664
1788.78476506
611.411212953
611.843865579
1789.20780382
1789.83250069
612.212622467
1792.61688604
1795.38461669
613.774730079
613.587457225
1794.05128316
1793.84519495
613.094680939
1791.61493341
1792.41745302
612.103575232
612.544698787
1791.05522549
1792.84057104
612.560292246
1790.32838019
1788.82342704
611.816681792
611.869340691
1789.33443049
1789.79640868
612.225854866
1791.11858392
1791.33766119
612.135735795
613.208661686
1790.17666547
1792.08922024
612.679228135
1791.44147532
1792.40738347
611.975416029
612.442223631
1790.98685735
1792.69105513
612.343512612
1792.16642422
1794.02531837
613.414437306
612.771228516
1793.018765
1793.24105095
612.900303376
1794.70293158
1792.75350983
614.700529259
614.113782874
1794.26278553
1793.32341856
615.138437608
1796.21046614
1797.43146491
615.634239431
617.317950368
1795.80682108
1797.69388546
616.17812086
1795.32947722
1795.00051664
614.190180061