/*--------------------------------*- C++ -*----------------------------------*\
| =========                 |                                                 |
| \\      /  F ield         | OpenFOAM: The Open Source CFD Toolbox           |
|  \\    /   O peration     | Version:  v1906                                 |
|   \\  /    A nd           | Web:      www.OpenFOAM.com                      |
|    \\/     M anipulation  |                                                 |
\*---------------------------------------------------------------------------*/
FoamFile
{
    version     2.0;
    format      ascii;
    class       surfaceScalarField;
    location    "4.95";
    object      phi;
}
// * * * * * * * * * * * * * * * * * * * * * * * * * * * * * * * * * * * * * //

dimensions      [0 3 -1 0 0 0 0];
oriented        oriented;


internalField   nonuniform List<scalar> 
92311
(
0.202323962731
-0.000124728586067
5.0094789056e-05
-0.20217905873
-7.02701546966e-05
-0.00020232176329
0.202329136801
0.000771583218689
-0.000574276274654
0.202268539944
-0.000209479082707
4.93343138101e-05
-0.202148346637
-8.45975942077e-05
-0.000415061080846
0.20230796775
0.000779511116273
-0.000605935746963
0.202046672863
-6.05512199958e-05
-6.55361276295e-05
7.54809515735e-05
-0.202053397865
-0.000111949785791
-1.6737516588e-05
-2.33368752349e-05
-0.000166116176441
-0.000247602159196
-0.000206800463615
0.202201909638
0.000834304889805
-0.000656178813872
-0.000127769173464
0.0505400289724
-1.61711399003e-05
-3.97582735184e-06
-1.56820410394e-05
-5.49963849087e-06
-2.84278419862e-05
-0.0505695626826
3.87371771111e-05
-0.0504927914766
0.0504350876247
-3.96293402419e-05
-2.85810897832e-05
-2.92393292903e-05
-3.79777490909e-05
0.000144915797102
-0.000117887095334
1.72828791078e-06
0.0260251580196
1.22138256453e-06
-6.95331719847e-06
-1.13613281987e-05
7.19357832384e-05
-0.0286861937245
0.00319089690749
-0.000586556993309
0.00876448779072
0.00451062008433
0.00696160091021
-0.0160141648363
7.71992829751e-05
9.09445232187e-05
5.38799786052e-05
6.86322151257e-05
-0.00451307350267
-0.00867356430445
-0.00751161387077
-0.00774650537432
-0.00658650866162
0.00114563101681
0.0132322405401
0.00482089308673
-0.00434620849607
-9.76806577487e-06
-7.95357460018e-06
-7.75891624802e-06
-1.07193114897e-05
6.24834008964e-05
-4.45833908052e-05
1.20066138034e-05
0.0124173591179
3.00304954878e-05
-2.65133833396e-05
-0.0124311456814
0.0123908992963
-1.03758877755e-05
3.41461197855e-06
-0.0124006143877
1.21364986939e-05
4.58597123339e-06
-0.000194219469945
-8.8310566944e-05
0.0504757216042
-8.52576873486e-05
-6.54817380353e-05
-6.38002040135e-05
0.000208822993152
-8.60219333583e-05
0.0504006547816
-7.98354569666e-05
-6.43662937743e-05
-5.80244786196e-05
-0.0503526046278
-0.000160796410945
-2.37974940624e-05
1.73255547508e-05
0.0123783832057
3.27900600183e-06
1.56486108658e-05
-6.32326975679e-05
0.0125824263703
6.37795815108e-05
-9.88909949455e-05
-0.0125723779008
0.0125738830409
-5.02695273846e-05
-0.000111130105877
-0.0125616205712
-0.000117997016979
0.202695960003
-0.000794288337424
0.000645299946188
-0.202428974738
0.202318006238
-0.000264637903007
0.00124058719947
-0.000964290375148
-0.000204597735704
0.202224329403
0.00145766494453
-0.00115886929292
-0.000179858082704
0.202706355065
-0.000805762600198
0.000666555032028
-0.202505171008
0.20240171425
-0.00065661065592
0.00126288421731
-0.00096417344996
-0.000489030504353
0.202343149518
0.00151006851557
-0.00116662725563
-0.000107210106553
-6.71524805365e-05
-4.5153016461e-05
-0.000693369509677
0.202615119952
0.000665079730317
-0.202468858742
-7.82510852905e-05
-0.000317549843581
-0.000388545222223
-0.000288449670654
-0.000364022808238
0.202590198947
0.00142831681514
-0.00111455061257
0.0507152331356
-4.74240105884e-05
-4.8898960972e-05
-4.58515939285e-05
-4.88077950132e-05
-0.000209580544773
-0.0506414892628
0.000219603066332
0.0505965488199
-0.0002579398786
-0.000100549614619
-9.89961227804e-05
-0.000124205567706
-0.000121097381746
0.000264523612671
0.0066747756422
0.00621412759638
0.00179915320841
0.000105166490819
0.000114807868567
0.000123224688174
0.000137902879223
-0.00640430961829
-0.00678789808182
-0.00555683082403
-0.0055518063076
0.000950964825468
0.00214043423834
-0.00450397454603
0.0048412348882
-0.00583939475414
-0.00165121256245
-0.00172940258263
7.98015977999e-05
0.000516484162863
0.0200425222729
-0.0038976464283
0.0321154549541
0.000122022270612
-3.32172936687e-05
-2.28226037868e-05
-2.8141330655e-05
-2.66273204456e-05
0.0507511367178
-0.000114241529355
-2.77618397178e-05
-1.76409795353e-05
-2.67355316771e-05
-2.03624621064e-05
0.0506513311402
0.000131086091209
-0.0506129592661
-3.73699745646e-05
6.78192959773e-05
0.01247557597
2.40558804349e-05
-3.77920078223e-05
-0.0124923656163
-3.47924614845e-05
3.35294453898e-05
-0.012451025815
-1.35517072707e-05
1.52966012823e-05
0.0124505083048
-4.29899546981e-05
0.0126656477603
-3.95099489323e-05
4.60303069149e-05
-0.0126569280834
-0.00032060377733
-0.000126141071229
-0.00013606689974
-0.000123862296608
-0.000139959067383
0.0507328816619
0.000321760027135
0.0505324714421
-9.96700162856e-05
-0.000127540838716
-9.61810763447e-05
-0.000125465796326
-0.000229273152318
-0.000128443057581
-0.000147970941061
-0.00012578037297
-0.000140107900245
0.0506866314151
-0.000296767478223
-7.5211136254e-05
7.3082673226e-05
-0.000114423537848
0.0125985499007
-0.000131509211764
0.000155125426686
-0.0122920699458
-1.96139832526e-05
0.0122704170018
1.76643238551e-05
-6.64701642358e-05
-0.000125674902911
0.0125912499047
-0.0126084808877
-0.000171494764084
0.0126426569031
8.6218926322e-05
-7.71908513271e-05
0.0219858833426
4.99916502539e-06
3.63695290273e-07
-5.17684465284e-06
-0.000504585305301
0.000249552799939
0.00428391329975
0.00705643016444
9.38460090847e-05
7.82398445813e-05
4.22091769802e-05
6.56011448488e-05
0.00963006591915
0.00529464051301
-0.0177501321909
-0.00351842917879
-0.000236205985691
-0.00253869001377
0.00584116179033
-0.00312834834248
-0.00167482391607
0.00050202839157
0.00625734121869
3.47200189038e-05
2.13635738e-05
3.80966218093e-05
-0.00243108198934
0.00202740208786
0.00160145174348
-0.00728452659464
0.00222435549876
1.74636150082e-05
0.0126439386813
-1.42190972056e-05
-0.0126514905765
-0.0126323268979
3.98100561849e-06
-2.91684895146e-06
0.0126238227728
3.45936043846e-06
2.76515834412e-05
4.18832254905e-07
0.0124108431387
-2.03658926226e-05
9.97562594465e-06
0.0124074755551
-0.012422981486
2.8528565288e-05
-0.0126370917574
1.64206649992e-05
0.012400325354
2.74890739595e-05
0.0126357351173
1.8265477243e-07
0.0126103342952
2.28860765189e-06
8.5445325094e-06
-7.16227472616e-06
-2.26236587946e-05
-0.012622077387
0.0126121599931
2.8010661842e-05
2.00894069849e-05
1.65632422698e-06
-6.6049685055e-06
-3.08952509054e-07
-0.0123904218327
0.0123793501399
2.38947638632e-05
0.0126005506592
-2.09133213107e-05
2.70741296743e-05
1.30761408722e-05
-0.0125833657446
-3.89198683314e-05
4.48534114819e-05
0.0125792425798
-4.14440271432e-05
-3.26136929036e-05
0.012596361609
3.71113792945e-05
-5.35999532449e-06
3.37932304675e-05
0.0123605378725
2.41369814692e-05
1.62830539168e-05
0.0123687412976
1.89065656112e-05
-2.83517961776e-05
0.0123498760415
1.25836642402e-05
0.0125908280087
4.62387221202e-05
-9.02356856837e-05
-0.0125831266832
0.0125908014029
6.12090592302e-05
-1.70899582944e-05
-0.0123477223481
0.0123253626111
2.63323311808e-05
-0.012341130887
-3.6122754269e-06
0.0123197593907
-6.1685911682e-05
5.53265315721e-05
-5.20734247629e-05
-1.55855183105e-05
5.52680403024e-05
2.70342465445e-05
1.76378996713e-08
5.46178623651e-05
-9.96227733803e-05
-0.0125460390733
0.0125581522834
-4.25927046548e-05
-3.30846833787e-07
-0.0123294261149
0.0123089592972
-0.0123221334826
0.0122980681805
2.31859052818e-06
-3.63213116099e-05
-7.37219058737e-05
-0.012567909052
5.47922753945e-05
-2.69283036712e-06
-0.0123332887086
1.26011785514e-06
-0.0125547413863
-3.0798357381e-05
-0.0123403355264
0.00474979172607
-0.00243650804681
5.24537643848e-05
2.80350485208e-05
4.49915569032e-05
4.99182055068e-05
0.0281839803736
-0.0311307088697
0.00045848553155
-0.00404077894874
0.00841175332567
0.00160680980516
-0.00800012238373
0.0279759417809
0.00343565839657
3.31530241005e-05
4.3129850326e-05
4.66083355311e-05
-0.00477489329895
0.00318372915792
-0.0299799361604
0.00363713189404
4.021508045e-05
4.62346734554e-05
4.36860829875e-05
0.0253488503017
-0.00360960836347
0.00568509624101
-0.00543533490011
-0.00686877096088
0.00449681475545
-0.0044551773253
0.00419839710288
0.00627966564279
0.00232835329758
0.000125870087956
0.000134422501332
0.000162614284677
0.000146891397577
0.00712721128107
-0.0052979642545
-0.00116707511173
0.0108704515993
-0.00295728726777
0.000472619251155
0.00444676052604
-0.0074020811827
0.000171836876846
0.000181586274155
0.000157584365155
0.000159171709592
-0.00328966543992
0.00790249933476
-0.00601324290616
-0.00197965455815
0.0113495941243
0.00414680562285
0.000131003751824
0.00014453604281
0.000144091740118
-0.00338635105886
-0.00691523236902
-0.00404628690927
-0.000281911097077
-3.47729197094e-05
-0.0126685794197
-6.47651531647e-05
0.0126786009886
4.20934949492e-05
0.0126779558856
4.53524352204e-05
-3.87508215724e-05
-0.0126655743008
6.27642799941e-05
8.21634243634e-06
0.012455420171
-1.75826928751e-05
6.95143393384e-05
0.0124642005576
-0.0124768908102
1.04563087217e-05
0.0126877292983
-2.74846664118e-05
-0.0126559182675
5.35500780462e-05
0.0124498366602
4.55364058993e-06
-2.49811049911e-05
0.0126878537555
-4.85034750084e-05
3.10581214215e-05
-0.0126983363969
1.48002397116e-05
-9.44373893365e-06
0.0127037657273
4.53684815448e-05
-1.62284967507e-06
8.09084867361e-07
3.55776570778e-05
-0.012441190353
-2.85785414001e-06
0.0124409717922
-1.8182034929e-05
2.04216941367e-05
0.0126914602353
2.51452258908e-06
0.0124411575744
-1.6614490441e-05
3.41651237643e-05
-0.0124493732012
2.04190247793e-05
-1.7986915246e-05
0.0124335622174
3.32934372267e-05
-2.74874020483e-05
0.0126669127615
2.9210264893e-05
0.0126776439557
-4.39945946743e-05
-0.0126684829828
2.89561005081e-05
-0.0124419023579
0.0124368645459
0.0126792950137
-0.0124498398125
-0.000108383525249
0.0126062499927
6.71556847709e-05
-2.32559389037e-05
0.0123186590978
2.67453162899e-05
0.0123140185829
-1.70354955928e-05
7.79973266347e-05
-0.000147355247237
0.0126251235507
-8.13854603231e-05
0.000140411150901
-2.25834018354e-05
0.0123020487736
2.19396566224e-05
0.0126321103413
7.16682312319e-05
0.0122979313768
-1.59485516981e-05
8.38396867642e-05
0.0126531314273
-0.000147778390896
-9.00822928337e-05
-0.0126584345306
-8.88943625605e-05
0.0126854443135
8.09319687629e-05
0.000141663994789
-2.34785913751e-05
2.29261831985e-05
0.000160794744484
-0.0122909100506
-1.64195218183e-05
0.0122714859646
7.53715046621e-05
-9.62277885202e-05
0.0126813052848
-1.99919313858e-05
-0.0125774947934
-0.000167423613779
7.53614971199e-05
-6.65172397271e-05
-0.000125202893456
-5.65300907572e-05
-1.60272775361e-05
0.0123081868293
0.0123030939595
-1.18657014925e-05
1.40753903003e-05
0.0122936198028
-9.57823037244e-06
-0.000159127317407
0.0126191909368
0.0122939295864
0.0122897504525
1.67430061172e-05
-1.14094056892e-05
0.000190112628276
1.33930927666e-05
0.0122747195376
-6.20253502739e-06
9.1128499142e-05
0.0126755391416
-8.17510152035e-05
0.0126493632891
-0.000159748870365
0.00017394712845
-0.0122900024779
0.012270587971
0.0126781280358
-0.000333424623641
-0.000297837722699
-0.000196002352463
0.00159908222297
0.202851636782
-0.000262173770457
-0.00126016521646
-0.000356711856455
-0.000113011398242
-0.000115134167426
-0.000110178103268
-0.000119183991911
0.000352526129856
0.0508611090882
0.000137631894082
0.00704712131419
0.00167409659548
0.000123642459818
0.000144043475201
0.000130845456706
-0.00664967601745
-0.00599354732021
0.00744116271357
0.00660714851663
0.0093869387497
0.0324319163454
0.0234594449911
0.00993441183467
0.0467922627407
2.9028520489e-06
-7.49786851205e-06
-1.20739738528e-05
7.21932949338e-06
4.11932188515e-05
-2.0323369526e-05
0.0506115397875
-8.43050072885e-06
2.78338466189e-06
-1.12712592167e-05
0.0124240034179
0.0508227281665
-0.000108342898167
-0.000124080341004
-0.000117077196891
-0.00011749370949
-0.000324084429571
0.0508234135135
-7.18540896296e-05
-4.67871202873e-05
-4.30972479453e-05
-7.80820519695e-05
0.000390241478245
-0.000347601090412
0.000140061688105
0.0122636896934
-1.2108803715e-05
1.63836181489e-05
-0.000180039067078
0.000174547890926
3.36774280727e-06
0.0122736709538
3.7730002844e-06
0.0122706408185
-4.52238293593e-05
3.42084786649e-05
-3.21342551055e-05
-0.0122659938081
3.88131492871e-05
0.0507927855836
2.32649884152e-05
-2.09489491938e-05
-1.82258326909e-05
2.1309622862e-05
-1.44215969612e-05
0.00039207403924
-0.000352705218688
3.62865252741e-05
4.62772467832e-05
4.51668871349e-05
3.38635927415e-05
-6.56702110481e-05
0.000416118689706
0.0506590196645
-0.000378502138117
1.57793031946e-05
1.4327365525e-05
-4.1591397227e-05
0.012234531074
4.73180815401e-05
8.22910549955e-05
-6.50617823818e-05
-5.97020308142e-05
-0.0121806192362
0.0121519769708
7.11929630817e-05
3.65545342091e-05
2.00412501505e-06
1.4195852559e-05
-0.00164045158407
0.0252418521263
0.00459503395829
-0.00671494026
0.00195557821573
0.00016032939808
0.000156256195762
0.000140203561136
0.00787938012117
-0.000184304663314
-0.00834207456764
5.23947330749e-05
9.73182593447e-05
9.97744811539e-05
-0.00722749151909
0.00874323492787
0.00369885145856
0.0043012458029
-0.00292994925261
-0.00171378636104
0.0119977396422
-0.002403989733
-0.000632720864031
0.0105512263206
-0.00896995327881
-1.1751756628e-05
-5.23015246405e-05
-5.22600804025e-05
-0.00842091083736
-0.00126275512
0.0104430275837
-7.08484369467e-05
-7.26447726032e-05
-7.42504787676e-05
-0.00904116553749
-0.00401686963304
-0.00667460216414
0.011061651629
-0.0126745768449
9.79655978169e-06
-1.21706464781e-06
4.47264844863e-06
0.0126644350302
-1.31658106048e-05
0.0126612403087
1.29186781854e-05
0.0124362490311
1.29309939904e-05
-8.19883834146e-07
-1.75818004477e-05
0.012424020891
-7.63859678347e-06
2.11963138679e-05
0.0124384389194
0.0126498175676
9.07819014931e-05
-0.0127148397955
-0.000127812395089
-9.71853037815e-05
0.0127359988122
0.0127176437725
-9.08583177489e-05
8.3560961086e-05
0.00012545666892
-9.82273572871e-06
1.55522065099e-05
0.0122560606292
0.000146528905009
0.012265135284
-8.28016816021e-06
8.59516634794e-05
0.0127377718487
-9.70621034046e-05
-2.22932929955e-06
0.0122605001308
-0.0127139495638
-0.000136885049939
-9.0455234554e-05
0.0127357755111
9.14918633283e-05
0.0127160507774
-8.14697463081e-05
0.000158491316704
0.012267399719
-4.78298411725e-06
0.00014888686359
0.01227270362
1.3471812861e-05
0.0122634211425
0.0127390581096
-8.19609323347e-05
0.0127489962773
-9.45908841367e-05
-8.56304841115e-05
9.51058375311e-05
8.6480052123e-05
-0.0127516676093
0.012731665036
-7.92504609455e-05
3.70096878697e-05
-0.0122600022892
0.012265505003
-2.22756092169e-05
-2.03667776832e-05
9.73662076057e-05
2.73446034859e-05
0.0127332016541
9.60817815248e-05
-1.18761580208e-05
-7.89401008944e-05
-0.0127205822482
3.99991405249e-05
-9.20419763702e-05
0.0126968743041
9.89954469952e-05
8.74213271671e-05
0.0127164581573
-7.91054236817e-05
1.62660815018e-05
0.012229249297
-3.34741528561e-05
-5.12924119211e-05
-3.49517534358e-05
0.0122107462612
5.72277687979e-05
9.77078998586e-05
0.0122060144177
-4.05270506519e-05
0.0126946125041
-8.42853045562e-05
0.0126714604494
5.3770035018e-05
-9.44208002642e-05
0.000102134783826
9.87231963357e-05
-0.0126690734134
0.0126442907044
-9.27451887998e-05
-6.04766729444e-05
-0.0121728979082
-4.34710706822e-05
0.0121461939619
-5.342704032e-05
-5.29135111309e-05
6.36316632076e-05
0.000107316741065
0.0126474821497
-4.08452250268e-05
-8.79974580772e-05
-0.000486627239418
-0.0491393324933
0.0490809505685
0.000572286837251
-3.28286242816e-05
1.06287604675e-05
-1.4578844177e-05
-1.56844736352e-05
2.56759299127e-05
-0.000633095196764
0.0497120071204
-0.000105415706573
-7.96609304582e-05
-9.77992733467e-05
-8.8136415329e-05
0.000227102183982
-0.0495658176812
0.00063080103015
-0.00106848828263
-0.0498788737961
0.0501137263172
0.000888404367619
-2.62490056538e-05
-5.12164058228e-05
-3.37034971819e-05
-5.99555987388e-05
0.000116358645456
-0.000740305129905
-3.41004705503e-05
-4.78363989198e-05
-3.51702600834e-05
-4.48563196748e-05
0.00014325866406
0.0501958141946
0.000627243643712
-0.0500640462452
2.18108783184e-05
-0.00591483640566
-0.0361080369182
0.0323714079555
0.00816703102235
0.00124907118533
5.45236121562e-05
5.40300162276e-05
9.21436615698e-05
4.09073328936e-05
-0.0294060950291
0.0283371414279
0.00397282541285
5.34845062528e-06
4.13717407395e-05
7.63994955472e-05
4.36868044364e-05
-0.00311246460009
0.000147204468744
-0.00723795265309
0.0234415531845
0.00373353529262
0.000150858857019
0.000170712711249
0.000179763396257
-0.0253043423449
0.00472000580898
2.18432647899e-05
-0.00415657002768
-0.023223117961
0.0237823132179
0.00432243476135
-0.000808425860897
2.01869769923e-05
3.83043487264e-05
3.02144001646e-06
2.24494527727e-05
-0.00395976788803
1.82902729289e-05
6.31572068925e-05
4.42467190631e-05
0.0250643016981
0.00234678659141
0.00041654722379
-0.0240159339211
0.0833962914079
-0.0183161224904
0.00971622819461
0.00338506239391
0.00735729650304
0.00266398520738
0.00148549483011
-0.0362328503459
-0.0188761404664
-0.0083062375787
-0.00848877345562
-0.00805966498173
-0.00852631266378
0.00027327925599
-0.00385860424572
0.0778894263451
-0.00578468404659
0.00711480109163
0.00544790672644
0.00326073938567
0.00428031480349
-0.0279782551045
-0.0085333916077
-0.00472549515621
-0.00464544611983
-0.00453277533144
-0.00355457795507
0.00843356773433
0.0968347872007
0.000625925289123
0.00244802198116
0.00229558857051
-0.0380283597179
0.00205196152947
-0.000159499943737
-0.00444188207012
-0.00278095479167
-0.00495545995726
-0.00362062566183
0.0383315067375
-0.012109146123
0.000180443324651
5.05265837714e-05
4.79786383406e-05
5.15269261676e-05
4.31535743324e-05
0.0488081011926
-1.84791592242e-05
-7.8559903317e-05
-0.0490846353484
0.0488844226377
0.000279734575727
5.30898372273e-05
4.60952721703e-05
5.08744126005e-05
4.74551146743e-05
-3.83971839569e-05
-0.0491427238907
3.41417275479e-05
-6.46147991794e-05
-0.012223058008
-1.00378455549e-06
0.0122195994032
3.48390288074e-05
0.0122186875141
8.97874362593e-05
4.11293967973e-05
-5.57532875172e-05
-6.66677785365e-05
-0.0122277670756
5.23975513615e-05
5.18316262177e-05
5.77223575095e-05
3.56662466546e-05
-0.0003009944499
0.0122111921378
0.0121754317288
0.0120773725798
0.0121479033144
-0.000110527884269
9.29278413504e-05
1.26851455104e-05
-4.25048563003e-05
-7.00420621375e-05
0.0122259433122
0.000340633107375
1.57717435106e-05
2.55903561078e-05
2.93971816342e-05
1.0681358942e-06
-1.37587540498e-06
-0.0492706785783
0.0493410092751
-1.09286558832e-05
-4.95131733041e-05
-3.1552830683e-05
-2.67525651403e-05
5.60765482674e-05
-0.0493850590717
0.00044730684976
0.0122213185625
2.73221185678e-05
-3.03615827139e-05
-0.0122293889348
0.000101012165628
0.0122353316895
-7.21575479903e-05
7.93135636594e-05
-9.87739410337e-05
-0.012232275766
8.89817034283e-05
0.000888504798135
-3.67932715558e-05
-1.14262025464e-05
-2.1318602654e-05
-2.54249994154e-05
0.0491041021684
-0.000196773362419
-0.000161582747727
-0.00019968637329
-0.000166050618355
-3.45953619161e-05
-2.02235497705e-05
-2.3029070976e-05
-1.45998494073e-05
0.0493910570814
-5.94058514904e-05
-5.91010972746e-05
-4.22264686449e-05
-7.57849088942e-05
0.000126123144316
0.0496196569362
0.000838410905072
-5.98746441588e-05
-5.40472947259e-05
-4.78399824719e-05
-7.30475779508e-05
5.67346787691e-05
-1.43845447047e-05
0.0122408691661
0.000108930810363
0.0123078498014
-8.35232314642e-05
4.34091020823e-05
-0.012279463861
0.000149580254248
-0.000137789383923
9.90530461496e-05
-0.000123039161928
9.86553333954e-05
-0.000107327255146
0.0122678624208
0.0123471438473
0.000142132873032
-9.83722608326e-05
7.32214164538e-05
-0.000148331801309
-0.0123156186164
0.0498736464679
-1.86633072438e-05
-4.44487024123e-05
-3.72739334519e-05
-2.40880668194e-05
-0.00116249434477
-3.51682471742e-05
0.00125996083108
4.33101688448e-06
2.82762689433e-06
-5.47124127243e-06
2.47813022371e-06
0.0504202303993
-0.000194572632896
-0.00161590871726
3.24267107568e-05
0.0123134117395
0.000157004472915
-0.000153835032402
-5.95674638871e-05
1.82786835576e-05
-0.0123647230492
0.000203156749051
0.0124127585603
-0.000209510868981
0.000157236641304
-3.82869896304e-05
4.58642516767e-05
-0.000166740581073
0.012349368353
0.000179316960237
-2.1271754484e-05
1.25096861801e-05
-0.000191451997812
-0.0123896438824
0.0124108324095
0.000769860802423
-8.60114631823e-05
-6.05026829179e-05
-8.18107938524e-05
-6.67528016592e-05
0.000196883441639
0.0500157030005
-8.38110065187e-05
-6.07501699061e-05
-6.46822552483e-05
-8.0015847274e-05
0.000215791805929
-0.0498665390507
0.000694227986192
0.000113435481587
0.0122828611025
9.39004144426e-05
-0.0122441658317
0.0123636738574
-8.71064242544e-05
6.12284952418e-05
-0.0123320449152
0.000136607107498
0.01238436726
-6.95315735586e-05
5.06423575807e-05
-0.000124574944826
-0.0123586425576
0.00011781268394
0.000980400360975
-8.17594804448e-06
-1.7178701967e-06
-1.31962870017e-05
2.02937172886e-06
0.0503809580788
3.3383156815e-05
0.0501946300478
-1.79821132695e-05
-4.59809515114e-05
-5.24817688434e-05
-2.42893581104e-05
0.000109857805739
3.32498711367e-06
2.82666225297e-06
-1.36399384126e-05
7.54543923848e-06
0.0503543791664
0.000759933930061
6.05237615713e-05
3.68062689207e-05
0.0123610015798
0.000145529502468
1.58217544916e-06
-7.62772820079e-06
-0.0123910011909
0.000167906597491
0.0124089036098
0.000114972442121
-1.12927786461e-06
2.69307306649e-05
-0.000132927375218
0.0123768480168
0.000131988104616
8.17312658519e-06
-1.50410623155e-05
-0.000141910231853
-0.012397085468
0.0124140422451
3.13734699611e-05
0.012383052142
0.000105919156943
-0.0123827957431
9.85624340631e-06
-0.0124088714599
0.0124235005247
-1.58424114081e-05
0.000123531861669
0.000336300545718
-3.60758567435e-05
-4.315016158e-05
-4.65910376056e-05
0.038499777147
0.00480314217773
-0.037185559529
-0.00629451520789
0.039027713178
0.00596500619025
-4.05753093544e-05
-4.41470849856e-05
-4.36694922258e-05
-0.037584819371
-0.00690250207385
-0.00240470971002
-2.36353160448e-05
2.28613101668e-05
-8.16720348074e-07
-0.00128408770133
0.0368156249368
0.0178284874855
-0.00017303934753
0.00494206847653
-0.00133510346784
-0.0115415475258
-0.000254806119355
0.0226577078973
0.000253426976775
-0.0014499793525
0.0200770623873
-0.00165308124452
-0.0136610542267
0.0241297406653
-0.00138591728441
-0.000259902262158
0.015463540679
-0.000274080666658
0.000163135161209
-0.00100809385898
-0.000196815642555
0.00814753021783
3.14915399118e-05
-0.0010091497068
0.0164629802137
-0.00104357981424
0.000364920600509
-0.000829607468031
0.00885003201614
-0.000318699760328
0.00984937324526
-3.60365294066e-05
-6.66359721735e-07
-2.20340600251e-05
-0.00363785748575
-0.036269255183
0.0298632587629
3.9056796088e-05
3.04228899485e-05
1.304546991e-05
-0.0320358749268
0.00258866170023
0.00927645186902
0.00574466017096
0.00138446645921
9.75553439944e-05
9.2560036799e-05
0.000106240366982
-0.00454525531809
0.0268214691069
0.00351335009575
9.01823021623e-05
0.000137872298233
0.000108527130149
0.0014887808677
0.0254198877127
0.00520960417748
9.76514806873e-05
0.000133643534539
0.000117054031709
0.0206306667756
-0.00048520377612
-0.0134318140098
0.00104181338928
0.0249905235007
0.0201435933046
0.000881845726503
-0.0147231517014
0.024498316879
0.00246686841907
0.00184188134502
0.000141518218562
5.01232287382e-05
4.96324660023e-05
1.49015270533e-05
0.0280731350564
-0.00191253512989
0.0252722284183
-0.000240305130748
7.93988055226e-05
4.28340379558e-05
4.36033492306e-05
-0.000839573576343
0.00203778327932
3.93520552878e-05
3.91831451872e-05
7.92540593753e-06
0.0258084920668
0.0178850235293
0.00131899575549
0.00188438417446
0.0106424438488
0.0184667727712
0.00257675762934
0.00374949110892
0.0122210980398
0.00400532042211
0.000995466770612
0.000131199218299
8.05478339624e-05
0.000129967743859
0.00109956242817
0.022869876714
7.13329252233e-05
0.000112058459076
0.00012027697433
-0.0225759017293
0.00223859072002
0.0191995674894
-0.0142085605802
0.000279681853249
0.0011526635134
0.0239564791069
0.025777051598
-0.0195902771055
-0.00162988270307
0.00301210254597
-0.00208070263464
1.33899900854e-05
-9.40851080516e-06
-2.57725687616e-05
0.0249121317338
0.0239133892403
-0.000707841567329
3.13539662438e-05
9.84752965005e-07
-6.67969573587e-06
-0.0017401811123
-2.37014200388e-05
1.50637605811e-06
-4.16672006492e-05
0.0252036007862
0.00353317269759
0.0194590157458
0.00181549114677
0.00297894342736
0.0153726879167
0.0229165000226
-0.00100000094065
0.0215901272742
-0.0010518904422
0.0122577745899
7.82537068034e-05
-3.4582770838e-05
3.74149019814e-05
-0.0122883240057
4.02686553568e-05
-0.0122555674289
0.0122247953939
-2.61376511594e-05
-1.63591891072e-06
-6.65252501708e-05
3.56075698729e-05
-0.012226550471
-7.12310628253e-05
-0.0122253598336
3.25793626644e-05
0.0122197940223
4.90073342183e-05
0.0122293333261
3.17117930214e-05
-0.0122270019154
-2.74922371203e-05
-0.0122860289558
0.0122641983002
4.16742433206e-05
7.80317232795e-05
-0.0122933958926
-5.66519608195e-05
-0.0122767836444
0.0122588928027
6.47471157576e-05
-6.6455658727e-05
-0.012226144459
0.0122177304008
-6.80069816604e-05
-6.6051241927e-05
8.95374642257e-05
-0.0122273648431
0.0122409072903
4.65696888262e-05
-0.0123022611044
-0.0122260719807
-0.0122268450938
9.45852212894e-05
3.78054018622e-05
-7.27037612803e-05
0.0122195734552
-6.89919390821e-05
0.0122501028648
8.72116698217e-05
-5.67294084502e-05
0.0122158953507
-3.50692829306e-05
-1.72222442596e-05
-7.36951122331e-05
0.00010194147567
0.0122375200259
-5.39349718316e-05
0.000114727755486
0.012248354719
-3.80787763409e-05
0.0122172372475
-4.81822587139e-05
0.0123152789359
2.08620402134e-05
5.69673735795e-05
-0.0123291574511
-0.0122948573669
6.92160588404e-05
0.0122855882982
-4.63195346439e-05
9.98650450008e-05
-0.0122293621052
-2.99660999271e-06
-0.0122256114176
0.000104527550039
0.0122244626554
-0.0123135427748
7.34504987455e-05
0.0123088572078
9.87627044136e-05
-0.0122256195517
0.0123323486553
6.45672288396e-05
-5.48208582521e-06
-0.0123455089906
-8.34250318098e-05
-0.0123534169837
0.0123637226623
0.000103007738913
4.47713441405e-05
-0.0122334401731
0.0122337572259
3.99745129362e-05
-9.70090952591e-05
-0.0122273447444
8.25683637164e-05
0.0123355189035
-0.0123604518545
8.46038629272e-05
-0.0122243835858
-0.000120659027714
-0.0123090157269
-6.46830165638e-05
0.0123276474043
0.000134058687465
0.0122785345307
9.03225430566e-05
2.67400476847e-05
0.000117141769446
0.0122538564447
2.49628617229e-05
0.0122492426125
0.000113515959886
0.0122847768648
9.94167421756e-05
0.0122682595034
0.000125864281042
-0.000161314056168
0.0123554266026
-7.90803336088e-05
0.000175862607203
-0.0123059745404
0.000201206831361
0.012324598728
-0.000187815457555
5.82338258153e-05
0.000131687667541
-0.000118193518654
6.3828778768e-05
-0.0122901775759
0.000152532358634
0.0123174745859
-0.000145456343717
0.000219426585511
0.0123761088583
0.000136942961078
-0.0123471465863
0.000145408855601
-9.7489515795e-05
0.0123738291858
-0.000111398669141
0.0123842820063
0.000130434130641
6.59081502077e-05
0.012263016936
0.000120537093997
-0.000118438222362
0.0122917582109
0.000111834669427
0.0124146227748
0.000160151213477
0.0122812761658
0.0124023221564
0.000183829229675
-9.62038969178e-05
-0.000226363691664
-0.0124475278814
0.0124647415927
0.000228467724655
7.6207598353e-05
-0.0123050170164
0.0123313195403
0.00011688584523
-0.000134352441064
0.000127207103306
0.0124241675056
0.000194965004728
-0.000298227753237
-0.0123966487313
-1.85704042768e-05
0.012417318513
0.000307386028845
-1.14787378917e-05
0.0123416689671
0.000247662140807
5.44558301039e-06
-0.00023755021422
1.41100766713e-05
0.000178756839713
0.0123371401692
-0.00017544946928
5.5694284472e-05
0.0123326605433
0.000163712550642
0.0123673046601
-2.02215208756e-05
-0.000289826705696
0.000263976736221
1.8802656058e-05
0.0123563791853
0.000179275597649
-0.000341850973692
-6.89596315802e-06
0.0124707797319
0.000347475095812
-5.25152288207e-05
-0.0124389410777
0.000371584553247
0.0125297729473
-0.000370291158554
-7.3859116008e-05
1.5651761341e-05
0.000197841743138
-0.000191320834845
-0.0123699810529
1.84692409716e-05
0.000201659790386
0.0124045704783
-0.000333114068232
-6.49836991067e-05
0.000191840061482
0.000378973571069
0.0125410974614
-5.89319990332e-05
-0.0124434159682
0.000295697914642
-2.80722856891e-05
0.0124641508022
-0.000267854188957
0.0124747175936
0.000259488960497
6.04449689155e-05
0.0123482502771
3.06845023356e-05
-0.000174267471338
0.0123660668013
0.000169482406167
0.0124930107639
0.000283920673216
0.0123676416648
0.000324768744845
-9.0618223108e-06
0.0124997231932
-0.0125234542012
-0.000347245938161
0.000321852227064
0.012564261252
-0.0123790586311
2.15747040185e-05
0.0124074621968
1.79119525933e-05
-0.000178188892188
0.000175469680765
0.00030662742668
0.0125554605253
-0.000164177283176
-0.0124457184591
-0.000144034213196
0.0124790485848
0.000169488951321
0.0124180487716
0.000136780694639
-0.0123905561958
0.000133120128449
0.000104226374661
0.0123082777673
0.000132774249034
0.0122906146814
-0.0122540361956
9.50916721445e-05
0.0124497146915
-0.0124135932281
0.000149601659261
0.0123219649241
0.000108989433576
-0.000193730862291
0.012507521938
-0.000108164227878
0.000187646197158
-0.0124832136255
0.000216656318275
0.0124958568154
0.00011387086446
0.000120831612555
6.15761950725e-05
-0.0123448103252
0.000130310113234
0.0123699046654
0.000203604047615
0.0125156929527
0.000120244869342
0.0125224316933
0.000180459820081
-0.000100362643666
-0.0124985732694
-0.000188586369733
-0.0125287692811
0.012533413939
0.000173726334289
5.46050111083e-05
-0.0123554875542
0.0123776333701
9.62841096326e-05
-0.00012042378253
-0.012338478609
0.000115864826707