/*--------------------------------*- C++ -*----------------------------------*\
| =========                 |                                                 |
| \\      /  F ield         | OpenFOAM: The Open Source CFD Toolbox           |
|  \\    /   O peration     | Version:  v1906                                 |
|   \\  /    A nd           | Web:      www.OpenFOAM.com                      |
|    \\/     M anipulation  |                                                 |
\*---------------------------------------------------------------------------*/
FoamFile
{
    version     2.0;
    format      ascii;
    class       volScalarField;
    location    "7.75";
    object      alpha.water;
}
// * * * * * * * * * * * * * * * * * * * * * * * * * * * * * * * * * * * * * //

dimensions      [0 0 0 0 0 0 0];


internalField   nonuniform List<scalar> 
28582
(
0.999997889593
0.99999803297
0.999998266644
0.999998073068
1.00000133966
1.00000095708
0.999990663508
0.999994909665
0.0497844921524
0.0550242828577
5.79894768408e-05
0.999993219325
0.85806846397
0.859697805616
0.999999259007
1.00000055243
0.861621266806
0.998660130519
0.998656644668
0.99999688156
0.99999667505
0.999995598212
0.999998303479
0.999996858717
0.999994647065
1.00000109137
1.00000046193
0.999996005061
0.999999858753
0.0559537578356
4.14954952752e-05
-6.42978770416e-24
0.999993112632
0.999990434903
0.893992034927
0.871004147883
0.998721995583
0.999999797005
0.999999974779
0.999996849626
0.998775403298
0.870650381798
0.998768295522
0.998759069409
0.051424975412
0.0569397058043
0.000495129466955
0.000738433487092
0.0537037621526
0.00131750139018
0.998382477676
0.998341959572
0.855939925326
0.855192167231
0.998386492161
0.853638068385
0.998347814027
0.998314342338
0.99834776267
0.857385314409
0.857593458219
0.998334551937
0.854871769106
0.998323849897
0.998474486521
0.99840782949
0.86362238008
0.859735940446
0.99839502801
0.86186472001
0.998494959606
0.998701493955
0.868101128469
0.866630168496
0.998561602689
0.865595346684
0.864012093959
0.998594082102
0.99861861015
0.865888656122
0.865469527711
0.998540882985
0.863284416309
0.99852524418
0.863468884925
0.0476107761794
0.000953373763112
0.0446924614491
0.046100195018
0.000703169170801
0.000804301969481
0.0572463240962
0.000147358252465
0.000310479476641
0.057145489879
0.000193235817142
0.0558867219902
0.000338624498738
0.998932985753
0.999207028862
0.884593558235
0.891794475861
0.999023547523
0.999101332844
0.883137707713
0.998771572628
0.998718958088
0.877177296143
0.869403278685
0.998859063612
0.998597059672
0.876112030036
0.870135785759
0.863221057005
0.998522601159
0.998753217793
0.866889477726
0.99857043817
0.873674395422
0.998817642215
0.869564697468
0.868138217078
0.998865345915
0.87038196535
0.998899363677
0.869271592656
0.998870340286
0.998861042262
0.871148856937
0.869532195963
0.998900288576
0.998833331684
0.870208383591
0.998755270012
0.998707710234
0.867596819471
0.86750633201
0.869201756834
0.998810192499
0.868681021954
0.870516119512
0.871158446491
0.998736691441
0.998802467788
0.869062474945
0.998738593304
0.869772768348
1.00000049919
0.999997652049
0.0557912143993
-2.58475713341e-28
0.999989936825
0.860396018023
0.999994031135
0.999988254102
0.869011526016
0.869866802103
0.862577725078
0.999989145015
0.999995538132
0.860758985414
0.859729095224
0.0486589556091
0.0569972693717
0.0576236605631
0.000433408656286
0.000377431921111
0.000449542016679
0.0578622184425
0.0575033253528
0.998385676259
0.998381340514
0.863081493256
0.857884105905
0.998423587267
0.860570655691
0.998312932485
0.998651011738
0.998803360609
0.866692435119
0.868015698536
0.998716538708
0.99876052376
0.866153698368
0.998425604999
0.998656790954
0.867801587469
0.867500431912
0.998619638091
0.865805092262
0.998492939833
0.998213132832
0.998071811609
0.861905587145
0.865119300297
0.997954917483
0.863892065464
0.998301288383
0.997787617659
0.997913605302
0.860363565878
0.859372528814
0.997784532314
0.859450169057
0.997901364885
0.997842341898
0.998075864968
0.86066919932
0.859083639341
0.997990535583
0.859812995944
0.997945257425
0.999996198734
0.999998262024
0.999999289246
0.999998676454
0.0268153985195
0.0281719385182
0.024853963615
0.0259408157053
0.0262596830675
0
1.83822302648e-05
-2.2299892488e-27
3.55820962387e-06
-1.00413097907e-26
5.03740684114e-07
0.999999858574
0.999999549345
0.945187685405
0.944690498205
0.999999999947
0.944089625667
0.999999394997
1.00000029599
0.944321295377
0.946745027051
0.999995427148
0.999998266293
0.999997505561
0.943575625064
0.942337833341
0.946747939469
0.944708436488
0.99999765803
0.999999288891
0.941568742347
0.937977911961
0.943928047368
0.941866061253
0.999998202285
0.999999257699
0.947369573305
0.944691198717
0.944123829895
1.00000024683
0.999999315444
1.00000086519
0.943929827791
0.94266036103
0.943286720913
0.941559982174
0.942932212735
0.941239954763
0.0263562686281
0.0262306071071
0.0272941733284
8.05460853778e-05
5.63920433617e-05
6.85004052603e-05
5.30258886731e-05
9.28766144805e-05
0.000246828440531
9.62615654605e-05
0.000233517352858
0.0256745864767
0.0250608075543
0.027513734513
0.0254181126327
0.0261100661748
5.84599036354e-05
3.54715552868e-05
2.61172784067e-05
1.07273506167e-05
0.0279231423932
0.0266989979567
0.0267244794412
4.62071515103e-05
8.45198010452e-05
1.22074650516e-05
1.92491406916e-05
0.025500332142
0.0254645476504
1.68011541464e-05
7.36838358957e-06
8.1124628184e-06
0.0261084930082
0.0259032301468
0.0262906359222
6.82727755745e-06
7.91967929769e-06
7.23611022126e-06
8.13151940421e-06
0.999911100318
0.999877780653
0.94581073529
0.944266609033
0.999878239106
0.944937631714
0.99993095319
0.999909536493
0.999886170331
0.9443180186
0.945001978876
0.99986982432
0.999934812006
0.944927589357
0.999799570452
0.999815621445
0.943913941219
0.943401668707
0.999830927112
0.999793235489
0.943276992283
0.999925238869
0.999880736216
0.944713352671
0.944711489007
0.999924634992
0.999902037804
0.94536150226
0.999925173765
0.999923640401
0.945675462746
0.946859296765
0.999904526696
0.999922916019
0.945981478594
0.999769941406
0.999801758334
0.943030704023
0.944215007639
0.999728813041
0.99984604816
0.943929721322
0.999708690953
0.999726721267
0.94277930543
0.942898249984
0.999720016995
0.999699401365
0.943519144485
0.999827203942
0.999921527195
0.945519868082
0.946406145566
0.99986567307
0.999910655941
0.945265150197
0.999795005928
0.999820934214
0.943941234437
0.945642627931
0.999775984641
0.999870550199
0.944744033636
0.999719641295
0.999732311936
0.941002071858
0.942280082594
0.999736771556
0.999699582422
0.941935160733
0.999740991681
0.999774440446
0.939820192135
0.938771709745
0.999757020086
0.940777177046
0.99979054406
0.999763596033
0.999801927419
0.943079135446
0.943377980426
0.999764295389
0.999799083482
0.942563864926
0.99978378025
0.999808960175
0.940246819519
0.942948764586
0.999794926686
0.94188894386
0.999787437228
0.999888120014
0.999903787761
0.9465964408
0.947488527018
0.999898693076
0.99989179517
0.946517161955
0.999888550339
0.999863611343
0.945587541302
0.944664443895
0.999881468498
0.999886575929
0.945568891235
0.999890780053
0.999886440456
0.944303398158
0.945020386474
0.999885428409
0.999889134516
0.945247133903
0.999889187293
0.999854228966
0.943340532807
0.943835634075
0.999852790568
0.999885923405
0.943302202802
0.999893555066
0.999880799652
0.942909236057
0.942678847155
0.999860058394
0.942979864132
0.999895525154
0.999886935006
0.999883807658
0.943528925485
0.942520888815
0.999885880057
0.999882411454
0.942949619355
0.999896060829
0.99987993228
0.942075115356
0.94195477137
0.999879773574
0.942475261187
0.999902348386
0.999862694743
0.999868400775
0.942104394278
0.942437317929
0.999862627344
0.999873397194
0.941736800918
0.999859703593
0.941561965068
0.999858607962
0.999998421676
0.999998458579
0.999997676323
0.999992204836
0.999985963069
0.99998632697
0.999998223594
0.999998201398
0.999997806787
0.999990092095
0.999989312148
0.999991556129
0.999975689274
0.999986429278
0.999988495825
0.999998692582
0.999999596632
0.999997184432
0.999972931054
0.99992266549
0.999991291746
0.999987902085
0.999979601263
0.999989302985
0.999995405207
0.999986512932
0.999976723092
0.999982977783
0.999995173295
0.999997913414
0.999997913879
0.999998378488
0.9999970114
0.999988850793
0.999988089641
0.999994319671
0.999996414625
0.999998641527
0.999998600315
0.999997205124
0.999991938674
0.999987830351
0.999991203127
0.999997374876
0.999993231365
0.999987862321
0.999990208894
0.999996259696
0.999968482013
0.999984749364
1.00000637206
1.00000642135
0.999994895199
0.99985613727
0.999768903682
0.999856023006
0.999928118345
0.999983695071
0.999996460735
1.00000050761
1.0000005
0.999992739548
0.99993909776
0.999932785158
0.99998800669
0.999995824889
0.999998044121
0.999998445593
0.999998201802
0.999996406834
0.999990387816
0.999990871841
0.999998958977
0.999998833361
0.999998769233
0.999998360116
0.999997491595
0.999996282948
0.999996208947
0.999997410539
0.999995964227
0.999994137274
0.999994975651
0.999997955384
0.999980612136
0.999997975758
1.00001990965
1.00002080157
1.00000466485
0.999926231336
0.999839413903
0.999920054991
0.999963381125
0.999986530582
1.00000849733
1.00001634745
1.00001603421
1.00000860097
0.999997333282
0.999985821626
0.999999546772
1.00000122365
1.0000034912
1.00000449785
1.00000421086
1.00000306047
1.00000174936
1.00000085529
1.00000047667
1.00000087227
1.00000107205
1.0000012553
1.00000137199
1.00000097677
1.00000062014
1.00000057719
1.00000080857
1.00000209717
1.00000253866
1.00000214773
1.00000166741
1.00000141828
1.0000014746
1.00000184542
1.00000088427
1.00000153628
1.00000255308
1.00001797112
1.00001279042
1.0000100811
1.00003601272
1.00004320766
1.00001957209
0.999978169862
0.999949254798
1.00000005614
0.999997850962
0.999995869272
0.999995137352
1.00000026909
1
0.999996790338
0.999990497704
0.999988008321
1.00000187722
1.00000205413
0.9999996269
0.99999629143
0.999993494108
0.999996934266
0.999998819353
0.999996669174
0.999992313882
0.999992398237
1.00000453698
1
0.999995896828
0.999997764064
1.00000099963
1.00000111258
0.999996525024
0.999989557245
0.999991274974
0.999991903369
0.999994935626
0.999999408796
0.999997931243
0.99999225505
0.999991576219
0.999993402853
0.99999013872
0.999994175142
0.999997291791
0.0408209301543
0.0457300039552
0.0467959190437
0.0545233737613
0.0565626396217
0.0562439259828
0.0575824455584
0.0566712842076
0.0280532450502
0.0322840392011
0.0405050984291
0.0441735918352
0.0481812006982
0.0538478672639
0.0554996375268
0.0547361745418
0.0550098003182
0.0538286357488
0.0264946584182
0.0317691882497
0.0406538274704
0.0440968509603
0.0485814944891
0.053938317913
0.0535863401033
0.0534277072889
0.0541735406609
0.0538938604391
0.0327706115034
0.0424070262289
0.0451096634851
0.0477051358095
0.0507490340576
0.0512984209045
0.053338482664
0.0545929596062
0.0551908836046
0.0471507549491
0.0490216482893
0.0512127686411
0.0515902323274
0.0546068113246
0.0551932729214
0.0551372595228
0.0570291580969
0.0561495144236
0.0549573338691
2.42819368467e-05
4.25535803661e-06
1.66074836571e-05
2.94401593411e-05
5.31692688455e-05
4.21661798932e-06
-3.80597416097e-26
-1.81665037797e-24
-3.56519597679e-25
4.91056835333e-05
2.81498364156e-05
1.65017336699e-05
3.80073942111e-05
7.56875075962e-06
-5.99844726415e-24
2.16480700054e-05
1.63116002603e-05
7.84501005743e-08
-5.64786690855e-28
3.97175612863e-05
1.3585286529e-05
8.33346167946e-06
2.38087437146e-05
8.28571234769e-06
1.32348898008e-24
5.73971850987e-43
2.64343166983e-05
1.65429733155e-06
2.27708586964e-26
2.71788833128e-05
9.50270918821e-06
1.39443635807e-05
1.5926714388e-06
2.48154183766e-25
-3.02323814867e-27
3.40594298808e-05
8.75656075722e-07
9.92159081231e-27
2.64704888117e-05
3.8970106471e-05
3.2645670725e-05
5.92027169707e-05
3.06733370734e-05
-2.21887837122e-26
-8.39554833662e-27
4.74469874673e-05
-4.18645880133e-27
-4.26930027874e-26
7.31038036709e-05
0.99998678747
0.999992823606
0.999990897152
0.999976589645
0.999963862731
0.999978132017
0.999969696258
0.9999874514
0.999986026378
0.999969388069
0.999958626379
0.9999652884
0.999958645974
0.99996003957
0.999990049993
0.99997830531
0.99997711672
0.999985049204
0.999985627252
0.999981977435
0.999976146979
0.999979778744
0.999986904532
0.99999291983
0.999975618592
0.999962926677
0.999981899575
0.999989227695
0.999977425808
0.999941823197
0.999972366789
0.999965599955
0.999984947519
0.999947598841
0.999979826982
0.99999549114
0.999968130996
0.999980505601
0.999991964939
0.999999333751
0.999986768069
0.999994823962
0.999965007933
0.999964107944
0.999975321406
0.9999143584
0.999971785682
0.999958418207
0.999978666272
0.999979893804
0.999987847089
0.999991378943
0.999987365417
0.999990939736
0.999993632792
0.999999078951
0.99999264184
0.999974726275
0.999985080462
0.999995009243
0.999998595065
0.999996041498
0.99999562109
1.00000186556
0.999994252453
1.0000014805
0.999997056786
1.00000148371
0.999995740898
1
0.999977517705
0.999982545855
0.999984217405
0.99998079139
0.999989448856
0.999994046647
0.999999089134
0.999998159054
0.999989674797
0.999999905605
0.999997000315
1.00000082438
1.00000344204
1.00000885502
0.999996473266
0.999997292625
0.90392063744
0.907464302542
1.00002153724
1.00000472061
1.00000638018
0.902177088226
0.879377681986
0.903564056041
0.881516114412
1.00000326099
1.00000078204
0.999999725451
0.869321874817
0.849069243177
0.871464882927
0.852917559261
1.00001993324
1.00001522603
1.00002882169
0.851787191671
0.857959639733
0.854229575901
0.86098465246
1.00004124916
1.00004213767
1.00004812908
0.860137015655
0.867311192318
0.862713335754
0.869108495687
1.00003298894
1.00004277087
1.00003449293
0.86897823635
0.874816144898
0.869862240358
0.872717045588
1.00000478627
1.00001896113
1.00000849273
0.874690043668
0.867687026026
0.873374991952
0.871484947738
0.999947709502
0.999997046856
0.999981315911
0.864472933843
0.862993002113
0.86900714858
0.861199769913
0.999958196106
0.999970539171
0.999972612585
0.8696227223
0.856353939172
0.86569401167
0.858241529031
1.00000179231
1.00000111455
0.934744970026
0.921800643589
0.939316496058
0.930534572407
0.999998551769
1.00000029689
0.999999986898
0.918122604216
0.908058116428
0.926854504737
0.911043933196
0.999996307332
0.999996549936
0.99999514078
0.90285260626
0.881788854163
0.902954544421
0.877972796
0.999996984816
0.99999433466
0.999990892074
0.871860999417
0.85399161488
0.869718723949
0.855800972864
0.999999047634
0.999999819512
1.00000126708
0.854623212769
0.860490566613
0.855856504066
0.862183530118
1.00000044553
1.00000455684
1.00000498228
0.862280585166
0.869071346099
0.863650234076
0.87081467959
0.999998901338
1.00000125061
1.00000050586
0.869795548553
0.873260216179
0.872147906524
0.876384844892
0.999992732669
0.999997892797
0.999997198805
0.874150831674
0.872788851298
0.876968496444
0.871536219432
0.99998886292
0.999995497192
0.999991942422
0.870191594075
0.861076988616
0.868751825607
0.862148536872
0.99999638825
0.999993074877
0.999998488804
0.865650821327
0.860382055953
0.866341759675
0.862128065281
1.00000307922
1.00000259298
1.00000377028
0.941509981712
0.933052233555
0.941270831749
0.939755743571
1.00000027814
1.00000515685
1.00000506707
0.929079531568
0.911346982635
0.936905619707
0.912202702268
0.999996139681
0.999999881528
0.99999444147
0.90229616182
0.876138992382
0.899462497592
0.871785584237
0.999996640932
0.99999586184
0.999993800562
0.868796222404
0.857461169654
0.867533576912
0.86431512078
0.999996523838
0.999999467014
1.00000033512
0.857391909067
0.863151930794
0.864772533268
0.870314546516
0.999998671826
1.00000257903
1.00000255257
0.864583121409
0.871879347525
0.871854575456
0.877933338791
0.999997296077
1.00000114109
1.00000087156
0.87354945904
0.877187724718
0.879292717171
0.877399563555
0.999994034598
0.999998204823
0.999995158105
0.876774452393
0.869942080881
0.875219326239
0.86549543214
0.999991550567
0.999993157051
0.999993346091
0.867487903008
0.86280815835
0.864029360972
0.861727003862
0.999998861389
0.999997257256
1
0.866880096211
0.862700018235
0.865497363184
0.862394650477
0.940975676077
0.93993121373
1.00000308829
1.00000321389
0.937630007228
0.9114234017
0.905796941618
0.99999566816
0.999998646149
0.999993844599
0.898256741975
0.871634842519
0.894783489896
0.871482742522
0.999997832608
0.99999639586
0.99999630989
0.868091350065
0.865355260386
0.868335515339
0.866457400565
1.00000107043
1.00000184421
1.00000245573
0.866162346859
0.8723086072
0.868393834299
0.875467218881
1.00000129865
1.00000522336
1.00000577324
0.873840170211
0.879249048979
0.87692017845
0.880218907871
0.9999987876
1.00000337105
1
0.880332658424
0.876682392956
0.87958147288
0.871882744056
0.999990591616
0.999996908447
0.999992100858
0.874043152513
0.865460638023
0.869704650276
0.865222887282
0.999990340739
0.999992253171
0.999993133052
0.86493081042
0.861962256771
0.865531643178
0.863612164552
0.999996990937
0.999995733915
0.999999384761
0.865417835559
0.862329620977
0.866639467126
0.861339867923
0.999992759911
0.999991695478
0.867785956173
0.866209513205
0.860533444319
0.999999516931
0.999998860312
1.00000094063
0.868265475493
0.875168521366
0.862501603589
0.870161306471
0.999998923351
1.00000222368
1.00000160607
0.876451130598
0.879186071012
0.87205687808
0.873645334159
0.999994003181
0.999999952088
0.999997613552
0.878376711647
0.870424278539
0.871529401826
0.86445961425
0.999991288559
0.999994138516
0.999992504176
0.868680676876
0.865321333875
0.863477944804
0.863609066491
0.999992380303
0.999996294519
0.999997963376
0.865761103043
0.863126107194
0.864736222768
0.864422195858
0.999996877585
1
1
0.866347627461
0.860785842266
0.867822602068
0.859352475886
0.999992224122
0.862903787476
0.999991410819
0.862266490065
0.862925792904
0.999996558855
0.864130488412
0.864988522126
0.999999896133
0.868198602306
0.859355977852
0.000425830975315
0.00049329924401
0.000435043680288
0.000534880829709
0.0366549320717
0.0363671405035
0.000369702296944
0.000213861104558
0.000358064703587
0.000262838997959
0.044324855195
0.0406380431133
0.0434688040152
0.000329310444287
0.000516541851387
0.000359549620646
0.000509780321378
0.0455342564897
0.044927772539
0.0450590080928
0.000722537979202
0.00091307536967
0.000680001123713
0.000835485409178
0.0510965862627
0.0469557115455
0.0504246119577
0.00141136712394
0.000720246417005
0.000976837657756
0.000597065749599
0.0556482316256
0.053667077127
0.0549256375501
0.000121883965682
5.67935045757e-05
0.000268103193313
0.000126572332045
0.0559099047296
0.056008007753
0.0556167343349
2.09794285792e-05
2.33360338035e-05
2.76683622929e-05
2.53168806464e-05
0.0572231405832
0.0557105711195
0.0562285648087
4.8296108274e-05
0.000313187865158
2.67902837657e-05
0.000237719378427
0.0575239638868
0.0562712722025
0.0563377001749
0.000426146789851
0.000401652707776
0.000332603438584
0.000317672452815
0.0562684579217
0.0547547326955
0.0576559244052
0.000384300782302
0.00112645758415
0.000310875299197
0.000704663428978
0.0291523870822
0.0272630266783
0.0286745693478
0.000287470003082
0.000486090981384
0.000116589446888
0.000374214239076
0.036506490388
0.0319661762772
0.0365991421344
0.000371904147819
0.000374847903175
0.000362098522101
0.000423557799975
0.0427613377518
0.0404270169283
0.0426016181986
0.000504031108336
0.000601794485516
0.000559413033294
0.000648365544934
0.0450697695517
0.0438566065297
0.0450231699555
0.000597625874428
0.000630640677474
0.000593941996581
0.000584522831046
0.0511377473663
0.0486173456466
0.0513760098707
0.000446285403778
0.000263969284207
0.000367671425105
0.00020601705399
0.0547294468178
0.0543558859571
0.0545613029299
0.000416995724412
0.000328813220659
0.000284126215063
0.000250738211789
0.0547206643391
0.0546588430671
0.0538239638178
0.000133216780343
5.50729809114e-05
0.00035394835142
0.000167424727385
0.0551030031634
0.0538901409146
0.0542085364203
2.15863273196e-05
0.000172289026624
0.000123282765312
0.000205571535958
0.0553005887866
0.0542710859693
0.0545224833693
0.000249093822089
0.000240057627737
0.000231978004119
0.000204267350496
0.0575093895965
0.053493063013
0.0572779664867
0.00020857776341
0.00061763931978
0.000176493245601
0.000672476559765
0.0281027329497
0.026805416347
0.0280965037877
3.37048823384e-05
0.000264081428051
1.90140947715e-05
0.000122806463621
0.0367072765084
0.031750203841
0.0370176429152
0.000290408121492
0.000420214406944
0.000245467068928
0.000430781985026
0.042908005961
0.0413481022227
0.0435194349838
0.000539798028957
0.000617826525092
0.000582982279963
0.00064591552936
0.0452066471054
0.0443850972239
0.045410086179
0.00057975100227
0.000528016933687
0.000558871480547
0.000505839374007
0.0511122655985
0.048080501358
0.0500001605779
0.000285839726858
0.000136296610262
0.000277611218101
0.000142547500472
0.0539309434588
0.0522762775186
0.0523394839075
9.54054452236e-05
5.56996110578e-05
0.000100099752741
5.52161885769e-05
0.0530701844608
0.0521801202172
0.0525150274507
0.000203467809453
0.000279068109153
0.000148406968204
0.000328779523673
0.0540353189584
0.0531928925307
0.0541521249148
0.0002050786131
0.000279400312718
0.00026131061585
0.00035067514212
0.0544377570541
0.0544034836897
0.0547663689159
0.000269800739249
0.000219115890747
0.000322338868619
0.000256787313154
0.0578157048356
0.0545843527852
0.0582303858773
0.000173856612535
0.000528294660702
0.000208971773975
0.00050486420076
0.0380174316295
0.0398442515058
0.000240652166237
0.000442246924088
0.000490442713224
0.0442851346142
0.0437678826868
0.0452252267405
0.000581211807447
0.000607014143231
0.000599191235135
0.000618553738432
0.0459560412052
0.0461478702776
0.0469054256016
0.000491866519035
0.000438726689636
0.000513424155461
0.000462301599104
0.0488311556106
0.048009518398
0.0488633569443
0.000274141575592
0.000146090531767
0.000317993300184
0.000175568321352
0.0510581284006
0.0504493534022
0.0510587073525
0.000101955842375
5.87384208025e-05
0.000120146026013
8.18846921325e-05
0.0521223859718
0.0514415128857
0.0521397847195
0.000180223541384
0.000433781267294
0.000320457172517
0.00061619367328
0.0544172814819
0.0536479678514
0.0547566420512
0.000317689869892
0.000398452599685
0.000378720779101
0.000432861128658
0.0550237203322
0.0548536995237
0.0553682637147
0.000355150818379
0.000290228853099
0.000379813806997
0.000339597051074
0.058708541784
0.055276134823
0.0581719283371
0.000251521853782
0.000447403419881
0.000340132691846
0.000478560713474
0.0478983206355
0.0493945320121
0.000769623381962
0.000736262359623
0.000997142257265
0.00103090807452
0.04983974778
0.0511416736466
0.0519227022406
0.000619673465197
0.000445196009492
0.00102612303646
0.000886143161858
0.0515731264049
0.0529666792774
0.0530420389199
0.000388548478629
0.000379795346425
0.000978520405475
0.00105788348758
0.0531860209368
0.0533261762533
0.0549121110437
0.00085365101653
0.000637683869337
0.000908640411487
0.0006197434116
0.0553887212146
0.0559446355494
0.056215326531
0.00041159112764
0.000425035762499
0.000462166132511
0.000452618611174
0.0557655106902
0.055619751752
0.0558966431063
0.00037827812513
0.000355006763412
0.000391493732607
0.000363730589721
0.0572037659491
0.0550075055117
0.05621915865
0.000413649355314
0.000690318339817
0.000467111846902
0.00113723536845
0.0567302477282
0.000456386206759
0.0568678856134
0.000497743242662
0.000485840265254
0.000503113444621
0.00049379618655
0.0560636037672
0.000404607245541
0.000370622807016
0.000409440283843
0.000381637581403
0.0556446073575
0.00051867641338
0.00148098616541
0.000580471441518
0.00165047531963
0.999929918169
0.999863324942
0.903862408458
0.905028913173
0.999902243928
0.905394224955
0.999894497257
0.999895712625
0.999854656631
0.906024836105
0.909968917741
0.999854889839
0.99990651335
0.906619079483
0.999753993367
0.999823363792
0.899065164594
0.903091414023
0.999849945878
0.899407697232
0.999745364972
0.999605070607
0.999304727894
0.890982708415
0.879786967355
0.99932597519
0.890925455076
0.999593125988
0.999712897948
0.999802862857
0.903622601873
0.89890564935
0.999793571282
0.999693032105
0.899845041432
0.999586347198
0.999339111168
0.881420131087
0.891379116622
0.999356245669
0.999571176937
0.891918696281
0.998651049429
0.998968169226
0.859906582123
0.870427765718
0.998976994067
0.861214771411
0.998585383999
0.998393198054
0.998317248997
0.85397495243
0.850681617907
0.998353865001
0.855435995078
0.998274377226
0.998744636239
0.999060261465
0.871617881407
0.861916213631
0.999074218951
0.998717476822
0.862136026033
0.99842698302
0.998395568563
0.852410975183
0.857244033813
0.99839871819
0.998363029209
0.856661415027
0.998624735707
0.998398750505
0.854748039635
0.853213846303
0.998450616085
0.856564326253
0.998590441812
0.998813541283
0.99884530393
0.856016301004
0.859858750325
0.998911121422
0.858080851125
0.998792105427
0.99866194836
0.998448857329
0.854611468194
0.857194220653
0.998477542019
0.99858648224
0.857767520431
0.998849280484
0.998966015326
0.860869673959
0.859055739385
0.998959558498
0.998797803672
0.859354383608
0.99890462955
0.998843650106
0.863020993072
0.861694803412
0.998899293344
0.864446674997
0.998833741101
0.998899407316
0.998829984647
0.865423103387
0.868249440382
0.998891587188
0.866813182909
0.998845344107
0.999009967981
0.998999754623
0.862310127663
0.865425338269
0.998977485448
0.999014992101
0.86495328654
0.999034924868
0.999036782581
0.868554184585
0.867681941703
0.999037469551
0.999040111583
0.867321935361
0.998612055606
0.998728575112
0.870758209029
0.869282347333
0.998806874128
0.870859022463
0.998492472697
0.998393650496
0.998373405584
0.872774073319
0.874332802369
0.998348096446
0.873018289668
0.99837618448
0.998791174001
0.998979829349
0.86938482715
0.870287376842
0.998984265769
0.998805746689
0.870219146518
0.998519892417
0.998340186065
0.873416467508
0.871294654644
0.998343702257
0.998541594258
0.871755519519
0.99833539582
0.998379076
0.873876328608
0.874008741029
0.998345288793
0.873337103534
0.998376127748
0.998357594179
0.998453169057
0.871352344371
0.868565079126
0.998392102086
0.871297373975
0.998385697685
0.998284735204
0.998260157128
0.873979484441
0.87410411638
0.998295761911
0.998227472565
0.87440021324
0.998280936822
0.998129173269
0.870328292359
0.872867650706
0.998281166475
0.998162001537
0.872983566248
0.998557186702
0.998600723088
0.861883121993
0.865989120767
0.998500384626
0.863835732354
0.998628281741
0.9985961004
0.998613759385
0.862123833371
0.863291271567
0.99856688667
0.862711157384
0.998642233475
0.9983479977
0.998167733627
0.86739646055
0.866353617365
0.998325043606
0.998229609629
0.864952382217
0.998320155067
0.998172798525
0.861312357036
0.863579461997
0.998270396166
0.998217103491
0.862404673174
0.998344472988
0.998579188575
0.86772727816
0.869266178206
0.998543860015
0.867290626018
0.998387780336
0.997475298102
0.997885427257
0.841101904001
0.856383182549
0.840967071951
0.997873026635
0.997439474881
0.997854172486
0.998057887934
0.866251783227
0.863877679682
0.998171171965
0.997734031284
0.864052425003
0.996938776763
0.997466328693
0.856977536663
0.838399072766
0.996869787469
0.83753248987
0.997511897893
0.999783773938
0.999791546455
0.930666040032
0.935675837754
0.99980388147
0.931809601419
0.99979366259
0.999779460888
0.999777950795
0.926209648344
0.924874175647
0.999784294906
0.999761492738
0.928101718218
0.999776455799
0.999810227499
0.937257014602
0.936429996427
0.999804687447
0.9337014613
0.999778109234
0.999742127044
0.999777799764
0.927530414622
0.933776131579
0.999726616932
0.999799429942
0.93046591903
0.999704721352
0.99975818626
0.91531638954
0.921781575529
0.999741500714
0.999742585747
0.918112599155
0.999640282966
0.999651159946
0.911708575749
0.909192903365
0.999725671141
0.999590556478
0.913288563418
0.999608107052
0.999708063657
0.924179059102
0.922994597604
0.999689067213
0.999672724559
0.920195223859
0.999555501038
0.999571204981
0.909649181511
0.917401793
0.9995265419
0.999626204661
0.914464110246
0.999402736014
0.999578588377
0.897472982128
0.903697205474
0.999458436144
0.99950826185
0.89677192158
0.999279941509
0.999155674797
0.890664369024
0.8801300284
0.999334182314
0.99909396609
0.888631122417
0.999374043736
0.999511953793
0.903473768888
0.894524211592
0.999471564734
0.999393895295
0.896056333344
0.999259441168
0.999067929608
0.879192443811
0.88651780706
0.999091132568
0.99925010763
0.887702317687
0.998640290384
0.998928596388
0.862513591032
0.871509876157
0.998651206192
0.998884366618
0.862790836568
0.998387984332
0.99826713333
0.858122194076
0.853945812023
0.998337922329
0.998259989835
0.858536199519
0.998734633301
0.998885833649
0.871041044813
0.861783585912
0.998918349269
0.998704083357
0.863063136604
0.998524058177
0.998551141248
0.85489694656
0.85891003253
0.998468763504
0.998554737099
0.859164492703
0.998363055623
0.998301553809
0.856734113719
0.854337255502
0.998425563465
0.998285737854
0.856645979088
0.998477423652
0.998751133063
0.858603387045
0.860246586715
0.998606516452
0.998628016473
0.85846128725
0.998404936781
0.998467138709
0.854999927549
0.857536316965
0.998398938301
0.998412612715
0.857003318561
0.998449139876
0.998504186538
0.860927511357
0.859883552575
0.998560876762
0.99843847647
0.859170899242
0.998698390794
0.998785217931
0.865062110075
0.861892443089
0.998801614916
0.99867031496
0.864838913856
0.998722537662
0.998826159915
0.867550454074
0.86951728404
0.998826181864
0.998760056845
0.867614081508
0.998577015849
0.998535560417
0.862341468926
0.865891275642
0.998572034013
0.998552129965
0.864931606584
0.998594291878
0.998657868728
0.869718569063
0.868466103644
0.998647811582
0.99858444754
0.86772006515
0.998683606063
0.998791340718
0.870233577732
0.870462844143
0.998678887881
0.998741453148
0.871101581979
0.998588554401
0.99841258139
0.87155080889
0.874200000578
0.998528547407
0.998496801801
0.872435662998
0.99868089613
0.998735137005
0.870729011815
0.873204621085
0.998671148805
0.998758369969
0.871586166938
0.998695672602
0.998858332758
0.875090082186
0.874784832786
0.998732180411
0.99878060812
0.873279490595
0.998268741126
0.998309307923
0.875015364457
0.875127529822
0.998135074159
0.998416888921