/*--------------------------------*- C++ -*----------------------------------*\
| =========                 |                                                 |
| \\      /  F ield         | OpenFOAM: The Open Source CFD Toolbox           |
|  \\    /   O peration     | Version:  v1906                                 |
|   \\  /    A nd           | Web:      www.OpenFOAM.com                      |
|    \\/     M anipulation  |                                                 |
\*---------------------------------------------------------------------------*/
FoamFile
{
    version     2.0;
    format      ascii;
    class       surfaceScalarField;
    location    "7.75";
    object      alphaPhi0.water;
}
// * * * * * * * * * * * * * * * * * * * * * * * * * * * * * * * * * * * * * //

dimensions      [0 3 -1 0 0 0 0];
oriented        oriented;


internalField   nonuniform List<scalar> 
92311
(
0.203831739444
-0.000133564312703
-0.00083916746925
-0.203585992009
0.00072722758383
1.13583982565e-05
0.203828656739
-0.000332792745944
0.000324701976123
0.20393869542
-0.000201934808241
-0.000883836683262
-0.203770332109
0.000784081686051
0.000126329257268
0.203826369696
-0.000392218481798
0.000389688904908
0.204334199737
-0.000152878544904
4.20463427502e-05
-0.00111472920178
-0.204336489401
0.000948562564064
-4.42684824959e-05
0.000121736502562
0.000132641318031
0.000179286832415
0.000253027316915
0.203678622197
-0.00049548238383
0.000505427524453
0.000206990128682
0.0513350224344
-8.5969030649e-05
-2.64143339494e-05
-7.25805130419e-05
-4.46285939624e-05
-0.00043524398418
-0.0512865153292
0.000463494395168
-0.051265024808
0.0511234997752
8.08804327567e-05
3.77141151208e-05
5.76840046919e-05
6.07410962853e-05
-0.000277156352299
0.000314399244216
1.44604959273e-05
-0.00065812846387
5.89468573187e-06
7.65851689827e-06
-2.32053938698e-06
0.000273463024126
0.000526990395057
2.64316354705e-06
-0.000240818896232
-0.000456006125133
-0.000296461332076
-3.84688269135e-06
0.000559851070428
-4.74724671702e-05
-6.484546853e-05
-5.09119762772e-05
-7.68399721303e-05
0.000285330613032
9.4598607612e-25
-6.16350083438e-07
-1.53120528543e-06
-1.70675344588e-06
-3.6626403556e-06
5.60665544043e-06
5.43030383486e-39
-2.85262306113e-07
1.47280507772e-05
2.86756230048e-05
4.97527465865e-05
-1.83397402198e-05
-0.000360972856508
0.000398232884195
0.000100780926508
0.0104582177534
1.07459863982e-05
-4.79337673765e-06
-0.0104794596052
0.0104497427272
5.09885054252e-05
-3.28263533643e-05
-0.010446920997
-1.72869195425e-05
7.9996960702e-06
0.000203140397667
7.6210652998e-05
0.0510027041771
5.9629314876e-05
7.18468952676e-05
5.27642711779e-05
-0.000163364549324
9.1681461984e-05
0.0508937532301
0.000114170884034
9.00495723287e-05
0.000110546932655
-0.0510196065971
0.000175715417249
6.32940322963e-05
-5.02813563271e-05
0.0104359588369
-3.35822646167e-05
3.40015827724e-05
7.14703301249e-05
0.0126770363446
-7.16274737065e-05
9.58193541165e-05
-0.0126954707711
0.0126611457297
8.09393694662e-05
0.000100812895317
-0.0126784986403
-0.000441872333353
0.204004821189
-0.00162509029268
0.00138973162303
-0.203327036967
0.203769159536
8.25015287181e-06
0.000249180339216
-0.000197891260306
-8.88620711619e-05
0.203795521719
0.000460082613402
-0.000397737697633
-0.000976982749894
0.204145347003
-0.00159652130965
0.00147056917038
-0.203484043869
0.203738488513
9.99822631e-05
0.000158685134736
-0.000162558319654
-0.000170317626622
0.203793743095
0.000434840866646
-0.000408856588994
-0.000515642033292
-0.000536270759318
-0.00050395577261
-0.00169353866063
0.204694145088
0.00169621030523
-0.203623044951
-0.000494761788055
5.30524177975e-05
-2.56528033384e-05
0.000131632276056
1.32326538566e-05
0.203555865061
0.000160263908306
-0.000109365388039
0.0512633139759
-0.000237478192986
-0.000223891967596
-0.000237808473576
-0.000221571938445
-0.000453615690697
-0.0509067756814
0.000502389332283
0.0508827610553
0.000137578079012
4.78363666438e-05
3.34900466074e-05
2.96994531052e-05
1.80776994725e-05
-9.36078229312e-05
-0.000285453973992
2.50932524682e-06
-0.0003998909507
4.54886062732e-07
-1.26663868495e-05
2.29603662052e-06
3.00230551785e-07
0.000168307608649
-2.77591247221e-06
-2.36841573905e-06
-2.18186449225e-06
-1.54514200706e-06
2.77494152395e-06
3.98514246658e-06
-5.8757369137e-07
-2.48369340856e-06
0
0
0
0
-3.45055119483e-30
0
-2.06123119297e-26
0.000417407915437
-0.000204533383996
-0.000189100853491
-0.000201251908377
-0.000190604759444
0.0514224029961
-0.000327153251021
-0.000181192310327
-0.000166752152585
-0.000188282979535
-0.000172335177642
0.0513437534318
0.00047724266147
-0.0511987046605
-3.33332978792e-05
0.000291771671032
0.0107989433614
5.70614037931e-05
-9.4653049341e-05
-0.0108971192353
-2.9714458622e-05
0.000217461517893
-0.0106485270286
6.14862118019e-05
-8.24273452556e-05
0.0106049275881
-0.000229946029781
0.0128323889971
-0.000141777814644
0.000153275991389
-0.0127920678277
2.36655235598e-05
1.33618018158e-05
-2.42094587779e-05
2.45761886533e-06
-1.69625131902e-05
0.0508517231343
7.13297751949e-06
0.0507763657683
6.26447042384e-05
6.58021722001e-05
8.16873686387e-05
4.61035678409e-05
0.000130487146882
4.19162073318e-05
2.82988224033e-06
2.24035186931e-05
-1.59970171068e-05
0.0507321856112
3.00159653176e-05
5.24070650859e-05
-5.27981663418e-05
7.08665635823e-05
0.012655649326
-9.76635418743e-06
3.35672078775e-05
-0.0105215289802
-9.00573538735e-05
0.0105154151489
0.000102638348573
6.39648290447e-05
7.61844538729e-05
0.0126368526604
-0.0126061773374
5.97026226438e-05
0.0125948263437
-3.29222459151e-05
2.6111367329e-05
-0.000700977904744
-3.36531071039e-05
-8.64025808526e-05
-5.80747096781e-05
0.00040406893725
-0.000357411839685
-3.55562972383e-06
-5.83289167613e-06
-6.35674359561e-05
-9.52795960111e-05
-0.000108672841215
-7.23700620865e-05
-2.18451430453e-05
-0.000299780334743
0.000284992620637
-1.080436398e-06
-1.94890731295e-06
5.27542760129e-06
-2.01960298168e-07
9.13236801322e-06
-4.38961858681e-06
-4.66717984614e-06
-1.53511288373e-05
-6.8642195352e-05
-0.000101778740407
-0.000103853389153
0.000423632060797
-0.000348520947867
-7.18837932092e-06
8.42501554432e-06
1.97008625528e-06
0.00016358453799
0.0128483939763
-0.000150520850845
-0.012845047158
-0.0128345939189
1.6279074623e-07
-0.00015138217213
0.012814424011
0.000144628945676
7.03765037722e-06
3.40943467765e-05
0.0104567590161
-8.4137383902e-06
5.7234377764e-05
0.010405246064
-0.0104357429707
2.17334743872e-05
-0.0128390737487
0.000152609508955
0.0104037075928
6.64224050571e-06
0.012828050102
-0.000141012675907
0.0128026343393
2.60742366888e-05
-0.000135414204235
0.000135364155917
0.000131376760889
-0.0128103242173
0.0127897350352
-0.000114644671473
-8.92891325507e-06
1.32352941225e-05
-1.21478347705e-06
-8.53723334111e-05
-0.0103930381041
0.0104049933916
-2.79939863444e-05
0.0127760974436
0.00012232108857
-1.62144259645e-05
-0.000122796258853
-0.0127478861405
0.000115068164713
-9.86899047292e-05
0.0127218800646
9.11415217776e-05
0.000115482861453
0.0127625492929
-0.000100229182286
-4.76801565096e-05
-7.32435819885e-05
0.010435255015
5.20083926851e-05
-9.553346087e-05
0.0103913287738
-4.12594699504e-05
0.000106371932168
0.0103928097507
-5.18170358371e-05
0.0127372558573
-8.50517735607e-05
6.6576364639e-05
-0.0127125776271
0.0126938825962
-5.8647093548e-05
-7.48010390544e-05
-0.0104447638473
0.0104564485182
8.82507331879e-05
-0.0104107030921
-6.15285668119e-05
0.010427200844
0.000103848623885
-8.97786144876e-05
8.49783615749e-05
-5.97833319064e-05
-6.51737415182e-05
6.947239081e-05
-5.50851936665e-05
-7.64196180775e-05
0.000148849016649
-0.012665734452
0.012645625706
6.70600811478e-05
-4.61293353722e-05
-0.0103963223653
0.0104172062766
-0.0103815879469
0.0104074323418
-3.2653292982e-05
9.22965123205e-05
0.000112210600151
-0.0127070844793
-0.000158377107334
3.93542758721e-05
-0.0103677508612
-3.1256667266e-05
-0.0126973156995
7.65909166496e-05
-0.0103811903601
7.5053027259e-06
7.31680050514e-06
3.29740011229e-05
3.08858219733e-05
2.90757854497e-05
3.22287041643e-05
-0.000529790689829
0.000384507899158
-0.000119408631618
-1.08253815387e-05
-7.40117760996e-07
1.06120457234e-05
-1.68482459143e-06
-0.00041413683318
8.86204485477e-06
3.85890340561e-05
3.44587455367e-05
3.92398053744e-05
1.12913206483e-05
3.3240187735e-06
8.7602974846e-05
7.3439188781e-06
3.22867948611e-05
3.01505966965e-05
3.25377381255e-05
-0.000668222333665
3.64777743759e-06
-1.35737947048e-06
-6.31334133169e-06
-1.29865297589e-06
6.98942637991e-06
-7.93962269103e-06
-4.20412495434e-06
-7.40399525404e-07
0.00013895326671
-2.46973097946e-05
-5.19297175396e-05
-3.69162464691e-05
-1.28952051984e-05
-0.000338602511775
2.46676059718e-07
-1.84655911446e-06
3.08346723688e-07
-3.22136443019e-06
1.06973246363e-06
4.40595580713e-07
0.000307640919011
-1.60033600913e-05
4.82683045509e-06
9.78087510946e-06
2.2369856926e-06
0.000180362720597
-0.000364648711942
4.55722004992e-07
-3.35556164831e-06
3.46006172701e-07
4.51192097752e-06
6.11177518039e-06
1.05218060637e-05
4.61975948319e-06
-0.000328843656163
0.000123735294809
-2.53927494233e-06
1.17691287349e-06
-0.000111951834005
-0.0127559197417
-0.00029550694045
0.0128014538358
0.000127955714956
0.0127689286416
0.000123394499156
-0.000113651525421
-0.0127078970209
0.000292975827766
5.93318758309e-05
0.0107117932585
-9.01339386135e-05
0.000288903026694
0.0107690280967
-0.0108616498512
2.08691791924e-05
0.0128144535243
-9.88170907769e-05
-0.0126965434725
0.000134297866589
0.0106893021533
2.55501572221e-05
-0.000102202880432
0.0128429174221
-0.000262306904836
0.000122228517532
-0.0128569965901
9.51795772077e-05
-7.55710706523e-05
0.0128693149043
0.000257369110384
5.86972591356e-05
-8.47265540847e-05
0.000222629673703
-0.0106216765912
3.35409243162e-05
0.0105681959388
-8.49544743639e-05
0.000117800597421
0.012855849979
2.69267855334e-05
0.0105398417353
-6.08492280503e-06
-4.53317242309e-06
-0.0106159474848
0.000192432103385
-1.08297698667e-05
0.0105018405693
-8.46549823572e-07
-0.000139566866903
0.0128464340953
0.000154158696476
0.0128364375423
-0.000245279936568
-0.012795736855
0.000205896960031
-0.0105949258752
0.010543955831
0.0128513993388
-0.0106615920795
4.63851786989e-05
0.0126720599353
-4.26405890738e-05
-8.53200786163e-05
0.0104897348772
0.000105889523521
0.010464332556
-6.3669520486e-05
-4.07062497171e-05
3.9766687081e-05
0.0126457900737
4.08659891619e-05
-1.94601780075e-05
-9.09909983512e-05
0.0105012130564
0.00011566947845
0.0126621854943
-3.18926116146e-05
0.0104846518777
-6.46169170711e-05
-2.2511920463e-05
0.0126375307271
2.14918600119e-05
2.26138429697e-05
-0.0126553354209
4.76904235554e-06
0.0126618755439
-1.7844429399e-06
-4.8639531055e-06
-9.39493706537e-05
0.000111308121066
2.19059761117e-05
-0.0105027328012
-6.73026788911e-05
0.0104976621162
-1.79147513742e-05
5.88603004728e-06
0.0126411970013
-6.81487648702e-05
-0.0126195817786
8.6535319622e-05
-5.24689392245e-05
4.50961614e-05
0.000117790932429
5.44907752755e-05
-5.05939072975e-05
0.0104543263591
0.0104520940983
-3.51108361972e-05
5.07690812505e-05
0.0104825018291
-3.4941758306e-05
4.81293054513e-05
0.0126231990259
0.0104760929291
0.0105113204533
5.53571508885e-05
-4.31446043021e-05
-4.54248372797e-06
5.92598433245e-05
0.0105247705158
-4.72787352986e-05
-1.56938520821e-05
0.0125952183391
1.30370197703e-05
0.0126119374811
2.31536439362e-05
3.19384553755e-05
-0.0104979020739
0.0104943358202
0.0126175655577
-0.00013024254284
-0.000126077606661
-0.000199477398959
0.000632218063755
0.203910290252
-0.000194591861493
-0.000506160880987
-0.000104358951509
-5.06215685225e-05
-3.19475315068e-05
-5.08867804772e-05
-2.83561331607e-05
0.000112744943077
0.0508748927368
1.34673068132e-05
-0.000288350568117
4.58777356168e-06
1.22543540133e-05
1.44893717072e-05
1.34640668055e-05
8.31112896956e-05
-0.000248091156975
7.53571878845e-13
1.93379577232e-11
0
0
6.839274217e-29
0
-2.0091529602e-11
-8.96769684966e-05
-0.00012099170668
-0.000122352981326
-8.2731021213e-05
0.000299924407417
-0.000366866591827
0.0513912565211
-1.92360948752e-05
0.000145950538574
-1.37951924882e-05
0.0104742834331
0.0507575475885
-6.55417673845e-05
-2.42973511215e-05
-3.52117278789e-05
-6.25986244719e-05
-6.8272399691e-05
0.0508393967634
-7.11254472176e-05
-0.000100654647783
-8.9237017025e-05
-7.59937039266e-05
0.000217634555627
-0.000161952607201
4.05022681679e-05
0.0105108035322
-8.78787839386e-05
9.81841149349e-05
-1.21642234631e-05
3.34478228914e-05
6.60996899845e-05
0.0105208094651
-5.84260446755e-05
0.0104217261151
-1.94461039908e-05
0.000136161387838
8.74657815766e-05
-0.0104592661214
-0.000101793430255
0.0509441564113
-8.69999156619e-05
-9.63264620349e-05
-8.58248956543e-05
-9.90717365251e-05
0.000205784633419
0.000253429983297
-0.000195582547686
-7.354829768e-05
-6.60769767874e-05
-6.26914313026e-05
-7.94135956364e-05
0.000148774992096
0.000295453449317
0.0510167218385
-0.00023488721136
-1.82913755629e-05
0.000138167651157
0.000100361641824
0.0103907820681
-0.000117636821274
-8.99742469873e-06
7.95600735423e-05
0.000131457298705
-0.0103550914593
0.0103567930757
-0.000145604756852
1.89286530549e-05
1.13809388272e-05
1.39618297638e-05
0.000185776290284
-0.000657079171444
6.97701844298e-06
0.000146655657422
4.28323582306e-06
1.41407768938e-05
1.57612060261e-05
1.53948357416e-05
-0.000364688275593
8.92051886438e-06
5.3076876214e-05
1.5921896202e-05
1.72412445439e-05
1.48562090878e-05
0.000279507045166
-0.000389475100752
-2.78885240746e-07
1.684921001e-06
-1.22382835349e-06
-2.36577980945e-06
5.1374033457e-07
1.18898313953e-06
-1.27518341557e-06
6.82953769465e-08
-0.000133678843084
1.46985011856e-05
1.69322237312e-05
1.30508726641e-05
0.000252161867076
1.085886761e-05
-0.00030931710142
6.95706518989e-06
1.24563265761e-05
9.55524438188e-06
0.000142930431721
9.44657952055e-06
-0.000317967153103
-0.000163572450317
-0.0128671333344
-9.93794329742e-05
0.000128246949788
-0.000103045544657
0.0128539171804
-0.000133820414329
0.0128572506798
0.000161591311081
0.0105100007985
-3.46411244992e-05
-1.99494518419e-05
7.61352972324e-05
0.0104754565232
-0.000107201279163
-3.90956585647e-05
0.0105198102479
0.0128396020008
4.09863035305e-05
-0.0126491655462
-5.33981520336e-05
-4.42085410503e-05
0.0126549036235
0.0126741436828
-1.81331273454e-05
1.46184852779e-05
4.61278178937e-05
-7.73435506273e-05
8.80911155437e-05
0.0104922412953
3.45636723193e-05
0.0104978694158
-6.83081289551e-05
3.35981007889e-05
0.0126766890204
-2.00810699538e-05
-6.49618850387e-05
0.0104819519073
-0.0126207865404
-8.61569190816e-05
-3.19361625275e-05
0.0126285676918
7.40353486579e-06
0.012596688761
-1.9024234126e-07
5.1750988866e-05
0.01049688651
6.89955999187e-05
8.60154912389e-05
0.0104907117757
-6.94970904916e-05
0.0104726989475
0.0126105687777
-2.25671392247e-05
0.0126404639846
-9.68802598462e-05
-4.90253727663e-05
6.25315842741e-05
6.61583637596e-05
-0.0126303965881
0.0126506185231
-4.97719352621e-05
0.000115734838719
-0.0104477759111
0.0104169341594
7.24120919198e-05
7.84749949634e-05
0.000110320380245
-8.66470174087e-05
0.0126553299568
7.78816644474e-05
6.86848173602e-05
-3.42265006472e-05
-0.0126780929743
-0.000109563735543
-7.49942862484e-05
0.012692813078
8.60191133161e-05
7.17350884898e-05
0.0126781550525
-5.44395965942e-05
0.000117644596594
0.0103932780705
8.02402337168e-05
0.000111946169324
0.000129784864714
0.0103712045919
-0.000131790268445
8.33329869501e-05
0.010382038948
8.95488730161e-05
0.012695214509
-5.76200012829e-05
0.0127101071567
-9.80242166225e-05
-7.70595302992e-05
8.81712899634e-05
7.51662542456e-05
-0.0127141730603
0.0127166825935
-5.9854986447e-05
7.47879473999e-05
-0.0103737071579
0.000112089573643
0.010376014866
0.000123990367884
0.000109978685477
-0.000141554262565
8.71585940555e-05
0.0127148227975
0.000102337870387
-6.13612561736e-05
-0.000611245747663
-0.0494211061992
0.0493140473159
0.000720930136733
3.22535339271e-05
3.31831237684e-05
3.75576028124e-05
2.770957066e-05
-0.000133156892485
-0.000734427698732
0.0498483789612
7.24413759229e-06
-4.69455912818e-06
2.80322072839e-06
1.8618650192e-07
1.73483191333e-05
-0.0498089549129
0.000672123769396
-0.00111275170687
-0.0499621376304
0.0500825612596
0.000926177324604
3.87504610977e-06
-2.98543436461e-06
-2.63868557941e-06
2.37896230425e-06
6.55771036504e-05
-0.000729889822916
-4.56065896839e-07
6.80824378392e-06
7.90275008385e-06
-2.00569293889e-06
9.80725355015e-05
0.0501919295758
0.000563522632593
-0.0501358254725
-4.73530451142e-05
-8.69193786994e-05
-0.000288944466691
0.00043005761856
0.000121778945432
-9.68374133919e-07
-3.60274242574e-05
-2.83909082353e-05
-2.83293540859e-05
-3.370529975e-05
-0.000581580503726
0.000651933639599
0.000124220884874
-4.26725595641e-07
-1.80173001015e-05
-1.73862515375e-05
-4.80342278511e-06
-9.74834396191e-05
-3.46023657351e-07
-5.70696334307e-05
0.000461187577618
-1.98595132127e-07
-9.3871346663e-06
-8.70450902274e-06
-1.24599566691e-05
-0.000323548506333
3.41895295959e-05
-1.83566450388e-05
-9.45323849817e-05
-0.000631435104059
0.000771890829782
7.74322070999e-05
-8.20308480978e-08
-2.03275171611e-05
-2.02246048275e-05
-1.91413966083e-05
-2.90045007317e-05
-0.000103276379816
-2.82326159189e-05
-1.81210665262e-05
-1.98452872165e-05
0.000747900600447
0.000119428824384
-1.32657824234e-07
-0.000616929574431
0
1.78222524032e-29
0
2.19582942731e-08
0
2.42307916852e-08
4.17434910835e-27
-4.61890859583e-08
-1.92110630387e-07
1.0447484586e-07
-4.7631030717e-07
-5.79558862694e-08
-4.3014928146e-07
3.96043419627e-07
-1.71724462822e-07
0
6.33861784224e-29
0
0
0
0
-6.24768405167e-27
-2.05007644934e-08
7.98316296377e-09
-5.01058392235e-08
3.49879046788e-08
-1.16518163576e-08
4.02116249263e-07
0
0
0
0
-2.25624836303e-28
3.24231767794e-30
0
6.29070400958e-09
2.08954030749e-08
7.60532669118e-09
2.10082962216e-08
6.12547594181e-08
-7.52701512865e-09
0.000229322030888
3.72504781272e-05
3.93472647124e-05
4.08998364607e-05
3.37310792563e-05
0.0491300026843
-1.62907817757e-05
-7.86166349597e-05
-0.0494157599836
0.0491148907616
0.000408889037191
4.21120079778e-05
4.28436837211e-05
4.34530971479e-05
3.60563344376e-05
-2.86093280081e-05
-0.0494303248217
2.36678637233e-05
-4.67240855713e-05
-0.0115914539092
1.07375241738e-05
0.0115793813844
1.08487539612e-05
0.0115904757766
6.15388504907e-05
2.05712323633e-05
-4.28651774848e-05
-4.34085687577e-05
-0.0115950840714
6.28131930651e-05
5.13613707906e-05
5.93537273901e-05
6.63387884476e-05
-0.000361240250516
0.01227908449
0.0122116678906
0.012178844182
0.0121611956679
-0.000205773979944
7.28808684274e-05
3.69167734462e-05
-4.30417802907e-05
-5.13271139232e-05
0.0115604408954
0.000513664934437
2.91205936877e-05
3.82087464427e-05
3.06041797931e-05
3.69027779912e-05
-7.85951004027e-05
-0.0495820863354
0.0496067279635
1.21329578083e-05
1.48837138242e-05
1.90857025928e-05
8.8550513467e-06
-6.97592180866e-05
-0.0496695927821
0.000591375235409
0.0115995899526
2.1158388479e-05
-4.15404006477e-05
-0.0116023624603
7.37456958574e-05
0.0116575122815
-4.65757094278e-07
-4.19195859565e-06
-8.56244228498e-05
-0.0116476858303
8.60323965434e-05
0.000975285823478
3.14628295569e-05
4.73897670683e-05
4.16130248555e-05
3.62533086048e-05
0.0491960004867
-0.000206653387058
-0.000173560683115
-0.000199332012595
-0.000165225023685
-8.17523945565e-05
-5.99941754699e-05
-6.72836464016e-05
-5.99696992546e-05
0.0495636930617
9.54817969856e-06
3.258813845e-06
6.59106661426e-06
1.15617981922e-05
-1.34350261246e-06
0.0496783385855
0.000928008242279
5.10205404725e-06
1.26810975646e-05
4.88334922552e-06
9.85386004349e-06
-9.96217336854e-05
-4.07329589229e-05
0.0115690785002
8.06043294847e-05
0.0114954836083
4.34152450794e-05
-2.85736135422e-05
-0.011522689166
0.000133167719609
-0.000133562521034
8.79777687136e-05
6.16732554812e-06
3.10489689777e-06
-9.15429703212e-05
0.0116507992552
0.011598843656
9.78636979742e-05
2.07764399844e-05
-4.16078324456e-06
-0.000108411906022
-0.0116177942169
0.0498376165061
-6.36376914852e-07
6.8717470406e-06
5.12219971288e-07
8.38909425906e-06
-0.00118267833285
-0.000104166610071
0.00129650616834
-3.96547809438e-06
5.98644584312e-06
3.55755283919e-06
-1.12336672718e-06
0.0503810332212
-0.000232521250806
-0.00161155240322
-2.31872932379e-05
0.0114779779549
0.000156651765812
-0.000163695829064
-7.83154596829e-07
-1.35528340883e-05
-0.0114822064356
0.000211189022898
0.011490078861
-0.00022842878537
0.000104546069668
2.43965750619e-05
-5.73829319074e-07
-0.000120123367255
0.0115809313282
0.000138019522897
-1.17422082655e-06
2.44454432444e-05
-0.000154622555969
-0.0115632290194
0.0115518739106
0.000791995468141
6.78026389206e-06
6.14711055483e-06
3.34282007175e-06
1.29664601763e-05
-6.93663872973e-06
0.0500769283776
8.61977473131e-06
1.3865066909e-05
1.39566927016e-05
8.61743222301e-06
1.00525939389e-05
-0.0499898714713
0.000649851480829
4.9459713e-06
0.0116587448416
8.78904224338e-05
-0.0116687266818
0.0116059000402
1.73718662004e-05
-1.25066141307e-05
-0.0116198696951
9.51688936807e-05
0.0116208771955
2.33192995643e-05
-3.35657174562e-05
-0.000105236434515
-0.0116321712427
0.000112476197943
0.00100458946315
1.81143612155e-06
-5.21152624773e-06
-5.89052929163e-06
3.54244198806e-06
0.0503375870241
4.27690718783e-05
0.0501675869886
8.32970274173e-06
8.71903095221e-06
6.98683863167e-06
1.0835859958e-05
7.08474190197e-05
5.2399717218e-06
5.28544567967e-06
7.39096292507e-06
3.04907261277e-06
0.0503220563218
0.000761811518451
6.74422192432e-05
-1.09535038521e-05
0.0115940649664
9.90357856022e-05
8.69036976958e-06
-1.52072127839e-06
-0.0115759620053
0.000130294719654
0.0115708213263
0.00012134267376
3.02969813721e-05
-3.97774864118e-05
-0.000112541218985
0.011607220692
0.00013968709236
2.39140227086e-05
-2.76024493612e-05
-0.000132680037277
-0.0115860686267
0.0115754389759
-3.70300911557e-05
0.0116066507064
0.000129944143565
-0.0116230093591
-2.36795645721e-05
-0.0115840836972
0.011572851408
2.349015937e-05
0.000144718958243
-2.77097003929e-05
-1.86602451331e-05
-3.32701586038e-05
-3.63185044706e-05
0.000355265141429
0.000128469556887
-0.000277600584925
-1.85443291551e-06
0.000355868629047
5.14421856353e-05
-3.01080941204e-05
-1.90546996452e-05
-3.93191465614e-05
-0.000270139382024
-1.45802092451e-06
-1.63168379657e-06
-4.78463005364e-05
-5.04295971212e-05
-5.6319328586e-05
2.11257202232e-05
0.000502985783343
1.10263385983e-06
-1.89000835583e-07
2.34456779577e-06
2.65712212955e-07
-1.32308323318e-06
-4.23523932423e-08
1.24359176665e-06
1.94459614302e-06
1.78589499818e-08
1.05337198185e-06
-1.63259679376e-07
-1.1809785738e-06
1.27293604817e-06
-7.31536351034e-08
1.58988799233e-06
1.80485123637e-06
4.04812873832e-08
2.61885962579e-06
-2.46797309005e-07
2.88097542861e-07
2.69286147151e-06
1.98357298913e-06
-1.12548050007e-06
2.21995444869e-06
-1.85108113077e-07
1.94462442443e-06
-1.66716949624e-07
3.52111994206e-06
1.45104940158e-06
7.9953010578e-05
-1.46760856358e-05
-1.93731464493e-05
-1.38446380728e-05
-8.41844370436e-07
-0.000206872182404
0.000269245979347
1.56063536202e-07
8.294902627e-07
1.53381273641e-07
-0.000178025460469
-2.83955698254e-07
4.54540813107e-05
0.000146894614156
-5.98745448087e-07
-4.01194548068e-05
-2.68311499238e-05
-2.44842350509e-05
-0.000121973727194
0.000419766233014
-2.37782731134e-07
-1.02387382904e-05
-8.15652033306e-06
-1.01995442913e-05
-1.3830177805e-07
0.000616815056008
8.3545555809e-05
-2.17790009185e-05
-1.75915238366e-05
-2.13849963937e-05
8.02835496052e-07
-8.94191927796e-08
-8.78749658959e-07
-2.48729968488e-08
7.56572431053e-07
2.78086726255e-07
-3.73804287637e-08
-4.12064517802e-07
2.2020576452e-07
-1.1035297036e-08
8.55173405709e-05
-2.89610013219e-07
6.85569156574e-07
9.6583014514e-07
8.70406379724e-07
0.000626085934952
-3.40602258881e-05
0.000766173756237
-1.36394781713e-07
-2.7462479003e-05
-2.09465297526e-05
-2.31821875063e-05
-1.5547540299e-08
7.70948875092e-05
1.38892204124e-06
-3.98147746499e-07
4.22531718952e-07
0.000778854981806
1.03080620192e-06
-4.25325930814e-08
-8.34365730576e-08
2.0289363223e-06
2.55928868488e-07
-2.00218147005e-08
-2.82239737618e-08
4.46157567615e-07
5.915612718e-05
-1.04070224225e-07
-1.88467975509e-05
-2.19804295472e-05
-1.78546880035e-05
-1.38016168183e-07
0.000634945719787
-2.38258536207e-05
-2.09876135217e-05
-2.24417326642e-05
-0.000495964522155
9.07976687466e-05
1.64668615471e-07
-2.27988129989e-07
-2.17137299958e-08
-1.05572027731e-08
1.2918630798e-07
1.38168747245e-07
-1.58547465106e-07
-1.42760892263e-08
6.7019404818e-05
-5.30323175952e-08
-1.82545551129e-05
-1.61229878711e-05
-1.68855740911e-05
0.000852239512532
0.000770902317792
-1.12797768457e-07
-2.1563237601e-05
-2.87285847578e-05
-2.32349327918e-05
-9.10907210295e-08
-2.35463363559e-05
-2.93341353581e-05
-2.36493166637e-05
0.000867941249078
9.3940765394e-05
1.34997557641e-07
-1.49750666436e-08
-1.60806086356e-08
1.81108490549e-07
1.48549205371e-07
-1.80990047392e-08
1.96276833019e-07
-1.82549031787e-08
0.0124100250583
5.14193909932e-05
-4.44670281575e-05
5.37185468043e-05
-0.0124338223613
4.97507706608e-05
-0.0124055940965
0.0123772063128
-2.97298735205e-05
1.1664691178e-05
-4.07766406462e-05
9.74037361768e-06
-0.0116005881354
-5.26760898802e-05
-0.0115780305936
2.72003760514e-05
0.0115684958582
6.52054097012e-05
0.0123821743374
2.66351475406e-05
-0.0115934424832
-2.89782036673e-05
-0.0124286638058
0.0124154007863
6.78859999741e-05
5.20853371736e-05
-0.0124400207281
-8.22092372219e-05
-0.0124247723778
0.0124074335268
9.86312729617e-05
-4.96089062776e-05
-0.0115821766763
0.0115752787658
-3.91127768086e-05
-3.7955750989e-05
5.3621166786e-05
-0.0115980237083
0.0123916147452
8.41415711372e-05
-0.012444577477
-0.0115971636408
-0.0123727016913
0.000117748381252
5.58062508185e-05
-9.38599608717e-05
0.0123556299899
-9.71289276267e-05
0.0123913785739
0.000120895903503
-5.41041741839e-05
0.0115497395164
-3.16324506771e-05
-5.42492799045e-05
-6.30121114047e-05
8.66556035808e-05
0.0115248814751
-7.34139834666e-05
0.000140371172284
0.0123807837758
-3.69159273899e-05
0.0115052967329
-9.37834704803e-05
0.0124597034291
3.17783767601e-05
0.00010331345449
-0.0124721134944
-0.0124429828071
0.000110528905854
0.0124269785758
-3.55754187909e-05
6.58567252126e-05
-0.011598478918
-3.80272045098e-05
-0.0116165432977
8.20465431935e-05
0.0116153071392
-0.0124580009655
0.000122148530379
0.0124465290368
7.46783445742e-05
-0.0116146310432
0.0124775920016
0.000116719294748
7.50512191714e-06
-0.0124864325994
-0.000135022329089
-0.0124939404757
0.0124930986953
0.000146728579902
-1.28444074406e-05
-0.0116291700301
0.0116364423841
-1.75011880431e-07
-7.7327118531e-05
-0.0116408560368
8.16076265816e-05
0.0124706099458
-0.0124988703627
0.000130384118855
-0.0116239419478
-0.000155205092446
-0.0124308697609
2.27532815299e-05
0.0124213686083
0.000173406677591
0.0124087141493
0.000130433871171
-3.25078345309e-05
9.37980778265e-05
0.0115498166648
-2.81601900689e-05
0.0115969653654
9.05181873653e-05
0.0123985404146
0.000144702435985
0.0115806907492
9.81126830882e-05
-0.000179429340523
0.0124220701803
7.82546443752e-06
0.000201993899029
-0.0123918957314
0.000207045992947
0.0123841698671
-0.00018044919284
-2.56664503019e-05
0.000112084085317
-0.000107186454149
-7.02828719419e-06
-0.0115546714878
0.000128055292854
0.0115289831466
-0.000156740679287
0.000232125250153
0.0124262544899
0.000112383590571
-0.012461269221
0.000183617500818
1.29397714367e-06
0.0124589031144
-0.000157357934389
0.0124884357551
0.000168488842689
-2.95409860107e-06
0.0116258843597
-2.99828476429e-06
-9.46450506878e-05
0.0116405310914
9.07416214875e-05
0.0124886585338
0.00019169081444
0.0116145871271
0.0124599655732
0.000210400377175
-4.50405068034e-06
-0.00024038040968
-0.0124903414682
0.0124964092597
0.000242346185474
7.10714406377e-06
-0.0115905787231
0.011569075974
-1.92126692003e-06
-0.000100361332348
9.39764925113e-05
0.0124636230351
0.000215940866156
-0.000270552842636
-0.0124329117495
2.99582922028e-07
0.0124516916233
0.000293054302161
-4.1137209094e-05
0.0123844246233
0.000235983637381
-4.69302835338e-05
-0.000212417677931
-1.51477996432e-05
0.000179812236287
0.011477048318
-0.00019235048318
-2.18720428396e-06
0.0115128042941
0.000149970123925
0.0124066705822
-4.90445046113e-05
-0.000258797255322
0.000260380551422
-3.31071126023e-05
0.0115106304741
0.000171312156465
-0.000303371262669
-1.42216473319e-05
0.0125114756511
0.000326233824455
-6.77275431581e-05
-0.0124794806558
0.00033501864289
0.0125720227607
-0.000341959500016
-9.90025043601e-05
-2.20838979502e-06
0.000198911496195
-0.000214193411652
-0.0115028240947
4.39984943152e-07
0.000191771664735
0.0115003356515
-0.00029512452861
-8.30185324771e-05
0.000183245183524
0.000348763025685
0.0125817341034
-8.33581926381e-05
-0.012470836791
0.000291042952649
-1.93086842538e-05
0.0124917011857
-0.000265967885154
0.0125030559171
0.000265561846606
1.21949209634e-05
0.0115488809596
4.15607925918e-06
-0.00013423037583
0.0115674858506
0.000115410022283
0.012519577488
0.00028715378456
0.0115368441403
0.000314534578847
-3.19649157737e-05
0.0125317522143
-0.0125469680706
-0.000328292798461
0.000318213403177
0.0125878258447
-0.0115352474666
3.58474274508e-05
0.0115258941914
1.73624986165e-05
-0.00014729840553
0.000127210631283
0.000308323916338
0.0125872604862
-0.000187192056355
-0.012529558583
1.13405565946e-05
0.0125348237308
0.000177789290853
0.0125119966297
0.000169552461929
-0.0125127520127
-3.57704996953e-06
8.84394347629e-05
0.0116412497985
-4.47682284868e-06
0.0116610989659
-0.0116778377482
8.71314595451e-05
0.0125155561876
-0.0125283989182
0.000164111466951
0.0116463653558
8.8680646164e-05
-0.000206645676961
0.0125398005189
1.52208410747e-05
0.000193181348885
-0.0125191339949
0.00022800384139
0.0125269554867
-8.80414254808e-06
9.0822091568e-05
-2.44391475275e-05
-0.0116283695114
9.82604468881e-05
0.0116143085843
0.000209226459742
0.012547100999
9.26116310406e-05
0.0125546806352
0.000174318182576
2.32916111398e-05
-0.0125505897394
-0.000185282776613
-0.0125659894178
0.0125714845577
0.000160042797963
-3.21122314079e-05
-0.011628286595
0.0116154867371
-2.4037449264e-05
-9.71435136655e-05