/*--------------------------------*- C++ -*----------------------------------*\
| =========                 |                                                 |
| \\      /  F ield         | OpenFOAM: The Open Source CFD Toolbox           |
|  \\    /   O peration     | Version:  v1906                                 |
|   \\  /    A nd           | Web:      www.OpenFOAM.com                      |
|    \\/     M anipulation  |                                                 |
\*---------------------------------------------------------------------------*/
FoamFile
{
    version     2.0;
    format      ascii;
    class       volVectorField;
    location    "7.75";
    object      U;
}
// * * * * * * * * * * * * * * * * * * * * * * * * * * * * * * * * * * * * * //

dimensions      [0 1 -1 0 0 0 0];


internalField   nonuniform List<vector> 
28582
(
(0.814881216989 0.00315986339193 -0.000511857742841)
(0.815940101693 0.00139772135316 -0.000252409765376)
(0.815676282934 0.003465974434 -0.000263266918574)
(0.816153812931 0.00173761577467 0.000414073725173)
(0.817384586548 0.00432671773967 -0.000800251670865)
(0.816662757309 0.00243954927096 0.00074202299271)
(0.820336933643 0.00737254270927 -0.0015958105295)
(0.819542456925 0.00492942752234 0.00312217122262)
(-0.207750009695 -0.0936486710971 0.00659229399637)
(-0.134578835216 -0.0843181553058 0.00909976841085)
(-0.55736540016 -0.162636897005 0.632884482452)
(0.820262340012 0.00625108423668 0.00194726305714)
(0.781566716781 -6.04088596351e-05 -0.00757310907326)
(0.776786372918 -0.00154265309797 0.000300631535061)
(0.816910910512 0.00315901550044 0.00342339039283)
(0.815103212671 0.0031228214494 0.00491697891555)
(0.774498044161 -0.00314906791174 0.00191839712062)
(0.812881429067 0.00453946541936 0.00639304422906)
(0.811871476208 0.00503694731581 0.0073642510322)
(0.813947787241 0.00602784984124 -0.00105741180619)
(0.816311237983 -0.000982036004417 -0.000290645949444)
(0.81513591723 -0.00179481430339 -0.000519475948597)
(0.814432392433 0.00617936279161 -0.0023088786986)
(0.816157888861 -0.00073206424396 0.000388555854339)
(0.814991044621 -0.00184005501615 -0.000122271520934)
(0.815786292489 0.00688173331353 -0.00572335239003)
(0.815655428405 -0.000313840683268 0.00025514215633)
(0.816503070472 0.00771729602956 -0.0100614596412)
(0.8163282891 0.00198972798017 0.000766449367501)
(-0.130490468291 -0.0553496320641 -0.00705324523553)
(0.381355480548 0.587819131287 0.291240911825)
(-0.39738876971 -0.26556196286 -0.428219248896)
(0.822051292111 0.00599478905701 -0.00879869524403)
(0.820841308379 0.00737041189022 -0.00772549523149)
(0.777781858187 0.00565945530157 -0.0148192553048)
(0.780294109464 0.00556962316416 -0.0118738687521)
(0.820329648224 0.00966157870218 -0.0151120508074)
(0.814193485022 0.000303770557667 -0.000997749847155)
(0.814585191692 0.00236632932927 0.00237261508995)
(0.81232063241 0.000596081978485 -3.36791395884e-05)
(0.811637235208 0.00322822645184 0.00486081472911)
(0.773719241466 -0.00790460890522 -0.00135051574077)
(0.810541778158 0.00387178927299 0.00569999309444)
(0.807604578387 0.00183210107554 0.00435636083374)
(-0.226174226587 -0.124982124679 0.0184349411074)
(-0.0248604992313 -0.0926850376266 0.0115569159273)
(-0.166699431373 -0.0309435114703 -0.173334118747)
(-0.205144767837 0.0740191349639 -0.0901286723711)
(-0.177023681084 -0.116093241959 0.0166108451486)
(-0.110187103315 0.109439773468 -0.177726527189)
(0.823123803673 0.0101171680677 -0.00774343695612)
(0.822151294137 0.00956549871111 0.000740063868709)
(0.780582465294 -0.00012311584129 -0.00395346547886)
(0.780717096458 0.00126117824094 -0.00453027542509)
(0.822589059043 0.010068811977 -0.00520259560344)
(0.778879615472 0.000566059319399 -0.00075782630707)
(0.822961538534 0.00944827638818 -0.00198402340344)
(0.820605812337 0.00875584869928 0.00189750431913)
(0.82005804693 0.00805299515752 0.0031119094711)
(0.779676500605 -0.000999969952996 -0.00159063122219)
(0.775175866948 -0.00186793778402 0.00352309946193)
(0.819339728571 0.00814362206429 0.00544890395726)
(0.778071862162 -0.00100382560883 0.00130583246895)
(0.821247423279 0.00838990998996 -0.000637088545665)
(0.816036867865 0.00598469902469 0.00723742588339)
(0.818787372521 0.00701306774037 0.00314299582003)
(0.772931979498 -0.00423570698022 0.00275302442089)
(0.772809091535 -0.00290099395195 0.00474180794659)
(0.817929461674 0.00715629652176 0.00536499532369)
(0.771392842591 -0.003935821616 0.00561410586094)
(0.817071295201 0.00601872094502 0.00514166388498)
(0.81398042844 0.00435515963124 0.00469881955419)
(0.770086509963 -0.00652603966524 0.0030005801219)
(0.768794085777 -0.00530359563183 0.00510395141723)
(0.814940386061 0.00552263872701 0.00619981612475)
(0.770936852439 -0.00536125210138 0.00292634217266)
(0.769643204628 -0.00446958850521 0.00572093002544)
(0.815789229803 0.00549502205849 0.00424190248244)
(0.810999159703 0.00470988753776 0.00969396124406)
(0.768648729664 -0.00437662186411 0.00457752591165)
(0.768130154677 -0.00278431473565 0.00826078865965)
(0.814035375246 0.00570486782293 0.00737549930186)
(0.76828072963 -0.00253042925761 0.00879291816841)
(0.813449367152 0.00531209286057 0.0094838809281)
(0.769274650939 -0.0039536270065 0.00543861412137)
(-0.161987841976 -0.0199722765139 -0.0149948689678)
(-0.000716181044663 0.198395259359 0.126500060151)
(-0.0984340140408 0.0129091552702 -0.022516775066)
(-0.20997664206 0.00650580819534 -0.0139256595852)
(0.0115714453143 0.164029088949 0.1685052593)
(-0.0772803658869 0.215129810167 0.121631134948)
(0.0186791669173 -0.10408308293 -0.00145086548344)
(-0.234818655245 -0.0173004653105 -0.0223331681944)
(-0.229726336978 -0.0424032150313 0.0641353304134)
(0.0618324492225 -0.113065415242 -0.00666642285883)
(-0.186642987714 -0.0255208647851 0.0240653769104)
(-0.100000844372 -0.0560901502337 -0.0104360302603)
(-0.122935587621 -0.0514394592389 0.0942236135982)
(0.819334468835 0.00790153047659 -0.0198463248997)
(0.815689725276 0.00771285578739 -0.0189096500869)
(0.77870366154 0.00565504396349 -0.014737389947)
(0.777229052506 0.00257996146117 -0.0146260423165)
(0.819955986705 0.00688870262622 -0.0199092121022)
(0.815097636702 0.00850763283792 -0.0186119930882)
(0.778131555277 0.00290161459506 -0.0150004488233)
(0.821092133094 0.00734250199822 -0.0172491954737)
(0.825065077873 0.0055997943858 -0.0152464701037)
(0.780195046766 0.00542030045194 -0.0138963931579)
(0.779527073877 0.00344528617147 -0.0122744470137)
(0.821956825722 0.00611889539485 -0.0169000654593)
(0.824303665963 0.00698182540394 -0.0154135803173)
(0.779366953655 0.00298633412553 -0.0142764628477)
(0.779163952232 -8.1093779975e-05 -0.0127109554115)
(0.779491521709 0.000226696248068 -0.0112136951139)
(0.823613477441 0.009541204864 -0.0132360068356)
(0.820559739361 0.00876771013931 -0.0160482426344)
(0.780070628768 0.00118485023598 -0.0116167616964)
(0.823977512113 0.00847706880524 -0.0140688833992)
(0.779607656121 0.000760704758325 -0.0134433527568)
(0.812808882196 0.00321860910374 0.00332616067166)
(0.77000477178 -0.00767770579835 0.00265630737478)
(0.76904886551 -0.00562311307686 0.00427077659834)
(0.810905902865 0.00244499844979 0.0028216824477)
(0.770855572075 -0.00832954710493 0.00149474485681)
(0.811925470555 0.00249752170687 0.00156210890101)
(0.770298085571 -0.00570785895603 0.00299328394856)
(0.810246330087 0.00129064808776 0.00171854679264)
(0.811333263573 0.000639554149284 -0.00210086930016)
(0.772025676612 -0.00840244252723 0.000392565473889)
(0.773402781935 -0.0056077113422 -0.000587583542148)
(0.811323217752 0.00150396808425 0.000563033390929)
(0.810090325668 0.000173290365306 -0.00138456336124)
(0.771749345396 -0.00585480692848 0.00191437935719)
(0.808678367125 0.00316384402449 0.00581687259498)
(0.809599446837 0.00377691133902 0.00765542385699)
(0.768948564597 -0.00455306118527 0.0037522026025)
(0.768456260997 -0.00305308744991 0.00714131828908)
(0.769730705712 -0.00302459421038 0.00581427149824)
(0.809663931045 0.0030920181434 0.00389046313762)
(0.769974663677 -0.00454583973312 0.00244634170407)
(0.771383428097 -0.00347170458478 0.00468278503833)
(0.773354963919 -0.00382400133138 0.0010435048029)
(0.807281226578 0.000925728335122 0.000143262438487)
(0.808834414841 0.00192716237896 0.00245938510011)
(0.773442463988 -0.00496709939933 -0.00174027422449)
(0.808522794571 0.000784955460599 -0.00129430513675)
(0.771713165007 -0.00478713122966 0.00137913457207)
(0.81487810966 -0.00217032391461 -0.00143822995359)
(0.813743618917 -0.00167732101246 -0.00257247159875)
(-0.0852885030229 -0.0519606696756 -0.012274948699)
(-0.0895675677785 -0.182094192732 -0.461016040921)
(0.821324398256 0.00653679109261 -0.00385292738591)
(0.780861424448 0.000592969124523 -0.00961161974663)
(0.811796828027 -0.0013423246523 -0.00262822999674)
(0.812586420839 -0.00306389586357 -0.00386272014296)
(0.774744104281 -0.00764712691782 -0.0023139731907)
(0.774577067073 -0.0046854127541 -0.0014760969816)
(0.77504886456 -0.00735180185987 -0.00731813445488)
(0.81376934531 -0.00363220823442 -0.00339473838232)
(0.815679218021 -0.00427406872729 -0.0020064996362)
(0.774192824713 -0.00848092173826 -0.00798681633909)
(0.770211869499 -0.0108117017238 -0.00537420758862)
(-0.208516662563 -0.0831696372421 0.00212316466741)
(0.0423844444587 -0.111618576887 -0.00926226764745)
(0.0380569359536 -0.105902047431 -0.00686775770175)
(-0.0605095197927 -0.0368387126265 0.0884711041454)
(-0.118166062375 0.00552265987988 0.0715737932555)
(-0.0775240839843 -0.00896977313511 0.131535991291)
(-0.00669567555143 -0.0828185822361 -0.00351043366775)
(-0.0636183916401 -0.0520777164311 0.00140776054709)
(0.824309894712 0.00743120858205 -0.00692573518772)
(0.823563255523 0.00912176926707 -0.0106303480242)
(0.781221595154 0.00133505898102 -0.0101120361529)
(0.779970287588 0.00105166898532 -0.00659045668246)
(0.824148671515 0.00782023656859 -0.0110108785924)
(0.78058020287 0.00172424323194 -0.00779965753769)
(0.823550799797 0.00862873885169 -0.0056393017792)
(0.810843153221 -0.00296196073723 -0.00364940125973)
(0.811687978649 -0.000649089663301 -0.00210188391602)
(0.774943758534 -0.00685803247743 -0.00229469286793)
(0.774291631384 -0.00561086792635 -0.00182583883829)
(0.812242627062 -0.00195308217618 -0.0033444570701)
(0.810372455211 -0.00139382562886 -0.00169022430505)
(0.774624571739 -0.00504946651685 -0.00236411184132)
(0.80928908739 -0.00239524699307 -0.0048403198797)
(0.807369149408 -0.000240657826 -0.00142927677804)
(0.774555419763 -0.00517753919435 -0.0032966046948)
(0.775232036575 -0.00530409162878 -0.00401933001153)
(0.80875892808 -0.000831195144661 -0.00209027686487)
(0.774878214346 -0.00504882952498 -0.00503989033844)
(0.807914405441 -0.0016758786965 -0.00512113673025)
(0.809992856977 -0.00363845001913 -0.00523162340766)
(0.810807137619 -0.0035985457164 -0.00845341813827)
(0.775026721009 -0.00565131545635 -0.00675013537495)
(0.775472839301 -0.00640874451749 -0.00612331711621)
(0.811301904843 -0.00469655446095 -0.00704488557598)
(0.775064166281 -0.00536048746787 -0.0059902309407)
(0.808862775255 -0.00250103881192 -0.0060587206382)
(0.81333542778 -0.00528333414353 -0.0072065199873)
(0.811876988575 -0.0039057429264 -0.00844905654629)
(0.774366017573 -0.00637731289256 -0.00731512342386)
(0.772672584565 -0.0095381220515 -0.00752536226213)
(0.812194214481 -0.00512034879853 -0.00708354812409)
(0.77304905679 -0.00707054980313 -0.00659384151156)
(0.813267148345 -0.00408100319015 -0.00858613384853)
(0.814200910093 -0.00536070884871 -0.0066487665739)
(0.815297446113 -0.00415685710115 -0.00602148602481)
(0.770590218704 -0.00870711414713 -0.00509938284898)
(0.771570586482 -0.0103585206395 -0.0069936199403)
(0.815163295104 -0.0052769648366 -0.00563135673779)
(0.77201961312 -0.00795233430175 -0.00651186534416)
(0.8144663374 -0.00425229602638 -0.00738790420562)
(0.791709490592 0.010775581976 0.00202536454806)
(0.798191476676 0.0115557340109 -0.000366684289097)
(0.800595851848 0.0168953140725 -0.00106496722808)
(0.802225989773 0.0103151759059 -0.00163331173425)
(0.211231978425 0.0789297233603 0.00508778125475)
(0.347302727983 0.0760493159853 0.00345226015707)
(0.248384370128 0.0248348816082 0.00130531262232)
(0.431014593407 0.0536247333129 0.000728404784107)
(0.411217359001 0.0693194558103 -0.000256474186015)
(0.263696912104 -0.00803928181688 -0.340825527035)
(0.360336691408 -0.0508656429415 0.467727379768)
(0.175151943472 -0.0338686459788 -0.291864354002)
(0.420031310541 -0.156560606954 0.0661073657706)
(0.133231735883 -0.018742239848 -0.266707310981)
(0.36935026685 -0.0719021931233 -0.131739955232)
(0.789385884306 0.00256628833515 0.00139400175247)
(0.790539048927 0.00506707850987 0.00173572665086)
(0.784650352655 -0.000187914376586 0.00187231059394)
(0.785553716275 0.00378807535608 0.0014704274547)
(0.788099803143 0.00753976248075 0.00409260452395)
(0.785122669371 0.00436545933964 0.00146305503775)
(0.792483647435 0.00714094119465 0.00220168095606)
(0.795165390225 0.00892258709712 0.00167135672532)
(0.786295422326 0.00438194691682 0.00151203222278)
(0.78773086008 0.00609188617304 -1.8661071032e-05)
(0.790941211106 0.0142234319394 0.00464750800222)
(0.795307183238 0.0115186426846 0.000920328257441)
(0.795452622544 0.0156042544429 0.00174765852861)
(0.786017841787 0.00503588875042 0.00171821181793)
(0.782564010879 0.00911626288814 0.000508549751209)
(0.787903972986 0.00644344478546 -0.000214501492408)
(0.786980728296 0.00714395646437 -5.4969481889e-05)
(0.797797553164 0.0195837903757 0.001648374157)
(0.800047722266 0.023758707077 0.00285017662721)
(0.78146496286 0.011310180131 0.000610895058515)
(0.783446094505 0.0158449742589 -0.00096987378306)
(0.786321873389 0.00762159375502 9.51967720915e-05)
(0.785426006773 0.00954850051448 -0.00119054154572)
(0.798662806062 0.0142161894165 0.000199776979803)
(0.800526515477 0.0117087025477 -0.000195285429904)
(0.788171001927 0.00572158374015 -0.00026655502184)
(0.787293139335 0.00627600838762 0.000872193089868)
(0.788471737897 0.00741140075928 0.00224454487837)
(0.802484387282 0.0187718340902 -0.000551311292265)
(0.801739748414 0.0134672968993 -0.00118857892794)
(0.803259391101 0.0141117595544 -0.000984962175187)
(0.786847743689 0.00658714572678 0.00117773756417)
(0.785859873767 0.00885398895055 0.000818792830511)
(0.788294977825 0.00783585528448 0.00294284690728)
(0.787097838633 0.00882143410457 0.00281026113275)
(0.788617750852 0.0084013089423 0.00267578477286)
(0.787204165393 0.00968402295523 0.00250357323315)
(0.18236989446 -0.0484286667903 0.0015696949527)
(0.183902571583 0.0119573446849 0.0019014334521)
(0.246935435188 0.026854258376 0.00630146345673)
(0.208735408712 -0.0455195938609 -0.278784829721)
(0.319812303254 -0.010455380402 -0.324827167438)
(0.223436850961 -0.0371520079812 -0.231508218851)
(0.346342725833 -0.0161395392281 -0.280171284617)
(0.317771612269 0.0308429125006 -0.278130528652)
(0.174243010881 0.0509764177812 -0.0697043900905)
(0.345478722262 -0.0209297790087 -0.20314120571)
(0.233573910562 -0.00757791267326 -0.0669809620353)
(0.143522564274 0.0551017866024 0.000887177380052)
(0.129740238313 0.0420740313634 -0.0010080401914)
(0.304101603308 0.0968286712084 0.00643965644607)
(0.210593253173 0.0581028204382 0.00276698843228)
(0.319311006269 0.0713991586756 0.00512144376495)
(0.203443627544 -0.0457479856633 -0.158653280654)
(0.307685214705 -0.0353443106624 -0.160759879515)
(0.191653946097 -0.0371511427775 -0.0890542958125)
(0.295352554115 -0.0196239217212 -0.12262770306)
(0.364783556633 0.0455906048153 -0.000907038424495)
(0.413459655055 0.0683622414972 0.00586037427575)
(0.463627022441 0.0526357307169 0.000451047419959)
(0.332838727986 -0.0516877089015 -0.084412856204)
(0.291491641274 -0.0365573633927 -0.0150416119623)
(0.324231554407 -0.0379133881321 -0.111233959226)
(0.305585556726 -0.0531186483971 0.00251845792088)
(0.339895813514 0.043217378382 0.0018200746675)
(0.348001493275 0.0380489543626 0.000564974706482)
(0.17826535473 -0.0307645953161 -0.113952703699)
(0.247687416947 -0.0276751116135 -0.135040283025)
(0.241823743439 -0.0147770118493 -0.162246027258)
(0.488111940753 0.0456824236774 4.17642994576e-05)
(0.431427025715 0.0507636694304 -0.000618496957673)
(0.487379925651 0.0442932155837 -0.000883855294219)
(0.323327326045 -0.0474833514234 -0.112076109916)
(0.328302284043 -0.0489136386842 -0.0583066357084)
(0.32790691921 -0.0259209163987 -0.14653148496)
(0.34650793322 -0.0222766466675 -0.0997595727361)
(0.794916826589 0.00310998743546 0.00351687448583)
(0.793682790367 0.00259116984001 0.00350630196208)
(0.784724784356 -9.38636779047e-05 0.00179334601885)
(0.784581132705 0.00162412065431 0.00234848193465)
(0.793959973542 0.00371613063277 0.0037869049489)
(0.784695514594 0.00157975186457 0.0023592641764)
(0.794557711696 0.00252912849511 0.00292429010004)
(0.795478911148 0.00385776472616 0.00372497605958)
(0.795188105 0.00560651488802 0.00356025162657)
(0.784883884538 0.00221690754888 0.00215619125864)
(0.785398854532 0.00326380235971 0.00175266049412)
(0.794474126264 0.00479026458882 0.00374879945606)
(0.796039219856 0.00488842721945 0.00284733188408)
(0.784938788998 0.0021039868005 0.00229369360005)
(0.792511597556 0.00673960408137 0.00460623114744)
(0.793939904693 0.00697163099261 0.00346510211365)
(0.784489915391 0.00263330833247 0.0019729171536)
(0.784035840633 0.005359245254 0.00141385100238)
(0.792844407502 0.0052163389698 0.0043629078969)
(0.793739111326 0.0081060658844 0.00483735143685)
(0.783180944639 0.00314914444141 0.00171692348997)
(0.797968395909 0.00606194125895 0.00211648017543)
(0.796105411852 0.00664566499217 0.00323377787289)
(0.78597560465 0.00384908877093 0.00171239698445)
(0.787004175678 0.0055725532648 0.00138814301416)
(0.797084369035 0.00564918862005 0.00242921946246)
(0.797241998564 0.00723434400728 0.00302027107925)
(0.786479607331 0.00490805793032 0.00147758216893)
(0.798946857341 0.00687520636635 0.000701582507822)
(0.799603933652 0.00877592195148 0.000661677963165)
(0.787259675688 0.00545663409131 0.000222868434269)
(0.787007011813 0.00554679505989 2.53814975649e-07)
(0.798425298753 0.00808858059277 0.00134515577054)
(0.799856112659 0.00768297499718 0.000167675749559)
(0.78663132944 0.00491476074351 0.00024751390534)
(0.795959290163 0.0101762595851 0.00262980227111)
(0.795259347377 0.00798997650029 0.00293557449974)
(0.785230180514 0.00583094917598 0.000754682735957)
(0.786886107776 0.00619108724159 0.00112839562955)
(0.79466522658 0.00947283840756 0.00322118302395)
(0.796514933184 0.00853827540116 0.00223553175653)
(0.786487310891 0.00674804241058 0.000240826424374)
(0.795897237503 0.0118879081738 0.00134436786534)
(0.79423066951 0.0120835692078 0.00280361974183)
(0.783769012556 0.00731727496223 0.000628608644737)
(0.784287716975 0.00893792620338 -0.000889730929876)
(0.794522897077 0.0106339478363 0.00235257199918)
(0.795857199486 0.0137869907444 0.00174591515429)
(0.785124289407 0.00779282713423 -0.000255434917778)
(0.797740790669 0.0112220235467 0.000696144000507)
(0.799530608455 0.0101969556221 -0.000102661352998)
(0.787418032878 0.00597098993992 6.1587404573e-05)
(0.787850044148 0.00671003348423 -0.000171657141983)
(0.798138944212 0.00944789152173 0.000491001537314)
(0.799513868174 0.0118251848287 0.000600833324694)
(0.787180882399 0.00636194316538 -0.000384239879908)
(0.798078081393 0.0130520592228 -0.000156144913803)
(0.79973105166 0.0153733902428 0.000533938097533)
(0.785764511928 0.00802200156687 -0.000849044825458)
(0.787492352537 0.00693764561406 -6.91128381664e-05)
(0.797880122689 0.0150908531836 -0.000215301568829)
(0.799647460396 0.013472839034 0.000214165216737)
(0.786563961042 0.00707476455494 -0.000502384489359)
(0.797452665779 0.0180314602505 0.00110787387553)
(0.794427459755 0.013812572414 0.00223649036608)
(0.781520799731 0.0132618259477 -9.59274433555e-05)
(0.783224796993 0.0104449449278 -0.000459823162939)
(0.794828902202 0.0165272641269 0.0023066325999)
(0.796708791409 0.0156778829184 0.000792228376681)
(0.782931536007 0.0120640376811 -0.00102036431115)
(0.799270361159 0.0203160673205 -0.000258520783179)
(0.79976023329 0.0215035586849 0.00290066865741)
(0.782318226495 0.0148611574438 -0.00087167666482)
(0.783868412383 0.0138354292738 -0.00145429128085)
(0.796820595441 0.0190179075158 0.00124851023649)
(0.783138061851 0.013037719626 -0.00123712455765)
(0.801870441669 0.0220476102977 0.0013618298495)
(0.799427092115 0.0187122705595 -0.000903941661613)
(0.800358014491 0.0170066316115 -3.53238452441e-05)
(0.784973819503 0.00929467588949 -0.00079381055198)
(0.785627637716 0.00821978554191 -0.000289225831328)
(0.798690494498 0.0169143927477 -0.000737431056379)
(0.801050169926 0.0185626584276 -0.000118178135961)
(0.78440485669 0.0106104223152 -0.00112768195296)
(0.801059051072 0.0204967720536 -0.00205119019223)
(0.804051655467 0.020919771073 -0.00119959519321)
(0.784689388811 0.0122596510176 -0.00208634899749)
(0.785263885155 0.00896317140741 -0.000365661504158)
(0.802378802556 0.0201116394731 -0.00135448867795)
(0.784264983159 0.0116650525228 -0.00124555303383)
(0.803200213138 0.0217122114153 -0.00165660279002)
(0.802236155763 0.0117664718703 0.00087628151334)
(0.800772255161 0.0107501734407 -0.000363538517795)
(0.788093454578 0.00576339679464 -2.26479910967e-05)
(0.788482051314 0.00613278530997 0.00048099824378)
(0.801050495004 0.0120857109911 0.000420967076495)
(0.801866817152 0.0106738937501 0.00013806025798)
(0.788402310652 0.00628868082453 0.000643906658775)
(0.802517593004 0.0129098749747 0.000612713898349)
(0.801508259153 0.0151775301685 0.000590482887075)
(0.787579431011 0.00595072650738 0.0006043051192)
(0.787852980784 0.00681325485597 0.00167214001961)
(0.8012976814 0.0135490446405 0.00027991481612)
(0.802798707268 0.0141242385608 0.00129519469597)
(0.788028836799 0.00648335929396 0.00109991429121)
(0.803435603429 0.0117881126721 0.00100118825872)
(0.80447240674 0.0111479095721 0.00156562354424)
(0.788040526692 0.00664752009336 0.00207913540387)
(0.788669511206 0.00681141235421 0.00177181644124)
(0.803736872035 0.0126212928989 0.00160236357487)
(0.804110476144 0.0105961863465 0.000982600445305)
(0.788327439128 0.00612552255803 0.0015923666469)
(0.803426331516 0.0161970228711 0.000963082554212)
(0.801953004768 0.0166070850739 0.000268983291117)
(0.786615061381 0.00735987922947 0.00125339994184)
(0.787497644447 0.00700240088849 0.00201833965404)
(0.802543743159 0.0178767565094 0.000222920994965)
(0.803031613236 0.0152845058727 0.000828472044615)
(0.787177445503 0.00747235737559 0.00206833026987)
(0.803995995945 0.0170792065327 0.000298177227192)
(0.804754386358 0.0193685472438 -0.000584844742521)
(0.785898154551 0.0078615031507 0.00131175172253)
(0.786221399029 0.00866608589357 0.00198081018477)
(0.803468028985 0.0190415183641 -0.000556869864861)
(0.786798888718 0.00785420225436 0.00209341020558)
(0.805040769823 0.0171257166479 0.000248933699543)
(0.804109254598 0.0143190670718 0.001541239863)
(0.804534991064 0.0118667550813 0.00156353481294)
(0.787860098717 0.00709352439825 0.00253468306185)
(0.788111196155 0.00831544386308 0.00309545507526)
(0.803852546512 0.0135677618712 0.00139651042565)
(0.80462704514 0.0124453204603 0.00181646589756)
(0.787744467198 0.0077022705236 0.00265395818196)
(0.80438587092 0.0151363299947 0.0010705553563)
(0.805093940474 0.0130418828934 0.00106278533214)
(0.786755547264 0.00895069352333 0.00257456137393)
(0.787732011813 0.00842103512951 0.00312824470388)
(0.804676478596 0.0130216307932 0.00136421185867)
(0.787429780941 0.00825464878151 0.00272632767856)
(0.805070314442 0.0150860285914 0.000727642119062)
(0.805115581738 0.00872415040841 0.000700272064036)
(0.804826559772 0.0099752678305 0.00153783981919)
(0.78834791643 0.00899199425454 0.00283425858887)
(0.788815966471 0.00887053352013 0.00182711101831)
(0.804857896982 0.0103908967776 0.00169183216095)
(0.805056608121 0.0083447822352 0.000556567120017)
(0.788435038974 0.00943025157773 0.0019505696141)
(0.805097212758 0.0109795788035 0.000869998522612)
(0.787866234295 0.00932413386779 0.00270340329009)
(0.804822703698 0.0108253690659 0.0012529341695)
(0.817016701144 0.00343555066445 -0.00080143480413)
(0.818235424252 0.00137982271567 -0.000477000212275)
(0.818254540846 -0.000832709865168 -0.000391582695782)
(0.815011131604 -0.00371235533133 -0.00040751302991)
(0.810245322797 -0.00509523124089 -0.000166128089033)
(0.824879586899 -0.0441499254788 7.56392865214e-05)
(0.817783710806 0.00354417114279 -0.00108978363454)
(0.818548986684 0.00159050178233 4.44624975861e-05)
(0.818383837309 -0.000358904185009 0.000143590782784)
(0.815241924104 -0.00390538058026 0.000329658905021)
(0.810800858939 -0.00554131698809 0.00191280836652)
(0.826441820204 -0.0463381951091 0.00269397950467)
(0.816277408336 0.00575018853654 -0.000644906227641)
(0.812983879578 0.00586012127487 0.000366360660969)
(0.791146193369 0.00997131941179 0.00226233400147)
(0.787687454262 0.00997562889362 0.00139920161827)
(0.785040598384 0.0112089942604 0.00280450055451)
(0.78017138579 0.00897384865639 0.00637135554124)
(0.784739078506 0.00871851273804 0.00395850574081)
(0.739196776959 -0.0295467482205 0.0266678592264)
(0.826074407382 0.00455430360986 0.000327746095746)
(0.823971340259 0.00264095339588 8.53947609695e-05)
(0.821337153141 -0.000748103481638 -0.000726394055496)
(0.818986995581 -0.00255135011153 -0.00210768154664)
(0.818421481438 -0.00400518504174 -0.00319196781382)
(0.818661058539 -0.00659258253005 -0.000917646345056)
(0.813448701771 -0.00515965633672 0.00324843071468)
(0.819945534279 -0.0782584049507 0.0116357606185)
(0.820092206315 0.00542640624088 -0.0013423880655)
(0.82306216594 0.00317037130105 -0.000723463166614)
(0.822814523382 0.00189344704443 -0.000944683795971)
(0.821416629111 0.00062236239637 -0.00129273058626)
(0.820091754076 -0.000696971308606 -0.00153447701)
(0.820557265605 -0.00429829471284 -0.000295303260239)
(0.814301895254 -0.00620884142545 0.00200395615506)
(0.825660124352 -0.06297588366 0.00484160308806)
(0.816554054526 0.0065414812419 -0.0011627916974)
(0.819720837784 0.00270935774731 -0.000530131058779)
(0.820062368365 0.000298318207479 -0.000485245906313)
(0.819498254324 -0.00190729415547 -0.000655887970882)
(0.817992771846 -0.00282663973638 -0.000968126519216)
(0.81824448443 -0.0053454662887 -0.00059848112038)
(0.812770779625 -0.00692458214707 0.000457219854952)
(0.826251115023 -0.0653433449877 0.0016288294237)
(0.81646505573 -0.00160274579726 -0.000466221009029)
(0.816410617304 -0.00390271564892 -0.000215696565641)
(0.811310944734 -0.00564721600328 0.000181198603779)
(0.826886192646 -0.0503524096986 0.000490324685413)
(0.639360723849 0.041728012756 0.00898646052416)
(0.637659969256 0.039399576541 0.0139812846458)
(0.649084395666 0.0230001809482 0.0181013439586)
(0.648373223162 0.0197562519366 0.0167847266934)
(0.648578362468 0.0207594005226 0.0180671425512)
(0.644953124071 0.0195912407524 0.0239308278991)
(0.690263131345 0.023757795539 0.0234747796426)
(0.519400036198 -0.0725488545651 0.0502175832756)
(0.773360201779 0.0131542223502 0.00564873134493)
(0.770659445742 0.00856837607901 0.0075584479031)
(0.778751822337 0.00120378548692 0.0121742222942)
(0.77538552342 -0.00094897625825 0.0130744134299)
(0.77550745466 -0.00132445545026 0.0149620222473)
(0.779749799092 -0.00504822593204 0.0169296015692)
(0.790712728907 0.00187063948527 0.0222005979652)
(0.794843014435 -0.136796885224 0.0308213041884)
(0.821725226392 0.00609343222998 -0.00214271594719)
(0.823661039922 0.00395367743759 -0.00106495503781)
(0.822875906262 0.00273056595017 0.00084497821922)
(0.821182720296 0.00281123768858 0.00107744611893)
(0.820736021763 0.0020488729053 0.00142337285045)
(0.822658134007 -0.00157291162458 0.00164762638468)
(0.818568697278 -0.00484989366376 0.00568138954689)
(0.842242561453 -0.0900376805243 0.0101594819358)
(0.817280431729 0.00616467353213 -0.00249150572233)
(0.820437911933 0.00295046294191 -0.00110095225634)
(0.820132560861 0.0010892957423 0.000499858601275)
(0.819349258885 -0.00125704417115 0.000686873468309)
(0.818132672694 -0.00291864689836 0.000701736505846)
(0.81942883382 -0.00633565104934 0.00161828944543)
(0.814778894949 -0.00842368215102 0.00442711090183)
(0.832529326462 -0.0755530309948 0.00660996129745)
(0.816581985802 -0.00140218378932 8.13023763766e-05)
(0.817031108353 -0.00369936333363 0.000702106320764)
(0.812096960759 -0.0058389120816 0.00264158048749)
(0.829442026474 -0.0571580686861 0.00369442743222)
(0.635387333065 -0.0157150712668 0.0140423727207)
(0.632998301704 -0.0162519046736 0.0180320725412)
(0.642182365091 -0.0215904140072 0.0235810518507)
(0.638428562191 -0.0211260072456 0.0231359989392)
(0.638278493376 -0.0212257404883 0.0238454137276)
(0.637515394413 -0.019987945916 0.0256788655074)
(0.689884514688 -0.00666384191128 0.0329258184673)
(0.534482481448 -0.174941823941 0.000627179430009)
(0.734539094947 0.00551815209281 0.0180570685945)
(0.735996843829 -0.000552142877045 0.0208716223199)
(0.788191032824 -0.0029079101675 0.0109164929413)
(0.785072258207 -0.00316072490055 0.0114920835687)
(0.783451830224 -0.00471769164879 0.0108036781284)
(0.78771206585 -0.00630313412156 0.0093799586153)
(0.802008016145 0.000744369935224 0.00753094073913)
(0.824913448853 -0.148337426187 0.000520287257946)
(0.82330494577 0.00519625274575 -0.00571052441849)
(0.826676033233 0.00367449634447 -0.00201422654195)
(0.825294905807 -0.000378965883963 0.000483337427198)
(0.821831009244 -0.00283480323653 0.000660807326029)
(0.820722479293 -0.004308507003 -0.00027942916124)
(0.824386154406 -0.00688446934275 -0.000770079899855)
(0.822059995299 -0.0107603618427 -0.00115987368565)
(0.859058184127 -0.112981059588 -0.00281004446009)
(0.811816198877 0.00967508836267 -0.00614893219132)
(0.818906958248 0.0062754731003 -0.00564636694005)
(0.82267410044 0.00253721650122 -0.0023718277151)
(0.821767571168 -0.000244259126856 0.000111601981948)
(0.820442664391 -0.00235438382161 0.000518637826827)
(0.818767404667 -0.00444328788137 -5.1487077077e-05)
(0.820913521735 -0.0069390543801 -0.000209673663357)