/*--------------------------------*- C++ -*----------------------------------*\
| =========                 |                                                 |
| \\      /  F ield         | OpenFOAM: The Open Source CFD Toolbox           |
|  \\    /   O peration     | Version:  v1906                                 |
|   \\  /    A nd           | Web:      www.OpenFOAM.com                      |
|    \\/     M anipulation  |                                                 |
\*---------------------------------------------------------------------------*/
FoamFile
{
    version     2.0;
    format      ascii;
    class       volVectorField;
    location    "4.85";
    object      force.turbine;
}
// * * * * * * * * * * * * * * * * * * * * * * * * * * * * * * * * * * * * * //

dimensions      [1 -2 -2 0 0 0 0];


internalField   nonuniform List<vector> 
28582
(
(0 0 0)
(0 0 0)
(0 0 0)
(0 0 0)
(0 0 0)
(0 0 0)
(0 0 0)
(0 0 0)
(0 0 0)
(0 0 0)
(0 0 0)
(0 0 0)
(0 0 0)
(0 0 0)
(0 0 0)
(0 0 0)
(0 0 0)
(0 0 0)
(0 0 0)
(0 0 0)
(0 0 0)
(0 0 0)
(0 0 0)
(0 0 0)
(0 0 0)
(0 0 0)
(0 0 0)
(0 0 0)
(0 0 0)
(0 0 0)
(0 0 0)
(0 0 0)
(0 0 0)
(0 0 0)
(0 0 0)
(0 0 0)
(0 0 0)
(0 0 0)
(0 0 0)
(0 0 0)
(0 0 0)
(0 0 0)
(0 0 0)
(0 0 0)
(0 0 0)
(0 0 0)
(0 0 0)
(0 0 0)
(0 0 0)
(0 0 0)
(0 0 0)
(0 0 0)
(0 0 0)
(0 0 0)
(0 0 0)
(0 0 0)
(0 0 0)
(0 0 0)
(0 0 0)
(0 0 0)
(0 0 0)
(0 0 0)
(0 0 0)
(0 0 0)
(0 0 0)
(0 0 0)
(0 0 0)
(0 0 0)
(0 0 0)
(0 0 0)
(0 0 0)
(0 0 0)
(0 0 0)
(0 0 0)
(0 0 0)
(0 0 0)
(0 0 0)
(0 0 0)
(0 0 0)
(0 0 0)
(0 0 0)
(0 0 0)
(0 0 0)
(0 0 0)
(0 0 0)
(0 0 0)
(0 0 0)
(0 0 0)
(0 0 0)
(0 0 0)
(0 0 0)
(0 0 0)
(0 0 0)
(0 0 0)
(0 0 0)
(0 0 0)
(0 0 0)
(0 0 0)
(0 0 0)
(0 0 0)
(0 0 0)
(0 0 0)
(0 0 0)
(0 0 0)
(0 0 0)
(0 0 0)
(0 0 0)
(0 0 0)
(0 0 0)
(0 0 0)
(0 0 0)
(0 0 0)
(0 0 0)
(0 0 0)
(0 0 0)
(0 0 0)
(0 0 0)
(0 0 0)
(0 0 0)
(0 0 0)
(0 0 0)
(0 0 0)
(0 0 0)
(0 0 0)
(0 0 0)
(0 0 0)
(0 0 0)
(0 0 0)
(0 0 0)
(0 0 0)
(0 0 0)
(0 0 0)
(0 0 0)
(0 0 0)
(0 0 0)
(0 0 0)
(0 0 0)
(0 0 0)
(0 0 0)
(0 0 0)
(0 0 0)
(0 0 0)
(0 0 0)
(0 0 0)
(0 0 0)
(0 0 0)
(0 0 0)
(0 0 0)
(0 0 0)
(0 0 0)
(0 0 0)
(0 0 0)
(0 0 0)
(0 0 0)
(0 0 0)
(0 0 0)
(0 0 0)
(0 0 0)
(0 0 0)
(0 0 0)
(0 0 0)
(0 0 0)
(0 0 0)
(0 0 0)
(0 0 0)
(0 0 0)
(0 0 0)
(0 0 0)
(0 0 0)
(0 0 0)
(0 0 0)
(0 0 0)
(0 0 0)
(0 0 0)
(0 0 0)
(0 0 0)
(0 0 0)
(0 0 0)
(0 0 0)
(0 0 0)
(0 0 0)
(0 0 0)
(0 0 0)
(0 0 0)
(0 0 0)
(0 0 0)
(0 0 0)
(0 0 0)
(0 0 0)
(0 0 0)
(0 0 0)
(0 0 0)
(0 0 0)
(0 0 0)
(0 0 0)
(0 0 0)
(0 0 0)
(0 0 0)
(0 0 0)
(0 0 0)
(0 0 0)
(0 0 0)
(0 0 0)
(0 0 0)
(0 0 0)
(0 0 0)
(0 0 0)
(0 0 0)
(0 0 0)
(0 0 0)
(0 0 0)
(0 0 0)
(0 0 0)
(0 0 0)
(0 0 0)
(0 0 0)
(0 0 0)
(-0.00202956549253 2.46369862637e-05 0)
(0 0 0)
(0 0 0)
(0 0 0)
(0 0 0)
(-2.65642621671e-05 2.88785456128e-08 0)
(0 0 0)
(-2.71296284239e-06 -6.57928640539e-09 0)
(0 0 0)
(0 0 0)
(0 0 0)
(0 0 0)
(0 0 0)
(0 0 0)
(0 0 0)
(0 0 0)
(0 0 0)
(0 0 0)
(0 0 0)
(0 0 0)
(-0.0162695868084 0.000424306788941 0)
(0 0 0)
(0 0 0)
(0 0 0)
(-0.0303928382007 0.000506842766631 0)
(0 0 0)
(0 0 0)
(-0.264187122613 -0.0273709428401 0.0433192845114)
(-2.16348950996 -0.247970413707 0.387247498422)
(-0.0822931054082 0.00137235176736 0)
(-1.0237685144 -0.0154572156905 0.044153834059)
(-0.00611636660812 2.8321678386e-05 0)
(-0.0811441180992 0.00135319080902 0)
(0 0 0)
(0 0 0)
(0 0 0)
(0 0 0)
(0 0 0)
(-0.0162694683131 0.000424303698614 0)
(0 0 0)
(0 0 0)
(0 0 0)
(-0.0297791117155 0.00049660802555 0)
(0 0 0)
(0 0 0)
(0 0 0)
(0 0 0)
(0 0 0)
(0 0 0)
(0 0 0)
(0 0 0)
(-1.60395625244e-05 4.14315742568e-08 0)
(0 0 0)
(-1.03659594227e-05 2.67761677982e-08 0)
(-0.000158648161468 1.1949852483e-06 0)
(-0.000771462971101 5.81088908656e-06 0)
(-0.000101424625855 7.63960518612e-07 0)
(-0.000463443918905 3.49079775891e-06 0)
(0 0 0)
(0 0 0)
(-0.000213493375519 7.95977052929e-07 0)
(0 0 0)
(0 0 0)
(0 0 0)
(0 0 0)
(0 0 0)
(0 0 0)
(-0.00900966995844 0.000109368786483 0)
(-0.000442804386577 4.05058057377e-06 0)
(-0.0020724072081 2.51570437646e-05 0)
(-3.59859938507e-05 2.18754969687e-07 0)
(-0.000166127491492 1.25132179178e-06 0)
(-4.80278173824e-06 -1.16473680011e-08 0)
(-3.68835677882e-05 2.24211224704e-07 0)
(0 0 0)
(0 0 0)
(0 0 0)
(0 0 0)
(0 0 0)
(-0.000229882686562 8.57082066008e-07 0)
(0 0 0)
(0 0 0)
(0 0 0)
(0 0 0)
(0 0 0)
(0 0 0)
(0 0 0)
(0 0 0)
(0 0 0)
(0 0 0)
(0 0 0)
(0 0 0)
(0 0 0)
(0 0 0)
(0 0 0)
(0 0 0)
(0 0 0)
(0 0 0)
(0 0 0)
(0 0 0)
(-0.00531663017036 2.78468333853e-05 0)
(0 0 0)
(0 0 0)
(0 0 0)
(0 0 0)
(0 0 0)
(-0.00489696232854 2.26752582085e-05 0)
(0 0 0)
(0 0 0)
(0 0 0)
(0 0 0)
(0 0 0)
(0 0 0)
(0 0 0)
(0 0 0)
(0 0 0)
(0 0 0)
(0 0 0)
(0 0 0)
(0 0 0)
(0 0 0)
(0 0 0)
(0 0 0)
(0 0 0)
(0 0 0)
(0 0 0)
(0 0 0)
(0 0 0)
(0 0 0)
(-0.0368018211951 0.000743495514097 0)
(-0.00902820691741 0.000107077607856 0)
(-0.0147653826811 0.000175122465738 0)
(-0.0104747138456 0.000144759839359 0)
(-0.0196980393016 0.000397953236596 0)
(0 0 0)
(0 0 0)
(0 0 0)
(0 0 0)
(0 0 0)
(0 0 0)
(0 0 0)
(0 0 0)
(0 0 0)
(0 0 0)
(-0.00544515009708 2.52136275821e-05 0)
(0 0 0)
(-0.00815723531118 0.00011273244221 0)
(0 0 0)
(0 0 0)
(-0.416480380265 -0.0319448774311 0.0533426937087)
(-0.198943650456 -0.00927115802507 0.0174907001234)
(-0.204857317356 0.0029047512165 0.000681161519702)
(-0.0439511347717 0.00073294618282 0)
(-0.886752551989 -0.075598813139 0.124188864961)
(-0.0765515037915 -0.00143787377318 0.00388296139013)
(-0.105029540765 0.00175151338838 0)
(-1.11582287101 -0.097984317988 0.15970982091)
(-3.97886065966 -0.363269964649 0.590224576538)
(-0.533932357934 -0.00594430934562 0.0200682028182)
(-0.516235675615 -0.00407802225265 0.0171373768051)
(-2.33660487255 -0.220548170199 0.356152775863)
(-0.253255737442 0.000736541371813 0.00467354556205)
(-1.92318994518 -0.163934515929 0.268904939364)
(-0.118714394379 -0.0051403608283 0.00986430661553)
(-0.00924312922711 0.00012773942294 0)
(-0.0206876972018 0.000344996068342 0)
(-0.0205556644536 0.000342794238986 0)
(-0.0252913699521 0.000510953520618 0)
(-0.0252911652768 0.000510949385628 0)
(-0.0494301135337 0.000824315759287 0)
(-0.351680749034 -0.0234349801751 0.0402279030724)
(-0.135784235369 -0.00149289947924 0.00550335162271)
(-0.202779258707 0.00290248982394 0.000638543444081)
(-0.0434954870419 0.000725347624421 0)
(-0.0591300335166 0.000545205231145 0.000826780709134)
(-0.104542444645 0.00174339038442 0)
(-0.634980743738 -0.0417486575963 0.0720216957376)
(0 0 0)
(0 0 0)
(0 0 0)
(0 0 0)
(0 0 0)
(0 0 0)
(0 0 0)
(0 0 0)
(0 0 0)
(0 0 0)
(0 0 0)
(0 0 0)
(0 0 0)
(0 0 0)
(0 0 0)
(0 0 0)
(0 0 0)
(0 0 0)
(0 0 0)
(0 0 0)
(0 0 0)
(0 0 0)
(0 0 0)
(-0.0053760545023 2.48936822063e-05 0)
(0 0 0)
(-0.00815651246316 0.000112722452499 0)
(0 0 0)
(0 0 0)
(0 0 0)
(-0.0367974098118 0.00074340639232 0)
(-0.0145181340298 0.000172190012553 0)
(-0.00878899272593 0.0001042404461 0)
(-0.0196958291457 0.00039790858552 0)
(0 0 0)
(-0.0104731198325 0.000144737810206 0)
(0 0 0)
(0 0 0)
(0 0 0)
(0 0 0)
(0 0 0)
(0 0 0)
(0 0 0)
(0 0 0)
(0 0 0)
(0 0 0)
(0 0 0)
(0 0 0)
(0 0 0)
(0 0 0)
(0 0 0)
(0 0 0)
(0 0 0)
(0 0 0)
(0 0 0)
(0 0 0)
(0 0 0)
(0 0 0)
(0 0 0)
(0 0 0)
(0 0 0)
(0 0 0)
(0 0 0)
(0 0 0)
(0 0 0)
(0 0 0)
(0 0 0)
(0 0 0)
(0 0 0)
(0 0 0)
(0 0 0)
(0 0 0)
(-0.0150561926854 0.000286354842673 0)
(0 0 0)
(0 0 0)
(0 0 0)
(0 0 0)
(0 0 0)
(0 0 0)
(0 0 0)
(-0.00335941362432 6.38929362796e-05 0)
(0 0 0)
(0 0 0)
(0 0 0)
(0 0 0)
(0 0 0)
(0 0 0)
(0 0 0)
(0 0 0)
(0 0 0)
(0 0 0)
(0 0 0)
(0 0 0)
(0 0 0)
(0 0 0)
(0 0 0)
(0 0 0)
(0 0 0)
(0 0 0)
(0 0 0)
(0 0 0)
(0 0 0)
(0 0 0)
(0 0 0)
(0 0 0)
(0 0 0)
(0 0 0)
(0 0 0)
(-0.322204125519 0.00847189214419 0)
(-0.00773010592537 0.000147019456535 0)
(0 0 0)
(0 0 0)
(0 0 0)
(0 0 0)
(0 0 0)
(0 0 0)
(-0.0707435232008 0.0018763074775 0)
(0 0 0)
(0 0 0)
(0 0 0)
(0 0 0)
(0 0 0)
(0 0 0)
(0 0 0)
(0 0 0)
(0 0 0)
(0 0 0)
(0 0 0)
(0 0 0)
(0 0 0)
(0 0 0)
(0 0 0)
(0 0 0)
(0 0 0)
(0 0 0)
(0 0 0)
(0 0 0)
(0 0 0)
(0 0 0)
(0 0 0)
(0 0 0)
(0 0 0)
(0 0 0)
(0 0 0)
(-1.51894849447 0.0507686152596 0)
(-0.0432343915162 0.00149433494595 0)
(0 0 0)
(0 0 0)
(0 0 0)
(0 0 0)
(0 0 0)
(0 0 0)
(-0.333193807418 0.0110091967659 0)
(-0.00656799130787 0.000245953584029 0)
(0 0 0)
(0 0 0)
(0 0 0)
(0 0 0)
(0 0 0)
(0 0 0)
(0 0 0)
(0 0 0)
(0 0 0)
(0 0 0)
(0 0 0)
(0 0 0)
(0 0 0)
(0 0 0)
(0 0 0)
(0 0 0)
(0 0 0)
(0 0 0)
(0 0 0)
(0 0 0)
(0 0 0)
(0 0 0)
(0 0 0)
(0 0 0)
(0 0 0)
(0 0 0)
(0 0 0)
(0 0 0)
(0 0 0)
(0 0 0)
(0 0 0)
(0 0 0)
(0 0 0)
(-2.59832393939 0.0664684297401 0)
(-0.0784563137463 0.00200701225081 0)
(0 0 0)
(0 0 0)
(0 0 0)
(0 0 0)
(0 0 0)
(0 0 0)
(-2.59804885756 0.0664613927974 0)
(-0.579700257245 0.0148294695803 0)
(-0.0162694991236 0.000424304502142 0)
(0 0 0)
(0 0 0)
(0 0 0)
(0 0 0)
(0 0 0)
(0 0 0)
(-0.04758445045 0.00121727073884 0)
(-0.0784532705078 0.0020069344009 0)
(-0.0162693827024 0.000424301465908 0)
(0 0 0)
(0 0 0)
(0 0 0)
(0 0 0)
(0 0 0)
(0 0 0)
(0 0 0)
(0 0 0)
(0 0 0)
(0 0 0)
(0 0 0)
(0 0 0)
(0 0 0)
(0 0 0)
(0 0 0)
(0 0 0)
(0 0 0)
(0 0 0)
(0 0 0)
(0 0 0)
(0 0 0)
(0 0 0)
(0 0 0)
(0 0 0)
(0 0 0)
(0 0 0)
(-0.0324233784783 0.000394836304124 0)
(-0.00100898886516 1.224816095e-05 0)
(0 0 0)
(0 0 0)
(0 0 0)
(0 0 0)
(0 0 0)
(0 0 0)
(-0.0240334262362 0.000292667502151 0)
(-0.037980676359 0.000462510404084 0)
(-0.00800972740618 9.72304391299e-05 0)
(-0.000182354875586 6.79881968716e-07 0)
(0 0 0)
(0 0 0)
(0 0 0)
(0 0 0)
(0 0 0)
(0 0 0)
(-0.0007258321071 6.63959419094e-06 0)
(-0.00120889430284 1.46748219965e-05 0)
(-0.000209101887724 7.79604069437e-07 0)
(0 0 0)
(0 0 0)
(0 0 0)
(0 0 0)
(0 0 0)
(0 0 0)
(0 0 0)
(0 0 0)
(0 0 0)
(0 0 0)
(0 0 0)
(0 0 0)
(0 0 0)
(0 0 0)
(0 0 0)
(0 0 0)
(0 0 0)
(0 0 0)
(0 0 0)
(0 0 0)
(0 0 0)
(0 0 0)
(0 0 0)
(0 0 0)
(0 0 0)
(0 0 0)
(-0.00020122272119 5.49302023161e-07 0)
(-0.000199348304495 5.44185200983e-07 0)
(-2.57725163457e-05 2.80178227485e-08 0)
(0 0 0)
(0 0 0)
(0 0 0)
(0 0 0)
(0 0 0)
(0 0 0)
(0 0 0)
(-2.59731221619e-05 2.82359053807e-08 0)
(-2.58318721165e-05 2.80823496051e-08 0)
(-2.64927818985e-06 -6.42484287151e-09 0)
(0 0 0)
(0 0 0)
(0 0 0)
(0 0 0)
(0 0 0)
(0 0 0)
(0 0 0)
(0 0 0)
(0 0 0)
(0 0 0)
(0 0 0)
(0 0 0)
(0 0 0)
(0 0 0)
(0 0 0)
(0 0 0)
(0 0 0)
(0 0 0)
(0 0 0)
(0 0 0)
(0 0 0)
(0 0 0)
(0 0 0)
(0 0 0)
(0 0 0)
(0 0 0)
(0 0 0)
(0 0 0)
(0 0 0)
(0 0 0)
(0 0 0)
(0 0 0)
(0 0 0)
(0 0 0)
(0 0 0)
(0 0 0)
(-0.00335947176276 6.3894042019e-05 0)
(-0.00913184686946 0.000173679271264 0)
(-0.00203758535386 3.87529866033e-05 0)
(-0.0867846039793 0.00197958790454 0)
(-0.0177872642551 0.000338297294925 0)
(-0.0526357557089 0.00120064044278 0)
(-0.0107882631806 0.000205182775641 0)
(0 0 0)
(0 0 0)
(0 0 0)
(-0.00240717757111 4.5782288329e-05 0)
(0 0 0)
(0 0 0)
(0 0 0)
(0 0 0)
(0 0 0)
(0 0 0)
(-0.0177863967973 0.000338280796681 0)
(-0.0039686750586 7.54805245768e-05 0)
(-0.00396867163742 7.5480459509e-05 0)
(0 0 0)
(0 0 0)
(0 0 0)
(0 0 0)
(0 0 0)
(0 0 0)
(0 0 0)
(0 0 0)
(-0.0707442441611 0.0018763265993 0)
(-0.195427223192 0.00513847659231 0)
(-0.0429087701622 0.00113805536766 0)
(-0.803406531728 0.0243166062598 0)
(-0.177065271312 0.00543087845104 0)
(-0.487286877374 0.0147486517283 0)
(-0.107393788846 0.00329394132061 0)
(0 0 0)
(-0.00468854596228 8.91718025562e-05 0)
(0 0 0)
(-0.0228155759906 0.000721019067886 0)
(0 0 0)
(-0.0122023743492 0.000375061699178 0)
(0 0 0)
(-0.0149449543722 0.000386693514471 0)
(-0.014944559204 0.000386683289684 0)
(-0.00284365984627 5.40837770149e-05 0)
(-0.177065834117 0.00543089571317 0)
(-0.0376173547486 0.00118878568169 0)
(-0.0376164168009 0.00118875604062 0)
(-0.00740119507784 0.000227488906864 0)
(0 0 0)
(0 0 0)
(0 0 0)
(-0.00335948790191 6.38943489706e-05 0)
(0 0 0)
(0 0 0)
(0 0 0)
(-0.333187763062 0.0110089970518 0)
(-0.905718662859 0.0299262313764 0)
(-0.202085585488 0.00667719484775 0)
(-2.24051914244 0.0710863520048 0)
(-0.494182993098 0.0155422413674 0)
(-1.34341024148 0.0422507583632 0)
(-0.299741720065 0.00942699005469 0)
(0 0 0)
(-0.0262228573306 0.000906355582157 0)
(0 0 0)
(-0.0668770914716 0.00210330972963 0)
(0 0 0)
(-0.0405636830923 0.00127574311981 0)
(0 0 0)
(-0.0743436412107 0.0024564195257 0)
(-0.0743416976168 0.0024563553066 0)
(-0.014014670239 0.000526754345792 0)
(-0.494182789064 0.0155422349505 0)
(-0.110265245049 0.00346788351062 0)
(-0.110261240846 0.00346775757693 0)
(-0.0246025698536 0.000773760093457 0)
(0 0 0)
(0 0 0)
(0 0 0)
(-0.0133517807315 0.0004731261452 0)
(0 0 0)
(0 0 0)
(0 0 0)
(-7.25249416778 0.191229694451 0)
(-4.30936545675 0.111010640104 0)
(-4.45701580576 0.0744881238114 0)
(-2.10270707291 0.0351416085587 0)
(-0.579743744597 0.0148305820421 0)
(-1.5758878188 0.0403132139047 0)
(-0.351621906767 0.00899493540846 0)
(-2.71667859215 0.0454026416209 0)
(-0.287162630513 0.00479922138665 0)
(-1.2797408572 0.0213877400423 0)
(-0.135771735164 0.00226909265297 0)
(0 0 0)
(-0.0475858050015 0.00121730539 0)
(0 0 0)
(-0.104030085095 0.00173484607768 0)
(0 0 0)
(-0.0492240194269 0.000820878853968 0)
(0 0 0)
(0 0 0)
(0 0 0)
(0 0 0)
(0 0 0)
(0 0 0)
(0 0 0)
(0 0 0)
(0 0 0)
(0 0 0)
(0 0 0)
(0 0 0)
(0 0 0)
(0 0 0)
(0 0 0)
(0 0 0)
(0 0 0)
(0 0 0)
(0 0 0)
(0 0 0)
(0 0 0)
(0 0 0)
(0 0 0)
(0 0 0)
(0 0 0)
(0 0 0)
(0 0 0)
(0 0 0)
(0 0 0)
(0 0 0)
(0 0 0)
(0 0 0)
(0 0 0)
(0 0 0)
(0 0 0)
(0 0 0)
(0 0 0)
(0 0 0)
(0 0 0)
(0 0 0)
(0 0 0)
(0 0 0)
(0 0 0)
(-2.3857476194 -0.242284707298 0.387247420028)
(-0.815028733012 -0.0132797675809 0.0433193523483)
(-1.53035682486 -0.00687338834066 0.0439946078717)
(-2.70733797053 0.0452465359641 0)
(-0.135608380889 0.00226636258558 0)
(-0.28552167229 0.00477179678135 0)
(-1.5757912666 0.0403107439767 0)
(-0.579702341899 0.0148295229084 0)
(-0.351607004034 0.00899455417761 0)
(-2.69434432167 0.045029378887 0)
(-1.27433141142 0.0212973343797 0)
(-0.284158335013 0.0047490119315 0)
(-0.134007685947 0.0022396108826 0)
(-0.129348251991 0.0033088927324 0)
(-0.129348604978 0.00330890176226 0)
(-0.0288614413626 0.000738312362954 0)
(-0.774782285307 0.0129485919077 0)
(-0.0808979659311 0.00134908587992 0)
(-0.0800217381674 0.00133447356563 0)
(-0.00604277845443 2.79809303315e-05 0)
(0 0 0)
(0 0 0)
(0 0 0)
(-0.0298193181795 0.00049727852415 0)
(0 0 0)
(0 0 0)
(0 0 0)
(0 0 0)
(0 0 0)
(0 0 0)
(0 0 0)
(0 0 0)
(0 0 0)
(0 0 0)
(0 0 0)
(0 0 0)
(0 0 0)
(0 0 0)
(0 0 0)
(0 0 0)
(0 0 0)
(0 0 0)
(0 0 0)
(0 0 0)
(0 0 0)
(0 0 0)
(0 0 0)
(0 0 0)
(0 0 0)
(0 0 0)
(0 0 0)
(0 0 0)
(0 0 0)
(0 0 0)
(0 0 0)
(0 0 0)
(0 0 0)
(0 0 0)
(0 0 0)
(0 0 0)
(0 0 0)
(0 0 0)
(0 0 0)
(0 0 0)
(0 0 0)
(0 0 0)
(0 0 0)
(0 0 0)
(0 0 0)
(-0.0784533687998 0.00200693691533 0)
(0 0 0)
(0 0 0)
(-0.0490448390014 0.000817890771644 0)
(-0.103372515884 0.0017238801983 0)
(0 0 0)
(0 0 0)
(-0.0475842312511 0.00121726513146 0)
(0 0 0)
(0 0 0)
(-0.102906302101 0.00171610543629 0)
(-0.0485316301536 0.000809332301699 0)
(0 0 0)
(0 0 0)
(0 0 0)
(0 0 0)
(0 0 0)
(-0.0294306129963 0.000490796325641 0)
(0 0 0)
(0 0 0)
(0 0 0)
(0 0 0)
(0 0 0)
(0 0 0)
(0 0 0)
(0 0 0)
(0 0 0)
(0 0 0)
(0 0 0)
(0 0 0)
(0 0 0)
(0 0 0)
(0 0 0)
(0 0 0)
(0 0 0)
(0 0 0)
(0 0 0)
(0 0 0)
(0 0 0)
(0 0 0)
(0 0 0)
(0 0 0)
(0 0 0)
(0 0 0)
(0 0 0)
(0 0 0)
(0 0 0)
(0 0 0)
(0 0 0)
(0 0 0)
(0 0 0)
(0 0 0)
(0 0 0)
(0 0 0)
(0 0 0)
(0 0 0)
(0 0 0)
(0 0 0)
(0 0 0)
(0 0 0)
(0 0 0)
(0 0 0)
(0 0 0)
(0 0 0)
(0 0 0)
(0 0 0)
(0 0 0)
(0 0 0)
(0 0 0)
(0 0 0)
(0 0 0)
(0 0 0)
(0 0 0)
(0 0 0)
(0 0 0)
(0 0 0)
(0 0 0)
(0 0 0)
(0 0 0)
(0 0 0)
(0 0 0)
(0 0 0)
(0 0 0)
(0 0 0)
(0 0 0)
(0 0 0)
(0 0 0)
(0 0 0)
(0 0 0)
(0 0 0)
(0 0 0)
(0 0 0)
(0 0 0)
(0 0 0)
(0 0 0)
(0 0 0)
(0 0 0)
(0 0 0)
(0 0 0)
(0 0 0)
(0 0 0)
(0 0 0)
(0 0 0)
(0 0 0)
(0 0 0)
(0 0 0)
(0 0 0)
(0 0 0)
(0 0 0)
(0 0 0)
(0 0 0)
(0 0 0)
(0 0 0)
(0 0 0)
(0 0 0)
(0 0 0)
(0 0 0)
(0 0 0)
(0 0 0)
(0 0 0)
(0 0 0)
(0 0 0)
(0 0 0)
(0 0 0)
(0 0 0)
(0 0 0)
(0 0 0)
(0 0 0)
(0 0 0)
(0 0 0)
(0 0 0)
(0 0 0)
(0 0 0)
(0 0 0)
(0 0 0)
(0 0 0)
(0 0 0)
(0 0 0)
(0 0 0)
(0 0 0)
(0 0 0)
(0 0 0)
(0 0 0)
(0 0 0)
(0 0 0)
(0 0 0)
(0 0 0)
(0 0 0)
(0 0 0)
(0 0 0)
(0 0 0)
(0 0 0)
(0 0 0)
(0 0 0)
(0 0 0)
(0 0 0)
(0 0 0)
(0 0 0)
(0 0 0)
(0 0 0)
(0 0 0)
(0 0 0)
(0 0 0)
(0 0 0)
(0 0 0)
(0 0 0)
(0 0 0)
(0 0 0)
(0 0 0)
(0 0 0)
(0 0 0)
(0 0 0)
(0 0 0)
(0 0 0)
(0 0 0)
(0 0 0)
(0 0 0)
(0 0 0)
(0 0 0)
(0 0 0)
(0 0 0)
(0 0 0)
(0 0 0)
(0 0 0)
(0 0 0)
(0 0 0)
(0 0 0)
(0 0 0)
(0 0 0)
(0 0 0)
(0 0 0)
(-0.00196038977178 1.47961597232e-05 0)
(-0.00285837060005 2.15737240396e-05 0)
(-0.00115790704543 8.72170106093e-06 0)
(-0.00169441944432 1.27887326782e-05 0)
(-0.0942741648171 0.00114802542356 0)
(-0.0586140601505 0.000713773825114 0)
(-0.00260225876954 1.96407045933e-05 0)
(-0.00154655092849 1.16726861604e-05 0)
(-0.00157363776552 1.18771256922e-05 0)
(-0.000942196561223 7.0969053864e-06 0)
(-0.00725983007381 8.81274018814e-05 0)
(-0.0205677414142 0.00025046405974 0)
(-0.00440418715612 5.34626248166e-05 0)
(-0.000564270463037 4.25025334768e-06 0)
(-0.000125909536552 9.4838816541e-07 0)
(-0.000343848140155 2.58996669951e-06 0)
(-7.63892965549e-05 5.75386954798e-07 0)
(0 0 0)
(-0.000568311740354 5.19866687211e-06 0)
(0 0 0)
(-1.49859062886e-05 3.87098892664e-08 0)
(0 0 0)
(-9.09553833433e-06 2.34945604863e-08 0)
(0 0 0)
(0 0 0)
(0 0 0)
(0 0 0)
(0 0 0)
(0 0 0)
(0 0 0)
(0 0 0)
(0 0 0)
(0 0 0)
(0 0 0)
(0 0 0)
(0 0 0)
(0 0 0)
(0 0 0)
(0 0 0)
(0 0 0)
(0 0 0)
(0 0 0)
(0 0 0)
(0 0 0)
(0 0 0)
(0 0 0)
(0 0 0)
(0 0 0)
(0 0 0)
(0 0 0)
(0 0 0)
(0 0 0)
(0 0 0)
(0 0 0)
(0 0 0)
(0 0 0)
(0 0 0)
(0 0 0)
(0 0 0)
(0 0 0)
(0 0 0)
(0 0 0)
(0 0 0)
(0 0 0)
(0 0 0)
(0 0 0)
(-0.0388062649434 0.000472564024671 0)
(-0.00551026569983 6.68893617157e-05 0)
(-0.00891079659714 0.000108168558329 0)
(-0.000420153733681 3.16472317815e-06 0)
(-0.000633559112032 4.77215610822e-06 0)
(-9.6752649433e-05 7.28769799391e-07 0)
(-0.000147912087255 1.11411793669e-06 0)
(-0.0223729635695 0.00027244718665 0)
(-0.00872502046822 0.000105913413594 0)
(-0.0051673697735 6.27269327338e-05 0)
(-0.00060685130916 4.57098497486e-06 0)
(-0.000352587019116 2.65579054108e-06 0)
(-0.00014226118896 1.0715536861e-06 0)
(-8.29953063029e-05 6.25145389601e-07 0)
(-0.00174807348156 2.12199421559e-05 0)
(-0.00189531305128 2.30072898763e-05 0)
(-0.000395396922809 3.61691786037e-06 0)
(-0.000128077032862 9.64714393788e-07 0)
(-2.80013586394e-05 1.70217234676e-07 0)
(-2.88228455447e-05 1.75210964843e-07 0)
(-3.75886516667e-06 -9.11573505705e-09 0)
(0 0 0)
(0 0 0)
(0 0 0)
(0 0 0)
(0 0 0)
(0 0 0)
(0 0 0)
(0 0 0)
(0 0 0)
(0 0 0)
(0 0 0)
(0 0 0)
(0 0 0)
(0 0 0)
(0 0 0)
(0 0 0)
(0 0 0)
(0 0 0)
(0 0 0)
(0 0 0)
(0 0 0)
(0 0 0)
(0 0 0)
(0 0 0)
(0 0 0)
(0 0 0)
(0 0 0)
(0 0 0)
(0 0 0)
(0 0 0)
(0 0 0)
(0 0 0)
(0 0 0)
(0 0 0)
(0 0 0)
(0 0 0)
(0 0 0)
(0 0 0)
(0 0 0)
(0 0 0)
(0 0 0)
(0 0 0)
(0 0 0)
(0 0 0)
(0 0 0)
(0 0 0)
(0 0 0)
(0 0 0)
(0 0 0)
(-0.00123405449032 1.49802426374e-05 0)
(0 0 0)
(0 0 0)
(-1.21527102829e-05 3.13914994713e-08 0)
(-1.89596841391e-05 4.89745004017e-08 0)
(0 0 0)
(0 0 0)
(-0.000679604545138 6.21672470244e-06 0)
(0 0 0)
(0 0 0)
(-1.77967708406e-05 4.5970594989e-08 0)
(-1.02450473586e-05 2.64638415017e-08 0)
(0 0 0)
(0 0 0)
(0 0 0)
(0 0 0)
(0 0 0)
(0 0 0)
(0 0 0)
(0 0 0)
(0 0 0)
(0 0 0)
(0 0 0)
(0 0 0)
(0 0 0)
(0 0 0)
(0 0 0)
(0 0 0)
(0 0 0)
(0 0 0)
(0 0 0)
(0 0 0)
(0 0 0)
(0 0 0)
(0 0 0)
(0 0 0)
(0 0 0)
(0 0 0)
(0 0 0)
(0 0 0)
(0 0 0)
(0 0 0)
(0 0 0)
(0 0 0)
(0 0 0)
(0 0 0)
(0 0 0)
(0 0 0)
(0 0 0)
(0 0 0)
(0 0 0)
(0 0 0)
(0 0 0)
(0 0 0)
(0 0 0)
(0 0 0)
(0 0 0)
(0 0 0)
(0 0 0)
(0 0 0)
(0 0 0)
(0 0 0)
(0 0 0)
(0 0 0)
(0 0 0)
(0 0 0)
(0 0 0)
(0 0 0)
(0 0 0)
(0 0 0)
(0 0 0)
(0 0 0)
(0 0 0)
(0 0 0)
(0 0 0)
(0 0 0)
(0 0 0)
(0 0 0)
(0 0 0)
(0 0 0)
(0 0 0)
(0 0 0)
(0 0 0)
(0 0 0)
(0 0 0)
(0 0 0)
(0 0 0)
(0 0 0)
(0 0 0)
(0 0 0)
(0 0 0)
(0 0 0)
(0 0 0)
(0 0 0)
(0 0 0)
(0 0 0)
(0 0 0)
(0 0 0)
(0 0 0)
(0 0 0)
(0 0 0)
(0 0 0)
(0 0 0)
(0 0 0)
(0 0 0)
(0 0 0)
(0 0 0)
(0 0 0)
(0 0 0)
(0 0 0)
(0 0 0)
(0 0 0)
(0 0 0)
(0 0 0)
(0 0 0)
(0 0 0)
(0 0 0)
(0 0 0)
(0 0 0)
(0 0 0)
(0 0 0)
(0 0 0)
(0 0 0)
(0 0 0)
(0 0 0)
(0 0 0)
(0 0 0)
(0 0 0)
(0 0 0)
(0 0 0)
(0 0 0)
(0 0 0)
(0 0 0)
(0 0 0)
(0 0 0)
(0 0 0)
(0 0 0)
(0 0 0)
(0 0 0)
(0 0 0)
(0 0 0)
(0 0 0)
(0 0 0)
(0 0 0)
(0 0 0)
(0 0 0)
(0 0 0)
(0 0 0)
(0 0 0)
(0 0 0)
(0 0 0)
(0 0 0)
(0 0 0)
(0 0 0)
(0 0 0)
(0 0 0)
(0 0 0)
(0 0 0)
(0 0 0)
(0 0 0)
(0 0 0)
(0 0 0)
(0 0 0)
(0 0 0)
(0 0 0)
(0 0 0)
(0 0 0)
(0 0 0)
(0 0 0)
(0 0 0)
(0 0 0)
(0 0 0)
(0 0 0)
(0 0 0)
(0 0 0)
(0 0 0)
(0 0 0)
(0 0 0)
(0 0 0)
(0 0 0)
(0 0 0)
(0 0 0)
(0 0 0)
(0 0 0)
(0 0 0)
(0 0 0)
(0 0 0)
(0 0 0)
(0 0 0)
(0 0 0)
(0 0 0)
(0 0 0)
(0 0 0)
(0 0 0)
(0 0 0)
(0 0 0)
(-7.24064562044 0.14661770509 0)
(-5.62632926863 0.113472349831 0)
(-6.46103415001 0.10798039152 0)
(-3.9375683405 0.065806829243 0)
(-4.96516402812 0.100137905669 0)
(-5.70287978784 0.0953096946995 0)
(-8.21303823718 0.166610219686 0)
(-5.62599066404 0.113465520821 0)
(-2.65756937239 0.0535981147077 0)
(-3.06297221754 0.0511900930385 0)
(-3.05355784379 0.0510327547951 0)
(-3.86680946658 0.0779861852323 0)
(-3.86662532412 0.0779824714294 0)
(-4.43787800301 0.0741682822217 0)
(-1.6120368639 0.032511714517 0)
(-3.41270400603 0.0688277426279 0)
(-1.45739188049 0.0243567426203 0)
(-2.39691943475 0.0400586489711 0)
(-3.01167294971 0.0607397097128 0)
(-1.28628893399 0.0214971751386 0)
(-1.82675607193 0.0368421921564 0)
(-0.761485944136 0.0153577217612 0)
(-0.359707291658 0.00725461125486 0)
(-0.688740627456 0.0115106159295 0)
(-0.25364971878 0.0042391349909 0)
(-0.317437260465 0.00640210520022 0)
(-0.608294850788 0.0101661614259 0)
(-0.862907545644 0.0174032023751 0)
(-1.25545615485 0.0253201604809 0)
(-1.61190445325 0.0325090440463 0)
(-1.86537407973 0.0311751677491 0)
(-0.68716508456 0.0114842845815 0)
(-2.34545098426 0.0473032810364 0)
(-0.862785186915 0.0174007346325 0)
(-1.00132558622 0.0167347093867 0)
(-0.593034694901 0.0119603807649 0)
(-0.16988759293 0.00342630931402 0)
(-0.197761978764 0.0033051080367 0)
(-0.325256229324 0.00543586276922 0)
(-0.247214234543 0.00498584045937 0)
(-0.407543910854 0.00821938479174 0)
(-0.473997109079 0.00792170297033 0)
(-0.036803774725 0.000743534980642 0)
(-0.132326192516 0.00266876737781 0)
(-0.0337885694196 0.00056347129847 0)
(-0.0918867647811 0.00153233935478 0)
(-0.11677745376 0.0023551789191 0)
(-0.0298410148683 0.000497640346552 0)
(-0.0417038251231 0.000842529143744 0)
(-0.00924425019113 0.000127754914587 0)
(0 0 0)
(-0.00881937867719 0.000104600833827 0)
(0 0 0)
(0 0 0)
(-0.00610337123149 2.82615036285e-05 0)
(-0.0104747949222 0.000144760959833 0)
(-0.0286630985661 0.000579071483746 0)
(-0.0624988580662 0.00126048298063 0)
(-0.0716528816163 0.00119491126547 0)
(-0.0145616316881 0.00017270590959 0)
(-0.0909464308654 0.00183421636493 0)
(-0.0196986000733 0.00039796456569 0)
(-0.0232705580383 0.000388068858174 0)
(-0.00531685252996 2.78479980348e-05 0)
(0 0 0)
(0 0 0)
(0 0 0)
(0 0 0)
(0 0 0)
(-0.00475916337745 2.2037183707e-05 0)
(0 0 0)
(0 0 0)
(0 0 0)
(0 0 0)
(0 0 0)
(0 0 0)
(0 0 0)
(0 0 0)
(0 0 0)
(0 0 0)
(0 0 0)
(0 0 0)
(0 0 0)
(0 0 0)
(0 0 0)
(0 0 0)
(0 0 0)
(0 0 0)
(0 0 0)
(0 0 0)
(0 0 0)
(0 0 0)
(0 0 0)
(0 0 0)
(0 0 0)
(0 0 0)
(0 0 0)
(0 0 0)
(0 0 0)
(0 0 0)
(0 0 0)
(0 0 0)
(0 0 0)
(0 0 0)
(0 0 0)
(0 0 0)
(0 0 0)
(0 0 0)
(0 0 0)
(0 0 0)
(0 0 0)
(0 0 0)
(0 0 0)
(0 0 0)
(0 0 0)
(0 0 0)
(0 0 0)
(0 0 0)
(0 0 0)
(0 0 0)
(0 0 0)
(0 0 0)
(0 0 0)
(0 0 0)
(0 0 0)
(0 0 0)
(0 0 0)
(0 0 0)
(0 0 0)
(0 0 0)
(0 0 0)
(0 0 0)
(0 0 0)
(0 0 0)
(0 0 0)
(0 0 0)
(0 0 0)
(0 0 0)
(0 0 0)
(0 0 0)
(0 0 0)
(0 0 0)
(0 0 0)
(0 0 0)
(0 0 0)
(0 0 0)
(0 0 0)
(0 0 0)
(0 0 0)
(0 0 0)
(0 0 0)
(0 0 0)
(0 0 0)
(0 0 0)
(0 0 0)
(0 0 0)
(0 0 0)
(0 0 0)
(0 0 0)
(0 0 0)
(0 0 0)
(0 0 0)
(0 0 0)
(0 0 0)
(0 0 0)
(0 0 0)
(0 0 0)
(0 0 0)
(0 0 0)
(0 0 0)
(0 0 0)
(0 0 0)
(0 0 0)
(0 0 0)
(0 0 0)
(0 0 0)
(0 0 0)
(0 0 0)
(0 0 0)
(0 0 0)
(0 0 0)
(0 0 0)
(0 0 0)
(0 0 0)
(0 0 0)
(0 0 0)
(0 0 0)
(0 0 0)
(0 0 0)
(0 0 0)
(0 0 0)
(0 0 0)
(0 0 0)
(0 0 0)
(0 0 0)
(0 0 0)
(0 0 0)
(0 0 0)
(0 0 0)
(0 0 0)
(0 0 0)
(0 0 0)
(0 0 0)
(0 0 0)
(0 0 0)
(0 0 0)
(0 0 0)
(0 0 0)
(0 0 0)
(0 0 0)
(0 0 0)
(0 0 0)
(0 0 0)
(0 0 0)
(0 0 0)
(0 0 0)
(0 0 0)
(0 0 0)
(0 0 0)
(0 0 0)
(0 0 0)
(0 0 0)
(0 0 0)
(0 0 0)
(0 0 0)
(0 0 0)
(0 0 0)
(0 0 0)
(0 0 0)
(0 0 0)
(0 0 0)
(0 0 0)
(0 0 0)
(0 0 0)
(0 0 0)
(0 0 0)
(0 0 0)
(0 0 0)
(-2.09105052362 -0.078316162795 0.159710258203)
(-4.61307459161 -0.350475368355 0.590219641034)
(-1.99057820673 0.0185319329877 0.0198900744124)
(-0.788823397933 0.000489911955276 0.0171207908948)
(-4.15854031452 -0.183797995138 0.356145849233)
(-1.03343489182 0.0137922853163 0.00465087763808)
(-2.26267528894 -0.157088397834 0.268905808163)
(-1.89596512473 -0.00210510814715 0.0533408708709)
(-3.50807409597 0.0574689926073 0.017489002159)
(-2.40945103871 0.0397565217376 0.00067148012684)
(-1.44925098633 0.0242206874752 0)
(-3.65081695689 -0.0198465103509 0.12418038135)
(-1.84938657699 0.0343151659121 0.00388272283859)
(-1.28368770989 0.0214537020367 0)
(-0.812313198823 -0.0141445131551 0.040227392485)
(-0.202629054409 -0.000144761620879 0.0055033449652)
(-0.331387191457 0.00505206177497 0.000638274696849)
(-0.197191797575 0.00329557885198 0)
(-0.252767622006 0.00444865959777 0.00082677474271)
(-0.474353852308 0.00792766506133 0)
(-0.795332051987 -0.0385146256559 0.0720216279696)
(-0.817540552819 0.00895405983734 0.00986374694675)
(-0.359631572133 0.0072530841362 0)
(-0.684239548377 0.0114353913958 0)
(-0.252822029322 0.00422530218494 0)
(-0.862680100082 0.0173986152312 0)
(-0.317377518396 0.00640090031642 0)
(-0.605874905692 0.0101257179593 0)
(-1.61169538529 0.0325048275435 0)
(-3.41214140598 0.0688163960561 0)
(-2.37566213851 0.0397033852289 0)
(-1.44652153692 0.0241750714006 0)
(-3.01117962115 0.060729760215 0)
(-1.82634142613 0.0368338295399 0)
(-1.27212910047 0.0212605281357 0)
(-1.25520233148 0.0253150413469 0)
(-1.61177956843 0.0325065253572 0)
(-1.8514652333 0.0309427153819 0)
(-0.681523013996 0.0113899911643 0)
(-2.34511106078 0.0472964254269 0)
(-0.862684587107 0.0173987057259 0)
(-0.99051271827 0.0165539987316 0)
(-0.761278073543 0.015353529407 0)
(-0.359624838358 0.00725294832878 0)
(-0.683163912877 0.0114174147779 0)
(-0.250350654562 0.00418399919722 0)
(-0.862664042601 0.0173982913823 0)
(-0.317356985908 0.00640048621523 0)
(-0.601077190297 0.0100455358747 0)
(-0.592866464224 0.0119569878724 0)
(-0.169864706823 0.00342584774482 0)
(-0.321648552341 0.00537556926757 0)
(-0.195068032923 0.00326008531744 0)
(-0.407476145361 0.00821801809075 0)
(-0.247156420306 0.00498467445627 0)
(-0.46767329936 0.00781601594972 0)
(-0.280059172183 0.00564826032071 0)
(-0.97759776891 0.0197162858289 0)
(-0.415666765822 0.00694685387403 0)
(-0.414019825566 0.00691932929367 0)
(-0.523253515065 0.0105530272184 0)
(-0.523239601013 0.0105527465985 0)
(-0.221865681624 0.0037079425074 0)
(-0.132286151339 0.0026679598235 0)
(-0.103023356496 0.00207778496262 0)
(-0.196757891909 0.00328832717946 0)
(-0.0431930363912 0.000720303839975 0)
(-0.247147515316 0.00498449485958 0)
(-0.0535308412079 0.00108146659626 0)
(-0.103359400645 0.00172366148348 0)
(-0.132283691241 0.00266791020802 0)
(-0.103025999257 0.00207783826207 0)
(-0.195240038242 0.00326295996588 0)
(-0.0428632358611 0.000714803958326 0)
(-0.247143965673 0.00498442327003 0)
(-0.0535335631703 0.0010815215872 0)
(-0.102965936049 0.00171709991516 0)
(-0.0624848137551 0.00126019973361 0)
(-0.00924150100823 0.000127716921064 0)
(-0.0203528682627 0.000339412330991 0)
(-0.0202804700569 0.00033820499041 0)
(-0.0252861895313 0.00051084886222 0)
(-0.0252871341946 0.000510867946953 0)
(-0.0487070861429 0.000812258273879 0)
(0 0 0)
(-0.0367928313094 0.000743313894289 0)
(-0.00883313635148 0.000104764004528 0)
(-0.0145052280256 0.00017203694295 0)
(-0.0104725280447 0.000144729631739 0)
(-0.0196928332953 0.000397848061303 0)
(0 0 0)
(0 0 0)
(0 0 0)
(0 0 0)
(0 0 0)
(0 0 0)
(0 0 0)
(0 0 0)
(0 0 0)
(0 0 0)
(-0.00535675539482 2.48043181851e-05 0)
(0 0 0)
(-0.00815540940078 0.000112707208251 0)
(0 0 0)
(0 0 0)
(0 0 0)
(0 0 0)
(0 0 0)
(0 0 0)
(0 0 0)
(0 0 0)
(0 0 0)
(0 0 0)
(0 0 0)
(0 0 0)
(0 0 0)
(0 0 0)
(0 0 0)
(0 0 0)
(0 0 0)
(0 0 0)
(0 0 0)
(0 0 0)
(0 0 0)
(0 0 0)
(0 0 0)
(0 0 0)
(0 0 0)
(0 0 0)
(0 0 0)
(0 0 0)
(0 0 0)
(0 0 0)
(0 0 0)
(0 0 0)
(0 0 0)
(0 0 0)
(0 0 0)
(0 0 0)
(0 0 0)
(0 0 0)
(0 0 0)
(0 0 0)
(0 0 0)
(0 0 0)
(0 0 0)
(0 0 0)
(0 0 0)
(0 0 0)
(0 0 0)
(0 0 0)
(0 0 0)
(0 0 0)
(0 0 0)
(0 0 0)
(0 0 0)
(0 0 0)
(0 0 0)
(0 0 0)
(0 0 0)
(0 0 0)
(0 0 0)
(0 0 0)
(0 0 0)
(0 0 0)
(0 0 0)
(0 0 0)
(0 0 0)
(0 0 0)
(0 0 0)
(0 0 0)
(0 0 0)
(0 0 0)
(0 0 0)
(0 0 0)
(0 0 0)
(0 0 0)
(0 0 0)
(0 0 0)
(0 0 0)
(0 0 0)
(0 0 0)
(0 0 0)
(0 0 0)
(0 0 0)
(0 0 0)
(0 0 0)
(0 0 0)
(0 0 0)
(0 0 0)
(0 0 0)
(0 0 0)
(0 0 0)
(0 0 0)
(0 0 0)
(0 0 0)
(0 0 0)
(0 0 0)
(0 0 0)
(0 0 0)
(0 0 0)
(0 0 0)
(0 0 0)
(0 0 0)
(0 0 0)
(0 0 0)
(0 0 0)
(0 0 0)
(0 0 0)
(0 0 0)
(0 0 0)
(0 0 0)
(0 0 0)
(0 0 0)
(0 0 0)
(0 0 0)
(0 0 0)
(0 0 0)
(0 0 0)
(0 0 0)
(0 0 0)
(0 0 0)
(0 0 0)
(0 0 0)
(0 0 0)
(0 0 0)
(0 0 0)
(0 0 0)
(0 0 0)
(0 0 0)
(0 0 0)
(0 0 0)
(0 0 0)
(0 0 0)
(0 0 0)
(0 0 0)
(0 0 0)
(0 0 0)
(0 0 0)
(0 0 0)
(0 0 0)
(0 0 0)
(0 0 0)
(0 0 0)
(0 0 0)
(0 0 0)
(0 0 0)
(0 0 0)
(0 0 0)
(0 0 0)
(0 0 0)
(0 0 0)
(0 0 0)
(0 0 0)
(0 0 0)
(0 0 0)
(0 0 0)
(0 0 0)
(0 0 0)
(0 0 0)
(0 0 0)
(0 0 0)
(0 0 0)
(0 0 0)
(0 0 0)
(0 0 0)
(0 0 0)
(0 0 0)
(0 0 0)
(0 0 0)
(0 0 0)
(0 0 0)
(0 0 0)
(0 0 0)
(0 0 0)
(0 0 0)
(0 0 0)
(0 0 0)
(0 0 0)
(0 0 0)
(-0.0286574739902 0.000578957852224 0)
(-0.0624957949243 0.00126042120289 0)
(-0.0713250674637 0.00118944450942 0)
(-0.0144946306073 0.00017191125396 0)
(-0.0909298760056 0.00183388248493 0)
(-0.0231374392885 0.000385848918232 0)
(-0.0196961752188 0.000397915577123 0)
(-0.036796593589 0.00074338990243 0)
(-0.132296801585 0.00266817461868 0)
(-0.0914863675895 0.0015256621758 0)
(-0.0334905590853 0.000558501562464 0)
(-0.116752367541 0.00235467297782 0)
(-0.041695176955 0.000842354427549 0)
(-0.0296138102017 0.000493851393344 0)
(-0.00531570280058 2.78419761147e-05 0)
(0 0 0)
(0 0 0)
(0 0 0)
(0 0 0)
(-0.0047277447494 2.18917005573e-05 0)
(0 0 0)
(-0.00924236746989 0.000127728895506 0)
(0 0 0)
(-0.00873761727098 0.000103631115713 0)
(0 0 0)
(-0.0104728092114 0.000144733517443 0)
(0 0 0)
(-0.00605474881944 2.80363587991e-05 0)
(-0.0367948527396 0.000743354732602 0)
(-0.132295429019 0.00266814693665 0)
(-0.0906464970682 0.001511656169 0)
(-0.0334611134875 0.000558010516246 0)
(-0.116748726848 0.00235459955198 0)
(-0.0416949271809 0.000842349381442 0)