time,angle_deg,tsr,cp,cd,ct,cd_blade1,ct_blade1,cd_blade2,ct_blade2,cd_blade3,ct_blade3
0.00625,1.92915082536,4,0.27642636636,0.381582206025,0.0691065915899,124.681246667,23.0025897211,124.681246668,23.0025897214,124.681246668,23.0025897214
0.0135416666667,4.17982678827,4,0.441326839287,0.546989970751,0.110331709822,179.720653887,36.7209931467,179.630908212,36.7092480926,179.876209449,36.7436942374
0.02265625,6.99317174192,4,0.440905381043,0.547511771987,0.110226345261,179.879713309,36.6819806535,179.844764002,36.6782115305,180.037972,36.708529403
0.036328125,11.2131891724,4,0.440334176346,0.548036928829,0.110083544087,180.057035394,36.6324490194,180.055655139,36.6367889148,180.190511238,36.6568866843
0.05,15.4332066029,4,0.439612787868,0.548904218922,0.109903196967,180.349139672,36.5690579146,180.359664753,36.5799223508,180.485283558,36.5970551299
0.0666666666667,20.5776088038,4,0.439161151639,0.549696547548,0.10979028791,180.598636022,36.5265046354,180.649553077,36.5472407596,180.760987491,36.5595424029
0.0833333333333,25.7220110048,4,0.43858822894,0.550438665002,0.109647057235,180.820193626,36.4697804976,180.929859276,36.5055746902,181.028070259,36.5149067552
0.1,30.8664132057,4,0.438083806158,0.55098961443,0.109520951539,181.007160033,36.4287886943,181.130311024,36.4696141419,181.218947545,36.4659337425
0.116666666667,36.0108154067,4,0.437849730608,0.551415670228,0.109462432652,181.171363659,36.4041810868,181.282364401,36.453275944,181.356250288,36.4484443426
0.133333333333,41.1552176076,4,0.4377715276,0.551745588483,0.1094428819,181.307778428,36.4034034643,181.373492447,36.4439573837,181.485694829,36.4390177308
0.15,46.2996198086,4,0.437819578634,0.551951685945,0.109454894658,181.378156906,36.4079138767,181.437004177,36.4477390034,181.584651784,36.442721279
0.166666666667,51.4440220095,4,0.437940772126,0.552069268049,0.109485193031,181.432798237,36.4156261976,181.50028,36.4611872217,181.610888398,36.4518157861
0.183333333333,56.5884242105,4,0.438108949394,0.552132480352,0.109527237348,181.46533073,36.4322859659,181.551912094,36.4819863932,181.616341059,36.4563410399
0.2,61.7328264114,4,0.438281085047,0.552255380007,0.109570271262,181.51564676,36.4486110468,181.586115985,36.492027416,181.680806667,36.4729473111
0.216666666667,66.8772286124,4,0.438471108351,0.552421917601,0.109617777088,181.565340924,36.4669856468,181.653767775,36.5146969562,181.755741471,36.4793410636
0.233333333333,72.0216308133,4,0.43863142277,0.552662383962,0.109657855692,181.617045199,36.4743017088,181.755628992,36.5305665727,181.867999867,36.4961766773
0.25,77.1660330143,4,0.438767509609,0.55301804943,0.109691877402,181.745431243,36.4869939926,181.880646377,36.5430819599,181.99512474,36.5049420651
0.266666666667,82.3104352152,4,0.438869905347,0.553544095419,0.109717476337,181.966382187,36.5028004931,182.02627201,36.5518098762,182.178900843,36.5059699764
0.283333333333,87.4548374162,4,0.438849123345,0.554093804353,0.109712280836,182.157232713,36.5062287072,182.2049061,36.5472067278,182.383100555,36.5019568396
0.3,92.5992396171,4,0.438542225156,0.554613329402,0.109635556289,182.331693184,36.4853870255,182.409930949,36.5313030488,182.546882898,36.4620873692
0.325,100.315842919,4,0.438283722948,0.554732241546,0.109570930737,182.419673665,36.4860587678,182.472358804,36.5025601567,182.539439656,36.4256253815
0.35,108.03244622,4,0.436008296497,0.554602632732,0.109002074124,182.397013724,36.3021273465,182.477212583,36.320980138,182.46338161,36.2230936737
0.375,115.749049521,4,0.433483968691,0.554511824696,0.108370992173,182.407789994,36.1047441623,182.510060071,36.1216689959,182.3638103,35.9896084957
0.4,123.465652823,4,0.430514909947,0.553933747546,0.107628727487,182.267871439,35.8737781923,182.346976363,35.8683903602,182.123364819,35.7326498539
0.425,131.182256124,4,0.427760973562,0.553142390638,0.10694024339,182.053155288,35.6505430846,182.100960876,35.6351968588,181.826619946,35.501578899
0.45,138.898859426,4,0.425507548732,0.552175965779,0.106376887183,181.778065941,35.460176563,181.811295547,35.4538340715,181.457930659,35.3107576
0.475,146.615462727,4,0.423537817732,0.551009324421,0.105884454433,181.51032446,35.3240326517,181.394473251,35.2601462903,181.007892999,35.1488607211
0.5,154.332066029,4,0.421868053182,0.549970226945,0.105467013296,181.230748587,35.2164159442,180.967031036,35.0555521005,180.706357182,35.0442274219
0.525,162.04866933,4,0.420859258151,0.549354644995,0.105214814538,181.000893142,35.1417403574,180.837873962,34.9600036467,180.478501451,34.9626133488
0.55,169.765272631,4,0.420400904207,0.548952867463,0.105100226052,180.823960991,35.0850761629,180.798897518,34.9574887186,180.319900739,34.9073678472
0.575,177.481875933,4,0.420255168411,0.548705227461,0.105063792103,180.710524359,35.0477532629,180.702510301,34.9381762322,180.30802636,34.927621385
0.6,185.198479234,4,0.419472179796,0.548184317081,0.104868044949,180.566343686,34.99087118,180.573002761,34.8453888134,180.086128754,34.8818236513
0.625,192.915082536,4,0.418398657795,0.547664779609,0.104599664449,180.500685072,34.9426748963,180.490173303,34.7843784178,179.739440465,34.7230336146
0.65,200.631685837,4,0.417139637169,0.547100792289,0.104284909292,180.378564972,34.8847604724,180.251586288,34.7048721406,179.559790218,34.5461492588
0.675,208.348289138,4,0.416939192379,0.547136862347,0.104234798095,180.235056532,34.7933369212,179.974630907,34.6205465965,180.038177318,34.6718588158
0.7,216.06489244,4,0.416327650953,0.546804794139,0.104081912738,179.981399889,34.6329914721,179.6438124,34.4832501541,180.311978573,34.816833977
0.725,223.781495741,4,0.41486147472,0.546124319093,0.10371536868,179.791691694,34.5210902575,179.41359685,34.3528804809,180.072415433,34.6930849643
0.75,231.498099043,4,0.41288317203,0.545075346839,0.103220793007,179.530142768,34.3916411676,179.118529214,34.2173717885,179.600874988,34.4641743173
0.775,239.214702344,4,0.41147177455,0.544341399751,0.102867943637,179.366088922,34.3042992613,178.826969658,34.0968319016,179.342181699,34.3197113152
0.8,246.931305646,4,0.410182113964,0.543594043501,0.102545528491,179.292792422,34.2505884964,178.480519635,33.9819066321,179.033607717,34.1663932568
0.825,254.647908947,4,0.409694223355,0.543215222715,0.102423555839,179.362636624,34.2822700512,178.274412805,33.9406981545,178.808894952,34.0541219483
0.85,262.364512248,4,0.408677570663,0.542297026953,0.102169392666,178.934375117,34.1722978203,178.069752453,33.9312482941,178.541457746,33.9197443198
0.875,270.08111555,4,0.406411974867,0.540931625217,0.101602993717,177.811466333,33.6506612982,177.896502023,33.9071936395,178.489480901,33.899846498
0.9,277.797718851,4,0.403727127451,0.539450568725,0.100931781863,176.689860145,33.1119606922,177.714107614,33.8273722098,178.328731805,33.8481165126
0.925,285.514322153,4,0.403338388477,0.539172058203,0.100834597119,176.806888064,33.1739783505,177.489122752,33.7304350657,178.171785154,33.785990229
0.95,293.230925454,4,0.403432846141,0.539112713126,0.100858211535,177.281827721,33.3894863916,177.169075912,33.6092693624,177.970119165,33.7152285386
0.975,300.947528756,4,0.403076946192,0.538880938707,0.100769236548,177.589267672,33.4722552291,176.833825514,33.505462242,177.778321487,33.6474190687
1,308.664132057,4,0.401268798668,0.537760320078,0.100317199667,177.530729337,33.4387474189,176.050080504,33.1866247406,177.512765896,33.5483739121
1.025,316.380735358,4,0.4000146251,0.537034492666,0.100003656275,177.520445759,33.4932057262,175.443065189,32.8575531061,177.415775741,33.5098922141
1.05,324.09733866,4,0.400457940944,0.537393785319,0.100114485236,177.309351588,33.4794716744,176.082172743,33.0137541304,177.356555657,33.4780957173
1.075,331.813941961,4,0.402502134595,0.538576295111,0.100625533649,177.222141119,33.4633568173,177.443053461,33.5885170796,177.273387493,33.4297652386
1.1,339.530545263,4,0.403265680042,0.538957448463,0.10081642001,177.067798852,33.399330678,178.103485758,33.8965671431,177.157129839,33.3763547088
1.125,347.247148564,4,0.402718665951,0.538728592629,0.100679666488,176.95532255,33.3475041068,177.89828293,33.7658762212,177.25496428,33.4223142367
1.15,354.963751866,4,0.402066935722,0.538395582248,0.10051673393,176.844346412,33.3147308006,177.631316169,33.6073106208,177.308566841,33.4509535795
1.175,362.680355167,4,0.401487483904,0.538034590421,0.100371870976,176.645238259,33.2726262922,177.240964379,33.4316613396,177.545326648,33.5240515688
1.2,370.396958468,4,0.400755049792,0.537492203501,0.100188762448,176.434796024,33.2421504056,176.902373949,33.2697529244,177.560143678,33.5335891877
1.225,378.11356177,4,0.399883362201,0.536842476784,0.0999708405501,176.306682382,33.2466045676,176.607023003,33.1355360235,177.341837771,33.445741657
1.25,385.830165071,4,0.397600489014,0.535345525894,0.0994001222534,176.153435323,33.2314214264,176.337767282,33.0263145325,176.276104561,33.0002441197
1.275,393.546768373,4,0.394921617024,0.533671037077,0.0987304042561,175.82102666,33.1508968159,176.185818875,32.9581699256,175.094198997,32.4801530365
1.3,401.263371674,4,0.393422236614,0.532656051944,0.0983555591535,175.480188548,33.0289062151,176.02937709,32.9126257646,174.583014253,32.2733787243
1.325,408.979974976,4,0.392998544665,0.532304620947,0.0982496361662,175.037954051,32.8453365715,175.824991853,32.8566947584,174.883141796,32.4071078566
1.35,416.696578277,4,0.392615675489,0.532062636427,0.0981539188723,174.681400385,32.6745331318,175.689452586,32.8204358103,175.13759755,32.5185898262
1.375,424.413181578,4,0.39221479367,0.53180679141,0.0980536984175,174.441323334,32.5211066442,175.523844012,32.7766170615,175.291423673,32.6157579231
1.4,432.12978488,4,0.392333877845,0.531878354739,0.0980834694613,174.320419599,32.4276323272,175.470687015,32.7747936859,175.54031729,32.7407840869
1.425,439.846388181,4,0.392373641535,0.531942092587,0.0980934103838,174.314997711,32.3928300537,175.468106901,32.7774623379,175.615247891,32.7828444153
1.45,447.562991483,4,0.393787666854,0.532916408156,0.0984469167136,175.104379837,32.6909076388,175.489059749,32.7799472189,175.781071515,32.835282765
1.475,455.279594784,4,0.394744336704,0.533508597024,0.098686084176,175.764766334,32.9661759254,175.401372408,32.7563468307,175.802999514,32.8224403196
1.5,462.996198086,4,0.395322044887,0.533946891722,0.0988305112218,176.077158031,33.0628252923,175.602152231,32.8256135229,175.730576079,32.8007447756
1.525,470.712801387,4,0.394625348501,0.533556467557,0.0986563371253,175.941396319,32.9746039181,175.55044735,32.7920359905,175.531125513,32.7486186545
1.55,478.429404688,4,0.39431128522,0.533434542578,0.0985778213051,175.818471435,32.8775385601,175.720369841,32.8368708664,175.36515726,32.7224455941
1.575,486.14600799,4,0.39331134465,0.532767955767,0.0983278361624,175.469466332,32.7144352578,175.663043924,32.7963112411,175.108621734,32.6764808577
1.6,493.862611291,4,0.392842681717,0.532452821199,0.0982106704294,175.452653978,32.6854603757,175.53270215,32.7253721926,174.943741969,32.6593966024
1.625,501.579214593,4,0.391576762374,0.531594445764,0.0978941905935,175.139268759,32.5581696575,175.193237705,32.5747135234,174.742050814,32.62131872
1.65,509.295817894,4,0.390630679337,0.531032725093,0.0976576698343,175.187132897,32.5666594998,174.712142872,32.3445457333,174.616688438,32.6068141334
1.675,517.012421195,4,0.389489781327,0.53025585772,0.0973724453317,175.114712112,32.5485671532,174.340691863,32.1736849531,174.286875204,32.5109506286
1.7,524.729024497,4,0.389532766971,0.530204798249,0.0973831917428,175.044558005,32.5499254432,174.324469022,32.1713324017,174.324076761,32.5226759336
1.725,532.445627798,4,0.388867856332,0.529782304871,0.0972169640831,174.893024683,32.513506963,174.393448326,32.1924380206,173.986418743,32.3719988408
1.75,540.1622311,4,0.388926818084,0.529856789075,0.0972317045209,174.810103944,32.5012863279,174.5035847,32.2447325781,174.035029761,32.3466442774
1.775,547.878834401,4,0.388786694551,0.529764447995,0.0971966736379,174.728119207,32.4970982749,174.534434986,32.2605934683,173.995532292,32.2999906513
1.8,555.595437703,4,0.389133735887,0.53000982228,0.0972834339719,174.679682024,32.4947232317,174.832514712,32.3648197368,173.992204213,32.2847756927
1.825,563.312041004,4,0.388760563494,0.529835694592,0.0971901408736,174.585372358,32.4645880958,174.702577279,32.3038999752,174.043976833,32.2826709011
1.85,571.028644305,4,0.389192046092,0.530170911669,0.0972980115229,174.543387309,32.4508614468,174.80070139,32.3241857873,174.324013757,32.3838281324
1.875,578.745247607,4,0.389217522205,0.530212871866,0.0973043805512,174.432454798,32.4038513669,174.705310951,32.3005330397,174.573800208,32.4608508803
1.9,586.461850908,4,0.389177018474,0.530235737626,0.0972942546185,174.528746779,32.4233755272,174.584505586,32.2916732052,174.622665218,32.4400751019
1.925,594.17845421,4,0.388593155236,0.529907999042,0.0971482888091,174.423393086,32.3501977713,174.367838423,32.2618266242,174.618903635,32.3973423607
1.95,601.895057511,4,0.388258980438,0.52969545362,0.0970647451096,174.495352868,32.3397042701,174.142401776,32.2379574871,174.561551636,32.348280767
1.975,609.611660813,4,0.387904814932,0.529416146047,0.096976203733,174.476886203,32.3123462374,173.969040514,32.2309986377,174.475880181,32.2941828867
2,617.328264114,4,0.387792445056,0.529292966581,0.0969481112639,174.430393873,32.2790194464,173.849562603,32.2294957228,174.520511796,32.3009602957
2.025,625.044867415,4,0.387252570107,0.52887516335,0.0968131425268,174.240237692,32.1919345322,173.709702991,32.2164878035,174.435437341,32.2662773973
2.05,632.761470717,4,0.386869827715,0.528600879604,0.0967174569287,174.028086117,32.0807878978,173.587518907,32.2138237679,174.498053472,32.2845392996
2.075,640.478074018,4,0.386520441271,0.528350595917,0.0966301103177,173.90197175,31.9988762256,173.479688643,32.1893527104,174.484332763,32.3037003239
2.1,648.19467732,4,0.386305158296,0.528229944454,0.0965762895741,173.929631094,31.9712378967,173.429940951,32.1652554634,174.38811972,32.3016921199
2.125,655.911280621,4,0.386067058907,0.528103973659,0.0965167647268,173.96762743,31.9604184388,173.382028474,32.1281951386,174.274152442,32.2901321758
2.15,663.627883923,4,0.385963221884,0.528061255606,0.0964908054709,174.016601754,31.9790206156,173.406825932,32.1010171976,174.159578929,32.2727858059
2.175,671.344487224,4,0.38599294742,0.528135926602,0.096498236855,174.113413479,32.0020629602,173.451680082,32.0953657156,174.09428525,32.2628157005
2.2,679.061090525,4,0.385854143292,0.528102296378,0.0964635358231,174.117685658,31.9967666553,173.504705741,32.0940320915,174.005292586,32.23479422
2.225,686.777693827,4,0.385797489422,0.528119956193,0.0964493723555,174.070381441,31.9803367984,173.662029657,32.1319948154,173.914969532,32.1991181392
2.25,694.494297128,4,0.385669627346,0.528058311057,0.0964174068365,174.022237214,31.9666501232,173.791509054,32.1596069537,173.774380625,32.1532728679
2.275,702.21090043,4,0.38568736785,0.528086721791,0.0964218419624,173.909424975,31.9676405509,173.914048237,32.1667817477,173.795468362,32.1495364298
2.3,709.927503731,4,0.385186214639,0.52775741102,0.0962965536596,173.741838504,31.9629656102,173.87224765,32.1079753125,173.678565311,32.0879086652
2.325,717.644107033,4,0.385028036419,0.527656026367,0.0962570091048,173.56061143,31.9658979602,173.865894649,32.061589162,173.767455405,32.0918744596
2.35,725.360710334,4,0.384660300154,0.527335718909,0.0961650750384,173.30074795,31.9445402382,173.768886361,32.005516668,173.806940748,32.0775020749
2.375,733.077313635,4,0.384810984341,0.527357808257,0.0962027460852,173.156327762,31.950276184,173.926005104,32.0477532136,173.818664252,32.0671467607
2.4,740.793916937,4,0.384228586846,0.526924833223,0.0960571467116,172.959571746,31.9231103125,173.814240329,31.9936836864,173.697108059,32.0029909929
2.425,748.510520238,4,0.384018419772,0.526802677002,0.0960046049431,172.886699244,31.9314609373,173.891151409,32.0222056772,173.573231245,31.9136517435
2.45,756.22712354,4,0.383533744349,0.52645122808,0.0958834360871,172.706288931,31.8932810225,173.859766597,32.0285867376,173.436071143,31.8244550134
2.475,763.943726841,4,0.383691815726,0.526531997433,0.0959229539315,172.817431923,31.9437734138,173.837430404,32.0560045575,173.429587013,31.7860061361
2.5,771.660330143,4,0.383127522557,0.52623689175,0.0957818806392,172.631887346,31.8610477459,173.686202487,32.0331605766,173.473152292,31.7507042274
2.525,779.376933444,4,0.383253429007,0.526437363761,0.0958133572518,172.783175597,31.8887566695,173.624686125,32.0388263377,173.584689325,31.7487611438
2.55,787.093536745,4,0.382947017564,0.526287663361,0.095736754391,172.815756277,31.875932099,173.507326893,32.0212047807,173.521076087,31.7027139526
2.575,794.810140047,4,0.383168583234,0.526465525609,0.0957921458085,172.877236796,31.8759146894,173.441509806,32.0080102651,173.704248301,31.7712380854
2.6,802.526743348,4,0.382628453808,0.526172140398,0.0956571134521,172.88883239,31.8533326959,173.304372613,31.9570208112,173.538317934,31.7099702728
2.625,810.24334665,4,0.382648122018,0.526237460847,0.0956620305044,173.048851576,31.8851519252,173.212069837,31.9166163214,173.537571208,31.7234655542
2.65,817.959949951,4,0.382382404809,0.526085700788,0.0955956012023,173.179411228,31.9017716271,173.037821905,31.8406063939,173.431778039,31.7165214716
2.675,825.676553252,4,0.382382226251,0.526108679507,0.0955955565627,173.203974365,31.8625627843,173.152633284,31.8671112306,173.317689593,31.7291809018
2.7,833.393156554,4,0.381697478692,0.525667421519,0.0954243696731,173.17364827,31.8026597526,172.975059881,31.7727382831,173.087682722,31.7125147887
2.725,841.109759855,4,0.381640629019,0.525582229532,0.0954101572548,173.175391132,31.7696965454,173.118027266,31.7965651604,172.86085308,31.7074590241
2.75,848.826363157,4,0.381397252015,0.525327313031,0.0953493130038,173.168534073,31.736857338,173.113737438,31.7805131193,172.62061883,31.6955930289
2.775,856.542966458,4,0.381401456958,0.525244238934,0.0953503642394,173.2923701,31.7731358353,173.110530133,31.7651277596,172.420309296,31.6757496237
2.8,864.25956976,4,0.380898427101,0.524888053392,0.0952246067754,173.217532782,31.7364398008,173.006395417,31.6974121491,172.246988031,31.6545836377
2.825,871.976173061,4,0.380701633592,0.524779159514,0.0951754083979,173.307569024,31.7712261606,172.950422546,31.6292297278,172.107645842,31.6388516755
2.85,879.692776362,4,0.380513134427,0.524669888316,0.0951282836067,173.271403214,31.7893643487,172.94924674,31.5860178445,172.039327391,31.6168679679
2.875,887.409379664,4,0.380565722722,0.524738095241,0.0951414306804,173.194948325,31.8001113326,173.014253582,31.5682114861,172.122239022,31.6370556159
2.9,895.125982965,4,0.380234474206,0.524597584315,0.0950586185516,173.052680018,31.7811971022,173.055395122,31.5359509309,172.086245316,31.605536694
2.925,902.842586267,4,0.380048653833,0.524552025845,0.0950121634582,172.922843827,31.7634471254,173.034151116,31.4992692448,172.194818509,31.6135796943
2.95,910.559189568,4,0.379907728014,0.524536454628,0.0949769320035,172.842351195,31.7520943076,173.066977302,31.4775326203,172.229731018,31.6114880629
2.975,918.27579287,4,0.379764747418,0.5244982766,0.0949411868546,172.722834487,31.7132404245,173.102008425,31.4832507409,172.278725054,31.608929792
3,925.992396171,4,0.379527143862,0.52437511352,0.0948817859656,172.607035256,31.6617681574,173.025745072,31.4729964866,172.350485077,31.6113403676
3.025,933.708999472,4,0.379331814618,0.524264810016,0.0948329536545,172.452757012,31.604658487,172.97055438,31.4715780742,172.452468951,31.6211059695
3.05,941.425602774,4,0.37921291077,0.524239216186,0.0948032276926,172.427901555,31.575789346,172.868976094,31.4811758464,172.555998434,31.6106938846
3.075,949.142206075,4,0.378769539346,0.523987786823,0.0946923848366,172.374643294,31.5294894217,172.715235504,31.48577878,172.514541386,31.5417065245
3.1,956.858809377,4,0.378472936179,0.523800780104,0.0946182340448,172.389887014,31.5076452329,172.482840104,31.4758288552,172.547558334,31.4994558821
3.125,964.575412678,4,0.37835084209,0.523656091213,0.0945877105225,172.500396463,31.5159390864,172.216128826,31.4567101433,172.561909039,31.4798008668
3.15,972.29201598,4,0.378405204414,0.523621411629,0.0946013011035,172.529223698,31.5132537532,172.027268949,31.4452626878,172.689932101,31.5075048019
3.175,980.008619281,4,0.378063223682,0.523343948893,0.0945158059204,172.493624355,31.4851203324,171.81693913,31.4100637298,172.66142952,31.4854642557
3.2,987.725222582,4,0.377835469266,0.523198595107,0.0944588673165,172.430917488,31.4265248238,171.713540514,31.399717894,172.684978847,31.4975484184
3.225,995.441825884,4,0.377526005083,0.522982535609,0.0943815012707,172.37088431,31.3659457366,171.526480357,31.3561015537,172.718883152,31.5244884336
3.25,1003.15842919,4,0.37761880243,0.523079036888,0.0944047006076,172.416191932,31.3365035113,171.603914487,31.3840489854,172.694983796,31.549149389
3.275,1010.87503249,4,0.377195321524,0.522888011466,0.0942988303811,172.43669735,31.2926298905,171.529751242,31.3375633498,172.560301575,31.5337898133
3.3,1018.59163579,4,0.377082412028,0.522891876021,0.094270603007,172.478115919,31.2627959918,171.611122721,31.3486823645,172.443689451,31.5243176885
3.325,1026.30823909,4,0.376757613428,0.522710009771,0.0941894033569,172.383454442,31.2021260694,171.650447621,31.341834183,172.319715102,31.5107522577
3.35,1034.02484239,4,0.376912907052,0.522846097404,0.0942282267631,172.527731822,31.2515956451,171.725521949,31.3522659408,172.238538007,31.4896188129
3.375,1041.74144569,4,0.376374608236,0.522526522012,0.094093652059,172.363432693,31.1958538269,171.744841839,31.3392498516,172.066738422,31.423994458
3.4,1049.45804899,4,0.376346212719,0.522521401368,0.0940865531796,172.329681303,31.2022848986,171.868426153,31.3662614482,171.974163652,31.3834630619
3.425,1057.1746523,4,0.376080772425,0.522369798134,0.0940201931063,172.25038538,31.2028087744,171.980266628,31.3760192104,171.792685898,31.3069162454
3.45,1064.8912556,4,0.376146971856,0.522425276432,0.0940367429639,172.17425495,31.2237798198,172.016503111,31.3412545383,171.890456462,31.3372360633
3.475,1072.6078589,4,0.37541824721,0.521996003041,0.0938545618025,171.978939835,31.2073232094,171.973733855,31.2789291729,171.702410356,31.2340973969
3.5,1080.3244622,4,0.375342832363,0.521944272283,0.0938357080907,171.757977693,31.1979420833,172.031601629,31.2611543807,171.816331399,31.2424265642
3.525,1088.0410655,4,0.375215331479,0.521813123784,0.0938038328697,171.562463864,31.1926240193,172.030631337,31.2312530006,171.884346978,31.2458163688
3.55,1095.7576688,4,0.375388059914,0.521882123043,0.0938470149784,171.408380801,31.172477799,172.203063255,31.2886336563,171.937345535,31.2517022917
3.575,1103.4742721,4,0.374851901872,0.521539930676,0.0937129754679,171.251324357,31.1422034473,172.09299316,31.2335332519,171.865160834,31.2032292138
3.6,1111.19087541,4,0.37468782394,0.52145211453,0.093671955985,171.16134761,31.1397412856,172.194252273,31.2708532666,171.768431084,31.1274105357
3.625,1118.90747871,4,0.374440030289,0.521285667137,0.0936100075722,171.034752873,31.1034607104,172.164577915,31.2896810478,171.760598541,31.0830035032
3.65,1126.62408201,4,0.374483992294,0.521330023265,0.0936209980735,171.085359837,31.126043494,172.107208305,31.3062409696,171.813580072,31.0548355826
3.675,1134.34068531,4,0.374020708609,0.521078528407,0.0935051771523,170.996906358,31.0795534567,171.961274567,31.2874103201,171.798622715,31.0045009721
3.7,1142.05728861,4,0.373954377911,0.521066584251,0.0934885944778,171.098193769,31.0929857546,171.832072289,31.276777855,171.816258739,30.9851421781
3.725,1149.77389191,4,0.373866496857,0.521007258677,0.0934666242143,171.138307912,31.1007216029,171.756072247,31.2732107883,171.794481212,30.9590345505
3.75,1157.49049521,4,0.373831070612,0.521004536411,0.093457767653,171.203917256,31.1137783274,171.634795783,31.2296348331,171.848945977,30.9807098848
3.775,1165.20709852,4,0.373527725871,0.520820913954,0.0933819314678,171.272246699,31.1252857543,171.499856653,31.1734869848,171.733698344,30.9496225667
3.8,1172.92370182,4,0.373369807675,0.520723104426,0.0933424519188,171.375168693,31.1432915142,171.376377279,31.1318267513,171.658087665,30.9338539471
3.825,1180.64030512,4,0.373346967535,0.520766445141,0.0933367418837,171.498427679,31.1474830611,171.325860611,31.098225551,171.630156685,30.9575617307
3.85,1188.35690842,4,0.373115396433,0.520652744639,0.0932788491082,171.511801254,31.1072300724,171.301553074,31.0688386472,171.529105761,30.9693916344
3.875,1196.07351172,4,0.372747724483,0.520443572514,0.0931869311209,171.525101794,31.0633622657,171.270339308,31.0273019998,171.3397076,30.9630095438
3.9,1203.79011502,4,0.372655957092,0.520385633657,0.093163989273,171.568027037,31.0460059813,171.362138596,31.0224384841,171.148687189,30.9623203029
3.925,1211.50671832,4,0.372833296586,0.520497792667,0.0932083241466,171.696021467,31.0642224707,171.467107006,31.0433783451,171.029260993,30.9674354273
3.95,1219.22332163,4,0.372675171903,0.520382730152,0.0931687929758,171.727100703,31.0617871982,171.479785173,31.0350027689,170.872097956,30.9387716347
3.975,1226.93992493,4,0.372435262963,0.520218867467,0.0931088157406,171.751667773,31.0715425711,171.382073291,30.9714653167,170.782995957,30.9326622463
4,1234.65652823,4,0.372233807464,0.52004397817,0.093058451866,171.785648607,31.0971799325,171.289563657,30.898954597,170.668136605,30.9292437503
4.025,1242.37313153,4,0.372312927122,0.52009475924,0.0930782317805,171.785360408,31.1333733698,171.328444982,30.8636120126,170.681351679,30.9481445266
4.05,1250.08973483,4,0.372101393418,0.520003988934,0.0930253483544,171.677461149,31.1325882769,171.41000732,30.8405377076,170.618031145,30.9191961218
4.075,1257.80633813,4,0.372121958451,0.520044096262,0.0930304896127,171.571621751,31.13133608,171.521228002,30.8423597179,170.653552609,30.9237602147
4.1,1265.52294143,4,0.372180944174,0.520077830624,0.0930452360436,171.448385105,31.1215759636,171.593503118,30.8497117156,170.738961683,30.9408936768
4.125,1273.23954474,4,0.372395011554,0.520236868801,0.0930987528886,171.388927996,31.1084406496,171.732814052,30.8913545522,170.818565802,30.9658264702
4.15,1280.95614804,4,0.371958132881,0.51998445038,0.0929895332204,171.242403871,31.0516400109,171.603531288,30.8418694198,170.842911782,30.9630487572
4.175,1288.67275134,4,0.372005293363,0.520044580168,0.0930013233408,171.207936473,31.0322197192,171.565793526,30.8416472311,170.975687916,30.9944644982
4.2,1296.38935464,4,0.371798212055,0.519914348978,0.0929495530136,171.068038338,30.9775486456,171.439792864,30.8248916087,171.112072919,31.0141948985
4.225,1304.10595794,4,0.37197685389,0.520053725315,0.0929942134726,171.176687678,31.0080485372,171.355419353,30.8424874371,171.227452528,31.0106957731
4.25,1311.82256124,4,0.371394074905,0.519731838407,0.0928485187262,171.036403374,30.9205141818,171.179415854,30.8332155753,171.22280932,30.9620155874
4.275,1319.53916454,4,0.371405631284,0.519763980837,0.0928514078209,171.144719618,30.9254883529,171.009830207,30.8452120931,171.316587714,30.9479298618
4.3,1327.25576785,4,0.371349000653,0.519696547716,0.0928372501633,171.229127972,30.9336658166,170.835867599,30.8540084865,171.339222787,30.9168185924
4.325,1334.97237115,4,0.371736077137,0.519915118458,0.0929340192843,171.3019879,30.947609037,170.707259578,30.8494296434,171.613575731,31.0040849563
4.35,1342.68897445,4,0.371341419841,0.519648441929,0.0928353549603,171.324245818,30.926960651,170.547085807,30.8280937001,171.485464693,30.9475460517
4.375,1350.40557775,4,0.371534051749,0.519749393013,0.0928835129372,171.289136863,30.8768920259,170.537931744,30.8657561534,171.630675791,31.0080413344
4.4,1358.12218105,4,0.371535530354,0.519683479065,0.0928838825886,171.31090422,30.8459432021,170.429787047,30.8575334893,171.6512859,31.0475819451
4.425,1365.83878435,4,0.371795145053,0.519838633764,0.0929487862631,171.361794787,30.8146343549,170.551903048,30.9195860181,171.633142202,31.0816491258
4.45,1373.55538765,4,0.371537624155,0.519720337541,0.0928844060387,171.442030569,30.7990701988,170.468513066,30.878941869,171.51799106,31.0735692703
4.475,1381.27199096,4,0.371795446146,0.519908235085,0.0929488615366,171.608256055,30.8371849121,170.594835841,30.9075085466,171.412764819,31.0712512059
4.5,1388.98859426,4,0.371854975229,0.519939453127,0.0929637438074,171.641896372,30.8328454829,170.644358255,30.9191397364,171.360403771,31.0788204344
4.525,1396.70519756,4,0.371990941383,0.520068954497,0.0929977353456,171.789655007,30.8817926092,170.720235044,30.9365008932,171.265638829,31.0464550817
4.55,1404.42180086,4,0.371658976944,0.519866552986,0.0929147442361,171.63747713,30.8388748512,170.792522717,30.9441989299,171.142936632,30.9988023708
4.575,1412.13840416,4,0.371677505638,0.519865291214,0.0929193764096,171.542352751,30.8276777109,170.935180178,30.9723872645,171.093616209,30.9864367259
4.6,1419.85500746,4,0.371755545147,0.519934893135,0.0929388862867,171.45858781,30.844172371,171.122195655,30.9995808127,171.059347049,30.9622304957
4.625,1427.57161076,4,0.371764366813,0.519966754085,0.0929410917031,171.361019166,30.8680719825,171.190164013,30.9753334138,171.120257522,30.9647805457
4.65,1435.28821407,4,0.371471412698,0.519805148103,0.0928678531746,171.196959763,30.8782540351,171.201312302,30.9264658117,171.111300638,30.9303322977
4.675,1443.00481737,4,0.371494563732,0.51980154192,0.092873640933,170.976154187,30.8794649243,171.302948558,30.9198454456,171.226369614,30.9415212566
4.7,1450.72142067,4,0.371692542445,0.519887894692,0.0929231356113,170.812233377,30.8822433286,171.436754075,30.9362204804,171.342215091,30.9717917184
4.725,1458.43802397,4,0.371766441958,0.519884813293,0.0929416104894,170.654998323,30.867273822,171.556086231,30.9686152287,171.376517552,30.9728149356
4.75,1466.15462727,4,0.37181069347,0.519869921768,0.0929526733675,170.55366443,30.8721708577,171.635345326,31.0033161264,171.3831287,30.9442640605