/*--------------------------------*- C++ -*----------------------------------*\
| =========                 |                                                 |
| \\      /  F ield         | OpenFOAM: The Open Source CFD Toolbox           |
|  \\    /   O peration     | Version:  v1906                                 |
|   \\  /    A nd           | Web:      www.OpenFOAM.com                      |
|    \\/     M anipulation  |                                                 |
\*---------------------------------------------------------------------------*/
FoamFile
{
    version     2.0;
    format      ascii;
    class       surfaceScalarField;
    location    "6.55";
    object      alphaPhi0.water;
}
// * * * * * * * * * * * * * * * * * * * * * * * * * * * * * * * * * * * * * //

dimensions      [0 3 -1 0 0 0 0];
oriented        oriented;


internalField   nonuniform List<scalar> 
92311
(
0.203397139531
-0.000397788904281
-0.000581463325775
-0.202942518218
0.000524667994223
-0.000330028691048
0.203670811327
-0.000105219186736
0.000161466135146
0.203490687321
-0.000932293928546
-0.000536071559948
-0.202915003343
0.000494955741326
-0.00073027361574
0.203833879586
-0.000125745181695
0.000182744732104
0.203842628349
-0.00041502199857
-0.000491414300694
-0.000341517961021
-0.202870213894
0.000348017412713
-0.000458028773022
-0.000546773065266
-0.000417903323418
-0.000264436779551
-0.000254340795165
0.204342824462
-5.76422137054e-05
0.000218321729476
-0.000454492265344
0.0509120502238
-0.000130010361588
-0.000160309016646
-0.000134706627444
-0.000152305706922
-5.21078904037e-05
-0.0506829082974
-1.46580710647e-05
-0.0510709150602
0.0511815835877
-0.000127477990538
-0.000128791789124
-0.000139800414648
-0.000116725721648
1.22896564895e-05
-2.80105705985e-05
1.48454080452e-05
0.00018738069979
1.8381869642e-05
1.61771661046e-05
2.08713185601e-05
-0.000350200330401
-0.000383977823643
6.64404229698e-06
0.000331799016271
-0.00057946741003
0.000205175451766
8.18497888339e-06
0.000378380351865
6.57851332753e-06
7.37676453491e-06
1.07357673978e-05
1.14652965162e-05
-0.00025303593374
9.15173703108e-25
-2.96788083018e-06
-3.18368239606e-06
-3.6380599888e-06
-6.3179233125e-07
-9.7178747742e-07
-2.00585753942e-07
-3.79265271869e-06
-0.000151128693361
-0.000153457039114
-0.000164949377596
-0.000143580283018
9.4148704884e-06
-4.65786145654e-05
0.000142575377182
0.0111875585325
3.40891819691e-05
-4.5079121686e-05
-0.0112552059828
0.0109468123643
-2.11457069557e-05
0.000165045381777
-0.0110260999323
2.52388470167e-05
-2.85277307742e-05
-3.03184657035e-05
-6.63459197633e-05
0.0511955016923
-5.71786469611e-05
-9.49948387596e-05
-8.45088787826e-05
5.50413372249e-05
-6.00788705396e-05
0.0512055827075
-6.35945436428e-05
-9.76884633747e-05
-0.000108626411958
-0.0511963869051
3.61214732296e-05
-1.82951330701e-05
0.000148529796479
0.010883059679
3.08486479157e-05
-3.33786886771e-05
-4.93108679666e-06
0.0128058267546
1.38938394194e-05
-6.32834510228e-05
-0.0128165047259
0.0128047602296
1.70183563493e-05
-6.44932736332e-05
-0.0128208292877
-0.00033816289661
0.203368226312
-0.00130457015672
0.00109199508385
-0.202817394935
0.203640110941
-0.000136963051256
0.000371557669288
-0.000204178634495
-5.16080903194e-05
0.203462039811
0.000658316490635
-0.000428039737746
-0.000614764214067
0.203310956462
-0.00131064363265
0.00104630298393
-0.202769918652
0.203740562594
-0.000180178149728
0.000297342734471
-0.000160788511629
-2.16648666489e-05
0.20347580598
0.000587828656408
-0.000352630440428
-0.000232568451056
-0.000319178944599
-0.000308432708029
-0.00118578227169
0.203260433103
0.000902277019756
-0.202505371983
-0.000226130525913
-8.53746180551e-05
3.53344667274e-06
-5.13879440128e-05
5.87360956385e-05
0.203999306078
0.000310360130532
-7.2560910166e-05
0.0506372663017
-8.03935147919e-05
-6.12247249856e-05
-7.17502492936e-05
-7.07998889785e-05
-0.000272918815786
-0.0505329759762
0.000220199018848
0.0511838845849
-1.23282287024e-05
-5.18599323825e-05
-4.24467169679e-05
-2.21593742181e-05
-1.35689016939e-05
6.87302613915e-05
0.000192718335006
6.07748817217e-06
-0.000643843930942
8.09095006032e-07
2.03604425753e-06
-9.41222577662e-06
-7.96999368923e-06
-0.000291636325393
-1.27766020828e-06
-6.59622985959e-07
-1.09574256378e-06
-1.34823413835e-07
1.60065487537e-06
-1.95786072966e-07
-1.19176169682e-07
-8.09213875558e-07
0
0
0
0
7.1850915042e-30
0
0
0.000154986983808
-9.59370431305e-05
-0.000107641170435
-9.01160608068e-05
-0.00011224158792
0.0507771886713
-0.000208170622379
-9.6778643614e-05
-0.000115676209724
-9.06976495858e-05
-0.000109945619803
0.0507321613982
0.000103886979628
-0.0505764342738
-4.68739926645e-06
6.49605346663e-05
0.0114822894049
0.000127032528911
-0.000136045242378
-0.0115203012726
-1.05145268366e-05
0.000119054291545
-0.0113740850435
9.94651722522e-05
-0.000105164971788
0.0113055291425
-9.96300447909e-05
0.0126260681471
-3.13899874733e-05
2.34118895918e-05
-0.0126151679489
-1.82631698343e-05
-6.82388321223e-06
1.87029857238e-05
1.28520112435e-06
1.71325851565e-05
0.0510928496125
8.25751470322e-05
0.0511752456749
-4.47177534075e-05
1.73312110788e-06
-4.48490099506e-05
-1.2862653407e-05
6.73877305001e-05
1.63596649933e-05
4.34313408753e-05
5.7327105918e-06
2.89935661256e-05
0.0510619941142
5.93731710941e-05
5.87778206721e-07
1.13376371606e-05
-4.82265253116e-05
0.0127916629465
3.66685200069e-05
-2.55800002977e-05
-0.0107953804316
1.73929253888e-05
0.010779280709
-5.04080228206e-06
2.58573856677e-05
-5.20459603058e-05
0.0127882669636
-0.0127756068372
1.96652242009e-05
0.0127575069163
-3.0048711619e-05
4.56898341653e-05
-8.6353470406e-05
1.94608151636e-05
2.43401219112e-05
2.23680436349e-05
-0.000238691331904
0.000254875100308
7.65897512865e-06
8.93975025881e-06
4.87238967193e-06
2.7440190213e-06
9.1782403072e-06
9.25547533055e-06
-0.000662426416508
9.63715956593e-05
0.000502298662462
-1.52324285769e-06
-4.55963319816e-06
4.0529588804e-06
-1.63633813738e-07
2.95438151153e-06
-5.77986347305e-06
-2.26757754092e-06
8.46154917344e-06
1.64763957786e-05
2.11382330898e-05
1.89051636121e-05
-0.00018040835863
0.000192517569973
-2.6228736728e-06
-2.18357440554e-06
1.22146799347e-06
-2.01717605825e-05
0.0126743987537
-6.95751657045e-08
-0.0126409071442
-0.0126668550109
-0.000182533084533
2.44791722586e-05
0.0127045943361
-3.91812543229e-05
2.8715609444e-05
0.000169678671601
0.0111027489908
-3.78895693108e-05
0.000153872450546
0.0111737142464
-0.0112492194509
2.30024139774e-05
-0.0126311234346
-3.60657540227e-05
0.0110787333398
2.21672049414e-05
0.012711092332
5.99919554646e-06
0.0127442825513
-0.000176693077856
2.77601258843e-05
-4.08623818639e-05
-2.6020767771e-05
-0.0127459682461
0.0127706648756
1.38378670019e-05
2.53007111742e-05
0.000160108679315
-2.96229463106e-05
0.000183805390386
-0.0109990068242
0.0109236751105
2.11070589285e-05
0.0127720095066
-3.37774282353e-05
2.05878658055e-05
1.02398958797e-05
-0.0128041541617
-0.000135987000811
1.80371397036e-05
0.0128115087525
-1.56772312378e-05
-2.31341548754e-05
0.0128008288205
1.38170706165e-05
3.77238949666e-05
0.000120959246613
0.0108457411652
-3.87922780816e-05
0.000166926931249
0.0108618665374
2.94474861719e-05
-2.6843173172e-05
0.01082337798
3.72220664919e-05
0.0128101964188
1.38288870048e-05
-4.95576628552e-05
-0.012816661648
0.0128047124282
1.93958238944e-05
5.07265200874e-05
-0.0108200857821
0.0108152057929
-4.5677272043e-05
-0.0107958913786
5.34075749441e-05
0.0107895393014
-0.000106668671932
1.4612921747e-05
-6.58972575715e-06
4.63469671725e-05
9.38739328115e-05
-4.38397147862e-05
4.89087252056e-05
1.85110138276e-05
-5.50516771579e-05
-0.0128297066281
0.0128093683871
3.00717085595e-05
4.08911132771e-05
-0.0107800743908
0.0107838392583
-0.010741558922
0.0107458444323
2.83511748185e-05
1.17100788897e-05
-0.000114545848677
-0.012820507758
0.000114439588242
-3.52294256273e-05
-0.0107678897063
2.46276534597e-05
-0.0128349413501
2.45531122782e-05
-0.0108028996825
4.18785437025e-06
-0.000378505590475
7.38913736631e-06
1.0646795919e-05
9.95200550283e-06
7.90314806172e-06
0.000378350021345
-0.000500440122444
0.000372914134803
-3.54842613623e-06
3.80998745325e-06
2.35648086322e-06
-3.48816507335e-06
0.00047779131612
2.85986871496e-06
6.79527602078e-06
5.18289304268e-06
6.64800631666e-06
-0.000292546336128
0.00036526186834
-0.000628551702829
3.46123176028e-06
8.5126057235e-06
9.84524535167e-06
8.27041704037e-06
0.000272922968009
-0.000280893359104
2.14086220919e-06
-1.78148927676e-06
-1.98583088304e-06
2.13842787933e-06
-3.16502920485e-06
1.01754125231e-06
4.48344292278e-06
-0.000629125655092
-4.30982450745e-06
-1.78271525298e-05
-3.38248990814e-05
-1.80964957496e-05
3.79579653924e-05
9.99389226741e-08
-1.05593091924e-06
2.08552908297e-06
-1.68942188786e-06
1.34644316205e-06
-1.25436523919e-06
-9.98317460782e-05
-6.3502203201e-05
-7.67904865543e-05
-4.36728286776e-05
-3.46026397802e-05
-0.000398508102836
-3.96194526045e-05
2.24375794196e-07
3.88726899161e-07
1.49855609339e-06
1.81777770698e-07
-2.8893755932e-05
-4.07537954647e-05
-3.26593857563e-05
-0.000518575340923
-0.000227578165612
6.49914625681e-07
1.11700161717e-06
-5.35854362397e-05
-0.0126152307678
-9.36654489274e-05
0.0126340652088
4.83184280769e-05
0.0126209791205
6.03132293789e-05
-6.4897031226e-05
-0.0126124822712
8.50771329226e-05
0.000122002175795
0.0114292275704
-0.000127924636587
7.49698637776e-05
0.0114565184702
-0.0114897620203
0.000111323747056
0.0126403825389
-5.94033674446e-05
-0.012607198588
5.66205916892e-05
0.0114116625594
0.000105995283041
-4.66572944246e-05
0.0126483947952
-0.000102369583598
3.90857145958e-05
-0.0126546550685
4.14079052392e-05
-4.91106597334e-05
0.0126738887663
9.67184722724e-05
0.000108582546959
-0.0001148593838
0.000120165520438
-0.0113585682313
8.47247524651e-05
0.0112869796256
-5.4121255055e-05
3.11404760617e-05
0.0126669009537
9.45174156577e-05
0.011340899009
-8.28541732762e-05
6.60085847126e-05
-0.0113987580236
0.000131140200266
-7.30503216191e-05
0.011265340923
5.94838493784e-05
-2.10928411217e-05
0.0126479667952
1.50356950981e-05
0.0126399190909
-9.69794728703e-05
-0.0126258794395
0.000120541656527
-0.0113544077768
0.0112795472268
0.0126608945412
-0.0114049535104
-3.43406983892e-05
0.0127891863527
2.00628864895e-05
4.65405175443e-05
0.0108080286825
-3.86628521567e-05
0.0107826929376
5.20785144124e-05
9.18054521192e-06
-1.49107027928e-05
0.0127753504943
1.48303061464e-06
7.27833523633e-06
4.02218969732e-05
0.0108129181397
-3.10538931215e-05
0.0127743883344
1.90958441084e-05
0.010786495493
4.45944419164e-05
7.1266183433e-06
0.0127636788778
-3.35537323804e-06
2.63463760102e-06
-0.012763813501
-7.55521747822e-06
0.0127474582468
1.82283529246e-05
-2.34545591521e-06
3.01261253297e-05
-1.97208268417e-05
-2.77391713534e-05
-0.0107631628642
2.35179341583e-05
0.0107504984075
1.80422826312e-05
1.23712806118e-06
0.0127455096134
3.25292434459e-05
-0.012790691944
-1.39903264982e-06
-2.68165087362e-05
4.60024818263e-05
-3.75209998306e-05
3.84382747681e-05
3.96291350363e-05
0.0107772135335
0.0107298210314
2.85879250327e-05
-3.64525031078e-05
0.0107307809879
2.50337926816e-05
-1.93688847621e-05
0.0127708910273
0.0107729993067
0.0107099375795
-2.79174978774e-05
1.41079990795e-05
-5.64157817162e-05
-2.1326759929e-05
0.0106986069748
7.90171081959e-06
-2.68402218766e-05
0.0127337765299
3.82053485747e-05
0.0127579023654
-7.33462148715e-06
-2.29045863893e-05
-0.0107469612481
0.0107324096892
0.0127394469317
-5.23958404126e-06
5.32188453725e-05
5.41632378004e-05
0.000631454766643
0.203540901675
-1.06882911749e-05
-0.000286186325082
-3.2408118152e-05
1.87347944679e-05
1.11730440241e-05
1.83537830717e-05
9.72802826915e-06
9.57882759268e-05
0.0509662715798
-2.74158120926e-05
3.20799937487e-05
-3.38054046014e-07
-3.33535704192e-05
-3.29349532295e-05
-3.79808307861e-05
-0.000183508447062
-0.000340773026903
0
0
0
0
4.07046717075e-29
0
-4.79330401304e-29
-0.000127824375395
-0.000112915916544
-0.000107565688488
-0.000133881706806
0.000327581869816
-0.0001027586306
0.0509373702105
-1.37326917116e-05
0.000135456353108
-5.75622288328e-05
0.0112012780162
0.0509132297602
3.00312250995e-05
3.37967027085e-05
2.08239717253e-05
4.28376334444e-05
4.21079054782e-05
0.0508050838723
2.50938439064e-05
2.50990003549e-05
1.96470998087e-05
3.15005535531e-05
6.93029427731e-05
-8.30642746671e-06
-2.19883914048e-05
0.0107649236865
5.39450189684e-06
7.45965621569e-06
6.61337143241e-05
-5.23850875035e-05
-8.2952435344e-06
0.0106901201455
-9.91482586039e-07
0.0107204854622
2.68564962647e-05
-3.18643656416e-05
1.84540113243e-05
-0.0107111973409
-2.63764575522e-05
0.0507130106993
-2.62292598694e-05
6.84135817324e-06
1.11358707272e-06
-1.98039508443e-05
6.74077507899e-05
0.000113448777195
-5.06873387146e-05
-4.36139820214e-05
-6.50043208635e-05
-6.70690045396e-05
-3.96843710054e-05
0.00013721438068
0.000157474247861
0.0507261664361
-9.23551071144e-05
1.12763352126e-05
-1.92286700532e-05
2.59251067225e-05
0.0107347021411
-3.25222586134e-05
-1.3305632306e-05
9.08301817274e-05
4.72133650389e-05
-0.0107138509293
0.0106822045999
-4.89257235862e-05
1.1480947012e-05
1.64342996566e-05
1.42994731587e-05
-0.000325584838116
0.000198329970803
4.8014380567e-06
-0.000159702471868
-9.70974038892e-07
-4.07803991848e-05
-6.57120078749e-05
-4.612459848e-05
-0.000103264267053
-4.46438498028e-07
1.66889017686e-05
-1.99250928555e-05
-3.13572932445e-05
-2.47503397628e-05
5.3633139317e-07
-9.45246287636e-05
-8.87044432615e-08
1.57655909358e-06
8.67173725922e-07
5.7908899348e-07
1.0028023817e-06
1.98085241041e-07
4.28017680136e-07
6.09640026644e-07
-2.9342995411e-06
-1.52138780372e-06
2.76196649941e-06
4.55454697018e-06
-1.49348161691e-05
2.05978375406e-06
-1.56327783556e-05
1.31497814616e-05
9.98618773672e-06
1.05661538703e-05
-7.74741105026e-05
4.06763259817e-06
-0.000116375267282
8.01952590765e-05
-0.0126880380594
-0.000144505580824
3.69390478896e-06
-1.66146620392e-05
0.0127180920292
-9.24884677644e-06
0.0126802944783
0.000121640266891
0.0112094150649
-7.14178739999e-05
-4.80089898536e-05
0.000157049901514
0.0111190067316
-2.19007863584e-05
-6.02671968694e-05
0.0111250314755
0.0127138610344
1.20368739136e-05
-0.0127233535909
3.8440332572e-05
-6.66070931175e-06
0.0126987737221
0.0127277027232
-8.77038743256e-06
1.87404156555e-05
-3.29774274917e-05
-4.34580386788e-06
1.55506327108e-05
0.0107519403576
-2.54860267187e-05
0.0107408500203
1.2119248671e-05
1.96484161175e-05
0.0127059606063
-1.34883578303e-06
3.23038619065e-06
0.0107305667774
-0.0127148777236
3.56880339847e-05
1.36573918643e-05
0.0126893683976
-2.20984063519e-05
0.0127050218895
3.26998738369e-05
-2.27626755568e-05
0.0107196894663
2.3950101581e-06
-5.90178227836e-05
0.010692196295
-1.16570215268e-05
0.0107111969575
0.0126799251696
2.31961523869e-05
0.0126659210618
3.24445170966e-05
1.84581306418e-06
1.42710874044e-05
2.97882435761e-06
-0.0126575685145
0.0126412148857
6.51308264093e-06
-2.14356776077e-05
-0.0107197802739
0.0107253418776
1.17509382612e-05
1.34784255217e-05
-4.39266554511e-05
-2.1718803772e-05
0.0126489235985
1.80220933655e-05
6.74485808443e-06
1.21126079206e-05
-0.0126256499952
-3.80511004904e-05
-1.493367267e-05
0.0126200814495
3.23937886939e-05
1.04869596522e-05
0.0126192120888
-1.09729079042e-06
-8.02156814462e-06
0.010741121758
2.01771934227e-05
3.28376034825e-05
2.42792598804e-05
0.0107335860389
-3.6830406358e-05
2.67378487077e-05
0.0107381227908
2.68527514634e-05
0.012613689863
-4.83905376958e-06
0.0126238864192
-6.35795163621e-05
-2.065856844e-05
3.72998605737e-05
2.49143334842e-05
-0.0126183313268
0.0126331771201
-1.29862716203e-05
9.65362213064e-05
-0.0107245053599
3.88795056862e-05
0.0106919387224
4.03987233836e-05
5.49855061278e-05
-4.14148561257e-05
4.16275630048e-05
0.0126374867571
3.42440435282e-05
-9.40379996278e-06
-0.00068507770214
-0.0494736176746
0.0493820364064
0.000875687735067
7.89195006612e-06
-1.59205728522e-05
-4.43817130852e-06
1.40435005427e-07
-8.64605817486e-05
-0.000882655535598
0.0498933200292
6.36404724144e-05
4.63421603983e-05
5.95129155585e-05
5.45828393824e-05
-0.000104298152742
-0.0498462392988
0.000715816548789
-0.00123010808781
-0.0499685297401
0.0500599605922
0.00095982450221
7.936449436e-05
6.60909005796e-05
6.89697817999e-05
7.69143867648e-05
-0.000112476565064
-0.000705609413077
5.51880342332e-05
6.31843272833e-05
6.61670057947e-05
5.46312173576e-05
-7.44827914622e-05
0.050207881651
0.000492631976148
-0.0501595805019
3.39575898999e-07
0.000241916773633
-0.000600516442268
0.000632164449994
-0.000262480164925
2.25964328738e-07
2.41039419564e-07
-3.82160234326e-05
-3.08443876783e-05
-1.87497511989e-06
-0.000680806018621
0.000712082051236
-0.000281893360259
1.14275858389e-06
1.57593991379e-07
-2.47823986772e-05
-1.84262437442e-05
0.000201527556234
-5.9551218796e-05
0.000140748730295
0.000647343301801
-1.41433178003e-06
-8.04447535427e-05
-6.44222740644e-05
-7.20711926519e-05
-0.000511970582064
2.53099230919e-05
-7.62587068829e-05
0.000171823217256
-0.000821406304642
0.000953098742145
3.57336460223e-05
-1.12551268671e-06
-7.93567488459e-05
-8.72733749737e-05
-8.56068228041e-05
-6.66384768065e-05
-0.000217534345235
-6.44222960314e-05
-5.57758987366e-05
-5.18059589915e-05
0.00085092552706
0.000356203805407
-1.17897947547e-06
-0.000731277941552
1.65475227177e-07
2.51209930583e-09
-2.21430436541e-07
-7.96303388527e-08
-1.19091754005e-07
-2.72819306288e-08
1.12860387745e-08
-1.02217165214e-07
-2.65241638141e-07
-4.44055931301e-07
-1.22636511037e-06
-6.98667563505e-07
-1.3960244407e-06
3.80524366987e-07
5.3544468078e-08
0
4.36173970509e-28
0
0
8.38046689043e-09
1.91887922145e-08
-2.50571597991e-08
-5.55656221731e-08
-2.0982435752e-07
-4.9023510653e-07
1.80492374615e-07
1.11157115957e-07
3.1913329871e-07
0
0
1.52688188162e-08
1.55484232439e-08
-3.08172420602e-08
-1.79889333241e-40
0
8.74695688122e-08
6.90329400177e-08
8.69876456648e-08
8.19408568551e-08
5.0771319222e-07
-1.24092013304e-07
0.00023278005791
-4.882190263e-05
-3.49746469543e-05
-4.39525851854e-05
-4.1267742672e-05
0.0491228441391
0.000108210726605
2.59134326335e-05
-0.0493205885973
0.0491747330408
0.000495387353544
-4.89113969671e-05
-3.06750794069e-05
-3.91081928236e-05
-4.78979692572e-05
0.00010708651836
-0.0493775059043
-3.07862158882e-06
5.17690100144e-05
-0.0115513052775
-1.15660108914e-07
0.0115231379627
1.79026969533e-05
0.0114797079256
5.48376233923e-05
-1.99933485501e-06
4.1563012028e-05
-4.67449616954e-05
-0.0115037760421
5.13094857463e-06
-1.6274956649e-05
-2.08285971063e-05
8.41564714567e-06
-0.000345314922732
0.0122938730334
0.0122493949875
0.0121862291843
0.0121928917545
-6.35690351383e-05
6.06179212026e-05
-8.16599004069e-07
2.9626477367e-05
-5.03863567077e-05
0.011463334616
0.000663863960117
-2.55937598734e-05
-1.97368443271e-05
-3.42417686973e-05
-1.50723574193e-05
-1.54661627177e-05
-0.0495319256161
0.0496441840694
-1.01323065825e-05
1.87827156692e-05
1.34609943733e-07
1.3420531552e-05
-3.50697570217e-05
-0.0496632261934
0.00069571038014
0.0115141407285
-3.19795246217e-07
3.86804416182e-05
-0.0115370479382
4.61730801856e-05
0.0115265454355
4.72265811745e-05
-2.47927151166e-05
-1.682099427e-05
-0.011556753193
7.22047263933e-06
0.00110642416904
2.321375941e-05
2.48003305907e-05
1.25731467447e-05
3.43216337235e-05
0.0492370051367
-0.000231606847196
-0.00019412079188
-0.00022394960147
-0.000183414899508
-7.18454858941e-05
-4.66758330098e-05
-5.94461491701e-05
-4.51245290651e-05
0.0496186102542
1.9657218884e-05
3.39698850951e-05
1.58462916795e-05
4.56512693261e-05
-9.65720214818e-05
0.0497036115561
0.00104349816909
2.86480020462e-05
6.06663184733e-05
3.78860246959e-05
5.50683113618e-05
-0.000204303973461
3.31063582142e-05
0.0114896060605
6.01088550538e-05
0.0114611977331
1.07762782542e-05
4.89229109448e-06
-0.0114660583513
0.000112432780887
-0.000115973387763
1.69363934886e-05
7.04109519051e-05
-4.42001227253e-05
-3.18100140854e-05
0.011498226617
0.0114424060702
5.9775854364e-05
9.43359429894e-05
-7.99373858477e-05
-8.39403357768e-05
-0.0114455853323
0.0498404979564
4.31418371834e-05
5.49720314862e-05
3.47400067654e-05
6.19377021997e-05
-0.00132888528186
-0.000232809549079
0.00143873939109
3.86841365727e-05
6.2257650339e-05
5.75225332775e-05
4.42594589405e-05
0.0503609022738
-0.000375166931919
-0.00178660264446
8.05541082403e-06
0.0114676440472
0.000133173304529
-0.000143277360976
-1.88631983508e-06
-7.59889253774e-06
-0.0115067740929
0.000184795682052
0.0115359035928
-0.000197858853126
7.14217031763e-05
8.62329719888e-05
-7.40297822254e-05
-9.66261962507e-05
0.0114465650489
0.000118636157118
5.75270502231e-05
-5.41085952803e-05
-0.000144214091108
-0.0114847130482
0.0115018032074
0.000832263158652
7.37177654105e-05
7.396814466e-05
6.90807411147e-05
8.18898170755e-05
-0.000162661405508
0.0500954592849
6.77115013728e-05
7.41324568181e-05
7.9693844987e-05
6.24200030734e-05
-0.000143080478138
-0.0500416492211
0.000637559530081
-6.94613460623e-05
0.0115073414875
3.55035023472e-05
-0.0115354915529
0.0114471347677
8.52905590242e-05
-0.000107070122675
-0.0114502520341
7.03899937315e-05
0.0114740169251
7.39223060277e-05
-0.000105207278404
-0.0001084003644
-0.0114874321866
0.000131499268939
0.00106837994283
7.31052719922e-05
5.92668506297e-05
6.12992141062e-05
7.16020201354e-05
0.0503156753824
-0.00015057908688
0.050163218069
8.13767851181e-05
7.61928291593e-05
7.91579197006e-05
7.91737143904e-05
-0.000129481360881
7.67938915709e-05
7.36923004981e-05
7.58284017244e-05
7.53403690497e-05
0.0503007295663
0.000765517942475
-0.000136339788053
-0.000101649401154
0.0114507885004
8.13163312178e-05
6.09586540161e-05
-8.05665022435e-05
-0.0114756452911
0.000112475689288
0.0114946309186
0.000139025724509
7.52002505013e-05
-0.000112528176136
-0.000116736186671
0.0114720327037
0.000158937473077
5.62326124654e-05
-0.000100836970738
-0.000139556209112
-0.0114892591993
0.0115040625145
-9.9661501863e-05
0.0114783505785
0.000159028592271
-0.011481217023
-9.20225172662e-05
-0.0114942361158
0.0115084326796
5.22752359524e-05
0.000175858850978
-9.87680106107e-05
3.3420965213e-06
5.0358182992e-06
5.75759240373e-06
0.000686323457005
-4.22080087744e-05
-0.000762918724495
5.34963744811e-06
0.000679735084899
-0.000199784410644
3.62985884592e-06
2.98933558497e-06
5.56982261654e-06
-0.000739806081593
4.26647183085e-06
3.76324163097e-06
1.20089922373e-06
-1.11127259551e-06
-1.12648946752e-06
0.000121933227016
0.000657537175267
2.67595962183e-06
-4.78499860913e-07
-5.29428517162e-06
1.58998797863e-07
-1.73666637952e-06
-2.49435246148e-07
3.14939101231e-06
-2.68919565695e-06
-1.36634775885e-07
2.9968421385e-06
-7.04205481043e-07
-2.07366068e-06
3.69086123426e-06
-5.44753557381e-07
-2.49242249007e-06
2.39139006069e-06
-4.50946612468e-08
-4.02380858816e-07
-3.05524075179e-07
-1.32826725928e-07
4.02375307854e-06
-1.36976959507e-06
-9.30835914558e-07
3.88192224214e-06
-5.10425590165e-07
-2.29316457041e-06
-6.8161451359e-07
4.98322711311e-06
-2.43492353378e-06
-0.000228568865746
5.68591215352e-07
-2.20208869081e-05
-9.08012547733e-06
1.74004495794e-06
-0.00061646017684
0.000515168478203
-1.85035057644e-05
-4.73151618974e-05
-1.20442812681e-05
-0.000485212965573
-8.07028513901e-07
-0.000149901805649
-0.00028839608346
5.99097471383e-07
-8.22986532775e-06
-4.17336465199e-05
-3.99574878506e-05
0.00022735553317
0.000624356747938
-1.37269695259e-06
-3.51973755539e-05
-8.76970708518e-05
-4.2421361363e-05
-1.1032515635e-06
0.000760545435573
-0.000160821895895
-4.71034903405e-05
-9.93358595878e-05
-3.76612685817e-05
1.94898535859e-06
-3.61514394485e-07
-1.68580353897e-06
-2.35751215366e-07
2.37844188133e-06
1.14083934837e-06
-1.56569994433e-07
-1.33123413434e-06
1.25001030468e-06
-8.90473202452e-08
-0.000255793949724
1.7877358618e-06
1.3357761102e-06
8.73834484225e-07
4.58230691011e-07
0.00068704996864
0.000185645543302
0.000869840536588
-1.17429952292e-06
-4.67916517658e-05
-8.5625152984e-05
-4.59255329487e-05
-1.25769986198e-06
-0.000158187009542
-1.87657807279e-05
-6.14511945278e-05
-2.53280970708e-05
0.000895704079733
2.92826561738e-06
-2.02639932356e-07
-2.00921556066e-07
4.44839900921e-06
1.41800511679e-06
-5.18526907195e-08
9.70558131711e-09
1.6967522559e-06
4.44921976533e-05
-1.0704938215e-06
-8.74169105573e-05
-8.98108098866e-05
-8.48320800995e-05
-9.21258739102e-07
0.000794033230961
-8.39249360106e-05
-5.48937817942e-05
-7.01659101126e-05
-0.000618242658026
0.000196425177584
8.41351194298e-07
-9.9869259496e-07
-7.57270388744e-08
-4.79545154075e-08
8.48401070096e-07
8.40485382039e-07
-8.72432164613e-07
-2.40918989928e-08
4.08011548855e-05
-1.22906242913e-06
-6.81383923105e-05
-6.36885643314e-05
-7.52336044417e-05
0.00102903432446
0.000946092254402
-1.04589298523e-06
-8.03504588406e-05
-7.18793245117e-05
-7.86816934526e-05
-1.09783817393e-06
-6.56807427237e-05
-6.49080421291e-05
-6.70240483155e-05
0.00103874590764
0.00022775252831
9.45157249882e-07
-1.09031805711e-08
1.33916646517e-08
1.12197737173e-06
9.45432796269e-07
-1.84550841487e-08
1.13202807165e-06
-4.37701185226e-08
0.0123974188422
-7.80021256375e-05
-1.67305416834e-05
5.35781199795e-05
-0.0124042061887
2.90322416063e-05
-0.0123847576668
0.0123616456051
1.15362462297e-05
-8.66032048477e-06
6.35976094947e-05
1.84414876338e-05
-0.0115838281143
6.09396487984e-05
-0.0115185354154
2.71458057567e-05
0.0114905349889
7.04491072123e-05
0.0123735897129
1.34295189563e-05
-0.0115557397646
1.74953850237e-05
-0.0123959005253
0.0124082409684
9.3944174778e-05
-8.0116486632e-05
-0.0124165565425
-0.000108092981939
-0.0124169597984
0.0123987216172
0.000137748491995
5.38779588098e-05
-0.0115022342676
0.0114739585193
6.79481238741e-05
-3.21735466705e-05
3.74262621616e-05
-0.0115484265567
0.0123860121245
0.000126294196967
-0.0124285498785
-0.0115413148463
-0.0123588738832
0.00014031668411
-7.77637069071e-06
-9.73497400592e-05
0.0123291260412
-0.000119343031657
0.012377521141
0.000154253927831
3.24960310308e-05
0.0114540226382
-3.63885439972e-05
4.90046555558e-06
-6.15841098771e-05
7.67661073087e-05
0.0114573775103
-8.00881163257e-05
0.000177177396691
0.0123542949553
-4.59829515678e-05
0.01144624764
-0.000156193078581
0.0124518827744
-3.74370147951e-05
0.000173599356221
-0.0124572156562
-0.012434196247
0.000170878941241
0.0124202408349
5.37518844312e-05
2.65704968854e-05
-0.011576383213
2.14306714532e-05
-0.0115429032667
2.45648758469e-05
0.0115141594058
-0.0124440876948
0.00018680463952
0.0124425521783
1.12510791718e-05
-0.011580561201
0.0124722834988
0.000185652610989
-1.8782098441e-05
-0.012475760363
-0.000201991954725
-0.0124913168614
0.01248886911
0.00019840257537
8.65396716927e-06
-0.011560621128
0.0115302168616
-1.87319417593e-05
-7.60386800896e-06
-0.011601139256
3.56686441016e-06
0.0124657764103
-0.0124929167599
0.000181901453237
-0.0115974128539
-0.000214342672905
-0.012429495612
9.02049348343e-09
0.0124158162006
0.000235878767821
0.0124016754701
0.000190123791482
2.28649809645e-05
7.54271018647e-05
0.0114754901629
5.75083600172e-06
0.011480590805
4.06126211333e-05
0.0123830067775
0.000209064876508
0.0114651418112
5.75523628746e-05
-0.00024213197604
0.01240791727
8.37859772837e-06
0.000264948909388
-0.0123706002541
0.000274923065515
0.0123602522589
-0.000234634121377
1.38699255273e-05
9.46339093434e-05
-9.8938616899e-05
-2.01073481605e-05
-0.0114547706508
9.63722192085e-05
0.0114537519746
-0.000203122285231
0.000295456943647
0.0124019140725
7.49476725342e-05
-0.012458677356
0.000251751697898
1.29914124617e-05
0.0124494773729
-0.000226894354506
0.0124856825685
0.000219918629595
-4.99232037784e-06
0.0114943477637
-6.50026512729e-05
-4.48542537561e-05
0.0114670237933
2.85753295569e-05
0.0124783011345
0.000239729893731
0.0114648199856
0.0124428271443
0.000278636944135
2.17457991141e-05
-0.000303107743331
-0.0124710153989
0.0124695726527
0.000285015708751
-3.42052336842e-05
-0.0114561315946
0.0114524948462
-7.77727235426e-05
-6.35008915625e-05
4.19644405716e-05
0.012438894218
0.000263065521998
-0.000342234836133
-0.0124032042838
1.84678366147e-05
0.0124124844533
0.000361724884175
-4.68742732054e-05
0.0123580217801
0.000307862041426
-2.63965879551e-05
-0.000270889005261
-5.35905734213e-07
0.00015284119078
0.0114882455659
-0.000164430706271
-1.31967664297e-05
0.0114610000542
0.000116899527188
0.0123732815357
-4.52180800763e-05
-0.000312606091428
0.000327494968636
-3.37483447209e-05
0.0114768481988
0.000139934254512
-0.000373994343521
6.77652829492e-06
0.0124655422026
0.000392273981713
-7.77095797927e-05
-0.0124381613827
0.000400048629672
0.0125236501291
-0.000387473734833
-0.000105309452884
3.89945566386e-06
0.000171309233394
-0.000183603156965
-0.0115002413285
-1.34107468718e-05
0.000176974572323
0.0115292997108
-0.000351483139693
-8.31421312896e-05
0.000160026929108
0.000416019938816
0.0125351218929
-9.84842582498e-05
-0.012440946078
0.000356850931675
3.70946821354e-05
0.0124518307196
-0.00032877912215
0.0124706145727
0.000308592817378
-3.13177349873e-05
0.0114542761901
-7.73941452379e-05
-0.000115174037726
0.0114623277852
8.79404581537e-05
0.0124799109412
0.000332111123996
0.0114690692793
0.00038149941361
1.50153248602e-05
0.0124865376874
-0.0125046350701
-0.000396826515488
0.000367344225712
0.0125428607617
-0.011492093094
-8.87622149169e-06
0.011515007011
-6.03671624672e-05
-0.000129444434721
0.000103126554948
0.000354223568228
0.0125417878897
-0.000211871495629
-0.0125248299661
9.62590949358e-05
0.0125211973548
0.000182497880727
0.0125104931909
0.000199147777769
-0.0125129587794
-9.3847766515e-05
4.68562153418e-05
0.0114728633598
-8.41842055542e-05
0.0115042601586
-0.0115336604248
6.12299071663e-05
0.0125037741587
-0.0125278676906
0.000172346730883
0.0114835485032
7.01910619052e-05
-0.00023226627605
0.012518214722
0.000109662695238
0.000199015499563
-0.0124978881285
0.000252057414539
0.0124972657542
-0.000105382809794
5.63555795506e-05
-0.000120004949232
-0.0114648664067
8.80077875121e-05
0.0114552942086
0.000214984986393
0.0125168985406
7.66234762292e-05
0.0125357932253
0.000169565191591
9.81134939776e-05
-0.0125372707783
-0.000182604752441
-0.0125471181886
0.0125445498477
0.000153883336306