/*--------------------------------*- C++ -*----------------------------------*\
| =========                 |                                                 |
| \\      /  F ield         | OpenFOAM: The Open Source CFD Toolbox           |
|  \\    /   O peration     | Version:  v1906                                 |
|   \\  /    A nd           | Web:      www.OpenFOAM.com                      |
|    \\/     M anipulation  |                                                 |
\*---------------------------------------------------------------------------*/
FoamFile
{
    version     2.0;
    format      ascii;
    class       volScalarField;
    location    "6.55";
    object      p_rgh;
}
// * * * * * * * * * * * * * * * * * * * * * * * * * * * * * * * * * * * * * //

dimensions      [1 -1 -2 0 0 0 0];


internalField   nonuniform List<scalar> 
28582
(
19552.0313398
19549.4533051
19551.8373451
19548.9076357
19550.9913071
19546.4535058
19553.3083245
19544.5408388
859.400842516
997.679484229
0.798152263109
19548.2725202
17951.3167346
17566.9583523
19542.7576991
19541.7431555
17451.2946858
19518.2342868
19516.3507727
19554.401499
19548.2718211
19548.1507637
19554.7658239
19547.8933879
19548.1360348
19555.7304462
19546.0081863
19559.4732887
19543.1047562
1007.74981611
0.198313460315
-0.187611786656
19556.6189123
19556.9992994
18277.274225
18050.0708287
19555.0742013
19544.9993319
19542.384183
19544.9182219
19519.7771668
17447.1482842
19518.2776392
19525.386588
925.735482735
999.815981561
18.0787961416
18.6253506328
972.42415442
19.5634802296
19549.7407183
19544.6870686
17833.4652397
17953.6469998
19550.3154048
17819.4874734
19544.890465
19538.4380707
19533.0672035
17701.3898429
17531.8216422
19531.5588869
17670.854973
19539.3406451
19520.8258695
19527.4866446
17357.0717396
17419.7532694
19525.4354722
17324.5903388
19522.9536228
19519.7268318
17297.421628
17279.237601
19517.822133
17316.3973336
17283.3694256
19519.2952731
19516.0450842
17267.9681184
17219.0434909
19515.2234416
17196.7272598
19514.637327
17254.6654563
777.926367255
9.79822097217
712.795791528
771.318258038
6.14614682026
8.97344919697
1016.93770925
8.77989358688
10.3218681943
1033.03889172
5.4558654959
1016.68779694
6.93423721649
19556.2496108
19558.7279051
18213.9873833
18251.0234938
19557.0042771
19557.8817506
18198.6895058
19554.0327722
19551.6599834
18134.6067165
18043.9253404
19554.6889546
19551.1515852
18128.8649177
18138.0242083
18052.9832008
19552.1635865
19554.5866585
18052.4938112
19551.5817846
18135.7502353
19521.2503516
17319.7430461
17305.4891626
19522.9718077
17362.7133802
19524.37236
17352.4628517
19526.9643261
19532.0242021
17408.9040136
17428.7723582
19528.1934772
19530.9419368
17393.8187619
19521.8310749
19518.4228537
17307.9447011
17256.1510063
17305.3785568
19521.4174603
17355.7901075
17352.978786
17390.3265089
19529.1802871
19525.3260869
17423.6055863
19529.2992224
17392.5653339
19547.5307213
19547.1592425
1041.2307042
-0.304520142164
19553.0538557
17949.4507236
19547.3779004
19549.6137837
17472.0002428
17416.8381885
17487.4248144
19550.65434
19550.3754018
17497.0861572
17435.4183802
843.932967217
1065.04292214
1087.12604359
5.14470427761
4.11182020757
2.52637817789
1101.3181519
1110.17756442
19543.5242142
19548.5759618
17949.3873909
17837.4304669
19548.0317169
17836.2654874
19544.0896503
19537.9834527
19535.5845885
17498.345156
17456.2101719
19538.9340559
19534.7136842
17484.1298812
19536.1400526
19532.4416374
17448.0198817
17450.4078934
19532.8714452
17472.6026271
19535.6431181
19538.0807198
19539.72441
17488.1822714
17474.5816863
19539.2504817
17482.1797574
19538.4916866
19539.1990698
19540.2542595
17497.765413
17507.4221791
19539.7583539
17502.1633591
19539.7808219
19537.6577338
19535.8312177
17438.2123889
17479.0344093
19535.0678655
17479.6602494
19538.4127288
19572.5799505
19567.6093649
19567.4117456
19564.9473289
638.096000683
662.812753896
633.993406715
675.216846849
651.538384576
-0.0311553868842
0.437982217947
-0.105585165987
0.119162023501
-0.126156945293
-0.0359141329839
19574.8306521
19573.1039383
18557.5107759
18449.4160911
19575.66457
18459.5715406
19570.9965934
19568.9909467
18488.978864
18456.4015264
19573.630167
19569.7674324
19570.2308736
18492.160154
18521.0725857
18444.418649
18404.6626932
19570.0019392
19568.8835579
18530.8816127
18533.4239267
18407.4525997
18439.7885371
19567.7485088
19566.3149051
18438.6156594
18385.8826004
18387.7516068
19566.7344413
19566.0576676
19565.5801525
18387.4210198
18401.2184662
18377.9908629
18376.1724096
18378.9273542
18378.8230134
614.965431242
624.21952769
647.496807985
3.74959722768
3.35438868341
3.89504715351
3.62492498755
3.46832197041
8.40865861275
4.44036982532
8.91398697185
614.986959933
612.444436262
656.837362929
635.347569107
661.852101283
2.77082508754
2.3401522764
1.69979336446
1.20617176687
654.518085585
671.596691399
658.28057212
2.97160199291
5.54952586499
1.47246156675
2.18644950733
664.520179044
651.840295847
1.33634560956
0.824632854526
0.798162521878
669.105355809
666.388348618
664.261042273
0.9166265944
1.1668916883
0.860019551883
1.05035959598
19568.8460405
19571.9812532
18562.7766011
18488.8699062
19569.7249807
18506.9915123
19570.0644257
19566.672517
19567.7610535
18450.3560874
18460.5912673
19567.8449131
19565.9781722
18466.3886723
19572.3938655
19569.4296559
18461.3669153
18481.4443149
19570.0111322
19571.5436097
18482.9053028
19564.970782
19567.3271647
18488.3976384
18478.2244334
19566.0673522
19566.230978
18487.5058277
19564.7555028
19564.4965948
18478.9234036
18477.8322515
19565.3275627
19564.0239735
18492.388238
19567.9269733
19568.7518286
18496.1685139
18467.2514032
19569.9725681
19567.1868736
18463.2519239
19568.8098158
19572.331534
18507.2243321
18482.0969399
19571.1509405
19569.8556359
18468.386455
19566.5887688
19565.0801037
18464.0894323
18427.5586008
19566.0092706
19565.7570264
18444.8786482
19567.388612
19566.3872861
18443.9960975
18407.8905431
19568.0992334
19566.1729484
18440.7300616
19571.0162833
19573.1176972
18549.2822043
18492.3651912
19573.1230061
19570.7026015
18504.8205756
19570.6570015
19571.1535584
18545.0406355
18510.9529227
19572.6041365
18508.2912746
19569.795892
19568.303267
19566.4999791
18448.4571945
18418.0940025
19568.4392216
19566.5238217
18454.881661
19567.9582976
19566.2995096
18474.2000847
18427.844844
19566.4389522
18463.0471836
19567.6589949
19564.876839
19565.3235637
18418.4884863
18424.0728597
19565.6039608
19564.9055025
18409.0252369
19564.9510463
19565.4543509
18391.8239541
18383.0907554
19565.6217713
19564.9640824
18396.741131
19564.7326902
19564.4113625
18383.3969237
18399.9358307
19564.3951102
19564.3465548
18400.0298076
19564.5745081
19565.306955
18392.7360849
18378.7319031
19565.2547315
19564.8045649
18380.1155486
19564.346845
19564.8363069
18396.25923
18390.1539756
19565.0419752
18383.1443425
19563.9944486
19564.0049492
19564.0977117
18375.3110556
18376.7964692
19564.0391702
19563.7596575
18376.0094306
19563.8654096
19563.2651376
18381.4265041
18375.8822658
19563.5817477
18377.5908306
19563.7215252
19562.8783308
19563.68667
18377.5949738
18381.5292773
19563.4694476
19562.9778581
18379.7765466
19563.0041735
18377.2491347
19563.2498347
19551.0726309
19548.6306623
19547.68614
19548.2028096
19548.2007556
19551.5934877
19550.9598871
19548.2534962
19547.4141825
19548.3905918
19548.2776709
19551.2756757
19545.3854924
19546.7496071
19540.3120384
19543.1868528
19545.6544095
19547.9271331
19552.1729767
19545.5873175
19546.3629237
19547.5408993
19545.8817769
19545.4291424
19546.1372814
19546.6298819
19546.7565857
19548.4383114
19550.6325981
19547.8767107
19546.490032
19546.1682368
19546.2230477
19545.9655687
19545.914603
19548.855151
19553.1062089
19549.7063765
19547.655504
19547.2631366
19547.3360771
19546.9991604
19546.749709
19549.9195199
19547.6316992
19547.3692574
19547.039649
19550.4342893
19543.5655239
19544.964111
19543.2688846
19541.9850304
19541.4368923
19546.0337178
19555.3584524
19524.2164799
19546.7953406
19547.2571375
19547.6592411
19546.3513052
19544.9044671
19544.4384655
19544.185502
19538.5915941
19550.6430905
19548.565792
19546.7449381
19545.6814628
19545.2465208
19544.8020189
19544.0011536
19544.8299142
19553.4561756
19550.0049569
19547.6367345
19547.0896298
19547.208319
19546.7466349
19545.9433497
19548.3135156
19547.5692295
19547.3877935
19546.8346991
19549.7099675
19542.5575406
19544.7687659
19543.5012525
19538.8388478
19539.0193387
19544.725859
19553.6302938
19516.2980289
19546.8220724
19548.665964
19542.7871008
19540.3269455
19542.4678893
19544.0295718
19541.8679921
19531.6751202
19552.4351964
19549.4738221
19545.096356
19542.7769928
19544.2929127
19544.3586953
19541.895265
19541.1885269
19559.0994355
19554.863635
19550.0129569
19545.6916745
19544.3921406
19545.8967326
19545.6944119
19543.9106029
19545.3035949
19550.5091568
19546.36782
19545.6401344
19546.9714315
19546.8636782
19545.3129209
19547.6850843
19548.0865494
19547.0138505
19549.9080206
19547.341889
19550.4744751
19545.2297414
19535.1904391
19538.1561856
19545.518895
19550.5577339
19555.6602587
19551.8886288
19550.661634
19552.1816109
19544.8669218
19536.4526292
19539.1142399
19545.1519166
19546.0905981
19540.8785786
19565.2691123
19559.24753
19555.5204825
19554.2140808
19546.3888343
19538.251734
19541.6122244
19546.0065664
19545.2853985
19542.5509028
19561.6937747
19559.0383401
19553.7457254
19545.173996
19540.5711461
19544.3306664
19547.9037359
19546.7817368
19543.5945156
19552.8228902
19545.0132068
19542.3355906
19546.2751207
19549.0433999
19547.3620954
19544.6540846
19549.9548858
19548.5348816
19546.6181868
691.99405878
810.722579117
1027.58435985
1145.25044802
1165.13819322
1136.31576611
1114.16396542
1152.83693184
644.143160485
654.887903417
672.843170937
796.592576676
992.750225251
1053.04753532
1145.79098031
1173.25450958
1138.84583968
1153.35119682
650.449265548
638.859737346
686.496318447
765.993176138
942.813897702
1029.73890055
1093.48348061
1134.02667978
1120.61012967
1134.32220286
641.598754456
680.858576735
805.715279893
945.618546181
1022.74654625
1055.44990548
1074.98224504
1082.10775689
1103.75184791
835.789671279
960.905956485
1012.59250649
1026.22366571
1064.35208408
1078.64223788
1079.42833539
1085.86357543
1095.27376897
1083.63499915
0.370713592185
-0.0499686492471
-0.186341456177
0.0973263687975
0.948615528971
1.10470961182
-0.250651530778
-0.180890638266
-0.305141172483
1.19590694678
0.232762862608
0.00926328147971
-0.143399923624
0.0432091000725
0.410822176723
1.099940266
0.916483183689
-0.208890637349
-0.359909689548
1.48215959366
0.266160696039
-0.0330044187915
-0.0968014660261
0.095856752864
-0.160152183966
-0.311975361791
0.365491144832
-0.13969462143
-0.334866715976
0.815721349308
-0.0576748608102
-0.0569270789845
0.00288517405028
-0.202468950775
-0.24310896301
0.357772708395
-0.110864535871
-0.309751683862
0.596098430975
0.383157853158
0.605460873749
0.895220808959
0.542751250243
-0.158954658675
-0.289563031435
0.876868345437
-0.10202989241
-0.248503847098
1.24512856343
19546.308017
19545.1753984
19546.3536223
19544.7656975
19546.0864469
19545.1029508
19546.1365361
19546.4717625
19547.2046406
19547.0907393
19546.8289123
19541.9862754
19546.519357
19544.1934346
19546.8139388
19548.4952455
19547.8107862
19546.3854777
19547.1481823
19548.24867
19548.0238618
19547.2534311
19547.7315376
19547.601415
19547.4657267
19546.2577133
19548.130907
19548.1320706
19544.5208307
19544.6141459
19545.3228253
19542.443081
19543.8094986
19543.9158667
19545.048334
19544.2626714
19545.2316969
19545.3006017
19544.2843359
19543.5208208
19545.307082
19544.1960826
19547.3451679
19548.3159072
19548.3262275
19546.5314532
19547.4970634
19548.5082701
19548.209933
19546.1109336
19548.161335
19550.4354284
19547.7684206
19542.9343259
19547.7615227
19549.4053907
19544.1582103
19544.3683839
19545.634313
19543.7591682
19545.8233665
19545.569987
19546.941606
19544.1096533
19546.1702572
19545.5243679
19546.6994045
19546.3597833
19547.5266657
19548.4960835
19547.9435083
19549.068951
19548.9670148
19548.1852621
19549.3174268
19550.3671435
19550.3932815
19543.9494001
19548.5391108
19548.8309036
19549.8190971
19547.8205664
19550.3245192
19550.3013331
19545.380573
19547.5788301
18043.7361133
18079.9098281
19549.2406268
19549.1031341
19550.6016309
18040.4031346
18034.3139709
18089.4625794
18074.162552
19549.1352745
19551.0947183
19549.1982705
18029.4124781
17801.272007
18066.0309913
17768.719458
19539.5196269
19544.7408889
19539.1120924
17598.5025091
16814.7648031
17562.6768218
16976.1630566
19534.9240079
19535.6022646
19535.6174539
16649.8273225
16784.7760756
16899.4329886
16925.8413251
19542.0431241
19538.7366039
19542.305503
16938.6138161
17278.1675752
17002.8968304
17222.0715019
19548.2612433
19545.2098996
19547.1995149
17367.8195711
17465.7671551
17294.7860705
17388.9826136
19553.3092974
19548.1701096
19547.3464553
17473.8519283
17312.8948401
17373.5417462
17190.3508073
19531.7009001
19543.1873721
19535.4674796
17314.6374587
16935.0322888
17182.7651473
16846.7920108
19566.2994035
19561.4891211
18483.0564825
18246.1774126
18437.9240202
18360.2782802
19549.8874161
19556.5243333
19553.4088921
18167.2417784
18096.4855397
18299.0643416
18179.1560027
19551.9591114
19552.8563043
19553.5867079
18112.2321078
18085.5792486
18169.4106629
18167.4082081
19549.7781965
19553.6330741
19551.4582996
18086.4304408
17799.5293377
18172.9843232
17929.2278494
19539.3625185
19546.8836059
19541.400128
17593.4463701
17017.7078576
17712.930094
17077.8212567
19536.3970686
19538.2540933
19537.8803618
16954.0373952
16979.5179313
17040.5434032
17121.3980727
19542.4946611
19540.6311929
19543.7518339
17034.7221079
17207.7513238
17187.7062691
17298.9203879
19546.4430065
19545.6173904
19546.1855538
17272.6401737
17365.1708457
17330.3186402
17371.7309605
19544.2734896
19545.2218025
19543.5942051
17347.8067936
17160.7769743
17344.2372417
17128.8060852
19540.6360777
19541.2193267
19544.1558693
17161.262099
16865.7507869
17138.2448419
16889.621862
19562.4888029
19564.5906375
19562.9151063
18406.1357598
18387.8267553
18380.0349044
18378.6671606
19556.79118
19560.8705602
19559.1149607
18346.3923605
18211.5696636
18369.8819297
18326.4270459
19555.2097164
19557.7209871
19556.4662574
18193.2563069
18191.4268216
18313.6634275
18259.3304585
19551.4658392
19554.2815707
19550.5682059
18192.8492054
17934.5857551
18198.4694524
17772.2258551
19540.9481806
19545.6402414
19541.3096152
17714.4071705
17081.3039252
17577.9687297
17108.8722175
19539.0232789
19539.5267591
19540.6923486
17044.9097507
17140.1059862
17121.260756
17248.0384839
19544.4654903
19543.1970948
19545.7155532
17211.0457549
17327.5463372
17305.9870439
17442.7916547
19546.4711744
19547.009969
19547.5541522
17359.9666961
17400.0269918
17463.905436
17491.6408964
19543.8341859
19546.1828325
19544.5788966
17369.0447743
17143.5250097
17457.4856492
17213.182514
19545.8440148
19543.1337708
19546.8146181
17154.5086995
16877.4685848
17211.6134626
16892.3640199
18381.0930378
18375.6754018
19560.4734928
19561.185953
18369.0798767
18345.455061
18350.823833
19556.9908169
19559.5296905
19556.8117901
18336.4797457
18211.1510703
18300.9780469
18063.7431856
19549.4369457
19553.0917252
19548.6858433
18117.2588578
17727.4407761
17969.1377209
17640.8370384
19541.9464232
19544.9448181
19542.4874962
17562.6204984
17155.4618762
17510.5248534
17235.6296799
19542.0846861
19541.5361983
19543.1883837
17170.7291399
17285.4685366
17249.0536756
17379.3176152
19546.6320539
19545.5204363
19547.6498997
17339.3621443
17467.0837454
17426.9383435
17527.9135769
19548.1407126
19548.6688686
19548.5600677
17487.4271361
17521.2384721
17538.6489745
17512.1571311
19545.0574936
19547.1821296
19545.4323003
17486.9055273
17238.0961795
17464.2948561
17242.5290564
19547.447882
19544.0186138
19548.0569419
17226.6561447
16904.7275322
17251.1142854
16982.4719887
19548.473222
19548.5320946
17956.1433336
17629.0393764
17588.9010228
19542.9562123
19545.0675715
19543.1961654
17505.6729306
17263.7678079
17473.7317205
17301.0362368
19544.1248345
19543.0280002
19544.8387527
17277.6243624
17406.909878
17328.1106465
17465.5754358
19548.2466768
19546.9834947
19548.7764078
17446.3722192
17528.6637419
17489.0650909
17515.6696127
19548.6527117
19549.5179141
19549.0036174
17533.4439641
17483.4870073
17508.8475177
17439.9312676
19545.7848041
19547.8534418
19546.5317605
17446.5998584
17270.9055757
17412.5541277
17307.812469
19548.7949603
19545.6457651
19549.7118311
17290.3433316
17023.8662194
17336.5237594
17145.3214031
19549.1279564
17507.9979238
19549.5737814
17513.7534256
17435.5561354
19547.304255
17404.2986905
17304.5174799
19550.587196
17334.6074946
17168.8179644
10.3450188231
9.19279306823
10.7013690571
8.85550917435
653.752931796
657.636953387
5.10216262577
0.918472725531
4.36763411964
1.28989918565
745.427402687
682.480145991
740.238814152
0.761436768116
2.37172862243
0.726159203976
1.52574890676
919.448866621
807.69694165
909.370676794
7.51135242682
12.6997318032
6.6170504477
13.0329932775
1116.39680785
1016.87959388
1087.53305687
20.1989403054
28.0831995638
20.286176845
26.304706979
1163.69594365
1096.74858912
1136.9233639
28.9447960351
21.5253929339
29.4223952193
24.2982139915
1177.15570392
1172.59799522
1195.86406114
6.38874992828
2.87364026486
8.18929235953
3.525878244
1113.92007761
1160.49510991
1133.95238188
1.07567284212
0.817027164133
1.08916586107
0.937260152458
1128.7073423
1131.99660963
1138.8018205
0.965871533769
1.22519827286
1.14962015864
1.44613290744
1164.97968183
1153.6206716
1188.12096798
3.59316796355
32.9753046638
4.27003713115
36.0000039434
643.697808865
639.269442699
636.76973805
8.4072820556
6.97979268949
4.98050419167
6.22113708942
662.520148687
647.741655099
664.479297876
4.265301601
2.50720556744
5.17263853138
3.56049867907
730.090866743
683.420854571
715.329534702
0.826257992506
0.638701961631
1.95529194619
0.973160489675
892.733006779
773.824591314
872.379705044
3.08488829269
11.0817011255
2.25148258523
8.71341565961
1053.89397777
962.003366641
1023.73731689
18.357371882
22.6691882417
16.657668581
20.5930547859
1095.29485712
1032.14879847
1071.43083105
28.2569911662
25.9322644978
21.9120618659
19.5867081281
1197.42135711
1108.595177
1166.82786906
17.2277071531
4.94473971266
19.2938283732
5.47048527933
1143.7324204
1160.42433107
1138.74587741
1.16662388289
1.03427101308
1.15166137539
1.03878096079
1147.70379796
1134.18826254
1145.10369911
1.32980214948
1.66945835178
1.40299292407
1.73622399636
1188.83687613
1146.3315162
1181.78237689
5.2307569675
39.861833547
5.46476332487
41.1880733677
634.84717524
651.89604882
639.447760374
2.57472094427
5.56415294403
1.7258271307
3.72006871135
656.74674433
638.935468147
648.610688463
5.03585449948
3.7370443744
3.67931178274
3.07265375729
712.20114312
675.782418945
712.467587819
2.48890416077
1.68552255748
2.28431142335
2.0936010445
856.99130991
779.160043491
858.309334292
2.86121857086
8.66976187762
4.54225813104
10.0956211886
1011.8513937
939.826812371
1006.62706757
13.2403054216
15.4048153341
12.1862732479
14.4158111478
1069.69800069
1025.27107859
1055.28111012
11.4484991143
7.91357790315
10.6002415716
6.62895101986
1133.16882232
1077.00209124
1098.07241
11.3554227989
4.27018080965
9.57305743114
4.00265242628
1118.98762748
1101.6982618
1090.14798091
0.885127017251
0.752292744839
0.711840631501
0.56283099061
1131.60035555
1099.40936478
1111.52343486
1.17777313189
1.52146061327
0.891099471601
1.28554771921
1186.56493268
1118.01776718
1175.131771
4.34063108004
29.9568955645
3.65525802831
26.9610002007
651.942125542
657.461400534
3.19835749685
1.91389061897
2.55355893246
738.879854078
700.89329889
763.023680638
2.03364783073
3.8631761558
4.01566821698
6.55433702093
872.795307837
826.826520005
888.050633683
7.5169473118
10.2934068688
8.86918252615
10.7278183869
1002.21029082
954.8664991
1003.15419716
11.7040516362
13.561717688
12.0137369175
13.4179672602
1040.34859904
1022.05024993
1033.10346092
10.7055404024
6.74254304292
10.8143897285
7.47031616933
1070.17328168
1038.63648982
1053.80351947
10.3246879782
4.65721803568
12.4198940593
5.71391143381
1066.6868493
1060.7621669
1065.26053478
0.750526636212
0.576284129435
1.117946519
1.50200914005
1094.9645174
1077.01021207
1090.3932668
1.21282950723
1.45571781884
2.42822816505
2.6281772035
1168.90680743
1089.71976476
1146.71241364
3.60002339111
22.9703334056
4.44082897369
20.2342073905
898.629907407
910.062228333
11.4146137096
13.737726318
12.2264742368
14.9382718432
999.578481159
966.510218864
996.077299538
16.4753632602
18.6431039819
18.6865330743
20.8213074102
1018.38958822
999.41643909
1002.99755477
18.0812147194
15.1887816394
21.8477540585
20.1590724906
1048.47343425
1021.57260145
1051.07289076
16.6150268489
7.35914618054
15.279985262
7.70194185685
1072.7955423
1076.25444601
1085.91471993
2.73197894361
3.20929501319
4.07300101181
4.46836312011
1087.67025877
1082.60535297
1089.34511397
3.59602820157
3.49937273837
4.58505079063
4.59186813135
1110.42923906
1076.46270096
1082.17644359
5.13847259257
23.3891984868
6.9440633851
28.1882139226
1067.56502433
3.18568454858
1098.2427081
3.15018602494
4.68320216039
2.54587392759
4.297131662
1097.31896929
5.22152595524
5.36342311722
5.25963482778
6.10815771082
1076.32733966
8.28243940885
34.4903659667
10.4410803895
37.1320615896
19545.135761
19546.6388909
18026.2112973
18048.4782254
19546.8677421
18021.8083522
19544.7398918
19546.0734069
19548.0791681
18058.5103612
18068.721743
19547.4496082
19546.9096097
18045.6086135
19550.0489532
19548.2872666
18037.1333737
18054.1563644
19548.5341747
18049.1009678
19549.9058456
19551.7429144
19552.2782759
18034.166712
18035.0090895
19552.7280555
18035.7951507
19551.2859104
19550.7145615
19550.0908073
18070.4014769
18094.4888397
19548.9531361
19552.2741677
18070.2232829
19552.2078288
19554.6035425
18052.8226076
18086.3526017
19552.9246146
19553.8750076
18056.4074039
19553.3789514
19553.0704556
18008.5317323
18031.4623759
19553.4608492
18003.6736007
19553.7810167
19551.3736529
19547.2935168
17927.7807183
17767.729641
19546.068227
17908.8668328
19552.2750747
19553.2166611
19554.4249707
18048.4709176
18036.9536227
19553.3434305
19553.6954494
18014.4919749
19551.2271243
19545.9281649
17760.1544992
17929.0746316
19546.5283798
19551.3485236
17909.4885962
19523.6052015
19538.1463384
17346.1746219
17570.2645983
19536.9786705
17326.9028512
19524.2178531
19507.9168761
19491.4754816
17078.0013394
16813.4626298
19492.6840604
17060.4592502
19507.6936087
19526.7418605
19537.8738535
17564.6509284
17355.8703523
19538.6175942
19526.6977408
17338.9394323
19512.7709892
19501.5876532
16912.4111463
17155.1570433
19498.078218
19514.0294432
17119.0785576
19485.2536156
19479.8947773
16557.8202702
16701.5627929
19483.5083813
16621.9943714
19482.6540837
19490.0477367
19497.8205299
16627.7602003
16800.7728762
19497.4025448
16671.9762764
19488.9720941
19488.8852471
19493.1653832
16812.6454533
16836.3427457
19488.2096315
19490.8362862
16742.6605089
19491.8117187
19497.4142004
16858.1322715
16859.3317748
19497.8143396
19492.9865238
16770.4669765
19516.5353129
19508.0021221
17081.2536393
16939.9474397
19506.7928988
17075.1683937
19518.7755983
19524.4809336
19530.4552109
17185.0453906
17263.2602555
19529.2881908
17177.6265083
19526.3743948
19513.2725809
19503.5659263
16959.9345665
17082.0677802
19505.4257763
19511.0948231
17068.1932721
19520.0011984
19523.0931755
17235.3499414
17149.5921605
19524.74136
19517.9872085
17155.2369796
19534.6083351
19533.2517556
17444.0331708
17343.5950178
19532.131773
17414.4423182
19536.3426351
19536.3640246
19538.3391927
17463.7169216
17442.2130659
19536.5590956
17436.5514044
19538.2885915
19531.5132607
19526.4817403
17313.3639654
17350.6752802
19528.187573
19529.5746924
17377.718329
19534.5029766
19532.3229373
17411.7875864
17369.6152301
19535.0830855
19532.3267153
17401.6016498
19534.2983779
19537.5768926
17466.3322985
17448.320457
19536.0367476
17436.144204
19536.073848
19531.3023155
19529.9550247
17410.8396188
17280.6984635
19526.5633234
17377.7543205
19533.8126095
19532.8338248
19531.3197719
17402.6322907
17344.071524
19534.5444061
19529.3581329
17386.6495145
19529.7031822
19522.2071082
17239.2175823
17284.3508954
19524.8533521
19526.6473073
17331.2564373
19508.4448964
19523.7363652
17229.4565357
17283.6879769
19519.6764028
17199.8774441
19514.0621999
19485.5388771
19498.3392766
16773.6385298
16907.4053994
16742.9475709
19493.6138322
19494.6540103
19506.4453767
19515.4318743
17233.1298364
17094.0305488
19517.9723724
19503.8412862
17139.2675602
19483.8398226
19498.6952892
16879.2600353
16627.3269951
19479.9910069
16667.5830172
19497.7391258
19565.0265643
19568.69554
18405.2953681
18476.7927466
19564.5036389
18411.3981302
19568.1030388
19560.8722341
19554.8656037
18322.5929914
18274.6164946
19559.2780823
19556.7498228
18336.8674587
19564.6765547
19565.8994884
18463.6231265
18434.2750416
19564.5160668
18434.5795065
19566.9204576
19561.451845
19559.5882917
18316.2840714
18409.0731386
19558.4387309
19562.3155056
18376.0747429
19549.8400917
19551.1885975
18098.8965992
18220.3203911
19548.3590515
19553.1965115
18147.8132623
19548.3492997
19548.1441133
18094.0598219
18118.4885627
19547.3938414
19548.6356439
18116.846486
19552.0940377
19556.6657005
18263.2928502
18244.1069098
19555.4387579
19554.1608307
18193.6462861
19550.1534815
19551.678127
18137.0497542
18210.5039095
19549.7967122
19552.1649373
18147.4219561
19552.5012103
19550.3543041
18117.4385299
18132.1692107
19552.7697522
19550.7138609
18145.9274563
19553.6592673
19553.8921161
18103.1214467
18108.9610737
19554.1781978
19554.1504886
18133.6385186
19552.3991571
19551.8023719
18140.8437953
18161.571312
19550.7843183
19552.6542914
18152.0461727
19553.4690384
19555.1310568
18140.8372365
18161.314982
19554.3311516
19553.8442455
18154.800481
19553.7053901
19553.8940148
18065.1017109
18104.5907849
19553.2793177
19554.3687932
18083.0233419
19551.1462352
19545.0777013
17961.3766007
17848.283451
19550.7551757
19545.6445433
17991.0597563
19554.5345153
19556.1257449
18139.1880112
18160.200111
19554.9861729
19556.1555368
18125.1001673
19552.0534026
19547.4944314
17897.9262088
18074.5187131
19546.3772961
19553.4075396
18041.3491069
19527.362365
19537.1015097
17383.5859762
17642.2013664
19526.5298134
19537.4786203
17432.2125107
19516.923759
19504.821449
17187.6430785
17048.6039848
19515.3223386
19506.745549
17230.9344941
19528.2334582
19539.2790654
17685.3717872
17489.005829
19538.1483717
19528.9880143
17471.2932374
19517.915336
19511.7305337
17072.9758827
17271.683845
19509.6246563
19519.0227939
17256.0070322
19499.5864041
19497.7022212
16903.1604177
16998.7499732
19495.5206546
19500.848058
16963.9729571
19498.2669982
19495.6304184
16923.8019577
17044.1777653
19493.3310089
19498.3372818
16985.7972722
19506.7598709
19508.4774686
17027.2081045
17035.7099205
19506.1796496
19510.0124393
17003.0635203
19506.9648019
19512.8120443
17089.0059852
17061.139721
19507.4088108
19511.0940912
17029.0166772
19505.9509038
19499.7073452
17095.9521848
17103.1074401
19505.2824042
19501.8796136
17149.55924
19510.6534127
19516.6674758
17147.8545373
17224.0266202
19511.1596387
19515.2832613
17182.7570709
19513.8028616
19514.7441566
17150.6659555
17243.7029345
19510.1974337
19518.1081305
17201.507163
19517.1477769
19522.439494
17255.9504168
17271.4929066
19520.0551129
19520.6880635
17227.2123305
19522.1330894
19521.1951711
17321.0809983
17273.6333041
19524.8063235
19518.9474267
17315.5816484
19525.0410486
19528.2758155
17342.1022133
17355.1952594
19527.7518015
19525.6314174
17337.4255467
19523.2662637
19523.4745874
17293.7632046
17351.7831142
19521.9519653
19524.0141857
17325.7379044
19524.6906196
19525.1691848
17351.5544622
17363.3731128
19525.0214963
19524.8239503
17341.2051376
19524.1313763
19527.9397866
17317.1566082
17333.1170712
19526.237443
19525.3390596
17296.6661128
19521.6380035
19519.1893129
17255.4523682
17129.5262388
19523.5110355
19517.9189453
17232.7686806
19524.0087733
19525.1448546
17325.596901
17297.2364262
19525.0831278
19524.3271317
17287.7962223
19521.4767987
19518.0012697
17122.9695754
17227.1191061
19517.5401046
19521.8095597
17223.1985565
19503.0107601
19512.9309889
17082.0837304
17130.8292384
19502.0646575
19512.7647533
17059.9891694
19483.0049157
19500.1727001
16636.1545005
16862.2853637
19479.9045209
16628.5782423
19503.3635979
19502.579641
19512.8495672
17131.1522753
17072.0680793
19512.2419382
19503.3762766
17065.6014341
19483.2151881
19505.4112685
16876.1339015
16646.8935503
19484.8209036
16642.4499073
19504.0684596
19563.2530143
19564.7650349
18406.5878177
18395.2399157
19564.0631892
18395.6734821
19563.6420087
19562.2479053
19560.7899397
18401.3709532
18385.9341808
19562.5903651
19561.0980175
18392.4790089
19563.1384294
19562.9528725
18384.7381911
18384.2682582
19562.6899935
18389.8894742
19563.5080305
19562.4015953
19561.6183021
18386.339338
18382.808474
19561.4623735
19562.2763669
18389.0217721
19557.7429528
19558.4294162
18293.3550795
18369.7553421
19556.1683039
19559.6237208
18340.8924179
19556.1583708
19553.3782576
18248.8356384
18261.5359975
19554.3580504
19555.2098196
18304.2259285
19558.8687182
19560.8010294
18376.9733973
18359.5209303
19560.2523487
19559.8355076
18361.2510058
19557.551773
19558.1947235
18302.3263227
18345.7009755
19556.706594
19558.9113336
18339.2206994
19554.3705507
19552.9910844
18175.7641704
18232.6222227
19553.0462426
19554.3164772
18205.2471645
19554.963546
19555.6992151
18181.3660595
18218.4216357
19553.9457654
19556.2213857
18210.9503153
19556.1305474
19557.9258027
18278.1497427
18298.6403611
19556.2636279
19558.0101116
18254.8442572
19556.3647552
19557.9068847
18246.2277739
18283.9877998
19557.1792493
19557.9133963
18251.3955676
19556.6146006
19557.221129
18180.9050001
18213.4363858
19557.0293892
19557.5357063
18191.2687442
19553.1787181
19547.6188667
18087.552966
17916.3277055
19553.9705355
19546.399684
18085.9957842
19555.5773535
19556.6666272
18212.6303819
18103.301124
19557.3018565
19553.6060668
18153.8604553
19551.4640954
19541.5760751
17852.4931765
17952.7020586
19544.7045599
19548.5998792
18027.9227471
19527.2939046