/*--------------------------------*- C++ -*----------------------------------*\
| =========                 |                                                 |
| \\      /  F ield         | OpenFOAM: The Open Source CFD Toolbox           |
|  \\    /   O peration     | Version:  v1906                                 |
|   \\  /    A nd           | Web:      www.OpenFOAM.com                      |
|    \\/     M anipulation  |                                                 |
\*---------------------------------------------------------------------------*/
FoamFile
{
    version     2.0;
    format      ascii;
    class       surfaceScalarField;
    location    "6.55";
    object      phi;
}
// * * * * * * * * * * * * * * * * * * * * * * * * * * * * * * * * * * * * * //

dimensions      [0 3 -1 0 0 0 0];
oriented        oriented;


internalField   nonuniform List<scalar> 
92311
(
0.203411663024
-0.000397633590991
-0.000589047733728
-0.202956870812
0.00053188909108
-0.000324890583643
0.203681525943
-0.000114555253973
0.000169779076476
0.20350872527
-0.000930217381585
-0.000544149426244
-0.202934580461
0.000502825307069
-0.000715863941744
0.203842511344
-0.000135769563219
0.000193235135441
0.203873677188
-0.000417206389146
-0.000486805063786
-0.000353148221312
-0.202903710536
0.000359668126626
-0.000461103501428
-0.000541535691443
-0.000410689429938
-0.000254152612175
-0.00024127187298
0.2043416591
-7.08714856605e-05
0.00023677026539
-0.000443614004534
0.0509287580348
-0.000131734102529
-0.000161897685655
-0.000136930346788
-0.000153643831317
-5.43919341208e-05
-0.0506949292704
-1.24249231664e-05
-0.0510842566021
0.0511856728274
-0.000122532718358
-0.000125977287114
-0.000136658362648
-0.00011220228884
6.77710160032e-06
-2.15256529877e-05
0.000146018541979
0.00411477090257
0.000161165546616
0.000159142244361
0.000179382850678
-0.0089693388423
-0.00971837982886
0.00571989177664
0.00820732574587
-0.0128161617184
0.00451617280062
0.00496014362279
0.00871635263587
4.5245935572e-05
5.00387012723e-05
7.67114320961e-05
7.92064171759e-05
-0.00562748954058
-0.044744000885
-0.0123263562825
-0.0127993508384
-0.0139000825086
-0.0122809729353
-0.0193784515236
-0.0225887883376
-0.0146556191259
-0.00015048035513
-0.000150950677271
-0.00016191374291
-0.000143173271725
4.91360933205e-06
-4.07085688568e-05
0.000146961851147
0.0123142918908
3.59700381437e-05
-4.87062512448e-05
-0.0123025335879
0.0123317835497
-0.000166712357486
0.000165334981481
-0.0123271782375
2.89978234199e-05
-3.22006981527e-05
-2.42278288355e-05
-6.21850481805e-05
0.0511930480486
-5.35404627365e-05
-9.08285324916e-05
-8.06081590731e-05
4.98638988029e-05
-5.57909398904e-05
0.0512019536497
-5.94544767175e-05
-9.280995339e-05
-0.000103632166384
-0.0511989863727
4.32200304959e-05
-0.000143797901469
0.000147419669488
0.0123307529567
3.52815413469e-05
-3.7895302432e-05
-2.82773357668e-06
0.0128174961717
1.16852562866e-05
-5.93688716964e-05
-0.0128291810976
0.0128167461763
1.91676450579e-05
-6.08076248253e-05
-0.0128336677568
-0.000342019786996
0.203381239203
-0.00131440612099
0.00109917397572
-0.20282398711
0.203650104486
-0.000132699668714
0.000362772164986
-0.000198008420719
-5.2056267506e-05
0.203475815757
0.000649126784283
-0.000422260248328
-0.000624770578864
0.203326904864
-0.00131877785505
0.00105334184206
-0.20277854795
0.203746132025
-0.000170643716648
0.000287654887406
-0.000152924843954
-2.35228904611e-05
0.203487395255
0.000577616585663
-0.000346994177742
-0.000236935080794
-0.000325252485558
-0.000314727702558
-0.00119879229459
0.203287494346
0.000910997671592
-0.202517024202
-0.000230480946618
-7.79437576619e-05
6.0065522187e-06
-4.52007088733e-05
6.12577124499e-05
0.203990494067
0.000300280299653
-6.42045068438e-05
0.0506442287134
-8.23867399372e-05
-6.30506539348e-05
-7.40090860349e-05
-7.21687423237e-05
-0.000276099389799
-0.0505350964103
0.000221628073089
0.0511755001246
-8.54020096118e-06
-4.89297007599e-05
-3.97212072302e-05
-2.00421350808e-05
-1.06202012108e-05
6.73991358427e-05
0.0041166895029
0.00348764538324
-0.0139461742358
4.20962469716e-07
1.06711713322e-05
-1.46518909435e-05
-1.24969811569e-05
-0.00645813344149
-0.00973507829285
-0.00841555039969
-0.00915455440081
-0.0317585713367
0.0577415881729
-0.00855411419364
-0.0425190038423
-0.00916915186992
0.00904794134738
0.00463705770343
0.0154447976487
0.00966087922968
-0.00891716893346
0.0163845703657
0.0357941811257
0.000157183416608
-9.77005676977e-05
-0.000109548103713
-9.1749138576e-05
-0.000114311335442
0.0507878653495
-0.000212831289309
-9.87389907533e-05
-0.000117931030378
-9.27816342169e-05
-0.000112433427105
0.0507430527347
0.000104586656873
-0.0505833552721
-5.87339763355e-05
6.78269513305e-05
0.0123715107237
0.000138115014263
-0.000147829593869
-0.0123708700702
-0.000105531781316
0.000122134044942
-0.0123691186248
0.000109959540564
-0.000116531723341
0.0123590191227
-0.000103089604108
0.0126327870741
-3.13999954553e-05
2.30332458222e-05
-0.0126200866634
-1.7150759594e-05
-6.16051464111e-06
1.80466577184e-05
2.21821657556e-06
1.63556202159e-05
0.0510853946753
8.28149804508e-05
0.051164530375
-4.19937403419e-05
3.7341045849e-06
-4.09863374769e-05
-1.13869142168e-05
7.4236793291e-05
1.67203150551e-05
4.23773439434e-05
5.62687357511e-06
2.78603152906e-05
0.0510536939554
6.2210766655e-05
1.79308759879e-06
9.95269001895e-06
-4.49534152411e-05
0.0128017948096
5.03505386548e-05
-2.47105230569e-05
-0.0121929465917
2.06288871902e-05
0.0121542729789
-7.56540108714e-06
2.69851096536e-05
-4.95953692665e-05
0.0127991850431
-0.0127847483058
1.9664740475e-05
0.0127659883925
-3.1113861742e-05
4.70211689131e-05
-0.00241455269961
0.000174246469212
0.000185660982871
0.000191248265648
-0.00560982968584
0.00584169929435
0.00557963266114
0.00537834254175
3.08161251503e-05
1.48004057822e-05
5.92066532943e-05
6.27246019602e-05
-0.0145323132572
0.00205215686713
0.0114505255285
-0.0019089989165
-0.00960021566598
0.00502750065323
-0.000466397580178
0.0036623807856
-0.0107786530537
-0.00263120723765
0.00552658826768
0.000118376826835
0.000163219579981
0.000133568003501
-0.00404838043428
0.00426517243825
-0.00328570106931
-0.00283605985359
0.00141002924847
-1.9975521427e-05
0.0126842665097
-3.09138197831e-07
-0.0126487921537
-0.012677778238
-0.000187106888562
2.37363587656e-05
0.0127174458002
-3.82239355928e-05
3.05406407945e-05
0.000173931329192
0.0123120705417
-4.1073925894e-05
0.000159763135088
0.0123045581632
-0.0122921265128
2.29627670943e-05
-0.012639340444
-3.57023476255e-05
0.0123047708193
2.25829286827e-05
0.0127226080562
5.63877225318e-06
0.0127589428483
-0.000178890347586
2.5903258566e-05
-3.90449172096e-05
-2.33293546402e-05
-0.0127596682895
0.0127856294039
1.17799516079e-05
2.79751964975e-05
0.00016351015996
-3.24457764333e-05
0.000183144572507
-0.0123228777729
0.0123297240673
2.46426796388e-05
0.0127877224894
-3.09099078183e-05
2.22506498844e-05
9.14421354837e-06
-0.0128198292511
-0.00013088317458
1.49270208676e-05
0.0128259488212
-1.27124947112e-05
-2.01609002636e-05
0.0128158876722
1.1387846704e-05
4.36446701069e-05
0.000116599478714
0.0123334370104
-4.46337938163e-05
0.000165282149583
0.0123281568184
3.47320189201e-05
-2.36345820151e-05
0.0123305357824
4.40747057562e-05
0.0128244434338
1.08980776906e-05
-4.63103476167e-05
-0.0128297108121
0.0128166641627
1.75493912993e-05
5.89139225259e-05
-0.0123166151082
0.0123095598902
-5.29706628151e-05
-0.0123040680793
6.29660053188e-05
0.0122906644173
-0.000101747016634
1.16053913338e-05
-3.87434743203e-06
5.39690777736e-05
8.99230735113e-05
-5.04047343879e-05
5.79004188356e-05
1.57929694261e-05
-5.11356020362e-05
-0.0128414192134
0.0128203274069
3.19595985677e-05
4.87729929326e-05
-0.0122984152886
0.0122826427462
-0.0122946266175
0.0122720160507
3.5063941889e-05
1.45610596897e-05
-0.000109502576753
-0.012835335308
0.000109454548799
-4.30669532395e-05
-0.0123337168196
3.17023739936e-05
-0.0128487524034
2.74380041899e-05
-0.0123304663188
0.00445803279693
-0.0107009126185
8.07868657033e-05
0.000105515527762
9.996075886e-05
8.92697495575e-05
0.00972157967963
-0.0142667319508
0.0104124037104
-0.00886439394294
0.00802721656585
0.00574286760969
-0.0101831945279
0.0137794954071
0.00364295645098
7.65575047217e-05
5.93255479926e-05
7.24528609897e-05
-0.00898054079605
0.011146144757
-0.0198547023559
0.00370515027857
9.35350939235e-05
9.78803433698e-05
9.22285996564e-05
0.00692404290999
-0.00793971964548
0.00684864269861
-0.00846304813143
-0.0108119813338
0.00765587649445
-0.0096742051256
0.00221003924514
0.00245008437459
-0.0133617102498
-8.25457464604e-06
-2.80045733265e-05
-4.79173180734e-05
-2.48376032433e-05
0.000605126154095
0.000331716971134
-0.00402442244962
0.00559196515563
-0.00504912884415
0.00272760057291
-0.00187850561406
-0.00199795392687
-8.68597633304e-05
-0.0001052785536
-5.96117407171e-05
-4.76645187146e-05
-0.00811460395856
-0.00107223010881
0.00115934854557
0.00199387264887
0.00638607130782
0.000190493018062
-4.03543489802e-05
-5.61378456201e-05
-4.54722002317e-05
-0.0109696250667
-0.00497293873392
0.00267513821443
0.00327168386666
-5.47438153055e-05
-0.0126190091972
-9.63257770157e-05
0.012638893797
4.87841529103e-05
0.0126246006922
6.15025223633e-05
-6.6204561065e-05
-0.0126150731023
8.8060371739e-05
0.000133023437907
0.0123668028762
-0.00013976394116
7.62316791601e-05
0.0123585552892
-0.012357288922
0.000120033173033
0.0126449699929
-6.1012602902e-05
-0.0126102917507
5.69158660179e-05
0.0123530752209
0.000114637265473
-4.74927727264e-05
0.0126549632573
-0.000105620092079
3.94039978926e-05
-0.0126606090529
4.24093541149e-05
-5.08255531691e-05
0.0126815546506
9.9113566942e-05
0.000118760150999
-0.000126580562767
0.000123836487641
-0.0123555017062
9.29142756619e-05
0.0123467075481
-5.57229119346e-05
3.15785993825e-05
0.0126752859254
0.000102837018361
0.0123309453292
-9.00301120062e-05
7.0547168355e-05
-0.0123336840902
0.000134939874543
-7.95765583304e-05
0.0123169294929
6.39898004837e-05
-2.12999223819e-05
0.0126561629151
1.47173740226e-05
0.0126463587522
-0.000100778171438
-0.0126304933384
0.000125018189939
-0.012344922863
0.012333303845
0.0126692231717
-0.0123438385652
-3.09059287866e-05
0.0127992283364
1.86405083879e-05
5.39242159485e-05
0.0122709798961
-4.5763570305e-05
0.0122501188475
6.02576454012e-05
8.58409267619e-06
-1.365392191e-05
0.0127846793464
2.19733600325e-06
5.47712358613e-06
4.69885150753e-05
0.0122409661532
-3.71405349027e-05
0.0127834210056
1.9273519929e-05
0.0122196039724
5.13748836714e-05
7.04585388927e-06
0.0127714637299
-3.17850425532e-06
3.18267407234e-06
-0.0127709352322
-7.51181772651e-06
0.0127535161429
1.82250870652e-05
-3.34280262274e-06
3.54875590135e-05
-2.44118119459e-05
-2.65636896625e-05
-0.0121693232376
2.6528787951e-05
0.0121338888692
1.83201042455e-05
1.46009599643e-06
0.0127522298274
3.72052540426e-05
-0.0128008932139
3.03746686162e-07
-2.81965802625e-05
4.77133676642e-05
-3.44366719333e-05
3.98022156914e-05
4.63274092155e-05
0.012238664299
0.0122225107017
3.33640109337e-05
-4.18948709115e-05
0.0121883985824
2.82326223839e-05
-1.91991226806e-05
0.0127810551529
0.0122040375324
0.0121377930827
-3.11802768255e-05
1.48623300652e-05
-5.47511896248e-05
-2.33506891806e-05
0.0121035559696
7.09278721514e-06
-2.7512561911e-05
0.0127420410732
3.89586229964e-05
0.0127664666945
-7.83448142886e-06
-2.09721331131e-05
-0.012154516382
0.0121189781658
0.0127472502611
-6.74074495347e-06
5.09989504915e-05
4.80520583751e-05
0.00062021653942
0.203549655221
-1.47332989849e-05
-0.000280494529376
-3.1161396248e-05
1.58555838263e-05
9.91892118318e-06
1.56773972304e-05
8.47291098502e-06
9.56960126667e-05
0.0509641390202
-3.58818304923e-05
0.000492654056098
-0.000330999833848
-4.1727937559e-05
-4.30384771206e-05
-4.756346278e-05
-0.00390298528007
-0.00705961276847
0.00827958050184
0.0103275773743
0.00936326521643
0.0464032550924
-0.00527015585352
0.00796106558278
0.0509620088162
-0.000128340040724
-0.00011418531543
-0.000108816284193
-0.000135015129736
0.00032931702441
-0.000106395911356
0.050952004091
-0.000135422789349
0.000138941376342
-6.31955907725e-05
0.012327818868
0.0509105738278
2.68395514552e-05
3.22994268395e-05
1.91415451565e-05
4.04380389865e-05
4.41834523718e-05
0.0508072065905
2.21620448579e-05
2.20646171891e-05
1.68860900964e-05
2.88763896032e-05
6.81746002446e-05
-6.67962864177e-06
-1.97737250051e-05
0.0121244413863
6.239885662e-06
7.44768419772e-06
8.82030680059e-05
-5.04675578321e-05
-7.99939420492e-06
0.0120770565454
-3.46253470164e-06
0.0120721732343
3.32994364296e-05
-2.79497787306e-05
2.23565396014e-05
-0.0120683472709
-3.16200511823e-05
0.0507182677154
-2.78199633017e-05
4.29502541291e-06
-7.96319652872e-07
-2.15310812127e-05
7.24782956731e-05
0.000113558751875
-5.12503796093e-05
-4.53292800511e-05
-6.67099484945e-05
-6.89058775143e-05
-4.12257812376e-05
0.00014366625036
0.000158519890782
0.050732653748
-9.43162921302e-05
1.03818509602e-05
-1.6089384855e-05
3.0545199787e-05
0.0120853473005
-3.81513071602e-05
-9.0172516775e-05
9.35102225966e-05
5.37642777451e-05
-0.0121001437042
0.0120992788738
-5.58608908922e-05
0.000114368959366
0.000144586307541
0.000125974436958
-0.00846461151934
0.0044271530287
0.00426918362041
-0.00308697269454
-0.00191411622756
-5.20605986629e-05
-8.64807159874e-05
-5.80994410653e-05
-0.00233490482123
-0.00134384697182
0.000310756485015
-2.44268999319e-05
-3.82942115265e-05
-3.03909481191e-05
0.000112366897339
-0.00203948110104
-0.000617114600085
0.00621781084095
0.00502437983751
0.00413005578885
0.00570093546333
0.00206306510589
0.00430147509026
0.00583606331933
-0.000118237184951
2.03243467059e-06
2.31795543043e-05
3.38991360214e-05
-0.000218779391563
0.00100953377349
-0.000410389469563
9.13407418341e-05
7.07570330691e-05
7.66925372677e-05
-0.00148348164067
0.0018368254335
-0.00234514321028
0.00154486944791
-0.0126981267816
-0.00014672826573
4.07661192016e-06
-1.71195094153e-05
0.0127295406929
-9.72857239881e-06
0.0126902819753
0.000125056379651
0.0123385020997
-7.90497915578e-05
-5.32239329979e-05
0.000160421510646
0.01232405376
-2.24245073217e-05
-6.73285533884e-05
0.0123317110455
0.012725298902
1.18757494601e-05
-0.0127298979983
3.38164990827e-05
-6.30481071416e-06
0.0127063619331
0.0127335377062
-8.65581543456e-06
1.87558701497e-05
-2.85209043492e-05
-5.26329657554e-06
1.7477079942e-05
0.0120989692327
-2.31578438607e-05
0.0121073773968
1.28294872771e-05
1.96991343854e-05
0.0127127927023
-1.04081869875e-06
2.69229693259e-06
0.012085613583
-0.0127229478281
3.07454522882e-05
1.4320787152e-05
0.0126983905743
-2.267083442e-05
0.0127133249433
3.31747274002e-05
-1.96936277357e-05
0.0120913384939
4.21370825405e-06
-5.55908808668e-05
0.0120576013296
-1.56721674876e-05
0.0120708254294
0.0126887466058
2.37530937529e-05
0.0126761887686
2.81225868112e-05
1.90067180759e-06
1.43214398317e-05
3.21327712522e-06
-0.0126675426778
0.0126519966093
6.40715190419e-06
-1.8040965378e-05
-0.012076618479
0.0120778199558
1.47452763227e-05
1.74436124167e-05
-3.96421846837e-05
-2.68246671364e-05
0.01265990312
1.82002473717e-05
9.33330047501e-06
1.22725854636e-05
-0.0126372729234
-4.06577427445e-05
-1.54057810438e-05
0.0126327459823
3.27617524148e-05
1.08806795249e-05
0.0126306745183
-1.41853410736e-06
-5.73598109872e-06
0.0120922020431
2.39057784987e-05
3.82607649919e-05
2.6932087036e-05
0.0120861335773
-4.25633632742e-05
2.70277816536e-05
0.0120923926559
3.12490541838e-05
0.0126260791834
-5.23631852819e-06
0.0126378663055
-6.71138249256e-05
-2.11874676469e-05
3.78936316135e-05
2.57397769452e-05
-0.0126318948367
0.0126473955538
-1.42306308735e-05
9.99541674466e-05
-0.0121085643438
4.47995824264e-05
0.0121089877349
4.61868995726e-05
5.80457317088e-05
-4.73718046676e-05
4.24796545852e-05
0.0126522302813
3.95769783607e-05
-1.00117592596e-05
-0.000686981626509
-0.0494663821489
0.049378222319
0.000875490657886
8.7727930274e-06
-1.54985701757e-05
-4.32974641356e-06
9.30115026077e-07
-9.0243554966e-05
-0.000881411117632
0.0498890427619
6.32376104391e-05
4.51347172992e-05
5.86909484045e-05
5.41628771398e-05
-0.000104043520642
-0.0498408535957
0.000716035995896
-0.00122923708566
-0.0499648701034
0.0500545278676
0.00096081812432
7.90453410798e-05
6.59440307513e-05
6.87975576436e-05
7.63967495142e-05
-0.000111424412431
-0.000707940430239
5.49211715111e-05
6.22826930158e-05
6.55549068662e-05
5.41420140958e-05
-7.24337062544e-05
0.0502050986267
0.000495069004058
-0.0501566912302
4.09659470513e-06
0.00820549891333
-0.0208480339978
0.0213774946145
-0.00892150112874
0.000250760856847
2.59622751664e-06
-4.46761297828e-05
-3.77934275757e-05
3.31713587376e-07
-0.0227278636354
0.0238226556008
-0.00923691019656
0.00147469054433
6.18355056209e-06
-2.56312276524e-05
-1.78277006917e-05
0.00668880163337
-6.64699302162e-05
0.00475997666784
0.0219301207865
-0.00915786368671
-9.19230597822e-05
-7.62596083832e-05
-8.4613239106e-05
-0.0180780240721
0.000864421787
-8.89944185795e-05
0.00549380252986
-0.0269357440512
0.0312295825445
0.00122737540175
-0.0106344706525
-9.17485532137e-05
-0.000101096654929
-9.87866773454e-05
-7.71840530224e-05
-0.00723654251384
-7.45010198637e-05
-6.50658189415e-05
-6.08868279625e-05
0.028846191572
0.0121509160739
-0.00857607771985
-0.0249068582908
0.0988137402517
0.00179854431644
-0.00414904686253
-0.00148555376892
-0.00194333270245
-0.000180857144491
0.00702153626872
-0.0463500767616
-0.0164711389462
-0.0107658580516
-0.010707245494
-0.0124930479022
-0.0115562413915
0.015243991029
0.00200342598352
0.0781941817052
0.00759702556299
0.00589300089
0.00565734059119
0.0142790030367
0.0143878365569
-0.0361333534302
-0.0100933149194
-0.00527171025576
-0.0064110288245
0.00320377407245
0.0019564157557
0.0223637463564
0.0857258573878
0.0166177306319
0.0175277251343
0.0165182278265
-0.0408022920426
-0.00764341101594
0.0145192241493
0.00891538958098
0.00702920547562
0.00884486561979
0.00712826506412
0.057073376762
-0.0241306953458
0.000236353588359
-4.6331574047e-05
-3.37449834356e-05
-4.16198202237e-05
-3.95510160891e-05
0.0491137473614
0.00010133835704
2.05040176155e-05
-0.0493107355095
0.0491654749149
0.000495793729602
-4.57332997383e-05
-2.80461016056e-05
-3.58488048715e-05
-4.51299945842e-05
9.84087944721e-05
-0.0493684564918
-4.10046933322e-05
5.07127725783e-05
-0.0122237434411
1.23596302521e-06
0.0121945615066
1.75649907554e-05
0.0122223146547
5.64244956563e-05
-2.1966071306e-05
3.76367987627e-05
-4.78419622617e-05
-0.0122469125497
5.88493480823e-06
-1.50695222983e-05
-1.99117791481e-05
8.91546952036e-06
-0.000350348906461
0.0122924183125
0.0122479824471
0.0121856512169
0.0121910052555
-6.8043577356e-05
6.30955081001e-05
-6.80275269466e-06
2.74691428159e-05
-5.28808967666e-05
0.012192435991
0.000662909643946
-2.38630406344e-05
-1.89026907965e-05
-3.29026700463e-05
-1.43031219144e-05
-1.93058083031e-05
-0.0495241589733
0.0496381909892
-8.99143987932e-06
1.92284496089e-05
-8.6057534957e-08
1.40229981465e-05
-3.76011111488e-05
-0.0496561888208
0.000694295019795
0.0122340774199
-4.86346540712e-06
3.87885647482e-05
-0.0122590237056
4.7593577426e-05
0.012279228211
5.43919317257e-05
-2.52243247537e-05
-1.74791950931e-05
-0.0122989279683
8.16901104272e-06
0.00110504436409
2.25857403569e-05
2.36238983202e-05
1.12969926138e-05
3.37691797196e-05
0.049236231992
-0.000231072892194
-0.000193845309009
-0.00022350116468
-0.000183412239443
-7.15069996021e-05
-4.66229470068e-05
-5.91674634744e-05
-4.52003955447e-05
0.049613668653
2.02699490324e-05
3.35985233032e-05
1.57038413204e-05
4.5483813264e-05
-9.66149363422e-05
0.0496982038183
0.00104355041702
2.82875976216e-05
6.14657213159e-05
3.77708989399e-05
5.52461806114e-05
-0.000205797227775
3.30995304682e-05
0.0122048049981
6.30223757224e-05
0.0121525624981
1.10012028597e-05
6.72391363686e-06
-0.0121663396625
0.000119421229959
-0.00012344581195
1.79283209294e-05
8.07878969021e-05
-4.33002324736e-05
-3.33362139767e-05
0.0122570796378
0.0122174314792
6.34777621808e-05
0.000111332774709
-8.14942710611e-05
-8.89499633109e-05
-0.0122218682116
0.0498316698967
4.22482971838e-05
5.4740085549e-05
3.37077949295e-05
6.15056305714e-05
-0.00132251959511
-0.000232291651201
0.00144215549101
3.79563678837e-05
6.11177213306e-05
5.70499007871e-05
4.29274970028e-05
0.050351669812
-0.000378212506638
-0.00178283624878
1.11714120491e-05
0.0121527078922
0.000141140476764
-0.000152006170282
-2.95054112585e-05
-3.08025452563e-06
-0.0121939416225
0.000197391491725
0.0122410925792
-0.000211808981995
7.62971327606e-05
0.000100158898214
-7.4362712056e-05
-0.000102867357653
0.0122181582226
0.000126175281872
6.48810930568e-05
-5.2155737799e-05
-0.000153675019817
-0.0122426385216
0.01225735746
0.000832368731484
7.28855367299e-05
7.44042800837e-05
6.89531716456e-05
8.13988966311e-05
-0.000162375174066
0.0500929641856
6.59877558072e-05
7.26313601854e-05
7.85175907209e-05
6.07878822705e-05
-0.000141852678204
-0.0500364367735
0.000639731043422
-6.73563059972e-05
0.0122718643295
3.82501332216e-05
-0.0122911962893
0.0122357496569
0.000100500798651
-0.000108289859627
-0.0122395758164
7.50721667497e-05
0.012267776693
8.44830444571e-05
-0.000102916052248
-0.00011667372874
-0.0122738906717
0.000141296225881
0.00107182622795
7.29332339577e-05
5.90543945486e-05
6.13249850617e-05
7.13428127394e-05
0.0503098321762
-0.000149645708395
0.0501601527164
8.09806319031e-05
7.50985964074e-05
7.84572400979e-05
7.84890308349e-05
-0.00012741508099
7.65116264539e-05
7.37119412071e-05
7.54248938011e-05
7.50805756653e-05
0.0502971520506
0.000768225913325
-0.000134192829749
-0.000101999328346
0.0122377631256
8.71986253481e-05
7.13792258469e-05
-8.08673101378e-05
-0.0122580228569
0.000119763249172
0.0122739515615
0.000149681253831
8.67141388023e-05
-0.000111067232093
-0.000125809454098
0.0122681983505
0.00017095470999
6.56137317175e-05
-0.000101456223061
-0.000149820787116
-0.0122871443002
0.0123018763883
-9.8616968945e-05
0.0122738806651
0.000171007135881
-0.0122737431313
-9.20883419081e-05
-0.0122905396389
0.0123033795018
6.08258197153e-05
0.00018934400716
-0.0035541061156
4.54755662019e-05
5.77691912297e-05
7.19181132706e-05
0.0239101334614
-0.00136272103735
-0.0278974034834
0.00868998567583
0.0233200818919
-0.00699773743872
3.81178311908e-05
3.42289660139e-05
6.8028259904e-05
-0.0265835538025
0.00654597197
0.00540960341763
1.04711799795e-05
-3.87419295222e-06
-4.2018222029e-06
0.00423348112478
0.0218726766998
0.0172120782592
-0.00299498036085
-0.00786484811297
0.00111469358312
-0.011655008521
-0.00161179944444
0.022394182967
-0.00369379487364
-0.00136355017813
0.0184406349312
-0.00504457504747
-0.0129881943593
0.0240748759493
-0.00432628404102
-0.00311161360392
0.0155452028354
-0.000130826228491
-0.000588664776537
-0.00319779842841
-0.000282779152511
0.0096532134481
-0.00182706082672
-0.00270793774641
0.0175804875151
-0.00319521980488
-0.00295455146145
-0.00220982012308
0.011450857114
-0.00351718127959
-0.00808415639358
7.4502478245e-06
-2.3723415291e-05
-1.1408484719e-05
0.00269335477635
-0.0224333818481
0.018073252992
-1.95672790292e-05
-5.38200135204e-05
-1.37303228008e-05
-0.0176120274212
-0.00308780545373
-0.00531623143304
-0.00949466358273
0.000693341804578
-8.34470449629e-06
-4.81881077462e-05
-4.68610747863e-05
0.00755752411475
0.0211690445694
-0.00698188533761
-4.14246031054e-05
-0.000101155142768
-5.21332131628e-05
-0.00794015993035
0.0251379088148
-0.00519647927032
-5.51624288274e-05
-0.000116844748342
-4.46241012329e-05
0.0180808167341
-0.00431662140944
-0.0126419409077
-0.00372088727348
0.0238211242821
0.0191955431492
-0.00277904698976
-0.0134374655914
0.0243858743941
-0.00247551562329
-0.00855411727532
0.00259652225138
2.30127467909e-05
1.58505594809e-05
8.1957805832e-06
0.0234614798389
0.00623080293727
0.0288053876165
-0.00710645096165
-5.27661799911e-05
-9.86722816441e-05
-5.23665181872e-05
-0.00501901439619
-0.00517138529569
-2.00787093356e-05
-7.11179927925e-05
-3.07004063471e-05
0.0306293726216
0.0193714092284
-0.00253019577278
-0.00167587549625
0.0150546605395
0.0192807960806
-0.00133713440721
5.33612040222e-05
0.0144744999802
0.00154700011524
-0.0113472979997
-0.000103269598898
-0.0001036136636
-9.53818943624e-05
-0.0100052759196
0.0264156061598
-9.64562315347e-05
-6.07837759674e-05
-7.84074738054e-05
-0.0212144446113
0.00667006766707
0.0194414180768
-0.0134707673294
-0.00129804512615
-0.00145196043191
0.0246056725939
0.0253414477277
-0.0196310827706
-0.000657050945582
0.00134481961
-0.00930357589663
-7.88383537041e-05
-7.3542534268e-05
-8.7420054249e-05
0.0343284858113
0.03131810363
-0.0105579232972
-9.33947309282e-05
-8.2735079474e-05
-9.12628698394e-05
-0.00925667522679
-7.57053720931e-05
-7.49990661154e-05
-7.71915063658e-05
0.0346593788465
0.00755385630702
0.0219031761348
-0.000339369680718
0.000229777212451
0.0194610708467
0.023710347197
-0.000417764034629
0.0225790132585
-0.000770643629064
0.0123969831075
-7.41915830646e-05
-2.03402717247e-05
5.56303484208e-05
-0.0124043998226
3.23099629342e-05
-0.0123846140479
0.012360814164
8.47436973459e-06
-7.86529848824e-06
6.23170181473e-05
1.76504223486e-05
-0.012250443845
5.64101909248e-05
-0.0122309495881
2.90840875001e-05
0.0122042063816
7.20186191886e-05
0.0123725949497
1.46621638367e-05
-0.0122560521504
1.38402897873e-05
-0.0123955037847
0.0124084998116
9.36668483935e-05
-7.48307999961e-05
-0.0124170993224
-0.000107553955894
-0.0124172918198
0.0123983688662
0.000136026020212
4.79442943076e-05
-0.0122422563758
0.0122137721592
6.38676843109e-05
-3.29485539209e-05
3.75249651157e-05
-0.0122812719251
0.0123854224552
0.000124286290468
-0.0124288688867
-0.0122674150747
-0.0123579711081
0.000140835179716
-6.7420561573e-06
-9.9097173929e-05
0.0123288555196
-0.000119349140396
0.0123770170789
0.000153266189115
3.01884001713e-05
0.0121807570635
-3.93610541096e-05
4.24069607516e-06
-6.49573504598e-05
8.04413850344e-05
0.012168677232
-8.16068387487e-05
0.000176851844218
0.0123540973231
-4.94599708226e-05
0.0121544527984
-0.000154246158531
0.0124528888709
-3.65162387723e-05
0.000172135702357
-0.0124581292616
-0.0124342818735
0.000169544976213
0.0124206424286
5.28239651036e-05
2.68375197113e-05
-0.0122937218136
2.21471915048e-05
-0.0122717281575
2.5159344454e-05
0.0122482962182
-0.0124445090088
0.000186309771797
0.0124438509212
1.08903965705e-05
-0.0123039342169
0.0124735932521
0.00018456779453
-1.83402817634e-05
-0.0124767895915
-0.000201547318113
-0.0124928401537
0.0124905080584
0.000197854503481
9.41107685677e-06
-0.0122892358066
0.0122675954182
-1.91468353011e-05
-7.69979612708e-06
-0.012330284496
4.44674708396e-06
0.0124675440439
-0.0124946028661
0.000181129724744
-0.0123181652072
-0.000214313556616
-0.0124311029374
1.29597763476e-06
0.0124172615032
0.000235650729172
0.0124020639473
0.000189347518338
2.31730284726e-05
7.949050826e-05
0.0121855326806
5.61197750836e-06
0.0122178703636
4.27164836865e-05
0.0123834677751
0.000208591622535
0.0122000309781
6.0851884445e-05
-0.000242396067376
0.0124089947532
8.34735055642e-06
0.00026490894741
-0.0123709781404
0.000275163609946
0.0123607382531
-0.000234582703762
1.54474223261e-05
0.000100369473369
-0.000105323400525
-1.95495841339e-05
-0.0121826280324
0.00010250021709
0.0121705775494
-0.000203119932897
0.00029573594435
0.0124026756156
7.93610011331e-05
-0.0124606228152
0.000251074860139
1.4411403619e-05
0.0124510502597
-0.000226128787944
0.01248745019
0.000219376646241
-4.88344579617e-06
0.0122404093107
-6.43782341067e-05
-4.72016761232e-05
0.0122375038042
3.01786410584e-05
0.0124802664099
0.000239231948652
0.0122164357422
0.0124440444471
0.000278489412475
2.16994131579e-05
-0.000303541588184
-0.0124726924761
0.0124711660805
0.000285017351888
-3.40012740602e-05
-0.0122062792485
0.0121991491643
-7.85708495337e-05
-6.67886577077e-05
4.41935346643e-05
0.0124400433797
0.000262672989953
-0.000341952753911
-0.0124034755206
1.52981150579e-05
0.0124122350801
0.000361858749525
-4.39366097719e-05
0.0123583402634
0.000307993184164
-2.35359311403e-05
-0.00027086297466
3.58093179178e-06
0.000162442860503
0.0121676772702
-0.000174792133967
-1.11274390136e-05
0.012172753039
0.000124431566469
0.012372806526
-4.11342149494e-05
-0.00031169473666
0.000327701174526
-3.16084477954e-05
0.0121834675059
0.000149080982379
-0.000374041947134
3.79933942216e-06
0.0124642214309
0.000392477958894
-7.42095609115e-05
-0.0124374757388
0.000400039876777
0.0125222388028
-0.000386784737061
-0.000101050736328
1.00699886872e-05
0.000182547534711
-0.000195785958498
-0.0122070299645
-9.37341304753e-06
0.000189168028802
0.0122404857283
-0.000350002241638
-7.85709893293e-05
0.000170990077941
0.000416578887956
0.012533729609
-9.53440743877e-05
-0.012441925483
0.00035715942284
3.63942412276e-05
0.0124524765431
-0.000329220704007
0.0124720143537
0.000308740833748
-3.02571944437e-05
0.0121981816436
-7.7453131928e-05
-0.000122406414043
0.0122256877122
9.36697676327e-05
0.012480833836
0.000332370519243
0.0122089607581
0.000382192945219
1.42916408699e-05
0.01248640601
-0.0125048945327
-0.000397972126249
0.000369042160298
0.0125427750943
-0.012226066818
-6.70617803738e-06
0.0122484344056
-5.99861101411e-05
-0.000137540138203
0.000109511424768
0.000355166389458
0.0125411780784
-0.000211808290252
-0.0125256147511
9.57152112914e-05
0.0125223980335
0.00018253440622
0.0125116239081
0.00019920820499
-0.0125137732002
-9.21865468393e-05
5.00341315621e-05
0.0122523106021
-8.39603539386e-05
0.0122777084028
-0.0122969133209
6.50945069238e-05
0.0125054365285
-0.0125287748644
0.000172448649467
0.0122640404763
7.4677327142e-05
-0.000231607782822
0.0125200002475
0.000108111823189
0.000198721172403
-0.0124996410877
0.000251562915211
0.0124991238643
-0.000105808711981
5.94949862821e-05
-0.00011939768633
-0.0122538146099
9.46991709418e-05
0.012249905463
0.000214712847656
0.0125187745922
8.22514920135e-05
0.0125373937059
0.000169825865235
9.52328600226e-05
-0.0125377714139
-0.000182751716921
-0.0125482916827
0.01254617532
0.000154536099653
-0.000112840745648
-0.0122635906336
0.0122580666959
-8.45063222544e-05
-0.000106043103818
-0.0122760004632
0.00013188698772
0.0125349258936
-0.0125481043913
0.000145828684765