/*--------------------------------*- C++ -*----------------------------------*\
| =========                 |                                                 |
| \\      /  F ield         | OpenFOAM: The Open Source CFD Toolbox           |
|  \\    /   O peration     | Version:  v1906                                 |
|   \\  /    A nd           | Web:      www.OpenFOAM.com                      |
|    \\/     M anipulation  |                                                 |
\*---------------------------------------------------------------------------*/
FoamFile
{
    version     2.0;
    format      ascii;
    class       volScalarField;
    location    "8.05";
    object      alpha.water;
}
// * * * * * * * * * * * * * * * * * * * * * * * * * * * * * * * * * * * * * //

dimensions      [0 0 0 0 0 0 0];


internalField   nonuniform List<scalar> 
28582
(
0.999997101984
0.999997817428
0.999997764561
0.999997848878
1.00000117456
1.00000095957
0.999992309852
0.999993600492
0.0523665343934
0.0568995536231
3.86938395159e-05
0.999993166595
0.854192639266
0.859156573116
0.999995870377
0.99999783656
0.861387917284
0.998527260132
0.998531384429
0.999995349407
0.999996465695
0.99999583212
0.999997878694
0.999996972999
0.999995428191
1.00000093942
0.999999896478
0.99999128032
0.999997748595
0.0570709018701
4.18390933864e-05
-4.46783860294e-24
0.999987830221
0.999986256712
0.874817325564
0.85754476327
0.998362340364
0.999998093042
0.99999768108
0.999994935161
0.998605572783
0.865612875124
0.998590103235
0.998761464693
0.0544723418314
0.0571466269318
0.000353264390882
0.000631773792475
0.0558389871093
0.00105679530043
0.99842164592
0.998467838739
0.85579817894
0.85420283748
0.998518718602
0.856326561802
0.998401299205
0.99843340756
0.998395753576
0.857366435083
0.859444852981
0.998437530257
0.858043430999
0.998403434568
0.998429458191
0.998391702571
0.864083917018
0.86143930257
0.998423945857
0.86429964656
0.998408522334
0.998536018461
0.867166831898
0.86702868432
0.998459561402
0.865611843893
0.865853187229
0.998462023258
0.99853797387
0.866846864597
0.868433233019
0.998510389826
0.867017534745
0.998511054526
0.865855200142
0.0497479484942
0.00106184806773
0.046881269484
0.0488718387966
0.000835064249313
0.00088445162923
0.0573077144957
0.000127976843922
0.000328571401168
0.0569925686348
0.000220467597876
0.056865067329
0.000382529765568
0.998385771675
0.998693693894
0.865197641258
0.874049288267
0.998463091638
0.998593528359
0.86523703948
0.998232604818
0.998241590557
0.860134789486
0.856126759492
0.998299856541
0.998131754344
0.859702732825
0.85786746179
0.853963790577
0.998291031056
0.998309590343
0.854722576538
0.998227407041
0.858715072508
0.998617355551
0.867548783707
0.867620655095
0.998693841042
0.867934997193
0.99872060079
0.867920122928
0.998815530293
0.998820891131
0.867235933737
0.865374516866
0.998831595801
0.998820567926
0.867248323865
0.998675892166
0.99859884267
0.867624153255
0.869217744499
0.869831202789
0.998696106394
0.86869941987
0.87034140273
0.869349789146
0.998768004232
0.998787008978
0.866510496055
0.998775091928
0.868136010438
0.999999774016
0.999996986728
0.0574095194388
-1.27656040256e-28
0.999988491484
0.854235875137
0.999994922262
0.999990063038
0.863950733623
0.866831582106
0.855907357416
0.999988011019
0.999990033747
0.852909886148
0.851535642009
0.051566513378
0.0576306129058
0.0591358035975
0.000480843184665
0.000414071037369
0.000521939095022
0.0601695845759
0.0601019521093
0.998187329134
0.998219085213
0.855316425239
0.854969887354
0.99815707112
0.856273725999
0.998239866303
0.998716098284
0.998775832014
0.862606254032
0.863624373319
0.998705503636
0.998795208797
0.861975581316
0.998584347195
0.998734292162
0.864370413507
0.863459379182
0.998723648484
0.861757829125
0.998613670171
0.998375759944
0.998134065351
0.856051902963
0.859735736695
0.998122040276
0.858888291142
0.998408639398
0.997533743212
0.997830941382
0.854018900426
0.850604404557
0.997818865043
0.852362986947
0.99755157198
0.997452589687
0.99750891213
0.853372659854
0.850764590282
0.997463104186
0.852639051335
0.997483358948
0.999999036432
0.999999482405
0.999998226905
0.999997999144
0.0260881853112
0.0276782008431
0.0239809159209
0.0254147500866
0.0253284709218
3.30872245021e-25
1.52257291381e-05
-1.16409449618e-27
2.297426556e-06
-9.62760652437e-27
2.79732897256e-07
1.00000104188
1.0000016249
0.947112646073
0.94644207058
1.00000117562
0.945890212604
1.00000068146
1.00000081265
0.946069116121
0.946799987507
0.999996352215
0.999999648166
0.999998324068
0.945595266512
0.944154889481
0.94679827978
0.946547875941
0.999998843656
0.999999607167
0.943651859497
0.940958850038
0.945838896666
0.942271150988
0.999998075355
0.999999337585
0.94738369885
0.946795255354
0.946196809165
0.999998989348
0.999999052743
0.999999375432
0.945863607741
0.943377517791
0.945362899296
0.943019619721
0.945043812861
0.942521880062
0.0252645772291
0.0253157207421
0.0265945898847
4.7710285645e-05
2.80105115564e-05
4.42264309015e-05
2.8947983984e-05
5.096552288e-05
0.000202212823291
5.37939662335e-05
0.000183674940359
0.0251802287036
0.0245632987004
0.0270976632372
0.0251650850724
0.025613658394
4.04559634865e-05
2.47048279008e-05
2.3650284954e-05
9.62748092073e-06
0.0278248895314
0.0261962583397
0.0268575910759
3.19009044359e-05
6.32015455394e-05
9.97418845971e-06
2.02179131595e-05
0.0245169848894
0.0242022350284
1.51823296074e-05
6.56844512947e-06
6.47752340472e-06
0.0263177544282
0.0251625892575
0.0262803840733
5.61029680517e-06
7.59096906915e-06
5.65005097664e-06
6.54181357372e-06
0.999968784276
0.999955548232
0.947935727571
0.946851936212
0.999948537678
0.947594531336
0.999963370487
0.999972473103
0.999962466232
0.946800507672
0.947386553247
0.999953020861
0.999972460217
0.947584943979
0.999873348858
0.999936322578
0.946130236534
0.945635607434
0.99991967281
0.999880624767
0.945600614034
0.999965696531
0.999958377304
0.946949171306
0.946320596223
0.999970213559
0.999947600581
0.946669369173
0.999946182228
0.999922275166
0.946242394808
0.947055913931
0.99992914065
0.999952083759
0.946262829225
0.999898091441
0.999930129167
0.945151837971
0.945984489883
0.999877675291
0.999932363404
0.945472266818
0.999842567533
0.999741857651
0.944653465439
0.944553446757
0.999801958574
0.999763571131
0.944993808789
0.999902041685
0.999915720637
0.946266627549
0.946831582908
0.999916512901
0.999908620607
0.946162647342
0.999862190994
0.999903683
0.945519377291
0.946806596453
0.999818876951
0.999910841453
0.945907606642
0.99971051891
0.999733408952
0.943116642063
0.943969700797
0.999733681419
0.999711961723
0.943334618561
0.999702016583
0.99975012981
0.942218691327
0.940828072252
0.999743343593
0.942343884195
0.999712424089
0.999758310236
0.999871741605
0.944896195357
0.944899406228
0.999789113098
0.999831785543
0.944104261036
0.999750433382
0.999768222424
0.941439978724
0.943901795829
0.99977980909
0.943034427778
0.999738078992
0.99989120388
0.999909994915
0.947386458121
0.948439191487
0.999902234128
0.999905327788
0.948271101748
0.999890382893
0.999901305984
0.947278145155
0.946749582961
0.999907344871
0.999895978892
0.947650590986
0.999913356459
0.999893759449
0.946502390851
0.947103919154
0.999903337721
0.999906276175
0.94743419164
0.999888711299
0.999886625374
0.944858621367
0.945811210048
0.999865484029
0.999895670357
0.944894969624
0.999889008201
0.99983976705
0.944040488818
0.943610076049
0.999846706179
0.944111889921
0.999885454468
0.999887716828
0.999890400869
0.945582327997
0.944560595906
0.999891242371
0.999888772714
0.944711660743
0.999886777503
0.999884319951
0.943331227444
0.943809021075
0.999887521419
0.943941835968
0.999888851143
0.999878877088
0.999881294011
0.944243340387
0.944232507566
0.999876789923
0.999886685981
0.943367216985
0.999866774804
0.943373531335
0.999872657966
0.999997058855
0.999998789588
0.999998273654
0.999994212973
0.999986590817
0.99998283233
0.999997806336
0.99999795276
0.999997816514
0.99999073235
0.999986747101
0.999989335587
0.999956846158
0.999989761084
0.999978695895
0.999995927767
0.999999803493
0.999999009173
0.999988918677
0.999939761795
0.99999245656
0.999991456735
0.999977041227
0.999984665439
0.999996148384
0.999993429256
0.99997812891
0.999980915021
0.999993197119
0.999996739329
0.999997689767
0.999998559425
0.999998160514
0.999993603462
0.999985947964
0.999992464075
0.999994657387
0.999997667768
0.999998910869
0.999998314804
0.999994224659
0.999987872659
0.999988653981
0.999996109281
0.999995237854
0.999987895177
0.999987723731
0.999994265484
0.999921692365
0.999986049285
1.00000143198
1.00000464663
1.00000085451
0.999931944488
0.999779201695
0.99982980432
0.999907172152
0.999969532531
0.999994962487
0.999999446108
1.00000013868
0.999997341961
0.99996505552
0.999940587168
0.999983838021
0.99999169644
0.999997567398
0.999998725798
0.999998497272
0.999997362167
0.999992364876
0.999991772515
0.999998571354
0.999998809626
0.999998919664
0.999998548556
0.99999771505
0.999996249502
0.999995784259
0.99999705552
0.999996564211
0.999993870761
0.999994023659
0.999996963923
0.999929254352
0.999998151073
1.00001375717
1.00001931121
1.00000950207
0.999970438243
0.999857528988
0.999904549893
0.999904682445
0.999986254647
1.00000525245
1.00001265093
1.00001518564
1.00001106376
1.00000257419
0.999993078379
0.99999833673
1.00000027001
1.00000277564
1.00000390439
1.00000396334
1.00000329669
1.00000243968
1.00000153792
1.00000023891
1.00000110926
1.00000153239
1.00000152607
1.00000123309
1.0000007799
1.00000058319
1.00000072908
1.0000008939
1.00000221489
1.00000217664
1.00000186333
1.00000162945
1.00000147298
1.00000158156
1.00000183289
1.00000023711
1.00000110947
1.00000231016
0.999996724656
1.00000474609
1.00000575101
1.00002124725
1.00003724775
1.00002847661
1
0.999951713313
1.00000093433
0.999995201879
0.999995994356
0.999997501128
0.999999993533
1
0.999997617404
0.999987535653
0.999984308153
0.999999908808
1
0.999997315896
0.999995361096
0.999997826907
0.99999729292
0.99999763496
0.99999537411
0.999989702484
0.999991748888
1.0000018804
0.999997610309
0.999995343018
0.999998267672
0.999999905439
0.999999239607
0.999996673379
0.999988230517
0.999990609144
0.999991676377
0.999992237223
0.999998026426
0.999996712871
0.999991968844
0.999989274116
0.999991551079
0.999990404471
0.999989082913
0.999995989793
0.0425786836708
0.048937229205
0.052847471168
0.0557542813488
0.0551767099211
0.0559418189551
0.0593042177619
0.0602419669654
0.0281860650926
0.0342841676419
0.0425021265595
0.0468278532257
0.0514316511796
0.054866813496
0.0545510343209
0.0560680106871
0.0580429540245
0.0571283988102
0.0277365073825
0.0351877510796
0.0431525789439
0.0458704242943
0.050171691599
0.0536207762079
0.0540317069187
0.0557503158124
0.0572784565589
0.0561978138629
0.0374976851728
0.0450684325033
0.0471869319332
0.0501160597482
0.0522626353424
0.053237532448
0.0555265018789
0.0569722203747
0.0560689198453
0.0502564498674
0.0530553949958
0.0538639419676
0.053745365893
0.0568077066879
0.0572221780492
0.0559087742637
0.059354117828
0.0581351814263
0.0559078784306
2.5386388328e-05
5.39211283495e-06
2.14866197486e-05
3.06282454502e-05
2.86069962374e-05
1.99132478431e-06
-3.95128706871e-26
-1.44589892181e-25
-3.60913184998e-25
5.58308876176e-05
3.27844654934e-05
2.56031718207e-05
6.0747552746e-05
2.87649817036e-06
-6.82599319871e-25
1.56809805889e-05
1.3369463712e-05
7.3035583426e-07
-7.25599599647e-26
3.77864703311e-05
1.61257818654e-05
1.46749309271e-05
1.92241374407e-05
2.58852806045e-06
3.30872245021e-25
-3.15358093704e-40
2.97271432876e-05
3.1187089338e-06
2.27708586964e-26
2.61323618193e-05
1.68672086977e-05
1.01881755639e-05
-9.92616735064e-25
-1.27169232224e-38
-1.24048721057e-27
4.10852685427e-05
6.8029345263e-07
-4.32822302785e-28
2.58063094309e-05
3.04039923017e-05
2.51271327573e-05
6.37676533948e-05
2.7068876977e-05
1.4000368087e-26
-8.31567085891e-27
4.58783422304e-05
-3.49208706588e-27
-4.26936351609e-26
7.33309344447e-05
0.999974201965
0.999992182711
0.999992077263
0.999955489
0.999977619623
0.999959108153
0.999977885063
0.999987561151
0.99999197408
0.999980337951
0.999962336663
0.999958571397
0.999962095978
0.999958489577
0.999990836391
0.999987202712
0.999967101393
0.999982240636
0.999986383159
0.999990760538
0.999967291593
0.999986805574
0.999973300371
0.999988317644
0.99998552296
0.999970623177
0.999975588288
0.999987482857
0.999976615507
0.999919434831
0.999961596822
0.9999077355
0.999977522372
0.999890901626
0.9999676656
0.999992604297
0.99997179287
0.999980652528
0.999992186708
0.999997946478
0.999985138896
0.999993553522
0.999929358005
0.999965142656
0.999955597671
0.999855762998
0.999937809408
0.999940033481
0.999956870761
0.999982952814
0.999973614313
0.999989895993
0.999980199321
0.999991358259
0.999984365387
0.999996836561
0.999986239378
0.999924579049
0.999981625836
0.999963621374
0.999995892249
0.999979622034
0.99999842308
1.00000017016
0.999995398251
1
0.999999764258
1.00000061865
1.00000017014
1.00000188087
0.999959066146
0.999973207415
0.999977992887
0.999968810306
0.999986164236
0.999992585721
0.99999755279
0.999997975415
0.999986978596
0.999998622088
0.999999293771
1.00000065997
1.00000208117
1.00000720975
0.999949023304
0.999978758653
0.902750298054
0.902453224396
1.00000718007
0.99999774377
0.999999681149
0.895577825023
0.861079442814
0.894429163172
0.862704656131
1.00000297499
1
1.00000216113
0.851144883943
0.846051905302
0.854830513444
0.852706170314
1.00001086181
1.00000783013
1.00001686364
0.84862160739
0.863644808681
0.85474413906
0.86592684337
1.00003005404
1.00002858812
1.00003873417
0.866353347335
0.872173306419
0.868292819617
0.872976076239
1.00003593262
1.00004184443
1.00003943514
0.873912210961
0.876259225448
0.874871574932
0.873921481068
1.00001636861
1.00002938212
1.00001903352
0.877346805786
0.869338021256
0.873930792073
0.867993230048
0.999966679693
1.00000570792
0.999995880381
0.865105531003
0.86076218592
0.863734521704
0.856110907163
0.999945034465
0.999978720408
0.999965102139
0.866519132291
0.848780749675
0.860871642446
0.855380923919
0.999998596034
0.999997392452
0.938707895919
0.927977958639
0.940222856435
0.932486568949
0.999998430602
0.999999630383
0.999998458661
0.923035647506
0.901293314962
0.927358016862
0.900703890576
0.99999507266
0.999994262192
0.999988879006
0.892718325627
0.863269800528
0.889343119433
0.861936844871
1.00000009049
0.999993269594
0.999993775826
0.856684515505
0.855149737093
0.85862313998
0.859875184728
0.999998506875
1.00000163167
1.00000251609
0.85640488419
0.86517263532
0.861711813192
0.867870251397
1.00000003182
1.00000367031
1.00000438631
0.867697563925
0.87292142037
0.870199914657
0.873597759174
0.999999899978
1.00000253754
1.00000200863
0.874857751562
0.873629156841
0.874906742975
0.874954380978
0.999992210363
0.999998412923
0.99999424602
0.873757482929
0.867010016633
0.873051081749
0.86231338159
0.999985600759
0.999991753612
0.999989853497
0.86277573188
0.855255316901
0.860020015502
0.85785484561
0.999992048746
0.999991794482
0.999998040138
0.860681120201
0.858318546495
0.863577199702
0.860790723406
1.00000091218
1.00000006972
1.00000229087
0.94166166286
0.933254095617
0.942388985741
0.937355889385
0.999998949697
1.00000108446
0.999999753114
0.927767581453
0.899446183783
0.93021908351
0.893400523276
0.999994328048
0.999997595575
0.999991736862
0.887720452553
0.861587163231
0.880501052351
0.860155185327
1.00000038398
0.999999572793
0.999998790346
0.85955494484
0.861261010611
0.86075751875
0.865449783493
0.999998296022
1.00000388077
1.00000278115
0.863390602211
0.868816588935
0.867708066355
0.873004756554
0.999996596945
1.00000225278
1.00000215714
0.871121853906
0.873845754745
0.87467044716
0.87701372989
0.999996766586
0.999999649555
0.999999669065
0.874923325092
0.875353660602
0.877807665784
0.87324846919
0.999992180719
0.999997235772
0.999993131436
0.872371866693
0.861333443201
0.86928039302
0.858792917657
0.999991067962
0.999991204687
0.999991626854
0.859496527039
0.859027146706
0.857975792492
0.860634905817
0.999998712658
0.999997765918
1
0.86514197092
0.861137303401
0.865989986609
0.86097424326
0.941902348828
0.93746512222
0.999998606229
0.99999702956
0.929931022824
0.890949126729
0.885924865888
0.999995152262
0.999994329377
0.999991169003
0.878274876818
0.860234161389
0.874758992551
0.858248758582
0.999998477562
0.999995637648
0.999997649773
0.860868207002
0.865509278137
0.857693724293
0.862976757466
0.999998946652
1.00000149914
1.00000186331
0.867673084206
0.873573497502
0.86538660661
0.873673165363
0.999998740476
1.00000208816
1.00000296023
0.875475138402
0.878195969124
0.875689855865
0.876624976008
0.999998226149
1
0.99999943917
0.878366912302
0.872888516021
0.875177459579
0.868383148102
0.999993032051
0.99999786924
0.999993649245
0.869114944483
0.859631055731
0.866294371073
0.861566553088
0.999989530002
0.999991680738
0.999991613412
0.859252293624
0.861128336208
0.861838562707
0.861911124894
0.999996440323
0.999995365953
0.999999361653
0.866064753761
0.860271885811
0.865795310342
0.858687599001
0.999991262116
0.999990970777
0.856735164415
0.86228728003
0.858767011132
0.99999441997
0.99999373671
0.999997395512
0.864756600004
0.872733355977
0.861556758575
0.868820322969
0.999997041241
0.999998773031
0.999998370032
0.874674124656
0.874455388757
0.870389741541
0.868450908896
0.999995113781
0.99999795479
0.999997398896
0.873847521693
0.867426359295
0.866226111835
0.861694345162
0.9999906044
0.999996619759
0.999993120072
0.865592104375
0.861066658629
0.860187029119
0.857836472834
0.999990136428
0.999993124594
0.99999423545
0.861504609414
0.860601849639
0.85885243249
0.859677493982
0.999996184763
0.999999749207
1.00000031452
0.864461751959
0.858795004597
0.863947114667
0.857576553484
0.999995420627
0.859389001821
0.999988332974
0.857960749926
0.856697321642
0.999992670471
0.858027514328
0.859596813031
1
0.8640345395
0.857706446421
0.000418158036195
0.000528827978663
0.00041913632165
0.000576740706763
0.0382857538584
0.0382803777589
0.00040222746566
0.000276938324159
0.000397256686749
0.000336950224744
0.0459822631654
0.0423915479198
0.0456856872298
0.000422374119418
0.000652242597373
0.000484901432252
0.000690828392297
0.0504435258127
0.0478191181823
0.0492516192713
0.000886438604603
0.00102910679202
0.000805619013901
0.000847480029451
0.0540200534716
0.0519197744826
0.0535399664781
0.00117584174709
0.000466083633219
0.000651290517491
0.000351662446707
0.0556621503224
0.0550250412738
0.0551327839334
7.19049907348e-05
3.15446195477e-05
0.000182606697242
8.46079354331e-05
0.0555891602373
0.0546952510057
0.0554310561333
1.27459961535e-05
1.82048381001e-05
1.71206605449e-05
1.8704670194e-05
0.0574955947302
0.0561336873216
0.0573857993105
5.08242433769e-05
0.000358423627161
2.61891823795e-05
0.000313511609655
0.060440756418
0.0586212467937
0.059397422382
0.000482026544533
0.000494408895778
0.00044630773426
0.000461160666375
0.0600564519985
0.0584097286353
0.0616340903726
0.000563540937794
0.00133110496062
0.000506400375814
0.000760157220632
0.0301927768971
0.0280281581572
0.0303593218477
0.000271191857212
0.000557725723682
0.000128581237517
0.000456088878431
0.03856324232
0.034598627147
0.0389615054647
0.000454985186951
0.000484357663138
0.00046111842639
0.000547652245479
0.0453558170707
0.0426439225946
0.0450181130028
0.000734174531627
0.00082861339812
0.000763347470675
0.000815863481637
0.0484188107243
0.0460430956664
0.0480918474925
0.000608352706594
0.000505823627354
0.000555220915967
0.00043198923268
0.0538799461425
0.0508074253403
0.0536419252441
0.000257030365692
0.000129600497006
0.000202511500175
9.64524175454e-05
0.0550176324185
0.0544130971279
0.0548819543817
0.000262256371143
0.000254786364196
0.000165123893125
0.000186462742655
0.0554997080204
0.0543044201241
0.0553630267427
0.000112260706018
4.33040962645e-05
0.00028151065798
0.000195179684985
0.0572084752093
0.0560946725054
0.0570898730531
5.90271548241e-05
0.00031720251927
0.000247758925957
0.000381205372555
0.0585277404151
0.0574704110748
0.0575753466727
0.000417970324073
0.000412005148553
0.000401079830388
0.000366375876797
0.06093817645
0.056350148619
0.0601588711717
0.000358380607811
0.000560967685862
0.000259102466105
0.000585628956405
0.0305030568917
0.0278261297019
0.0310182477601
6.62444140979e-05
0.000355562956661
3.23886045593e-05
0.000224410498761
0.039765620494
0.0361638690296
0.0408704372589
0.000406026669218
0.000546775764499
0.00040530207805
0.000593049807618
0.0449819263405
0.0439438992259
0.0452899149812
0.000645833500523
0.000670883784832
0.000684390358018
0.000669044193332
0.0480703376116
0.0462554630811
0.0481915319202
0.000520782273767
0.000385980012007
0.000497343391229
0.000387821650968
0.0529518446454
0.0496823187447
0.0519592562252
0.000170264698418
7.25312537001e-05
0.0001932303566
8.86875005695e-05
0.0544553283532
0.0526867948204
0.0535843217544
5.43420379009e-05
4.06474426165e-05
6.57120672532e-05
4.54704287271e-05
0.054527776267
0.0534305456727
0.05394782153
0.000170866673461
0.000383949554545
0.000154554313421
0.000477603299647
0.0568447254071
0.0555524591234
0.0567819488765
0.000356219370963
0.000455379920587
0.000423056323579
0.000509842585196
0.0572498258536
0.0571517531349
0.057030861243
0.000425387086386
0.000353897374617
0.000450203176677
0.000335868243614
0.0600332244986
0.0562046269847
0.0598493759882
0.000218206343648
0.000464995472922
0.000234611482116
0.000444775482461
0.0421657976873
0.0433296221857
0.000426581195909
0.000627718011161
0.000643096737809
0.0463056538651
0.0462050030473
0.0477025720711
0.000677015828937
0.000631442602976
0.00068591600903
0.000653033169303
0.048828509805
0.0487756202351
0.0503580692359
0.00046951325672
0.000372041018373
0.00051547401603
0.000440648584055
0.0517298658801
0.0516265015423
0.0525545546997
0.000210462603362
0.000104861746718
0.000275097063598
0.000149076390475
0.0529075347598
0.0529130618576
0.0533529224623
7.8212494859e-05
5.33121495984e-05
0.000128287259179
0.000153346215793
0.0538156026685
0.053621400049
0.0542770708487
0.000254762478946
0.000617248931736
0.000439716426826
0.000795599446284
0.0567731785948
0.0559524691593
0.0569741189734
0.000458380557412
0.000512986561306
0.000501839916489
0.000520701766527
0.0567058112204
0.056948485948
0.0567663920385
0.000446259928313
0.000334941070638
0.00045007118329
0.000380564999935
0.0596135158474
0.0559887852493
0.0587473234918
0.000258990478778
0.000400875271115
0.000358349738969
0.000451636031559
0.0519966055977
0.053723061118
0.000791232254921
0.000727740698556
0.00103756576579
0.00100031350538
0.0539782334474
0.0543560279629
0.0552796639523
0.000564672074019
0.000406042068887
0.00087552931738
0.000820044752699
0.0543011248809
0.0544745216745
0.0547018687439
0.000430569345701
0.00052726400483
0.00107872515153
0.00120101880596
0.0553751618306
0.0556652602718
0.0569141204143
0.000960765674803
0.0007344083323
0.000967302758137
0.000679520732859
0.0576653346567
0.0581653744924
0.0586203803243
0.000485365825198
0.000489869576876
0.000525292499512
0.000518073314003
0.0569356142844
0.0576445739307
0.0571501720158
0.000438403701982
0.000383130874879
0.000454479079786
0.000396937660677
0.0578048691887
0.0558138555984
0.0569215990987
0.000429028567429
0.000661806070086
0.000481268196008
0.00109823431266
0.0584930631118
0.000510330014665
0.0594041906224
0.000578244674155
0.000570014586586
0.000597970373069
0.000584486790303
0.0575255415062
0.000481199563386
0.00042343824358
0.000489133580718
0.000438534621657
0.0564506158189
0.0005625846034
0.00144356436953
0.000626420867347
0.00161180315066
0.999920046156
0.999894175837
0.905778825403
0.903615325738
0.999898864668
0.907287589999
0.999940921361
0.999900826427
0.999764496217
0.903390179699
0.908720730627
0.999856157953
0.999852008609
0.907928971211
0.999592223538
0.999775949299
0.885636742809
0.895949109852
0.999786120699
0.885752491136
0.999542637156
0.999337227819
0.998991995619
0.873211727121
0.862188654016
0.999029899367
0.873721778234
0.999275549611
0.999523368472
0.999671829013
0.895759840424
0.884679765923
0.999733404006
0.999473336497
0.885731387769
0.999277770605
0.998962205064
0.862917729277
0.87344997419
0.999005146027
0.999221628365
0.874087006714
0.998489413759
0.998686959681
0.842333199536
0.852404027888
0.998704008565
0.843630860801
0.998434478766
0.998159220395
0.998070616323
0.844169773405
0.847830112383
0.998150092581
0.845565600787
0.99809380979
0.998595365365
0.998728984531
0.854090386858
0.848302230666
0.998750247495
0.998632760268
0.845902372746
0.998325617979
0.9983490592
0.850788567651
0.850310566815
0.998281842969
0.99839493318
0.848117856683
0.998318157685
0.998115224164
0.852805279546
0.850599143576
0.998194584303
0.854667789074
0.99823431843
0.99846964059
0.998714326533
0.858055843099
0.865395760458
0.998718364127
0.859578764396
0.998436569716
0.99835787076
0.998362883234
0.853067969263
0.857421978977
0.9983018167
0.998410736607
0.856004650305
0.99849631687
0.998686352755
0.865822522507
0.861049994335
0.998735716008
0.998504332183
0.860175005032
0.998991382384
0.998939877974
0.867989889551
0.868242339683
0.998944809862
0.869374532137
0.99895127163
0.998987661961
0.998929756308
0.869836034569
0.872671085208
0.998978237969
0.87065693719
0.998933838278
0.99902954894
0.998919961744
0.868483658763
0.869561171805
0.998956748703
0.999054407586
0.86942187417
0.999055878783
0.99908949607
0.872526108407
0.870969781578
0.999081534693
0.99907435385
0.87058853682
0.998960011002
0.998930558054
0.874902688962
0.874505261279
0.998982545119
0.874997641927
0.998905694363
0.998869906489
0.998548429961
0.875441765715
0.875482980709
0.998649409279
0.874982411729
0.998777923144
0.99910032071
0.999106931799
0.874619257202
0.874894219009
0.999110995919
0.999103360193
0.874808972096
0.999028356962
0.998848246076
0.874744465719
0.874572239305
0.998836240574
0.9990384948
0.874722984592
0.998410647636
0.998452797087
0.877209965755
0.876305782003
0.998467800478
0.876137543934
0.998451676406
0.998392206948
0.998424922923
0.874331197342
0.869140034432
0.998358997053
0.873598452612
0.998451480214
0.998386910425
0.998572952731
0.875414884261
0.874086998076
0.998568067083
0.998363222902
0.87580442204
0.998299334625
0.99804942842
0.868459576198
0.871723479821
0.998207676354
0.998206785139
0.873047438456
0.99838040041
0.998426586498
0.860775701154
0.864782650421
0.998360500208
0.860905033856
0.998477066937
0.998481334973
0.998680720929
0.860316766573
0.860472286429
0.998598904938
0.860216124262
0.998603061876
0.998121294266
0.997873876172
0.864230241592
0.86007632991
0.998107798443
0.997872740063
0.860647638478
0.998177472863
0.997992049736
0.857212073883
0.857270607906
0.998214986312
0.997913263204
0.857976085229
0.998295849972
0.998666695916
0.863588721249
0.865683535958
0.998583595075
0.862814470288
0.998383754796
0.997110988832
0.997468469179
0.835279534225
0.850072176695
0.835539623749
0.997501177319
0.99703115209
0.997689887646
0.997925866329
0.861848551425
0.859060039181
0.998117074757
0.997560575344
0.859298280546
0.996425048207
0.997020826675
0.853023562633
0.834188822547
0.996419165267
0.832598608585
0.997015544235
0.999786364921
0.999760192303
0.935529296995
0.938662641856
0.999789318467
0.936076847193
0.999744697838
0.999788396632
0.999800921508
0.931804647923
0.930020425248
0.999805387745
0.999789705589
0.933366052582
0.999743059811
0.999758671476
0.939044776299
0.937908940086
0.99976579679
0.936699125695
0.999731769369
0.999754495893
0.999758984716
0.931092624747
0.935481519194
0.999757268591
0.999770795372
0.934200290543
0.999674116187
0.999775520338
0.916706991728
0.92468083044
0.999713900364
0.999762885366
0.918151146442
0.999571271856
0.999498455092
0.908957880221
0.901762684857
0.999623267312
0.99943460111
0.910341301125
0.999610623635
0.999721335411
0.925966659436
0.920882445971
0.999714064513
0.999645522465
0.919455703516
0.999479923066
0.999359119061
0.901701330098
0.911587280188
0.999324868927
0.999531050317
0.911009512464
0.999056264535
0.999383076113
0.883568275414
0.891582417963
0.99918405278
0.99925905035
0.881422606973
0.998854877431
0.998693452716
0.873650525181
0.863683855384
0.99893498429
0.998637904255
0.872119015821
0.998974811961
0.999185658761
0.891156853462
0.8790578959
0.999157973912
0.998980081023
0.880655564974
0.99880512087
0.998654568148
0.863631428717
0.870205851804
0.998644401187
0.998798338173
0.87167193835
0.998453338641
0.998483034604
0.851456921338
0.858214135275
0.998461667531
0.998479643808
0.853070443998
0.998394910555
0.998329978708
0.85319121363
0.856915385026
0.998377731111
0.998345676336
0.854589223112
0.998538023337
0.998533912333
0.859388419018
0.85668928753
0.998521007619
0.998569502409
0.855347331003
0.998520138533
0.998582944227
0.858623394921
0.857506745761
0.998522788341
0.998567976378
0.856300398596
0.998336621213
0.998315564621
0.858271539024
0.858259191868
0.998331966001
0.998331247194
0.859610400534
0.998372371125
0.998509558314
0.861035582714
0.865651964388
0.998373611353
0.998456703819
0.861643895871
0.998539619645
0.998627513887
0.860173857011
0.863375165294
0.998545343324
0.998641473765
0.861474430679
0.998525021758
0.99857018355
0.866471726667
0.865036767127
0.998535603206
0.998596663323
0.863143025681
0.99872206095
0.998715568903
0.869264021014
0.868464261168
0.998840291367
0.998600260547
0.869828529658
0.998774087156
0.998884022949
0.870856441773
0.872870565464
0.998868625252
0.998789097796
0.871032754137
0.998657418374
0.998584138971
0.868997750382
0.871607666625
0.998587552616
0.998637510827
0.870118714505
0.998675886421
0.998652933091
0.872576605124
0.8725063834
0.998675712054
0.998650070437
0.871052390169
0.998824878965
0.998900430839
0.874863351651
0.874990580664
0.99890091039
0.998826373372
0.875219011283
0.998802178834
0.998720508262
0.874406581019
0.874073920868
0.998854401565
0.998736713909
0.874866934658
0.998737124067
0.998673666518
0.87459433874
0.876049333162
0.998694993854
0.998751097646
0.875478654401
0.998744476632
0.9988082498
0.874231218158
0.875880065153
0.998736367542
0.998795964854
0.875111266541
0.998363331648
0.99856414965
0.874035227079
0.874098778456
0.998352887661