/*--------------------------------*- C++ -*----------------------------------*\
| =========                 |                                                 |
| \\      /  F ield         | OpenFOAM: The Open Source CFD Toolbox           |
|  \\    /   O peration     | Version:  v1906                                 |
|   \\  /    A nd           | Web:      www.OpenFOAM.com                      |
|    \\/     M anipulation  |                                                 |
\*---------------------------------------------------------------------------*/
FoamFile
{
    version     2.0;
    format      ascii;
    class       volScalarField;
    location    "8.05";
    object      p_rgh;
}
// * * * * * * * * * * * * * * * * * * * * * * * * * * * * * * * * * * * * * //

dimensions      [1 -1 -2 0 0 0 0];


internalField   nonuniform List<scalar> 
28582
(
19545.0480275
19543.8915263
19544.1995229
19543.5300947
19541.4241095
19542.9118004
19535.2783325
19540.4753069
1154.88550941
1253.99202166
0.499087788464
19537.6307234
16847.424584
16951.6143558
19543.2015146
19544.3505402
16996.64834
19521.1149634
19521.8161384
19546.6955592
19543.6730717
19543.856092
19545.7222654
19543.7783778
19543.9067139
19542.2045689
19543.9577015
19538.8472339
19544.6172244
1257.0563663
0.543340767841
-0.282423787794
19534.5524969
19535.1562491
17236.6106574
16906.0238909
19499.4260238
19544.9463799
19545.4419966
19545.5793797
19523.16044
17081.7440134
19523.656939
19527.2607815
1201.46378086
1259.00225033
8.49536145693
15.0356095463
1231.32075521
24.928788911
19501.7321654
19505.9383806
16881.3514466
16848.6144774
19504.3522561
16892.377801
19503.6211248
19508.2478935
19509.1697596
16914.7094511
16958.1729908
19511.0972961
16928.5944488
19506.460559
19516.1770561
19511.785813
17050.2414714
16998.8606236
19513.4469756
17055.5947497
19514.8139272
19520.7108071
17111.8879419
17110.0233826
19518.6263804
17081.2755645
17086.8239732
19517.9078006
19522.7369594
17106.7235832
17136.9359584
19520.2317434
17109.3586243
19521.0028024
17087.1164199
1096.88739057
25.0325926989
1033.76301664
1077.59788736
19.8653514593
20.9695916061
1262.08306536
3.28043838577
8.00871782726
1255.41134603
5.45660594277
1252.7475731
9.28905443952
19501.7020687
19511.9590793
17052.0979608
17222.6163071
19502.7596046
19510.2011695
17053.5899756
19496.2221883
19495.5205727
16955.0118177
16880.0366074
19497.0615337
19493.9699532
16947.642582
16913.3236697
16839.7173093
19498.1625564
19497.980832
16853.7443484
19496.2673839
16929.3674325
19522.865703
17119.6039119
17121.6986333
19524.7017589
17126.9199833
19524.8006909
17127.3275766
19526.3879577
19525.5097541
17113.1329838
17077.7885628
19526.4336005
19525.760849
17114.0230233
19526.1478923
19524.6981679
17122.0673047
17152.4700595
17164.4044308
19525.5714211
17142.5857793
17173.977744
17154.7129461
19526.5686085
19526.7063893
17100.0903518
19525.7441572
17131.5276392
19543.5180098
19544.427218
1265.05686403
-0.209771476451
19534.3972275
16847.0741201
19544.8386395
19543.1124569
17049.958125
17106.4887095
16898.7845904
19541.5936713
19540.7566704
16841.5911841
16814.8605642
1136.79244244
1269.89156417
1303.10833696
11.6447679003
10.0487719409
12.63124257
1326.06484458
1324.61307642
19498.4661707
19497.9499985
16866.3990477
16864.2213506
19496.0114902
16887.4561644
19499.8499132
19522.4302176
19524.0887122
17024.7914849
17044.3702453
19522.2311519
19524.6120143
17013.3970324
19520.3496461
19524.9607712
17059.1972675
17042.4004037
19523.958885
17009.7330169
19521.3797257
19515.3269445
19509.3063142
16901.5291558
16971.5991855
19509.3999195
16955.3599404
19516.032989
19497.2726514
19502.4278558
16862.8331565
16797.6496141
19502.9280181
16831.253485
19496.7059844
19495.58161
19495.7031938
16849.9754899
16800.5308204
19495.695458
16836.3361117
19495.2154448
19571.2382849
19567.610752
19566.723861
19564.9802269
574.42217773
609.456223554
528.165061696
559.718063594
557.873816302
-0.144815884975
0.179643054672
-0.116981283926
-0.0894617983439
-0.0572616153702
-0.0709296428675
19572.845895
19572.1580142
18599.9613125
18586.9004163
19573.5372846
18577.5192489
19570.4530064
19568.9260762
18579.387851
18591.0040142
19571.5595546
19569.1704651
19569.1532354
18571.2653765
18546.7306859
18591.6337914
18588.3186441
19568.4237216
19567.1016368
18537.7183313
18485.695827
18575.2506738
18508.5849887
19567.3562873
19566.2534743
18601.6853365
18592.0261334
18579.2140351
19565.6594069
19565.7222916
19565.015266
18574.8572207
18529.4426246
18564.0677237
18522.6452485
18557.9527101
18513.5362944
556.353059301
557.457966194
585.580859803
1.1917957801
0.743320589033
1.10428474205
0.753709243155
1.25992078251
4.81918543266
1.32047659024
4.39003652532
554.401150049
540.816563458
596.588643895
554.103165956
564.030478549
1.0143424439
0.645750837899
0.616232780669
0.290359424276
612.837524975
576.889316585
591.562556175
0.821069011805
1.58485665834
0.306327074395
0.575843530736
539.992280251
533.039059997
0.424775063146
0.226686042916
0.234029154844
579.724542031
554.181138151
578.884005191
0.212601107043
0.290887103134
0.220322880157
0.271490249577
19570.233257
19570.9968764
18614.3261611
18595.0007791
19570.6918913
18607.8876028
19570.2707299
19570.0583297
19570.1102604
18593.9779138
18603.7086593
19570.4566426
19569.6315071
18607.6929856
19570.6564496
19570.3421724
18582.4790632
18573.7841376
19570.7088098
19570.0068995
18573.6858189
19568.2755846
19569.3641636
18595.1201311
18583.5436767
19569.0136438
19568.4965548
18589.226639
19567.2751398
19566.7038715
18581.2381411
18595.1161802
19567.4492195
19566.8816671
18580.7013336
19568.4688379
19569.3955009
18563.8031825
18577.9679636
19568.9986508
19568.6618703
18569.0008056
19567.8194163
19567.2902888
18555.325405
18553.0223065
19568.0955671
19566.5913201
18560.7257245
19567.7054956
19566.9048661
18582.4894269
18592.8455781
19567.6251952
19567.0281202
18581.1483967
19567.1991382
19567.1348278
18569.9840121
18592.7821132
19566.5081184
19567.2068709
18576.8248482
19564.872608
19567.0041356
18527.6836672
18542.3008527
19566.5304236
19565.4121589
18530.3991754
19563.9592578
19564.3307977
18510.2420916
18482.3317239
19565.8000706
18511.3817276
19562.8770614
19564.7060502
19566.3673292
18558.4893892
18557.8448665
19565.7296418
19565.2855254
18543.7367513
19563.8496212
19562.8728615
18493.2450633
18539.2399604
19563.8231207
18523.5255826
19562.5931222
19565.4574027
19566.1430648
18602.3149323
18621.0403943
19566.1969372
19565.6093472
18618.3525817
19565.4577029
19566.2796271
18600.7035176
18590.4575299
19566.3793892
19565.5113553
18607.0332141
19565.3157837
19564.4626005
18585.2869626
18595.8438907
19565.0933688
19564.7244831
18602.3951147
19565.1739718
19565.8602493
18556.3059656
18573.1983462
19565.2440179
19565.398913
18556.4393719
19565.0422387
19564.0278677
18541.3584278
18533.744707
19564.5648257
18542.3326234
19564.9038455
19564.7750857
19564.4048852
18568.4388098
18549.6100982
19564.8279976
19564.4774151
18552.6118273
19564.7515417
19564.8064757
18528.3765163
18536.3296662
19564.5723811
18538.8669723
19564.9170702
19563.6339066
19563.8659578
18543.6288804
18542.6834457
19563.9576442
19563.5623616
18527.2665068
19564.4458061
18528.275604
19564.1230907
19543.7281528
19542.6066816
19542.8483042
19543.9455169
19544.1395789
19551.0191095
19542.7152835
19542.1563125
19542.9701198
19543.6288873
19543.3952863
19550.2462872
19536.5125952
19538.4940022
19534.8804081
19540.7255024
19546.059823
19550.1511043
19555.8610083
19545.0455577
19538.2834694
19539.369126
19540.1180759
19542.3725056
19544.7502952
19545.6493128
19545.4706294
19552.8576362
19542.5709222
19539.7912586
19540.1160586
19541.9666042
19543.9122019
19544.7513674
19545.1216562
19553.5533867
19545.2866831
19542.144701
19541.6987921
19542.8638565
19544.1329034
19544.4919974
19544.5594276
19552.8324721
19543.5944659
19543.9620426
19544.1278065
19551.7000815
19533.7989632
19535.135523
19537.0307271
19541.1435988
19545.4434998
19550.0832283
19568.9885853
19500.8189678
19537.3590206
19537.6211779
19541.3765652
19544.1871794
19545.442903
19544.6225619
19541.3674292
19533.9728021
19541.0413205
19538.9762714
19540.1048211
19542.2347116
19543.8260009
19543.7985043
19541.9488795
19547.5832782
19544.1476333
19541.1983397
19541.4506488
19543.2296111
19544.4642703
19544.0385812
19542.9083567
19550.3648666
19543.7767139
19543.6380647
19543.1346758
19550.4683062
19530.8707023
19531.4194594
19535.1183262
19541.1387083
19546.2634803
19550.3135649
19561.7987753
19488.4266617
19534.9838191
19534.8518746
19535.079403
19540.9008071
19544.5096936
19543.1026483
19534.4556148
19523.5275299
19538.1363844
19534.853268
19538.1689014
19541.9112375
19543.8331832
19542.8045119
19537.8571433
19544.0724448
19549.76684
19540.8545464
19537.3231254
19539.6364
19542.680732
19543.8441419
19542.6230227
19539.1852989
19546.9753845
19539.2767585
19540.9684119
19543.1012218
19543.554535
19542.3856533
19540.1167565
19548.5595521
19541.8723776
19540.1902448
19548.5194077
19534.0449671
19525.9373863
19530.0509548
19541.5285181
19548.0011359
19551.9035074
19554.0608268
19554.7628083
19547.2170226
19535.5569725
19527.5012501
19531.0024702
19540.731841
19546.5466862
19547.5627704
19542.916263
19534.4739466
19563.7116649
19554.2054734
19537.3964024
19529.3873381
19534.1178072
19541.739584
19546.0560398
19545.3837217
19541.6556696
19542.3289164
19555.6912993
19538.9378053
19531.6475113
19536.4040026
19543.4927973
19546.2609217
19544.5232705
19541.757747
19544.452389
19533.6119663
19538.0599817
19544.2403139
19545.3464031
19543.6212213
19541.9638218
19543.7980743
19542.252245
19541.255293
19543.3256615
938.475519496
1078.92597744
1165.14619292
1227.90218113
1215.07088394
1232.1022316
1306.86305039
1327.53503697
621.407098845
755.785966488
936.973569798
1032.23655527
1132.86932999
1208.74906291
1201.53412901
1234.80073502
1278.98659419
1258.5497596
611.137040194
775.782342445
951.436101381
1011.22417535
1105.14524915
1181.0474427
1190.15593546
1228.35226548
1262.15221671
1237.74040849
826.67636624
993.708951066
1040.10010223
1104.11247287
1151.29619141
1172.94104839
1223.63893832
1255.41303032
1235.00670471
1107.92096803
1169.26546804
1187.12616839
1185.57002105
1251.92217919
1260.98463494
1231.75599397
1308.11926454
1281.13853659
1232.14320594
0.500112982995
0.0899909483029
0.403718872964
0.431428499075
0.393492415845
-0.0665579012529
-0.227867081162
-0.105445769138
-0.182712554281
0.963369595812
0.50095607256
0.35065516308
0.790900798738
-0.124628335509
-0.339033817748
0.206446795875
0.0986656851999
-0.108344803583
-0.174340055969
0.604820529514
0.209435799435
0.403904614512
0.331908189901
-0.0431483400257
-0.241930766597
-0.168791662125
0.406179051161
-0.0399319845339
-0.197954029796
0.341559628364
0.363290772055
-0.0604845353118
-0.208894094699
-0.281940382569
-0.0861916421595
0.675620359517
-0.10377949115
-0.214345539643
0.310920449172
0.324873178501
0.310723193182
1.21877721004
0.431585208581
-0.138491940294
-0.190383286595
0.729398736226
-0.117658480744
-0.230917569092
1.30743387025
19537.633298
19536.6574403
19537.8465024
19535.6085191
19536.8244382
19536.241174
19537.0422951
19538.9802539
19538.9933024
19539.7139974
19537.6585683
19534.1520694
19537.4651144
19536.3864283
19538.5180515
19540.4894429
19539.5780465
19537.9073872
19538.3837392
19539.9159145
19539.3385763
19539.7686165
19539.6978882
19540.1608697
19538.8024889
19538.535995
19539.7014713
19540.4648273
19534.8179189
19535.0885099
19535.5248893
19531.6895716
19532.8477278
19533.1538299
19534.0573138
19535.4923254
19535.4662153
19536.6387198
19533.1808571
19533.551019
19534.1480549
19534.1818601
19537.3826549
19539.1477335
19538.7074325
19535.6382959
19536.325537
19538.0890331
19537.3533007
19537.6329983
19538.8011677
19542.0627694
19536.4343088
19533.0983639
19536.780974
19539.587634
19531.4603678
19532.8012219
19533.0380974
19531.775743
19530.3640153
19533.7291785
19531.9070518
19531.5375514
19532.7297721
19533.1336016
19529.374928
19529.2483881
19530.3024368
19531.5318885
19535.0540225
19537.3770744
19535.9741786
19535.2620149
19533.2109951
19536.8751431
19534.049091
19531.638032
19534.9785363
19536.8880533
19531.8570309
19531.04187
19532.4038469
19534.1879984
19536.9819893
19539.748705
17765.347139
17759.7840268
19529.5160809
19535.5027241
19530.3388791
17630.6157909
16970.2052965
17607.9814938
17000.4201704
19525.5993926
19526.8032156
19526.6272068
16779.0350307
16687.0464502
16848.2373647
16812.8209709
19536.2673642
19530.3573335
19536.0933102
16740.6342341
17038.3847425
16855.9529016
17080.7890318
19545.1580096
19541.3378204
19544.8968578
17093.041178
17206.5194045
17128.6800035
17220.4770537
19550.0329352
19547.6685064
19549.3484453
17239.9150666
17286.8206879
17256.8699585
17240.9336594
19552.9384483
19550.3850714
19550.5241664
17308.4195164
17157.7928196
17242.1924712
17130.3515255
19553.0297446
19548.3984455
19542.137288
17077.2989391
16996.8653175
17048.769296
16901.5908924
19509.8328172
19529.4577112
19525.0872608
17108.2193852
16728.7977099
16991.8348608
16870.5001645
19563.7332405
19557.991006
18442.1067895
18239.2939523
18470.1063304
18327.9820615
19541.0593478
19551.3707276
19543.6767368
18147.3853197
17737.750834
18233.028547
17727.7543073
19530.7142539
19536.2973986
19530.5846499
17574.9452385
17010.6718179
17510.2206078
16983.5484157
19527.3995803
19528.2829506
19529.1864387
16883.0900533
16859.3516408
16918.8015678
16950.1063634
19536.0332388
19533.465315
19538.0691935
16887.5161018
17066.4361242
16989.0293799
17117.8632314
19544.0900279
19541.9293642
19544.5075337
17117.1609685
17219.5372909
17164.221943
17232.1158264
19547.5552843
19546.4484757
19547.0090348
17256.6720445
17235.2321511
17257.2753644
17260.039807
19546.0433925
19546.3783145
19544.5124147
17238.5773852
17110.7500423
17223.9538833
17018.507385
19539.266256
19542.0769635
19539.6264568
17029.4792925
16883.8209794
16974.1677046
16931.4094225
19544.510183
19537.6967229
19552.4082195
16986.6851527
16927.6937684
17040.746577
16974.8109467
19560.0634171
19563.8283102
19561.1302169
18497.654802
18343.4408363
18512.4015991
18425.3473538
19545.796312
19555.4847491
19546.9112719
18241.8195182
17704.2279408
18292.4214164
17590.2117314
19531.3936951
19538.3559986
19532.3001737
17479.2293641
16976.3651136
17341.7842948
16949.6468351
19530.3599725
19530.5494307
19531.6698996
16936.4131675
16977.0708675
16961.5442296
17058.8944582
19538.4093306
19535.5055329
19539.6605479
17021.2026823
17135.5810387
17104.5503008
17214.0864745
19544.3287612
19542.8917793
19545.0723885
17181.3415476
17236.5667683
17247.5146354
17295.9249175
19546.4247168
19546.3012003
19546.2377938
17257.3687911
17267.1195151
17311.6583498
17225.0758607
19543.4194402
19544.9755031
19543.1807001
17210.4209273
16999.0385069
17149.7039508
16949.7526338
19541.0239077
19541.678189
19541.8374616
16963.4751101
16953.7251896
16933.8616533
16984.4748096
19555.7502269
19544.0929125
19556.0902102
17070.8914641
16981.1771572
17087.5046779
16977.714522
18503.6511563
18428.7622134
19547.1383313
19546.5984577
18288.2594499
17543.8430253
17449.7097186
19533.330868
19538.94092
19533.9433511
17299.6794569
16952.1008048
17234.7576619
16918.2219179
19532.9765349
19532.5907827
19534.0171781
16964.7076025
17060.937361
16908.4031147
17016.5944571
19540.3861649
19537.3370326
19541.1544002
17104.663327
17225.0102205
17065.0669503
17229.357003
19545.5094545
19544.0590854
19545.6755773
17262.8759391
17318.3044682
17269.2238899
17289.0029154
19545.7765569
19545.9450232
19545.2757353
17322.125709
17217.8900151
17261.2697796
17132.2650229
19542.942942
19544.1387432
19542.8920269
17146.2187314
16965.7887751
17093.0988338
17003.7549345
19542.2322836
19542.0401996
19542.4420781
16958.3323993
16993.8352226
17008.6797969
17008.7860478
19555.4553152
19544.2215696
19554.3569884
17088.6990061
16964.0084401
17082.9243257
16931.2442947
19534.8920273
19536.0599035
16891.3959316
17004.9588082
16942.5804832
19541.705656
19539.1338591
19542.3428065
17054.5542243
17212.8138151
16998.1175467
17142.0468247
19545.3289462
19544.2894273
19544.9391122
17250.9334916
17248.0481575
17172.3572776
17135.0063141
19544.715651
19544.796732
19544.1186995
17235.9552785
17114.633556
17092.5169048
17007.5384402
19542.5975013
19543.1149311
19542.1255796
17080.2459746
16994.8036146
16979.3070405
16934.4708113
19542.3465662
19541.7497383
19542.2233512
17002.7154667
16983.8769354
16952.8969065
16966.464541
19553.212205
19543.6163786
19552.3065831
17057.2708698
16932.2283953
17047.2072534
16906.0352524
19543.4478314
16964.2481077
19541.3632242
16937.3515414
16912.9416684
19541.9123021
16937.3509583
16965.2279185
19551.5618376
17049.3037303
16908.2763786
9.90653173267
12.5359014954
9.93839957718
13.6511922981
843.726348599
843.696008816
9.67962781298
6.78951993044
9.56795343301
8.19209307349
1013.72899502
934.392152383
1007.20229399
10.264685536
15.6312562092
11.7681194649
16.564480511
1111.98829048
1054.37762723
1085.79855123
21.00849991
24.2724052526
19.1660723071
20.0885458785
1190.71754332
1144.22811588
1179.88343351
27.6862485409
11.1700464781
15.4904963668
8.52952076222
1225.81992162
1212.0786334
1214.24525535
1.93801539965
0.933743035219
4.57289583411
2.22140866279
1224.07833696
1204.4676101
1220.55726759
0.503490380639
0.662299698426
0.6515829019
0.691922354886
1266.76759168
1236.19495456
1264.23260961
1.47704017695
8.66299683095
0.918692172794
7.62269311166
1331.8336095
1291.80767724
1308.88503761
11.6169667623
11.887601077
10.7884238207
11.1098775055
1325.14792326
1287.03580921
1358.54436269
13.397544019
31.2520221616
12.0401797821
17.955793493
666.123961732
617.617880976
669.552173254
6.45266740913
13.1708756747
3.12281256008
10.8045767
850.081926769
762.756931103
858.932655198
10.837859078
11.559089573
10.9839813858
13.0474404714
999.951302392
940.187138672
992.54750068
17.4523476236
19.611826655
18.1052769978
19.2928744519
1067.09003722
1015.02413943
1059.77944926
14.5475820979
12.1352367556
13.3123709793
10.4071687572
1186.74356806
1119.15606057
1181.54512843
6.28418421123
3.33256136895
4.98013817306
2.49469072405
1212.03619655
1198.61316844
1208.86013284
6.37503352789
6.1790206076
4.05811822459
4.5548950335
1222.12208331
1196.38889474
1219.3451359
2.86811137536
1.26638500501
6.80267157666
4.82042118782
1260.30680252
1235.63898853
1257.83775402
1.69258813384
7.73446649432
6.10529556745
9.25594592174
1289.63557798
1266.39215497
1268.56980406
10.1285965336
9.95163947802
9.74599216225
8.88677096707
1342.86852487
1241.2635155
1325.81710125
8.58383050949
13.3320689019
6.27803624737
13.9150436862
672.6002502
613.124841919
683.807168538
1.68709092615
8.51421600003
0.905727166687
5.47317911101
876.755798432
797.331621938
901.179391584
9.79108515458
13.1384421009
9.80976026551
14.2537084627
991.789302628
968.98749527
998.694774718
15.5178508555
16.0912768554
16.4786177721
16.1123467033
1059.20444189
1019.66292997
1061.94042116
12.5620195386
9.3459678097
12.0304252562
9.39916593234
1166.21907235
1094.49380326
1144.44263177
4.25588233488
1.94068122709
4.79644172829
2.3005246438
1199.14423211
1160.50794865
1180.04652439
1.49843923541
1.17081117428
1.72189011745
1.23910491359
1201.42500476
1176.9198777
1188.8469165
4.19851751504
9.24220184071
3.79267310502
11.4393385109
1252.63600236
1224.10594732
1251.32410849
8.68936958861
11.0198031416
10.2657157847
12.3060839191
1261.31695387
1259.3465391
1256.4172541
10.3278501563
8.60320973781
10.909864958
8.18941494232
1322.7831216
1237.93239646
1318.70447955
5.338022969
11.1153860529
5.73160587956
10.6533857664
929.650177134
955.336122181
10.3206351593
15.0754441986
15.4270959905
1020.94028061
1018.63267283
1051.6251319
16.295375574
15.2111725037
16.4895927566
15.6951520903
1075.99999799
1075.07535451
1109.73212766
11.3702382097
9.03182794159
12.4337362437
10.6281842006
1139.51452379
1137.29739893
1157.67712784
5.20382495569
2.68581943261
6.72561242103
3.76283681697
1165.33188323
1165.67689703
1175.27788645
2.03002017316
1.45477885789
3.26125835073
3.87193253346
1186.26594422
1181.66133107
1196.73919279
6.17687555845
14.719906348
10.5504174555
18.9000790639
1251.18061435
1233.07396861
1255.65496273
11.119966691
12.3971513077
12.1503771656
12.5990392583
1249.29120418
1254.94060626
1250.72018045
10.825899179
8.17577483227
10.9206316489
9.23973928514
1313.43600419
1233.36103646
1294.42895534
6.31204660213
9.64094680529
8.62949251268
10.8367839904
1146.06069167
1184.099795
18.7636575165
17.2540604035
24.4380722554
23.5831042984
1189.45375721
1198.39179345
1218.75405586
13.4452159468
9.74900737191
20.7226120924
19.4259058743
1196.73421244
1201.75734536
1206.83522611
10.2983010493
12.5845908994
25.4161975076
28.2704984478
1220.86502055
1227.58080787
1254.69663678
22.8056992376
17.5535556824
22.9373537876
16.2968010925
1270.86505848
1281.85069726
1291.94022761
11.8086746988
11.902606597
12.7617260775
12.5805204814
1254.48203404
1270.31294133
1259.23574129
10.6593434419
9.30964981537
11.0428389318
9.63962685325
1274.15781842
1229.8582537
1255.44490967
10.2781351436
15.7505332276
11.4962216645
25.8920293016
1289.00163452
12.3864431989
1309.26010298
14.0055445032
13.8045202157
14.4538556353
14.1373488266
1267.58491654
11.6691697096
10.2612044276
11.8548361926
10.6205648207
1245.86833769
13.3762214273
33.8963542145
14.864488747
37.7933940986
19543.4214796
19540.3251468
17820.0583662
17781.6379611
19540.860293
17848.8160128
19542.9226832
19543.9391771
19539.3903217
17777.4165975
17877.1110183
19540.576946
19544.0487535
17861.5027432
19526.3217841
19534.5128631
17441.1971408
17637.4296292
19534.9384934
17443.2761338
19525.2424276
19515.9289506
19503.391665
17202.7129272
16991.1360205
19504.5183612
17212.4083048
19514.5243297
19525.4013084
19533.3472989
17633.5586454
17422.1030493
19534.3333326
19524.5819395
17442.6787007
19515.1916326
19504.0673244
17004.7061473
17206.79877
19504.4814007
19514.4730533
17219.2613764
19490.1679319
19493.7717718
16610.4216299
16802.8128766
19494.6115374
16634.9174416
19488.5597331
19486.5435608
19486.2772853
16646.989902
16720.4362422
19488.2116283
16673.2502976
19484.8203773
19492.8401553
19496.3246892
16834.4172619
16723.2196149
19496.0902007
19494.3858257
16677.7614094
19489.8285827
19493.3270463
16776.5251266
16763.211075
19491.3270684
19491.8385469
16721.5543932
19499.5941495
19490.8713336
16824.5906764
16777.7133357
19492.7785394
16859.4281231
19497.7728192
19507.2889018
19516.2470829
16928.5044327
17071.1146244
19516.5661294
16956.8613024
19506.4918507
19500.7051075
19497.1083336
16824.5051895
16911.0814826
19495.3640412
19502.1119659
16884.4463014
19507.9484798
19516.1922223
17078.8706517
16984.2232453
19516.9584903
19508.3684208
16967.8115385
19527.5403219
19523.9267004
17125.7104681
17128.3726477
19524.160782
17151.3540099
19526.8664347
19529.3031943
19530.2676402
17161.561926
17215.3148618
19530.8419466
17176.4256516
19528.5545831
19528.0802822
19523.6920324
17132.4855733
17154.1191977
19524.3730932
19528.3869566
17151.7354184
19530.3106424
19532.5119598
17212.1249643
17181.7198523
19532.4699579
19530.5527517
17174.6157164
19532.8793794
19531.7200433
17259.242056
17250.5572519
19532.371745
17260.3920243
19532.2467914
19532.0705669
19527.4538728
17270.4085146
17271.5345233
19528.8828443
17260.991763
19530.8514372
19535.0443917
19534.1911758
17252.3135568
17257.5203771
19534.4483069
19534.8620355
17256.1880726
19534.4637076
19531.4397744
17256.9508954
17252.2244338
19531.7145574
19534.293061
17255.4284137
19524.840987
19526.0681104
17306.4886341
17288.2167782
19525.9814271
17285.7262164
19525.9146452
19524.2213111
19524.9915305
17252.4918254
17153.5550081
19523.083244
17238.1713536
19525.7708738
19523.944879
19526.8077736
17270.7947403
17245.9991164
19527.2739471
19522.8302
17279.0040552
19521.9265531
19515.0316205
17139.8902654
17201.4600512
19519.2522992
19519.3476853
17227.1026562
19521.7039403
19524.6647865
16995.52769
17070.4572047
19522.3198551
16996.811717
19525.0742312
19522.6850742
19526.3978892
16987.5958593
16989.2077933
19522.3079023
16984.0627358
19527.0006034
19514.6249574
19510.051437
17059.0950282
16978.5315629
19515.9955707
19507.9148713
16990.6947294
19513.7551907
19505.2701707
16924.5693822
16924.2998864
19511.492748
19506.4617369
16939.4434953
19506.2542574
19521.4510977
17057.1748707
17089.5522372
19517.3644368
17038.4431829
19510.1759811
19474.8659593
19488.7328969
16527.3732311
16760.129602
16525.218987
19494.8997583
19475.9928542
19492.4529995
19500.4298751
17012.8206828
16960.825068
19505.347321
19489.4675099
16967.4558526
19460.8625312
19496.3233264
16823.1577802
16494.8787065
19460.9144422
16466.0662094
19491.9036917
19560.2094353
19562.1671
18381.3118736
18440.8444992
19559.6309197
18391.9040039
19561.6457479
19557.7451571
19553.4048901
18310.9425767
18279.2412874
19556.4544067
19555.3703124
18341.4029407
19559.7534489
19561.7134979
18447.7240849
18427.1085014
19560.7575804
18403.8687804
19561.0442473
19558.2766323
19557.8868216
18300.6161162
18382.7430576
19556.4464296
19559.616619
18357.8983716
19547.1821593
19550.1535565
18028.4287277
18179.8907724
19545.9780408
19552.1294982
18057.307982
19541.1465419
19534.711223
17882.3971097
17746.9131463
19540.8519141
19533.9011484
17909.8725579
19547.8192258
19554.8337092
18205.4597211
18111.3779811
19553.1651907
19549.8146609
18083.311392
19540.7101635
19533.175873
17746.227496
17935.2320418
19532.3802299
19542.4869423
17923.4791748
19516.486068
19528.0111209
17400.4020173
17553.0358321
19519.2072661
19525.6293703
17359.2064572
19507.7557033
19499.5873078
17210.1905597
17017.9859007
19509.4600104
19498.8090352
17180.5741677
19514.4523575
19523.6857464
17544.8580175
17312.9303963
19523.641052
19513.7694765
17344.1308071
19506.3116247
19498.9068522
17016.3090178
17142.5804395
19498.8473105
19505.4713826
17171.3256498
19493.2066221
19492.6128456
16783.2547561
16911.940446
19492.3279882
19493.3923714
16814.0784307
19493.9099549
19493.8729065
16818.1024548
16893.0235782
19492.7278562
19495.1816004
16844.9981354
19495.6775297
19495.5265374
16933.7890982
16883.1824276
19494.7664967
19496.9191795
16857.446118
19496.7023605
19501.3976437
16925.8798267
16901.4889899
19499.3653392
19498.1261102
16877.9681769
19502.1307418
19496.9528292
16927.1295391
16922.8180218
19501.1692191
19498.2410762
16952.6451404
19506.9525056
19513.0342635
16984.0450217
17075.615656
19506.3167766
19512.4791282
16995.69732
19506.8063197
19505.6524846
16959.4847075
17024.611194
19503.1309761
19509.6624572
16988.3445621
19510.6436321
19515.8869705
17091.3009872
17060.669121
19514.5593824
19512.8508171
17024.5602973
19522.5841718
19519.9095576
17148.3736188
17131.7059391
19524.5223614
19518.0991724
17159.0918389
19525.368985
19528.826126
17179.6545416
17218.5758245
19526.9567343
19527.0880235
17182.9878446
19521.6671995
19518.6704322
17141.6174148
17192.4453416
19518.2259703
19521.7341011
17164.3614903
19523.7387234
19524.813735
17212.7870621
17210.7655027
19525.0657881
19523.6148373
17183.2136689
19529.652452
19530.3776142
17256.9622414
17259.1761606
19531.0543321
19528.9577731
17263.7635575
19529.6745063
19528.6593321
17249.0818078
17243.4943921
19530.7246104
19528.6123687
17257.8868208
19528.1009178
19526.179332
17251.4564868
17279.5701396
19526.5750648
19528.2564892
17268.764111
19528.5205302
19529.0392539
17246.6490976
17277.2280556
19528.2161394
19529.2058096
17262.7631917
19521.028093
19525.8941312
17244.486563
17244.6695828
19521.7561006
19525.7001346
17226.2514635
19515.6502361
19508.7565695
17195.3524512
17087.4195788
19516.3676233
19508.6319014
17162.1175921
19523.4843932
19527.3031912
17221.8594368
17163.0471003
19526.5821385
19523.6966753
17186.4169831
19519.4163792
19513.953983
17061.0572986
17086.7141988
19513.7829242
19519.2817484
17125.6426178
19495.0805264
19501.4295489
16956.9249059
17017.3343483
19496.3813705
19501.1554808
16953.7461142
19492.1833325
19493.9090321
16894.7995662
16892.3634908
19494.3530171
19491.7154322
16897.8741459
19501.8931804
19508.374439
17006.7677807
16938.1699054
19507.4692741
19503.5831349
16955.4263917
19498.6961355
19500.6715484
16925.0237214
16917.0483362
19498.2808055
19501.2206501
16918.5879247
19483.5380588
19491.3615806
16978.7022063
16996.1122953
19484.3646161
19489.8377052
16994.6564582
19465.3794836
19501.8040297
16537.4506627
16945.7760841
19464.8620233
16567.9701762
19503.702312
19490.5467383
19498.9290795
17025.1931211
17037.7180737
19496.6230952
19492.7106985
17021.0521328
19473.8744418
19512.112745
16958.6114196
16606.8995488
19477.1710639
16586.6682778
19509.7402151
19564.185072
19563.4417294
18453.4532388
18515.0686038
19562.6814504
18482.3153113
19564.5331207
19563.3127258
19560.333349
18400.8945262
18370.7175741
19561.7576028
19562.0294531
18431.9975547
19565.3535737
19565.2378477
18520.086931
18505.9004923
19565.874776
18508.6415643
19565.4242514
19564.7678992
19564.3143052
18401.4458385
18479.9745814
19563.2319396
19565.6605867
18468.0873266
19553.0121765
19557.2597858
18111.6144867
18259.3684747
19551.8159888
19558.7764092
18114.5085778
19544.6319524
19533.4551312
17925.5740898
17679.5182657
19543.6622399
19533.870168
17914.3670338
19553.0214839
19560.5298426
18269.9406251
18109.2105865
19559.4056515
19553.658126
18104.5189318
19544.1866161
19532.0381557
17640.891448
17858.4545096
19533.0844069
19543.8757663
17885.6749394
19511.9545725
19523.2591136
17271.4969344
17433.7077831
19512.9749849
19522.4966234
17216.7513077
19504.7409541
19500.5585776
17111.8103133
16965.9116236
19505.2151786
19500.9511305
17073.9333359
19511.1085525
19520.7122826
17391.7513537
17131.8381331
19521.7406736
19509.9577418
17172.5109094
19503.8982175
19501.9183431
16964.9932328
17023.6366218
19500.6839262
19503.9222224
17049.3068755
19502.2891339
19498.8521379
16915.5359207
16938.0241931
19500.6650821
19500.7659214
16939.5823067
19504.9427509
19505.687207
16931.7817195
17011.9108553
19502.3941037
19508.1297447
16959.2629545
19503.4470143
19502.4005526
16958.8894762
16986.8088061
19501.2791304
19504.6039646
16973.0611728
19507.0173235
19512.1854507
17038.0637693
17017.046547
19511.0526959
19508.2090341
16994.6317041
19515.3317343