/*--------------------------------*- C++ -*----------------------------------*\
| =========                 |                                                 |
| \\      /  F ield         | OpenFOAM: The Open Source CFD Toolbox           |
|  \\    /   O peration     | Version:  v1906                                 |
|   \\  /    A nd           | Web:      www.OpenFOAM.com                      |
|    \\/     M anipulation  |                                                 |
\*---------------------------------------------------------------------------*/
FoamFile
{
    version     2.0;
    format      ascii;
    class       surfaceScalarField;
    location    "10";
    object      alphaPhi0.water;
}
// * * * * * * * * * * * * * * * * * * * * * * * * * * * * * * * * * * * * * //

dimensions      [0 3 -1 0 0 0 0];
oriented        oriented;


internalField   nonuniform List<scalar> 
92311
(
0.203948172848
-5.49077166958e-05
-0.0011626730153
-0.203758130292
0.00102728709128
-9.25483203796e-05
0.204065200399
-0.000806142200689
0.000780749327283
0.203926061368
-7.47289656228e-05
-0.00119766889641
-0.203769460474
0.00106056320271
-0.000216087820914
0.20410409783
-0.000742424202846
0.000687643613841
0.203870433281
-6.87351108901e-05
-0.000117854412905
-0.00103246785389
-0.203539710518
0.00102166501854
-7.73487248998e-05
-0.000130658068581
-0.000128279439449
-0.000128454475876
-0.000202269175963
0.204240316171
-0.000495362254091
0.000521158229862
-0.000152701993101
0.0510387682861
-1.1384585945e-05
-2.46651761654e-05
-1.2728251977e-05
-2.24679536556e-05
-0.000287774775817
-0.0510390997274
0.00029073615176
-0.0510976337736
0.0511888198566
-5.10192765999e-05
-4.33608708904e-05
-4.35951956036e-05
-4.45772490331e-05
-0.000147565656108
0.000110750842645
-7.34266631275e-06
0.000232780731016
8.05937279537e-07
3.35826113053e-07
2.14673205459e-06
-0.00020900338025
-0.000260270050929
-1.96951968945e-07
0.000254989959229
-0.000675345448354
0.000453931041486
2.67592227235e-06
0.000344127746784
4.33467415072e-06
7.50132936929e-06
6.53169663484e-06
8.28350587306e-06
-0.000199576523345
-2.99324142618e-27
4.08931976186e-08
1.19849305952e-08
1.76461301762e-08
-2.41424568907e-07
3.38092513257e-07
8.34989377343e-08
4.65344150006e-08
-3.32658447857e-05
-4.74229113012e-05
-4.90076703745e-05
-3.08806319773e-05
-0.000207560524264
0.000191536301464
-2.01401537574e-06
0.0104341320203
-2.81734470155e-05
2.16254718161e-05
-0.0104397400266
0.0103583723087
-8.74449814399e-06
5.05798897998e-05
-0.0103956599097
1.4801709645e-05
-1.33171677094e-05
3.10461698111e-05
-3.45012927777e-05
0.0512435381128
-2.82957124377e-05
-4.08552788255e-05
-3.77386717088e-05
-7.27381296352e-05
-5.69826065871e-05
0.0511690226173
-7.08364414221e-05
-6.38514344412e-05
-6.7891145848e-05
-0.051101849763
2.12086290911e-05
-1.14474821099e-05
5.331493249e-05
0.0103260547998
2.31825053926e-05
-2.43039640278e-05
-1.90691730258e-05
0.012791060359
1.09193770295e-05
-2.46808327823e-05
-0.012792123945
0.0127841655228
-3.69376597267e-05
-4.21463642567e-05
-0.0127802128406
-4.61147829416e-05
0.204231401565
-0.00199196820633
0.00176766391948
-0.203961009101
0.204133176304
-3.94558651761e-05
-0.00030915681626
0.000281369515399
-4.33258251083e-05
0.204240358959
-0.000162690952571
9.94981407745e-05
7.15955130108e-05
0.204260381248
-0.0020425166898
0.00177642622128
-0.20411214965
0.204258492922
-0.000107862823239
-0.000404110681194
0.000318535133252
-2.37357827414e-05
0.204351245702
-0.000189344048621
7.75665369777e-05
7.96202245023e-05
7.35837569807e-05
6.02344929534e-05
-0.00191105899603
0.20415397153
0.00166562459242
-0.204125235984
7.49209536255e-05
-6.84139418664e-05
-6.32574929045e-05
-0.000136775567044
-0.000114139963628
0.20452246661
-0.000152356114953
0.000145008642028
0.0511798610312
2.51550301934e-05
2.94670588854e-05
2.49816848565e-05
2.86886654741e-05
-0.000504079359834
-0.0511768481163
0.000472272335544
0.051251097655
-1.62739784351e-05
-2.62911111297e-05
-1.37752972184e-05
-1.09625620084e-05
4.28471603066e-06
-1.29060025624e-05
0.000395800745471
1.47456195915e-06
-0.000829514665889
2.11459925716e-06
6.33084404749e-06
-5.77147170694e-07
4.32056370174e-06
-0.000287043646596
0
0
0
1.30673964403e-29
-5.97917103114e-31
0
0
0
0
1.0651277251e-09
0
2.48601537241e-09
1.07102521291e-28
0
-3.55114309751e-09
0.000386043254358
2.55315365121e-05
1.47529159275e-05
2.48558043119e-05
1.77849925273e-05
0.0512045509952
-0.000420162185434
1.96746232298e-05
1.28193773927e-05
2.15995186336e-05
1.31055204867e-05
0.0511243141471
0.000358840026837
-0.051104031018
4.96581304193e-05
-2.39421555714e-05
0.0103797745631
2.76318068057e-05
-5.72154943573e-05
-0.0103962902302
3.30122276438e-05
-9.78233157482e-06
-0.0103465668105
2.9839123564e-05
-5.69218115545e-05
0.0103300009953
1.72747749086e-05
0.0127577679927
-9.06374676395e-05
9.24882660657e-05
-0.0127571747501
-4.58306965194e-05
-3.49421336139e-06
9.1952149141e-06
6.09090178595e-06
2.66512017276e-06
0.0512210098785
-1.82587008848e-06
0.0512222456045
-4.62030733042e-05
-4.95380165653e-05
-5.83611477141e-05
-3.12301903859e-05
-2.08992168215e-05
-4.25015385481e-05
-3.24239585799e-05
-2.10345134055e-05
-1.16681049096e-05
0.0512094800007
-3.95269198105e-05
-2.70532435566e-05
1.7042045263e-05
-1.51462299661e-05
0.0127905692292
-2.50947460954e-06
-3.03021571994e-05
-0.0102339691234
6.34936078081e-05
0.0102347283602
-3.42989336796e-05
-4.38322603935e-05
-3.26204797472e-05
0.0127883138757
-0.012787156679
-4.497662448e-05
0.0127851121966
3.46865543909e-05
-2.89528913764e-05
2.11116200659e-05
5.73783448257e-06
9.66063337544e-06
6.63379482778e-06
-0.000177692785297
0.000352266203127
1.24686250169e-06
6.13028874266e-06
9.80170624714e-06
1.56882160693e-05
1.61096848862e-05
1.17080180099e-05
-0.000271194564379
0.000579295212335
2.47744992985e-06
-2.1532962348e-06
-7.44922782118e-06
7.52338400905e-06
3.84834197918e-06
5.94406180196e-06
-5.13208374809e-06
-2.78615180922e-07
3.2644657783e-06
9.91567466875e-06
1.22834322117e-05
1.17099560807e-05
-0.0001601774434
0.000436070217855
-4.03581824314e-07
4.90703045683e-06
3.57991791186e-06
6.86320394939e-05
0.0127488441782
-7.49861298839e-05
-0.0127558675586
-0.0127381517766
-2.48785065638e-05
-5.95698500855e-05
0.0127372014277
6.09951382899e-05
-1.2833516332e-05
1.62220606559e-05
0.0104147847243
1.20000915731e-05
3.57055260377e-06
0.010470845359
-0.0104762734556
-3.1706409036e-05
-0.0127473139103
6.88359848044e-05
0.0104479431198
-1.28619439321e-05
0.012748027184
-6.48340343294e-05
0.0127383951958
-3.22335651324e-05
-4.4702144456e-05
4.27867956419e-05
3.03625522992e-05
-0.012749105339
0.0127614517453
-3.95009395247e-05
-1.16727297733e-07
2.45385153281e-05
3.91138618649e-07
5.66069472273e-05
-0.0104291362228
0.0103938486483
1.7174264784e-05
0.0127496659927
2.68862682485e-05
9.52829069467e-07
-5.19234555294e-05
-0.0127692515251
-5.92520032557e-05
-4.55903887009e-06
0.0127842245417
-1.85140220926e-06
2.03619478095e-05
0.0127809481621
-2.97809592127e-05
3.28667329534e-05
4.54601694322e-05
0.0103013393796
-3.32206383341e-05
5.95646150734e-05
0.0103639086665
2.20832627393e-05
1.68344352248e-05
0.01032845337
3.46943987516e-05
0.0127935183104
-1.56733938296e-05
-9.92039307279e-06
-0.0127974840135
0.012794211577
-3.60810496976e-06
4.33431263763e-05
-0.0102776570028
0.010256913734
-2.90979105986e-05
-0.0102928634452
5.89538161218e-05
0.0102663703044
-4.35762905988e-05
7.81017965134e-06
-1.2277464482e-05
4.08568985357e-05
2.91165511724e-05
-3.12692143156e-05
5.00989644403e-05
-4.17159043388e-06
-7.79736788977e-05
-0.01276571273
0.0127753315453
-3.8310224796e-05
6.62900982971e-05
-0.0103055675427
0.0102822790214
-0.0103361313377
0.0103048913995
7.08370469803e-05
-2.2648132641e-05
-6.19808945077e-05
-0.0127711680062
8.27273187596e-05
-5.63020224219e-05
-0.0103732629567
5.85253419142e-05
-0.0127489412852
-2.3909170342e-05
-0.010345674741
-5.2315364729e-07
-0.000141769318719
-2.43938713654e-05
-2.19387284951e-05
-3.15423636106e-05
-3.4983536061e-05
0.000210247284586
-8.91163995889e-05
0.000199229978477
-8.56607659452e-07
-1.11809174744e-07
1.58328540058e-06
-2.64734853144e-08
-8.51543237488e-05
-6.27905789749e-07
-4.38936109973e-05
-4.84421117046e-05
-4.4426753502e-05
-6.23369399609e-05
0.000130496064214
0.000297119338284
-6.1623811942e-07
-3.75337315296e-05
-3.72145658464e-05
-4.06052438128e-05
4.27852203669e-07
1.62893020019e-05
1.6318748818e-08
-4.75942404676e-07
1.6114216542e-07
7.35031696312e-07
-4.83243330614e-07
-5.98698500272e-08
4.90967858939e-06
-0.000440282092857
6.11354067425e-06
1.23929909773e-05
1.12357395903e-05
4.25412825101e-06
0.000447389447997
-1.36302289036e-07
-6.42658412238e-06
1.12647468477e-07
-4.5381688343e-06
5.36468402417e-07
2.48678201119e-06
-0.000198152348246
8.75760683482e-06
7.27560744977e-06
2.14697970484e-06
2.06205912649e-06
-0.000494437037086
0.000186409601511
7.71254711404e-07
-4.41569691727e-06
-9.37556208713e-07
3.28868390008e-07
1.31193735549e-06
3.30555317948e-06
3.41411094745e-06
-0.000850046832517
-0.000203982300315
-3.39255658173e-06
1.07324549622e-06
-0.000101141575424
-0.0127656504414
1.78219355363e-05
0.0127677078824
0.000104803100348
0.0127754028372
0.00010809515701
-0.000105370079179
-0.0127739692864
-1.65259434108e-05
2.96550566866e-05
0.0103608890313
-6.07240399238e-05
-2.47814440199e-05
0.0104005698236
-0.0104174041205
9.16837918635e-07
0.0127797711384
-9.84888057283e-05
-0.0127650003336
0.000109672107821
0.0103786892025
1.75678470273e-06
-8.97367151352e-05
0.0127687419058
1.92244514244e-05
9.34989156e-05
-0.0127823324129
8.38183320148e-05
-7.87559125468e-05
0.0127813655406
-1.74701033057e-05
3.17639214632e-05
-6.03164252629e-05
-1.15072164549e-05
-0.0103644031983
2.26999804455e-06
0.0103467251524
-8.64454527148e-05
8.96510606438e-05
0.0127681612663
2.01918231143e-06
0.0104208899706
1.74198449947e-05
-3.25443339299e-05
-0.0104264528907
-1.01242566268e-05
1.69215463117e-05
0.0104093642077
-2.9890490857e-05
-8.65096781532e-05
0.0127579352768
8.89530373341e-05
0.0127642091499
2.3244128884e-05
-0.0127638263846
-1.54877079009e-05
-0.0103872829917
0.0103756437217
0.0127641659618
-0.010398441943
7.73303493741e-06
0.0127884593563
1.74008697186e-06
5.38640186018e-05
0.010236497059
-3.33487164811e-05
0.0102469231889
7.43399437815e-05
1.91804114971e-05
5.20356574576e-06
0.0127849401309
-2.91295293978e-05
-3.31121766069e-05
5.70837437146e-05
0.0102301672617
-2.96040141969e-05
0.0127768783067
2.20364073526e-06
0.0102378636987
8.35322628588e-05
1.38595211776e-05
0.0127728886616
2.10832242089e-05
-2.61665405011e-05
-0.0127650001058
-5.4245414361e-06
0.012760724999
-1.16332325568e-05
-3.5909152573e-05
6.18527688618e-05
-3.46012868089e-05
-2.74642594502e-05
-0.0102294418016
9.7550881848e-05
0.0102215807215
-4.19692453455e-06
-2.24019354032e-05
0.0127649208307
9.38225381086e-05
-0.0127865345093
-5.18729371718e-05
4.32919163633e-05
-4.00384225006e-05
-6.79793235108e-05
-4.37555552662e-05
7.80634924469e-05
0.0102696887767
0.01027949077
8.29989395186e-05
-8.98952168008e-05
0.0102638120745
9.6479505812e-05
-1.37647034509e-05
0.0127861361274
0.0102651236997
0.0102447891394
-0.000100606798469
0.000108214187778
2.72632548186e-05
-0.000107859312163
0.0102331274395
0.000116461461839
2.80699156872e-05
0.0127756558665
-2.29843423126e-05
0.0127788978292
-4.38643189733e-06
-1.93014210022e-06
-0.0102580757748
0.0102521176332
0.0127709858177
-5.10024972241e-05
-7.84609738046e-05
-4.23821924957e-05
1.90156426614e-06
0.204678878913
-4.22426010845e-05
3.19734513686e-05
-6.6390668849e-05
6.7214280089e-07
6.9728322833e-06
2.53698714544e-06
1.26660055757e-06
1.74073013312e-05
0.0512074810767
7.01874769237e-06
-1.89922248836e-05
3.06336808729e-07
8.49405647075e-06
5.1200439792e-06
5.72990076714e-06
-8.39580017838e-05
-0.000778245232428
0
0
0
-2.22055317606e-28
-4.19405877526e-29
0
-6.82897508982e-30
-6.93323704807e-06
6.11166497646e-06
6.63455462854e-06
-7.44369295673e-06
1.43173614341e-05
-0.000303911700084
0.0511278171868
1.54756397394e-05
-7.25682856367e-06
9.54803095164e-06
0.0104014681142
0.0511939684496
-1.30614352865e-05
-3.08574922204e-05
-1.24114737573e-05
-2.23773839827e-05
-5.06312766966e-05
0.0511623251535
-1.0603074948e-05
-1.19866779548e-05
-7.50761200421e-06
-1.89789247888e-05
8.24951198841e-05
-4.4161317171e-05
-2.32030526364e-05
0.0102253423769
6.03961035168e-05
-2.25214085642e-05
-3.94636659221e-06
2.35875118668e-05
-0.000111869218152
0.0102156879299
0.000118514907193
0.0101683755998
-3.42316511182e-06
1.16788291818e-05
-8.28361953294e-05
-0.0101776034807
9.27050671791e-05
0.051128906388
-9.63728898571e-06
-1.07293541441e-05
-7.00501211542e-06
-1.29410792289e-05
3.5616836259e-05
9.97220837617e-05
-6.16471384456e-05
-1.26980387693e-05
-2.26058676985e-05
-1.74688213766e-05
-1.69675777802e-05
4.71964020086e-05
0.000130100381927
0.0511079616699
-8.66523365455e-05
-5.03881615404e-06
9.38055324343e-06
-6.31310778524e-05
0.0101647540553
7.36202707371e-05
-9.02354719178e-06
3.26345539268e-05
-8.48975144238e-08
-0.0101558498519
0.0101492879385
9.30824959672e-06
-2.35401132931e-05
-1.01263536427e-05
-1.93519196446e-05
-7.22700643242e-05
0.000191554761068
-5.18934936103e-07
-0.000527731865201
2.92777307859e-06
3.21311222638e-06
3.83558047414e-06
4.97311259751e-06
-6.12028015709e-05
3.45501209724e-06
-0.0005056664342
6.61977509807e-06
4.08351568519e-06
6.83399965761e-06
0.000119333625979
-0.000228844357215
-5.1012094072e-07
1.20210801652e-06
-2.14429357071e-06
-2.10783133288e-06
-6.63194395792e-07
7.09245097266e-07
-4.86333551666e-07
-1.01423845539e-07
-0.000509241048448
7.18635019313e-06
6.1054339858e-06
7.89159077165e-06
0.000121700852286
4.12337744351e-06
-0.000212491465775
7.28661411156e-06
8.19133038231e-06
6.763904713e-06
7.37825831095e-06
5.21309010268e-06
-0.000538038848946
-8.81351665097e-05
-0.01276198449
3.68638301739e-08
6.32113504158e-05
-6.77905902448e-05
0.012759513
-7.24828922929e-05
0.0127541139937
-1.15577082228e-05
0.0103645649099
-6.00533429582e-06
5.20230363964e-06
6.0710226753e-06
0.0103792212283
-7.5484072154e-05
-5.3328270502e-06
0.010338441122
0.012751047295
-8.14636563166e-07
-0.0127597928963
2.0569721259e-05
-1.3454018229e-05
0.0127534521663
0.0127598147404
2.71208315941e-07
-1.60514925979e-05
-2.12255426623e-05
5.43576847985e-05
-9.12562924768e-06
0.0102087783532
-2.3007866428e-05
0.0102097850158
9.71202741202e-05
-1.35650839261e-05
0.0127530623901
-1.66854336101e-05
9.15591592348e-05
0.0101998035835
-0.0127617336257
-9.25750855747e-06
-7.91878634037e-06
0.0127519962823
1.78203537978e-05
0.0127618886496
-1.08294675528e-05
2.14159692651e-06
0.0102411870256
-0.00010909419414
1.89918916956e-05
0.0101954499602
0.00011758344812
0.0102245478982
0.0127518796396
-1.23373504524e-06
0.0127456714784
-1.28520200014e-05
-6.24281020628e-06
1.42271640035e-05
7.45330737288e-06
-0.0127427736284
0.0127329364161
1.80437858316e-06
8.88262997304e-06
-0.0102034121533
0.0101844192324
-5.74563325239e-05
-9.99971254956e-05
1.84218926393e-05
0.000108321132452
0.0127383868592
1.53406311189e-05
-7.78062755432e-05
2.07161767812e-06
-0.0127305391653
-1.1902533203e-05
-1.74182602145e-05
0.0127259238419
2.40667086294e-05
1.17101968294e-05
0.0127243504801
-4.65105389544e-06
7.05897050736e-06
0.0101717958549
-3.89011675502e-05
-4.07971663379e-05
1.55858441551e-05
0.0101592935984
5.22170359125e-05
1.87914767417e-05
0.0101593191321
-1.94915831362e-05
0.0127193362757
-9.68418553446e-06
0.0127237915444
-1.59982608904e-05
-2.43136256491e-05
2.998134406e-05
3.16207959821e-05
-0.0127170399035
0.0127197641662
-2.32861099845e-05
2.31997833928e-05
-0.0101474921706
1.29213148435e-05
0.0101323708248
-1.78054590397e-05
2.21479727345e-05
2.9073025974e-05
3.54355201433e-05
0.0127263062427
-2.1683555346e-06
-1.63795343921e-05
-0.000466139650305
-0.0491592597096
0.0492121663603
0.000626242146025
-0.000172000416641
-0.000138029843641
-0.000157750466689
-0.000141351064172
0.000396571262269
-0.000712677715135
0.0499881144587
-0.000264834949139
-0.000207195489257
-0.000252152160713
-0.000216052477976
0.000591048556581
-0.0496902381043
0.000763987881235
-0.00126741070675
-0.0504439112725
0.0509810322688
0.00115704134738
-0.000255886949676
-0.00025468815742
-0.000273117509747
-0.000249154619826
0.000606411351306
-0.000999992362726
-0.000171528059277
-0.000181052775632
-0.000176711695342
-0.000179916018736
0.000491243925081
0.0511467671909
0.000825041648758
-0.0507537981094
3.63340386604e-06
-1.9468689288e-05
-0.000161625273794
-3.43148684783e-05
-5.95549252077e-05
7.39163892264e-06
7.31820460505e-06
5.5651773911e-06
1.18804934446e-05
4.32366706744e-05
0.00038409384014
-0.000879359663242
0.000185205640061
6.93021673448e-06
6.47955153338e-05
5.21060611962e-05
7.22317580327e-05
-2.47705535904e-05
1.96936408771e-05
9.56487388188e-05
-0.000667982902
4.40734758128e-06
2.83584326104e-05
2.41262035035e-05
3.22281005538e-05
0.000430433147861
-8.22006147356e-05
3.8331475693e-05
-0.000269886445107
0.000927081378413
-0.00107301424936
0.000159454966373
4.83473715267e-06
4.35430390081e-05
3.37054170115e-05
3.66975110623e-05
2.5877247454e-05
-1.10778017292e-05
2.59306408937e-05
2.62101238859e-05
2.54026579595e-05
-0.00106647772421
-0.000102828017376
2.91806049359e-06
0.00102960401388
2.88953588007e-07
-2.47639267566e-08
-1.34468568133e-07
-5.27893989482e-07
-1.66890920034e-07
-6.41441108282e-07
3.6310842854e-09
-5.16654748037e-11
-5.54053523661e-07
-1.55009667312e-06
-3.57420424134e-06
-1.55962212607e-06
-3.04660829529e-06
2.61599570016e-06
1.40652214559e-06
7.6665521386e-07
-1.32961242207e-07
-3.04352222078e-07
-7.94817291155e-07
-5.50876063262e-07
-9.12469835429e-07
-2.34808528906e-08
-3.15757955884e-07
-5.80757651983e-07
-1.5032345735e-06
-5.14221476533e-07
-9.25996334275e-07
3.76475135494e-06
9.25464508612e-07
-3.41737607384e-07
-4.43504453295e-07
-3.43497131817e-07
-2.3655809306e-07
-9.97160752556e-08
-3.16923049852e-07
8.33157716702e-08
1.33254358624e-08
1.55640611498e-07
4.47950065574e-08
1.56596054094e-06
-8.66586808387e-08
0.000117184071129
-4.63954224456e-05
-5.79001891872e-05
-5.35174672305e-05
-5.02588185649e-05
0.048931828781
0.000252719961215
2.60861509211e-05
-0.0491196084102
0.048926568703
0.000286409932271
-4.99823703353e-05
-6.19247048393e-05
-5.80820268054e-05
-5.36069274751e-05
0.000249108484885
-0.0491212207506
1.23630789523e-06
5.05772674937e-05
-0.0115875700647
3.65400921341e-05
0.0115374443174
-3.6766418564e-05
0.0115468013868
4.99464435409e-05
-3.6094429107e-07
5.75855771324e-05
-4.72665863589e-05
-0.0116029554338
-0.000121087442641
-0.000106972736824
-0.000100230363453
-0.000121582832505
-0.000239677486799
0.0122457987896
0.0121755505482
0.0122082523848
0.0122076077067
0.000312808602896
4.00476870577e-05
-1.07637752831e-06
9.96854529352e-05
-4.14633905461e-05
0.0114624172126
0.000428509336997
-8.08026735506e-05
-8.65635764379e-05
-7.50858997644e-05
-9.37324743384e-05
0.000292460718346
-0.0492576856659
0.049436062052
-0.000106512659762
-0.000139612167229
-0.000121647005537
-0.00012063088225
0.000338761036823
-0.0493824515412
0.000524387827396
0.0115371612628
-8.03572372271e-07
8.05309446525e-05
-0.0116031752569
4.35278716674e-05
0.0114504923928
-8.53769950175e-06
0.000175867873855
-2.16023520764e-05
-0.0115539285445
8.93132725983e-06
0.000994858757679
-0.000201396140967
-0.000256251934844
-0.000193799751182
-0.000278863783392
0.0494678119081
-0.000204643735818
-0.000175541040804
-0.000210321447072
-0.000182989328144
0.000104338287297
0.000110257223497
0.000129361521163
0.000109793353664
0.0496002708357
-0.000211622558388
-0.000183620864987
-0.000177062983321
-0.000235269231707
0.000557336974002
0.0500851960266
0.00102148616816
-0.000229417658006
-0.000313822631584
-0.000302114897968
-0.000244569925419
0.000579105771416
0.00012844246172
0.0114435231597
3.39700562686e-05
0.0109766573057
-3.13027471315e-05
0.000365720870892
-0.0111707863759
4.99289949065e-05
-4.31703825212e-05
1.76152914794e-05
-1.6973548101e-05
0.000230930424581
-1.79745923933e-05
0.0113274758012
0.0107865239667
0.000106792348863
-4.92616354051e-05
0.000412400354281
-8.5608033071e-05
-0.0109955232906
0.0506832533605
-0.000318455072862
-0.000284946557899
-0.000274669119111
-0.00031162792624
-0.00132547253207
0.000650322975904
0.00150372245977
-0.000234944327083
-0.000201905819985
-0.000228491916764
-0.000219082169841
0.0514603303464
0.000420102527039
-0.00181614597042
0.000393743901988
0.0107892609309
9.23586361208e-05
-7.20086288777e-05
-6.3915871915e-05
0.000342742048332
-0.010413161659
0.00023649288924
0.0102761801957
-0.000207381973036
0.000135192649743
-4.64128482191e-05
0.000386482718198
-0.000131021854619
0.0106256824102
0.00022560774498
-3.89259546904e-05
0.000231158564785
-0.000245876263559
-0.0103476680115
0.0102855860984
0.000963937672447
-0.000257332422356
-0.000301189318767
-0.000249845976904
-0.000298163839872
0.000708524069877
0.0506425292814
-0.000235657313063
-0.000258390825606
-0.000267224793407
-0.000233006349922
0.000698790122325
-0.0502408718084
0.000858076077938
0.000252588424283
0.011251689339
2.08158876741e-05
-0.011377361425
0.0107635274935
-3.79358151578e-05
0.000370431808915
-0.0109466283984
0.00010738760378
0.0107083537743
-3.03176505105e-05
0.000291133077961
-8.75839583303e-05
-0.0108444210694
7.71754167994e-05
0.00124112536471
-0.000197421882267
-0.000187471831849
-0.00021130983922
-0.000166059944334
0.0514087565304
0.000597184948692
0.0511076156782
-0.000220433528669
-0.000207523869084
-0.000216975046947
-0.000205782552786
0.000542777865295
-0.000161566437223
-0.000108521840446
-0.000151100862136
-0.000126369537936
0.051389647795
0.00103952606434
0.00046719606244
0.000341050077398
0.01062179866
0.000128905992514
-3.30288550575e-05
0.000195748837517
-0.0103758148196
0.000207994848756
0.0103269393177
9.38487310319e-05
-2.89696287506e-05
0.000249944876923
-0.000100929870901
0.0106027356326
0.00015966303092
-1.74707272704e-05
8.30969161755e-05
-0.0001716584798
-0.0104600277642
0.0104723863745
0.000227508774301
0.0106139958237
8.88981943644e-05
-0.0107117220225
6.16420164745e-05
-0.0104998792247
0.0105156784444
-1.12803195834e-05
0.000139044316992
9.09479146007e-05
-1.58776043187e-05
-2.6428464736e-06
-1.6513611324e-05
0.000262674870251
-0.000126890002892
-0.000236166897208
6.80061933082e-07
0.000233358340413
6.24434062896e-05
1.15287341793e-08
-1.10765956188e-05
-1.65392940997e-05
-0.000232722783181
1.15806012836e-06
5.76378839077e-06
5.4006863754e-07
4.18981628259e-06
2.7925405373e-06
-8.11586409799e-05
9.13526004199e-05
3.70959485302e-07
-2.59187670646e-07
-4.81076005253e-06
1.45736579287e-07
-5.28161623002e-08
-1.08912427087e-07
7.08573171676e-07
-9.47500549592e-06
-9.07733308768e-08
4.63061777093e-07
-4.94954176786e-07
-6.14061943734e-08
9.85436616042e-07
-5.58768498708e-07
-9.97778398425e-06
-4.11191191713e-06
4.06990771665e-07
-8.90691334807e-06
-9.6099387626e-07
3.89572541625e-06
-1.5737393367e-05
-5.56857165036e-06
-2.21017489144e-06
-5.8358219883e-07
-9.53673926834e-07
-8.20793495231e-06
8.81209871717e-07
-7.95495725289e-06
-6.93539416771e-06
1.73957509693e-06
-3.34657808525e-06
1.85435224475e-06
-2.12234559994e-07
2.83546743891e-06
-0.000199830520467
-3.39068106817e-05
4.49190888666e-06
4.17726539885e-06
2.05297991975e-06
-7.18300827939e-05
5.15198461266e-06
-0.000103620093251
-2.58746270428e-05
8.70163813358e-06
1.87969872447e-05
4.29891815565e-05
2.51805253945e-05
3.04862892126e-05
-0.000280515334208
6.78577209385e-06
1.10061589201e-05
2.76728449798e-05
1.90711011296e-05
6.05960655711e-06
-0.000647425155567
5.92030697732e-05
4.21585163336e-05
3.54201873485e-05
2.81399662085e-05
3.44935412059e-07
-8.90115579983e-07
-1.05194689555e-07
-1.13574004396e-06
1.75098316943e-07
6.67679627117e-08
-1.8419645105e-06
-1.6940337722e-07
-8.7953192456e-07
-1.91624707113e-06
0.000326753165264
6.88251044739e-06
5.96229523364e-05
5.72995618833e-05
5.82355614698e-05
-0.00134461433427
-0.000143568197487
-0.00105923418019
6.43136635798e-06
4.3675474116e-05
5.19032821062e-05
5.63859641948e-05
5.05319677755e-06
0.000336242773961
4.73239100322e-05
4.14230235675e-05
4.86057867243e-05
-0.00127339030156
6.3282426445e-08
-9.60426478923e-07
1.89775419255e-06
-6.25089836224e-06
-1.18504688198e-06
-7.35807715152e-07
1.31290406441e-06
-3.90868787987e-06
4.85906485458e-05
5.33243288464e-06
2.94522720194e-05
3.55500165771e-05
3.13291156045e-05
4.96141393859e-06
-0.000963577431459
3.21201150964e-05
2.66671539602e-05
2.77983163777e-05
0.0008463060822
-8.15366029203e-05
-1.91024649569e-06
9.72532891816e-07
-2.01641933803e-06
-1.78498868143e-06
-2.46476272715e-06
-2.25650334359e-06
2.81508756185e-06
-1.94648472932e-06
0.000196262208112
3.12832755081e-06
3.65042383419e-05
2.7302588124e-05
3.07714688518e-05
-0.00107033445051
-0.00100286442679
3.48166792952e-06
3.05836848673e-05
3.00732149297e-05
3.30266241622e-05
1.677488714e-06
2.083574512e-05
2.39298629374e-05
2.69921274003e-05
-0.00097386608795
8.25606343085e-05
-8.22439709248e-07
-8.13939231439e-07
-2.9205614441e-07
2.36786196994e-06
1.97039662015e-07
-1.30822141834e-06
3.80449288556e-06
-1.57613387413e-06
0.0122679210199
-2.32688872938e-05
-7.52187900256e-06
2.13440308671e-05
-0.0123057295002
1.31835548248e-05
-0.0122643593548
0.0122379796686
5.37190137875e-06
4.00266944619e-05
2.83603590979e-05
-3.83919492271e-05
-0.0116345641115
4.40897699079e-05
-0.0115954826449
4.16424308547e-05
0.0115449007271
2.99960456753e-05
0.0122412730085
4.49319524833e-05
-0.0116421604017
7.98068623819e-06
-0.0123026831669
0.0122742222665
3.15408165505e-05
-2.51764776419e-05
-0.0123103093911
-4.57611563e-05
-0.0122847619913
0.0122640109285
6.17171683505e-05
4.86304900589e-05
-0.011599785563
0.0115463141295
3.28584426372e-05
-4.83185028469e-05
5.21908658693e-05
-0.0116546214228
0.0122484589659
4.15226139184e-05
-0.012316567841
-0.0116482058935
-0.0122176420587
7.70522212868e-05
-0.000136263339093
-5.27257365036e-05
0.0122089518211
-5.51410795638e-05
0.0122411080299
7.08415676447e-05
8.5402270326e-05
0.0114675494177
-3.94508695058e-05
0.000150702851467
-3.5326108269e-05
3.41058419261e-05
0.0113470538213
-3.91612022103e-05
0.000103127882584
0.0122443688202
-3.44470480385e-05
0.0113574863974
-4.65870518858e-05
0.0123102083645
-6.63454910387e-05
5.72803686848e-05
-0.0123364757902
-0.0122980430523
6.97959481279e-05
0.0122838958605
5.29620565248e-05
4.68320085299e-05
-0.0116582288896
0.000100651708706
-0.0115967735769
3.13568375954e-05
0.0115221402786
-0.0123262263873
8.39088996775e-05
0.0123025547066
3.58275957975e-05
-0.0116576863263
0.0123263620284
6.41360898722e-05
-9.13596333253e-05
-0.0123493552187
-9.30926559614e-05
-0.0123450883267
0.0123580616369
0.000116493542695
0.000134524626756
-0.011581305672
0.0114925782707
0.000125269927118
-2.44653802535e-05
-0.0116295717921
5.25721546107e-06
0.0123299430522
-0.0123622702582
8.48242036897e-05
-0.0116495739603
-0.000118879910577
-0.0122931769178
-0.00022973248694
0.012325532489
0.000145178790447
0.0122657686947
7.94696499008e-05
0.000190430592839
2.96715904863e-05
0.0113141132747
0.000154330291259
0.011424468727
2.1152162664e-05
0.012283106998
0.000101961216278
0.0112836829143
2.37833302152e-05
-0.000156874984736
0.0123739780167
-0.000286495191626
0.000195122774204
-0.0123124344681
0.000215179219653
0.0123937750987
-0.000184599592377
0.000247654161731
3.59312927096e-05
-2.76588138879e-05
0.000406104574313
-0.0111316005748
7.45877298002e-05
0.0109211534311
-0.000130964475304
0.000257093199291
0.0124622795351
4.54059283657e-05
-0.0123302574439
0.000164615781884
-0.000278089908204
0.0123782540186
-0.000117513645362
0.0123746910574
0.000148840666698
0.000192246868318
0.0113773060752
0.000321016155654
-2.68887242025e-05
0.0111613618708
3.73150464535e-05
0.0124312682381
0.000195285601565
0.0112216219703
0.0124394801034
0.000219947822854
-0.00031368784836
-0.000279658552469
-0.0125010558657
0.0125824649768
0.000299995643658
0.000408326696644
-0.0110661301591
0.0108636426821
0.000341096821699
-5.73786839964e-05
7.78985279119e-05
0.0125259588543
0.000248833686756
-0.000352349970628
-0.0125865235199
-0.000457113188796
0.0126996865985
0.00038179973567
0.000318644387245
0.0125173605194
0.000273613537885
0.000240956238985
-0.000241551745483
0.000465625242432
0.000143953072275
0.0105823343544
-0.00012577932213
0.00041652806559
0.0107251026479
0.000127942299639
0.0126414865528
0.000310985061934
-0.000318275408363
0.000311147719727
0.000258605706094
0.0105128876564
0.000182519545323
-0.000383574568504
-0.000384235491355
0.0128433793231
0.000408987548459
0.00021933302345
-0.0128102017432
0.000421581564399
0.0129360672683
-0.000407652807824
0.000207017720926
0.000409883276327
0.000179600789378
-0.00015270019236
-0.0103567296359
0.000305942840924
0.00025170788402
0.0102527542192
-0.000352156931815
0.000213822211112
0.000198542033955
0.000434056768761
0.0129399583031
0.000200708404656
-0.0126395677652
0.0003838236444
-0.000418365102618
0.0127416879522
-0.000326076920447
0.0126859702696
0.000328229908128
0.000399624126427
0.0106933097472
0.000384739791562
-0.000194348644377
0.0104708616792
0.000185677444121
0.0127767353548
0.00037060948105
0.0105032133942
0.000403412103798
-0.00034979743659
0.0128664638351
-0.0128801962968
-0.000418177767677
0.000397567213639
0.0129331380522
-0.0103603609298
0.000273432109341
0.0102841186568
0.000312358093902
-0.000202565480065
0.000190023820574
0.000387872939155
0.012940406706
-0.000207665638014
-0.012461565795
-0.000328222319018
0.0125214006253
0.000213500768482
0.0124214805114
0.000166737182183
-0.0123927964736
0.000322854960217
4.32513543856e-05
0.0110896240973
0.000271017919425
0.0111806840471
-0.0113097905783
2.39122290657e-05
0.0124815643628
-0.0124219699365
0.000183577366953
0.0110159346227
4.6676771615e-05
-0.000253528624547
0.0125920631476
-0.000317019528098
0.000245348884986
-0.0125530461855
0.000299654135091
0.0126257250709
0.000323742689923
7.5424577909e-05
0.000347547474614
-0.010880708451
9.25267304443e-05
0.0107202443834
0.000283916324613
0.0126605385513
6.7546582212e-05
0.0126223055484
0.000235359544036
-0.000290841279849
-0.0125542139927
-0.000267808583067
-0.0126454061822