/*--------------------------------*- C++ -*----------------------------------*\
| =========                 |                                                 |
| \\      /  F ield         | OpenFOAM: The Open Source CFD Toolbox           |
|  \\    /   O peration     | Version:  v1906                                 |
|   \\  /    A nd           | Web:      www.OpenFOAM.com                      |
|    \\/     M anipulation  |                                                 |
\*---------------------------------------------------------------------------*/
FoamFile
{
    version     2.0;
    format      ascii;
    class       volScalarField;
    location    "10";
    object      alpha.water;
}
// * * * * * * * * * * * * * * * * * * * * * * * * * * * * * * * * * * * * * //

dimensions      [0 0 0 0 0 0 0];


internalField   nonuniform List<scalar> 
28582
(
0.999998706383
0.999993236514
0.999998187497
0.999994905305
1.00000027981
1.00000035647
0.999996504171
0.999997127143
0.0518630257072
0.0558693647695
1.87468268149e-06
0.999996674383
0.883583019634
0.87908617501
0.999996985237
0.999997860334
0.875416142238
0.998769377265
0.99872992304
0.999999069001
0.999993370508
0.999997472477
0.99999889676
0.999995120465
0.999997557641
1.00000095132
1.00000089956
0.99999350447
0.999997190715
0.0576752139664
-4.96540232836e-29
-6.072783817e-26
0.999990413674
0.99999698066
0.882054072093
0.879265825539
0.998733425524
0.999996690482
0.999997981027
1.00000281966
0.998780707005
0.863550722999
0.998733003521
0.998650949985
0.0529721320018
0.0564793311285
0.000414365027444
0.0004683371333
0.0544037938531
0.000446007055382
0.998987524631
0.999096539127
0.883113721768
0.884777026912
0.999107784703
0.884068914647
0.998977608453
0.99907616833
0.998892326348
0.881539274003
0.880177587838
0.999016183997
0.882494237028
0.998955557992
0.998833152468
0.998805833441
0.871779210046
0.876862596769
0.998929159837
0.873135096085
0.998726068082
0.998727878613
0.86752436222
0.867529382446
0.998780057897
0.869346068839
0.870171461326
0.998714113238
0.998676724255
0.866405668566
0.867259778513
0.998780206737
0.870978088073
0.998767728746
0.869741387189
0.0517502143743
5.54871130203e-05
0.051725867419
0.052337160891
4.18360111587e-05
4.82449475264e-05
0.0576390372025
0.000400646945147
0.000366287515919
0.0586437083134
0.000412396232614
0.0589092854936
0.000347111377951
0.998606479927
0.998732411255
0.88131244097
0.883322640904
0.99862711485
0.998729375039
0.882592289088
0.998487635777
0.998413955745
0.880307803511
0.880703540884
0.998509313499
0.998382976046
0.881614978704
0.883944514187
0.883379971399
0.998729743142
0.998632107308
0.881900906836
0.998557842619
0.882533384689
0.998759048932
0.865648907985
0.865335068715
0.998819360018
0.864680453549
0.998807335756
0.864345558001
0.998860314264
0.998818935708
0.863976401549
0.862578566198
0.998823189558
0.998869904722
0.863483038821
0.998644336235
0.998635774172
0.864705428897
0.864790696101
0.862915483551
0.998767216613
0.863840282707
0.861638394192
0.860310679728
0.998671251407
0.998834214103
0.862686324056
0.99886673383
0.863277924451
1.00000102439
0.999995699925
0.0601145773262
-5.26850202785e-27
0.999996680153
0.882808826267
1.0000033066
1.00000367528
0.862198419599
0.859659269566
0.857097971177
1.00000106017
0.999998533376
0.856516583585
0.854526506821
0.0523670946355
0.0599158351022
0.0615213917132
0.000324917992207
0.000360094289041
0.000358096417933
0.0629261175212
0.0637856776513
0.998518027968
0.998719104711
0.881312438954
0.882172379938
0.998531060961
0.880520495172
0.998709499833
0.998825861259
0.998800006444
0.859886366517
0.861186488444
0.998753903484
0.998859555001
0.859613646681
0.998825444301
0.998673425531
0.862022512948
0.858819653354
0.998859109842
0.861098623288
0.998659499361
0.998764248315
0.998566062045
0.858237803337
0.857607653733
0.998688254835
0.859648340442
0.998613185874
0.99853278892
0.998524312832
0.856995845281
0.855939682809
0.998598089167
0.855611443541
0.998479405459
0.998495958165
0.998420637698
0.853373204357
0.855184368801
0.998476387671
0.854563371774
0.998444149175
1.00000119746
1
0.999996194933
0.99999643198
0.0350329473809
0.0427534560116
0.038056438346
0.0431573675746
0.0428153997502
1.43648439951e-06
2.87978942488e-05
4.42648592522e-06
1.27553385331e-05
9.10387960458e-06
1.01155197598e-05
0.999998718103
0.999999930985
0.949374056308
0.95093119437
0.999999833009
0.950767252477
1.00000220586
1.0000034146
0.951037888632
0.947444306243
1.00000290525
0.999997606342
0.999996459001
0.950075498275
0.936805723168
0.9428078743
0.915282962205
0.999995771271
0.99999084128
0.924362706879
0.871895991223
0.902446953664
0.866370840354
0.999995421901
0.999994419989
0.936302270004
0.910325436253
0.899563696158
0.999993822742
0.99999549496
0.999991984603
0.899228198447
0.867190253444
0.891426871754
0.869688956453
0.89020042861
0.871238944237
0.0312945122734
0.0309149785723
0.0339821649232
6.80595715539e-05
0.000160195076889
7.65968326289e-05
0.000183286323785
0.000341921964183
0.00108108817322
0.000344935757622
0.000819990281639
0.031158364699
0.0326512534505
0.0395614555226
0.0367190120964
0.0400624599047
0.000117224416732
0.000244547932633
0.000194699954239
0.000319148485651
0.0449077245594
0.0428386468775
0.04507302335
0.000373491552177
0.000683051119652
0.000437054559267
0.000698282343286
0.0405087961999
0.0411041962766
0.00030151154916
0.000398224137344
0.000446848692535
0.0450443030808
0.0432151469284
0.0445094107442
0.000467077942008
0.000604661431566
0.00048068103054
0.00056571600124
0.999765769371
0.999703196161
0.949450792054
0.950102051339
0.999718005223
0.950195727629
0.999749096218
0.999778710681
0.999742687885
0.950553130709
0.951186673696
0.999712739367
0.999789395413
0.950725668355
0.99968229071
0.999724134331
0.950466107462
0.950027997429
0.999691682002
0.99973537523
0.950053090831
0.999796247518
0.99973477086
0.951475102525
0.95085332844
0.999792893031
0.999752414755
0.951733417652
0.999788558771
0.999757831114
0.949799889686
0.949837791557
0.999761007153
0.999809030017
0.951164485144
0.999709360099
0.999738924796
0.948649162253
0.949416968619
0.999737740159
0.999732984633
0.946894423069
0.999693508475
0.999746000071
0.943721870584
0.931097672878
0.999721647215
0.999647802138
0.940559439985
0.999716273786
0.999714200816
0.946613306228
0.936586822992
0.999747650438
0.999665008189
0.942081224305
0.999682474035
0.999494772889
0.923233252947
0.927362572919
0.9995883727
0.99960462122
0.933995060836
0.999414845647
0.999704083064
0.90848551474
0.91743541746
0.99953656252
0.999571194663
0.900480123837
0.999163615965
0.998965910441
0.89015806881
0.867774223572
0.999282221746
0.883324437065
0.998811888838
0.9992563911
0.999390405505
0.910311534731
0.890183415266
0.999448267925
0.999211776053
0.895826204447
0.999018161222
0.998790321926
0.867084862928
0.87811816335
0.999013174142
0.880903326473
0.998735925684
0.999482297773
0.999657227018
0.928755889887
0.930255788794
0.999589912188
0.999531098031
0.921947424867
0.999425491419
0.999418161989
0.920331671905
0.904720232411
0.999520858512
0.999324927777
0.913377699895
0.999363812387
0.999273832972
0.902116404044
0.907209722093
0.999299278039
0.999345474053
0.910375679872
0.999104813722
0.999322688241
0.888144616637
0.895258487303
0.999177558849
0.999236367227
0.885859650727
0.99896636373
0.998830733849
0.877455200475
0.868023698646
0.999014981533
0.87670349327
0.998812849789
0.999134826622
0.999204606689
0.893336083099
0.883621150215
0.999238360768
0.999088973347
0.884621225202
0.999004242926
0.998902391408
0.869390355131
0.876417684833
0.998975960597
0.876657478468
0.998879625746
0.999047919725
0.999177450335
0.882844065226
0.888411880837
0.999079984687
0.999125062389
0.88151872205
0.998924574067
0.876920177703
0.998983544107
0.999997825999
0.999990946465
0.99999313
0.999997971597
0.999997677256
0.999992937554
0.99999705904
0.999995408465
0.999995990065
0.999999023717
0.999998564009
0.999992357918
0.999998429729
0.999999083169
0.999935025556
0.999962659484
0.999987007847
0.999993045118
0.999995427053
0.99999137487
0.99999454816
0.999997232584
0.999992048537
0.999980371392
0.99997726621
0.999977286399
0.999987189192
0.999994689577
0.999997672164
0.999995849899
0.999988712124
0.999990411485
0.999994926788
0.999998190277
0.999999201376
0.999996169157
0.999998330647
0.99999480682
0.999989089374
0.999993948777
0.999998478455
0.999999345994
0.999997505703
0.999993191477
0.999997633155
0.999999346239
0.999999029378
0.999993340635
0.999998368615
0.999920674203
0.999881874724
0.999984475306
0.999999134476
0.999998971842
0.999974845455
0.999943571697
0.999980144019
0.999990388019
0.999908016605
0.999945119225
0.999989036057
0.999998798359
0.999997858852
0.999992780693
0.999993882884
0.999990856684
0.999980114033
0.999979674534
0.999989109024
0.999997750601
0.999999364225
0.999998559835
0.999998677482
0.999997274725
0.999997424253
0.999998023709
0.999998718054
0.999999115689
0.999998641529
0.999997089038
0.999998001686
0.999999343392
0.999998788129
0.999994789194
0.999989870622
0.999911689904
0.999927242178
0.999995260873
1.00000284757
1.00000496539
1.00000099431
0.999983486807
0.999946702557
0.99998026483
0.999952164345
0.999978699562
0.999998580675
1.0000037076
1.00000663285
1.00000527747
1.00000153319
0.999999197723
0.999996957893
0.999997957644
0.999999854249
1.00000159915
1.00000302185
1.00000353394
1.00000029833
0.999999979059
1.00000011628
1.00000026807
1.0000006306
1.00000113689
1.00000149024
1.00000166549
1.00000199318
1.00000039583
1.00000076307
1.00000112892
1.00000151397
1.00000175095
1.00000186822
1.00000224284
1.00000071041
1.00000054861
1.00000113531
0.999995001452
1.00000276187
0.999987420879
0.999991947493
0.999997198987
0.999995806142
1.00000796318
1.00001513234
0.999987847329
0.999987655269
0.999995156952
0.999994799901
0.999994277656
0.999989426425
0.999976492359
0.999979965347
0.999978257173
0.99998877432
0.999991287219
0.999990339799
0.999990104909
0.99999141091
0.999989083773
0.999983224886
0.999982296849
0.999986942622
0.999987828379
0.99999013758
0.999990498584
0.999991334788
0.999992904708
0.999992857492
0.999992814111
0.99999237477
0.999988095908
0.999985795303
0.999986567142
0.999987522977
0.999991571535
0.999992052725
0.999988777962
0.999985951749
0.999985941264
0.999993578344
0.99999511084
0.999998348819
0.0587105717227
0.0569970772757
0.0541653314281
0.0536131820753
0.0551530823678
0.0601727905612
0.0654802052871
0.066027583025
0.0452982401416
0.0524625995865
0.0594669409697
0.0587725217448
0.0562128632315
0.0562185953179
0.0589303396998
0.0641039407414
0.066343463877
0.0652515489958
0.0453311237002
0.0522662449533
0.0570592471691
0.0565430906395
0.0569327553941
0.0596191240334
0.0628335886079
0.0665233505531
0.0663517280068
0.0648177409736
0.0501596781637
0.0535678006531
0.0542404945361
0.0560939630298
0.0593008623036
0.0618984324549
0.0650211078653
0.065630805341
0.0654571521833
0.0529566941166
0.054896647333
0.0570134364608
0.0608768152589
0.06277081486
0.0644516909169
0.0658374297295
0.0626369129096
0.0642075999872
0.0653773604045
6.3330562645e-05
-5.41980445818e-27
4.13782788402e-25
-2.54713589244e-25
3.36058499871e-07
3.76514800109e-06
1.59951746518e-06
-2.27578713188e-29
-4.82439869135e-28
9.64265714002e-05
0.000110526977767
8.09492070903e-05
1.785255503e-05
2.34133519157e-28
1.70331396605e-09
3.25920900878e-05
3.41925111351e-05
-2.47801435714e-26
-4.87036583849e-27
5.49509551266e-05
7.50667723961e-05
-4.94182651522e-25
-3.43771753774e-29
-6.71089536385e-29
1.09386227203e-25
4.03936923607e-06
0.000102686962669
-5.15202709261e-24
-6.62666583149e-25
5.58962248221e-05
5.79854252539e-07
-3.02367505381e-28
-2.66468306703e-27
-1.5798252031e-27
6.61744490042e-25
4.50027523861e-05
-2.07440142217e-24
-1.94531039339e-25
6.14057099091e-05
-6.81683088435e-28
9.47537192434e-06
4.9259769583e-05
-2.09763008458e-26
-1.43343122629e-25
-5.74021490407e-26
7.11365050814e-05
-2.81392620576e-27
-4.24023683081e-26
9.6020832954e-05
0.999999091527
0.999996980104
0.999996869345
0.999998859763
0.999998907814
0.999997683793
0.999998791235
0.999999126241
0.999997596787
0.99999912881
0.999986258652
0.999903002357
0.999994887059
0.999968831867
0.999995072106
0.999986970657
0.999988068347
0.99999398811
0.999996908369
0.999986769354
0.999989875336
0.999998160509
0.999993346791
0.999996856452
0.999995103752
0.999987756593
0.999995598712
0.999996445519
0.999993531055
0.999997000882
0.999996505559
0.999995958945
0.999991104021
0.999995160119
0.999988673576
0.999791240095
0.999974621121
0.999857768875
0.999907003413
0.999789807577
0.999888238982
0.999790324218
0.999991451474
0.999967656855
0.999979906844
0.999963900413
0.999988706504
0.999963952146
0.999983129968
0.999973225695
0.999995672511
0.999996329968
0.999977565599
0.999906118558
0.999992839002
0.999996215226
0.999987521859
0.99998091337
0.999983732762
0.999933186216
0.999988838317
0.999954328211
0.999990620754
0.999790324214
0.999915229706
0.999790866772
0.999948693123
0.999899129888
0.999966494549
0.999917234536
0.999987396179
0.999979450456
0.999990709935
0.999969814838
0.999991089241
0.999994994339
0.999995259116
0.999911124878
0.999992555652
0.999991328058
0.999988191367
0.999972467493
0.999996734437
0.999999134186
0.999952738322
0.999986511543
0.847923491838
0.846251737025
1.0000025197
0.999999736469
1.00000500331
0.852221626064
0.862531653386
0.849598519485
0.86049451311
0.999997281234
1.00000262516
0.999998022922
0.865388353496
0.870122385757
0.8630073642
0.867505305075
0.999988422717
0.99999707102
0.999996578011
0.871788346676
0.876398855644
0.868977106763
0.873091415804
0.999994971694
0.999995368463
0.999997410463
0.876810599643
0.878836676079
0.873548941417
0.872483139648
0.999995145545
0.999998971354
0.999997848451
0.876856719668
0.862117480811
0.868703217193
0.849689618059
1.00000044957
0.999997080457
0.999999009244
0.857028874116
0.847378640905
0.845849831455
0.840322038072
1.00001422013
1.00001082881
1.00002140488
0.846417873662
0.842503026096
0.840649228093
0.835252153979
0.999968181457
1.00000575631
0.999968417114
0.843560412219
0.810128387644
0.83781189503
0.833398556575
0.999994301072
0.999992366367
0.859969746696
0.843276802351
0.860184841961
0.856041595006
0.999985073565
0.9999927339
0.999990726312
0.842756821224
0.848239789565
0.855183038353
0.858133803553
0.999991610592
0.999987718213
0.999988306084
0.850364999988
0.859224006621
0.858948156743
0.862670882132
0.999994909639
0.999986426294
0.99998813538
0.86113445239
0.866490551411
0.863830795315
0.866771639777
0.999994679884
0.999988019215
0.999989977233
0.86793041473
0.872147754241
0.867820919039
0.865026322012
0.999992644176
0.999988309855
0.999986915898
0.872227206647
0.868358129396
0.862113299087
0.850237103611
0.999980335409
0.999984901602
0.99997880514
0.863666943495
0.845308058121
0.845864020596
0.836739739408
0.999977986659
0.999979349883
0.999980915691
0.842171254778
0.838684732716
0.836319500863
0.838869597648
0.999982949357
0.999985947432
0.999987445121
0.839403748554
0.834270684261
0.839952218443
0.835990153955
0.999965141788
0.999984427391
0.999986441151
0.837466843093
0.835869476768
0.840667331107
0.838957840346
0.999992178986
0.999991541419
0.999989460894
0.862102719135
0.859609721267
0.869364310195
0.869967525938
0.999991134618
0.999993755776
0.99999501926
0.859267550951
0.862170961655
0.871769356384
0.874206110501
0.999988814132
0.999991743378
0.999992291077
0.86282263155
0.864873844653
0.874931160649
0.873554376682
0.99999030612
0.999989456408
0.999990996353
0.865540112502
0.867951018142
0.872210439494
0.869020680858
0.999989878221
0.999990407
0.999989716785
0.867418522374
0.861726014502
0.867072059436
0.857409222844
0.999985562213
0.999988075803
0.999984927026
0.858668576182
0.846872207787
0.854530823409
0.845862213499
0.999982786341
0.999982763478
0.999983572121
0.843875897417
0.83999042068
0.845084936171
0.846985328094
0.999984218405
0.999984487725
0.999986078153
0.839050355045
0.839576174737
0.846567924118
0.842861248437
0.99998757707
0.999987513696
0.999987939683
0.839732154656
0.835550656621
0.841838200889
0.836211891156
0.999993016103
0.999989219675
0.999994896901
0.840635480743
0.839526895066
0.84110993602
0.836903636313
0.872282635554
0.872869944242
0.999989472787
0.999998285937
0.874418763569
0.876564729618
0.881325604189
0.999989782433
0.999996171415
0.99999523745
0.876612514701
0.874123307428
0.880766252037
0.877261076981
0.99999189082
0.99999273509
0.999992550963
0.872830000001
0.869459017373
0.87601241859
0.872255387486
0.999993328064
0.999992004822
0.999991271299
0.867564703543
0.860021135763
0.870331824753
0.864522403174
0.999994111622
0.999991658323
0.999991747579
0.857635476457
0.850948159073
0.862511223305
0.859908176293
0.999993882352
0.999991574245
0.999993122283
0.849503720774
0.849581505467
0.859434631503
0.857513700062
0.999990687045
0.999992583366
0.999990543353
0.848111302807
0.843671935158
0.854937724663
0.84841948173
0.999987515583
0.999986852904
0.999985181723
0.84290898107
0.837429930788
0.847697138753
0.841414816257
0.999991173848
0.999985548117
0.999990862678
0.841630172766
0.835641118593
0.844122054004
0.834281552663
0.999986685615
0.999996430598
0.878223989764
0.873885625014
0.878549480827
0.999990847469
0.999995915252
0.999994731252
0.871499048536
0.865423007214
0.874841636258
0.867803514037
0.999992870315
0.999995152973
0.999994598567
0.863941088987
0.862217710523
0.866706232124
0.864745897649
0.999991638837
0.999991782831
0.999989219724
0.860039913479
0.855859325072
0.86197950318
0.856034584335
0.999988345319
0.999987099146
0.999986185651
0.854910624656
0.850969037295
0.854807778562
0.852051962656
0.999987256182
0.999985640102
0.999986256985
0.849962518812
0.842419426964
0.851123917508
0.843419449142
0.999990879761
0.999987983188
0.999993543615
0.844554612634
0.833638605024
0.845307696522
0.835652955024
0.999994793255
0.85666623393
0.999994302594
0.855481210425
0.851702026259
0.999998260231
0.85114031026
0.844082401881
0.999999159687
0.846221835474
0.83766209221
0.00131117313433
0.00082720595665
0.00144720462299
0.000993408373985
0.0558326083066
0.0567917534006
0.000269108110985
0.000180444584392
0.000315498062886
0.000212933472591
0.0583403797139
0.0596325874611
0.0592462235045
0.000152642830978
0.000101381521931
0.000201820024017
0.000133401173162
0.0551767323631
0.057924882224
0.0560320486964
7.27347139401e-05
3.70449746756e-05
8.24471187654e-05
3.76887670015e-05
0.0534853919568
0.0550909618251
0.0545183040769
4.09334400405e-05
6.12339500545e-05
3.97994192831e-05
4.42714748086e-05
0.0537651634593
0.054663429134
0.055336057663
1.99925028598e-05
7.56662933207e-05
8.72397673209e-05
0.000148943507356
0.0574309965377
0.0567972224191
0.0591696778241
0.000339857764936
0.000584675367201
0.000461868144181
0.000687037685995
0.0634319957095
0.0618325563262
0.0648169374973
0.000585368440453
0.000582743766445
0.000645455240762
0.000611837854521
0.0665924701002
0.066087836429
0.0669113880598
0.000540807634421
0.000538998054632
0.000556321332769
0.000544355982368
0.0669516583132
0.065419482025
0.0696017726135
0.00085384673343
0.00250922800534
0.000793228521438
0.00131991629142
0.0475665768579
0.0451963741217
0.0473946366226
0.00170536155441
0.00171285383007
0.00161631003614
0.00153386388856
0.0563185487294
0.05247943747
0.0563238470183
0.0011604591879
0.00089423605213
0.000680391761047
0.000392806356177
0.0595486217121
0.0588405908145
0.0588559041637
0.000620019085382
0.000280355616203
0.000270436017322
0.000161270538125
0.0571526821349
0.0581410967636
0.057217168548
5.02813932997e-05
3.0029378825e-05
7.02477393714e-05
4.93101545319e-05
0.0558292549476
0.0568030078414
0.0572809971871
3.08310501677e-05
4.31667742791e-05
5.25765985142e-05
0.000130280296589
0.0573257563067
0.0582314846256
0.0597150751216
0.0001624640334
0.000489384834347
0.000367702741705
0.00082594255303
0.0613785639143
0.0614187104874
0.0636528703729
0.000797852783948
0.000962279011016
0.00115312208996
0.00119264110701
0.0661158416111
0.0660548674432
0.0668352295454
0.000687021739696
0.000593737580769
0.000689122931747
0.000559025104619
0.0668605660127
0.0664200468053
0.0667098119772
0.000537617758352
0.000523217330288
0.00052060629013
0.000511843797382
0.0697373343059
0.0648503949431
0.0680771108836
0.000669695852938
0.000892003599125
0.000612836282654
0.000810899042336
0.0480547628
0.0447918103579
0.0478453063668
0.00124425781067
0.000791983101775
0.0011058264328
0.00060747583149
0.0553426428361
0.0509095462758
0.053877852176
9.68622351692e-05
5.94442044918e-05
5.89820543124e-05
4.01770154313e-05
0.0570903550574
0.0548978554886
0.0552731632888
6.96421066693e-05
5.87539493869e-05
4.65668233714e-05
4.95085055138e-05
0.05642259477
0.0552748056183
0.0556231453066
8.05787677952e-05
7.63709542311e-05
8.30943368065e-05
8.88076544874e-05
0.0580012513016
0.0565157652239
0.0579777404602
9.36605727249e-05
0.000218736579421
0.000110909397196
0.000213163469877
0.0617609993608
0.0598823741709
0.0620993751843
0.000419429161604
0.000656396179889
0.000402059785541
0.000621658523324
0.0645412619143
0.0630259687755
0.0642886280978
0.0014615774969
0.00158750840724
0.00159042967005
0.00149138432792
0.0666273663164
0.066177507678
0.0662452140321
0.000676537374014
0.000547645191569
0.000615277157097
0.000504940510041
0.0668587736408
0.0661348181718
0.0668219866644
0.000527586057744
0.000548314703825
0.000511560644233
0.000546446472546
0.0669335591203
0.0651017074427
0.0662881050691
0.00066891095827
0.000807131313578
0.000730500426006
0.000875900664777
0.0527642435385
0.0516922357015
5.50040724836e-05
3.71645892524e-05
3.38722303503e-05
0.0539592146979
0.052555217655
0.0531020336362
4.58000772937e-05
5.45838779593e-05
3.9814968911e-05
4.86004190505e-05
0.0549513891748
0.0536176009787
0.0545631643866
8.88913070936e-05
9.11142246585e-05
7.89634728876e-05
9.16362684194e-05
0.0574305628131
0.0555998934905
0.056752684248
0.000118292414838
0.000179823307392
0.000143302636551
0.00024181469558
0.0608848757293
0.0583336036975
0.0595358417801
0.000320149535457
0.000507074308919
0.000366958586844
0.000474414453337
0.0634419990253
0.0604918077743
0.0618710335296
0.0012269799012
0.00114178122616
0.000853533009285
0.000735407900885
0.0654700447633
0.0636125138389
0.0645562792463
0.000517664316829
0.000429464947811
0.000422203247812
0.000358103615102
0.0665502534307
0.0649779415031
0.0661295420784
0.00043443420861
0.000476542585177
0.000361256839471
0.000402279666752
0.0662232945081
0.0656895555406
0.0664920892107
0.000747469899909
0.00100060501842
0.000725154102805
0.00123525513618
0.054060972637
0.0534530507648
7.80592733896e-05
0.000107604442229
8.57772612509e-05
0.000131639081121
0.0555888059152
0.0543373343089
0.0550192553019
0.000286075515673
0.000628931510433
0.000414543909146
0.000955269392069
0.0588057869599
0.0564010483892
0.0585684701251
0.00105891089127
0.000842787491663
0.00139530582093
0.00077048047104
0.0617259743959
0.0603733264023
0.0614261724322
0.00037210859751
0.000325674781993
0.000317688376122
0.000291217517202
0.0637733023746
0.0628104039496
0.0638464084123
0.000324875130986
0.000326672065384
0.000320627954587
0.000327861935642
0.065945681245
0.0643832834628
0.0658682426269
0.000326452544574
0.00036524925106
0.000308500144192
0.000341281097505
0.0666736370325
0.0658094945862
0.0669136720733
0.000691581794235
0.00139985811617
0.000664286011258
0.00165670008059
0.0613572211702
0.000337415021777
0.0637066521946
0.000367225110751
0.000388026657192
0.000378611763234
0.000382195665781
0.0655401981265
0.000331123479529
0.000346853921577
0.000327450193554
0.000324039228778
0.0664110475212
0.000665433606862
0.00203212656396
0.000595503400756
0.00204396140892
0.998386875244
0.998525803706
0.843120764451
0.846132315952
0.998432493402
0.841300231406
0.998471699365
0.998285629128
0.998430171994
0.845521024087
0.842576915811
0.998353038783
0.998373485794
0.840168425116
0.998585159314
0.998582427406
0.85603786697
0.85017304322
0.998514522603
0.85470077601
0.99860252066
0.998609980341
0.998615456809
0.859271025346
0.861748343378
0.998632713677
0.858676760253
0.998608243744
0.998531413774
0.998481424006
0.849610785137
0.853896970115
0.998448586259
0.998512885424
0.853732829882
0.998542129065
0.998539967699
0.861091591478
0.85765530063
0.998541692212
0.998546134808
0.857725349456
0.998619669294
0.998608251414
0.8672670215
0.864160019546
0.998626467684
0.866364655295
0.998601004517
0.998623931559
0.998643708962
0.868771684338
0.869655196466
0.998650427099
0.868337136423
0.998615137157
0.998508558624
0.998507921934
0.863421196905
0.864986647635
0.998525006865
0.998469824975
0.865243298117
0.998516757337
0.998498525867
0.868819201774
0.866451479036
0.998553949728
0.998472772474
0.867241396901
0.99875069843
0.998677223119
0.874053392825
0.871003704093
0.998691535706
0.872958993542
0.998734700753
0.998841219296
0.998963311371
0.875643258827
0.875418779971
0.998963738112
0.874540389328
0.998845922718
0.998726488744
0.998558912714
0.870245962941
0.871064245301
0.998622505744
0.998662072455
0.872158441712
0.998860989348
0.999003852129
0.87478440837
0.872345085432
0.99899844541
0.998830317791
0.873772665933
0.999122999997
0.999031433737
0.877675203587
0.875878845692
0.999058675529
0.876706433306
0.999069622042
0.999133791619
0.999137726228
0.878956514328
0.877419811421
0.999138393987
0.877703977474
0.999132074484
0.999115867885
0.999071384148
0.875184628269
0.874311251989
0.999077826783
0.999099028379
0.875970812488
0.999140411685
0.999043143663
0.875329818176
0.873877700828
0.999104957817
0.999092015659
0.876160363932
0.998900562058
0.999100466727
0.873149828757
0.875104784455
0.99908604919
0.870675909193
0.998923337149
0.998608458803
0.998290935176
0.868003272438
0.85918330512
0.998231343543
0.865259883392
0.998631765264
0.998831599787
0.998938096335
0.8719883209
0.862493706368
0.999026247192
0.998701879329
0.866786601704
0.99854698878
0.998002542451
0.855062720467
0.855988668001
0.998191815987
0.998380901362
0.861126835484
0.997592511431
0.997959735748
0.852243405145
0.8542048809
0.997906905197
0.849178238895
0.997665255269
0.99739831345
0.997494305982
0.849642268536
0.84505062001
0.997421116408
0.846648578654
0.997472318551
0.997521825461
0.997634319763
0.850580944122
0.842163982163
0.997848646253
0.997329199105
0.84649087752
0.99734989912
0.997238086748
0.842973065418
0.840069634159
0.997376100038
0.997201683604
0.84400405078
0.997641077107
0.997576499543
0.846684846182
0.843817828988
0.997499816398
0.843916886327
0.997721980573
0.99778414688
0.99811246028
0.844953644086
0.838891914366
0.998029433917
0.841886796082
0.997870524314
0.997621943512
0.99735420133
0.842478044786
0.841279541667
0.997456234705
0.997578155757
0.842774265693
0.997757729443
0.997891223233
0.836355382707
0.83898495628
0.99795032482
0.99774102809
0.840226631443
0.997592229403
0.998057336718
0.837909569547
0.840295118321
0.997991807378
0.835357634101
0.997609068027
0.995912337434
0.995624920383
0.810409628984
0.824841457228
0.808398544717
0.996227115567
0.995302590153
0.997348933586
0.997817079817
0.838813258556
0.835036380197
0.997872276637
0.99735676693
0.834843977801
0.995556126946
0.996283966347
0.830033193428
0.808640278816
0.995838714956
0.805488845022
0.99603573856
0.998553871478
0.998681642901
0.849320568252
0.858268598823
0.998565045758
0.85113645937
0.998562559791
0.998458461152
0.998421554573
0.846504570905
0.847121506544
0.998437500813
0.998470822784
0.849485824041
0.99852710164
0.998608144953
0.859923132846
0.855135231592
0.998584817394
0.853651920959
0.998529938408
0.99846310418
0.998510383611
0.851657998671
0.856008101666
0.998445314461
0.998540083762
0.853045714002
0.998387384366
0.998365204567
0.844034392438
0.847178934381
0.998284271308
0.998439782125
0.848614175816
0.998306882021
0.998249132303
0.845955195576
0.851665211542
0.998268067257
0.998266015366
0.850152269889
0.998297691871
0.998448576192
0.851521870571
0.855679307332
0.998383411665
0.998356699049
0.852329727388
0.998217759021
0.998216750545
0.854215663821
0.856665480313
0.998154915082
0.998273783175
0.85323474248
0.998095533356
0.998188673026
0.853803836345
0.852976174712
0.998125977282
0.998173995519
0.855279552247
0.998023145056
0.998088289105
0.856999935892
0.859778802941
0.998108703726
0.997984028095
0.857759408644
0.997944684365
0.99813347012
0.855075258121
0.860169768132
0.998038472373
0.998049752712
0.856902155443
0.99789159269
0.997994491773
0.860442036836
0.861418509915
0.997880234977
0.998001682874
0.858974230397
0.997908201137
0.998044574958
0.863022435267
0.861422905458
0.997994095033
0.997938241299
0.862529127182
0.997908393373
0.998030983511
0.86495459215
0.865865538209
0.997995847898
0.99792180586
0.864058720418
0.997865692414
0.997994355823
0.861647242179
0.864487187381
0.997867194394
0.997993606834
0.862878956885
0.997881563877
0.99804458673
0.865996925653
0.865457289177
0.997934087998
0.998006202787
0.864464469241
0.998121387798
0.99811028509
0.869935228353
0.867590953542
0.998235513037
0.997994759703
0.869676859789
0.998252152123
0.998639037723
0.871162287876
0.870985314816
0.998430793462
0.99840104477
0.870415376528
0.998129892427
0.998118040121
0.867163778613
0.868721793701
0.998036511429
0.998193681513
0.869048120761
0.998215176826
0.99825755723
0.867492998486
0.867518604114
0.998286432445
0.998229235013
0.868246173362
0.998493243855
0.998718681856
0.872276349124
0.870490839561
0.998697664499
0.998505573045
0.869095375886
0.998438279438
0.998545623558
0.870979631339
0.862461804193
0.998648189257
0.998279919735
0.866534472602
0.998326363563
0.998248865891
0.865994797963
0.858569778242
0.998339709775
0.998191960603
0.863804260336
0.998270516639
0.997943571477
0.856292912073
0.854831859998
0.998144010512
0.998100969569
0.860531333501
0.997776641806
0.998394663089
0.857522728563
0.857159702894
0.998126770496
0.998064455767
0.850865569541
0.997431037914
0.997440528818
0.851315885607
0.839972781516
0.997791749063
0.997135384133
0.845452456409
0.997714843888
0.99774888563
0.851486012908
0.841209768799
0.997965502797
0.997535813155
0.846003090081
0.997435705245