/*--------------------------------*- C++ -*----------------------------------*\
| =========                 |                                                 |
| \\      /  F ield         | OpenFOAM: The Open Source CFD Toolbox           |
|  \\    /   O peration     | Version:  v1906                                 |
|   \\  /    A nd           | Web:      www.OpenFOAM.com                      |
|    \\/     M anipulation  |                                                 |
\*---------------------------------------------------------------------------*/
FoamFile
{
    version     2.0;
    format      ascii;
    class       volVectorField;
    location    "10";
    object      force.turbine;
}
// * * * * * * * * * * * * * * * * * * * * * * * * * * * * * * * * * * * * * //

dimensions      [1 -2 -2 0 0 0 0];


internalField   nonuniform List<vector> 
28582
(
(0 0 0)
(0 0 0)
(0 0 0)
(0 0 0)
(0 0 0)
(0 0 0)
(0 0 0)
(0 0 0)
(0 0 0)
(0 0 0)
(0 0 0)
(0 0 0)
(0 0 0)
(0 0 0)
(0 0 0)
(0 0 0)
(0 0 0)
(0 0 0)
(0 0 0)
(0 0 0)
(0 0 0)
(0 0 0)
(0 0 0)
(0 0 0)
(0 0 0)
(0 0 0)
(0 0 0)
(0 0 0)
(0 0 0)
(0 0 0)
(0 0 0)
(0 0 0)
(0 0 0)
(0 0 0)
(0 0 0)
(0 0 0)
(0 0 0)
(0 0 0)
(0 0 0)
(0 0 0)
(0 0 0)
(0 0 0)
(0 0 0)
(0 0 0)
(0 0 0)
(0 0 0)
(0 0 0)
(0 0 0)
(0 0 0)
(0 0 0)
(0 0 0)
(0 0 0)
(0 0 0)
(0 0 0)
(0 0 0)
(0 0 0)
(0 0 0)
(0 0 0)
(0 0 0)
(0 0 0)
(0 0 0)
(0 0 0)
(0 0 0)
(0 0 0)
(0 0 0)
(0 0 0)
(0 0 0)
(0 0 0)
(0 0 0)
(0 0 0)
(0 0 0)
(0 0 0)
(0 0 0)
(0 0 0)
(0 0 0)
(0 0 0)
(0 0 0)
(0 0 0)
(0 0 0)
(0 0 0)
(0 0 0)
(0 0 0)
(0 0 0)
(0 0 0)
(0 0 0)
(0 0 0)
(0 0 0)
(0 0 0)
(0 0 0)
(0 0 0)
(0 0 0)
(0 0 0)
(0 0 0)
(0 0 0)
(0 0 0)
(0 0 0)
(0 0 0)
(0 0 0)
(0 0 0)
(0 0 0)
(0 0 0)
(0 0 0)
(0 0 0)
(0 0 0)
(0 0 0)
(0 0 0)
(0 0 0)
(0 0 0)
(0 0 0)
(0 0 0)
(0 0 0)
(0 0 0)
(0 0 0)
(0 0 0)
(0 0 0)
(0 0 0)
(0 0 0)
(0 0 0)
(0 0 0)
(0 0 0)
(0 0 0)
(0 0 0)
(0 0 0)
(0 0 0)
(0 0 0)
(0 0 0)
(0 0 0)
(0 0 0)
(0 0 0)
(0 0 0)
(0 0 0)
(0 0 0)
(0 0 0)
(0 0 0)
(0 0 0)
(0 0 0)
(0 0 0)
(0 0 0)
(0 0 0)
(0 0 0)
(0 0 0)
(0 0 0)
(0 0 0)
(0 0 0)
(0 0 0)
(0 0 0)
(0 0 0)
(0 0 0)
(0 0 0)
(0 0 0)
(0 0 0)
(0 0 0)
(0 0 0)
(0 0 0)
(0 0 0)
(0 0 0)
(0 0 0)
(0 0 0)
(0 0 0)
(0 0 0)
(0 0 0)
(0 0 0)
(0 0 0)
(0 0 0)
(0 0 0)
(0 0 0)
(0 0 0)
(0 0 0)
(0 0 0)
(0 0 0)
(0 0 0)
(0 0 0)
(0 0 0)
(0 0 0)
(0 0 0)
(0 0 0)
(0 0 0)
(0 0 0)
(0 0 0)
(0 0 0)
(0 0 0)
(0 0 0)
(0 0 0)
(0 0 0)
(0 0 0)
(0 0 0)
(0 0 0)
(0 0 0)
(0 0 0)
(0 0 0)
(0 0 0)
(0 0 0)
(0 0 0)
(0 0 0)
(0 0 0)
(0 0 0)
(0 0 0)
(0 0 0)
(0 0 0)
(0 0 0)
(0 0 0)
(0 0 0)
(0 0 0)
(0 0 0)
(0 0 0)
(0 0 0)
(0 0 0)
(0 0 0)
(0 0 0)
(0 0 0)
(0 0 0)
(0 0 0)
(0 0 0)
(0 0 0)
(0 0 0)
(0 0 0)
(0 0 0)
(-0.00273264755034 5.22386624924e-05 0)
(0 0 0)
(0 0 0)
(0 0 0)
(0 0 0)
(-2.1822758982e-05 2.56243586245e-07 0)
(0 0 0)
(-2.01035469683e-06 2.41091052145e-08 0)
(0 0 0)
(0 0 0)
(0 0 0)
(0 0 0)
(0 0 0)
(0 0 0)
(0 0 0)
(0 0 0)
(0 0 0)
(0 0 0)
(0 0 0)
(0 0 0)
(-0.0160230617492 0.000472283070355 0)
(0 0 0)
(0 0 0)
(0 0 0)
(-0.0282314643858 0.000630935394829 0)
(0 0 0)
(0 0 0)
(-0.0284947442746 0.00081855137235 0)
(-0.212012758009 0.00257599686206 0.0186152488668)
(-0.0757228614902 0.00169230447486 0)
(-0.689213173056 0.0153667987851 0)
(-0.0052982157294 6.10932609424e-05 0)
(-0.0709773725222 0.00158624915606 0)
(0 0 0)
(0 0 0)
(0 0 0)
(0 0 0)
(0 0 0)
(-0.0160229163658 0.000472278785148 0)
(0 0 0)
(0 0 0)
(0 0 0)
(-0.026135783478 0.00058409973505 0)
(0 0 0)
(0 0 0)
(0 0 0)
(0 0 0)
(0 0 0)
(0 0 0)
(0 0 0)
(0 0 0)
(-1.48476247744e-05 1.72951620451e-07 0)
(0 0 0)
(-9.18440047488e-06 1.0698390949e-07 0)
(-0.000148287915006 2.38257915545e-06 0)
(-0.00102998549844 1.65490355629e-05 0)
(-9.01427978227e-05 1.44834696136e-06 0)
(-0.000546430953973 8.77964330926e-06 0)
(0 0 0)
(0 0 0)
(-0.000262887168823 3.04457130729e-06 0)
(0 0 0)
(0 0 0)
(0 0 0)
(0 0 0)
(0 0 0)
(0 0 0)
(-0.012849836856 0.000245643932572 0)
(-0.000573938763453 9.27997123804e-06 0)
(-0.00287750941295 5.50079145856e-05 0)
(-3.2881959085e-05 4.8038357838e-07 0)
(-0.000185915790615 2.98715567866e-06 0)
(-3.8962843301e-06 4.67260474026e-08 0)
(-4.0643819885e-05 5.93779208378e-07 0)
(0 0 0)
(0 0 0)
(0 0 0)
(0 0 0)
(0 0 0)
(-0.000298420502051 3.45609297753e-06 0)
(0 0 0)
(0 0 0)
(0 0 0)
(0 0 0)
(0 0 0)
(0 0 0)
(0 0 0)
(0 0 0)
(0 0 0)
(0 0 0)
(0 0 0)
(0 0 0)
(0 0 0)
(0 0 0)
(0 0 0)
(0 0 0)
(0 0 0)
(0 0 0)
(0 0 0)
(0 0 0)
(-0.00483595380291 5.56046789075e-05 0)
(0 0 0)
(0 0 0)
(0 0 0)
(0 0 0)
(0 0 0)
(-0.00434368238919 5.00866207054e-05 0)
(0 0 0)
(0 0 0)
(0 0 0)
(0 0 0)
(0 0 0)
(0 0 0)
(0 0 0)
(0 0 0)
(0 0 0)
(0 0 0)
(0 0 0)
(0 0 0)
(0 0 0)
(0 0 0)
(0 0 0)
(0 0 0)
(0 0 0)
(0 0 0)
(0 0 0)
(0 0 0)
(0 0 0)
(0 0 0)
(-0.035308612493 0.000881446654925 0)
(-0.00831569863147 0.000146850368161 0)
(-0.0135270611102 0.000238879977763 0)
(-0.00992609351598 0.000186492200655 0)
(-0.018897483874 0.000471758100112 0)
(0 0 0)
(0 0 0)
(0 0 0)
(0 0 0)
(0 0 0)
(0 0 0)
(0 0 0)
(0 0 0)
(0 0 0)
(0 0 0)
(-0.00478323516431 5.51550652082e-05 0)
(0 0 0)
(-0.00772941987666 0.000145220929086 0)
(0 0 0)
(0 0 0)
(-0.127138253684 0.00315119422545 0)
(-0.0990439985322 0.00245486206706 0)
(-0.181564900393 0.00404819785787 0)
(-0.0402281077405 0.000899044296591 0)
(-0.237554427286 0.00588792214619 0)
(-0.0513647543501 0.00128227329556 0)
(-0.0947206851089 0.00211688037294 0)
(-0.269084094473 0.00666940295384 0)
(-0.939010120745 0.0232739021058 0)
(-0.376627249188 0.0083973368205 0)
(-0.367167263009 0.00818641557027 0)
(-0.502774886747 0.0124615626998 0)
(-0.200048168143 0.00446030352779 0)
(-0.502538482466 0.0124557032847 0)
(-0.0600463464596 0.00148828298911 0)
(-0.00875684728859 0.00016452431352 0)
(-0.0188550199597 0.000421384427679 0)
(-0.0184385706277 0.000412077343212 0)
(-0.0242600110842 0.000605628601885 0)
(-0.0242542763734 0.000605485440167 0)
(-0.0445118975842 0.000994781258706 0)
(-0.127087840955 0.00314994471718 0)
(-0.0989535598719 0.00245262049321 0)
(-0.173299914345 0.00386392050723 0)
(-0.038505989332 0.000860557258044 0)
(-0.0513361081955 0.00128155817096 0)
(-0.0926637094764 0.00207090972419 0)
(-0.23736433492 0.00588321059836 0)
(0 0 0)
(0 0 0)
(0 0 0)
(0 0 0)
(0 0 0)
(0 0 0)
(0 0 0)
(0 0 0)
(0 0 0)
(0 0 0)
(0 0 0)
(0 0 0)
(0 0 0)
(0 0 0)
(0 0 0)
(0 0 0)
(0 0 0)
(0 0 0)
(0 0 0)
(0 0 0)
(0 0 0)
(0 0 0)
(0 0 0)
(-0.00460163949441 5.30611014639e-05 0)
(0 0 0)
(-0.00772624639883 0.000145161305543 0)
(0 0 0)
(0 0 0)
(0 0 0)
(-0.0352763198816 0.000880640499931 0)
(-0.0127485771304 0.000225132406559 0)
(-0.00764938446927 0.00013508365025 0)
(-0.0188855329278 0.00047145975586 0)
(0 0 0)
(-0.00991707923483 0.000186322839655 0)
(0 0 0)
(0 0 0)
(0 0 0)
(0 0 0)
(0 0 0)
(0 0 0)
(0 0 0)
(0 0 0)
(0 0 0)
(0 0 0)
(0 0 0)
(0 0 0)
(0 0 0)
(0 0 0)
(0 0 0)
(0 0 0)
(0 0 0)
(0 0 0)
(0 0 0)
(0 0 0)
(0 0 0)
(0 0 0)
(0 0 0)
(0 0 0)
(0 0 0)
(0 0 0)
(0 0 0)
(0 0 0)
(0 0 0)
(0 0 0)
(0 0 0)
(0 0 0)
(0 0 0)
(0 0 0)
(0 0 0)
(0 0 0)
(-0.0153498429053 0.000294778145433 0)
(0 0 0)
(0 0 0)
(0 0 0)
(0 0 0)
(0 0 0)
(0 0 0)
(0 0 0)
(-0.00342499962459 6.57736397481e-05 0)
(0 0 0)
(0 0 0)
(0 0 0)
(0 0 0)
(0 0 0)
(0 0 0)
(0 0 0)
(0 0 0)
(0 0 0)
(0 0 0)
(0 0 0)
(0 0 0)
(0 0 0)
(0 0 0)
(0 0 0)
(0 0 0)
(0 0 0)
(0 0 0)
(0 0 0)
(0 0 0)
(0 0 0)
(0 0 0)
(0 0 0)
(0 0 0)
(0 0 0)
(0 0 0)
(0 0 0)
(-0.330300354645 0.00871305610422 0)
(-0.0078802599533 0.000151332390103 0)
(0 0 0)
(0 0 0)
(0 0 0)
(0 0 0)
(0 0 0)
(0 0 0)
(-0.072489614627 0.00193059242223 0)
(0 0 0)
(0 0 0)
(0 0 0)
(0 0 0)
(0 0 0)
(0 0 0)
(0 0 0)
(0 0 0)
(0 0 0)
(0 0 0)
(0 0 0)
(0 0 0)
(0 0 0)
(0 0 0)
(0 0 0)
(0 0 0)
(0 0 0)
(0 0 0)
(0 0 0)
(0 0 0)
(0 0 0)
(0 0 0)
(0 0 0)
(0 0 0)
(0 0 0)
(0 0 0)
(0 0 0)
(-1.55741575814 0.052718504331 0)
(-0.0448393268823 0.00153082172534 0)
(0 0 0)
(0 0 0)
(0 0 0)
(0 0 0)
(0 0 0)
(0 0 0)
(-0.34160999929 0.0114349831149 0)
(-0.00675779965635 0.000253577045668 0)
(0 0 0)
(0 0 0)
(0 0 0)
(0 0 0)
(0 0 0)
(0 0 0)
(0 0 0)
(0 0 0)
(0 0 0)
(0 0 0)
(0 0 0)
(0 0 0)
(0 0 0)
(0 0 0)
(0 0 0)
(0 0 0)
(0 0 0)
(0 0 0)
(0 0 0)
(0 0 0)
(0 0 0)
(0 0 0)
(0 0 0)
(0 0 0)
(0 0 0)
(0 0 0)
(0 0 0)
(0 0 0)
(0 0 0)
(0 0 0)
(0 0 0)
(0 0 0)
(0 0 0)
(-2.56501316412 0.0736835896945 0)
(-0.0774572864977 0.00222506886007 0)
(0 0 0)
(0 0 0)
(0 0 0)
(0 0 0)
(0 0 0)
(0 0 0)
(-2.56499483198 0.0736830630783 0)
(-0.572327597828 0.0164409105104 0)
(-0.0160229377224 0.000472279414639 0)
(0 0 0)
(0 0 0)
(0 0 0)
(0 0 0)
(0 0 0)
(0 0 0)
(-0.0469795626006 0.00134955362534 0)
(-0.0774563985946 0.00222504335381 0)
(-0.0160228606144 0.000472277141865 0)
(0 0 0)
(0 0 0)
(0 0 0)
(0 0 0)
(0 0 0)
(0 0 0)
(0 0 0)
(0 0 0)
(0 0 0)
(0 0 0)
(0 0 0)
(0 0 0)
(0 0 0)
(0 0 0)
(0 0 0)
(0 0 0)
(0 0 0)
(0 0 0)
(0 0 0)
(0 0 0)
(0 0 0)
(0 0 0)
(0 0 0)
(0 0 0)
(0 0 0)
(0 0 0)
(-0.0753731648764 0.00144091238798 0)
(-0.00219697030859 4.19983874034e-05 0)
(0 0 0)
(0 0 0)
(0 0 0)
(0 0 0)
(0 0 0)
(0 0 0)
(-0.0354476865307 0.000677655114139 0)
(-0.0674866179988 0.00129014489516 0)
(-0.0169248292688 0.000323543533378 0)
(-0.000387390578868 4.48648082147e-06 0)
(0 0 0)
(0 0 0)
(0 0 0)
(0 0 0)
(0 0 0)
(0 0 0)
(-0.00100006261689 1.61699346897e-05 0)
(-0.00201777056061 3.85727150542e-05 0)
(-0.000376287159383 4.35788895247e-06 0)
(0 0 0)
(0 0 0)
(0 0 0)
(0 0 0)
(0 0 0)
(0 0 0)
(0 0 0)
(0 0 0)
(0 0 0)
(0 0 0)
(0 0 0)
(0 0 0)
(0 0 0)
(0 0 0)
(0 0 0)
(0 0 0)
(0 0 0)
(0 0 0)
(0 0 0)
(0 0 0)
(0 0 0)
(0 0 0)
(0 0 0)
(0 0 0)
(0 0 0)
(0 0 0)
(-0.000176583130552 2.31978599627e-06 0)
(-0.00016609011055 2.18193839565e-06 0)
(-2.12133438357e-05 2.49087812645e-07 0)
(0 0 0)
(0 0 0)
(0 0 0)
(0 0 0)
(0 0 0)
(0 0 0)
(0 0 0)
(-2.35522931265e-05 2.76551835632e-07 0)
(-2.29263743948e-05 2.69202276365e-07 0)
(-2.02044857131e-06 2.42301556352e-08 0)
(0 0 0)
(0 0 0)
(0 0 0)
(0 0 0)
(0 0 0)
(0 0 0)
(0 0 0)
(0 0 0)
(0 0 0)
(0 0 0)
(0 0 0)
(0 0 0)
(0 0 0)
(0 0 0)
(0 0 0)
(0 0 0)
(0 0 0)
(0 0 0)
(0 0 0)
(0 0 0)
(0 0 0)
(0 0 0)
(0 0 0)
(0 0 0)
(0 0 0)
(0 0 0)
(0 0 0)
(0 0 0)
(0 0 0)
(0 0 0)
(0 0 0)
(0 0 0)
(0 0 0)
(0 0 0)
(0 0 0)
(0 0 0)
(-0.00342501517012 6.57739382842e-05 0)
(-0.00931013686113 0.000178791724096 0)
(-0.00207737209897 3.98938216166e-05 0)
(-0.0886409229252 0.00203878944709 0)
(-0.0181337054127 0.000348239397912 0)
(-0.0537633742984 0.00123658685562 0)
(-0.0109986470261 0.000211217847154 0)
(0 0 0)
(0 0 0)
(0 0 0)
(-0.00245409914652 4.71284820036e-05 0)
(0 0 0)
(0 0 0)
(0 0 0)
(0 0 0)
(0 0 0)
(0 0 0)
(-0.0181336162895 0.000348237686391 0)
(-0.00404616851081 7.77025574192e-05 0)
(-0.0040461275276 7.77017703783e-05 0)
(0 0 0)
(0 0 0)
(0 0 0)
(0 0 0)
(0 0 0)
(0 0 0)
(0 0 0)
(0 0 0)
(-0.0724905840956 0.00193061824177 0)
(-0.200337018272 0.00528472844613 0)
(-0.0439678924466 0.00117098263545 0)
(-0.824856833335 0.0250850682797 0)
(-0.182406210517 0.00557750053088 0)
(-0.500300560036 0.0152148508707 0)
(-0.110634690575 0.00338291686269 0)
(0 0 0)
(-0.00477987687611 9.17926815035e-05 0)
(0 0 0)
(-0.0234749958664 0.000741252397111 0)
(0 0 0)
(-0.0125123241284 0.00038652588412 0)
(0 0 0)
(-0.0152886997282 0.000398399871076 0)
(-0.0152883363006 0.000398390400715 0)
(-0.00289915718411 5.56753696649e-05 0)
(-0.182401253335 0.00557734895334 0)
(-0.0387068843553 0.00122221835421 0)
(-0.0387059271399 0.00122218812894 0)
(-0.00758982770524 0.000234462025918 0)
(0 0 0)
(0 0 0)
(0 0 0)
(-0.00342494151719 6.57725238544e-05 0)
(0 0 0)
(0 0 0)
(0 0 0)
(-0.341623930349 0.0114354494403 0)
(-0.928623991261 0.0310845691936 0)
(-0.207204603503 0.00693592443813 0)
(-2.27007573305 0.0752415082251 0)
(-0.500668835031 0.016461971527 0)
(-1.36091207601 0.0447467353238 0)
(-0.303671539547 0.00998470822987 0)
(0 0 0)
(-0.0271965226971 0.000928493594642 0)
(0 0 0)
(-0.067755441126 0.00222779622891 0)
(0 0 0)
(-0.0410964832731 0.00135125074733 0)
(0 0 0)
(-0.0762265927185 0.00255159334461 0)
(-0.0762259876421 0.00255157309041 0)
(-0.0145034196817 0.000540915004653 0)
(-0.50065932 0.0164616586731 0)
(-0.111714568553 0.00367317060299 0)
(-0.111715004377 0.00367318493285 0)
(-0.024926993411 0.000819598559115 0)
(0 0 0)
(0 0 0)
(0 0 0)
(-0.0139413820653 0.000482987055764 0)
(0 0 0)
(0 0 0)
(0 0 0)
(-7.16690207299 0.211132924722 0)
(-4.25531573768 0.122950921651 0)
(-3.85722523992 0.0860012641198 0)
(-1.81843615264 0.0405441212584 0)
(-0.572336096736 0.0164411546534 0)
(-1.55576648581 0.0446915676709 0)
(-0.347140251623 0.0099720891202 0)
(-2.3513704477 0.0524265030788 0)
(-0.250827334743 0.00559248333242 0)
(-1.10729404881 0.0246883917912 0)
(-0.118202934668 0.00263547010398 0)
(0 0 0)
(-0.0469802126627 0.00134957229929 0)
(0 0 0)
(-0.0910335183497 0.0020344771372 0)
(0 0 0)
(-0.0428830146625 0.000958377908343 0)
(0 0 0)
(0 0 0)
(0 0 0)
(0 0 0)
(0 0 0)
(0 0 0)
(0 0 0)
(0 0 0)
(0 0 0)
(0 0 0)
(0 0 0)
(0 0 0)
(0 0 0)
(0 0 0)
(0 0 0)
(0 0 0)
(0 0 0)
(0 0 0)
(0 0 0)
(0 0 0)
(0 0 0)
(0 0 0)
(0 0 0)
(0 0 0)
(0 0 0)
(0 0 0)
(0 0 0)
(0 0 0)
(0 0 0)
(0 0 0)
(0 0 0)
(0 0 0)
(0 0 0)
(0 0 0)
(0 0 0)
(0 0 0)
(0 0 0)
(0 0 0)
(0 0 0)
(0 0 0)
(0 0 0)
(0 0 0)
(0 0 0)
(-0.431445634573 0.00887950091867 0.0186153132078)
(-0.572330291452 0.0164409878885 0)
(-1.12079508957 0.0249894129917 0)
(-2.32671971986 0.051876886807 0)
(-0.11816044579 0.00263452276568 0)
(-0.24894219313 0.00555045193637 0)
(-1.55574369659 0.0446909130188 0)
(-0.572330501593 0.0164409939251 0)
(-0.347135300492 0.00997194689203 0)
(-2.325286722 0.0518449364749 0)
(-1.10552528339 0.024648955136 0)
(-0.248692811571 0.00554489168827 0)
(-0.1178790301 0.00262824827984 0)
(-0.12770405317 0.00366847749077 0)
(-0.127703556591 0.00366846322584 0)
(-0.0284945317682 0.000818545267804 0)
(-0.672212978845 0.0149877599421 0)
(-0.0703925453272 0.001573179052 0)
(-0.0703699724626 0.00157267457873 0)
(-0.0050649517411 5.84035143497e-05 0)
(0 0 0)
(0 0 0)
(0 0 0)
(-0.0259534816606 0.000580025533741 0)
(0 0 0)
(0 0 0)
(0 0 0)
(0 0 0)
(0 0 0)
(0 0 0)
(0 0 0)
(0 0 0)
(0 0 0)
(0 0 0)
(0 0 0)
(0 0 0)
(0 0 0)
(0 0 0)
(0 0 0)
(0 0 0)
(0 0 0)
(0 0 0)
(0 0 0)
(0 0 0)
(0 0 0)
(0 0 0)
(0 0 0)
(0 0 0)
(0 0 0)
(0 0 0)
(0 0 0)
(0 0 0)
(0 0 0)
(0 0 0)
(0 0 0)
(0 0 0)
(0 0 0)
(0 0 0)
(0 0 0)
(0 0 0)
(0 0 0)
(0 0 0)
(0 0 0)
(0 0 0)
(0 0 0)
(0 0 0)
(0 0 0)
(0 0 0)
(0 0 0)
(-0.0774564675991 0.00222504533606 0)
(0 0 0)
(0 0 0)
(-0.0428381148158 0.000957374456941 0)
(-0.0904263452017 0.00202090763104 0)
(0 0 0)
(0 0 0)
(-0.0469796733765 0.00134955680754 0)
(0 0 0)
(0 0 0)
(-0.0903903926406 0.00202010413948 0)
(-0.0428415018665 0.000957450152985 0)
(0 0 0)
(0 0 0)
(0 0 0)
(0 0 0)
(0 0 0)
(-0.0260043020436 0.000581161301195 0)
(0 0 0)
(0 0 0)
(0 0 0)
(0 0 0)
(0 0 0)
(0 0 0)
(0 0 0)
(0 0 0)
(0 0 0)
(0 0 0)
(0 0 0)
(0 0 0)
(0 0 0)
(0 0 0)
(0 0 0)
(0 0 0)
(0 0 0)
(0 0 0)
(0 0 0)
(0 0 0)
(0 0 0)
(0 0 0)
(0 0 0)
(0 0 0)
(0 0 0)
(0 0 0)
(0 0 0)
(0 0 0)
(0 0 0)
(0 0 0)
(0 0 0)
(0 0 0)
(0 0 0)
(0 0 0)
(0 0 0)
(0 0 0)
(0 0 0)
(0 0 0)
(0 0 0)
(0 0 0)
(0 0 0)
(0 0 0)
(0 0 0)
(0 0 0)
(0 0 0)
(0 0 0)
(0 0 0)
(0 0 0)
(0 0 0)
(0 0 0)
(0 0 0)
(0 0 0)
(0 0 0)
(0 0 0)
(0 0 0)
(0 0 0)
(0 0 0)
(0 0 0)
(0 0 0)
(0 0 0)
(0 0 0)
(0 0 0)
(0 0 0)
(0 0 0)
(0 0 0)
(0 0 0)
(0 0 0)
(0 0 0)
(0 0 0)
(0 0 0)
(0 0 0)
(0 0 0)
(0 0 0)
(0 0 0)
(0 0 0)
(0 0 0)
(0 0 0)
(0 0 0)
(0 0 0)
(0 0 0)
(0 0 0)
(0 0 0)
(0 0 0)
(0 0 0)
(0 0 0)
(0 0 0)
(0 0 0)
(0 0 0)
(0 0 0)
(0 0 0)
(0 0 0)
(0 0 0)
(0 0 0)
(0 0 0)
(0 0 0)
(0 0 0)
(0 0 0)
(0 0 0)
(0 0 0)
(0 0 0)
(0 0 0)
(0 0 0)
(0 0 0)
(0 0 0)
(0 0 0)
(0 0 0)
(0 0 0)
(0 0 0)
(0 0 0)
(0 0 0)
(0 0 0)
(0 0 0)
(0 0 0)
(0 0 0)
(0 0 0)
(0 0 0)
(0 0 0)
(0 0 0)
(0 0 0)
(0 0 0)
(0 0 0)
(0 0 0)
(0 0 0)
(0 0 0)
(0 0 0)
(0 0 0)
(0 0 0)
(0 0 0)
(0 0 0)
(0 0 0)
(0 0 0)
(0 0 0)
(0 0 0)
(0 0 0)
(0 0 0)
(0 0 0)
(0 0 0)
(0 0 0)
(0 0 0)
(0 0 0)
(0 0 0)
(0 0 0)
(0 0 0)
(0 0 0)
(0 0 0)
(0 0 0)
(0 0 0)
(0 0 0)
(0 0 0)
(0 0 0)
(0 0 0)
(0 0 0)
(0 0 0)
(0 0 0)
(0 0 0)
(0 0 0)
(0 0 0)
(0 0 0)
(0 0 0)
(0 0 0)
(0 0 0)
(0 0 0)
(0 0 0)
(0 0 0)
(0 0 0)
(0 0 0)
(0 0 0)
(0 0 0)
(0 0 0)
(0 0 0)
(0 0 0)
(0 0 0)
(0 0 0)
(-0.00311377507323 5.0044866562e-05 0)
(-0.00405985567636 6.52503571407e-05 0)
(-0.00199655917015 3.20792173874e-05 0)
(-0.00268611077603 4.31714084016e-05 0)
(-0.195010721546 0.00372802926512 0)
(-0.120276068082 0.00229932333027 0)
(-0.00282147305269 4.53469628054e-05 0)
(-0.00159198193887 2.55864735975e-05 0)
(-0.00177374391557 2.85077680571e-05 0)
(-0.000990576724456 1.59158448985e-05 0)
(-0.0166095150073 0.000317515827653 0)
(-0.0464220284548 0.000887452132138 0)
(-0.0102279583305 0.000195522786371 0)
(-0.00057101060967 9.17457080763e-06 0)
(-0.000121755366572 1.95627403923e-06 0)
(-0.000361080587841 5.8015724477e-06 0)
(-7.59905638056e-05 1.22095946475e-06 0)
(0 0 0)
(-0.00127188604701 2.05650265951e-05 0)
(0 0 0)
(-1.3730693731e-05 1.59941119659e-07 0)
(0 0 0)
(-8.40331734357e-06 9.78855119132e-08 0)
(0 0 0)
(0 0 0)
(0 0 0)
(0 0 0)
(0 0 0)
(0 0 0)
(0 0 0)
(0 0 0)
(0 0 0)
(0 0 0)
(0 0 0)
(0 0 0)
(0 0 0)
(0 0 0)
(0 0 0)
(0 0 0)
(0 0 0)
(0 0 0)
(0 0 0)
(0 0 0)
(0 0 0)
(0 0 0)
(0 0 0)
(0 0 0)
(0 0 0)
(0 0 0)
(0 0 0)
(0 0 0)
(0 0 0)
(0 0 0)
(0 0 0)
(0 0 0)
(0 0 0)
(0 0 0)
(0 0 0)
(0 0 0)
(0 0 0)
(0 0 0)
(0 0 0)
(0 0 0)
(0 0 0)
(0 0 0)
(0 0 0)
(-0.0613065787924 0.00117200079088 0)
(-0.00784282187419 0.000149927320419 0)
(-0.0135459009506 0.000258950243263 0)
(-0.000811898092754 1.30449704689e-05 0)
(-0.00134229744497 2.15670300082e-05 0)
(-0.000175201164798 2.81500109594e-06 0)
(-0.00027976375559 4.49503449078e-06 0)
(-0.0438848083512 0.000838947974402 0)
(-0.0149690905159 0.000286156649502 0)
(-0.00973184862098 0.000186038904093 0)
(-0.00106922238291 1.71794644355e-05 0)
(-0.000568692589136 9.13732658982e-06 0)
(-0.000185622452994 2.98244254947e-06 0)
(-9.33454699295e-05 1.49980509808e-06 0)
(-0.00378154099952 7.22898362617e-05 0)
(-0.00373732297968 7.14445423947e-05 0)
(-0.000783626213086 1.26703913063e-05 0)
(-0.000178963111529 2.87544523844e-06 0)
(-3.06561934835e-05 4.47866621544e-07 0)
(-3.04191345896e-05 4.44403348584e-07 0)
(-3.14981675975e-06 3.77740623518e-08 0)
(0 0 0)
(0 0 0)
(0 0 0)
(0 0 0)
(0 0 0)
(0 0 0)
(0 0 0)
(0 0 0)
(0 0 0)
(0 0 0)
(0 0 0)
(0 0 0)
(0 0 0)
(0 0 0)
(0 0 0)
(0 0 0)
(0 0 0)
(0 0 0)
(0 0 0)
(0 0 0)
(0 0 0)
(0 0 0)
(0 0 0)
(0 0 0)
(0 0 0)
(0 0 0)
(0 0 0)
(0 0 0)
(0 0 0)
(0 0 0)
(0 0 0)
(0 0 0)
(0 0 0)
(0 0 0)
(0 0 0)
(0 0 0)
(0 0 0)
(0 0 0)
(0 0 0)
(0 0 0)
(0 0 0)
(0 0 0)
(0 0 0)
(0 0 0)
(0 0 0)
(0 0 0)
(0 0 0)
(0 0 0)
(0 0 0)
(-0.00185824333812 3.55231125787e-05 0)
(0 0 0)
(0 0 0)
(-1.74025030575e-05 2.02711958945e-07 0)
(-2.29160072288e-05 2.66935664439e-07 0)
(0 0 0)
(0 0 0)
(-0.00121615104411 1.9663851667e-05 0)
(0 0 0)
(0 0 0)
(-1.40388193384e-05 1.63530301358e-07 0)
(-8.22514072758e-06 9.5810032843e-08 0)
(0 0 0)
(0 0 0)
(0 0 0)
(0 0 0)
(0 0 0)
(0 0 0)
(0 0 0)
(0 0 0)
(0 0 0)
(0 0 0)
(0 0 0)
(0 0 0)
(0 0 0)
(0 0 0)
(0 0 0)
(0 0 0)
(0 0 0)
(0 0 0)
(0 0 0)
(0 0 0)
(0 0 0)
(0 0 0)
(0 0 0)
(0 0 0)
(0 0 0)
(0 0 0)
(0 0 0)
(0 0 0)
(0 0 0)
(0 0 0)
(0 0 0)
(0 0 0)
(0 0 0)
(0 0 0)
(0 0 0)
(0 0 0)
(0 0 0)
(0 0 0)
(0 0 0)
(0 0 0)
(0 0 0)
(0 0 0)
(0 0 0)
(0 0 0)
(0 0 0)
(0 0 0)
(0 0 0)
(0 0 0)
(0 0 0)
(0 0 0)
(0 0 0)
(0 0 0)
(0 0 0)
(0 0 0)
(0 0 0)
(0 0 0)
(0 0 0)
(0 0 0)
(0 0 0)
(0 0 0)
(0 0 0)
(0 0 0)
(0 0 0)
(0 0 0)
(0 0 0)
(0 0 0)
(0 0 0)
(0 0 0)
(0 0 0)
(0 0 0)
(0 0 0)
(0 0 0)
(0 0 0)
(0 0 0)
(0 0 0)
(0 0 0)
(0 0 0)
(0 0 0)
(0 0 0)
(0 0 0)
(0 0 0)
(0 0 0)
(0 0 0)
(0 0 0)
(0 0 0)
(0 0 0)
(0 0 0)
(0 0 0)
(0 0 0)
(0 0 0)
(0 0 0)
(0 0 0)
(0 0 0)
(0 0 0)
(0 0 0)
(0 0 0)
(0 0 0)
(0 0 0)
(0 0 0)
(0 0 0)
(0 0 0)
(0 0 0)
(0 0 0)
(0 0 0)
(0 0 0)
(0 0 0)
(0 0 0)
(0 0 0)
(0 0 0)
(0 0 0)
(0 0 0)
(0 0 0)
(0 0 0)
(0 0 0)
(0 0 0)
(0 0 0)
(0 0 0)
(0 0 0)
(0 0 0)
(0 0 0)
(0 0 0)
(0 0 0)
(0 0 0)
(0 0 0)
(0 0 0)
(0 0 0)
(0 0 0)
(0 0 0)
(0 0 0)
(0 0 0)
(0 0 0)
(0 0 0)
(0 0 0)
(0 0 0)
(0 0 0)
(0 0 0)
(0 0 0)
(0 0 0)
(0 0 0)
(0 0 0)
(0 0 0)
(0 0 0)
(0 0 0)
(0 0 0)
(0 0 0)
(0 0 0)
(0 0 0)
(0 0 0)
(0 0 0)
(0 0 0)
(0 0 0)
(0 0 0)
(0 0 0)
(0 0 0)
(0 0 0)
(0 0 0)
(0 0 0)
(0 0 0)
(0 0 0)
(0 0 0)
(0 0 0)
(0 0 0)
(0 0 0)
(0 0 0)
(0 0 0)
(0 0 0)
(0 0 0)
(0 0 0)
(0 0 0)
(0 0 0)
(0 0 0)
(0 0 0)
(0 0 0)
(0 0 0)
(0 0 0)
(0 0 0)
(0 0 0)
(0 0 0)
(0 0 0)
(0 0 0)
(0 0 0)
(0 0 0)
(0 0 0)
(0 0 0)
(-6.9513727513 0.172819045988 0)
(-5.40125190433 0.133873113072 0)
(-5.58047888903 0.12442318221 0)
(-3.39680714117 0.0757357141316 0)
(-4.76614309394 0.118131578499 0)
(-4.91413404153 0.109566258991 0)
(-7.88636719708 0.196334265684 0)
(-5.39995404866 0.133840944978 0)
(-2.55112663542 0.0632311305922 0)
(-2.64352711661 0.058940471355 0)
(-2.63433324257 0.0587354833805 0)
(-3.71158088135 0.0919936518061 0)
(-3.71165682103 0.0919955340144 0)
(-3.82198890408 0.0852156295672 0)
(-1.54757647488 0.0383575667416 0)
(-3.27621046901 0.0812027474987 0)
(-1.26422727349 0.0281873981664 0)
(-2.07009489649 0.0461551418111 0)
(-2.89104918012 0.0716563049901 0)
(-1.11393605673 0.0248364829817 0)
(-1.75366434652 0.0434655723358 0)
(-0.731041516779 0.0181192814868 0)
(-0.345321453056 0.00855898942503 0)
(-0.599431517395 0.0133650137191 0)
(-0.221153555919 0.00493087237343 0)
(-0.304750373675 0.00755341205265 0)
(-0.528631033924 0.011786435674 0)
(-0.828377124749 0.0205318001181 0)
(-1.20518896676 0.0298712968174 0)
(-1.54741587032 0.038353586066 0)
(-1.61112656656 0.0359219160829 0)
(-0.595686919628 0.0132815236138 0)
(-2.25140283456 0.0558023050174 0)
(-0.828298101332 0.0205298414776 0)
(-0.866552944202 0.0193207925368 0)
(-0.569297060593 0.014110352769 0)
(-0.163105986005 0.004042675012 0)
(-0.172103452388 0.00383724401457 0)
(-0.282619597979 0.00630132833303 0)
(-0.237318218755 0.00588206758287 0)
(-0.391273334241 0.00969793304304 0)
(-0.411242634874 0.00916912657654 0)
(-0.0352688730585 0.000880454596922 0)
(-0.127035747476 0.00314865355054 0)
(-0.0296183413238 0.00066193023578 0)
(-0.0802228997 0.00179287429815 0)
(-0.112110696662 0.00277872764251 0)
(-0.0261109299464 0.000583544291926 0)
(-0.0399641227303 0.000997667135876 0)
(-0.00875013802897 0.000164398259439 0)
(0 0 0)
(-0.00765596842563 0.000135199919063 0)
(0 0 0)
(0 0 0)
(-0.00509818109291 5.87866790914e-05 0)
(-0.00991511814075 0.00018628599447 0)
(-0.0274643728781 0.000685622512294 0)
(-0.0600014152501 0.00148716934343 0)
(-0.062424303072 0.00139509951618 0)
(-0.0125676278154 0.00022193694762 0)
(-0.0873030363254 0.00216385561357 0)
(-0.018875237535 0.000471202740959 0)
(-0.0203089227398 0.000453877206378 0)
(-0.00483032119416 5.55399141447e-05 0)
(0 0 0)
(0 0 0)
(0 0 0)
(0 0 0)
(0 0 0)
(-0.00396546294098 4.57254054165e-05 0)
(0 0 0)
(0 0 0)
(0 0 0)
(0 0 0)
(0 0 0)
(0 0 0)
(0 0 0)
(0 0 0)
(0 0 0)
(0 0 0)
(0 0 0)
(0 0 0)
(0 0 0)
(0 0 0)
(0 0 0)
(0 0 0)
(0 0 0)
(0 0 0)
(0 0 0)
(0 0 0)
(0 0 0)
(0 0 0)
(0 0 0)
(0 0 0)
(0 0 0)
(0 0 0)
(0 0 0)
(0 0 0)
(0 0 0)
(0 0 0)
(0 0 0)
(0 0 0)
(0 0 0)
(0 0 0)
(0 0 0)
(0 0 0)
(0 0 0)
(0 0 0)
(0 0 0)
(0 0 0)
(0 0 0)
(0 0 0)
(0 0 0)
(0 0 0)
(0 0 0)
(0 0 0)
(0 0 0)
(0 0 0)
(0 0 0)
(0 0 0)
(0 0 0)
(0 0 0)
(0 0 0)
(0 0 0)
(0 0 0)
(0 0 0)
(0 0 0)
(0 0 0)
(0 0 0)
(0 0 0)
(0 0 0)
(0 0 0)
(0 0 0)
(0 0 0)
(0 0 0)
(0 0 0)
(0 0 0)
(0 0 0)
(0 0 0)
(0 0 0)
(0 0 0)
(0 0 0)
(0 0 0)
(0 0 0)
(0 0 0)
(0 0 0)
(0 0 0)
(0 0 0)
(0 0 0)
(0 0 0)
(0 0 0)
(0 0 0)
(0 0 0)
(0 0 0)
(0 0 0)
(0 0 0)
(0 0 0)
(0 0 0)
(0 0 0)
(0 0 0)
(0 0 0)
(0 0 0)
(0 0 0)
(0 0 0)
(0 0 0)
(0 0 0)
(0 0 0)
(0 0 0)
(0 0 0)
(0 0 0)
(0 0 0)
(0 0 0)
(0 0 0)
(0 0 0)
(0 0 0)
(0 0 0)
(0 0 0)
(0 0 0)
(0 0 0)
(0 0 0)
(0 0 0)
(0 0 0)
(0 0 0)
(0 0 0)
(0 0 0)
(0 0 0)
(0 0 0)
(0 0 0)
(0 0 0)
(0 0 0)
(0 0 0)
(0 0 0)
(0 0 0)
(0 0 0)
(0 0 0)
(0 0 0)
(0 0 0)
(0 0 0)
(0 0 0)
(0 0 0)
(0 0 0)
(0 0 0)
(0 0 0)
(0 0 0)
(0 0 0)
(0 0 0)
(0 0 0)
(0 0 0)
(0 0 0)
(0 0 0)
(0 0 0)
(0 0 0)
(0 0 0)
(0 0 0)
(0 0 0)
(0 0 0)
(0 0 0)
(0 0 0)
(0 0 0)
(0 0 0)
(0 0 0)
(0 0 0)
(0 0 0)
(0 0 0)
(0 0 0)
(0 0 0)
(0 0 0)
(0 0 0)
(0 0 0)
(0 0 0)
(0 0 0)
(0 0 0)
(0 0 0)
(0 0 0)
(0 0 0)
(0 0 0)
(0 0 0)
(0 0 0)
(-1.20521604516 0.029871967971 0)
(-1.54772585221 0.0383612691442 0)
(-1.61057687356 0.0359096600465 0)
(-0.598733034786 0.0133494402476 0)
(-2.25166517583 0.0558088072954 0)
(-0.863920675941 0.0192621030945 0)
(-0.828339266468 0.020530861779 0)
(-1.54738031889 0.0383527049034 0)
(-3.27568319686 0.0811896787573 0)
(-2.0611730161 0.0459562182471 0)
(-1.25107467613 0.0278941459113 0)
(-2.89082639872 0.071650783226 0)
(-1.75343330138 0.04345984575 0)
(-1.1071473443 0.0246851208458 0)
(-0.569288501626 0.0141101406301 0)
(-0.163117111214 0.00404295075666 0)
(-0.283366034891 0.00631797100076 0)
(-0.170914359241 0.00381073181799 0)
(-0.237328457815 0.0058823213638 0)
(-0.409291879935 0.00912563225608 0)
(-0.39126699416 0.0096977759005 0)
(-0.730934102575 0.0181166191644 0)
(-0.345285155157 0.00855808976087 0)
(-0.594126822624 0.0132467394603 0)
(-0.219682128831 0.00489806521758 0)
(-0.828242105292 0.0205284535838 0)
(-0.30472213437 0.00755271212537 0)
(-0.525168409942 0.0117092324978 0)
(-1.54727027675 0.038349977446 0)
(-3.27549850571 0.0811851010817 0)
(-2.05516543721 0.0458222723802 0)
(-1.2511593884 0.0278960346688 0)
(-2.8903831906 0.0716397980596 0)
(-1.75337884497 0.0434584960167 0)
(-1.10601265137 0.0246598215645 0)
(-1.20491823737 0.0298645866348 0)
(-1.54705623283 0.0383446722454 0)
(-1.60420260005 0.035767538302 0)
(-0.594131848493 0.0132468515179 0)
(-2.25099619033 0.0557922261078 0)
(-0.828093520176 0.0205247708168 0)
(-0.862922878932 0.0192398560649 0)
(-0.730813132424 0.0181136208502 0)
(-0.345263803571 0.00855756054961 0)
(-0.594031969675 0.013244624605 0)
(-0.219597847208 0.00489618606205 0)
(-0.82819080646 0.020527182113 0)
(-0.304666227413 0.0075513264395 0)
(-0.524728137866 0.0116994161266 0)
(-0.56911231354 0.0141057737077 0)
(-0.163053243218 0.00404136775189 0)
(-0.281487471952 0.00627608628378 0)
(-0.171219849222 0.00381754306776 0)
(-0.391120191261 0.00969413730683 0)
(-0.237254610063 0.0058804910051 0)
(-0.409092094183 0.00912117780341 0)
(-0.268796738147 0.0066622806632 0)
(-0.938280263843 0.0232558121856 0)
(-0.361263019628 0.0080547736871 0)
(-0.360913228628 0.00804697469525 0)
(-0.5021937215 0.0124471581872 0)
(-0.502217856994 0.0124477563992 0)
(-0.193703989305 0.00431885277863 0)
(-0.126961389104 0.00314681053582 0)
(-0.0988840768253 0.00245089831622 0)
(-0.171286617994 0.00381903175418 0)
(-0.0377027147677 0.000842605148037 0)
(-0.237215415834 0.00587951955376 0)
(-0.0512832766673 0.00128023928103 0)
(-0.0902319289287 0.00201656268789 0)
(-0.126951417909 0.00314656339407 0)
(-0.0988885485744 0.00245100915108 0)
(-0.170902386485 0.00381046487166 0)
(-0.0377198392686 0.000842987857682 0)
(-0.237198741053 0.00587910625979 0)
(-0.0512866506607 0.00128032350963 0)
(-0.0901418555162 0.00201454966783 0)
(-0.0599644165071 0.00148625230845 0)
(-0.00874462828534 0.000164294741957 0)
(-0.017823223665 0.000398325163248 0)
(-0.0178434268222 0.000398776676736 0)
(-0.0242219877248 0.000604679384099 0)
(-0.0242249327248 0.000604752903284 0)
(-0.0426828399238 0.000953904271195 0)
(0 0 0)
(-0.0352485824616 0.000879948061053 0)
(-0.00760536210344 0.000134306241049 0)
(-0.0125159091666 0.000221023626568 0)
(-0.00990895807895 0.00018617025876 0)
(-0.0188651984688 0.000470952125014 0)
(0 0 0)
(0 0 0)
(0 0 0)
(0 0 0)
(0 0 0)
(0 0 0)
(0 0 0)
(0 0 0)
(0 0 0)
(0 0 0)
(-0.0044645065371 5.14798333591e-05 0)
(0 0 0)
(-0.00771612402215 0.000144971125559 0)
(0 0 0)
(0 0 0)
(0 0 0)
(0 0 0)
(0 0 0)
(0 0 0)
(0 0 0)
(0 0 0)
(0 0 0)
(0 0 0)
(0 0 0)
(0 0 0)
(0 0 0)
(0 0 0)
(0 0 0)
(0 0 0)
(0 0 0)
(0 0 0)
(0 0 0)
(0 0 0)
(0 0 0)
(0 0 0)
(0 0 0)
(0 0 0)
(0 0 0)
(0 0 0)
(0 0 0)
(0 0 0)
(0 0 0)
(0 0 0)
(0 0 0)
(0 0 0)
(0 0 0)
(0 0 0)
(0 0 0)
(0 0 0)
(0 0 0)
(0 0 0)
(0 0 0)
(0 0 0)
(0 0 0)
(0 0 0)
(0 0 0)
(0 0 0)
(0 0 0)
(0 0 0)
(0 0 0)
(0 0 0)
(0 0 0)
(0 0 0)
(0 0 0)
(0 0 0)
(0 0 0)
(0 0 0)
(0 0 0)
(0 0 0)
(0 0 0)
(0 0 0)
(0 0 0)
(0 0 0)
(0 0 0)
(0 0 0)
(0 0 0)
(0 0 0)
(0 0 0)
(0 0 0)
(0 0 0)
(0 0 0)
(0 0 0)
(0 0 0)
(0 0 0)
(0 0 0)
(0 0 0)
(0 0 0)
(0 0 0)
(0 0 0)
(0 0 0)
(0 0 0)
(0 0 0)
(0 0 0)
(0 0 0)
(0 0 0)
(0 0 0)
(0 0 0)
(0 0 0)
(0 0 0)
(0 0 0)
(0 0 0)
(0 0 0)
(0 0 0)
(0 0 0)
(0 0 0)
(0 0 0)
(0 0 0)
(0 0 0)
(0 0 0)
(0 0 0)
(0 0 0)
(0 0 0)
(0 0 0)
(0 0 0)
(0 0 0)
(0 0 0)
(0 0 0)
(0 0 0)
(0 0 0)
(0 0 0)
(0 0 0)
(0 0 0)
(0 0 0)
(0 0 0)
(0 0 0)
(0 0 0)
(0 0 0)
(0 0 0)
(0 0 0)
(0 0 0)
(0 0 0)
(0 0 0)
(0 0 0)
(0 0 0)
(0 0 0)
(0 0 0)
(0 0 0)
(0 0 0)
(0 0 0)
(0 0 0)
(0 0 0)
(0 0 0)
(0 0 0)
(0 0 0)
(0 0 0)
(0 0 0)
(0 0 0)
(0 0 0)
(0 0 0)
(0 0 0)
(0 0 0)
(0 0 0)
(0 0 0)
(0 0 0)
(0 0 0)
(0 0 0)
(0 0 0)
(0 0 0)
(0 0 0)
(0 0 0)
(0 0 0)
(0 0 0)
(0 0 0)
(0 0 0)
(0 0 0)
(0 0 0)
(0 0 0)
(0 0 0)
(0 0 0)
(0 0 0)
(0 0 0)
(0 0 0)
(0 0 0)
(0 0 0)
(0 0 0)
(0 0 0)
(0 0 0)
(0 0 0)
(0 0 0)
(0 0 0)
(0 0 0)
(0 0 0)
(0 0 0)
(0 0 0)
(0 0 0)
(0 0 0)
(0 0 0)
(0 0 0)
(0 0 0)
(0 0 0)
(-0.0274692387846 0.000685743985121 0)
(-0.0600110162352 0.00148740730932 0)
(-0.0620122173523 0.0013858899526 0)
(-0.0125541548876 0.000221699023605 0)
(-0.0873120597863 0.0021640792652 0)
(-0.0202106743626 0.000451681486815 0)
(-0.0188796270278 0.000471312320562 0)
(-0.0352689221304 0.000880455821957 0)
(-0.12703122089 0.00314854135652 0)
(-0.0797222047753 0.00178168443759 0)
(-0.0294833278092 0.000658912864666 0)
(-0.112107561997 0.00277864994807 0)
(-0.0399636062135 0.000997654241516 0)
(-0.0259720338255 0.000580440149764 0)
(-0.00483142093358 5.55525591491e-05 0)
(0 0 0)
(0 0 0)
(0 0 0)
(0 0 0)
(-0.00395695878901 4.5627344786e-05 0)
(0 0 0)
(-0.00875093342452 0.000164413203391 0)
(0 0 0)
(-0.0076424341229 0.000134960911203 0)
(0 0 0)
(-0.00991548835963 0.00018629295017 0)
(0 0 0)
(-0.00508298987151 5.86115104496e-05 0)
(-0.035264607703 0.000880348116291 0)
(-0.127024116361 0.00314836526673 0)
(-0.0797903482076 0.00178320735198 0)
(-0.0294950868914 0.000659175664395 0)
(-0.112086662856 0.00277813195092 0)
(-0.0399625787201 0.000997628591098 0)
(-0.0260423643173 0.000582011942005 0)
(-0.0274625518342 0.000685577051626 0)
(-0.0599907543736 0.00148690510751 0)
(-0.0622048841673 0.00139019579771 0)
(-0.0125960850536 0.000222439485782 0)
(-0.0872855253182 0.00216342159326 0)
(-0.0188746803038 0.000471188830201 0)
(-0.0203004451207 0.000453687742953 0)
(-0.00874993330038 0.000164394412983 0)
(0 0 0)
(-0.00765175037435 0.000135125430748 0)
(0 0 0)
(-0.00991522070297 0.000186287921416 0)
(0 0 0)
(-0.00510131153086 5.88227758969e-05 0)
(-0.00483060561751 5.55431844963e-05 0)
(0 0 0)
(0 0 0)
(0 0 0)
(0 0 0)
(0 0 0)