/*--------------------------------*- C++ -*----------------------------------*\
| =========                 |                                                 |
| \\      /  F ield         | OpenFOAM: The Open Source CFD Toolbox           |
|  \\    /   O peration     | Version:  v1906                                 |
|   \\  /    A nd           | Web:      www.OpenFOAM.com                      |
|    \\/     M anipulation  |                                                 |
\*---------------------------------------------------------------------------*/
FoamFile
{
    version     2.0;
    format      ascii;
    class       volScalarField;
    location    "10";
    object      p;
}
// * * * * * * * * * * * * * * * * * * * * * * * * * * * * * * * * * * * * * //

dimensions      [1 -1 -2 0 0 0 0];


internalField   nonuniform List<scalar> 
28582
(
17099.4010263
17098.5219776
12201.8406691
12200.8562264
7305.0781461
7303.55017488
3633.74946033
3631.63409147
43.2623667164
48.5509333318
-27.1173396283
3632.99545016
648.905995235
649.831809125
3630.1740233
3630.9316891
649.553525983
1793.68077952
1793.72195775
17098.6638197
17097.9045912
17097.8698732
12200.7751916
12200.1181324
12199.9071275
7303.48045571
7302.04206748
3630.35942986
3629.23409981
50.3845507854
-27.1451830526
-27.0856417502
3630.53536207
3632.1079981
647.117116137
647.771062018
1798.34150278
3628.66912872
3629.45306721
3628.77135186
1793.20488687
654.515447787
1792.98364595
1791.45468027
44.8478308026
49.1825791768
-22.8499564675
-22.8490058273
46.7723610657
-22.8787370145
1799.04794126
1799.95900294
649.219023249
649.011182151
1799.91156895
649.501593366
1799.07153272
1799.44990919
1797.46809647
649.71957888
650.326383196
1798.52316016
650.061145339
1798.47349181
1795.80180702
1796.11528628
649.45588809
650.328068574
1797.25291669
650.281926351
1794.72168764
1793.33839255
650.104113177
650.725827117
1794.57531205
649.509514474
650.300098584
1793.80019136
1794.04606131
651.105019232
651.734511392
1795.06968264
651.984726639
1795.84080975
650.992193536
42.6589095857
-23.0613066964
42.7332012571
43.4026875843
-23.1966387256
-23.1066432434
50.5439444435
-22.8391432769
-22.8403967624
51.8171090392
-22.8450015289
52.0066792107
-22.8591817102
1797.00355061
1796.34666313
647.527303753
647.072643778
1796.28102299
1797.01027696
647.470442185
1796.89179465
1795.76428326
647.67855028
647.872929485
1796.12206295
1796.63577506
647.630772873
647.87523693
648.137923287
1798.240564
1797.61954901
647.975525901
1797.44827019
647.729206896
1793.18775837
651.121788018
651.386146142
1793.13210105
652.357541113
1793.31661161
652.192962349
1793.13204602
1793.49656693
653.577233884
654.011952852
1793.48391993
1793.18413464
653.151554063
1791.87482826
1792.71648404
651.350536455
651.507884148
651.715740784
1792.6505308
651.866407867
652.14738873
652.884275001
1791.51357159
1792.51217315
653.525056449
1792.54876268
652.641048154
7301.39308261
3628.3284599
53.5437550894
-27.0688063906
3632.12331983
648.668727661
3628.60034933
3628.80322309
655.072113249
653.976631987
658.035310966
3628.91157125
3628.88829468
659.30112435
660.974282656
43.5061396034
53.3702886309
55.3226679545
-22.8739907355
-22.8492964499
-22.8696332792
57.0392206226
58.0797771954
1797.10703374
1798.14095012
648.499413695
649.1737411
1797.25905643
649.098506941
1798.20795381
1793.00280005
1793.18346516
655.393125493
654.754423867
1792.7997931
1793.1466362
655.387458978
1793.0012107
1791.89840723
654.449904825
655.288558424
1792.77275581
655.445857405
1792.43088674
1793.22145501
1793.52437333
657.518881916
656.698388409
1793.44648183
656.462549249
1792.96929592
1793.68431491
1794.01926481
658.586906108
660.166333011
1793.64643175
659.310510766
1794.34097832
1793.5693442
1794.17832772
660.083804301
660.688406415
1793.26327305
659.777121379
1794.38160654
3661.14829889
3651.27781537
3634.04589973
3628.62542706
22.4804389949
32.2421992319
26.3214050216
32.8406618663
32.4162780301
-27.0760698136
-27.3149264709
-27.0764532309
-27.2308406888
-27.0796317829
-27.1441062171
3663.74766538
3663.43779872
640.097457995
640.02535498
3663.98575512
643.85232205
3662.11157191
3659.67397859
640.655922029
643.485894574
3656.04147971
3656.48048583
3649.41001044
644.615555418
651.442552074
645.580068511
641.801350422
3638.9604799
3627.91267554
648.606884689
626.899374927
637.919520423
624.549763003
3643.29876015
3638.81655734
644.023861733
639.164065851
634.597409678
3625.24350142
3630.87249026
3624.12042306
635.941320079
624.523294371
632.068528557
623.671854344
630.770408555
623.464715897
17.6763796695
17.2675360766
21.1617574436
-23.128085486
-23.0983175691
-23.1147580321
-23.078766255
-23.0631292647
-23.0610207324
-23.03107307
-23.0096289056
17.678473255
19.4681379623
28.0411925157
24.500087791
28.8126232469
-23.0848845846
-23.0498094918
-23.0558100101
-23.005330894
35.1491664609
32.441712875
35.23757379
-22.9639445792
-22.905060166
-22.9341546227
-22.8932635625
29.5466956196
30.3361024418
-22.9906316363
-22.9459711762
-22.91867935
35.0836666585
32.9150431374
34.4228379105
-22.9120052248
-22.882008448
-22.9067568094
-22.8888208303
1829.36623469
1831.1026226
637.307553598
639.847684628
1831.29610162
637.067635008
1829.22498752
1829.45149519
1831.30126958
639.765485118
636.951819212
1831.32888558
1829.49511517
636.907312751
1834.44060856
1832.89826453
643.366121992
647.848106688
1833.12248282
1833.74506609
647.352767119
1829.42673201
1831.10634372
637.315827128
641.574064487
1829.43138564
1830.71906269
638.128707119
1829.11179814
1828.01305533
642.78546268
640.68045764
1829.77180614
1828.34136286
639.426027117
1829.90282711
1832.24381406
648.373550846
645.431448332
1832.27517611
1831.13938785
648.53960895
1826.15134142
1824.29498288
651.367044874
649.042058043
1829.85970404
1819.48209388
650.20543971
1826.47251622
1826.09525328
645.970307972
645.995917813
1829.08854479
1822.25957274
647.696095655
1821.5558532
1809.27497984
645.272105212
644.72776231
1814.27371002
1816.62429409
647.588795057
1799.22456481
1815.30000841
642.772748102
645.20174075
1803.86666751
1810.25269254
639.312647132
1788.03866584
1779.56620105
634.455447667
625.555698266
1791.57479973
631.84608858
1777.48327755
1795.25364703
1800.98537819
641.237557788
634.046413896
1805.42434338
1791.93970926
636.397851781
1785.27820725
1775.77047326
624.735241359
629.194773602
1783.39758341
630.307182594
1776.20052422
1813.7424287
1822.44514017
643.221542965
642.419151648
1817.81489269
1818.71948786
640.950948121
1808.06391184
1805.22643275
641.530408432
637.098830076
1812.08069511
1801.80870294
639.097484577
1805.13832132
1797.00392796
635.727112169
636.613570421
1799.16773554
1802.76834234
637.739414697
1787.96785695
1797.71550273
632.535394742
634.467236491
1789.65668608
1795.11497824
631.469542798
1781.42964876
1775.71468123
628.474969876
624.558998242
1782.14403914
627.944680897
1776.2693796
1786.51151885
1791.17373939
633.178683707
629.380679155
1792.96119139
1785.28496933
630.400406949
1780.90178315
1777.69770018
624.099532772
626.280892258
1780.50226857
627.135561354
1776.97563198
1783.05606928
1789.56324143
628.167611919
629.496184085
1784.17831305
1787.97278227
627.000702239
1778.37710454
625.418628316
1780.27690174
17097.5649382
17096.6524388
17096.309894
17098.1885894
17098.7493865
17107.804646
12199.8854576
12199.0249747
12198.6298546
12199.9702739
12200.0528273
12209.0787553
18310.9544633
18315.1643351
17088.4450416
17093.5143418
17097.489648
17100.2838165
17105.2081157
17087.7272863
18312.5645784
18315.6728035
17093.2642182
17094.4920908
17095.0715277
17094.6610608
17093.1903167
17103.403677
17093.4277953
17092.7969974
17093.2231754
17094.033152
17094.6827533
17094.6931164
17094.5489048
17106.1213988
17096.5636496
17095.3340566
17094.9753747
17095.308532
17095.6972472
17095.569255
17095.3505557
17106.7847139
17096.4920139
17096.7043225
17097.0039752
17107.2358197
13410.370952
13414.7877473
12194.1277353
12196.8194162
12199.6216001
12203.8469161
12240.2066559
12127.5420428
13413.7946052
13417.1904818
12198.2139931
12198.8482614
12197.5594081
12195.1133819
12189.7229615
12183.6312408
12194.5550848
12195.3061118
12196.2475909
12196.6700193
12196.0419534
12194.9518015
12193.0396006
12202.28001
12198.3354043
12197.5651891
12197.5069945
12197.7094788
12197.553867
12196.6030528
12194.7155461
12204.9534527
12198.4843489
12198.1335431
12197.4852179
12207.5824887
8509.23096395
8516.31003516
7297.8134
7299.51694242
7300.12259769
7299.43099264
7307.76487285
7225.49760689
8513.26788223
8519.71482319
7296.0310891
7297.41171344
7295.77346036
7290.72794343
7278.94878708
7266.22845555
7296.23240045
7297.67694547
7297.86642012
7297.08450308
7295.60638913
7292.96828501
7286.64958564
7298.55825929
7300.41267486
7300.69728804
7300.04167464
7299.30497414
7298.72251765
7298.06723081
7296.0648506
7291.30240907
7302.08234045
7302.57935451
7301.20185803
7300.4012305
7299.80348182
7298.54329748
7295.58453287
7306.32157632
7300.63842339
7298.95444974
7308.87964142
3612.52507943
3621.69251762
3626.39694498
3629.11252289
3628.83494217
3626.89466897
3626.26307975
3601.9532472
3604.99475383
3614.70509149
3622.67289278
3626.04063675
3627.16668809
3624.7006998
3620.75626459
3616.32632285
3604.42320566
3619.16302883
3616.27227951
3621.0185183
3624.87809341
3626.36806819
3624.4851714
3621.43420667
3619.83762823
3618.01587167
3617.29446568
3623.39916041
3626.8662588
3627.46143362
3626.65209736
3625.19921336
3623.99759634
3623.31053076
3620.96434301
3621.01574893
3630.34527331
3628.89779049
3627.47068391
3626.95609728
3625.79189931
3624.23301968
3623.9021976
3627.84547709
3627.14356507
3627.34951745
51.3175181902
49.1195471345
45.5507214394
44.8899183274
47.5913956145
54.335918057
60.5629650082
61.5559303587
37.5181909516
44.8657198868
52.8353489034
51.0166491517
47.9162220178
48.4284592768
52.9950455623
58.9935040413
61.5966505008
60.0096558091
36.3680036846
43.1066452575
49.198183018
48.6114488374
49.0006215225
52.9607556693
58.7356183112
61.7286471505
61.5306050835
59.5624178929
40.7564382
45.0416977931
45.7624560332
47.9844894377
52.4054371212
57.1677288921
59.6895924372
60.4603149339
60.477930409
44.1975572501
47.037110423
51.0835363172
54.3284988775
56.7927120687
58.8289154393
60.9279228638
56.6902534584
58.439326736
60.3554025652
-27.4353381363
-27.1336291906
-27.0544513974
-27.0689985978
-27.1096620092
-27.1194563692
-27.1160468438
-27.0658045051
-27.2434224617
-27.8298769324
-27.8049419745
-27.6609275574
-27.3435528431
-27.2488921512
-27.2562529575
-27.3407163422
-27.2752681794
-27.1136170246
-27.2383115877
-27.6799606297
-27.7760389029
-27.0567527013
-27.120439043
-27.0434198914
-27.1675922485
-27.1231604719
-27.5920216287
-27.1172653476
-27.2901083892
-27.7131960458
-27.0791673102
-27.1748082228
-27.1042792744
-27.2235486026
-27.0756228474
-27.309793733
-27.1207032156
-27.2832041687
-27.7285117816
-27.1114942226
-27.1378283316
-27.2418756113
-27.1176572501
-27.1172211379
-27.2636792066
-27.7424283969
-27.1034010179
-27.2800176435
-27.8306984817
18313.2452
18311.1623161
18313.4203461
15861.0505287
15863.5516374
15861.5802804
15863.6516245
18316.2641454
18315.5133538
18316.8990302
15865.4717378
15862.9200153
15865.2150844
15865.0928509
18313.9547931
18314.8431216
18315.1136642
15863.0894482
15864.9144467
15865.1793693
15866.1255118
18316.953142
18316.1109416
18317.358204
15866.5787365
15867.1324413
15867.549986
15868.8961344
13412.9860725
13411.5389691
13413.6015152
10959.4099708
10962.7240289
10960.7835919
10963.790472
13416.0384103
13414.9806486
13417.107316
10965.0831019
10966.5421401
10965.8294952
10966.8557626
13415.6795278
13415.5108439
13416.9224459
10963.5271504
10966.2784465
10965.6389967
10967.1454232
13418.1986883
13418.3707116
13422.4622319
10968.0104794
10965.7503458
10968.3849571
10972.072129
8513.32645723
8510.73227215
8514.57767411
6060.28660951
6065.14779323
6061.60514952
6066.03051825
8518.25408921
8517.46410524
8519.3057928
6068.79750279
6071.19743495
6069.42661092
6072.83509031
8516.92774717
8515.79147183
8517.90633394
6063.68375676
6067.83381162
6065.97883402
6069.10216618
8517.38567389
8519.65994006
8522.45374673
6070.86900614
6071.81559062
6071.62329814
6074.53603945
3605.4432261
3606.82204292
637.992348588
640.043726379
3618.01801728
3613.40046752
3618.68038483
643.851489028
649.275290695
645.654354676
651.360709338
3624.44515946
3622.13298004
3624.54101979
649.545121959
647.368382254
651.388933585
649.089019492
3628.02261855
3626.12922429
3627.47359299
647.242643219
647.82027974
648.927520541
649.824084095
3629.59703441
3628.18738564
3628.06811456
648.289455457
650.316396059
650.261681126
651.812813165
3627.41662624
3626.86147702
3625.11670536
650.889618333
651.511748741
651.793531831
651.158480595
3626.87130083
3623.91914334
3623.20368436
651.74233895
657.114855077
651.739004991
656.92873787
3618.36020843
3622.10623711
3613.89540172
658.999178232
660.090958066
658.332602209
656.334018894
3577.73809788
3597.41325182
3598.09069309
659.820404691
618.028904727
655.062404652
637.514514847
3619.40122851
3612.04047536
620.273348203
620.10977761
620.345764635
626.13004936
3608.98781248
3610.97580193
3613.54708043
625.285827232
641.151560593
631.204760285
644.963818685
3619.48612634
3617.34950409
3620.86404015
646.159740619
651.700210736
648.326974163
651.137909478
3624.78361845
3623.62857425
3625.63755983
651.697120314
649.889395815
651.017758447
650.713479554
3626.91672776
3627.04382554
3627.26336037
649.799149558
650.601957742
651.047525159
651.611289778
3626.20274407
3626.4633927
3624.64859583
651.059087302
652.187499904
651.571426047
651.86928591
3622.7308888
3622.53789634
3620.54452598
651.792519303
651.344949503
651.663305698
653.923083199
3618.85733367
3619.30319778
3618.25587236
652.241694642
656.983024335
655.598489198
658.526364917
3611.86751241
3616.5057365
3613.96538994
658.06444845
655.858670759
658.662236845
655.989846558
3621.04963287
3611.12401029
3629.18152245
654.538606398
639.783234067
654.883133731
639.082667043
3615.68144896
3619.87630046
3618.85150232
620.957049642
628.107564831
622.838481904
632.669716083
3618.60287429
3620.53016924
3622.70372652
633.066824022
645.789784778
636.902751073
647.004168558
3623.14540465
3624.33850727
3625.43775817
648.606227039
650.464027189
648.537082005
649.271724147
3625.98220855
3626.22040263
3626.4037811
650.246349653
650.617226888
648.802558458
648.884237759
3625.76195738
3626.14678276
3625.38700298
650.839421301
651.089062173
649.03880799
649.75092444
3622.85126907
3624.25152388
3623.0957045
651.211382167
651.95654838
650.261818077
652.796974761
3620.44217185
3622.19659655
3621.8181812
651.769393396
655.483130274
653.782064589
658.59092103
3619.21510205
3621.51535352
3620.61562394
657.345491764
658.965641312
659.801592396
659.092232959
3616.89750849
3619.45088176
3618.65947499
658.813795877
656.252179134
658.601590417
657.055072214
3631.87567102
3619.24288252
3631.81266492
655.315081566
638.608273238
656.615276216
635.975823745
623.643927749
633.801731886
3625.63850937
3627.74203364
637.751641015
647.079514284
646.581491023
3627.35455554
3628.80281944
3629.00389974
648.314165663
648.593222535
647.399327142
647.735945519
3627.13879013
3628.79820288
3628.23570874
648.182415553
648.608083858
647.788514524
648.903128102
3625.98912009
3627.64023417
3626.94884951
648.865077354
649.818157192
649.12094578
649.576157408
3624.48065548
3626.32281393
3625.95279761
650.490849551
653.215972806
650.443094651
653.757149019
3623.70271952
3625.84300271
3625.56180967
654.281601058
658.885682563
654.820539919
657.784695183
3622.16718158
3624.94739339
3623.80740297
659.634276668
658.951298147
658.159530194
658.546168793
3620.37383454
3622.66721643
3622.14249218
658.610078304
657.481463497
658.737974077
658.840621512
3631.86616581
3622.4775471
3631.988652
657.313751815
634.936617825
659.031791997
633.139865098
3629.74639471
3631.40760242
647.995925329
649.127713385
649.644453435
3627.97624601
3630.3096224
3629.16689443
649.055451531
649.084993897
649.096605016
649.319277442
3627.17744826
3628.5828769
3628.22379122
650.177108865
654.691454346
650.598234262
655.019081732
3626.38791182
3627.93147719
3627.28031239
655.568645036
656.632879062
655.167478257
656.20097487
3625.03674709
3626.70160474
3626.11932563
657.333450009
658.778418539
657.293998346
659.204348569
3623.8026394
3625.59527063
3625.34380034
659.031364361
659.321077531
659.323690028
659.829639219
3632.77855099
3625.42051908
3634.24052175
659.652457311
633.362764374
660.253550889
635.104069094
3628.09747451
656.638144767
3627.51821565
657.561357382
659.102831987
3627.02539841
659.250401096
659.619127984
3636.1669654
660.154712331
635.882866803
-23.0963157002
-23.13671993
-23.0355642546
-23.0736441067
48.0132944544
49.2037447337
-23.1427022188
-23.0859283821
-23.0878191318
-23.0492872573
50.9050470501
52.5024232969
52.0598732734
-23.1009404287
-23.0588216165
-23.0794618162
-23.031706046
46.8444163544
50.2805096551
47.8963671696
-23.0618302332
-23.0489701183
-23.0455625318
-23.0481391754
44.800417311
46.6427501997
46.0043845216
-23.0233143892
-22.9444568288
-23.0374086256
-22.9622305377
45.3407235535
46.3403169129
47.3425102778
-22.9685550186
-22.9562761889
-22.9605777423
-22.9388496149
50.8255167411
49.7756594817
53.0181308145
-22.8350676929
-22.7627473674
-22.8088740963
-22.7405850734
58.2065798488
56.3773066903
59.9121405674
-22.692330911
-22.7257727011
-22.6815851051
-22.7096462576
61.7212996674
61.3137681579
62.1733702386
-22.7816324126
-22.8200845126
-22.7694675984
-22.8251245779
65.3217253297
60.4647076065
66.7096041253
-22.9247740405
-22.8159128849
-22.9354523041
-22.7787795868
40.0359627758
37.1244531099
39.6249916168
-23.0102315168
-23.0426286357
-22.9930125106
-23.0589004644
49.5712167221
44.1904281351
48.6788588788
-23.0739071265
-23.0545207167
-23.146981765
-23.1678509251
52.5836501518
51.5032059353
51.4231926027
-23.0341420226
-23.0239475647
-23.1080599154
-23.0639746024
49.0748612515
50.3196281516
49.1856952339
-23.0397073829
-23.0493446342
-23.064367154
-23.0596842816
47.5551539022
48.7110364465
49.3575188103
-23.0394420773
-22.9661024636
-23.0348313361
-22.970869538
50.2891700289
51.1301431862
53.6868169222
-22.9526636326
-22.877426962
-22.9460088889
-22.8152343234
56.1876567096
56.5400218077
59.1822341206
-22.7879402479
-22.7796797654
-22.7384074644
-22.7719771843
61.4021400292
61.2151148352
62.2584851993
-22.7053791914
-22.7105803994
-22.7344249462
-22.7306982264
62.0805745727
61.6588059352
61.8658778427
-22.7623798659
-22.8159675477
-22.7687643857
-22.8058343759
66.0397029175
59.476535178
63.9766022259
-22.9272840732
-22.788849602
-22.9219971236
-22.7888986496
38.903802383
35.5761677929
38.4524509815
-22.9994155228
-23.1309487215
-23.0014437891
-23.1628868939
47.1847901689
41.758003296
45.4627341011
-23.1454145599
-23.1672304108
-23.1935787961
-23.2306457106
49.1738570109
46.7339258958
47.0987620117
-23.1570834361
-23.1026092354
-23.2106004324
-23.1535046219
48.4444309843
47.0724877204
47.4714643799
-23.0941116521
-23.0624066557
-23.1307212942
-23.0725955388
50.5130787197
48.5325324135
50.4610881031
-23.0166500046
-22.9571562209
-23.0166679038
-22.9700496206
55.7789167748
53.2474253814
56.1146870243
-22.8944981246
-22.787709949
-22.9064335465
-22.7987086207
60.9216184335
58.9456117324
60.5787296462
-22.8179895053
-22.8614665675
-22.8257823775
-22.8701614029
62.0185128562
61.1965624647
61.4551667695
-22.7687698992
-22.7662140434
-22.7888459493
-22.7999554539
62.0531716591
61.2281019376
61.953589693
-22.7903898138
-22.7976542006
-22.8188849479
-22.8085473032
62.6004132892
59.9729244125
61.9105951458
-22.9078749854
-22.7921965999
-22.9036140329
-22.7979345478
44.1280366217
42.8280911086
-23.1904417272
-23.2076080251
-23.177698151
45.4353965604
43.7484291869
44.3397042163
-23.2008143011
-23.1415042701
-23.1852282875
-23.1171927476
46.653974395
45.0009453798
46.1583773072
-23.1058785031
-23.0509661263
-23.082237628
-23.0266934842
49.7283075753
47.4497620178
49.0110430053
-22.9986851322
-22.9579678677
-22.9745373251
-22.9317248549
54.5910910833
51.2589474947
52.9632361312
-22.9134688011
-22.8434686992
-22.892271301
-22.8213658303
58.9035996534
55.0589334064
56.6488871557
-22.803715929
-22.8470149993
-22.8377982919
-22.8723123747
60.2956225947
57.9138435184
59.0319367419
-22.8158349896
-22.8461778871
-22.8459351702
-22.886479692
61.4640945555
59.552666289
60.8603378796
-22.8595756589
-22.8433352826
-22.9014782438
-22.883292724
62.1381190299
60.7759378286
62.7206207248
-22.9168485218
-22.8116557894
-22.9436329601
-22.8496656859
45.6044851826
44.870509324
-23.0699928805
-23.0117755648
-23.0278954961
-22.9720240226
48.4858862246
46.6645990352
48.4124388887
-22.9471985984
-22.8799570694
-22.9101135748
-22.8481460319
53.0272492057
50.9786854074
52.627659213
-22.8596201676
-22.8889532105
-22.8540182944
-22.9076088248
55.4580885279
53.7613153153
55.116896855
-22.8847648603
-22.8924260661
-22.9091449928
-22.9161309464
58.025456733
56.7751515812
58.0403917976
-22.8796915501
-22.9099016871
-22.8855439206
-22.9148389164
60.5524730255
58.6657170785
60.3772264711
-22.9289998801
-22.9189533696
-22.9433398943
-22.942877567
63.3776785127
60.8517816707
63.9716020115
-22.9715534222
-22.8851926771
-23.0005450235
-22.9236762492
55.0912080788
-22.8858062137
57.9896620843
-22.866614047
-22.9008094963
-22.8613273347
-22.8937829041
59.9817034775
-22.9473435134
-22.9634273047
-22.9475066322
-22.9820795064
64.0425406195
-23.0384736919
-22.9448388463
-23.0613668761
-22.9521939074
1764.73966192
1771.269491
631.943577341
638.460815828
1770.87940019
632.539279337
1765.00811185
1765.33589923
1772.68017516
639.144090292
634.633464284
1771.36436804
1767.27728988
633.357561646
1781.44443081
1776.98886713
647.236637239
644.275684995
1776.67427429
647.786110205
1781.52973652
1784.70817321
1786.77952299
648.800648546
649.949158702
1786.92523627
649.497408487
1784.57847608
1781.74050284
1777.87632911
645.015181484
649.159274726
1777.03475376
1782.31831484
648.547571537
1785.07324993
1787.6819344
650.687202339
650.841769635
1787.28031451
1785.54838871
650.235421509
1789.31542122
1788.37283096
648.987183248
650.029277305
1788.38283994
649.42850702
1789.34564443
1789.98918044
1790.65869833
647.912164539
647.809841111
1790.63519034
648.382531407
1790.00643201
1789.38017124
1788.88598257
650.776442705
650.621716675
1788.61260462
1789.53136267
650.065804714
1789.96662967
1790.63839844
648.371862647
649.488666558
1790.62959009
1790.03863228
648.898967893
1792.28433096
1791.51806225
647.398255446
647.691687318
1791.43482198
647.879257541
1792.43339318
1793.06140339
1793.95249471
647.573920741
648.373547245
1793.73986571
648.079554971
1793.25679345
1792.23207454
1791.41327908
648.26360011
649.123471482
1791.40703562
1792.28454365
648.494998315
1792.96043692
1793.4669473
649.039724125
649.390841671
1793.59667129
1792.98428975
648.720447888
1794.57252494
1794.48822677
648.750782853
648.934220864
1794.24147424
649.395478022
1794.92937178
1794.69573177
1795.3671932
649.672691177
650.6441205
1794.92815565
650.141740661
1795.18588846
1794.32028889
1793.87354259
649.669337734
650.565838488
1794.09481424
1794.07715667
650.212663273
1794.31962762
1793.06353875
651.270850702
651.280714418
1794.18803374
1793.90329858
650.830297854
1792.41956233
1795.05231602
651.188233506
651.112042384
1794.12804128
651.256419987
1793.66825912
1790.52938573
1789.98495503
651.293041836
651.362275838
1788.6390796
651.191669908
1791.83550426
1790.80357097
1791.29285094
651.443291445
651.372504512
1792.8020963
1788.97013962
651.263872738
1788.78661887
1784.71632119
651.1852504
650.790855072
1786.76391183
1786.6234875
650.972796909
1786.85239649
1788.67826176
652.94896307
651.638150314
1787.29816379
652.962895299
1788.17800474
1787.20790518
1789.37092397
654.876823353
657.059459193
1787.67176762
654.923557613
1788.54515849
1785.44462473
1783.84857153
651.604501873
653.144806353
1785.62287934
1783.84747264
652.96830314
1785.76069873
1784.48135105
657.034865335
655.042995828
1786.09193149
1784.13806378
654.982270868
1787.48071153
1790.01280993
660.290558895
658.643169956
1787.85438699
659.554636283
1790.0931993
1785.58074424
1784.11595293
660.694496226
658.404538957
1781.0605604
659.577369313
1788.71694239
1785.64324828
1784.68571004
658.484148482
658.727718707
1786.21218039
1783.91384137
659.111023814
1783.25762552
1777.8414907
657.074017647
658.11065799
1778.88541114
1781.58711019
658.733788893
1767.45057846
1776.4812525
662.869191404
657.492029001
1774.42182915
659.639573325
1767.21111049
1758.36348223
1762.32560033
669.65070667
627.355699335
664.150212498
1769.76188423
1754.81037271
1768.09276175
1773.48407561
655.7751541
658.340787085
1773.42741996
1769.37449957
658.565720275
1760.30491216
1785.02396208
633.662119807
665.278452862
1762.94415343
665.688643773
1778.70641946
1767.71562648
1771.13810377
616.280156713
619.938480099
1766.84225145
616.976648385
1770.77801157
1765.94520836
1761.26226756
615.486889447
622.043575571
1764.41505925
1764.26325535
617.618952771
1768.87058924
1771.60897016
619.982813749
619.026657804
1770.50770137
617.866574279
1770.7499081
1768.26352327
1770.48464226
624.169561131
621.786838614
1767.34951
1770.37631517
619.656640978
1768.72988595
1762.09806081
630.653262408
627.211309805
1765.39089261
1765.57080182
632.444767583
1772.40971403
1774.29105407
636.249575218
642.576999516
1769.52071123
1776.59414349
637.933953077
1772.00880846
1772.29864382
629.3935757
636.041850172
1768.95907591
1775.2168777
634.351881382
1775.37995774
1781.73490657
643.83101718
640.981617461
1778.99441773
1778.46035462
639.546278715
1783.72263948
1778.94509668
649.522596356
647.061247765
1782.81145014
1780.47801338
649.976266567
1786.24838992
1787.69275829
651.130755362
651.782098221
1785.77203717
1787.99056775
651.295972077
1784.85191578
1784.36711362
647.669959268
650.217822223
1782.17385043
1786.43352234
650.129282681
1786.93240998
1789.07195804
651.570977155
650.954378713
1788.37858251
1787.94993948
651.23276959
1789.7014307
1788.81568188
651.0311387
651.828227369
1789.4965564
1789.0720691
651.301443666
1790.1865925
1790.59248043
650.138252151
650.30046132
1790.0162826
1790.81281279
650.51696152
1789.93963946
1789.7959575
651.463742528
650.853277377
1789.31702552
1790.30100321
651.105125824
1790.47529089
1791.33171121
650.679005262
650.61338248
1791.09022272
1790.81296508
650.687200916
1792.27775302
1791.33162313
650.004690986
650.35588688
1792.14600961
1791.55787049
650.602693653
1792.70988939
1793.24228841
650.266635075
651.178104632
1792.74742952
1792.89389828
650.885001479
1792.2355996
1791.78878943
650.959416346
651.385953568
1791.72233743
1791.96268942
651.242823091
1792.2500123
1790.62921207
651.650706963
651.662302807
1791.85292334
1791.52222961
651.583412351
1791.96973398
1793.4526105
651.433455194
651.582350184
1793.30613146
1792.64609608
651.913674062
1790.72544009
1791.24786126
652.022561401
652.135405431
1792.5997865
1788.97747427
652.197771622
1790.05692802
1789.55398069
651.758166545
651.749879797
1791.09152869
1788.24884232
651.941129108
1788.63829166
1784.90559372
652.029170075
651.906213804
1786.77366786
1786.67738878
652.116885826
1784.56868498
1789.22906999
651.343009556
651.561627517
1786.84094412
1786.86547867
651.213005733
1782.73021572
1782.91412628
650.89655389
651.996874656
1784.53736423
1781.68568308
651.162909595
1782.94669225
1783.29957829
651.607881767
652.058300022
1784.81853588
1782.1794318
651.528442411
1781.82940921
1782.0819355
652.780295441
652.677575954
1781.52500552
1781.89945224
651.781463436
1781.90591411
1782.38999679
653.620019236
653.052377123
1782.53960482
1781.58489366
654.212263293
1782.17628385
1783.08691592
655.519312725
657.269647256
1782.77675935
1782.44125243
656.051472454
1782.10213894
1782.30747361
654.332451725
656.99986998
1781.66797689
1782.70509018
655.771160973
1782.31285389
1782.8964389
657.994453645
658.001595899
1782.48488043
1782.9302374
657.155668042
1781.18760786
1782.96148212
658.274239783
658.057541605
1781.99554745
1782.16353118
658.098192729
1779.57003762
1776.99512878
657.538405141
655.813198278
1779.89357014
1777.3169992
657.406769594
1781.16547373
1782.45954104
658.394412444
658.398690718
1782.14064955
1781.51838167
658.234633773
1779.71672561
1778.37265328
655.885966381
657.639010196
1777.78411919
1780.13431295
657.481904823
1772.58997065
1773.98719988
658.711512282
654.56667881
1771.14340847
1774.99933692
658.832392743
1767.59945534
1789.3664862
666.65580015
640.297389009
1766.17934898
666.493910257
1791.25988805
1773.55199808
1776.53026002
654.809487238
658.615920026
1775.80278218
1774.1399433
658.908605713
1768.4682043
1791.36999742
639.682622139
664.94324847
1768.440758
665.715810381
1791.80945595
1774.01039505
1772.61169313
620.479688172
621.550432831
1772.2715248
622.110267424
1774.05918468
1774.16322664
1773.38076738
623.716621762
629.844579319
1772.46908387
1776.17004096
625.671786736
1776.1611052
1776.97003759
622.018746361
625.195967513
1777.2782098
623.974395789
1775.55925349
1776.53036425
1781.16617523
631.406452301
628.793514171
1778.85976896
1778.64785897
627.554449447
1781.39080199
1775.46506265
637.557087341
634.630436949
1778.31213376
1778.55187789
638.780799657
1784.35700025
1784.43641938
642.070319847
646.439849313
1781.4157483
1787.12297396
643.044658791
1784.1831388
1783.87390064
635.783572433
640.626998385
1781.3790872
1786.64947759
639.777603331
1786.97694845
1791.3233744
646.757020843
644.495996016
1789.38478418
1789.23225462
643.85222533
1789.87728728
1786.61247537
650.03457834
648.772963111
1788.12858742
1788.88967187
649.810232358
1790.41248363
1789.87185988
650.491348908
650.102625128
1789.1286832
1790.71542698
650.137355911
1791.32803271
1792.30369018
648.64960616
649.248301587
1790.80191373
1792.56600804
649.492168895
1791.50356369
1792.28759375
649.849141105
649.382282675
1791.47437132
1792.5591253
649.816227488
1791.04533971
1790.30572839
650.343508863
649.758935821
1790.61728062
1790.90807666
649.815819285
1791.28848457
1791.48665384
650.437682861
650.161089604
1791.03062952
1791.48455853
649.999427816
1791.28639434
1791.94096034