/*--------------------------------*- C++ -*----------------------------------*\
| =========                 |                                                 |
| \\      /  F ield         | OpenFOAM: The Open Source CFD Toolbox           |
|  \\    /   O peration     | Version:  v1906                                 |
|   \\  /    A nd           | Web:      www.OpenFOAM.com                      |
|    \\/     M anipulation  |                                                 |
\*---------------------------------------------------------------------------*/
FoamFile
{
    version     2.0;
    format      ascii;
    class       volScalarField;
    location    "10";
    object      p_rgh;
}
// * * * * * * * * * * * * * * * * * * * * * * * * * * * * * * * * * * * * * //

dimensions      [1 -1 -2 0 0 0 0];


internalField   nonuniform List<scalar> 
28582
(
19548.3907865
19547.4983555
19548.806141
19547.7976083
19550.046194
19548.5191605
19552.1478804
19550.0424183
1142.63102284
1231.23378847
-0.0893882716537
19551.396577
17421.2550872
17336.9176318
19548.5800935
19549.3516755
17267.0530013
19527.0514158
19526.392778
19547.654467
19546.8812968
19546.8566146
19547.7458693
19547.0610935
19546.8679766
19548.4567179
19547.0176965
19548.7101471
19547.6434376
1270.62111194
-0.167683052573
-0.108141750174
19548.8369279
19550.5139955
17390.4763103
17338.2631824
19531.074448
19547.0705116
19547.874973
19547.2702041
19526.7764835
17047.0384074
19525.709106
19522.7247224
1167.2810107
1244.55004683
10.0795210408
11.3348985996
1198.97779901
10.7861687483
19536.2879486
19539.132646
17412.6699046
17443.9994739
19539.2846795
17431.0635892
19536.1356527
19538.2622269
19533.0195321
17383.317847
17358.1061443
19536.2715107
17401.7661697
19535.1464935
19530.3036508
19530.132561
17197.9966258
17295.2533173
19533.4576833
17224.5311966
19527.3241309
19525.9729499
17117.9700075
17118.6869083
19528.1353952
17151.9162201
17168.3568139
19526.1905865
19525.7732724
17097.7597118
17114.5837165
19528.6324058
17185.3356403
19529.1822056
17160.8944072
1139.68158707
1.52708222174
1139.24956936
1152.63126631
1.07446945337
1.3134222936
1270.02818832
9.77149672391
8.97165677887
1292.19408505
10.0387169861
1297.90649034
8.50717746208
19527.4848087
19529.0616179
17376.8246614
17414.4847758
19527.1282914
19529.671377
17401.0346011
19525.2650644
19522.8306595
17357.9272902
17365.6251224
19524.8798395
19523.1526514
17382.6644542
17427.0785144
17416.6370809
19530.9081933
19528.5553707
17388.4306014
19527.066828
17400.1764978
19526.3751967
17083.4277791
17077.7415287
19527.3893023
17066.3009695
19527.3605335
17059.7865407
19528.1156699
19527.746242
17054.1713518
17028.1021504
19527.8090474
19528.3378685
17044.3911751
19523.0275595
19523.7173464
17065.7675147
17067.5415872
17032.1941232
19525.9828427
17049.8796189
17008.4112779
16983.9737841
19523.1437085
19527.0328476
17029.6584172
19527.6462531
17039.9915595
19546.3702386
19546.7140904
1324.50832535
-0.0913063905901
19550.5245384
17406.3385805
19547.1069451
19547.3156817
17021.9544696
16972.7149561
16928.2096547
19547.3824431
19547.3189842
16918.4519591
16882.3918922
1153.35720831
1320.20189637
1355.5427785
7.97654679052
8.81881328217
8.75204166478
1386.47143821
1405.38705793
19526.0193825
19530.6198811
17377.7967331
17394.7761335
19526.4025768
17363.3800271
19530.5165191
19527.3753166
19527.097384
16978.4373641
17002.4498691
19525.8959645
19528.1167927
16973.2607417
19527.3663315
19523.5671075
17017.99695
16958.1071812
19527.7350163
17001.4753188
19523.8525727
19526.501117
19523.2887226
16949.3052279
16936.5366642
19525.3782157
16974.9936496
19523.5695002
19522.8584848
19523.0430908
16926.8248725
16908.378732
19523.9788594
16901.2992673
19522.5682635
19522.0902316
19521.3632245
16859.6340054
16894.5795319
19521.4370304
16881.8937158
19521.9835362
19579.621354
19569.7318279
19552.4394021
19547.0226991
771.857625777
942.171945978
838.573881204
951.169989333
943.634181592
-0.0599112248671
0.437580865853
0.0201721134183
0.0899302760801
0.142871321393
0.105622091061
19582.1812925
19581.8907137
18659.8898888
18689.3421952
19582.437112
18690.0607112
19580.6006631
19578.1822918
18691.9957589
18626.6889359
19574.541693
19574.8964332
19567.8077121
18677.7078087
18432.9307359
18540.873169
18015.2031724
19557.347245
19546.2210414
18194.1669152
17177.6543641
17767.9417855
17070.5440887
19561.6799694
19557.1818336
18415.966227
17918.5677835
17709.9511279
19543.59928
19549.2548613
19542.4469706
17704.9337708
17086.0542563
17553.1424556
17132.5799452
17528.5901294
17161.7616419
689.310589208
681.009117005
748.68729926
1.75251419856
3.92370788013
1.96426581867
4.47994904962
8.18261685715
25.3645254959
8.28472004296
19.3474451297
686.481413166
719.316585657
871.591394284
808.9399912
882.781508542
2.93841102159
5.93275633703
4.76818242338
7.71111098733
989.878206459
944.143054248
993.404100262
9.0155461384
16.2692555114
10.5226760255
16.6350582562
892.797409124
905.968513979
7.31589020315
9.60835760092
10.7657878564
992.652938084
952.445926566
980.868705678
11.2426329093
14.4703635918
11.5640461316
13.5583762977
19580.4102944
19581.0367951
18658.554947
18673.4434023
19581.4929486
18672.4395196
19579.9733085
19580.7251003
19581.9359233
18681.9139781
18691.1127233
19581.4323299
19580.9582398
18682.3272383
19584.0039723
19583.2038261
18683.8645944
18680.0397113
19582.8524238
19584.2500121
18680.0201599
19581.0113953
19581.6005698
18696.9455404
18689.4145131
19580.956549
19581.526246
18702.656253
19580.5600829
19578.9163108
18670.6519875
18669.265628
19580.7313964
19580.1527547
18693.166221
19579.9463319
19582.8117203
18654.4214915
18666.0375261
19582.8220699
19581.6019309
18621.3164868
19575.9136793
19574.9883862
18563.990144
18322.3016795
19580.1211506
19568.4337194
18502.866678
19576.638652
19576.2246199
18613.4170171
18423.3336036
19579.8112214
19571.5163892
18529.2114121
19571.1224687
19555.5122616
18169.4169118
18247.1673177
19562.1712108
19564.8100016
18375.7848865
19544.0441437
19565.2499123
17887.2902875
18059.4155959
19550.8451894
19557.8454992
17732.0424649
19528.4020788
19516.4228285
17531.4719975
17098.1591358
19534.041973
17399.292277
19511.6079594
19537.2626513
19545.371452
17920.377693
17531.54355
19550.8367471
19533.1573578
17640.8861547
19523.0616286
19509.5126138
17084.2679266
17297.926429
19521.0925469
17351.8474478
19508.9778158
19559.7584341
19571.5639387
18272.0793471
18299.7160714
19565.7397
19565.6010839
18140.7155693
19553.0723192
19550.1048349
18110.6592413
17810.2240249
19558.7806685
19545.0333709
17976.3742217
19549.0527019
19539.322306
17759.4819289
17856.9412031
19541.9374434
19546.3574482
17918.095786
19527.2882699
19540.9004471
17491.3755056
17628.1912316
19530.2674098
19536.7688107
17446.9851272
19518.2943163
19510.1736249
17284.6363928
17101.8926549
19519.871061
17269.8532178
19510.4111062
19526.3642832
19532.2642219
17590.4525719
17402.4527532
19534.6503842
19524.324415
17422.434591
19518.4383299
19513.4276639
17127.345937
17262.7703045
19517.5371598
17268.171626
19512.3017917
19521.3673297
19530.1720404
17386.5056197
17493.4038081
19523.0583231
19527.6523543
17360.2092911
19514.5005314
17271.4356512
19517.4463049
19546.5525444
19545.623214
19545.2860113
19547.1765518
19547.7366288
19556.7802925
19546.8426471
19545.9700496
19545.5791982
19546.9418834
19547.0210626
19556.0014403
19535.4490049
19539.6596761
19537.279004
19542.4159118
19546.4507872
19549.2597261
19554.1898528
19536.6991095
19537.0543719
19540.1658807
19542.2376896
19543.4369936
19544.0088336
19543.5984161
19542.1518995
19552.3836099
19542.4150251
19541.779769
19542.1884842
19543.0026183
19543.6632665
19543.6816139
19543.5398759
19555.1049514
19545.5524905
19544.3142763
19543.9416065
19544.2866524
19544.6864497
19544.5605799
19544.3373783
19555.7609816
19545.4791483
19545.6956481
19545.9945255
19556.2124523
19532.8432864
19536.7848753
19540.2395155
19543.6842458
19546.5940225
19550.8181448
19587.0008061
19474.1066554
19536.1554716
19539.6140041
19544.5176448
19545.4242323
19544.4577119
19542.0833373
19536.6860213
19530.5570288
19541.4889625
19542.2177783
19543.0804105
19543.4996131
19542.9407928
19541.9140667
19540.0137092
19549.2482147
19545.3044725
19544.5239616
19544.4668645
19544.6737485
19544.523233
19543.5753372
19541.6843505
19551.9108623
19545.448457
19545.1074989
19544.4550982
19554.5230183
19529.5876078
19535.8059537
19541.8880002
19544.4235951
19545.1220562
19544.4563578
19552.741661
19470.2602309
19533.1492702
19539.9657127
19540.4105548
19542.1157765
19540.7207232
19535.7379224
19523.9945498
19511.2576382
19541.2157805
19542.6317565
19542.7938319
19542.0241446
19540.5692312
19537.952472
19531.6511761
19543.5661139
19545.3809492
19545.6616569
19545.0077221
19544.2728784
19543.6948565
19543.0457631
19541.0477052
19536.2874075
19547.0713475
19547.5488216
19546.1758175
19545.3796652
19544.7866268
19543.5293414
19540.5720112
19551.3136373
19545.6117386
19543.9257857
19553.8581543
19530.8996025
19540.1904508
19544.6509178
19547.4384803
19547.2444115
19545.2819886
19544.8437268
19520.6479019
19523.2555083
19532.9627918
19541.0498886
19544.4119546
19545.5297009
19542.9865659
19538.8364465
19534.461734
19522.5314526
19537.4385248
19534.5877369
19539.3189093
19543.1747491
19544.6854926
19542.7655885
19539.6214527
19538.0101162
19536.2622391
19535.5549188
19541.6963356
19545.1691749
19545.7776475
19544.9932769
19543.539642
19542.3373351
19541.6432829
19539.2290505
19539.2438711
19548.5856696
19547.153387
19545.7906626
19545.2837281
19544.0674532
19542.4636297
19542.1326409
19546.1973691
19545.5198276
19545.777272
1293.08495849
1255.25385326
1192.79719171
1180.65411504
1215.37873301
1326.5110671
1443.10895382
1455.48496416
1000.3682343
1156.70287074
1310.33193669
1294.07237694
1237.74233157
1238.37377097
1299.33269141
1412.91925466
1462.09461413
1437.80060131
999.901880152
1150.86048496
1256.62534898
1245.30483337
1253.79731594
1313.6220806
1386.24364222
1465.967461
1462.2004262
1428.33206806
1104.70297103
1179.86216089
1194.57198775
1235.33799872
1306.44832046
1365.22862547
1432.68837784
1446.13812127
1442.54451624
1166.30969716
1209.49172905
1257.55804141
1341.14425942
1382.99531862
1419.98633738
1450.90260601
1380.10828947
1414.5207329
1440.762671
1.24651046185
-0.156129190551
-0.0769513973754
-0.0914985978443
-0.123118021479
-0.0406289144848
-0.0955007182891
-0.0883045050927
-0.265922461724
1.74264962234
2.14705393625
1.49507302532
0.114394130144
-0.271392151184
-0.278707118038
0.513900183064
0.622418788567
-0.136117024567
-0.260811587691
0.776376434458
1.22165392276
-0.0792527013359
-0.142939043017
-0.065919891385
-0.190092248467
-0.036953190476
2.14898422943
-0.139765347632
-0.312608389227
0.768580064115
-0.0860623045924
-0.197308222816
-0.126779274444
-0.246048602642
-0.0981228473592
0.878817849415
-0.14320321565
-0.305704168744
0.901535286207
-0.133994222554
0.0946723533783
1.06130058246
-0.140157250129
-0.139721137902
-0.286179206621
1.1494932922
-0.125901017915
-0.302517643492
1.73090886245
19537.7405512
19535.6550845
19537.912979
19534.5357317
19537.0370168
19535.0611678
19537.1365761
19540.7595391
19540.0068766
19541.394427
19538.9106971
19536.0534398
19538.6857083
19538.4678573
19538.4452274
19539.3236457
19539.595531
19536.5567732
19538.3924885
19538.6202028
19539.5777437
19541.4473543
19540.5992654
19541.8508211
19540.0501557
19540.5768978
19541.0232216
19542.3724776
19535.4288186
19534.0029379
19536.0624545
19530.8506051
19534.1230911
19532.2173861
19535.1687226
19537.2438739
19537.307735
19538.719693
19535.7620197
19536.2175226
19536.3477352
19536.5355692
19538.1095546
19537.7953343
19539.2818616
19534.693271
19537.6569791
19536.8055603
19538.4762045
19540.5172398
19540.8265557
19544.9220972
19539.2936135
19536.4216867
19539.7988757
19543.5149579
19533.6572425
19530.9903017
19534.8667436
19528.8486526
19534.4586894
19530.4516787
19535.3653989
19536.4138404
19536.998995
19537.4715173
19537.5682064
19539.301217
19538.43685
19541.182488
19537.2571488
19536.0333955
19538.2722181
19532.7386735
19537.1749962
19535.3725655
19538.4994605
19536.8753718
19540.0461445
19542.8264361
19540.171197
19540.9062015
19541.0404443
19543.9854766
19523.1456592
19525.0615551
16734.2122493
16704.5660051
19536.5120993
19531.8502892
19537.2139625
16821.566973
17022.475989
16773.6339325
16985.9358259
19542.8559368
19540.6287392
19542.9635918
17076.9108206
17164.494591
17033.6094364
17116.5935772
19546.2925232
19544.5366586
19545.8731873
17195.9566177
17283.9526776
17144.3384513
17223.2451461
19547.9710842
19546.5677451
19546.4809469
17292.2288029
17332.6715473
17232.3577437
17213.7005406
19545.7934407
19545.2991315
19543.5365028
17295.7034332
17016.85945
17142.0113278
16780.86535
19545.3324626
19542.3267278
19541.6419413
16920.6065548
16743.0040071
16708.6408775
16609.0198431
19537.0403567
19540.7324549
19532.6898055
16726.671522
16653.5350974
16616.6274555
16512.2966322
19495.6861156
19515.9588042
19516.0424583
16673.3133127
15997.6276158
16559.5594701
16458.3316455
19537.7646137
19530.3730939
16944.8985324
16628.2252473
16949.0493031
16876.2747738
19527.2044572
19529.3142652
19531.853618
16623.5420969
16743.3686839
16865.0706596
16934.7782572
19537.8067262
19535.6082053
19539.13209
16788.6723163
16962.1856498
16953.5821097
17026.9784807
19543.1566814
19541.8667307
19543.9028951
16998.4059261
17098.1535256
17048.851082
17104.3072382
19545.2861371
19545.3073134
19545.5579857
17125.3640789
17206.130547
17124.5363409
17072.1126223
19544.5397805
19544.7315025
19542.8945382
17208.0941489
17135.8621937
17016.8398389
16791.9568583
19540.8721849
19540.7518064
19538.6614869
17046.5190995
16697.9744267
16708.8342141
16538.0913401
19536.9612787
19537.4288215
19536.4063964
16639.3952215
16578.0296931
16531.798734
16583.0782
19530.0503768
19534.7362779
19532.2197483
16592.7441524
16493.2119426
16603.7413074
16525.9454473
19538.9493122
19529.3303792
19547.4199152
16552.4932496
16507.4507123
16613.5212326
16565.3076444
19534.0110877
19538.1958003
19537.1379165
16986.0248594
16945.9064191
17125.5910562
17146.8596761
19536.9159049
19538.8848829
19541.0785327
16944.3778935
17012.1515196
17185.2566565
17241.5606093
19541.4215337
19542.6612187
19543.7691794
17027.3240717
17068.0742841
17256.8409726
17231.4708431
19544.282064
19544.5067455
19544.714613
17080.4895035
17126.5728111
17205.5197033
17145.1213633
19544.0550082
19544.4482425
19543.6774865
17116.6985193
17009.0142928
17108.3287302
16925.826814
19541.0756845
19542.5159117
19541.3100188
16951.1654778
16728.2433799
16871.7612731
16709.9336194
19538.6224439
19540.376505
19540.0109492
16671.2441179
16601.2865415
16696.1809961
16737.0225914
19537.4181475
19539.7226819
19538.8482441
16585.3246115
16596.9146644
16730.3189961
16659.3285145
19535.1539652
19537.7063306
19536.9216982
16599.7203055
16517.874608
16639.4401862
16531.214963
19550.218622
19537.5254608
19550.1855253
16613.3492756
16575.6229198
16623.6454689
16523.2516788
17181.7299595
17203.0235406
19543.9251127
19546.1687882
17236.3401303
17286.3569969
17376.1284324
19545.646083
19547.1959478
19547.3821757
17288.4976863
17241.57966
17366.3405667
17300.2166534
19545.4638463
19547.1366851
19546.5712628
17216.646854
17153.1563715
17276.5937999
17206.4725178
19544.337032
19545.9671032
19545.2640537
17117.4958709
16975.4177134
17170.2182621
17060.522842
19542.841028
19544.6441728
19544.2755759
16930.8566633
16806.7856461
17023.2564246
16977.214916
19542.0594461
19544.1630245
19543.9064492
16780.46373
16786.5426629
16969.2995717
16935.8415447
19540.4730947
19543.2834628
19542.111031
16759.4152026
16674.5587579
16887.3741131
16764.1703792
19538.6293134
19540.9121571
19540.3608568
16659.7514034
16554.736224
16750.6660645
16631.6515533
19550.1798203
19540.7017384
19550.2973581
16634.2079913
16498.2742679
16683.1738148
16470.6992094
19547.988675
19549.8048524
17318.7341223
17237.6075287
17326.554185
19546.2847103
19548.6986771
19547.5371206
17192.2841341
17077.1077509
17255.7030515
17122.4780823
19545.5180809
19546.9598095
19546.5919074
17050.1016763
17021.9395799
17102.9518188
17070.2033754
19544.7089608
19546.2548161
19545.5628914
16981.5242397
16903.3216401
17017.8990287
16906.2127721
19543.3054209
19544.9504612
19544.3536553
16886.0341981
16812.7439573
16884.0447137
16833.7028976
19542.0539932
19543.8209247
19543.5792644
16793.9126199
16651.1801198
16816.2258643
16670.6497903
19551.0875288
19543.6834341
19552.5918615
16691.9960895
16458.7313789
16706.8761719
16498.6661461
19546.4686867
16918.6264531
19545.8816251
16897.0808044
16826.966346
19545.4517442
16816.4633932
16683.0093193
19554.6076148
16724.1100371
16537.5395677
30.6768960343
19.388061791
33.8993095727
23.3140364755
1229.93177713
1251.06821899
6.41069456729
4.40673883466
7.54377913441
5.19849105375
1284.97412478
1313.4437282
1304.96651035
3.74555470872
2.59625130516
4.9100162335
3.36757190139
1215.12356944
1275.70907044
1233.96233114
1.92742973742
1.11078414856
2.1694344535
1.12657819899
1177.90714265
1213.13825404
1200.59113055
1.22681611081
1.77750084601
1.18636481198
1.36548301381
1184.26546336
1203.94502465
1218.93492756
0.794863412645
2.10111994261
2.36581062318
3.82166534704
1265.9834315
1251.75386523
1304.33295503
8.36270203343
14.1251058855
11.2246772184
16.5263869133
1398.15883465
1363.06827007
1428.66508197
14.2116308434
14.1171860281
15.6189221159
14.8095211664
1467.39749552
1456.49580727
1474.48165438
13.0866411151
13.0061305191
13.4593773858
13.1256201284
1478.46745329
1441.74792014
1534.96603211
20.2191961853
58.8026507458
18.7996213136
31.1976417768
1050.05741465
997.856132104
1046.07084423
39.9247603131
40.0664996695
37.8722319956
35.8901196287
1241.59511895
1156.37773277
1240.81294216
27.1963908637
21.028183468
15.9655247433
9.26055705594
1311.77883746
1295.97447043
1296.21290729
14.6751746656
6.79086524528
6.4762002478
3.98304686097
1258.44506279
1280.24449863
1259.89693002
1.42768949973
0.94735221348
1.86709022034
1.38513893944
1229.40390148
1250.80955348
1261.39610803
0.975887323183
1.33593549018
1.48591101382
3.35587257779
1263.25855171
1282.93468291
1316.34350169
4.12209720794
11.7956709538
8.89893751974
19.6801832014
1353.43757839
1354.62481531
1403.72770866
19.0546110988
22.8844879901
27.3613607122
28.2462972834
1457.16656352
1455.71154431
1472.98300782
16.5612221692
14.3878980359
16.5810126018
13.5609881855
1473.33198407
1463.74935702
1469.98226769
13.0317541347
12.6434697736
12.6299867903
12.3892577691
1537.11521676
1428.92524402
1500.52678447
15.9366267051
21.2419676108
14.6203759009
19.3568755832
1059.07737072
987.894703165
1054.27024845
29.2185412901
18.5751786854
25.9990723843
14.2548978061
1218.91415003
1121.29848864
1186.73090267
2.40462049311
1.51312975776
1.47604001599
1.0019038673
1257.24792998
1209.21366883
1217.38325344
1.76029774172
1.56170793153
1.17046191812
1.29592869923
1242.63203238
1217.39113237
1225.03403962
2.07746086954
2.01136729909
2.09931841963
2.29023387031
1277.5297798
1244.65766871
1276.98886729
2.4589715807
5.42549867692
2.8598531718
5.28307431821
1360.98181058
1319.38319319
1368.35430695
10.1526806686
15.7670880457
9.73704388011
14.948712104
1423.94172244
1390.45429542
1418.34516347
34.450940584
37.3343666192
37.4379471911
35.0915430481
1468.42039624
1458.24336842
1459.90996655
16.254152429
13.260978904
14.8102582062
12.2346895614
1473.26730772
1457.38715428
1472.40271875
12.7705860566
13.2450996404
12.3696261137
13.190784856
1475.36975779
1434.64782587
1461.2573395
15.9377931659
19.2660075761
17.3735247828
20.8586161065
1162.23805252
1138.64506768
1.38672029811
0.954926339758
0.908314766991
1188.39554707
1157.51162776
1169.47426571
1.1624272343
1.42589153776
1.03890655666
1.31113470623
1210.24698212
1180.85703581
1201.6780201
2.25889517109
2.36547289593
2.0517919929
2.4018789491
1264.87720277
1224.52880195
1250.06305105
3.04943302906
4.52025954576
3.65487176158
5.98731471204
1341.5744739
1285.18711394
1311.89265717
7.826239614
12.2407703557
8.93537936067
11.5037884835
1399.06387935
1333.86823477
1364.14000682
29.012665396
26.9891673006
20.2988803153
17.5188866299
1442.63031728
1401.62007998
1422.36433508
12.5145384486
10.4342539943
10.2657193065
8.7353625295
1466.26236971
1431.65378156
1456.90967072
10.5363524481
11.5312813567
8.7936516412
9.76529521117
1460.1370893
1447.67548944
1466.3093364
17.7546970809
23.7432901674
17.2092458951
29.1590497597
1190.68075244
1177.30468038
2.04302121454
2.78793130455
2.26450110724
3.38629914542
1225.33435344
1197.48797131
1213.41676301
7.00055688171
15.0365033965
10.023521526
22.6531032205
1296.77474689
1244.71821703
1291.44001244
25.050478701
19.9979766359
32.8746166189
18.2987515564
1359.9326174
1330.10672621
1353.35686593
9.06258303948
7.97570086964
7.7733608272
7.15113562246
1405.07538624
1383.80103675
1406.61060476
7.96984978972
7.98140424285
7.86528397606
8.00412213755
1452.7783107
1418.40056541
1450.99268211
7.95720391777
8.86896868065
7.52561180755
8.28797344564
1470.74178891
1450.24553693
1476.32738357
16.4010333373
32.9492472924
15.7376294894
38.8803190839
1351.89729473
8.25518894873
1403.65356154
8.96723119901
9.41650808025
9.23716801454
9.28800998848
1443.775279
8.04742278073
8.39694803206
7.96188465702
7.84803368227
1465.94594625
15.7263733918
47.5848691345
14.078152984
47.8525811261
19491.3257
19500.3197612
16637.1004611
16700.7187889
19498.2745866
16603.1776035
19493.0987108
19490.1260926
19500.0341858
16689.8115488
16629.4786035
19497.3502346
19493.6258336
16582.5360595
19511.5475163
19507.0434956
16897.3106755
16783.1486282
19505.5244469
16872.5079835
19511.9407675
19515.2515196
19517.4200078
16960.177595
17008.2977601
19517.8718134
16949.6066797
19515.0910198
19510.8902812
19506.1394181
16773.2273245
16858.6404351
19504.7153859
19511.1394481
16854.9165201
19514.4130899
19516.9834373
16996.5833357
16931.5834634
19516.6124058
19514.9592802
16932.3052892
19520.0306247
19518.8855107
17111.9737204
17054.1049188
19519.2186293
17095.3055598
19519.7297829
19520.7799854
19521.8003034
17139.4281447
17156.0778193
19521.8959578
17131.659184
19520.641247
19518.1245583
19517.6190764
17040.8434984
17070.3707957
19517.648741
19517.5887148
17074.6811536
19518.8564407
19519.2048303
17140.7888061
17097.0119572
19520.1790981
19518.1482654
17111.399645
19525.323653
19523.2541219
17239.0590639
17181.5282983
19523.42475
17218.7895023
19525.1889577
19527.7063318
19530.7630213
17269.3796829
17265.9230358
19530.5579616
17248.9741523
19527.9851484
19524.8419792
19521.0508177
17167.7329173
17184.1079855
19522.1725504
19523.7518697
17204.2262294
19527.956035
19530.9965623
17254.5610905
17208.6609661
19531.030385
19527.4358536
17235.0584812
19534.2155155
19532.5070683
17309.0836162
17275.2068721
19532.7435148
17291.3597601
19533.6255752
19534.5301378
19535.2713891
17334.3000581
17306.1345426
19534.8441958
17311.0201467
19534.989837
19533.8367742
19532.6010012
17262.7791488
17247.1158342
19532.9365486
19533.2949526
17278.2290683
19534.2714566
19531.2900841
17267.1335624
17239.6102817
19533.5110026
19532.996707
17282.4407287
19528.1170781
19534.2956245
17225.7168453
17262.7079598
19533.1156199
17178.8778141
19529.7697462
19521.045744
19514.869264
17128.2394035
16961.0759864
19512.4663868
17076.121487
19522.765259
19525.2778742
19527.6561279
17203.9489148
17023.8537013
19530.7289419
19521.1435368
17105.1413199
19518.2126576
19504.4852878
16882.7698398
16899.932047
19509.8901023
19513.1035643
16997.5371809
19499.3484715
19507.687948
16831.0773934
16866.9575111
19505.3707724
16772.9736638
19501.9643676
19496.2594094
19500.1250878
16783.6859133
16698.8077326
19497.1277374
16726.9702268
19498.9093221
19496.6869131
19497.0862184
16798.211527
16640.1604394
19502.6621247
19491.6730668
16722.0248503
19493.9534577
19490.6908472
16659.3912737
16602.3483492
19494.7494271
19489.7018622
16676.8868714
19500.8382162
19502.2248753
16733.0248854
16677.0168771
19498.7062914
16679.8065388
19504.8857226
19501.4759373
19505.834578
16700.6040394
16583.3795144
19501.3065122
16641.3373634
19506.1442481
19498.6613724
19492.9547791
16651.454625
16628.9737512
19496.2910581
19496.1552838
16657.6980526
19498.6842415
19495.6359418
16533.954607
16584.8497722
19497.7281718
19496.7174872
16609.0159188
19479.941651
19497.2221279
16569.2182329
16609.0727172
19494.0003833
16517.6021623
19480.0008567
19441.0576086
19439.9216903
16054.5819471
16285.9243366
16010.949911
19458.0393619
19426.6891566
19476.2683947
19489.9634139
16579.2587612
16510.2121809
19490.8858074
19477.6890758
16506.7890323
19436.6807841
19474.3098258
16390.6696489
16016.6615963
19444.3324071
15957.3184333
19463.5893632
19497.2637465
19502.952559
16738.9895878
16912.3087297
19496.5885744
16774.1166249
19500.4802399
19493.8009956
19488.4634273
16684.8030726
16703.0572831
19491.8990642
19492.338306
16743.4617474
19497.9438815
19502.1197615
16943.7241672
16851.986108
19500.6047221
16822.7014339
19499.8735173
19496.2016658
19499.2613998
16791.1982818
16871.2965062
19494.9721089
19499.6798767
16812.9973995
19495.3249545
19488.299717
16653.1331616
16709.3138886
19490.1570017
19493.0952713
16741.7605119
19497.5768788
19498.433888
16695.149224
16809.7424812
19493.9994023
19501.0364393
16776.4130197
19497.0129637
19499.9790974
16793.8412139
16879.3173509
19495.483679
19501.267668
16814.1170409
19498.9663106
19505.3033717
16859.3548295
16902.9556367
19501.4660814
19503.0404314
16836.4711473
19505.1410246
19502.0155391
16857.2378763
16839.0834935
19504.7698319
19503.2881147
16885.6721357
19506.3827935
19508.9826491
16919.4462826
16972.7868574
19507.4240307
19507.4311375
16934.0116254
19503.5946293
19506.458399
16879.4922712
16978.6355505
19502.5801211
19507.0398771
16916.5908253
19504.7334143
19508.6981264
16985.1511074
17003.0491107
19505.9781303
19507.7036594
16956.9822795
19507.797026
19509.3301966
17033.5373993
17004.0063019
19509.1156876
19507.7004993
17024.4542434
19508.2855975
19510.865918
17069.2795371
17086.7139106
19509.6665051
19509.1497207
17052.6719019
19507.2812397
19509.4197145
17007.8953957
17061.1322462
19506.685267
19509.911475
17030.8909376
19508.0984099
19511.8464348
17089.5836509
17079.2861491
19509.6449841
19510.6468566
17060.5354182
19514.1547292
19513.011666
17163.5822665
17119.4843985
19516.0472729
19511.1887912
17159.2814234
19516.9062871
19524.3010378
17187.1101038
17184.6660423
19520.1124633
19519.7312671
17173.5665169
19514.263426
19513.6063865
17111.9883973
17141.9559729
19512.093826
19515.1219695
17148.0002281
19515.7905637
19514.9214824
17118.9219233
17119.4190194
19516.6573655
19515.312137
17133.1353427
19520.4424765
19525.9240411
17209.4002919
17175.6946967
19525.4047685
19521.3375266
17149.5670688
19518.2232558
19520.6496845
17185.4027364
17024.011715
19523.8208604
19513.6663977
17101.2946774
19515.5696451
19513.6920891
17090.6224697
16949.8306985
19516.8409731
19511.3775979
17049.2713312
19513.1604285
19503.6285675
16906.939039
16879.1135298
19509.0519126
19508.1921983
16987.3901423
19500.3307574
19515.9532443
16929.5710457
16922.9064471
19508.8133955
19507.7326276
16803.2167247
19492.3621674
19492.7144221
16811.4385754
16597.4658352
19500.5674004
19486.0735
16700.5302777
19497.6126292
19498.5693278
16815.375634
16620.9813909
19503.9305146
19493.6698258
16711.336204
19491.5441473
19487.18341
16565.8159224
16579.5027637
19487.6904381
19489.0741326
16635.7989851
19479.4953131
19486.8400393
16593.5409521
16559.7365783
19483.2460979
19480.5486656
16532.1933859
19480.0510631
19483.9599178
16569.9264655
16555.3279439
19482.735636
19481.3839029
16536.0457786
19483.7564995
19485.276511
16544.219747
16542.5652641
19484.6936414
19485.7706662
16541.7750612
19483.9166144
19486.8740617
16559.1626636
16558.8052198
19484.6866878
19486.1812003
16546.3000376
19486.1982943
19485.9285088
16612.0652884
16582.0633794
19488.8318222
19483.2223657
16613.6424404
19485.5626374
19484.1093108
16568.0534862
16511.3735726
19486.8838105
19483.4949811
16574.7684083
19487.7630973
19487.887918
16577.773013
16629.2590905
19486.0262282
19489.3010303
16605.9261235
19488.50833
19489.165972
16510.4830068
16584.5964858
19487.8759161
19489.5211226
16567.842974
19470.173387
19479.4166662
16526.2221144
16578.6731354
19468.6415032
19479.8260382
16560.8513579
19445.4148628
19475.6572128
16060.141957
16535.4535018
19442.0399463
16115.3872702
19480.62992
19476.9572657
19486.5391899
16588.8052766
16600.7697386
19485.0482022
19478.5695696
16574.1528945
19456.7013205
19494.7768723
16545.9645234
16182.8312402
19459.4795573
16154.5411482
19490.8320591
19505.8958118
19504.1816084
16902.3499
17023.6969781
19503.1400976
16967.2683342
19506.2392494
19504.9031
19503.2616667
16925.409559
17017.7855341
19502.8091112
19506.3250229
16984.0656081
19509.0873267
19511.1926933
17082.340985
17104.9992912
19511.4046954
17051.1703406
19509.2464181
19508.9329143
19513.2628948
17093.7685544
17114.9307023
19510.1566251
19511.6467162
17061.7153291
19509.9616839
19504.3543755
16953.1840761
17029.1075313
19505.3468633
19508.2510046
17041.472033
19511.9258708
19510.0195236
16974.5269517
17103.3686346
19506.8958425
19514.6569617
17060.8038275
19514.5590932
19516.0045662
17118.2135616
17215.0651678
19512.1973083
19519.0158821
17133.1754882
19516.910688
19523.3663914
17171.5430979
17224.1555203
19519.3156429
19521.3873388
17144.0464531
19518.2044168
19512.1254775
17038.4451605
17123.2093134
19513.5228294
19516.6750887
17131.1106601
19518.7549322
19514.7766569
17052.5320854
17128.8374959
19514.1482638
19518.9569774
17130.0114563
19522.5083945
19524.5383965
17189.2543545
17256.9592394
19521.1247062
19525.3337487
17186.7113133
19522.7581722
19524.7402192
17166.7993531
17248.8744835
19522.5487204
19525.3355369
17176.5340231
19519.5934169
19515.3363712
17088.4855994
17133.7600355
19516.0080912
19519.1942153
17135.5073919
19520.2636668
19517.8463206
17100.9668489
17141.6989608
19516.9169516
19520.5746222
17138.9427135
19521.9080492
19523.9891694
17155.770194
17180.8183383
19522.179836
19523.5534926
17143.3721219
19521.8374925
19522.5937013
17130.392228
17167.5001424
19521.7713775
19523.2442839
17137.7457522
19520.1092128
19519.2919719
17103.0447188