/*--------------------------------*- C++ -*----------------------------------*\
| =========                 |                                                 |
| \\      /  F ield         | OpenFOAM: The Open Source CFD Toolbox           |
|  \\    /   O peration     | Version:  v1906                                 |
|   \\  /    A nd           | Web:      www.OpenFOAM.com                      |
|    \\/     M anipulation  |                                                 |
\*---------------------------------------------------------------------------*/
FoamFile
{
    version     2.0;
    format      ascii;
    class       surfaceScalarField;
    location    "10";
    object      phi;
}
// * * * * * * * * * * * * * * * * * * * * * * * * * * * * * * * * * * * * * //

dimensions      [0 3 -1 0 0 0 0];
oriented        oriented;


internalField   nonuniform List<scalar> 
92311
(
0.203946077591
-5.98916793304e-05
-0.00115862253014
-0.203751920845
0.0010243578467
-9.71161832432e-05
0.204067507496
-0.000802235688164
0.000777936973595
0.203925571874
-8.72875387594e-05
-0.00119394194672
-0.203762896081
0.0010586745589
-0.000226216068158
0.204107692858
-0.000738357171835
0.000685384293251
0.203873714865
-7.42893506936e-05
-0.000126786993138
-0.00102732551805
-0.20353101937
0.00102068278578
-8.24527591865e-05
-0.000139795941928
-0.000134656550342
-0.000131839649758
-0.000205980032583
0.204247233163
-0.00048986569563
0.000522026529146
-0.000159377408208
0.0510412263729
-1.42888920366e-05
-2.78272446797e-05
-1.5749352634e-05
-2.56038872405e-05
-0.000284696298621
-0.0510367861084
0.000289464640022
-0.0511015870651
0.0511925170501
-5.28651871511e-05
-4.54863652764e-05
-4.60608761357e-05
-4.59725721335e-05
-0.000145132256326
0.000109944028956
-6.56381143518e-06
0.00425364681596
6.95386287711e-06
4.55662955079e-06
1.65215966596e-05
-0.00402981633372
-0.00496266712354
-0.000171151236306
0.00488854503682
-0.0121489288876
0.0079695309387
0.00105394748285
0.00656270677949
2.54780882298e-05
4.44886704172e-05
3.83998509952e-05
5.08038067407e-05
-0.00359646358601
-0.0466901842848
0.00115106059495
0.00311492330348
0.00456758663229
-0.0251405602734
0.0890342420926
0.0427530328145
0.00159041225707
-3.64503472044e-05
-5.01426305982e-05
-5.218746441e-05
-3.4047993415e-05
-0.000204239548161
0.000189977389237
1.34602184782e-06
0.0118139163684
-3.47834149755e-05
2.7056569752e-05
-0.0118141038505
0.0118150135175
-5.65103484188e-05
5.4092029057e-05
-0.0118135281787
1.32171580983e-05
-1.23142293895e-05
3.21196690078e-05
-3.55887242709e-05
0.0512466610726
-2.94160596707e-05
-4.2457390931e-05
-3.90312211575e-05
-7.15679209237e-05
-5.73411616574e-05
0.0511743250373
-7.15659947711e-05
-6.52297757966e-05
-6.9726104702e-05
-0.0511080447306
2.36653318905e-05
-7.09630010506e-05
5.6166462566e-05
0.0118317067543
2.26626744599e-05
-2.45285132649e-05
-1.85692429195e-05
0.0128078519611
1.11073851555e-05
-2.67138746296e-05
-0.0128092727394
0.0128015848922
-3.6004936548e-05
-4.30884564304e-05
-0.0127983827879
-4.91925381041e-05
0.204226088819
-0.0019861858391
0.00176262860119
-0.203953339025
0.204135716264
-4.17548441316e-05
-0.000305602686515
0.000279190656659
-4.51713017288e-05
0.204243759631
-0.000158701658998
9.59615884428e-05
6.13789318061e-05
0.204253357665
-0.00203392492229
0.00176964133798
-0.204099569746
0.204262637932
-0.000113576645206
-0.000400516031907
0.000317439902447
-2.73861247348e-05
0.204355224706
-0.000185029335882
7.47642866416e-05
6.96185672685e-05
6.60526281991e-05
5.33041037941e-05
-0.0018999284136
0.20414652921
0.00165891053552
-0.20409895903
6.5928478359e-05
-7.12314949291e-05
-6.56906242086e-05
-0.000138512730737
-0.000115189697459
0.204525263497
-0.000146925574531
0.000145918858972
0.0511768842928
2.13239669877e-05
2.5838679903e-05
2.12438529618e-05
2.49255512884e-05
-0.000500224022726
-0.0511695585761
0.000469208610776
0.0512552815666
-1.48013332504e-05
-2.77921962866e-05
-1.5742666912e-05
-1.30767860873e-05
2.51638478672e-06
-1.09291019708e-05
0.00678722563307
0.000498338052783
-0.0144344986001
1.40102196229e-05
3.71757775424e-05
1.86668590957e-06
2.65331040051e-05
-0.00507944739842
0.00833750071096
0.0137474416576
0.0105629364627
-0.0427490582136
0.01249089297
0.0815864299116
0.0131414504982
0.00990875783796
0.00130675462257
0.00207067211137
0.00277700675654
0.00304468536466
-0.0198335530761
0.0347400948475
-0.00595604498181
0.000382690539662
2.26887346133e-05
1.28949992041e-05
2.22694968346e-05
1.58737941535e-05
0.0512040980863
-0.000417489169971
1.66182948018e-05
1.04749973653e-05
1.8800550681e-05
1.1261693843e-05
0.0511221932221
0.000356040491738
-0.0510993529829
6.52126309739e-05
-1.99241887678e-05
0.0117781747074
3.13325201065e-05
-6.57042544847e-05
-0.0117890919102
4.34006557422e-05
-7.57624434418e-06
-0.0117673016556
3.3776631685e-05
-6.51551948017e-05
0.0117628444836
1.32843971374e-05
0.0127741205283
-9.00374581327e-05
9.21249506208e-05
-0.0127728621915
-4.35190194364e-05
-5.8576764608e-06
7.55235926161e-06
4.54946245167e-06
1.09523124653e-06
0.051225567035
2.27234695022e-07
0.0512253453435
-4.63881744648e-05
-4.98644240772e-05
-5.8855380532e-05
-3.1896545146e-05
-1.7370828872e-05
-4.28964044627e-05
-3.25756539523e-05
-2.17741817447e-05
-1.24278025562e-05
0.0512109148508
-3.49205886916e-05
-2.59590274277e-05
1.62769256011e-05
-1.69521707751e-05
0.0128066645914
-1.64006409624e-05
-2.75109109662e-05
-0.0118476347345
7.53355201611e-05
0.0118580314106
-4.18636892186e-05
-4.22538310825e-05
-3.38270777496e-05
0.0128052931718
-0.0128056290884
-4.67163971346e-05
0.0128030093236
3.23589760591e-05
-2.59765847233e-05
0.000132219326229
3.99816943209e-05
6.26543330259e-05
4.56697553289e-05
-0.00335168911739
0.00662288636384
0.000646012312261
0.00226934933114
5.52111016974e-05
9.03561427976e-05
9.79310763845e-05
6.97164729259e-05
-0.00510891687471
0.0100807715112
0.000415202383736
-0.00504580043485
-0.0186678686297
0.0180328667238
0.00910053845513
0.0128259816852
-0.013445429477
-0.000263481026293
0.00139279908394
5.8885597586e-05
7.89087733968e-05
7.17619829932e-05
-0.00292137624619
0.00794346473584
-0.000828822103701
0.0117294691024
0.00788438808179
6.82139472384e-05
0.0127618947681
-7.4306221916e-05
-0.0127687432438
-0.0127496451506
-2.97282316853e-05
-5.8903160439e-05
0.0127498442018
6.06091627975e-05
-1.78158358658e-05
2.094680298e-05
0.0118022043565
1.55802413405e-05
7.39029513635e-06
0.0118399176625
-0.011837613668
-3.98993729259e-05
-0.012758542321
6.87687257231e-05
0.011827759285
-1.88912158665e-05
0.012762478256
-6.41162624724e-05
0.0127521741991
-3.69757403052e-05
-4.40736770835e-05
4.2295832063e-05
2.9265563146e-05
-0.0127648147839
0.0127782727595
-3.87046232064e-05
-3.90069617019e-06
2.90996552254e-05
3.4964251533e-06
6.08598260453e-05
-0.0118364921836
0.0118368465021
1.4642814919e-05
0.0127645615791
2.56179046526e-05
-3.91023905585e-06
-5.12595046407e-05
-0.0127852469329
-6.24829443697e-05
-4.06910524194e-06
0.0128010817397
-2.14824790143e-06
1.9279997145e-05
0.0127986102017
-2.88605279896e-05
3.31671736576e-05
4.73677885826e-05
0.0118440391644
-3.39418104105e-05
6.338774015e-05
0.01185403853
2.10566774096e-05
1.59542182776e-05
0.0118616766392
3.48917657579e-05
0.0128110997893
-1.50883319337e-05
-1.17098372362e-05
-0.0128145792249
0.0128109566986
-2.96915835537e-06
4.66568094951e-05
-0.0118416723439
0.0118398707966
-3.10374625401e-05
-0.0118557229506
6.46179707156e-05
0.0118554801071
-4.67631718e-05
8.78189136306e-06
-1.26809440649e-05
4.31931487358e-05
3.06023964769e-05
-3.30760257998e-05
5.32002725023e-05
-3.21233531666e-06
-8.05761319367e-05
-0.0127844889923
0.0127944719555
-3.7023578323e-05
7.23341665841e-05
-0.0118836280408
0.011888052011
-0.0119046870367
0.0119098566129
7.69309237035e-05
-2.27673899371e-05
-6.51047498095e-05
-0.0127884347816
8.68710207063e-05
-5.93235124551e-05
-0.0118954455234
6.12228956622e-05
-0.0127664386267
-2.3615773942e-05
-0.0118850873963
-0.00315413565052
-0.00278976138335
-3.05697609665e-05
-2.82496860666e-05
-4.14359617767e-05
-4.52478983743e-05
0.00402605630821
-0.00180352410832
0.00386688831947
-0.0172350940235
-0.00186385805924
0.0246381009601
-0.000354219821443
-0.00152006588478
-0.00495304075393
-5.76400716136e-05
-6.26114230377e-05
-5.79650893699e-05
-0.00129613537554
0.00257780599356
0.00543502736016
-0.00440361019418
-4.8936875177e-05
-4.91514139457e-05
-5.30768276077e-05
7.13570476192e-05
0.000216933806814
0.000232805091246
-0.0116134675173
0.00389632375731
0.0162797457052
-0.00966129833418
-0.00118123898321
0.0017097669496
-0.00786096945425
3.46882331644e-05
7.06230223079e-05
6.35553787459e-05
2.49079125463e-05
0.00763569792104
-0.000139333323341
-0.0154857170571
-2.2868545771e-05
-0.0125477356365
0.00153235030216
0.000839100802204
-0.003287579203
4.89850403954e-05
3.93163949976e-05
1.34717260755e-05
1.35916396155e-05
-0.00856905642234
0.00304041112379
0.00230560328777
-0.0120057535839
-0.00216831711247
0.000149259019977
9.12714813592e-06
2.02169834621e-05
2.20025395865e-05
-0.0144535672229
-0.00348570348498
-0.0102546946743
0.00320493805021
-0.000100379425136
-0.0127822829166
1.37621010605e-05
0.0127862920795
0.000103955717794
0.0127917381725
0.000107119698319
-0.000104560191577
-0.0127883271127
-1.26821017301e-05
3.35589322267e-05
0.0117689926428
-6.93106769075e-05
-2.02168415357e-05
0.0117842823331
-0.0117957294061
3.86404460666e-07
0.01279784674
-9.78696678341e-05
-0.0127790124278
0.000108612032382
0.0117720726138
1.63152199301e-06
-8.87818003377e-05
0.0127893745435
1.57697886034e-05
9.26367431469e-05
-0.0128028141615
8.27770240767e-05
-7.7630693758e-05
0.0128029938693
-1.41782677539e-05
3.61595743471e-05
-6.92280084741e-05
-9.20688127051e-06
-0.0117689880644
1.99131641203e-06
0.0117608098939
-8.56549243422e-05
8.86854668142e-05
0.0127901238485
1.97636315841e-06
0.0117955169633
2.06067748998e-05
-3.82437413873e-05
-0.0117951650396
-7.10381061203e-06
2.01406002731e-05
0.0117899889275
-3.57737984446e-05
-8.57444221014e-05
0.0127748370396
8.84288826138e-05
0.0127824892436
1.96604189383e-05
-0.0127807162983
-1.30576711815e-05
-0.0117790715101
0.0117727822313
0.0127836375035
-0.0117820485692
4.93212303311e-06
0.0128048098172
1.71842072225e-06
5.9979342201e-05
0.0118356957901
-3.68477333484e-05
0.0118520588619
8.3549855063e-05
1.8490801171e-05
2.03305180036e-06
0.01280103389
-2.80005027013e-05
-3.01347865072e-05
6.54781320842e-05
0.0118362129442
-3.40445475462e-05
0.0127932722353
2.30091442878e-06
0.0118505035837
9.55584797526e-05
1.33509495506e-05
0.0127890335638
1.77768182681e-05
-2.50267407332e-05
-0.0127817482242
-5.28478717229e-06
0.0127779900722
-1.09438445585e-05
-3.31771707909e-05
7.21110569981e-05
-4.11991755537e-05
-2.49420065e-05
-0.0118536520108
0.000114074306969
0.0118601571942
-3.78764275644e-06
-2.12444572036e-05
0.0127810686848
0.000108666576975
-0.0128055139219
-5.35941414135e-05
4.14143180867e-05
-3.78084268484e-05
-7.02133727103e-05
-4.1933818697e-05
8.75117617011e-05
0.0118849389012
0.0119047431379
9.30015910674e-05
-0.000102560875768
0.0119065334548
0.000110702516648
-1.58731426021e-05
0.0128027342286
0.0118869940372
0.0118991875181
-0.000116696512397
0.000126266772671
2.82834004309e-05
-0.000126638821126
0.0118997359074
0.000137210210881
2.59625780642e-05
0.012792956102
-2.03288777363e-05
0.0127950037565
-6.69867938124e-06
-8.42047206044e-07
-0.0118858412599
0.0118875860011
0.0127863939897
-5.45825422906e-05
-8.12063418768e-05
-4.64252437242e-05
8.76096635054e-06
0.204685074774
-4.58065858508e-05
3.19759386466e-05
-6.56329690912e-05
-1.39500807191e-07
5.04970933492e-06
1.13075148685e-06
1.89384911598e-07
1.9152880261e-05
0.0512112346252
4.10460653205e-05
-0.000380680000046
0.000136111292672
4.69334200594e-05
2.81201930086e-05
3.03132161262e-05
-0.00138676912781
-0.0129685444879
0.00592268241107
0.00505248709233
0.00522050597005
0.0417117857016
0.00822437573581
0.00622951026577
0.00129727204051
-9.1954231656e-06
2.64530712332e-06
4.20386840788e-06
-9.97611574643e-06
1.95270245677e-05
-0.000299285695174
0.0511296328709
1.95115810362e-05
-4.58811807247e-06
1.25465926419e-05
0.0117896241157
0.0511947404366
-1.45558383311e-05
-3.16768055084e-05
-1.35192934713e-05
-2.3488207382e-05
-4.75387980178e-05
0.0511639830475
-1.26191315754e-05
-1.3985267972e-05
-9.80580673146e-06
-2.05498362368e-05
8.41672062766e-05
-4.29488977789e-05
-2.11512689188e-05
0.0118764063399
7.22844530454e-05
-2.84723227341e-05
-2.22265349698e-05
2.48856502833e-05
-0.000131408984299
0.0118880322202
0.000140013752379
0.0118640610146
-1.95291089289e-05
1.46336523792e-05
-9.7845812319e-05
-0.0118703811943
0.000108982252954
0.0511311271643
-1.13909155935e-05
-1.28310671108e-05
-9.06161372407e-06
-1.48067682232e-05
3.98964056437e-05
0.000103767437455
-6.26838507976e-05
-1.38091078887e-05
-2.39523835936e-05
-1.84418467359e-05
-1.83187320142e-05
5.00646509419e-05
0.000136147515796
0.0511105152204
-9.09544656005e-05
-2.86753953754e-05
1.24645533318e-05
-7.45592292702e-05
0.0118686695858
8.62161745882e-05
-4.78932223617e-05
3.53481924294e-05
-5.76022657342e-07
-0.0118779382278
0.0118803315922
1.09833227059e-05
-3.09454442571e-05
-1.04147102444e-05
-2.38092003707e-05
-0.00144175435049
0.00349445685209
-0.00197174344766
-0.00888436336059
0.00098611056403
1.96780668288e-05
2.14605627148e-05
2.9223113982e-05
-0.00114381328817
0.00108736431795
-0.00827577214364
3.78499469992e-05
2.26005697053e-05
3.9418950906e-05
0.00200121943925
-0.00381650329673
-0.00165942860387
0.00387962041784
-0.00641543433149
-0.00578716572985
-0.00182137751734
0.00212773539771
-0.00128100373521
-0.000310472659007
-0.00814277197429
4.06457822045e-05
3.37638035947e-05
4.25549054271e-05
0.00197699198061
0.00120219764882
-0.00345789716451
3.85554728963e-05
4.40477707453e-05
3.64627008234e-05
0.000101783871044
0.00146774306831
-0.00846336787913
-0.00141620049448
-0.0127814206449
-3.00171468678e-06
6.18993122918e-05
-6.63214689932e-05
0.0127796554165
-7.19116970759e-05
0.0127705009484
-9.26878470422e-06
0.0117691899457
-5.565131329e-06
7.48593949269e-06
1.06420086741e-05
0.0117767110292
-7.48336583824e-05
-4.49220069597e-06
0.0117544164455
0.0127688740725
-4.29616975291e-07
-0.012775923189
2.00472571888e-05
-1.35113252478e-05
0.0127696761416
0.0127772141882
1.82254808351e-07
-1.55193488445e-05
-2.00329228869e-05
6.50949587668e-05
-1.27529255378e-05
0.0118910800802
-2.17213364817e-05
0.0118684421063
0.000113872053319
-1.28405571747e-05
0.012770769221
-1.62343391319e-05
0.000107760060713
0.0118761806011
-0.0127769708966
-1.15643501689e-05
-7.1038704634e-06
0.0127675708158
1.64375628742e-05
0.0127788604687
-9.29271051202e-06
3.85206108756e-06
0.011885834297
-0.000128406876759
2.07519423323e-05
0.0118780993705
0.000138785226251
0.0118827433216
0.0127689311353
-5.83548759341e-09
0.0127620819131
-1.59604307043e-05
-5.85135896505e-06
1.46946008408e-05
7.47099378584e-06
-0.0127601587461
0.012751071637
2.24532344113e-06
1.24412657115e-05
-0.011880352835
0.0118763804368
-6.84901393952e-05
-0.000117850764812
2.05107547141e-05
0.000127503372172
0.0127560784941
1.61662444487e-05
-9.20174059665e-05
2.88180259316e-06
-0.01274958088
-1.41239979751e-05
-1.85816884013e-05
0.0127454685189
2.543682055e-05
1.22021511156e-05
0.0127433101675
-4.72992270399e-06
1.02230208376e-05
0.0118789959261
-4.67522131568e-05
-4.8292298426e-05
1.84299909432e-05
0.0118711872601
6.11868408487e-05
1.99299628903e-05
0.0118830917538
-2.39372222653e-05
0.0127391010168
-1.06027958624e-05
0.0127438252374
-1.77739915178e-05
-2.5865109048e-05
3.15186323806e-05
3.33317410661e-05
-0.0127374109808
0.0127404482237
-2.48435068963e-05
2.50068432752e-05
-0.0118836706519
1.46192830784e-05
0.011882057899
-2.10811893551e-05
2.4715337353e-05
3.39672753864e-05
3.70218844284e-05
0.0127467430913
-3.00384326788e-06
-1.76596126002e-05
-0.000464617079478
-0.0491614328168
0.0492232971832
0.000632414728513
-0.000182612442706
-0.000145424076782
-0.000167214040396
-0.00014811372252
0.000414061275313
-0.000724761250519
0.0500088373151
-0.000269035280686
-0.000211114751435
-0.00025793386344
-0.000219626216049
0.000598947540246
-0.0497012567487
0.000776227877763
-0.00127838484344
-0.0504683599088
0.0510043218343
0.00116566122593
-0.000250945902999
-0.000253310843795
-0.000269038119136
-0.000246365666807
0.000596436144521
-0.00100673898655
-0.000164644224548
-0.000177322294501
-0.000170598737144
-0.000175829452608
0.000482552239311
0.0511561374208
0.00082904094495
-0.0507726117793
5.15661093226e-05
-0.000353072398171
-0.00401363288726
-0.00186634356854
-0.00198655922492
0.00783766630382
9.21878258709e-05
7.53139578518e-05
0.000139543821896
0.000433768364745
0.0101093358335
-0.02057346818
0.00437822162366
0.00466911828104
0.000511995416808
0.000470745824255
0.000514660320423
-0.000546679459853
0.000221574172159
0.00278300321102
-0.0178090659838
0.00369073863313
0.000273483940647
0.000241782183028
0.000275132130414
0.0125872074483
-0.00226356808815
0.000332334567507
-0.00633211528247
0.0227470666258
-0.0243669906749
0.00375636826818
0.00299797447118
0.000322433085884
0.00027773511819
0.0002651150409
0.000212765134272
-0.000404929391818
0.000190269147349
0.000208854933138
0.000181617539367
-0.0247554510042
-0.00226361306072
0.00184574686024
0.0247848534207
0.108231703047
-0.0103337787751
-0.00682817172049
-0.0105586572001
-0.00754030436463
-0.0110548073967
0.00303330991843
-0.043769791209
-0.0364355952766
-0.0148125309033
-0.00967547910326
-0.0146248768037
-0.0111384875923
0.0587304284566
0.0363670502868
0.103471736021
-0.0159743296113
-0.00868377752261
-0.00996444508675
-0.0087871613246
-0.00852656173775
-0.0447241765586
-0.0303548050424
-0.00450983538739
-0.00626589441171
-0.0033232113742
-0.00332784574452
0.176198929076
0.0880942604923
-0.00312703337769
-0.00314124028547
-0.0020536252887
-0.0383589941762
-0.0102061391718
-0.00218885675126
0.00125349963967
0.00116450048002
0.00237608113853
0.00259451460143
0.13391898596
-0.00837189226706
0.0001131155822
-4.9324660317e-05
-6.12162345616e-05
-5.68416335568e-05
-5.29238278349e-05
0.0489351068649
0.000263443584982
2.85562290065e-05
-0.0491197410967
0.0489288023494
0.000283299527276
-5.3315657739e-05
-6.60591466857e-05
-6.18586030498e-05
-5.70242818174e-05
0.000260805620185
-0.0491214643438
-1.53575491502e-06
5.31013242082e-05
-0.0122037615944
3.95347307149e-05
0.0121519419469
-4.02092142847e-05
0.0121418558694
5.13881439569e-05
-7.14290198112e-06
6.11960677177e-05
-4.9535022039e-05
-0.0121990977241
-0.000128378174368
-0.000113734361428
-0.000106517894602
-0.000129301508844
-0.000235902773338
0.0122485092308
0.0121782029823
0.0122138884184
0.0122093707405
0.000328197092674
4.07200246671e-05
-1.99598484156e-05
0.000107146128646
-4.30293412995e-05
0.0120574573646
0.000429148462318
-8.58577839764e-05
-9.17659927001e-05
-7.95816193167e-05
-9.96320683249e-05
0.000307983756491
-0.0492584783796
0.0494429616819
-0.000112862963415
-0.000147379552119
-0.000128349285455
-0.000127071130608
0.000355790265736
-0.0493849710372
0.000530663559785
0.0121329458204
-1.37078335638e-05
8.58228617401e-05
-0.0121969106891
4.37226769784e-05
0.0121083529997
-0.000107073176714
0.000187931487681
-2.04208901312e-05
-0.0121764761618
8.64714161351e-06
0.00100573509302
-0.000209795298295
-0.000267539844938
-0.00020110141759
-0.000289473077826
0.0494976700873
-0.000204901388784
-0.000175687739581
-0.000211544698913
-0.000183704804336
0.000107244851846
0.000113173325556
0.000132092192453
0.000111238349947
0.0496176434557
-0.000221619248382
-0.000189861809434
-0.000183087396014
-0.000244945495287
0.000573182753169
0.0501130456674
0.00103608274848
-0.000235142732194
-0.000317487747735
-0.000307858467915
-0.000250123782086
0.000585587949247
0.000137406797944
0.0120523850417
3.39464975469e-05
0.0117928737552
-0.000304039224074
0.000384803533221
-0.0118822804945
5.62960753377e-05
-4.78960012781e-05
2.13552650764e-05
-0.000192387973406
0.000241888678842
-1.91235042755e-05
0.0120556717319
0.011893980359
0.00012017012153
-0.000388354758683
0.000418699550837
-9.8288865361e-05
-0.0119462865194
0.0507130131248
-0.00031630958967
-0.000285303533214
-0.000276840122655
-0.000307927835306
-0.00133144105145
0.000639982774989
0.0015100785772
-0.000228611665103
-0.000189477622347
-0.000220805785083
-0.000207074913703
0.0514766946634
0.000393501504543
-0.00182099396571
0.000409886539602
0.0117939983635
0.000103793310232
-8.06360743487e-05
-0.000430895480044
0.000335449940649
-0.0118730715478
0.000269598288239
0.0119348435836
-0.000235921477124
0.000150279786527
-0.000386590667594
0.000390348575952
-0.000147537603812
0.0118876700295
0.000256296139595
-0.000253048761988
0.000218769581071
-0.000278846913143
-0.0118997599755
0.0119565872195
0.000975299840253
-0.000259232819451
-0.000302504421469
-0.000252566124713
-0.000297945569451
0.00071366315891
0.0506632916024
-0.000236364841348
-0.000257221753943
-0.000266525541917
-0.000232952345263
0.000700595249159
-0.0502613983844
0.000865958135513
0.000260988188653
0.0120709700586
2.40094649594e-05
-0.012112245311
0.0119190221311
-0.000320187400004
0.000375643466002
-0.0119747360284
0.000120678650849
0.0119792054166
-0.000238752664523
0.000294104046609
-9.69897274833e-05
-0.0120236556958
8.60866445381e-05
0.0012442226953
-0.000190463874647
-0.000176425915617
-0.00020449322247
-0.000154985864586
0.0514229502858
0.000573605271792
0.0511243244481
-0.000215370003176
-0.000204412183927
-0.000214081600047
-0.000200396939333
0.000531976531592
-0.000155627098931
-9.90977992026e-05
-0.000145226574425
-0.000117219351302
0.0514010753401
0.00104071264932
0.000444040471905
0.000344413851396
0.0119140053516
0.000143326732804
-0.000215585731157
0.000183529390396
-0.0119267133134
0.000236180056607
0.0119788500087
0.00010578055697
-0.000236406736989
0.000251937151775
-0.000112506640311
0.0119703603446
0.000181201229435
-0.000112308043044
7.36794606783e-05
-0.000195322455986
-0.0119996562995
0.0120521170591
0.00022823693507
0.0119949813712
0.000100884378629
-0.0120054848982
5.31787707546e-05
-0.0120261083507
0.0120658652226
-7.08363811916e-05
0.000159267761148
0.00301672289568
-1.67904111042e-05
-3.00433062594e-07
-1.69401863889e-05
0.00741270995564
-0.00420373677239
-0.00734696778929
0.00115596227522
0.00649245140282
0.00193009907201
2.09558992775e-06
-1.14951385968e-05
-1.70366535072e-05
-0.00730675971795
0.00192235854061
0.00680154280823
1.17720272138e-05
5.53251470813e-05
3.81509201446e-05
-0.00240459372951
0.00161279919034
0.00367885701358
-0.00399448673403
-0.00566426603005
0.00222371053999
-0.00310108380128
-0.000767819673936
0.00289528053365
-0.00844608656394
-0.000545675835662
0.0040046464446
-0.00589556758982
-0.00297208212693
0.00356296267211
-0.00286897419768
-0.00853927471901
-0.00498500635128
0.00101935743837
-0.00637149172459
-0.00157463662268
0.00342785186653
-0.0122271022823
-0.00398614048366
-0.00189849765899
-0.00153558370618
-0.00291397369563
-0.0056453095528
0.00106682006121
-0.00580019991821
-0.00453189300175
-0.000382150285046
-1.59606400618e-06
2.78082507711e-05
3.42332741743e-06
0.00427911698341
-0.00602838110694
-0.0019240655309
6.3510769319e-05
6.18892084002e-05
3.34307364162e-05
-0.00146361690649
0.00627978684108
-0.00354305765076
-0.000710084781327
0.00682325896308
0.000213528240042
0.000379275002575
0.000267137229875
0.000951316339849
-0.00812980503328
0.0061947342894
0.000138288787646
0.000270531697943
0.000209568983079
0.0046748849407
-0.0164118659326
0.00149046480351
0.000374360089153
0.000342453764284
0.000304551318506
0.00181860209423
-0.00633544496433
-0.00213901995562
-0.004334186905
0.000144895434588
-0.000236177681022
-0.00756810264741
-0.00109239132832
-0.00302955053594
-0.00540812962829
0.00713885658369
0.00417718033449
0.00051125488677
0.000366500029524
0.00044784683405
-0.0305385334509
-0.00310975759079
-0.0242464636673
0.00428854045768
0.000412591736882
0.000367893915453
0.000429363317188
0.00286450025855
0.00743487886245
0.000310741152628
0.000315857245634
0.000383090243305
-0.0286670931864
-0.000210541295391
-0.00238694164263
0.00276591993879
-0.00393384174056
-0.00285073792258
-0.00159814013302
0.00191285939789
-0.00247527963001
0.00120734621842
0.00405315494591
0.000294977776095
0.000277378660478
0.000277577440086
0.00359874297446
-0.0232155438777
0.000260904681895
0.000235225312384
0.000256994002271
0.0217602985173
-0.00192794200054
-0.0057981721564
0.00441322243573
-0.00559825950598
-0.00409841120644
-0.00618310223243
-0.0051036724608
0.00697974874875
-0.0044349137271
0.00446037845316
0.00166392816626
0.000277068000009
0.000180280754852
0.000231021234407
-0.0239590779556
-0.0228917267746
0.00207587954097
0.000253993394052
0.000219086330546
0.000242802587002
0.000856841571146
0.00013774775769
0.00017662719745
0.0002010402047
-0.0219432955902
0.002028893816
-0.00182587836768
-0.00168296205654
-0.000490330852975
0.00341223324091
0.000422425898561
-0.00275436590413
0.00615322571474
-0.00276233079942
0.0122697157743
-2.44619922552e-05
-6.40161449386e-06
1.99194292039e-05
-0.0123080848139
1.19852583317e-05
-0.0122665319662
0.0122397066075
6.41929283029e-06
4.30552793396e-05
2.92743531351e-05
-4.18346298902e-05
-0.0122512190479
4.65751691213e-05
-0.0122028969995
4.45477491352e-05
0.0121502403295
2.86223500435e-05
0.0122425603065
4.79472403925e-05
-0.0122493493379
8.60208748984e-06
-0.0123051586901
0.0122758640318
2.97650665821e-05
-2.67174190421e-05
-0.0123122810344
-4.3982471274e-05
-0.0122860261494
0.0122647744634
5.99528093466e-05
5.13157778073e-05
-0.0122014780425
0.0121463182615
3.46403916418e-05
-5.09336166452e-05
5.40259978969e-05
-0.0122487351778
0.012249647966
3.95181574213e-05
-0.0123181893292
-0.0122485947612
-0.0122183602517
7.5777584653e-05
-0.000146421575863
-5.1212598961e-05
0.0122118322651
-5.33066768707e-05
0.0122418550821
6.94095450574e-05
9.12422129481e-05
0.0120659302378
-4.20246356412e-05
0.000162562876109
-3.6377798775e-05
3.46729208415e-05
0.0119514834947
-3.75592360259e-05
0.00010265982877
0.0122476949593
-3.6227329384e-05
0.0119578883151
-4.43733911717e-05
0.0123117465971
-7.11348721604e-05
5.57147949511e-05
-0.0123378111698
-0.0122992406557
6.81517972712e-05
0.0122850151605
5.59965027445e-05
4.7285590272e-05
-0.0122478705977
0.000107997309699
-0.0121891258446
2.98517886342e-05
0.0121228106936
-0.0123280148467
8.3140444663e-05
0.0123045269325
3.43510413129e-05
-0.0122439094529
0.0123284986583
6.38041909629e-05
-9.85998101875e-05
-0.0123510279457
-9.41604928803e-05
-0.0123487835816
0.0123637713946
0.000119644677688
0.000144726624193
-0.0121834414192
0.012112123991
0.000134634731599
-2.2289418531e-05
-0.0122300064899
3.42387740042e-06
0.0123334119522
-0.0123641454424
8.65121495577e-05
-0.0122366724431
-0.000119894928592
-0.0122968395888
-0.000246615231419
0.0123328995663
0.000148193194742
0.0122671583399
7.88275580087e-05
0.000205540802783
3.0059918975e-05
0.011942733498
0.000165002158235
0.0120459919429
2.11757976781e-05
0.012288005493
0.000103193429376
0.0119446232476
2.58116548094e-05
-0.000161000683294
0.0123861963676
-0.000302399213473
0.000200745233541
-0.0123223004732
0.000220321258642
0.0124072534386
-0.000187925603721
0.000263276845471
3.93631529e-05
-2.94968010269e-05
0.000422914860889
-0.01189572277
8.59156465792e-05
0.0118240360009
-0.000132566332513
0.000263682349092
0.0124773732642
5.28093487722e-05
-0.0123360947323
0.000169500844678
-0.000293990887172
0.012387314017
-0.000121039567381
0.0123831703966
0.000153787924512
0.00020347373585
0.0120470994182
0.000334959740741
-3.01638425689e-05
0.0119779585219
4.35011360594e-05
0.0124421579109
0.000200880633936
0.0119582766816
0.0124537424266
0.000226362345716
-0.00032680270356
-0.000287107733875
-0.0125163878812
0.0125996841792
0.00030550805525
0.000419071265675
-0.0119247180041
0.0118685472246
0.000351877305911
-6.5662969212e-05
8.81874435202e-05
0.0125425062933
0.000254368386036
-0.000358105297717
-0.0126066310541
-0.000462805724882
0.0127225833675
0.00038581087541
0.000319491929427
0.0125371282239
0.000278330919764
0.000247462040262
-0.000245167930379
0.000476141372224
0.000164074038613
0.0118069948079
-0.000141453622452
0.000429833822804
0.0118250450142
0.000143904213934
0.012664746405
0.000314054767652
-0.00032265150631
0.000315798469841
0.000264210360288
0.0118354111023
0.000207186845251
-0.000387948674295
-0.000384008280457
0.0128678382733
0.000412397515533
0.000215068088827
-0.0128342292299
0.000424131131083
0.0129589468626
-0.000410070430751
0.000197147844399
0.000414134714026
0.000205732836564
-0.000174057125368
-0.0118801681385
0.000294942890537
0.000286818038854
0.0119348182697
-0.000354703968625
0.00021227768009
0.000225565715759
0.000436164545239
0.012962449866
0.000189203175962
-0.0126594828866
0.000387216829186
-0.000421865809038
0.0127642053652
-0.000331236442846
0.0127042825322
0.000332053403338
0.000408162022104
0.0118716789765
0.000385832820813
-0.000220682311944
0.0118808526015
0.000209571543551
0.012797153879
0.000372776404031
0.0118669021692
0.000406037037085
-0.000348718721148
0.0128913832963
-0.0129038030762
-0.000419125712393
0.000398211287628
0.0129541022108
-0.0118974275334
0.000261443516618
0.011956230957
0.000311118659815
-0.00023080716941
0.000216971358419
0.000389945926577
0.0129632538908
-0.000213543469003
-0.0124746728829
-0.000333366223158
0.0125347287511
0.000217798114062
0.0124321981559
0.000172367796252
-0.0124003236152
0.00033168878027
4.90288264064e-05
0.0120070077344
0.000277371272902
0.0120809671948
-0.0121187712248
2.66356606623e-05
0.0124935891416
-0.0124315678407
0.00018794972845
0.0120209408701
5.08355696833e-05
-0.000258561025127
0.0126061920996
-0.000320375286937
0.00024847476347
-0.0125678908849
0.00030423977363
0.012642541585
0.000330804489378
8.49745131662e-05
0.000351067290272
-0.0119887570095
0.000103077909826
0.0119327408103
0.000287226708986
0.0126765890498
7.42639551305e-05
0.0126366328378
0.000237957075664
-0.000294209508909
-0.012568146993
-0.000270469596829
-0.0126600297
0.0127221126595
0.000245279961779
0.000315537164749
-0.0120108820191
0.0119625464453
0.0002774232392
-6.7902064121e-05
-0.0120558057907
5.79450758627e-05