/*--------------------------------*- C++ -*----------------------------------*\
| =========                 |                                                 |
| \\      /  F ield         | OpenFOAM: The Open Source CFD Toolbox           |
|  \\    /   O peration     | Version:  v1906                                 |
|   \\  /    A nd           | Web:      www.OpenFOAM.com                      |
|    \\/     M anipulation  |                                                 |
\*---------------------------------------------------------------------------*/
FoamFile
{
    version     2.0;
    format      ascii;
    class       volVectorField;
    location    "10";
    object      U;
}
// * * * * * * * * * * * * * * * * * * * * * * * * * * * * * * * * * * * * * //

dimensions      [0 1 -1 0 0 0 0];


internalField   nonuniform List<vector> 
28582
(
(0.815491319037 0.0043319384324 -0.000480229363572)
(0.816466742262 0.00322590017463 -0.000572941942173)
(0.815684975666 0.00455585260416 -5.8610477895e-05)
(0.816775220882 0.00292381463784 -0.000243476095483)
(0.815373575476 0.00401175110276 -0.000774640256104)
(0.816899790348 0.00193784177807 -0.00174724445199)
(0.816936196259 0.00471837398442 -0.00152555699918)
(0.818225482392 0.00209977816702 -0.00200627012289)
(0.0872452013951 0.0789591020988 -0.00237260347973)
(-0.170267052775 0.0999628739872 -0.00601829002981)
(-0.279356790611 -0.0331158580619 -0.274446776103)
(0.81736617587 0.0031976366511 -0.00271506913719)
(0.756149965032 -0.00183842825234 0.00118317908118)
(0.756421760626 0.000913219296833 -0.00131652654882)
(0.819801886087 0.000718860305979 -0.00183172896153)
(0.818735166756 0.000411851640044 -0.00350026006219)
(0.75688937839 0.00159642405362 -0.00213464579652)
(0.819729456417 -0.00107224116027 -0.00275696899196)
(0.819336995253 -0.00168562879776 -0.00413091940404)
(0.81526830663 0.00763001716111 -0.000655778966021)
(0.817677245812 0.00105332360252 -0.000343685120679)
(0.817088988964 0.000356100104211 -0.000483125432963)
(0.815577356327 0.00755951785575 0.000196728111431)
(0.817953003993 0.00127793990545 6.57535745886e-05)
(0.81726519147 0.000306562242076 0.000187958059053)
(0.815948049302 0.00724160358966 0.000203256542058)
(0.818444967489 0.00025163166362 -0.00111428493498)
(0.818907146043 0.00770159289452 0.00110434116894)
(0.82017192366 -0.000156381558908 -0.000925289899839)
(-0.221100399719 0.101570345989 -0.00602142501955)
(0.151358136168 0.370230051547 -0.414873651483)
(-0.115172776815 -0.226696508262 -0.249659263864)
(0.819202572068 0.00635411682105 0.00112347841182)
(0.817958173224 0.00596064296 0.000846216424534)
(0.754403875348 0.00290393625339 0.00138129783614)
(0.753146216679 0.00358061104647 0.000782698024408)
(0.817575035976 0.00582596212588 0.00118530810158)
(0.819954981241 -0.000486352851444 -0.00114369021987)
(0.819178024969 -0.000262577167306 -0.00225641721274)
(0.81950092545 -0.000730269071949 -0.0017697424107)
(0.819775585837 -0.00143575333988 -0.0020853007756)
(0.758659612657 0.00322869319473 0.00312752600198)
(0.819501333062 -0.00219391997602 -0.00355538262475)
(0.81946057538 -0.00201279953925 -0.00383715645839)
(0.0506700562028 0.0848104681908 -0.00838757572174)
(-0.0521966327997 0.15092894303 -0.010571218544)
(-0.299694998843 0.129957687518 0.0963721982538)
(-0.208401557681 0.0381091743625 0.0434332968911)
(-0.0444647454118 0.0905498140203 -0.0100181507376)
(-0.22031333952 0.0284831261604 0.0425752567822)
(0.817042521585 0.00460920121879 -0.00093799480784)
(0.816134443924 0.0037965345076 -0.00234937322741)
(0.756159463953 -0.00100914508198 0.000337144292122)
(0.75774798604 -0.0025606501175 0.00056482925406)
(0.816277945204 0.00440277075978 -0.00107298321444)
(0.75765875482 -0.00125728695521 -0.000370101721252)
(0.81689990194 0.00401548155166 -0.00213094984572)
(0.816381017542 0.00276494764407 -0.00272122222783)
(0.817480541794 0.00224392265164 -0.00413276617814)
(0.755984826419 -0.000102640262662 -9.55469872647e-05)
(0.757788275526 0.000795723909861 -0.00179598255152)
(0.816685333368 0.00172662009958 -0.00435860536256)
(0.757720165105 -0.000399575144362 -0.000718342138691)
(0.817237169027 0.00312474605542 -0.00249999892197)
(0.818505216824 1.20693463808e-05 -0.00458882791174)
(0.818163608349 0.00165587183377 -0.00394111993672)
(0.756957199681 0.00237908723884 -0.00171235621501)
(0.758375045723 0.00124593319927 -0.00262490106387)
(0.817376114342 0.00110011741313 -0.00407486054959)
(0.758240373765 0.00188567757285 -0.00249748916256)
(0.819228580542 0.000693706183601 -0.00384415560925)
(0.820000245298 -9.73590910592e-05 -0.00183266563006)
(0.757556396092 0.00250511957807 4.72577770574e-05)
(0.75849912718 0.0033126888148 -0.0010160717568)
(0.819231987241 -0.000853947454914 -0.00361504380971)
(0.757720694403 0.00255794902191 -0.00107102401278)
(0.758866753802 0.002836784962 -0.00197441753814)
(0.819690291997 -6.29904001341e-05 -0.00312430915779)
(0.818741051228 -0.00244311984494 -0.00586656047234)
(0.760446601887 0.00443919773498 -0.00167415728555)
(0.761703988904 0.00480501207705 -0.00344954581571)
(0.818356655102 -0.00105362470186 -0.00501325845901)
(0.761746139446 0.00387038897799 -0.00380623589883)
(0.817294819498 -0.00151929715926 -0.00581279341417)
(0.760717287254 0.00368838861588 -0.00273806940852)
(0.0561800913672 0.0601809549031 0.00236945395167)
(-0.0113730086817 0.370792870361 -0.0620722641332)
(-0.0525712867183 0.0379512100077 0.0108000742672)
(-0.00293813763443 0.02353687137 0.00675266900837)
(0.0195143112103 0.254239808888 -0.159998850122)
(-0.00360496736327 0.226619383625 -0.109849878455)
(-0.117146539758 0.108181576179 -0.00614931451724)
(-0.283622159355 -0.00404868020001 0.0781231565719)
(-0.223227856952 0.00274744297091 0.0389106532358)
(-0.130803748308 0.0367033562279 -0.00481080225649)
(-0.235676174027 -0.0463756657044 0.0409080751608)
(-0.233130120931 0.0578776138031 -0.00880146677133)
(-0.190909514123 -0.0422066791598 0.0211077478451)
(0.818164588528 0.00654199808132 0.00168090121944)
(0.818677335559 0.00676941770022 0.0021874854654)
(0.753371562295 0.00337680685124 0.000799869285404)
(0.754741047998 0.0012182804548 0.00154542096573)
(0.818807363005 0.00629814785949 0.0016770229521)
(0.818142970923 0.00690298390904 0.00207794384815)
(0.753709088692 0.00104668889878 0.000955793136937)
(0.818515748168 0.00585235308554 0.00176356180637)
(0.819607660214 0.00513985280943 0.000707490655933)
(0.753254669998 0.00368828396501 0.000898782465218)
(0.753141318287 0.000780634701901 0.000800529630696)
(0.819322137971 0.00555859400907 0.00169091031671)
(0.818748131287 0.00555531650671 0.000988307483798)
(0.753434508787 0.000917904591661 0.0010664079528)
(0.754908236808 -0.00202867256939 0.00131531363729)
(0.754825435275 -0.00196044923727 0.00112244262578)
(0.817783248652 0.00553523441969 0.000425603439523)
(0.818105439084 0.00592833233888 0.0015178520123)
(0.753731587673 -0.000569441443977 0.00171090251366)
(0.818307725224 0.00571415858648 0.000675697433577)
(0.753935603495 -0.000616127375831 0.00183169256981)
(0.81993255302 -0.00037147250057 -0.00084800632932)
(0.757521129275 0.00297736319162 0.00114843314342)
(0.758380819887 0.00441407185836 -0.000456258659219)
(0.819626748186 -0.00159169343958 -0.00071270043862)
(0.757648556155 0.00280405065174 0.00263284561722)
(0.819476868635 -0.000436955693585 0.00077667038428)
(0.758422165321 0.00521282960853 0.000772085304683)
(0.819133287408 -0.00140758931836 6.59728497647e-05)
(0.817905776135 0.000537406157239 0.00117829312316)
(0.757874426276 0.00309202043226 0.00315377343356)
(0.759001128736 0.00657091591852 0.00238700524973)
(0.818669889334 -1.98628888149e-05 0.00109608698429)
(0.818261370851 -0.00110069983694 0.000742160508033)
(0.758345551817 0.00606890940008 0.00191014229263)
(0.819552033562 -0.00274464027033 -0.00425936996087)
(0.819275579826 -0.00283994818073 -0.00527901334451)
(0.760757392593 0.00550097206042 -0.00126924029887)
(0.762205573124 0.00583810125437 -0.00299918901679)
(0.761903091337 0.00703781390455 -0.0022257051573)
(0.819549542449 -0.00221398242822 -0.00217813554238)
(0.760645823175 0.00627641278967 3.28908200899e-05)
(0.76172883337 0.00800621699915 -0.00177859427518)
(0.761523392555 0.00869718481972 -0.00115031296608)
(0.818923666438 -0.00165837672185 -0.00266369922614)
(0.819319746835 -0.0018785394987 -0.00155567587672)
(0.760804669389 0.0076774720029 0.00097571997015)
(0.818431335384 -0.00154042494622 -0.000674868735314)
(0.760593607375 0.00723340824094 0.000906115325381)
(0.818568957722 -0.000172309674487 -0.000501133142565)
(0.819585791906 -0.000650089561816 -0.0012159089115)
(-0.222947038656 0.0112626984678 -0.0110412725005)
(-0.0309868257971 -0.0632776334192 -0.369581974241)
(0.81829618684 0.00482564602418 -0.000412549596674)
(0.75457187226 -0.00157726503723 0.00101051223467)
(0.819399565545 -0.00118637666254 -0.00143268097996)
(0.818695400756 -0.00128710973542 -0.000734523346601)
(0.759628394735 0.00255241081914 0.00260404317953)
(0.761186109153 0.00903815518264 -0.000733437882369)
(0.759953385913 0.0070316574276 -0.000274163394789)
(0.818416831875 -0.00164758729278 -0.000898068562714)
(0.817870277708 -0.00207421158431 -0.00109703453398)
(0.759387737912 0.00565527237043 -0.000205689700879)
(0.760561132758 0.000637525199692 -0.00141377844736)
(0.0688719832747 0.0489110804341 0.000261295112199)
(-0.140914358744 -0.026790128696 -0.0039400012049)
(-0.136809952294 -0.0548013196564 -0.00445112830486)
(-0.12965898271 -0.00932132481817 0.0176935293858)
(-0.126845467153 -0.0496887823857 0.0415494151688)
(-0.0751327287816 -0.0340092910943 0.0425155327054)
(-0.129626722309 -0.05044776479 -0.00601119887777)
(-0.133595392671 -0.0221161778974 -0.00588613923077)
(0.818039008181 0.00427345611926 -0.000964445612207)
(0.817478017645 0.00467934391754 0.000173553351521)
(0.753333096283 -0.000143328485405 0.00161849957453)
(0.754331885936 -0.00108455895302 0.000309610374263)
(0.818097475638 0.00481605272091 0.000325280619157)
(0.752929716722 2.64353310017e-05 0.00102823208607)
(0.817358297096 0.00397954943692 -0.00104283655576)
(0.817306380825 -0.000784202687236 0.000623940346558)
(0.817540701691 0.000904324280563 0.000884529205476)
(0.760366420424 0.00162557474488 0.00214879543423)
(0.759302091153 0.00662554345527 0.00225999799212)
(0.817292160373 0.000863173503591 0.000764274190055)
(0.817640161005 -0.00084374878104 0.000680183113111)
(0.759773648743 0.00627235575842 0.00195465159592)
(0.817335420885 -0.000736103914968 -0.00103279885967)
(0.818223741552 -0.0009556293433 -0.00262303940955)
(0.760755172967 0.00775099068136 0.000692691808995)
(0.760737587306 0.00890113758454 -0.000738577207319)
(0.817874584567 -0.0011584591696 -0.000937088002171)
(0.760771176229 0.00748236858235 5.20547152643e-05)
(0.81749271213 -0.000355345918551 -0.00182030341942)
(0.816924356213 -0.0007522545611 -0.00109947817401)
(0.816508964639 -0.000315500950649 -0.00118883272158)
(0.760462965762 0.00519734361465 -0.000466361195845)
(0.759947113314 0.00823670851554 -0.000733551996666)
(0.816667867073 -0.000834103241165 -0.000740611354974)
(0.760584979756 0.00662235428626 -0.000443629629823)
(0.81675507244 -0.000198818170313 -0.00170363179558)
(0.815862445238 -0.00140506181068 -0.000765686950231)
(0.815892944769 -0.000728737442931 -0.000964655475502)
(0.760191983819 0.00366303053425 -0.000371433326382)
(0.759958108388 0.0039770283739 -0.000530973547929)
(0.816181141858 -0.00102474987392 -0.000578645335954)
(0.760403559855 0.00212995621223 -0.000636231163808)
(0.815572107086 -0.00107756402104 -0.00121894887609)
(0.815739085139 -0.00177657533139 -0.000940328283273)
(0.815499497924 -0.00189094742277 -0.00215054167919)
(0.76070432537 -0.000560650815145 -0.00127389895368)
(0.760004117765 0.00219587628704 -0.00092807280084)
(0.815895432666 -0.00216772614256 -0.00139832861773)
(0.760558984421 0.000632383865963 -0.000862102455813)
(0.815354443622 -0.00145602573358 -0.0014996924577)
(0.789298168297 0.00854004678538 -0.00845131857338)
(0.79821920681 0.0120777753872 -0.011561479373)
(0.811214937877 0.0201274170973 -0.0111915020069)
(0.813679184155 0.0147483735353 -0.00777626061687)
(0.0286164221952 -0.0111065737204 -0.00154080093298)
(-0.227684928944 0.0265660409645 -0.0559397964333)
(-0.235515998963 -0.03490710759 -0.0247632527313)
(-0.381843596833 0.100570805377 -0.0307230149694)
(-0.39482586395 -0.0141666420249 -0.0196685531445)
(0.274061510962 -0.00414199838924 -0.0741834235547)
(0.547102794484 -0.169319812459 0.371545956412)
(0.217608345992 -0.074317437541 -0.0613887090064)
(0.681236318742 -0.145335401799 -0.232320387683)
(0.149389440493 -0.0564800195838 -0.176221757861)
(0.643904228563 -0.0735344336862 -0.294962897907)
(0.785652353696 0.000796591621898 -0.00417705828737)
(0.786460367115 0.00292615581515 -0.00417139027949)
(0.77958261728 0.00251735086182 -0.00229652870615)
(0.779231828276 0.00332527781847 -0.00243684922)
(0.785233220895 0.00581954171838 -0.00624481684652)
(0.774749936215 0.00274432795746 -0.00402567742382)
(0.78839652534 0.005784485893 -0.00558500145594)
(0.791606168926 0.00775280599662 -0.00709156633524)
(0.778729933889 0.00308363517148 -0.00336052186469)
(0.777390243202 0.000800471904416 -0.00794234959706)
(0.792685264279 0.014341677192 -0.0108742024171)
(0.79415219713 0.0108249783114 -0.0107515625294)
(0.799816543259 0.0166013920812 -0.0124191085133)
(0.774240194166 0.00240595021281 -0.00524060746423)
(0.759913093402 0.00344171359142 -0.0156515933473)
(0.773714860972 0.00120405867176 -0.0102323629726)
(0.763210023344 0.00689572979858 -0.018993202051)
(0.808103936631 0.0217736263813 -0.0124797583813)
(0.81625329949 0.0273171336475 -0.00669549745709)
(0.756458536838 0.00579711803317 -0.0186753087503)
(0.758984638869 0.0162958851124 -0.0194353984915)
(0.762097884222 0.00944554468349 -0.0195028552779)
(0.761375071893 0.0174290836524 -0.0133112588695)
(0.805024905436 0.0163300901671 -0.013832789721)
(0.80849903357 0.0148044264887 -0.0127059153055)
(0.774396790532 0.0013465982894 -0.0111137003611)
(0.764011911726 0.0076957542494 -0.0168984666615)
(0.7675772525 0.00599923010461 -0.0140397542526)
(0.818843506261 0.0221557997915 -0.00879802851353)
(0.812889099576 0.017675940089 -0.00976091575639)
(0.820209259819 0.0183310593397 -0.00642346476326)
(0.763507318373 0.00941706452013 -0.017108437525)
(0.763109317589 0.0158068980811 -0.0118012397311)
(0.76677393562 0.00714861132119 -0.0130033705983)
(0.767640909205 0.0122178770802 -0.00637574058471)
(0.768295578681 0.00651230170979 -0.0121308010718)
(0.769127359616 0.0106732978588 -0.00526278672958)
(0.124417878341 0.0552526076983 0.00435090525352)
(0.115103638012 0.0388009753275 0.00387867092761)
(0.0745554535101 0.0219231154369 0.0043822118746)
(0.0509066106968 -0.0527033303964 0.177092431949)
(0.0777377349678 -0.000159723380041 0.257002021098)
(0.051878362436 -0.0764057479482 0.199230709645)
(0.0867613381555 -0.0267636698487 0.265791499606)
(0.0176050121142 0.0388198806772 0.217808218178)
(-0.178660734906 0.0614544020328 0.143023393597)
(0.0229311684282 -0.0158397195801 0.209525763775)
(-0.068825101669 0.0280823553611 0.167413564826)
(0.0881244519018 0.0163590134171 0.00428122745354)
(0.00976252645154 -0.0283282208345 -0.00043146471526)
(-0.0826964404468 -0.0215377937201 -0.0273075624359)
(-0.06685693271 -0.0465360971751 -0.0155529933236)
(-0.182526898085 -0.00150897013236 -0.0376962686532)
(0.038578970889 -0.102937466041 0.222562566859)
(0.00852877122222 -0.0629151418511 0.23243667091)
(0.0141367746648 -0.117053125673 0.205151152237)
(-0.0246529376975 -0.08447818946 0.200948764268)
(-0.429887383229 0.0859019867889 -0.0478309749459)
(-0.337910652409 0.105638771195 -0.0458072005381)
(-0.431726823957 0.133243112531 -0.0322289977511)
(0.00365077054387 -0.0631488169345 0.19611121587)
(-0.00650444069376 0.0188734327376 0.215048076248)
(-0.0622663312449 -0.0202269556966 0.176358160049)
(-0.0185818401528 0.0547305603994 0.157492947886)
(-0.334925753481 0.0478930116072 -0.031217114167)
(-0.361628169456 -0.00631506140864 -0.0254069818776)
(-0.0778444954608 -0.103001448253 0.143124905844)
(-0.106604634353 -0.0708155205811 0.152695797235)
(-0.107676587851 -0.0657253379518 0.132169051646)
(-0.389350978558 0.110795246192 -0.0219727730765)
(-0.366971924736 0.0258749392856 -0.0243756752751)
(-0.360814192265 0.0376024912224 -0.0126698349823)
(-0.0831392871002 -0.0266813301099 0.116784439073)
(0.0388742901883 0.0123037276423 0.103032285268)
(-0.0525222223367 -0.0323302819654 0.0864793272097)
(0.0734486354061 -0.0316996983542 0.0587739161616)
(0.786505863022 0.000937372428777 -0.00221994760953)
(0.784337766319 0.000251288477931 -0.00339301226453)
(0.782791460952 0.00265543075794 -0.000717463432947)
(0.779517426195 0.00261579322755 -0.00190026430166)
(0.78454017081 0.00127016215363 -0.00300539349513)
(0.782717479854 0.00294364823521 -0.000373557385819)
(0.786286200288 -0.000133289282565 -0.00251446247939)
(0.786750453265 0.00162145671442 -0.00251806331941)
(0.785938199255 0.00332206561851 -0.00395643972351)
(0.779334064922 0.00295987270027 -0.0020361658757)
(0.782512327084 0.0034045789353 -0.000752340726114)
(0.785146359259 0.00225482415172 -0.00340695076596)
(0.787407752434 0.00214429115498 -0.0029193350699)
(0.782646315539 0.00308535066007 -0.000363506647265)
(0.78305515323 0.00393191349552 -0.00902432723952)
(0.784782418188 0.00385984333541 -0.0072278738452)
(0.775174166677 0.00265417065626 -0.00349366425753)
(0.768996365364 0.00236690151058 -0.00688452263918)
(0.783751197805 0.00298475538112 -0.00627522563735)
(0.784546082377 0.00574513776833 -0.00973816658549)
(0.769127958876 0.00221220863998 -0.00619910052657)
(0.789029848217 0.0032096179674 -0.00509990158918)
(0.786757279661 0.00412743632713 -0.00567914289965)
(0.782543882258 0.00327068011177 -0.00178841267199)
(0.778127211199 0.00236209632799 -0.00432456788361)
(0.788277095546 0.00263375363183 -0.00430216126829)
(0.787769705714 0.00488374150843 -0.00683246224141)
(0.782201524124 0.00261291869951 -0.00237879014899)
(0.789990251837 0.00380443618695 -0.00686676281549)
(0.790796347247 0.00687136831887 -0.0115450760283)
(0.777766000358 0.00171680782846 -0.00574724373396)
(0.781461643475 0.000822195179673 -0.00526043984945)
(0.789167146574 0.00567870804796 -0.00915530776959)
(0.791132332109 0.00480057494951 -0.0087515475938)
(0.78174728493 0.00183536427355 -0.00348900383107)
(0.78860782042 0.00868595919705 -0.0151561265263)
(0.786206828545 0.00473785674434 -0.00923339777199)
(0.768720709298 0.00221312842327 -0.00825753061431)
(0.773837501667 0.00186949508942 -0.00651822395622)
(0.786319534769 0.00716531850678 -0.0129327814282)
(0.78779489966 0.00584832407153 -0.0104457016775)
(0.768583174806 0.00174039711241 -0.0101517567611)
(0.792209284086 0.0115967139439 -0.0176724411057)
(0.792573934709 0.0129494226828 -0.0240396448367)
(0.762803537318 0.00219661630127 -0.0106927725503)
(0.760940281024 0.00443218447922 -0.0180456992045)
(0.788982129814 0.00940093737425 -0.0158830921971)
(0.79656630016 0.0154326662752 -0.0263114882773)
(0.763458262123 0.00302789531483 -0.0129661720701)
(0.79141371985 0.0100749790337 -0.0184348831254)
(0.792332547126 0.00876153578853 -0.0147786070988)
(0.773424228625 0.00127406767559 -0.0078801817281)
(0.769788393976 0.00212073986155 -0.0146203187954)
(0.790007603666 0.00717275072612 -0.0130224561777)
(0.794669107834 0.011830724652 -0.0208657855058)
(0.769047398373 0.00188979621354 -0.0121154727502)
(0.795746646088 0.0135845179408 -0.0195990324661)
(0.804560108884 0.0189718605383 -0.0274216699495)
(0.762057694727 0.00577533097592 -0.017704836329)
(0.766173175735 0.00478920935735 -0.0161676004123)
(0.800762675372 0.017484716342 -0.0271964907427)
(0.799084313036 0.0153657355522 -0.0210657169102)
(0.764996268006 0.00372848700459 -0.0140674908617)
(0.812526759378 0.0238979961933 -0.0293751000238)
(0.799175516016 0.0166856597837 -0.0231095007266)
(0.75549015433 0.00965004414723 -0.0216398959813)
(0.75831958814 0.00797328763606 -0.0205181184857)
(0.808799557468 0.0219227505009 -0.0295917809022)
(0.802711932408 0.0190400893287 -0.0245080496103)
(0.756916830703 0.0115992466685 -0.0221816716077)
(0.816561584372 0.0257693664693 -0.0233519498196)
(0.824778669839 0.0267527053034 -0.0216035245388)
(0.759210442447 0.0121307813288 -0.0225211786695)
(0.759467764543 0.0178441130826 -0.0176217414898)
(0.813676245092 0.0237059018125 -0.0238592177646)
(0.759778091576 0.0136836242615 -0.0215202471169)
(0.826503303823 0.0277444043121 -0.0203491843821)
(0.815167132388 0.0246258835097 -0.0280615706759)
(0.808827392624 0.021264275638 -0.024355739553)
(0.761350642513 0.00921000886993 -0.0195401442794)
(0.75983552706 0.0137782517406 -0.0188519141095)
(0.805974526188 0.0204701097308 -0.0244823918056)
(0.817281302518 0.0245004286839 -0.0264961040555)
(0.758965498308 0.013992817398 -0.0200270093633)
(0.818894147981 0.0262768722507 -0.0222755590019)
(0.827905161534 0.0263239579643 -0.0173286777693)
(0.761001969888 0.0183571403783 -0.0154591868891)
(0.76121354955 0.0143643152997 -0.0173773865274)
(0.820687418172 0.025659335633 -0.0208436917265)
(0.760698119918 0.0148221181324 -0.019098157471)
(0.827730897486 0.0275447576903 -0.0193405176823)
(0.800413262757 0.0137238652387 -0.0219920187856)
(0.795040254872 0.0103428557088 -0.0164144314988)
(0.77047260947 0.00274287950221 -0.0144388569423)
(0.775001297078 0.00148722891199 -0.0128031305365)
(0.797751392465 0.0130528417699 -0.0215319349184)
(0.797244527215 0.0114210761219 -0.0172620177699)
(0.771048825693 0.00316177676001 -0.0153953155273)
(0.804279160797 0.0161205410255 -0.0203284517746)
(0.807574318213 0.01951802075 -0.0251733322871)
(0.768402969707 0.00541824399181 -0.0153946062149)
(0.764899556929 0.00725606179422 -0.0166906352283)
(0.802040106996 0.016307714449 -0.0203998070819)
(0.809880340733 0.018969593513 -0.0239211927271)
(0.769176946373 0.00507974356638 -0.0156735957228)
(0.806144903834 0.0156313114626 -0.0188552946746)
(0.813070130773 0.0165911622661 -0.020438418343)
(0.766506734468 0.00634717546811 -0.0148731798576)
(0.771065655762 0.00402114719408 -0.0135116847329)
(0.811727157344 0.0179608434888 -0.0216489884449)
(0.807715447135 0.0146198038198 -0.0181414889134)
(0.770424561724 0.00449085155512 -0.0142043589963)
(0.819593267556 0.0220337478539 -0.0211547568235)
(0.811403335326 0.0212670829073 -0.0219229281905)
(0.76186603368 0.0133301263543 -0.0164659264152)
(0.764146409339 0.0086064973023 -0.015562420093)
(0.818672219757 0.0235315989832 -0.0233017604737)
(0.813328004489 0.0202978094908 -0.020495792977)
(0.762496661232 0.0120641406067 -0.0143537629826)
(0.822036885366 0.022639350087 -0.0165067952685)
(0.828076732192 0.0246366523296 -0.014733063897)
(0.762920602801 0.0138473958559 -0.0151738349591)
(0.764045590541 0.0149132335657 -0.00975328505219)
(0.821504745555 0.024308944353 -0.0182586558162)
(0.763930409162 0.0129532682954 -0.0130839391089)
(0.827709217237 0.0226646528878 -0.0124496425025)
(0.820755343354 0.020442585909 -0.0182216388471)
(0.815880339979 0.0175242997554 -0.0169492223891)
(0.765738787492 0.00743634111549 -0.0139699472374)
(0.765700518078 0.00951494584675 -0.0114621675201)
(0.814763008885 0.0189922827447 -0.0181744011289)
(0.821406047363 0.0186908366209 -0.0166328410328)
(0.76449938137 0.0100988296659 -0.012864621543)
(0.822344957623 0.0208244414571 -0.0139807320544)
(0.826764435709 0.0186567227151 -0.00695845156133)
(0.766523398563 0.0129079632656 -0.00809334338138)
(0.767483709031 0.0106208169511 -0.0101515603828)
(0.822848228687 0.0190023707284 -0.0126122557225)
(0.7660799548 0.0111390226945 -0.0116624523379)
(0.827451508895 0.0206748722537 -0.00918162657976)
(0.822515601827 0.0150598063969 -0.0136609304717)
(0.816772734351 0.0159713623885 -0.0151877960536)
(0.767361044947 0.00827187261771 -0.0103251875354)
(0.768937674626 0.00661835869059 -0.0118958887759)
(0.822054770729 0.016906876044 -0.0143821659988)
(0.817462817425 0.0141807253246 -0.0148848567973)
(0.768200508234 0.00792620177141 -0.0100496790501)
(0.826305646628 0.01700995207 -0.00499803524945)
(0.769090493373 0.00942884994208 -0.0090825658866)
(0.822767670037 0.0170855813231 -0.0107550809479)
(0.817565355891 0.00507506915082 -0.000531213637122)
(0.818718926666 0.00353693390219 -0.000537330963066)
(0.81925493947 0.00163351184097 -0.000494469720411)
(0.816660294357 -0.00127336881418 -0.000184274050351)
(0.810024689266 -0.00250886882714 0.000290072863877)
(0.833277163763 -0.0493609948806 0.000647582563971)
(0.81808160194 0.00525420781711 0.0001838325726)
(0.818856513117 0.00334062671275 0.00045276836668)
(0.819393318258 0.00222074585201 0.000576404956442)
(0.817367098796 -0.00136776756811 0.00158514147827)
(0.810896345783 -0.00323146717652 0.00385016275503)
(0.836517572828 -0.0540625984336 0.00499438111893)
(0.818087169318 0.00614108991025 -0.000239132415403)
(0.813456367815 0.0062239731227 0.000838786997157)
(0.788120196005 0.0106957931766 0.00293673327785)
(0.78367922946 0.0111632067794 0.00249686308808)
(0.780981304103 0.0128049652658 0.00174725542648)
(0.773819487507 0.0162003211622 0.00100996613287)
(0.781941537079 0.0191918492335 -0.0152460435032)
(0.719238787886 -0.019869852756 0.026428601494)
(0.828591291747 0.00568523520828 0.000298560212833)
(0.825143614036 0.00353123516101 0.000127986428576)
(0.819752242479 0.000577461777909 -0.00088402615153)
(0.817289952211 -0.00115993684482 -0.00294916265665)
(0.816263558443 0.000197950576827 -0.00328176386369)
(0.817762911131 0.00312946136319 -0.00246053694762)
(0.811779402925 0.0089639355402 0.00110600209889)
(0.838633892466 -0.0848958372711 0.0137837049432)
(0.821589433642 0.0069606457503 -0.000761560475248)
(0.82306943808 0.00531355572069 -0.000917645906563)
(0.822623777527 0.00385682501437 -0.0012432435582)
(0.821421523406 0.00336486254101 -0.00197866563748)
(0.819736019361 0.00298273135107 -0.00144334682146)
(0.819885465208 0.00232619648091 -0.000236341147182)
(0.81315375819 0.000837351106429 0.0016519685308)
(0.842071157297 -0.067660185508 0.00497436567654)
(0.817634043546 0.00780764567781 -0.000547365840088)
(0.82024074491 0.00479952407834 -0.000436599393074)
(0.820644371636 0.00282460176103 -0.000708619661876)
(0.820241622005 0.00145965480564 -0.000783855131967)
(0.818855222943 0.000744063806952 -0.000922167184369)
(0.818896541857 -0.000638763043098 -0.000242502856833)
(0.81187199046 -0.00202622546593 0.00105845352543)
(0.838379679766 -0.0693700046213 0.00286284538717)
(0.81830568778 0.00108744158385 -0.000670687637738)
(0.818037698213 -0.000404110344394 -0.000197585433253)
(0.810937418711 -0.00202760025646 0.000666244615514)
(0.83636155907 -0.0536430566406 0.00143377775819)
(0.640863054054 0.0415564812479 0.0112925608259)
(0.635837726928 0.0399947683207 0.0159247795344)
(0.64486209359 0.0250519961094 0.0208479634353)
(0.64238156752 0.0216030483181 0.0156965511415)
(0.64037294859 0.0227834443874 0.0144585705754)
(0.617000810439 0.0262868325628 0.0164024714562)
(0.680378338895 0.041277386565 0.0139411046584)
(0.314908066022 -0.0844127580217 0.0591383616621)
(0.775603315132 0.0136657250238 0.00831924109001)
(0.770081094771 0.00938269148701 0.00827751807655)
(0.775030838619 0.003407692976 0.0123744526969)
(0.772433017148 0.00250939390663 0.0128653935615)
(0.772456977688 0.00361215430441 0.0134469130106)
(0.77453246803 0.00570198248995 0.0168446149547)
(0.779666409136 0.0332984567042 0.0269292051479)
(0.811221527062 -0.168664142243 0.0435616660381)
(0.823002031253 0.0072220781085 0.00100129914664)
(0.822714560983 0.00584245691989 0.00076757287284)
(0.821937897592 0.00588576901373 0.000593225999223)
(0.820891268497 0.0067503221448 0.000338118917184)
(0.820936253171 0.00670630335685 0.00107538621232)
(0.823226866042 0.00559899765414 0.00365948619697)
(0.818094307744 0.00273015868789 0.009901555307)
(0.875901378488 -0.11502939131 0.0147326351175)
(0.818543498982 0.00821451676741 0.00044514995581)
(0.820534441128 0.00514086768507 0.000537620804477)
(0.820615822229 0.00306856433346 0.000495454991101)
(0.819921138733 0.00269480940805 0.000560092669723)
(0.819292047238 0.00182890613255 0.00139237822727)
(0.820985645096 -0.000251752152276 0.00336649762459)
(0.815111634401 -0.00283007215518 0.00734825737458)
(0.850775494567 -0.0878814131108 0.0105049237783)
(0.818672553037 0.00136570836689 0.000751310058669)
(0.819195979605 -0.000252873292623 0.00205774173632)
(0.812624006803 -0.00279027390777 0.00483019591199)
(0.842405894419 -0.0636835813691 0.0063989692566)
(0.636084298756 -0.0154130315855 0.0211399941719)
(0.628872317597 -0.016126165351 0.0233957417517)
(0.63441871477 -0.0202285018404 0.0245445090376)
(0.633591753045 -0.0193280401964 0.0218177610778)
(0.634490753547 -0.0152763725263 0.0198627575364)
(0.625365706617 -0.00497962750547 0.023379654352)
(0.683803009822 0.0358236593392 0.0548962797375)
(0.475561487203 -0.338935336991 0.0142886231808)
(0.737999642049 0.00506219643474 0.0248674043745)
(0.731570578788 0.000812550664 0.0245678797508)
(0.78205230915 0.00065202620308 0.0089811546483)
(0.781801957943 0.000582694717209 0.00911561806378)
(0.783765610291 0.00167776368746 0.00989795304523)
(0.792398591856 0.00117643337889 0.0103207882913)
(0.804964182844 0.0192099943595 0.0110299214436)
(0.885851957083 -0.190096245064 0.00243357358803)
(0.823847624834 0.00617844925009 0.000220840029883)
(0.822908475424 0.00592318565907 -0.000528975347435)
(0.822514538384 0.00411122323569 -0.00139302795861)
(0.822515870097 0.0025014747266 -0.0015245920553)
(0.82349352326 0.00172592362913 -0.000703593525406)
(0.828685651052 -0.00194182179034 -0.000341715832942)
(0.823576764258 -0.00686236765862 -0.00079353871364)
(0.903281570336 -0.162860521061 1.24395015483e-06)
(0.816983762781 0.0109459259981 0.000314447155081)
(0.818719838563 0.00735568855644 0.000442111410746)
(0.821121890104 0.0049470905993 0.000284391422982)
(0.821249925016 0.00280047093866 -1.77296118807e-05)
(0.821072625949 0.00180217041218 0.000119072381922)
(0.821226685766 0.000704316293565 0.000746102277489)
(0.82444299238 -0.00227495590594 0.00101572744229)
(0.819148754633 -0.00599456861932 0.000377352074074)