/*--------------------------------*- C++ -*----------------------------------*\
| =========                 |                                                 |
| \\      /  F ield         | OpenFOAM: The Open Source CFD Toolbox           |
|  \\    /   O peration     | Version:  v1906                                 |
|   \\  /    A nd           | Web:      www.OpenFOAM.com                      |
|    \\/     M anipulation  |                                                 |
\*---------------------------------------------------------------------------*/
FoamFile
{
    version     2.0;
    format      ascii;
    class       volScalarField;
    location    "1.4";
    object      p;
}
// * * * * * * * * * * * * * * * * * * * * * * * * * * * * * * * * * * * * * //

dimensions      [1 -1 -2 0 0 0 0];


internalField   nonuniform List<scalar> 
28582
(
17107.5010747
17106.3302977
12209.1417748
12207.8155417
7310.28078836
7308.66601979
3635.94420622
3633.59230045
-3.38477876752
-2.90647196263
-26.9599532721
3634.479578
597.663473138
598.083666054
3633.10349223
3634.15276422
597.081461165
1795.64251602
1796.30475634
17108.2544623
17105.8467682
17106.0752211
12210.0843039
12207.2749128
12207.5455827
7311.61815831
7307.8888231
3639.08528092
3632.7781058
-2.90835452495
-26.9855807681
-26.9803871629
3637.04163925
3637.36683956
598.691896559
598.28248295
1801.1567159
3632.50800495
3633.69774003
3633.28703528
1795.81992301
598.36606915
1796.51163934
1796.14315497
-3.07875768958
-3.54199442458
-23.2880568657
-23.2829975256
-2.91584562073
-23.2823777053
1799.00498047
1798.73286112
601.916979482
603.142950353
1799.6743701
598.520710801
1797.79158646
1797.7255103
1796.79595633
602.065928488
600.967960709
1796.87675777
597.22998699
1797.33071088
1796.85491085
1795.98854321
600.460909737
601.487386652
1796.87577514
598.12068083
1795.34927433
1795.58029653
598.174859128
600.58530777
1796.00954268
601.052743721
597.384105538
1795.49221368
1797.68313581
600.892821386
598.440933769
1796.66022155
601.963073667
1797.6861744
597.534357587
-4.25615279022
-23.2926905357
-5.5115327333
-4.7294767998
-23.2988431039
-23.3000624129
-3.43755252069
-23.3156309739
-23.2968563069
-3.07692975262
-23.3231858127
-2.71527007
-23.3196985658
1802.40651219
1803.04158917
603.361312077
604.138404252
1801.80041873
1803.64313302
599.031532979
1801.17970174
1799.72118597
603.042619607
602.755083538
1800.7678483
1799.65053881
598.42666463
603.49076833
598.718569509
1799.92683755
1801.40555023
602.921233714
1799.72586828
598.640275013
1794.8870898
597.605657281
601.087012756
1795.96375761
600.529602138
1794.63232671
598.369914583
1795.38891222
1794.86216371
600.738684576
600.762790014
1794.71713445
1794.83258954
598.146363883
1796.36238007
1796.94568696
601.390677227
597.803422608
601.440546309
1796.554339
598.543507219
601.689978766
598.114025354
1795.89842824
1795.84739728
601.176232767
1795.1827422
598.252153634
7308.09933029
3632.40758674
-2.29418743772
-26.9465481346
3635.42979215
597.709642617
3632.8323375
3633.00974081
598.041149695
597.674673752
599.462617253
3634.01758152
3636.18255547
598.702207576
606.052102046
-3.44434199531
-2.26012666892
-1.11757231089
-23.3353806107
-23.3075448127
-23.3047045386
0.0289117625215
1.75148831389
1797.68105889
1798.716548
602.781812529
601.62880293
1798.69559848
597.983874032
1797.36702166
1794.92766608
1794.42119263
600.669142956
600.990808768
1794.22943873
1794.82068079
598.474920544
1795.05642253
1795.4062556
601.329072916
601.283821342
1795.09845162
598.510216077
1794.84739186
1795.01927531
1795.51150885
601.617082116
602.560297681
1795.04211761
597.907492258
1795.33272032
1796.97671597
1795.39373015
603.49843253
602.924509471
1796.1661607
601.986658376
1796.4587835
1797.50035081
1800.02635735
606.215102435
606.291412575
1799.55527399
602.369447552
1798.66501262
3665.1253338
3660.44755094
3655.37493017
3653.45098062
-10.2040307809
-11.0445712094
-10.0928286161
-10.1333084157
-8.30451460266
-27.0144859441
-26.9553509503
-27.0203887508
-26.9852182576
-26.9967710931
-26.9792447273
3667.29347564
3666.32547395
611.112403291
610.656709012
3667.35732836
610.119981723
3664.91072524
3663.14379504
610.139166447
608.751961676
3664.43336179
3662.48045049
3660.768284
609.609090621
608.373387964
607.52627923
606.16451074
3657.81330934
3653.0520461
606.419261857
600.67396249
603.013385994
599.052693401
3658.43025726
3656.91971285
607.509686322
606.012969774
605.363777612
3651.03045831
3654.03709169
3650.41838637
603.146848554
599.165860428
602.256271808
599.670560871
602.784459277
599.814415467
-9.12574449917
-9.0948137459
-9.86583857319
-23.2163253847
-23.1921024385
-23.2340109527
-23.2135319346
-23.2058033606
-23.2127652519
-23.2111078085
-23.2495984977
-9.44672131734
-9.49928378864
-10.8442942611
-10.1545154565
-10.6779221536
-23.2258787753
-23.2221075306
-23.2789609269
-23.2809056395
-10.6000982738
-10.6767304343
-10.0495401109
-23.2403519428
-23.2726600508
-23.313108578
-23.3187197125
-10.3446242854
-9.64656084039
-23.3295379822
-23.3378549276
-23.3540801884
-9.25004684874
-9.08402564836
-8.20321310676
-23.3563128163
-23.3420197715
-23.3453714446
-23.2911500292
1830.07775728
1830.53310407
611.638100548
611.363799731
1830.28138058
611.851733392
1830.42768782
1829.81542022
1829.43325799
611.426077343
611.136590097
1829.9268286
1829.33437512
611.816239686
1830.22096011
1829.40129947
610.82393127
609.748118244
1830.09448164
1829.48590012
610.257496668
1828.3819726
1828.76601078
610.637612031
609.969453998
1828.79604243
1828.23178808
610.280252103
1827.7866593
1826.42683093
609.902463708
610.044598576
1827.46472622
1827.08472209
610.113998942
1827.04605071
1828.56383527
609.155660767
609.431148599
1828.41179263
1827.84875674
608.491696627
1826.08243976
1827.12094037
608.836326368
606.423226783
1828.06876146
1825.39826586
606.986832501
1825.7892585
1825.64616859
609.027290398
607.509376615
1826.82972896
1825.08373225
607.844349859
1824.52225541
1822.42821312
605.669086416
607.606561094
1823.66495308
1824.27810732
606.002644767
1821.59297216
1825.66100121
607.108885009
606.710244533
1824.35484899
1824.31161623
605.014340472
1818.09103988
1815.49060705
608.260191394
605.398678479
1821.96164941
600.358309654
1816.37924029
1819.54692282
1820.17918008
606.072432448
605.071191442
1822.48423781
1819.41746358
603.874944427
1816.02830957
1811.90174437
605.037577575
607.025108736
1817.29962665
599.238150238
1814.94143755
1823.75638757
1825.15840324
607.804200919
609.710966841
1824.50245599
1825.21170711
607.43630869
1822.13534077
1821.62974472
607.712103821
606.123221413
1823.57091126
1821.36683324
605.076765677
1821.63846801
1819.75403118
606.855052871
609.049297699
1820.80486809
1821.97381876
605.319668863
1816.68283861
1819.33056467
605.170551475
607.641737798
1818.46547934
1820.10813273
603.328358772
1813.34350425
1811.39211211
607.465976736
606.386433536
1816.57254262
598.395605445
1813.43193255
1816.28735593
1817.48770358
607.714258763
606.905937695
1819.48709728
1817.19171369
603.301229525
1813.1597434
1811.38706762
606.898535493
609.445871301
1815.74109356
598.917372539
1813.28425653
1815.7078705
1817.3599332
607.749839075
609.833876411
1817.00832427
1818.75850638
603.066481092
1811.5913574
609.789303931
1815.6880143
17106.3821594
17105.3227725
17104.9029356
17107.0483989
17108.3890338
17109.3346985
12208.0090087
12206.7915341
12206.3266826
12208.7303909
12210.4315466
12211.4968391
18322.7462186
18324.5860997
17101.0148832
17101.60945
17102.4259324
17103.7613773
17105.4293004
17106.4853186
18325.346994
18325.8192916
17101.9133942
17102.1240942
17102.7965622
17104.0741884
17105.7417847
17106.7637044
17103.7781045
17103.1800496
17103.006824
17102.9713827
17103.4911737
17104.6903013
17106.2822998
17107.2655536
17106.4531134
17104.9444318
17104.2204273
17103.946165
17104.2507909
17105.4182979
17106.9366351
17107.924704
17105.1890054
17106.2563717
17107.6757987
17108.6222784
13422.2477013
13425.609426
12201.8789137
12202.7337166
12203.7039358
12205.2833965
12207.2608852
12208.4661483
13425.658714
13426.8865717
12203.3700601
12203.5153257
12204.1519066
12205.7618334
12207.6641698
12208.7883068
12205.0344316
12204.6599847
12204.3765236
12204.2832548
12204.8625254
12206.3175659
12208.2371382
12209.3574557
12208.1297175
12206.5414663
12205.6577504
12205.3634388
12205.7787814
12207.042291
12208.9171654
12210.067891
12206.6806825
12207.9367249
12209.7095375
12210.7917821
8521.97113143
8526.0654089
7302.33016469
7302.6838248
7303.67127023
7305.84110774
7308.83281266
7310.43837721
8525.4167473
8527.32331238
7303.18651803
7303.12426842
7304.14589693
7306.31575885
7309.39872661
7310.87405973
7305.4265997
7305.40865467
7304.76584563
7304.39489233
7305.03044317
7307.04883961
7310.12903944
7311.727886
7313.33186121
7309.51845618
7307.61397457
7306.19987939
7305.43022263
7305.98945983
7307.99264333
7310.9513952
7312.61420379
7309.03857822
7307.42392365
7306.65880344
7307.14045979
7308.98539491
7311.84783788
7313.38405254
7309.78247148
7312.55288989
7314.03238218
3622.7928712
3626.73174424
3627.49668834
3627.46590068
3627.16525522
3629.13307932
3633.96745719
3638.26785619
3626.29379674
3626.01997469
3627.93218214
3628.02789779
3627.38990926
3627.5767807
3630.09347433
3634.86126397
3638.49225837
3645.68249329
3634.49433975
3630.6187974
3630.7516298
3630.03195139
3628.69861049
3628.57765502
3630.88666286
3635.54549514
3639.42306179
3640.35490434
3635.67349793
3633.52512458
3631.46221935
3629.79948006
3629.58437077
3631.56248629
3636.13127428
3640.18763759
3635.27416607
3632.43803656
3630.97238534
3630.97511601
3632.98422282
3637.54985265
3641.19598096
3633.93450866
3638.49359669
3641.82796258
0.442980927387
0.0132654682239
1.1222828892
1.26660521021
1.16597788995
1.39173435212
4.15372346877
10.6836399684
-9.22690888194
-3.74559399713
-0.244107042801
-0.123852126522
0.798841592146
1.24344632928
0.666073151761
0.492788168124
3.319561015
10.433589132
-7.78338228459
-4.44588597661
-2.26522478373
-1.89762556599
-1.03999977668
-0.473361270184
-0.259330699391
0.361245386057
3.00427670516
9.09139161896
-6.07658453789
-4.26486915216
-3.23033383676
-2.1665632989
-1.48638743842
-0.92454755123
0.186616175136
3.07304248735
8.73421239607
-3.96702738503
-2.7332207943
-2.01455308975
-1.60529318013
-0.406795853089
2.7143053209
8.83350198065
-0.466948323968
3.25167589227
9.82865502592
-26.9112999572
-27.137421053
-27.1068516409
-27.0515532916
-27.0611701199
-27.0214330803
-26.9601683057
-26.9735830817
-26.9914429509
-27.1657851449
-26.9801708844
-27.0937172329
-27.0666126672
-27.0197294765
-27.0117303139
-26.972497926
-26.9265923353
-26.9133993161
-26.9665346615
-27.1359860064
-26.9702669919
-27.0297401832
-27.0074060417
-26.9953725337
-26.980251303
-26.9494510665
-26.9257297153
-26.9216870035
-26.9383261176
-27.0940957709
-26.9811290204
-26.9757698693
-26.9622861913
-26.9712604146
-26.9411531268
-26.9256225023
-26.9223337787
-26.9442151541
-27.0909074992
-26.963085917
-26.9715230573
-26.963787226
-26.9269753097
-26.9239062406
-26.9390875338
-27.1018559666
-26.9650707665
-26.9960676323
-27.1475331561
18324.1448256
18323.8162346
18324.8126191
15873.2400311
15874.8784403
15874.2767919
15875.4279871
18324.8243571
18325.0756107
18325.3147941
15875.3691608
15875.6796346
15875.8040924
15876.1111881
18325.7760309
18326.7390472
18326.7204408
15875.8194377
15876.3703251
15877.5423747
15877.5631266
18325.7671455
18326.6652242
18326.721862
15876.5826461
15876.6039037
15877.4632601
15877.5235548
13424.6216738
13423.4300907
13425.3669507
10972.2826925
10974.818964
10972.9599033
10975.4311087
13426.0955899
13426.1113384
13426.6225981
10976.0201006
10976.5283874
10976.4389214
10976.9346071
13426.4357214
13427.649472
13427.8203168
10975.6999679
10976.8335984
10977.7734003
10978.0209845
13427.1042003
13427.9248221
13428.1714746
10977.3508178
10977.5357317
10978.2849602
10978.5394444
8524.72223581
8522.74685936
8525.4197464
6072.14091229
6075.30150889
6073.66468615
6076.26195396
8526.51943244
8526.48729522
8526.95499674
6076.8049993
6077.5336507
6077.29519961
6077.87208033
8526.84748995
8527.51082417
8528.10423285
6075.88376685
6077.16919301
6078.09754912
6078.59534619
8527.46255093
8528.51646274
8528.66404845
6077.85327858
6078.09555743
6078.89470711
6079.07206569
3620.40327129
3622.37943113
595.747227855
595.884465346
3625.09287729
3624.21426049
3625.74793559
594.564523549
598.014416023
594.803061047
598.406690563
3627.40990033
3627.00052306
3627.63177746
597.708407911
600.348006678
597.477914409
599.818391937
3627.5395535
3627.48413852
3627.43972292
599.351279112
600.715869765
598.459423413
600.089893954
3627.1105674
3627.13046967
3626.96804158
599.111857981
599.065178124
598.327757699
598.986575664
3627.8003252
3627.26891697
3628.13511224
597.481557703
598.913135713
597.557104826
598.977684204
3631.28099679
3629.59461024
3631.75023235
597.805860326
603.240298306
598.484866962
603.386623335
3636.53725061
3634.3685804
3636.75064052
604.554725917
614.969952772
604.863616172
614.781211132
3637.5334436
3638.18175876
3637.28942522
618.036105115
613.100847666
617.455517597
611.681811308
3645.46689669
3636.98346084
591.101622125
589.307466683
592.324769399
593.078586
3624.40428809
3630.36379694
3627.83442288
584.143732688
595.72906431
588.337285203
596.506245549
3627.04634687
3628.10233586
3628.85977627
594.849081744
598.44270693
595.62790914
598.778758329
3628.16469588
3629.25088801
3629.35591008
597.485504215
599.481430038
598.05747571
599.456165673
3627.78058749
3629.16209219
3628.51959339
598.19032406
599.930627241
598.524260162
599.385869083
3627.292123
3628.09325687
3627.90423503
598.12764931
598.894520119
598.247108221
598.419171924
3628.56612636
3628.10009181
3628.96360888
597.390171526
598.950218145
597.533806451
599.077615088
3632.24715046
3630.46784187
3632.63551672
598.52592333
603.440948457
598.918642817
603.754624276
3637.25545519
3635.28655807
3637.65332641
604.869549131
614.526139015
605.255654945
614.34400404
3637.50709121
3638.90126112
3638.06779515
617.31881009
611.602653936
617.051839927
611.285618483
3640.0259022
3646.32192757
3642.09813356
592.568171205
593.569189044
594.321877156
596.452143972
3631.26812728
3637.58486682
3634.4626962
588.910148612
596.484277861
593.398734992
597.249048857
3630.69551449
3633.2060696
3632.7258959
595.671643393
598.275749708
596.749105189
598.811247391
3630.5085135
3632.19270076
3631.69255547
597.804538834
599.359393208
598.428892541
599.377239731
3629.30374249
3630.82478563
3630.08644041
598.587482142
599.167676153
598.757133466
598.846096661
3628.49857782
3629.35471692
3628.98935667
598.006954707
598.218372556
598.123242933
597.866382254
3629.41072967
3629.0242277
3629.73155066
597.467512832
599.101900013
597.392763368
599.012349829
3632.9813464
3631.08886979
3633.2413667
599.014581231
603.828909561
599.111636107
603.988193748
3637.99685255
3635.76670239
3638.22250678
605.345546359
614.173072622
605.409162736
614.064012119
3638.78151543
3639.70379929
3639.41713231
616.749162983
611.476610686
616.524868349
611.78410954
594.953825217
596.879538352
3637.57711685
3639.9494434
594.461619352
597.59310182
599.112334737
3634.50308751
3637.90755815
3636.12869373
597.004138463
598.611961203
598.703749907
598.533966658
3632.5055171
3634.69792497
3633.29691005
598.311152383
598.904826081
598.066436981
598.025605409
3630.51962441
3632.019912
3631.00948099
598.384907639
598.464654998
597.333084952
597.675989462
3629.52982942
3630.29493201
3630.04448018
597.889773925
597.723724112
597.255407536
597.52227049
3630.299919
3630.17632033
3630.87028743
597.313480143
598.994038767
597.341114749
599.153687389
3633.67031
3632.20042863
3634.30258383
599.145478534
604.098045019
599.249902951
604.326722642
3638.61968548
3636.77966471
3639.20739172
605.543725045
614.140509998
605.796918342
614.399150112
3639.96991322
3640.65664595
3640.42166487
616.45580828
611.828723511
616.729140447
611.958546647
3633.62449554
3633.87150966
597.700361765
597.694189137
597.988115393
3631.56449593
3632.92887409
3632.20037304
597.145685786
597.593701708
596.883956749
598.08412684
3630.81185913
3631.73815503
3631.60071461
597.180559223
597.692988738
597.45608914
598.113571804
3631.68628214
3631.72395471
3632.33342365
597.491870276
599.380926894
597.796991062
599.514522986
3635.07754808
3633.5988981
3635.68484802
599.464276766
604.637242917
599.431146001
604.945827036
3639.8828677
3638.15789787
3640.42257094
606.082476404
614.889206608
606.507638166
615.481894366
3640.76227545
3641.53068501
3640.89776075
617.289377966
612.482572984
617.663628884
611.890939632
3632.73374421
599.734508483
3635.94048451
599.56543303
605.375858135
3640.78854428
606.822359568
615.87104658
3641.00810332
618.178869803
612.111712812
-23.3084271737
-23.277038446
-23.2870232735
-23.2570522259
-0.453276352128
-0.841601916027
-23.2654844322
-23.2784155959
-23.2787104345
-23.2802022139
0.162429774989
0.300603302524
0.310500060513
-23.2786425315
-23.271886648
-23.274285692
-23.2507562228
0.588533148208
0.272236919421
0.681306701035
-23.2592851116
-23.2682494374
-23.2542655565
-23.2633060444
1.33420025112
1.36278960761
1.69319655931
-23.299171311
-23.3218743897
-23.2867957355
-23.3163000433
1.23593237989
1.65655745364
1.37686578269
-23.3388707737
-23.3468065483
-23.3388986858
-23.3510106838
1.21412914723
0.9374079454
0.715950925169
-23.3370859852
-23.3281879457
-23.3542121007
-23.3523930098
2.31989034592
0.885751037952
1.76597536846
-23.3259707723
-23.3290241087
-23.3471416971
-23.3380228705
7.13290822798
3.82390183846
7.06899992967
-23.3425199704
-23.3321623579
-23.3419840756
-23.3216700307
15.5213843484
10.9003967276
15.3808117092
-23.3423517878
-23.3201613542
-23.3391077037
-23.3105924295
-6.82748260601
-8.5142608299
-6.32922075725
-23.3011275383
-23.2724973087
-23.2975394072
-23.2695931599
-1.38912384029
-3.82171421551
-1.98449931392
-23.2754166831
-23.2815659446
-23.2810268736
-23.2864456154
-0.141365477928
-1.29082054131
-1.15490643667
-23.2843302223
-23.2669094332
-23.2890831285
-23.2861226225
0.282751898916
-1.14656854131
-0.811733749825
-23.2608297196
-23.2687160192
-23.2880200137
-23.2908301358
1.31547757527
-0.27433594997
0.0791808866351
-23.285115181
-23.309865276
-23.3058683839
-23.3157570349
1.08100694439
0.285408819338
0.244204639065
-23.3277583177
-23.3416258965
-23.3259940647
-23.3361274254
0.399671393417
0.139561619525
0.141647014774
-23.3519192296
-23.352598888
-23.3474388433
-23.3510087649
1.3473648144
0.382946641812
1.24164063519
-23.3664281431
-23.3492124346
-23.3611587411
-23.3495313611
6.53679230967
2.97493273473
5.98037132831
-23.3416287015
-23.319484483
-23.3473316055
-23.3207558707
14.7980163005
9.64189337774
14.0307228393
-23.3315474475
-23.3081298325
-23.3350848936
-23.3178905576
-6.15187746237
-7.37355292533
-6.2942336825
-23.2965979152
-23.2788474858
-23.2628740925
-23.2793478658
-2.87210172048
-5.0738228764
-3.92998515388
-23.2758142634
-23.2897291859
-23.2796404914
-23.2766690151
-2.13764091347
-3.22898685419
-2.81548098827
-23.2924831202
-23.2833197699
-23.2814504703
-23.2831583856
-1.45464841758
-2.45180309058
-2.01707699521
-23.2865588662
-23.2948206814
-23.2881276379
-23.2945591933
-0.640763851507
-1.54917389031
-1.19330134912
-23.3079474128
-23.3186367061
-23.3056708973
-23.3145086162
-0.336549358989
-0.961146340269
-0.820105645731
-23.3242000341
-23.3337167521
-23.3218727014
-23.3286557717
-0.03313426878
-0.586942855314
-0.234347652558
-23.3456648607
-23.3507861691
-23.3396707367
-23.3426338448
1.26798396218
0.3073092677
1.30735411174
-23.3598588896
-23.3522532996
-23.3507325275
-23.3500300489
5.67696200925
3.04404663831
5.71101039599
-23.3503041113
-23.3289190479
-23.3507225884
-23.3283056594
13.2928075703
8.82064917565
12.6906034209
-23.3343038896
-23.3193650896
-23.3361406246
-23.3166128984
-5.03238552453
-5.94330256361
-23.2567684757
-23.2664459466
-23.2726533356
-3.69042360617
-5.15764334752
-4.47841149436
-23.281081972
-23.2910751768
-23.2930972644
-23.3041479621
-2.71179216564
-3.84488293754
-3.15373371337
-23.2907738951
-23.2898319486
-23.2958955327
-23.284172765
-1.71929588201
-2.58336216913
-2.08431355905
-23.2981567543
-23.3089939996
-23.2841268915
-23.2988216445
-1.24549511216
-1.83999288865
-1.64785692531
-23.3194376328
-23.3271959592
-23.3108502807
-23.3262695405
-0.478107962307
-1.31393172337
-0.806881667529
-23.3364962897
-23.3421113965
-23.3345272311
-23.3430388776
1.25442971861
-0.130403055278
1.01562072384
-23.355454067
-23.3520761318
-23.3547541199
-23.3505828476
5.68134130157
2.84572741788
5.55045049257
-23.3516887601
-23.3357451067
-23.3485381553
-23.3258982498
12.436123034
8.67304905864
12.4919252165
-23.3365574024
-23.3157800517
-23.3352226568
-23.3186318164
-3.31207530403
-2.88876478245
-23.285744929
-23.2769574493
-23.2764428089
-23.2843621408
-2.26883150902
-2.69909391378
-2.42841466395
-23.274652
-23.2885298953
-23.2797800995
-23.2878201187
-1.88149926676
-2.39112813463
-2.27254410792
-23.3044734509
-23.3188043995
-23.2955220942
-23.3129962766
-1.14270359705
-1.98453415724
-1.4882855869
-23.3355354025
-23.3411202706
-23.3225532932
-23.3410467492
0.817385369951
-0.617096810894
0.758900440646
-23.3526425002
-23.3461993674
-23.3393192064
-23.3376595315
5.5651274963
2.79008699738
5.77654448167
-23.3439991695
-23.3302430542
-23.3354897921
-23.3102735776
12.8501419813
9.24138944246
13.3509875074
-23.3371718938
-23.3227597775
-23.334690188
-23.3204529273
-1.53304302099
-23.3262093361
1.07533921731
-23.3280830095
-23.3344355221
-23.31358607
-23.3327989338
6.40033991117
-23.3374667525
-23.32182782
-23.3423924555
-23.3260909046
13.8677249286
-23.3394845696
-23.3145818277
-23.3437197326
-23.311483633
1783.14382399
1785.7146141
600.64815698
597.891342076
1785.20041434
590.122449749
1785.50413903
1784.1401907
1787.6499164
598.295456656
601.612947262
1785.92233414
1787.72355287
590.784184753
1786.89996792
1785.18410804
598.484623786
600.764811211
1786.64038926
597.23840306
1786.29127637
1787.19737579
1788.41780933
600.247515617
599.306150467
1788.28154972
596.013968224
1787.79413677
1787.52859144
1786.98484889
601.156368085
599.37528198
1787.37927139
1787.51116061
597.363958007
1787.7755078
1789.21860848
599.60631452
600.885060136
1788.48665392
1788.6230125
596.220077534
1789.61484459
1789.15264388
600.629513015
601.475573297
1789.80606806
598.868792744
1789.93635872
1790.03331607
1790.5449037
603.094457792
601.386668415
1790.47836753
598.199134691
1790.77589128
1789.73219496
1789.55827532
601.336537996
600.586394858
1789.70589739
1789.86265532
598.914614595
1790.24680638
1790.41247267
601.415408575
602.917524171
1790.41148098
1791.13342417
598.437493356
1790.3209652
1790.72400678
601.868149477
603.782354769
1791.21887112
600.731599468
1790.51546343
1789.55797733
1790.61961343
603.734812731
601.57190416
1789.50451428
599.046256117
1791.25171715
1790.05590694
1789.8931716
603.641836129
601.362721862
1790.92102487
1789.73099287
600.451907505
1789.1782862
1789.46763142
601.360032889
603.246589573
1789.148327
1789.94635676
598.791734304
1789.49381474
1789.59038544
601.186291803
602.673162518
1789.91228235
599.70481522
1789.28536794
1788.29999688
1789.1725035
601.950793186
600.211047182
1788.15689383
598.089814611
1789.40120122
1789.19453222
1788.48092753
602.675204872
600.65573163
1789.66879267
1788.3250195
599.642316442
1788.11028871
1788.88843597
600.108177719
601.769531133
1788.01734021
1788.94255457
597.918717429
1788.85042504
1788.17937271
599.953735159
601.111470303
1788.70111074
598.550288806
1788.23952045
1788.32841545
1789.42994983
601.324103308
599.955987507
1788.81025688
597.545641412
1789.02332623
1788.97126564
1788.14460665
601.126130659
599.677911032
1788.78317874
1788.35073414
598.534330466
1788.53614595
1790.15404918
599.813829911
600.894560362
1789.00848785
1789.36443254
597.392773354
1791.43728283
1789.32435538
600.774842296
601.472998186
1790.21317808
600.252027284
1790.94421231
1792.21209624
1794.30735574
603.634787141
603.689667764
1794.43355038
600.357429262
1792.65472939
1791.80880151
1790.38601173
601.412917195
601.055441138
1790.49258163
1791.74170245
600.245266645
1792.59842698
1795.31724504
603.668334329
603.334871779
1794.74013178
1793.52869648
600.363309978
1798.96515462
1795.83929277
608.790348698
607.38482705
1796.71910551
608.446856001
1798.79468607
1800.9376538
1802.9115734
613.227255908
615.634232873
1802.91823902
611.084424071
1801.35957217
1799.1427051
1796.7367855
607.175255478
608.973371051
1797.03728069
1799.11900359
608.472266628
1800.9577592
1802.89207685
615.737080939
613.120390285
1802.7997779
1801.53113447
611.168523981
1802.789048
1803.66968846
621.97896588
619.422145804
1803.78287963
619.938345825
1803.0157522
1800.32118393
1798.73095091
624.293514697
613.627068869
621.848483586
1798.11848305
1800.74309135
1802.4852728
1803.14503518
619.268369412
621.395343586
1803.5986587
1802.12472111
619.474863682
1800.01505881
1798.71773879
612.938486997
623.166005548
1799.95954005
621.207012553
1798.13124061
1803.60081676
1808.17879474
603.828776277
608.676256755
1805.37532684
592.881462292
1811.88495742
1797.78876534
1792.49016466
608.043952589
601.505832034
1800.19192755
1795.74049747
584.680087735
1803.84155585
1806.73689676
608.674947889
605.708627262
1806.89720891
593.841855593
1811.1253631
1798.90700131
1798.21671961
602.282835566
609.754908366
1797.38211965
1804.07413013
585.938259678
1790.6496459
1788.52366051
597.430036633
605.414620511
1787.94443951
1793.94794829
593.663524799
1788.24391051
1788.4042891
601.492672321
598.559619683
1788.8626156
1788.24860224
591.268994389
1792.28208291
1795.42263767
605.559127725
599.649868236
1795.94181722
1793.01653297
594.129809887
1789.95074575
1792.11506967
599.143506374
602.618398651
1789.67903626
1792.5497168
591.855778345
1789.93673801
1788.20117017
599.453901273
601.302529403
1788.27099936
1789.47592217
598.082690208
1790.24599149
1789.80950745
601.151669851
600.564059246
1789.40297883
1790.25136821
597.471310923
1790.99775232
1791.93266182
601.188235525
600.282123924
1790.68555574
1791.56933338
597.834714958
1791.17716159
1792.64300467
600.361859625
601.635715927
1791.1205167
1792.21483404
597.284871668
1791.2026445
1790.16045413
600.554661829
601.664966967
1790.36791792
1790.87334942
599.050316129
1791.27314965
1790.70602707
602.367999172
601.180809888
1791.0807384
1790.94252624
598.180814126
1791.80641026
1792.70878045
601.24789581
601.024767643
1791.66873163
1792.39442075
598.745495921
1791.89067264
1792.70528854
600.869039436
602.210275591
1791.49518795
1792.85619934
598.053810036
1790.87483139
1790.36469707
601.217332772
602.801741274
1789.97566306
1791.46973809
599.852700712
1789.90148242
1789.67624752
603.096830166
601.104146412
1790.31573179
1789.46215079
598.481198419
1791.49706613
1791.99725504
602.317363817
601.344972342
1791.81155846
1791.55471352
599.528878791
1790.64361518
1791.34264574
600.858595879
602.1839171
1789.99217889
1791.6927392
598.373954574
1789.56930539
1788.56086836
600.548003
602.095249061
1788.49036508
1789.79570795
599.109291997
1788.64677117
1789.00621614
601.694638883
599.923584409
1789.1034812
1788.36998075
597.808224955
1790.04278101
1790.42911934
601.631177248
600.350098936
1790.23195125
1789.83385303
598.924507984
1789.05180927
1790.08499228
599.837764496
600.844469116
1788.70821953
1789.87293375
597.638568989
1789.72345063
1788.27876352
599.734672643
600.634874919
1788.61723514
1789.09918366
598.53368992
1789.55284341
1790.52613508
600.862695787
599.868978762
1789.72454176
1790.15012392
597.886277988
1790.01630872
1789.49618573
600.355585644
599.460249139
1789.38268551
1789.64153588
598.411538547
1789.84209738
1791.26603661
599.911372718
600.331184374
1790.49398182
1790.3017874
597.848462681
1792.81325781
1790.77074165
601.205734167
601.183506298
1792.02331512
1791.36517129
600.549472448
1793.77968473
1795.70086257
603.381935075
604.132455687
1794.00048692
1795.75619223
601.097674057
1793.08780964
1791.59927069
600.995876211
601.329587444
1791.59716284
1792.85805066
600.54691118
1794.13574345
1796.42635389
604.136381245
603.418728449
1796.0273693
1794.74490372
601.149568242
1800.0504537
1797.1639823
609.016280731
607.185584004
1799.44488403
1798.09017735
608.610739767
1801.80848865
1803.09376216
612.974019444
615.636691807
1801.84287806
1803.3631825
611.292263127
1800.37935651
1797.97099302
607.109623327
608.953767171
1798.37096864
1800.37594191
608.468851754
1802.14303141
1803.84346469
615.341047951
612.665860812
1803.6391954
1802.60526263
611.105186879
1802.57194952
1803.35594662
621.207837749
618.877492793
1802.22471856
1803.77379726
618.885929536
1800.09095171
1798.85369756
622.950575528
612.291771076
1800.06789433
620.549796746
1798.27013383
1802.82161982
1804.17495873
618.465469497
620.552930126
1803.99652186
1803.04600977
618.591797819
1800.41452633
1799.61591403
611.891730372
622.128386749
1800.84798848
620.408163774
1798.61689676
1805.6133313
1806.50707539
605.715937089
609.830295541
1807.05869985
595.58436629
1811.50018146
1802.65074691
1799.10921229
609.496881929
604.129834081
1805.22167857
1801.54091244
589.819472309
1806.29952574
1808.22531056
610.135548023
606.987937651
1808.79248039
596.118190553
1811.74496899
1803.51114886
1803.8421317
604.548990508
609.939745568
1802.66915771
1807.62587586
590.704782321
1796.98815532
1796.14377648
600.297751043
606.236367859
1794.66319615
1799.88439237
595.529357352
1795.05230391
1793.36557206
602.357627753
600.250430453
1794.20253981
1793.9481272
593.537519613
1798.58267185
1801.83874889
605.892235061
602.345526668
1801.18648767
1799.94092805
595.979078988
1796.62574028
1798.36385137
600.882030738
603.076887825
1795.59992345
1798.91354145
594.433263671
1794.34492947
1792.82455853
600.348283445
601.179547117
1792.62459925
1794.01397312
597.780115729
1794.24034596
1793.33007383
601.267447327
600.708947919
1793.22867695
1793.82694257
597.284603108
1795.56126468
1796.87566175
601.229187466
601.180801131
1795.39563368
1796.34219632
597.66261342
1795.00360764
1796.30222363
600.903386141
601.616268086
1794.66162279
1796.14489779
597.486469226
1794.37119475
1793.18409336
600.895655111
601.56022349