/*--------------------------------*- C++ -*----------------------------------*\
| =========                 |                                                 |
| \\      /  F ield         | OpenFOAM: The Open Source CFD Toolbox           |
|  \\    /   O peration     | Version:  v1906                                 |
|   \\  /    A nd           | Web:      www.OpenFOAM.com                      |
|    \\/     M anipulation  |                                                 |
\*---------------------------------------------------------------------------*/
FoamFile
{
    version     2.0;
    format      ascii;
    class       volScalarField;
    location    "1.4";
    object      p_rgh;
}
// * * * * * * * * * * * * * * * * * * * * * * * * * * * * * * * * * * * * * //

dimensions      [1 -1 -2 0 0 0 0];


internalField   nonuniform List<scalar> 
28582
(
19556.4969038
19555.326033
19556.132584
19554.8081972
19555.2560613
19553.643618
19554.4052032
19552.0623027
317.545986163
322.183258844
0.0175882650223
19552.9560576
18687.163782
18770.6700906
19551.5832741
19552.6054915
18620.5187303
19550.174111
19550.9033505
19557.2499569
19554.8456432
19555.0763088
19557.0703918
19554.2750332
19554.549753
19556.5896506
19552.8687514
19557.5127331
19551.2452899
322.417566106
0.00028209260355
0.000579645002017
19555.4715039
19555.8019292
18898.6380288
18911.4390336
19555.8585835
19550.966019
19552.1419192
19551.7437973
19550.5292757
18730.1453724
19551.227906
19550.8764922
320.505726356
310.108545297
0.0110322012602
0.0169460888761
322.642498194
0.0164435349804
19553.9401632
19553.5444951
18625.2746581
18771.3368658
19554.3743907
18829.6333112
19552.3625679
19552.3656398
19551.5919657
18713.8906364
18615.2950661
19551.453772
18667.3935389
19551.9622681
19551.6458005
19550.7255876
18581.9726853
18715.9663759
19551.5427723
18778.1384488
19549.9100798
19550.3543893
18755.5962429
18613.5390371
19550.7014228
18683.3382659
18650.1380572
19549.9437121
19552.5107379
18641.7830008
18824.4579274
19551.2846501
18767.3435026
19552.3285337
18679.7631887
300.221130488
0.47897709436
274.4364352
289.335147154
0.0459349897818
0.244170861474
311.83513731
0.00101612630646
0.00510189704626
319.59183558
0.364180304692
326.890018343
0.0961313166591
19557.2935073
19557.9750836
18808.7662556
18923.224352
19556.4555711
19558.5139292
18986.5606955
19555.89672
19554.443342
18841.6100856
18726.61956
19555.4288562
19554.224737
18834.1182814
18814.7446639
18872.2497663
19554.7608654
19556.2799691
18717.7601757
19554.3375493
18814.0408364
19549.5704302
18633.8216932
18704.5716143
19550.8790408
18593.7292876
19549.0564886
18782.5129419
19550.069917
19549.6020386
18666.9510626
18599.3184121
19549.1968878
19549.331532
18665.7343033
19551.0154615
19551.7063763
18729.3105894
18706.6517611
18657.3568966
19551.3687462
18806.7875229
18720.3609388
18780.9511377
19550.6691469
19550.4844869
18616.0677435
19549.643539
18685.6351785
19553.0804946
19550.8602949
333.699209472
0.0380196539611
19553.8803021
18693.4044786
19551.2845834
19551.4652596
18615.3544205
18623.0352265
18646.5123297
19552.4686573
19554.630209
18499.6193464
18615.1644557
314.300298638
333.998161667
353.935097129
0.14189232767
0.68457893369
0.435110279788
373.714175197
406.911035257
19552.5616809
19553.5626453
18765.9405711
18612.6372687
19553.2952882
18823.3055415
19552.0194481
19549.5827805
19549.1404706
18575.4669922
18667.8196596
19548.7505058
19549.4007606
18717.5532674
19549.6281895
19550.1761054
18673.2463165
18556.8010112
19549.6207043
18714.4884773
19549.4474853
19549.4569115
19550.0939738
18540.8412217
18640.9749672
19549.3105043
18567.8313393
19549.9250751
19551.4956539
19549.7897844
18642.0199149
18510.4926668
19550.5318913
18638.0698104
19550.6424162
19551.9088654
19554.5893171
18539.6345653
18633.6177453
19553.9719248
18516.8311311
19553.0732811
19583.5590471
19578.9157415
19573.8465457
19571.9430109
189.352375914
173.157906395
191.107136643
191.159878209
227.144548527
-0.0369859440807
0.0221504049811
-0.0428684747578
-0.00743147059251
-0.0109493260682
0.0129180123408
19585.7719722
19584.7854474
19447.7345972
19436.1866301
19585.8234794
19442.3264434
19583.3695746
19581.6064509
19444.1645466
19402.9457694
19582.8951406
19580.9336543
19579.2192254
19438.9383943
19453.1286993
19375.3689506
19355.8970777
19576.244256
19571.464949
19413.5116657
19256.4223329
19260.0301892
19150.8883402
19576.8932713
19575.4009263
19385.4966305
19361.4902551
19316.2093465
19569.4850678
19572.5167529
19568.9096367
19251.6963102
19138.1557696
19177.8800428
19126.544578
19182.7163715
19136.4628681
212.301405639
212.972182722
198.565185016
0.112880042615
0.10817086178
0.0665900343861
0.0852735200952
0.0929504863155
0.0859897447229
0.0876606651849
0.0492030729332
202.545471841
204.449486371
177.694864523
193.190760653
182.566187128
0.0792911799702
0.0777322342514
0.107801465521
0.0447236165424
179.674786348
183.568502419
193.284691761
0.0599548999213
0.0282792563277
0.0164813037627
0.0303068456636
186.529422208
201.582931666
0.0140140552837
0.093010065095
0.347476592865
207.581650726
211.597718314
226.661958595
0.135376862813
0.273266502728
0.510344357509
0.547530646468
19585.2861016
19585.7692805
19446.6301845
19442.0066954
19585.4814307
19443.1847862
19585.6222218
19585.0129961
19584.5926501
19450.3900785
19417.3945219
19585.1316258
19584.5275697
19443.5703238
19585.4273752
19584.5686193
19454.5384478
19458.5083139
19585.26338
19584.607459
19454.2525758
19583.5337158
19583.8826366
19418.3496396
19435.6177457
19583.9145826
19583.3800023
19433.9229278
19582.9620018
19581.6183921
19430.723928
19409.6789801
19582.6173528
19582.2706022
19429.4976866
19582.175047
19583.6580226
19455.9913942
19436.3747528
19583.4447958
19582.9973035
19416.3401713
19581.2914609
19582.2683775
19468.5235498
19409.7790984
19583.1194075
19580.5267029
19389.1944447
19580.9879647
19580.8423661
19429.1532325
19392.7354106
19582.0284352
19580.2723372
19399.7971055
19579.6966889
19577.5937024
19375.5665751
19412.8231931
19578.8095921
19579.4355301
19348.0217698
19576.7756128
19580.8889336
19462.1630944
19409.6455479
19579.634079
19579.4815987
19343.7367169
19573.2401297
19570.6066087
19451.3520093
19307.6892474
19577.1411847
19192.9596144
19571.171958
19574.7020796
19575.3414102
19377.2855113
19336.5986131
19577.6253561
19574.5805854
19295.5679846
19571.1647425
19566.8151725
19268.8984518
19340.6547355
19572.2914018
19139.1414831
19569.7196
19578.8286491
19580.2816769
19401.8329238
19435.8326888
19579.631991
19580.2627686
19404.1138126
19577.2489491
19576.7860404
19422.7000438
19346.9536146
19578.6922358
19576.4879141
19323.2268626
19576.7885502
19574.8915465
19319.8227927
19367.3395045
19575.9398802
19577.1251213
19310.2116336
19571.7691083
19574.4600397
19321.7898364
19375.4747558
19573.6237372
19575.2603705
19253.6941073
19568.4237343
19566.3735664
19336.2510072
19182.2693144
19571.7309002
19067.2122366
19568.5382942
19571.457127
19572.6209098
19349.5617517
19218.7924532
19574.6600439
19572.3594366
19237.4773182
19568.3059937
19566.471779
19145.4264273
19270.7864748
19570.9074768
19053.2949563
19568.4396022
19570.8449553
19572.5116222
19195.313821
19292.5968565
19572.1438954
19573.9136069
19211.6877368
19566.7150538
19249.7254319
19570.8546222
19555.3784165
19554.3197726
19553.9000642
19556.0505406
19557.3911879
19558.336373
19554.9965976
19553.7815593
19553.317637
19555.7350406
19557.4342654
19558.4951243
19547.1761071
19549.0704474
19550.0046135
19550.6044896
19551.4248977
19552.763046
19554.4324733
19555.4891104
19549.8328541
19550.2844574
19550.9025966
19551.1173253
19551.7922251
19553.0713027
19554.7396866
19555.7612186
19552.7706466
19552.1721247
19551.9996601
19551.9657595
19552.4870173
19553.6871214
19555.2796507
19556.2624938
19555.4468732
19553.9384951
19553.2156666
19552.9425143
19553.24698
19554.4149737
19555.9335885
19556.9211836
19554.1872596
19555.2547305
19556.6738293
19557.6189567
19544.3445136
19548.0553975
19548.8605385
19549.725623
19550.7030902
19552.2883043
19554.2728777
19555.4773922
19547.8189376
19549.3122885
19550.3503501
19550.5008466
19551.1414026
19552.7541463
19554.6570782
19555.7784514
19552.0115529
19551.6372822
19551.3576324
19551.2689506
19551.8514495
19553.3087947
19555.2295586
19556.3474265
19555.1105196
19553.5232876
19552.6422523
19552.3499841
19552.7674598
19554.0330798
19555.9086736
19557.057162
19553.6719801
19554.9270318
19556.6984489
19557.776515
19541.8390715
19546.5194285
19547.2952947
19547.6549114
19548.6431203
19550.8226954
19553.8324893
19555.4395315
19545.7068821
19547.7699072
19548.1570065
19548.0927128
19549.1165666
19551.2884463
19554.3789072
19555.856033
19550.3913387
19550.3737889
19549.734455
19549.3666233
19550.0040931
19552.0249267
19555.1067154
19556.7036751
19558.3004266
19554.4814875
19552.5823725
19551.1711171
19550.4028346
19550.9652224
19552.9705835
19555.9303859
19557.5921029
19554.0109091
19552.4006294
19551.6364637
19552.1192397
19553.9622455
19556.8237872
19558.3581986
19554.7639164
19557.5301089
19559.0042462
19541.2175784
19545.174122
19545.9524385
19545.9072852
19545.5507607
19547.5573892
19552.4227162
19556.6894009
19544.6896387
19544.4407932
19546.4000554
19546.534768
19545.852141
19546.0189449
19548.5335434
19553.3172245
19556.9671093
19564.147483
19552.9625003
19549.0829697
19549.2202834
19548.5036399
19547.1619422
19547.0310591
19549.3422156
19554.0139785
19557.8989892
19558.8171826
19554.1440865
19552.0008295
19549.9431849
19548.2837744
19548.0696044
19550.0518861
19554.6243428
19558.6826072
19553.7254783
19550.8997299
19549.453593
19549.4629686
19551.475093
19556.0376906
19559.6786562
19552.3799939
19556.9275406
19560.2661434
387.881332801
373.137600942
398.816691792
401.516612094
397.223511242
399.255764596
447.679924886
562.082212484
203.793189424
311.052348315
376.121769413
373.733801309
390.200206935
399.672561617
387.419171978
382.054959582
430.495178453
558.157617444
234.773919745
296.714079036
334.921838179
340.15805042
356.463972661
365.873633289
369.252398446
380.621652
426.73245157
533.418681727
263.221185211
298.191157342
316.059132206
336.075641224
347.99911764
357.5349573
377.929931061
428.860045726
527.840585375
302.450636067
324.65880985
339.591154512
345.622834949
366.515739819
420.804756467
529.087206294
365.131418609
429.642310353
547.52798235
0.0663386691857
-0.156684058911
-0.118691564646
-0.072617276593
-0.0810129354805
-0.0388724504002
0.0183508403698
0.00642317599302
0.0360406357035
0.177964034039
-0.00129645579492
-0.114548156904
-0.0832703463504
-0.0393133935135
-0.0317223622918
0.00518995454321
0.0509386869466
0.0648396774532
0.0620565206612
0.16869815691
0.0150412153173
-0.0516532145869
-0.0298321733502
-0.0177986685764
-0.00256568271302
0.0281788754425
0.0518489288162
0.0560517314415
0.061955441486
0.111530484347
-0.00362902042902
0.0018673135355
0.0152922588827
0.00633424226949
0.0364733524508
0.0519576891355
0.0553536651697
0.0531370150511
0.0971513950465
0.016486739082
0.00597694266467
0.0137771885301
0.0506393684685
0.0546118049602
0.0709646030049
0.111513721151
0.0178990633448
0.0454527557646
0.172885329616
19548.5997304
19548.3007571
19549.2874191
19546.502971
19548.2067807
19547.5606063
19548.7717699
19549.3167998
19549.541216
19549.7858518
19548.7957193
19549.1519322
19549.2353236
19549.5799216
19550.2422671
19551.2161341
19551.1997338
19549.2526172
19549.7599077
19550.9736023
19551.0002848
19550.2415929
19551.1505401
19551.213818
19549.9767996
19550.0453193
19550.9236413
19551.004772
19546.9434579
19545.520193
19547.6960357
19543.0568635
19546.1034654
19543.9189968
19546.7244342
19548.5668634
19548.5405559
19549.0952605
19547.4548248
19547.9982559
19547.8865718
19548.4098446
19548.7365334
19550.0702062
19550.2431828
19546.8352524
19548.1741352
19549.1593612
19549.4324092
19549.5726464
19550.367538
19550.6455404
19548.7888085
19549.0104313
19549.7364687
19550.0137748
19545.0498583
19542.8597479
19545.7306937
19541.3448815
19544.6472909
19542.9739825
19545.6041787
19546.9867662
19546.9311054
19547.4237115
19546.2385706
19546.993537
19546.7241041
19547.3347568
19547.2163023
19547.9206301
19548.531481
19545.2496676
19546.5458012
19547.5218625
19548.0432855
19547.9308681
19548.9665116
19549.1318158
19547.2721821
19547.5545322
19548.3565442
19548.5407664
19538.7931767
19540.6292811
18449.6376185
18544.3137451
19543.5230163
19542.558689
19544.1483041
18303.6423153
18501.6564332
18349.2497191
18514.1980047
19545.8731249
19545.4148959
19546.0602103
18453.2775402
18525.7241443
18422.89456
18519.006174
19545.9091497
19545.8758119
19545.9141614
18417.6174943
18545.0341862
18382.1394736
18487.5811244
19545.5010894
19545.5499942
19545.3684105
18405.1896749
18513.7678028
18338.4965543
18499.6954165
19546.2387262
19545.6666736
19546.5207635
18362.2992617
18489.6313902
18372.0701088
18537.7880627
19549.7649654
19547.9961454
19550.1203071
18355.5086639
18495.8464579
18427.0616198
18558.8622835
19554.9771202
19552.8164136
19555.1735359
18423.7165932
18555.0688099
18478.9697424
18575.9878028
19555.9692339
19556.5786217
19555.694036
18495.9516933
18054.2292091
18472.6689105
18022.1893979
19563.8848278
19555.3869029
18916.08606
18811.9514413
18877.5184005
18888.2963417
19542.7911196
19548.7419777
19546.2857939
18378.5544301
18574.7959112
18493.3078225
18696.0424605
19545.5041243
19546.5788712
19547.3210014
18376.4030761
18535.927091
18501.9421793
18671.0011517
19546.6494305
19547.6986219
19547.7970304
18439.3510238
18530.3734605
18563.839714
18653.5696599
19546.2592828
19547.5954771
19546.9429865
18396.4672987
18495.1939452
18522.8368227
18610.9975668
19545.7609745
19546.5275732
19546.3207482
18349.7556015
18499.4574446
18462.8903736
18575.6370781
19547.0237342
19546.5225067
19547.3623864
18372.9235064
18542.6814793
18442.2258029
18564.6167591
19550.7338387
19548.8876027
19551.0485214
18441.1421068
18571.802098
18464.3529697
18584.2742717
19555.7420692
19553.7265587
19556.0855338
18496.7334041
18588.7877045
18533.7449128
18624.8298408
19555.9819484
19557.3328949
19556.4901539
18484.5649299
18037.0996378
18543.6431883
18097.0153404
19558.5007626
19564.8091005
19560.5894678
18869.3692589
18919.4292941
18913.5675162
19020.3070042
19549.7527575
19556.0741061
19552.9455468
18549.0734338
18732.7359154
18736.522016
18865.0401672
19549.1717649
19551.6833259
19551.1827473
18546.3917762
18692.9476836
18688.3568351
18776.1788177
19548.9971264
19550.6591574
19550.1506544
18585.1415641
18670.7661529
18660.2910622
18729.9269106
19547.7885332
19549.2975426
19548.5445452
18548.4938402
18623.1221469
18602.7730717
18673.7936727
19546.9679336
19547.8251255
19547.4390053
18482.2847153
18584.7954513
18540.4707156
18621.5985601
19547.8772661
19547.4855648
19548.1759239
18452.7402369
18567.8058775
18489.1142939
18583.2649204
19551.4620097
19549.5559973
19551.6942816
18466.758497
18582.4952947
18475.283053
18583.801651
19556.4882845
19554.2356681
19556.6788827
18532.8650147
18623.9850265
18526.3812654
18608.9274043
19557.2586795
19558.1744477
19557.8858012
18550.3265041
18131.4788599
18547.0965437
18202.6795283
18952.8513619
19073.3549557
19556.0441166
19558.3921137
18823.3912153
18906.3679047
19020.1381124
19552.9844369
19556.3529449
19554.5755181
18737.7029237
18806.6634062
18879.9244684
18904.752005
19550.9945648
19553.1584709
19551.7465271
18689.8422707
18744.1022549
18761.7705188
18797.7559073
19549.0160125
19550.4912096
19549.4711405
18613.2344175
18681.3619838
18640.7568882
18705.9776185
19548.0312767
19548.7816843
19548.5163163
18551.2492118
18627.4479739
18570.220563
18659.8118775
19548.8080904
19548.6669761
19549.3438546
18497.2621594
18587.6430797
18536.1660886
18621.9869301
19552.1817964
19550.6933879
19552.778411
18479.869925
18585.8640915
18515.9998329
18614.9864434
19557.1276051
19555.2626801
19557.6765637
18527.7349404
18611.0642467
18557.2778517
18632.4747351
19558.4624395
19559.1304898
19558.8942353
18546.9796448
18216.0750378
18566.2625248
18217.7232816
19552.0980908
19552.3415281
18760.6022031
18799.5534736
18763.1489641
19550.0571146
19551.4016774
19550.6620758
18641.7860964
18708.0980261
18610.4505091
18739.1897301
19549.3171989
19550.1925405
19550.0398652
18570.8604387
18667.4021459
18609.1962175
18709.5013803
19550.1964245
19550.1706583
19550.7708794
18549.4543112
18635.5880196
18596.2469034
18676.0014185
19553.5835625
19552.0633723
19554.1346504
18533.2817083
18629.6610586
18562.3296269
18660.0668943
19558.3782717
19556.6188
19558.8673076
18574.8114945
18648.0181512
18590.5304637
18666.8025429
19559.2383337
19559.9770108
19559.3445026
18580.6710354
18213.8363084
18573.0368095
18142.3985199
19551.2076515
18684.4271268
19554.399198
18568.8819396
18662.2001278
19559.2325987
18586.6611248
18666.2622292
19559.4520189
18565.3815861
18131.4297309
-0.00860895236788
0.0589847373738
0.0124424625675
0.048184695902
374.959426837
366.270235115
0.0744276654337
0.223052866543
0.0698052892362
0.190074082246
379.068417895
385.614187288
384.856805931
0.240656693895
0.0831617482886
0.579091026739
0.550739107367
386.403857727
381.242605809
387.430841277
0.040910495292
0.0368959976996
0.208985528269
0.165917910142
403.013707453
402.27240829
409.575790753
0.018927065869
0.192114098219
0.234424596425
0.125889595785
399.704330095
408.159606192
403.157499583
0.374637579844
0.387243194446
0.149833323409
0.000653112316809
397.748140019
392.185033758
387.597455067
0.276279136348
0.262159595048
0.0144224337402
0.00273983851108
415.869305233
389.748662162
404.335166747
0.11438094173
0.28936744522
0.117811318015
0.317015285414
499.956797496
440.368121064
497.426224679
0.629560266979
1.88453072484
1.03423285509
2.41412706669
649.703436819
566.995766817
647.614759151
3.76086135954
6.98155071938
4.0768517934
6.99263389933
252.752622433
221.05945864
263.841763488
0.00482010649123
0.0478827908883
0.212273921307
0.197879445435
354.688067394
311.51625113
344.360224222
0.062270644356
0.155073897939
0.1055359524
0.0217455493201
377.348197587
354.086478634
356.589265329
0.316760770252
0.546297256051
0.0743058969565
0.0268751451218
381.126918497
353.612315748
359.782666277
0.343850939294
0.270501921216
0.150512333341
0.0705849666646
402.392529797
370.596886866
376.858329017
0.235088233735
0.229423793445
0.203075487205
0.0698083848446
396.93572909
380.780315444
379.199673997
0.0130972979321
0.0219738646161
0.117994207665
-0.0356569045316
381.299724445
376.738338454
376.301250025
-0.0523415029654
-0.0296341854583
-0.0354169599729
-0.0518095380937
396.23414081
380.22067342
395.10942574
-0.0508909583701
0.328559969256
-0.0432493089245
0.0927910022553
486.541545357
423.760137613
476.825328838
0.994060003064
2.36752496517
0.737649097641
1.91118287836
637.335902074
543.022439174
623.849296774
3.9401281462
6.64978109455
3.49429644616
6.20521662812
265.212845536
239.898659614
262.536524714
0.368766656219
0.337952762008
0.464618080106
0.214525239889
327.17354911
286.018451799
306.108530906
0.0638665259203
0.019415033304
0.10464993646
0.0307805673676
335.50474658
317.401061065
325.232685385
0.00705159667889
0.018821013148
0.029078382744
0.0164387616187
349.536829628
331.333066518
339.617949372
0.0125162366534
0.0379510177254
0.0176588040431
0.00485514339791
364.141452011
348.120187138
354.389981673
0.0065406877408
0.124408935682
0.00616621048538
-0.0148135715589
368.653097207
357.830038322
359.377225013
0.0058587220407
0.0259886400085
0.047155091347
-0.0285658963035
374.131346746
363.456832585
370.177182596
-0.0459999901194
-0.0200776738553
-0.0217857225345
-0.0427996433741
396.057915031
379.632120752
397.138743766
-0.0464625432322
0.135255458428
0.00502045212916
0.0699369824284
472.006738618
426.815264329
474.270430379
0.412111437329
1.59881426379
0.5047590008
1.35061702481
610.325372794
528.549799467
598.779741054
2.94989307115
5.62530163783
2.74988185026
5.2814036462
284.701992999
266.911782516
0.0436767537265
0.0433540984774
0.0262168835748
308.755603158
281.840085519
294.222197951
0.0184202873432
0.0152685623584
0.00575573506136
0.0429180230244
325.841112326
304.954658909
317.155022177
0.00850977738541
0.0177334490246
0.0886332814731
0.026254307176
344.650132863
326.899494656
337.803176082
0.00123893767293
0.0169226491544
0.0238038996466
0.000653223783808
352.342723677
341.599090095
344.535947313
-0.0050508870847
0.0279355826755
0.0115803178097
-0.0249517441587
365.888456893
350.431964785
359.483967768
-0.0355420813576
-0.0185589686104
-0.0225708368228
-0.0439369520734
396.450643179
370.999542611
391.901321417
-0.0513882924833
0.126751224641
-0.0442588844257
0.0106897945336
473.973229926
423.483367278
471.210358447
0.344209210927
1.40538683098
0.481153830579
1.31457382388
594.280590904
526.31912052
595.747583573
2.63661627081
5.1615871005
2.69352303865
5.16127707022
312.69784428
324.040653475
0.140394969839
0.0477664346781
0.38861360051
0.025366966893
334.623404193
325.696147393
332.134751178
0.02483143449
0.0203252381016
0.0191847279654
0.0123142017252
341.774239061
332.110821498
334.678466462
-0.00453535633779
-0.0114744368021
0.0113833521003
-0.0137023522797
353.653517519
338.917530841
346.359168768
-0.0362921744553
-0.0272438695411
-0.0216522615454
-0.0398280046148
388.046687619
361.656431779
386.18344676
-0.0446681954654
0.180529466292
0.111494169294
0.320173873509
470.902388389
420.707666224
472.884779561
0.428906856096
1.57789957076
0.929961561577
1.89199081774
602.461190478
536.549597261
612.380114336
2.75563889738
5.35350305729
3.14171054315
5.6617796664
346.263698057
0.263953886024
392.653171721
0.17048321094
0.628801671756
0.261569519176
0.457683617431
484.122294953
1.08478629924
2.34182396506
1.14638520277
2.46282923346
620.999805247
3.56991998263
6.21475134291
3.92043912262
6.68995150543
19536.8520256
19539.5322334
18538.3290633
18343.8236428
19537.6920114
18284.0497217
19539.0749221
19538.1333173
19541.5560082
18357.014689
18594.240244
19538.9278159
19541.4215695
18306.638615
19539.4258731
19538.6242813
18350.4639585
18499.8060474
19539.138868
18470.0087946
19539.5938789
19539.6386908
19542.569275
18495.7006655
18425.2900196
19541.0640945
18375.1301723
19541.6458908
19540.6398643
19541.0105652
18505.0323629
18361.4529511
19540.3716287
19541.2472286
18482.3676006
19540.8069762
19543.3297789
18402.3107474
18498.9071951
19541.6148726
19542.5334773
18368.0773565
19543.4793023
19543.3967327
18500.8957727
18538.840065
19543.3908589
18516.2445869
19544.23687
19543.9287109
19544.8849617
18574.4791128
18464.5394724
19544.5193452
18431.8092886
19545.1830015
19543.7815131
19543.6520247
18521.8368921
18454.7898697
19543.3769374
19543.8288839
18517.3707705
19544.3079092
19544.7332033
18459.9957364
18556.5844303
19544.5270275
19545.2592179
18431.3619379
19544.78095
19545.0868052
18434.0735919
18562.5681367
19545.6870426
18522.9048289
19544.9053476
19543.8324954
19544.806679
18547.0051035
18381.5932779
19543.0355575
18380.5549195
19545.9777891
19544.5567326
19544.240511
18548.7720403
18398.5309324
19545.3296325
19543.5043656
18500.7651469
19543.998587
19543.7089763
18368.5270895
18511.2506574
19543.9613082
19544.0821083
18358.0725578
19543.5816349
19544.1708689
18389.9768529
18499.9351244
19543.8477537
18510.7205363
19543.3734543
19542.155497
19543.5617069
18496.4678117
18342.3980458
19541.9312438
18354.7126556
19543.6173521
19543.3617885
19542.659162
18491.4637804
18342.5466336
19544.0848216
19542.3340676
18491.6590988
19541.9424987
19543.2803944
18342.1552409
18479.6592805
19541.8388978
19543.2405295
18343.6673041
19543.0502889
19542.4716068
18349.6959826
18470.933221
19542.7271138
18497.6220624
19542.2666684
19542.2817638
19543.6374792
18476.3137789
18360.1686934
19542.6529343
18364.5152414
19543.1683868
19543.0988246
19542.4073131
18478.7028647
18369.0714729
19542.8443193
19542.4076185
18507.2247473
19542.3995385
19544.4386547
18371.1282168
18503.3809512
19542.8000306
19543.5729502
18376.7273463
19545.7427808
19543.4247108
18370.8988758
18497.0593451
19544.4500556
18516.7844215
19544.5068783
19546.8011041
19548.3875801
18505.5256932
18427.765035
19549.21615
18405.8239787
19546.4259621
19546.1162525
19544.6366157
18504.901195
18429.5467911
19544.6002095
19545.9852172
18533.4683457
19546.7792232
19549.6275774
18442.8502992
18549.383227
19548.6403238
19548.0558273
18428.4795152
19553.3953882
19550.0077307
18478.9468025
18545.7190421
19551.2916998
18533.1274162
19553.0125953
19555.2280514
19557.3636712
18565.6541818
18500.1017342
19557.0376352
18476.3221817
19555.8082787
19553.4009199
19551.4819705
18553.8570426
18501.3657981
19551.2404746
19553.858377
18551.7353137
19555.0910012
19557.4519012
18485.8907772
18576.8081519
19556.7392877
19556.1982709
18478.6426606
19556.2980645
19557.8179215
18448.7219084
18548.2835602
19557.7589199
18507.5158011
19556.479272
19552.0888837
19551.44518
18359.0209546
17928.1564276
18291.3838622
19550.1305488
19553.2132544
19556.0135444
19557.3544346
18526.2296818
18398.7563841
19557.4575248
19555.5132777
18488.6175171
19551.9987149
19551.2404941
17914.1995829
18314.0398367
19552.0717107
18275.5523942
19550.3079547
19558.6900997
19563.2230362
19042.3290983
19311.2929177
19560.4092461
19009.2249265
19566.859282
19552.7791293
19547.153553
19093.4138839
18689.1333634
19555.1270128
19550.3229411
18609.274002
19558.9100292
19561.6201178
19285.2641403
19012.070205
19561.8485389
19011.013622
19566.0213821
19553.878541
19552.9226705
18695.9844879
19080.8011755
19551.7383657
19558.9988104
18632.0071236
19545.2562949
19542.7221254
18418.0329043
18828.8949491
19541.4958032
19547.9320552
18704.1626712
19542.8829307
19542.3437253
18611.6195625
18375.400956
19542.6396242
19542.1198993
18368.795112
19546.6495902
19549.9884735
18835.5714071
18492.0232402
19550.0110344
19547.4074906
18732.6334653
19544.0810005
19546.9543567
18410.0326061
18672.6370079
19543.402405
19547.2272875
18416.3253855
19543.8855815
19541.8992704
18382.552732
18549.2672098
19541.7311084
19543.1770808
18590.6758072
19544.0700871
19543.6707602
18514.9958948
18454.6642572
19543.1212366
19543.9868291
18463.6023795
19545.1852867
19546.6855706
18576.2843687
18484.8062739
19544.6118975
19546.0783331
18628.6512404
19545.2059485
19547.2791911
18483.6054446
18613.0965396
19545.0377528
19546.7696108
18499.9009308
19545.5065449
19543.7914899
18452.7046991
18565.6540529
19543.84373
19544.8654675
18585.3525803
19545.501398
19544.7565944
18550.5780496
18466.0312233
19544.8996419
19545.1484157
18470.0668443
19546.0562608
19547.3335496
18586.5581699
18542.3926124
19545.8166548
19546.9148951
18621.9324569
19545.9604192
19547.3031558
18485.5932564
18629.8966197
19545.5062967
19547.4501375
18506.9340988
19545.2910424
19544.3458473
18404.3791113
18563.8381191
19544.0795348
19545.7864031
18556.5164619
19544.0670802
19543.9901472
18510.8988741
18389.3170254
19544.6192325
19543.4986006
18401.1306946
19545.8166645
19546.5499024
18575.9987978
18490.3493885
19546.0798786
19545.9758937
18592.0886315
19544.6748066
19545.8393903
18420.2975837
18579.4513847
19543.8837066
19546.1860768
18447.2329112
19543.9376283
19542.7521707
18352.6530825
18506.9367667
19542.4521348
19544.0537169
18523.222148
19542.6799285
19543.0100951
18480.842246
18361.9042791
19543.0826855
19542.2505862
18378.4165503
19544.2601286
19544.8271424
18520.0438816
18422.6920333
19544.3035918
19544.0732346
18553.1878474
19543.0152408
19544.4569875
18383.992427
18523.0383061
19542.5266571
19544.1915152
18410.8410148
19543.9293683
19542.1512755
18372.3984212
18491.6139903
19542.197658
19543.1562755
18543.3781816
19543.5372859
19544.417383
18504.3031979
18419.3805139
19543.3481185
19544.0862547
18430.2279628
19544.1505397
19543.7894308
18498.0354991
18411.0861406
19543.3392073
19543.8274519
18554.1817836
19543.7857653
19545.5770416
18425.2558796
18517.5857289
19544.4329117
19544.5671687
18439.9506377
19547.0956872
19544.7089299
18445.9633891
18538.5191049
19545.869062
19545.531419
18572.6557049
19547.9667302
19549.8756402
18561.5330663
18505.976121
19547.9149479
19550.0000192
18494.2324295
19547.3254391
19545.8909779
18536.5100426
18465.720638
19545.7106556
19547.163948
18573.1271284
19548.3112991
19550.8400447
18511.9617274
18572.7779168
19550.2692414
19549.1578545
18497.2575554
19554.4873098
19551.0773686
18516.8333908
18602.6581715
19553.1879928
19552.5455422
18608.9914674
19556.0643193
19556.8231607
18586.7581008
18533.7241733
19555.6143804
19557.4340766
18543.4813035
19554.7663201
19552.4059757
18609.0238679
18562.8399819
19552.7303919
19554.8386235
18613.6558403
19556.4095304
19558.2293956
18547.7850258
18627.1585604
19557.6915304
19557.0771531
18554.3602992
19556.1172307
19556.7967604
18406.8956424
18553.588815
19554.9884248
19557.7029594
18513.1136376
19552.1341582
19551.0436179
18323.9672816
17948.209339
19551.8267289
18301.6356011
19550.5907679
19556.3904868
19558.2861005
18567.5142836
18467.6553913
19557.9304934
19556.6203862
18526.3682005
19552.5117281
19552.7885619
17957.0204009
18373.8405313
19553.5770946
18316.7633613
19551.0492507
19560.5937325
19561.4627636
18986.0003685
19234.4784585
19562.0668195
19032.6224865
19566.5812943
19557.3791881
19553.8118433
19071.4388339
18752.24621
19560.2098372
19556.2710807
18718.8943306
19561.3858665
19563.2906718
19216.5131351
18981.7270391
19563.8713918
19054.0110429
19566.8956105
19558.3582442
19558.7862528
18773.2082891
19078.3197637
19557.3450445
19562.7214391
18766.3479508
19551.8131864
19550.9331551
18527.0715435
18882.3509627
19549.1437195
19554.6218251
18862.9292953
19549.5343039
19548.0254269
18686.2702921
18517.8614566
19548.6766312
19548.2919916
18571.6510632
19553.3370458
19556.8416523
18894.6502088
18687.7894545
19555.8471384
19554.7706966
18911.0159199
19551.2354477
19553.2813493
18568.6591687
18788.7137958
19550.0441242
19553.7568672
18645.686193
19549.0376176
19547.4538248
18518.1549767
18650.8710903
19546.8632735
19548.4765176
18745.9374407
19548.7690504
19547.7415176
18631.4710425
18574.4566815
19547.4151012
19548.2596557
18615.9532307
19550.2619531
19551.8152943
18676.3117131
18620.4099059
19549.8978084
19551.1563074
18774.2049066
19549.5673169
19551.1344576
18592.7434719
18704.8140325
19549.1527301
19550.934735