/*--------------------------------*- C++ -*----------------------------------*\
| =========                 |                                                 |
| \\      /  F ield         | OpenFOAM: The Open Source CFD Toolbox           |
|  \\    /   O peration     | Version:  v1906                                 |
|   \\  /    A nd           | Web:      www.OpenFOAM.com                      |
|    \\/     M anipulation  |                                                 |
\*---------------------------------------------------------------------------*/
FoamFile
{
    version     2.0;
    format      ascii;
    class       volVectorField;
    location    "3.6";
    object      U;
}
// * * * * * * * * * * * * * * * * * * * * * * * * * * * * * * * * * * * * * //

dimensions      [0 1 -1 0 0 0 0];


internalField   nonuniform List<vector> 
28582
(
(0.805707186758 -0.00176580343667 -0.000260059927046)
(0.80491345648 -0.00342536877039 -0.000415960339915)
(0.805418153335 -0.00175578177641 -0.000708964110234)
(0.804736338333 -0.00327733377155 -0.00122233516691)
(0.804625101646 -0.00215824172882 -0.00149592890176)
(0.804046094253 -0.00373146784269 -0.00251467159679)
(0.804032606807 -0.00207027249989 -0.00229670080088)
(0.803659007844 -0.00359266358339 -0.00379511015059)
(0.52427313467 0.124270333638 -0.00522971909846)
(0.475139313118 0.117540402795 -0.00503952526548)
(-0.0463387333476 -0.0154597311153 0.015248299095)
(0.803673313081 -0.00304991806775 -0.00265081228027)
(0.796565060643 0.000583608771782 0.00105643826342)
(0.796392390839 0.00159479996864 -0.00183713694669)
(0.802977140657 -0.00394258488948 -0.00421937276032)
(0.802887745136 -0.00333978295818 -0.00259414991702)
(0.796068620396 0.00154005869888 -0.00234401368863)
(0.802442431965 -0.0043999869432 -0.0049439432121)
(0.802364782965 -0.0037845932022 -0.00494869495189)
(0.807985992709 0.000514742041572 -6.18183274382e-05)
(0.803982481498 -0.00396035485184 -0.000496396589276)
(0.803652127616 -0.00390530561763 -0.000615292898028)
(0.807993627599 0.000599006534257 -5.42831234143e-05)
(0.803812139333 -0.0037228146043 -0.00176578080584)
(0.80366518089 -0.00379616100266 -0.00199895902426)
(0.807633757166 0.000733618477304 0.000380764418009)
(0.80314440959 -0.00398526520348 -0.00341734923581)
(0.807372207142 0.00308113267015 -0.000601220859273)
(0.802991422524 -0.00402345492504 -0.00519755313656)
(0.4618745567 0.0920854858508 -0.00555553146757)
(0.0161206065708 0.00705292305945 0.00860185260219)
(-0.00842674549108 0.0491875488616 -0.0572803259442)
(0.807947883607 0.000907377896969 -0.000679209370419)
(0.805373108988 3.36164446731e-05 0.00126340886521)
(0.797665533872 -0.00168886651361 -0.000501261618949)
(0.796829278284 -0.00257231145901 0.000883046858006)
(0.804179717043 5.65062592133e-05 0.00285922859721)
(0.802308074732 -0.00371195273491 -0.00624712437425)
(0.803125136086 -0.00334386950579 -0.00321866241963)
(0.802653916769 -0.00320343834783 -0.00371454798079)
(0.80244736495 -0.00438121359129 -0.00549205205956)
(0.790303860998 -2.48550740835e-05 -0.00443315501712)
(0.802412554681 -0.00360347099451 -0.00531545556115)
(0.802534564357 -0.00219826470306 -0.00495328398679)
(0.511273567475 0.13465178961 -0.00646883366784)
(0.473390034843 0.0794434419447 -0.00448791161448)
(0.0860696456173 0.0273376236835 0.0646003491684)
(0.0783272260031 0.0159909767849 0.0547021607388)
(0.497356523372 0.13077560334 -0.00555752715764)
(0.104416300922 0.0121256832958 0.035946123199)
(0.803297313534 -0.00213100092866 -0.000503449047732)
(0.802672404464 -0.00337950113943 -0.00255739670115)
(0.796630412252 0.000861916560823 -0.000116942703977)
(0.796332099309 0.00146367373703 -0.00047010707281)
(0.802645368043 -0.00306826542137 -0.00173572000581)
(0.79659841628 0.00117000428787 -0.00129192778592)
(0.803073725728 -0.00261440346226 -0.0013419979808)
(0.802602145833 -0.00359955073681 -0.00333156098193)
(0.802641714972 -0.00313116273072 -0.00293789145938)
(0.796580786656 0.00128019978063 -0.000986263190065)
(0.796440606371 0.00087280989441 -0.00240390890254)
(0.802544870121 -0.00378101263732 -0.00359399441157)
(0.796640792009 0.00086619402686 -0.00201612086131)
(0.80285157982 -0.00295941663834 -0.00225765705437)
(0.80249893636 -0.00422475094323 -0.0042478457984)
(0.802695979091 -0.00328130396129 -0.00374668864442)
(0.79533938088 0.00131652536552 -0.0025908990011)
(0.795932648052 0.000847054981703 -0.00263927119595)
(0.802510132458 -0.00396168990805 -0.00395159416233)
(0.795138830196 0.000726209107212 -0.0030673338301)
(0.802706937827 -0.00340165181806 -0.00405478890882)
(0.802378634426 -0.00353237963286 -0.00477788416411)
(0.793540436058 0.00071894053352 -0.00287590410369)
(0.793596265322 0.000338601796166 -0.00327894319378)
(0.802557194052 -0.00437045214722 -0.0047138219055)
(0.794455354786 0.00100131170159 -0.00273352458873)
(0.794323793326 0.000562407355521 -0.00315454664038)
(0.802683096892 -0.00352989738224 -0.00461400277155)
(0.80263011766 -0.0027589847443 -0.00521067216044)
(0.793017925841 0.000707193115255 -0.0041252980157)
(0.792755315023 0.000814935859019 -0.00415069086147)
(0.802325782696 -0.00377206659712 -0.00458898262442)
(0.7937435256 0.000909861476847 -0.00416455114191)
(0.80241366174 -0.00282110236081 -0.00492174330994)
(0.79376586249 0.00114063684688 -0.00380415775708)
(0.524840369364 0.0314018801883 -0.00219764711624)
(0.180093930085 0.0589470971247 -0.119755644291)
(0.468341097636 -0.0704465960188 -0.000136263877642)
(0.475839346098 -0.0298790148201 0.000201340367845)
(0.104538616713 0.0758727153843 -0.0443761106907)
(0.0998847005423 0.0309448537269 -0.109198137186)
(0.442999242603 0.056512089457 -0.007048192416)
(0.076913659929 0.0665293246 0.0723306804825)
(0.0430898309526 0.0254290862962 0.0915119059522)
(0.397605200156 0.0425322299433 -0.00670449953282)
(0.094591285688 0.0794533607833 0.0873020051206)
(0.423846721626 0.0577726031199 -0.00656618444278)
(0.0186104683177 0.0244103704605 0.130967055985)
(0.80630163578 0.00261042095125 0.000732227780545)
(0.806967003823 0.0046466752482 -0.000711701026504)
(0.797630271462 -0.00194994838345 -0.000411559733937)
(0.797275459655 -0.00182633982817 0.00169876436754)
(0.807444639981 0.00357672999953 -0.000285471746372)
(0.805699704825 0.0037424309765 0.00131862396484)
(0.797254104498 -0.00199039643403 0.00144403409768)
(0.806504641886 0.00144218353609 0.000198456485885)
(0.807793031729 0.00134725770734 0.000114783960843)
(0.797359118156 -0.00238461309989 0.000193364559349)
(0.796550517954 -0.00248388430836 0.00154947359835)
(0.807742852014 0.00238639497998 -0.000486785317369)
(0.806430008772 -4.70415329176e-05 0.000821502170151)
(0.796902610097 -0.00228984472484 0.00138171960837)
(0.7967632829 0.000225535913787 0.00272234394317)
(0.796786811665 0.000126695922931 0.00270149366425)
(0.804234454379 -0.000923268652972 0.00288033549647)
(0.805324106522 0.000645220153383 0.00174116137786)
(0.796734459731 -0.0019867319179 0.00210815433321)
(0.805365011443 -0.000485995681416 0.0021351162096)
(0.796939051157 -0.00207646022209 0.00219418924589)
(0.802278579427 -0.0035675846609 -0.00530141343156)
(0.792784297898 0.0004218188969 -0.00282808851494)
(0.792681085172 8.64153117748e-06 -0.00333431962935)
(0.802012163866 -0.00418699950171 -0.00574608697984)
(0.791923470357 0.000170828148053 -0.00317445175717)
(0.801612093151 -0.00353804742426 -0.00566578826797)
(0.792079666477 -0.000280087917367 -0.0036520094557)
(0.801969070155 -0.00379990790279 -0.00645992465611)
(0.800684763591 -0.00294001132768 -0.00761775487227)
(0.791306116681 0.000107839375726 -0.00359612590594)
(0.790837373538 -0.000409283621356 -0.0042582666306)
(0.801515107281 -0.00327674874372 -0.00658443182532)
(0.801346046507 -0.00332093438242 -0.00700555227258)
(0.791381271362 -0.000422907436217 -0.00372337984067)
(0.802685149191 -0.00241464926128 -0.00505062484936)
(0.802698187996 -0.00267811840278 -0.0051485161919)
(0.792142616771 0.000280089023643 -0.00400249824285)
(0.791961068157 0.000510549037842 -0.00384023504587)
(0.791626050949 0.000159615630064 -0.00369543663716)
(0.802334797001 -0.00337444751696 -0.0053158631675)
(0.791677070649 -0.000283717659714 -0.00409972408337)
(0.791341228137 -1.93126431724e-05 -0.0034119772777)
(0.79078916044 8.06621809926e-05 -0.00307545583854)
(0.802091137567 -0.00196150532724 -0.00471232214009)
(0.802239413333 -0.00299293160701 -0.00543620501055)
(0.790554079692 -0.000306595018638 -0.00385643842221)
(0.801687177799 -0.00260656313455 -0.00535898801419)
(0.791186633863 -0.000349065327048 -0.00386246907296)
(0.803526289036 -0.00398068071303 -0.00438971072857)
(0.802228961287 -0.00343001974096 -0.00712662725091)
(0.356742196462 0.0296885790442 -0.0085336704051)
(0.0846530921317 0.0301033198199 -0.163054257115)
(0.805208937195 -0.00200534913528 0.000199116171696)
(0.796688086778 6.27697451398e-05 0.00247225705178)
(0.802664508141 -0.00318995981591 -0.00439654688214)
(0.803368471471 -0.0032209366685 -0.0060281996301)
(0.78952275062 0.000419271923973 -0.00500569566736)
(0.789863553481 -0.000153722425825 -0.00309449885176)
(0.787628616971 -0.00044160762949 -0.00550756993748)
(0.80433844784 -0.00307239303686 -0.00571189800256)
(0.806757009171 -0.00307200905634 -0.00449556238705)
(0.786654794893 -0.000845607125181 -0.00651433288907)
(0.78564268726 -5.64784691089e-05 -0.00752241221229)
(0.540744638364 0.080137807698 -0.00254889835574)
(0.328338462844 0.0338175007464 -0.00491944549423)
(0.249652610947 0.0358418550779 -0.00900650870917)
(0.0207230782305 -0.0355609280831 0.144997886051)
(0.135969554142 0.043466820104 0.0860557100914)
(0.13966550798 0.0154507968897 0.0906675119293)
(0.136936707603 0.052338686701 -0.0128474217598)
(0.0664448346721 0.0738134530841 -0.010277050405)
(0.80460110486 -0.00286077409703 0.00239956697449)
(0.803932782212 -0.00186275548843 0.0019784421705)
(0.796652138262 -0.00172950675063 0.00228828708879)
(0.796492226584 -0.000156779530581 0.00129421099168)
(0.805103549173 -0.00168360164735 0.00220847605873)
(0.796540799112 -0.00156349156989 0.00239212879835)
(0.803482008219 -0.00284019015831 0.00103727735191)
(0.800979455181 -0.002659040322 -0.00914177376233)
(0.800808031722 -0.00234861875433 -0.00842161645346)
(0.789045608054 0.000301041797676 -0.00641949221874)
(0.789748314253 -0.000455232981762 -0.00445950507505)
(0.800672868127 -0.00212141755859 -0.0102940018434)
(0.801212170445 -0.00293480064006 -0.00754621388123)
(0.789249374627 -0.000191389160314 -0.00562695610392)
(0.801203938494 -0.00221555137004 -0.00680208167424)
(0.801649077382 -0.00187787891535 -0.00489800342331)
(0.789569196439 -0.000246648627235 -0.00394332872322)
(0.788950671588 4.57898717777e-05 -0.00354645689226)
(0.801457838946 -0.00221201729815 -0.00572901286808)
(0.788757803038 -0.000301647565533 -0.00457384669683)
(0.801164741118 -0.00196615569558 -0.00576050396284)
(0.80196783576 -0.00223907610419 -0.00727554789032)
(0.802377781022 -0.00235918952402 -0.00826311095454)
(0.787472292737 -0.000455757027058 -0.00612278619699)
(0.787715925596 -0.000495927538925 -0.0042830188512)
(0.802571714096 -0.00238429929152 -0.00900495958601)
(0.787737972582 -0.000410069530158 -0.00495123065587)
(0.801734824094 -0.0022145453456 -0.0064051677431)
(0.805992926129 -0.00258793466455 -0.0101950148726)
(0.80372571562 -0.00253960268601 -0.00810828190379)
(0.786733689875 -0.000883963538106 -0.00708820425604)
(0.786299567804 -0.000917624321414 -0.00725532941292)
(0.80377460352 -0.00253651571652 -0.00898407851225)
(0.786349627874 -0.000888720435122 -0.00759368212326)
(0.805874513809 -0.00254452192104 -0.0097473427056)
(0.806795439355 -0.00272152865283 -0.00918527043551)
(0.809323661011 -0.00227716925265 -0.0081127760666)
(0.784932071888 -0.000162802749974 -0.00692863703697)
(0.785845003646 -0.000432737188452 -0.00786787593656)
(0.80907390484 -0.00253557284513 -0.00804874453539)
(0.785590156785 -0.000567759026306 -0.00761959644109)
(0.80697456193 -0.00255280609057 -0.00902114978819)
(0.788450595432 0.00930927788788 -0.00012682521041)
(0.794031216936 0.0108592508166 -0.000716484536903)
(0.798090136026 0.0155314791168 -0.0021003349259)
(0.800496093931 0.0109803721857 -0.00174046599818)
(0.698381259313 0.0630365311166 -0.000547284097823)
(0.43951270081 0.0822225718739 -0.00736595071989)
(0.705658377888 -0.0451903005097 0.00222718195653)
(0.493207821032 -0.0537239349818 -0.0027374488341)
(0.478091590774 -0.152037586755 -0.000506771081099)
(0.118859251279 -0.071173651261 0.0285975703421)
(0.124567573023 -0.0483477160727 0.284435594863)
(0.0921932349509 -0.023930083482 -0.0725814724526)
(0.13020525571 -0.0134032719605 0.140479962589)
(0.0891674651133 0.0598345797036 -0.124900699099)
(0.192487910014 0.0911035768762 0.19084807988)
(0.785103480282 0.000636404961079 0.00125580935614)
(0.786354840589 0.00354048338999 0.000948535954715)
(0.791254143815 0.00171062650177 0.00238456602408)
(0.791905441682 0.00408877034845 -0.000415497996704)
(0.783713239016 0.00634933447471 0.0017290113208)
(0.791038240653 0.0046537158851 -0.00149276977019)
(0.788097044987 0.00656943886775 0.000843906253168)
(0.79118102237 0.00833584932516 0.000842055212561)
(0.79214210492 0.00458374290792 -0.000587307029297)
(0.794244198197 0.00442993735212 0.000318017557704)
(0.787784687935 0.0146991566766 0.00097829692848)
(0.791538572747 0.011095291642 -0.000123929007749)
(0.792594599591 0.0146827178425 -0.000858180573986)
(0.791896368738 0.0057539811606 -0.00171356654023)
(0.790343020582 0.00829292833005 -0.00524123467941)
(0.79385802966 0.00528434121504 -2.19086898246e-05)
(0.793524375188 0.00735900947809 -0.00382676924282)
(0.795662855237 0.0183655165592 0.000479495608447)
(0.800615677429 0.0209463396761 0.00248414775848)
(0.791754355782 0.0104443091437 -0.00617877878346)
(0.795262052772 0.0129882952545 -0.00275834234982)
(0.794838479171 0.00768418354144 -0.00495397802813)
(0.797384052642 0.0100766431536 -0.00264676149704)
(0.7954507296 0.0134218085822 -0.00208358096146)
(0.797195011376 0.0114713324704 -0.00205323602328)
(0.794788495757 0.00490898428028 0.000955961155744)
(0.794427189215 0.0065372010939 -0.00306032166394)
(0.795805319149 0.00417876210854 -0.00244760101911)
(0.801718572132 0.0170252051651 -0.000814739335029)
(0.799300056166 0.012818434887 -0.00169987246212)
(0.802527845406 0.0138553375224 -0.00099684768302)
(0.795817422213 0.00780727504634 -0.00434916895617)
(0.797694876606 0.00821457102308 -0.00220337145582)
(0.796759229174 0.00434565623242 -0.00347546114573)
(0.797100562971 0.00499080408443 -0.00143374638537)
(0.797307671428 0.00420233947168 -0.00316497645075)
(0.797119571668 0.00371242185751 -0.00141937813503)
(0.754682203428 0.125066288481 0.00257752876322)
(0.755282542847 0.132603573463 0.00101571074054)
(0.712161011936 0.133039576782 -0.00111262372453)
(0.277148374972 0.00367905178183 0.0888371849578)
(0.34269505118 0.002310729358 0.24813379515)
(0.302117209891 0.00782602654247 0.226635750507)
(0.327786828362 -0.00955507674711 0.29987724814)
(0.280003117054 0.000151929559125 0.234026719858)
(0.159509361501 0.00407339050845 0.107368002645)
(0.273582798344 -0.0193783114974 0.253562802504)
(0.147988944316 -0.00815457641302 0.140224951964)
(0.748245121544 0.071245903574 0.00143669396021)
(0.731365641614 -0.00610544363316 0.00430525860122)
(0.58550558125 0.075576850045 -0.00597951023251)
(0.70031663101 -0.00986826922507 0.00148934549622)
(0.619411908282 0.00659602201231 -0.00339507649413)
(0.258332174215 0.00109927710546 0.279049508937)
(0.313617752568 -0.0131227251652 0.338800943374)
(0.213507342319 0.0368562659108 0.207392251789)
(0.292715143043 0.0304878554549 0.327959040934)
(0.308218978594 0.0828190862582 -0.00114254713147)
(0.464044612954 0.0159107710144 -0.00362733995573)
(0.350845500606 0.0180253647811 0.000177853842271)
(0.250025484773 -0.0266761928818 0.290141443423)
(0.150489579753 -0.0166515569556 0.178301775596)
(0.245194624709 0.0310292732978 0.310755315538)
(0.151450197667 0.0444378668611 0.204417266665)
(0.640482298758 -0.0468166584104 -0.0025734534711)
(0.641321911754 -0.0753870786911 -0.00199448559013)
(0.178717477865 0.0203368344645 0.0996445837902)
(0.305968763871 0.0312593911471 0.284324244605)
(0.35580248196 0.0451527468104 0.247143092339)
(0.366393187962 -0.0574519989682 0.00148505494175)
(0.491934448038 -0.110354709494 -0.00236215535709)
(0.379579832269 -0.127746324961 0.00161774001337)
(0.26817060917 0.0434206157222 0.303673807708)
(0.205295637431 0.0599457332314 0.220805380581)
(0.347778476259 0.0586869225549 0.281099412338)
(0.321874526694 0.0728156981419 0.216293019797)
(0.78549588113 0.000236936450375 0.0032200105785)
(0.783940928316 -0.000669662926908 0.00317262634495)
(0.791812613211 0.00145114742132 0.00302369599517)
(0.791512803993 0.00247520739771 0.00191403687496)
(0.783918557114 0.000718992415378 0.00246198036856)
(0.792217150646 0.0022970991719 0.00228396512769)
(0.785364944141 -0.000663639371653 0.00405400072146)
(0.785878572806 0.00196235320144 0.00252029482383)
(0.785219196272 0.00452866059662 0.000236976007232)
(0.791585952187 0.00295940761218 0.00100313698108)
(0.792553967836 0.00400726229108 0.000942310255498)
(0.784593425077 0.00260035607458 0.00143464228864)
(0.786657315913 0.00337607272922 0.00169776241633)
(0.79226698848 0.0032035493053 0.00148377094892)
(0.783091884081 0.00483843312094 -0.00147703707743)
(0.784919182316 0.00539986760446 -0.000794318365462)
(0.790660629779 0.0036528251087 -8.00621123701e-05)
(0.790951667087 0.00540168602874 -0.00310072298682)
(0.783631804534 0.00337437472161 0.000562815591134)
(0.784707519926 0.00736864186082 -0.00238157081183)
(0.789574801872 0.0040635257739 -0.00239767337427)
(0.788941947478 0.00625854752053 0.000564556543505)
(0.78653771337 0.00612296483715 -0.000577760128522)
(0.793082464472 0.00423804478492 0.00053294653693)
(0.793249745702 0.00506332674436 -0.000498404080622)
(0.787685748209 0.00510469908247 0.00113597689709)
(0.787915110455 0.00765985775102 -0.000635177838491)
(0.793419860669 0.00449014921536 5.92485141293e-05)
(0.790259794622 0.00758715396763 0.000961256738651)
(0.790799798726 0.00941845624884 0.000300797572907)
(0.793609909096 0.00459891751595 0.000162865748407)
(0.794383297968 0.00402457909456 0.000535604735727)
(0.789524974137 0.00853272180004 1.26074517715e-05)
(0.791522759274 0.00826264875156 0.000986670996655)
(0.794105296822 0.00431426894486 0.000368270508607)
(0.78798025832 0.0109133741038 -0.0033536199185)
(0.786393368935 0.00778478931721 -0.00133935848812)
(0.791561004367 0.00583108509194 -0.00315781822736)
(0.792211448543 0.00587305294079 -0.00102442051299)
(0.786598096557 0.00928465767349 -0.00367461225784)
(0.787959581345 0.00922508470431 -0.000977303563922)
(0.791993486576 0.00632680262489 -0.002820302716)
(0.78928836749 0.0121188978957 -0.00385723344824)
(0.789249597167 0.0134651488119 -0.00509192439018)
(0.790678550912 0.00670443534424 -0.00352922421082)
(0.792726715483 0.00869915726858 -0.00524715087389)
(0.787462641083 0.0109512790293 -0.00315240834824)
(0.791516366627 0.0147429661489 -0.0054658119436)
(0.791804475039 0.00700547007901 -0.00408620464969)
(0.789666145489 0.0117690794699 -0.00289702131767)
(0.790976921452 0.0109058252818 -8.53734298709e-05)
(0.793193531944 0.0054488074072 -0.00048782135637)
(0.793984741365 0.00606485964609 -0.00115816193588)
(0.789532563037 0.0103859810069 -0.000380361171762)
(0.791061429814 0.0124255354926 -0.00209160401201)
(0.792630471242 0.00620409691822 -0.00194223414169)
(0.790905613579 0.0132930174615 -0.00362140771482)
(0.79390616174 0.0150477889683 -0.00481471344994)
(0.793732972821 0.00778913319159 -0.00436692628692)
(0.793393726652 0.0070648632124 -0.00196672822129)
(0.793047375121 0.0148316462144 -0.00551450833407)
(0.792187797466 0.0134652889143 -0.00246591381846)
(0.792916670918 0.0075053000839 -0.00347785427295)
(0.796001163673 0.0178720024034 -0.00330215772387)
(0.791462335887 0.0153314902256 -0.0044889450084)
(0.793508116441 0.0104359572491 -0.00506667034192)
(0.792692916139 0.0104297837731 -0.0039813450705)
(0.794763364504 0.0173910462524 -0.00339905257124)
(0.793340174713 0.0158412654839 -0.00307453054335)
(0.793296854257 0.0108722757794 -0.00454696761057)
(0.798823993768 0.0184642023871 -0.00244933672975)
(0.800795821734 0.0199633073102 0.00148927621177)
(0.794229601697 0.0112438210669 -0.00216212020146)
(0.797666076569 0.0125005912971 -0.0025749166367)
(0.797391317533 0.0186896242736 0.000561648801501)
(0.795041279456 0.0106933264469 -0.00461935945625)
(0.802626259698 0.0200279582474 0.000726814814534)
(0.797510595549 0.0174213267121 -0.00455765829707)
(0.796054295203 0.0155627956044 -0.00491785062199)
(0.793835930076 0.00843644321301 -0.00385097243594)
(0.796334511434 0.00907057695406 -0.00436664619998)
(0.794889199969 0.0158499790924 -0.00383151512356)
(0.798989381198 0.0171304444612 -0.00474298363095)
(0.794167993212 0.00985498841741 -0.00434408272812)
(0.800075104688 0.0188779908117 -0.00368840632942)
(0.803608621322 0.0186284719623 -0.00173455467578)
(0.798539716561 0.0114219151443 -0.00292937807139)
(0.796820408992 0.0103602618202 -0.00244407787205)
(0.801015870936 0.018046640094 -0.00247436333455)
(0.796132925594 0.0117728399825 -0.00470911399872)
(0.803559806889 0.0193598366408 -0.00191500568781)
(0.793552890718 0.0113545872057 -0.00114354962892)
(0.792297779465 0.0110382606636 0.000557119862209)
(0.794532332645 0.00510379549877 -4.48779505344e-05)
(0.795103890979 0.00439832988946 0.0013566949745)
(0.79252940322 0.0119874763111 -0.00141264423746)
(0.793369286659 0.0102614273622 0.000764225483731)
(0.794817082542 0.00472285594452 0.000251967818443)
(0.794585421927 0.0121750794301 -0.00215549008733)
(0.795157937666 0.0143659762884 -0.00459381447684)
(0.794405062798 0.00563657384336 -0.00132285913429)
(0.795741263703 0.00584036896871 -0.00257891432375)
(0.793425004275 0.0131495646546 -0.00210549347039)
(0.796280635626 0.0134644371984 -0.00460284847027)
(0.794970680426 0.00505216829673 -0.00126936856779)
(0.795605894682 0.0113882401177 -0.00144439205164)
(0.79786587668 0.0115442552755 -0.00380960577843)
(0.796131142082 0.00474845170456 -0.00232638140179)
(0.795700363896 0.00411295192038 -0.000909951397283)
(0.797235364452 0.01230168527 -0.00383342220503)
(0.796508977671 0.0104939389412 -0.00181573624122)
(0.795594504521 0.00472439378793 -0.000926148313549)
(0.800189476312 0.0148365113393 -0.00433765318784)
(0.797140859104 0.0154612875209 -0.00492082127342)
(0.797001071955 0.00772311017746 -0.00396247906892)
(0.796012610724 0.00677456483823 -0.00278210565815)
(0.799991466752 0.0161781029693 -0.00497063327578)
(0.797889805037 0.0141921466847 -0.00389314505826)
(0.796348409281 0.00671185875077 -0.00306238497779)
(0.801966616994 0.0150210250914 -0.00408850131004)
(0.803907883206 0.0169819886832 -0.00210249361539)
(0.79732236398 0.00773708730656 -0.00213666089269)
(0.798275595094 0.00662552965938 -0.00238699475125)
(0.801784335985 0.0166351653813 -0.00277790393067)
(0.797319441384 0.00625045424193 -0.00340731473762)
(0.804387761406 0.0153456122087 -0.0023978627268)
(0.800790824909 0.0135587486046 -0.00374813805082)
(0.799218531916 0.012068385929 -0.00411809919681)
(0.796504866251 0.00479747522454 -0.00264859793657)
(0.797509643692 0.00484018729346 -0.00328422886534)
(0.798668201758 0.0129106315667 -0.00332190435818)
(0.801414036593 0.0128525551185 -0.00410838637025)
(0.796659671019 0.00529073525355 -0.0027861690356)
(0.802322433592 0.0142073212401 -0.00338862079162)
(0.80404966967 0.0132304967455 -0.00148102078462)
(0.798196157155 0.00572846606261 -0.00238048944577)
(0.797385343023 0.00523414303579 -0.00177956916755)
(0.802758358842 0.0131858339281 -0.00262975700892)
(0.797526967555 0.00593335785938 -0.00306339181489)
(0.804443240235 0.0141801338145 -0.00207938173731)
(0.802030480439 0.0112534165886 -0.00282510467347)
(0.799976931539 0.0115548845534 -0.00365843664331)
(0.79776346751 0.00422183205397 -0.00307883463909)
(0.797316402516 0.00362289260962 -0.0026482661778)
(0.801908421842 0.0122196307864 -0.00359609373179)
(0.800763640209 0.0107261246435 -0.00344866713522)
(0.797155598298 0.00363169529235 -0.00201067834931)
(0.803960088582 0.0121314535348 -0.00143078587263)
(0.797595520781 0.00382305281157 -0.00183144492108)
(0.802922938423 0.0121998488224 -0.00221572449586)
(0.807876507076 -0.00322418005574 -0.00032437844319)
(0.80604464433 -0.00546650441309 -0.000621430531643)
(0.804312583164 -0.00572412949156 -0.000805597097259)
(0.80368287793 -0.00375764774435 -0.000591592132199)
(0.804054974564 -0.0032513512761 -0.000409559351574)
(0.802684417752 -0.0113744705846 -0.000359721706772)
(0.807263393203 -0.00352458855378 -0.000428010038783)
(0.805620743614 -0.00602858012412 -0.000967115861194)
(0.804102748133 -0.00630576587222 -0.0016939556654)
(0.803889825502 -0.00359971405058 -0.00186740248212)
(0.804299579494 -0.00311653224343 -0.000800404946663)
(0.802809613663 -0.0110812426807 9.41106236622e-05)
(0.819580973586 0.00515572071674 0.00109378140164)
(0.81627169835 0.00266095874499 0.00286798154069)
(0.792168793634 -0.00489311033096 0.0152279477556)
(0.787699444914 -0.00695631334116 0.0145328697433)
(0.788449766293 -0.00631837522465 0.0103536856835)
(0.7903310974 -0.00423927959436 0.0043446973622)
(0.797666523086 -0.00215352660577 0.00125352755713)
(0.790245491118 -0.00417649583159 0.000580210192111)
(0.824962596175 -0.00088052735361 9.08934681191e-05)
(0.821133908688 -0.00636409360711 0.000557827120795)
(0.811778177571 -0.0175432639364 0.00460376865517)
(0.802328409988 -0.0168360395252 0.00381484946385)
(0.799319904031 -0.012498604053 0.00216299428452)
(0.797453044333 -0.00859866275518 0.000694579024463)
(0.800340202619 -0.00500210508971 7.37748510208e-05)
(0.793889712271 -0.0110621613522 -9.15368924491e-05)
(0.817726846513 -0.002224948832 2.13482233237e-05)
(0.815628202824 -0.00740724540871 0.00053214041265)
(0.809578969318 -0.0100349599373 0.000928351010915)
(0.803991614191 -0.00961409169438 0.00099541859572)
(0.801625748216 -0.00842123807969 0.000673622274652)
(0.800373978791 -0.00633017570232 -4.14646374952e-05)
(0.801911484872 -0.00438937602783 -0.000235051693171)
(0.797089795614 -0.0126204477875 -0.000265712222191)
(0.812785028533 0.000544696379219 -0.000281194700261)
(0.811569892266 -0.00477801025982 9.27161325192e-05)
(0.807579650785 -0.00795566146223 0.000224400049681)
(0.804005601956 -0.0083582539527 4.65597424406e-05)
(0.802775970445 -0.00789497547441 -8.41011453044e-05)
(0.80196804586 -0.00636923687752 -0.000406589346294)
(0.80309096923 -0.00456434276006 -0.000387302796371)
(0.799862302133 -0.0139282684881 -0.000345986844252)
(0.803551895834 -0.00559043442525 -0.000749969529364)
(0.80321019241 -0.00480617187196 -0.000776869039052)
(0.80381602945 -0.00379693274795 -0.000523257212535)
(0.801679528787 -0.0127888233155 -0.000435728912546)
(0.643345708211 0.0412334248322 0.01281844172)
(0.64360981208 0.0400185470518 0.0202661749904)
(0.688833424545 0.00184808203504 0.0309337804515)
(0.729987331503 -0.010081159076 0.0194822345255)
(0.76132347714 -0.00897544937223 0.00896512384397)
(0.777999240116 -0.00603022471742 0.00376957959241)
(0.794146929909 -0.0029892465443 0.00144074143068)
(0.787006219593 -0.00528591402915 0.00181572365632)
(0.777020089247 0.00762029540771 0.0077848537495)
(0.777497176202 -0.00287949446841 0.0122153550204)
(0.788895604989 -0.0251984273893 0.0121982103105)
(0.78981654121 -0.0257720200424 0.00848866218466)
(0.793220214221 -0.0190307302835 0.00413316985104)
(0.794021713509 -0.012077387052 0.00133712446949)
(0.799760327588 -0.00606903967434 0.000540025092905)
(0.793255276015 -0.0123029390904 0.00129559892094)
(0.818870548517 -0.000678510959911 -6.69480131653e-05)
(0.815835954377 -0.00971007214401 0.000275658922281)
(0.810231431498 -0.0130406631644 0.000602347445334)
(0.804158137324 -0.0124948645266 0.000269141582064)
(0.801363009783 -0.0104363128171 -0.000189819381309)
(0.799878195859 -0.00750520451467 -0.00107780294702)
(0.801922545053 -0.00491060606052 -0.000493252479483)
(0.796889071989 -0.013089204473 0.000818951919614)
(0.81295076031 -0.000467713744533 -0.000447793451101)
(0.811748199439 -0.00453566000323 -0.000213181889505)
(0.80764121337 -0.00707838295676 -0.000366692846477)
(0.803788329629 -0.00776607710538 -0.000988059221707)
(0.802393939728 -0.00757969746154 -0.00127007764393)
(0.802023756743 -0.00621276386252 -0.00169665980008)
(0.80316705661 -0.00461587583245 -0.000732481753791)
(0.799662413474 -0.0140443441854 0.000611442689545)
(0.8036197884 -0.00600381379041 -0.00184793630992)
(0.803607805038 -0.00498939262 -0.00205410674304)
(0.804154813624 -0.00385770582404 -0.000869228073934)
(0.801879065655 -0.0128425334444 0.000262687577472)
(0.634313647677 -0.0170785565572 0.0229919273551)
(0.633718071151 -0.0199726069186 0.0279906026041)
(0.677858387485 -0.035276237158 0.010980176626)
(0.723047920212 -0.0263132059204 -0.00188956826535)
(0.758949648384 -0.015091067171 -0.00486104481963)
(0.776974211181 -0.00804745376809 -0.00599686899776)
(0.795939634305 -0.00353554630771 -0.00335970872688)
(0.788818938876 -0.00575586939346 -0.0018457948424)
(0.738125657964 0.00054594473235 0.0230580290957)
(0.743120928126 -0.0118037061208 0.0224712173615)
(0.79007092126 -0.0267225811969 0.0014560390447)
(0.788608543288 -0.0261654078995 -0.00100955937243)
(0.791398551541 -0.0201053997944 -0.00263750250463)
(0.793432131769 -0.0124876517992 -0.00530149311482)
(0.80142394015 -0.00647666698515 -0.00305562192856)
(0.794758478676 -0.0134671321005 -0.00152207901442)
(0.819685686065 -0.0015287786791 0.000455309087612)
(0.817065779442 -0.00997874719061 -0.000776413670434)
(0.810391920531 -0.015010889381 -0.002691877655)
(0.803193290914 -0.0140928804988 -0.00421986392564)
(0.800334472298 -0.0119258152437 -0.00464861058556)
(0.800368685672 -0.00847770500704 -0.00564122493789)
(0.80384973855 -0.00581703677991 -0.00292340231468)
(0.799533201712 -0.0147580364182 -0.00106983108151)
(0.809245938735 0.00644113425832 -0.000339209250929)
(0.812923451556 -4.34808730343e-05 -0.000186468714603)
(0.811364134593 -0.0055709551149 -0.00141845427938)