/*--------------------------------*- C++ -*----------------------------------*\
| =========                 |                                                 |
| \\      /  F ield         | OpenFOAM: The Open Source CFD Toolbox           |
|  \\    /   O peration     | Version:  v1906                                 |
|   \\  /    A nd           | Web:      www.OpenFOAM.com                      |
|    \\/     M anipulation  |                                                 |
\*---------------------------------------------------------------------------*/
FoamFile
{
    version     2.0;
    format      ascii;
    class       volScalarField;
    location    "8.35";
    object      alpha.water;
}
// * * * * * * * * * * * * * * * * * * * * * * * * * * * * * * * * * * * * * //

dimensions      [0 0 0 0 0 0 0];


internalField   nonuniform List<scalar> 
28582
(
0.999995983351
0.999997661156
0.999997193569
0.999997627383
1.00000104418
1.00000091329
0.999995673098
0.999993537596
0.0533444131912
0.0575818705252
2.34623823414e-05
0.999995171127
0.857831992485
0.862478160541
0.999993703932
0.999995459273
0.863744271865
0.998488173458
0.998570995531
0.999994085475
0.999996436231
0.99999596623
0.999997583824
0.999997149167
0.999996329217
1.00000090744
0.999999873187
0.999986171899
0.999994312107
0.0576285375227
3.24948565727e-05
-3.13655601097e-24
0.999985934444
0.999989718237
0.861396260318
0.85388164407
0.998299840399
0.999996241748
0.999995295218
0.99999309274
0.998497896497
0.863057032089
0.998566508322
0.998632431729
0.0552993204931
0.0567837695282
0.000263568752526
0.000570520986731
0.0573918971901
0.000822991405899
0.998601004101
0.99867169274
0.85871971696
0.86050463149
0.998690230999
0.861008675157
0.998587169547
0.998622615071
0.998511771796
0.860371168785
0.864639035319
0.998579654402
0.862218562953
0.998534680791
0.998526692417
0.998497387299
0.864955794493
0.866311748357
0.998551019537
0.867133597832
0.998474430681
0.998448580111
0.867182729369
0.868343572148
0.998498321787
0.866001204077
0.867551077273
0.998448677578
0.998590420227
0.86922654647
0.871147896342
0.998609767331
0.871087130337
0.998629082169
0.86857349068
0.0514904706803
0.00104527245112
0.048586148189
0.0513583000861
0.000887946226276
0.000869353952681
0.0567656582834
0.000126799924598
0.000337296521458
0.057115145795
0.000281328843795
0.057779944432
0.00042857767216
0.998035973431
0.998237050793
0.855872292204
0.86216407677
0.99809053664
0.998177384886
0.856321794183
0.997942118635
0.998061163242
0.853350849779
0.854124185354
0.998011666208
0.998002092545
0.854580770981
0.856516868606
0.85550462273
0.998317069137
0.998151900006
0.854496572749
0.998189713409
0.854942123107
0.998477109835
0.866478817705
0.867956335038
0.998540678016
0.865502018556
0.998533809287
0.86693969791
0.998615139841
0.998697614326
0.864305969726
0.863565316163
0.998610176238
0.998710585469
0.86536865898
0.998590480405
0.99858456557
0.869140381969
0.871328992926
0.871650318293
0.998572022423
0.868709452812
0.87071404672
0.868508865961
0.998715483188
0.998620717802
0.864968642152
0.998688490837
0.867124135026
0.999999394837
0.999995735774
0.0584649319322
-3.23735888492e-28
0.999990672689
0.855673443653
0.999994331902
0.999993535578
0.86132897484
0.865352435194
0.853908010028
0.99999030096
0.999989679142
0.851011297213
0.847716617369
0.0544743254169
0.057782397578
0.0591671481939
0.000493176967372
0.000424408919097
0.000499660078117
0.0605187383308
0.0612423969069
0.998196772221
0.998325919343
0.854923004352
0.856769154121
0.998193347794
0.855995192515
0.998312269645
0.998761247552
0.998730490252
0.859353900608
0.861539535089
0.998722518316
0.998771573449
0.859482577233
0.998678406992
0.998714145118
0.862593039543
0.8616788985
0.998699806993
0.860145428671
0.998668909956
0.998595514784
0.998420129593
0.854766989028
0.857967865785
0.998447102931
0.857535819647
0.998575247101
0.997965846281
0.998194709441
0.852237304675
0.848129938488
0.998230545696
0.849784897078
0.997930714106
0.997655587333
0.997387947153
0.849680828392
0.84759281495
0.997400046882
0.849580831389
0.997621027156
1.00000196107
1.00000090361
0.999998262201
0.999998644429
0.0256477687146
0.0276731634513
0.0242316510376
0.0256485840172
0.0255610704883
8.27180612553e-26
1.24219885393e-05
-2.81924559807e-28
1.45200797373e-06
-9.38227216665e-27
1.93194873608e-07
1.00000356569
1.00000451921
0.94959569891
0.949047474961
1.00000332025
0.948540314812
1.0000021208
1.00000222075
0.948541750733
0.947884657058
0.999999345386
1.00000106452
0.999999889188
0.948145315461
0.946555348508
0.947611243887
0.947091070639
0.999999086697
0.99999929207
0.94595366397
0.943783977123
0.946906131303
0.944081840444
0.999999121355
0.999999937382
0.947982908667
0.94756394007
0.948272996773
0.999998570768
0.999999909078
0.999999655322
0.947324872986
0.944529612172
0.947343096283
0.944775981725
0.946824002654
0.944356520444
0.0246827393083
0.0246308718277
0.0260598885105
2.8363259894e-05
1.46917585139e-05
2.73995854466e-05
1.653157024e-05
2.80547832709e-05
0.00016599954315
3.02400608931e-05
0.000137496228812
0.0245256730878
0.0242792457896
0.0266844867384
0.0251452419926
0.0257576615666
2.68376638033e-05
1.5909376359e-05
2.00150378496e-05
8.9883167818e-06
0.028707514374
0.0265336944409
0.0279404591457
2.11939310724e-05
5.41444376795e-05
9.04269493521e-06
4.06148118483e-05
0.0247973326407
0.0239626949686
1.45269546166e-05
6.78714502823e-06
5.87940553955e-06
0.027335755052
0.0253168022014
0.0273148381715
6.15362841609e-06
2.65636132333e-05
5.02318977706e-06
1.62175572726e-05
1.00000204199
0.999982175273
0.950095118526
0.949282555654
0.999997053205
0.94982537815
0.999995015845
0.999993006199
0.999982144973
0.949205910026
0.949390136788
0.999985739058
0.999994258159
0.949838994654
0.999963566922
0.999982441467
0.948774258762
0.947875198687
0.999981756269
0.999977402072
0.948292419438
0.999991746445
0.999984687084
0.948801048077
0.948099142712
0.999990531211
0.999989759186
0.948579082784
0.999986672349
0.999975930654
0.947472157063
0.948291413551
0.999973534144
0.999988519198
0.948088769876
0.999957540128
0.999977273706
0.947524914306
0.947627824887
0.999965063766
0.999977814356
0.947337271438
0.999932475975
0.999886068159
0.947009333405
0.946574955788
0.999941653553
0.999900174934
0.947027240703
0.999932007503
0.999954694242
0.947201582536
0.94736904437
0.999950752473
0.999923345675
0.947070544678
0.999917864277
0.999901362392
0.946803191417
0.947226738668
0.999896735127
0.999902548046
0.946994835504
0.999768194388
0.999805698359
0.945329860266
0.945936370932
0.999755116415
0.999841455473
0.945234031475
0.999726191469
0.999750036278
0.944572919273
0.943224707604
0.999749268866
0.944429297805
0.999717765867
0.999821794603
0.99989947267
0.946397328583
0.946557681684
0.999860943973
0.999890431527
0.945824800534
0.999770710713
0.999816566282
0.943719671744
0.94563289932
0.999862645755
0.944970324761
0.999742769732
0.999933769222
0.999954380301
0.947853116533
0.9488160571
0.999920491508
0.999966114631
0.948661503368
0.999900450304
0.999901333887
0.947697988636
0.948336565483
0.999900517039
0.999886582461
0.948553444711
0.999914478974
0.999930325675
0.948481377683
0.949146715001
0.999916043239
0.999941402586
0.949014757443
0.999897762845
0.999902049712
0.946850200881
0.947809883516
0.999900267252
0.99989634812
0.946955335607
0.999896687069
0.999857210713
0.945996507485
0.94500840437
0.999885774525
0.945958874798
0.999891874595
0.999909379095
0.999912725575
0.947695873419
0.946424857815
0.999915867775
0.999896930447
0.946778613529
0.999898167141
0.999896916793
0.944952915039
0.945614311272
0.999898858438
0.945830486791
0.999896975106
0.999901366694
0.999908186853
0.945950903714
0.946278220985
0.999888229497
0.999922452381
0.945249474795
0.999884305639
0.945169335571
0.999886208677
0.999995515464
0.999998361045
0.99999883131
0.999995495949
0.999989091793
0.999981815909
0.999997606031
0.999997806583
0.999997920968
0.999991554101
0.999987194707
0.999987670797
0.999955856109
0.999983888223
0.999974062855
0.999989530176
0.999999344373
0.999999692346
0.999995752451
0.999957789153
0.99999330281
0.999993375754
0.999978936065
0.999981493096
0.999993873627
0.999996293271
0.99998553258
0.999979001792
0.999992023911
0.999994879907
0.999997370646
0.99999855805
0.999998830238
0.999997222136
0.999987587342
0.999990594545
0.999993098661
0.999996343318
0.999999018867
0.999998908577
0.99999708562
0.99998950381
0.999986980708
0.99999440018
0.9999975269
0.99998985106
0.999986983762
0.999991639502
0.999841176177
0.999985481429
0.999999381788
1.00000333674
1.00000201304
0.999976476755
0.999826355624
0.999817347291
0.999898863425
0.999937231489
0.99999433285
0.999998713892
0.999999989188
0.999999014236
0.999982141997
0.999952186796
0.999981682895
0.999986964462
0.999995704441
0.999998928966
0.999998946088
0.999998242407
0.999994635069
0.999992850869
0.999998434087
0.999998994519
0.999999113078
0.999998824177
0.999998102712
0.999996702633
0.999995757733
0.99999695455
0.999997111213
0.999994436848
0.999993686153
0.999995975749
0.999847856335
0.999996428103
1.0000091412
1.00001614526
1.00001114366
0.999994187559
0.999894288748
0.999900166094
0.999880786399
0.999969228207
1.00000318052
1.0000093598
1.0000134252
1.00001219651
1.00000580019
0.999998667736
0.999996637373
0.999999751722
1.0000020029
1.00000324777
1.00000372191
1.00000344976
1.00000300981
1.00000223777
1.0000000177
1.00000123349
1.00000187368
1.00000180064
1.00000125066
1.00000072692
1.00000066746
1.00000093042
1.00000119437
1.00000211186
1.00000184187
1.00000154681
1.00000159065
1.00000161756
1.00000182761
1.00000201413
1.0000000472
1.00000086434
1.00000207976
0.999958230573
1.00000018304
1.00000466634
1.00000795224
1.00002837291
1.00003224559
1.0000084763
0.99996930836
1.00000084595
0.999996693291
0.999997315443
0.999998729136
0.999998947616
0.99999992069
0.999998891502
0.999986498907
0.999977457861
0.99999929926
0.999998643773
0.99999474147
0.99999580856
0.999999824803
0.999998732819
0.999996648134
0.999995318318
0.999988508384
0.999990005666
0.999998181733
0.999992858957
0.999995974686
0.999998384699
0.999998194677
0.999996614397
0.99999460499
0.999990363436
0.999990124844
0.999991384573
0.999991121434
0.999992649057
0.999992442986
0.99999154907
0.999988331054
0.999989930139
0.99999466777
0.999987595445
0.999992016145
0.0436877915871
0.0509823583979
0.0568657310012
0.056981231759
0.0553857591345
0.0567495437113
0.0602409552016
0.0627130665094
0.0304788919646
0.0370033777848
0.0434363248571
0.0498384113202
0.0546291488566
0.05589220536
0.0548475849766
0.056573816508
0.0607561065684
0.0609620735338
0.030415840731
0.0389485926932
0.0448325215551
0.049779520662
0.0531057155419
0.054412966546
0.0547516341103
0.057323926634
0.0603990453116
0.0585622734488
0.041477803039
0.0471725784114
0.0519133400545
0.0541835917522
0.0550272766211
0.0559613714085
0.0578737636858
0.0588478890706
0.057193907661
0.0544733295725
0.0574785137707
0.0573735454202
0.0571583891954
0.0585265118949
0.0586335368143
0.0575453285284
0.0599142463217
0.0596844762577
0.0583169363162
3.06391099082e-05
8.67103815526e-06
1.92176290764e-05
1.62692278825e-05
1.39674754303e-05
1.12709850974e-06
-7.72178456985e-26
1.33945303438e-07
-6.54068566293e-27
6.64166774356e-05
4.01780284919e-05
3.90926722192e-05
7.52236783478e-05
-4.57489627928e-24
-9.83322121822e-27
1.26622947089e-05
1.16216282561e-05
6.33032890788e-07
4.92336374827e-27
4.05229949153e-05
2.36957149556e-05
1.71500266907e-05
1.06859053225e-05
-2.64697796017e-24
-1.29420177571e-26
-5.38098610301e-44
3.494413736e-05
2.47462259169e-06
-4.86855284822e-28
2.71136375446e-05
1.79743044217e-05
5.24996633704e-06
3.30872245021e-25
-6.62170950979e-29
9.26318237338e-24
5.35239394474e-05
3.82118199579e-07
-5.06972417207e-28
2.66678004829e-05
1.68781380963e-05
2.02173396368e-05
7.14062343615e-05
2.08756940867e-05
1.4000368087e-26
-7.81319378127e-27
4.63069161819e-05
-2.93133266932e-27
-4.26486010298e-26
7.72337795747e-05
0.999959973961
0.999992950065
0.999993194373
0.999878955561
0.999959753314
0.999934142019
0.999966414046
0.999991874549
0.999993650386
0.999993695206
0.999985851455
0.999964569136
0.999976986797
0.999963519595
0.999991902503
0.999994626875
0.999986389562
0.999982626456
0.999983774366
0.999992057721
0.999987116342
0.999993650386
0.999960648665
0.999969291275
0.999988418673
0.999984660637
0.999959265538
0.999977215504
0.999937931092
0.999815930771
0.999926704745
0.999817181618
0.99994210892
0.999784467279
0.999916904431
0.999993657438
0.999973126879
0.999983110227
0.999989977907
0.999998056465
0.999980993408
0.999994413378
0.999888961381
0.99998416814
0.999954950415
0.999807638141
0.999871770514
0.999942169717
0.999931491167
0.99997967031
0.999952934376
0.999978644605
0.999954895723
0.999989010725
0.999961929481
0.999990570596
0.999961052243
0.999851602391
0.999945251073
0.999921415183
0.999991602409
0.999918859894
0.999992377801
1
0.999993640334
1
1.0000001634
1.00000034813
1.0000010554
1.00000447608
0.99991308341
0.999970784558
0.999971179196
0.999958845343
0.99997398125
0.999995981079
0.999997190504
0.999996168555
0.999979995242
0.999995634302
0.999997751006
1.00000114037
1.00000096704
1.00000507148
0.999946355969
0.999979676434
0.890573427779
0.889032997268
0.999994322581
0.999984681601
0.999996547585
0.881905766687
0.850089150714
0.880185010268
0.852388655591
1.00000361
1.00000258213
1.00000535492
0.845206936861
0.845141790257
0.849086717875
0.8518656144
1.00000382703
1.00000248661
1.00000437806
0.849994306486
0.862718319886
0.856233188537
0.866621983011
1.00001816087
1.00001491194
1.00002695276
0.866983840729
0.874037630599
0.869523454475
0.874453581997
1.00003305691
1.00003528336
1.00003888685
0.875676812696
0.87883181469
0.875544084809
0.878074903644
1.00002497475
1.00003567691
1.0000274957
0.878436179782
0.86866100519
0.877075554703
0.866006463392
0.999992424223
1.0000151412
1.00000390624
0.865521004197
0.861211505647
0.861066003745
0.851295531578
0.999936429649
0.999994983389
0.999961711864
0.865155790892
0.835595361567
0.856035992112
0.848963677099
0.999997409857
0.999998009703
0.941834579482
0.927280276611
0.941889139738
0.928236609871
1.00000002772
0.999998835354
0.999996892171
0.918460280647
0.888731093345
0.919533534629
0.885246150353
0.999997213757
0.99999310992
0.999986671249
0.879754167623
0.853634873489
0.874793590254
0.855173417582
1.00000217782
0.999993206274
0.9999955751
0.851970218302
0.854780326639
0.85601542884
0.862221055207
0.99999747826
1.00000037413
1.00000233986
0.85850873897
0.867070948571
0.865087022861
0.873289218777
0.999999833187
1.00000257421
1.00000367459
0.869588110946
0.874617062744
0.874394503718
0.877252258784
1.00000095358
1.00000320278
1.0000034786
0.875630422792
0.877858145408
0.877367806925
0.876111116377
0.999994010388
1
0.999995991349
0.876578241554
0.863239128163
0.872121645835
0.855838904078
0.999981295585
0.999990076401
0.999985440389
0.858184285312
0.849624279752
0.852698567403
0.850813519083
0.999983989578
0.999986198035
0.999994429122
0.855246400838
0.852981624825
0.858434160016
0.856771443798
0.999998848228
0.999999651369
1.00000101305
0.941939843738
0.927429055954
0.94383528484
0.926664991358
0.999995723418
0.999996213409
0.99999323163
0.918330554274
0.883124254663
0.913740556492
0.871739899873
0.999994755151
0.99999381231
0.999992851231
0.872728631077
0.856733682066
0.863118583338
0.857442143813
1.00000039707
1.00000233839
1.00000266854
0.857549429735
0.864304739851
0.859309010202
0.867628517093
1.0000001014
1.00000479132
1.00000489415
0.866726527764
0.874566473979
0.87000721987
0.876104855546
0.999997707856
1.00000272379
1.00000287913
0.875537405744
0.878001500531
0.877135279374
0.878508162597
0.999996691816
1.00000004225
0.999998686097
0.877699403487
0.874373987387
0.877420345621
0.867296287945
0.999992485022
0.999996324608
0.999993577898
0.869811411381
0.855054930279
0.863381435966
0.854866306113
0.999989904148
0.999992457443
0.999991158601
0.853061848415
0.852775508618
0.854721735484
0.856971830215
0.999997840579
0.999995676608
1
0.860567519056
0.857197371953
0.863906897644
0.858536919455
0.94307521513
0.924363378564
0.999991372826
0.999988508999
0.910939860559
0.868802781978
0.86740129993
0.999996276611
0.999989106779
0.999991687267
0.861068787546
0.857034699957
0.86015542064
0.854323515633
0.999999015483
0.999996227956
0.999998969109
0.859056734288
0.866965500855
0.855896584138
0.8618600925
0.999998166108
0.99999987865
1.00000104653
0.86934405167
0.875256994664
0.864316723292
0.870538812183
0.999997336297
0.99999804698
0.999998711171
0.876355714656
0.878272544682
0.872199887161
0.868868334298
0.99999481229
0.99999610611
0.999994788165
0.876211202036
0.86517761299
0.866665484398
0.862488738357
0.999994485392
0.999995937213
0.999995426449
0.862058654823
0.855922351551
0.860997644538
0.856566916405
0.999990585728
0.999994102244
0.999991182206
0.855793596198
0.857609033543
0.856651877385
0.85776307758
0.999996098271
0.999993927859
0.99999943515
0.863940342699
0.858392395722
0.86318089647
0.857173424843
0.999990803203
0.999990720491
0.854995288398
0.860513535649
0.860889859313
0.99998973248
0.999990387955
0.99999245831
0.862823932353
0.869037596432
0.862709375035
0.867703151877
0.999991210584
0.999992851901
0.999993827969
0.86989542603
0.86633850413
0.868892279476
0.865300462909
0.999992250653
0.999994241979
0.99999502541
0.865501923835
0.861560474153
0.862658606711
0.857232567604
0.999990672048
0.999995431392
0.999994246915
0.860250739687
0.85582144753
0.855697528285
0.852515928256
0.999989063875
0.999992689437
0.999992275418
0.856163208944
0.85696517578
0.853450917562
0.85542591353
0.999996103117
0.999997340166
1
0.862121832227
0.857903380097
0.860272155274
0.856111591032
0.999996753263
0.855972414603
0.999990629448
0.854471848008
0.85184919301
0.99998896217
0.8529832091
0.854838080287
0.999999720954
0.85968661037
0.855817377505
0.000450777714795
0.00060996765067
0.000440775484478
0.000660370005192
0.0406155312338
0.0402528652628
0.000481509183937
0.000364669425579
0.000469642497081
0.000416166478687
0.0476050685513
0.043439587174
0.0471055737847
0.000488771547062
0.000733480635998
0.000585514174978
0.000784611379987
0.0552986372887
0.0503962075167
0.0541776501825
0.000868057970281
0.000828516207384
0.00077410170363
0.000622130879677
0.0588876882959
0.0557944692703
0.0577880452731
0.000684515512388
0.00035136650576
0.00035851491003
0.000227933857179
0.0556734820542
0.0563041881335
0.0552798130209
5.1769153144e-05
1.97634201545e-05
0.000145041932125
6.1333583976e-05
0.0556186220381
0.0551141763948
0.0552217424497
9.57162939592e-06
1.74955622728e-05
1.26538605557e-05
1.56477484247e-05
0.0582515287072
0.0566059092371
0.0582754847853
0.000128943940067
0.000454652495184
5.21137906093e-05
0.000403380681936
0.0623690158799
0.0603968775501
0.0626605821788
0.000489051176879
0.000507719103928
0.000506877369519
0.00057155372318
0.063272912265
0.0616876969012
0.0646029755143
0.00069306098589
0.00161247282207
0.000713547911496
0.000909762156821
0.0333065549306
0.030352821005
0.033799733528
0.000306325284648
0.000678293662187
0.000187925676154
0.000601474102374
0.0402948463044
0.0376942397945
0.0410109808095
0.000575055974424
0.000625741769614
0.000597080296412
0.000701440446274
0.0468340638652
0.0440024870917
0.046873596593
0.000949188896888
0.000986872013336
0.000921295790132
0.000893986650965
0.0527955768114
0.0494735610401
0.0517126269048
0.000523828241245
0.00031721520525
0.000449004188331
0.000255603593755
0.0566699123136
0.0536644692039
0.0550774262367
0.000150071188922
7.33725642798e-05
0.000123649390648
5.31589090272e-05
0.0549117370124
0.0551071591468
0.0544986025188
0.000178706860544
0.000203414603526
0.000101252275995
0.000138582889462
0.0550095520927
0.0547243090972
0.0551826661207
0.000104227232146
3.66259807074e-05
0.000243341180211
0.00019841636267
0.0586158149361
0.0569655094826
0.0591402636789
0.000130177266394
0.000441297646167
0.000357018923768
0.000529820200118
0.0625176872757
0.0608980860271
0.0617066321022
0.000558622745542
0.000592627981266
0.000569519525423
0.000562859095493
0.0639919556542
0.0596027491384
0.0627454376076
0.000594549771776
0.000589889260187
0.000435807884422
0.000571135846564
0.034733336702
0.0305243673464
0.0357930364978
0.000141390646719
0.000515026659551
0.000105262258558
0.000416692481924
0.042019001794
0.0403992835724
0.0434216557161
0.000535576848911
0.000645682775927
0.000573983923034
0.000708439434721
0.0471010010253
0.0458524626123
0.047854990051
0.000666140497164
0.000636498486923
0.00068457602799
0.000614661524721
0.0513536859355
0.050551205555
0.0516024844164
0.000429469052568
0.000249800530595
0.00041288244468
0.000268635770046
0.0539219482396
0.05306182499
0.0536728169579
0.000115849017253
4.46567471144e-05
0.000148519988371
6.4397520338e-05
0.0542102430523
0.054230185103
0.0543824528541
3.591210215e-05
3.01067758641e-05
4.96286434405e-05
3.88462404095e-05
0.0554450918603
0.055149081456
0.0560129713826
0.000153241916584
0.00049158210617
0.000224551461974
0.000695827034749
0.0592142205298
0.0575749004833
0.0589675309308
0.000490090604938
0.000594949500777
0.00056793080698
0.0006111068974
0.0606397300174
0.0595831010462
0.0595210749062
0.000560954455266
0.000505834649468
0.000538442651489
0.000423660930408
0.0617260672488
0.0576070232961
0.0607246556357
0.000309728823486
0.000444574509636
0.000280262350402
0.000414100934481
0.0446428576739
0.0453177673676
0.000605546584406
0.000738205774958
0.000722603054897
0.0494345115832
0.0482278016388
0.0508724750667
0.000690308718197
0.000607869273729
0.000690709109041
0.000625090402236
0.0529303800678
0.0537179140541
0.0551755373309
0.000419640030712
0.000282079443813
0.000477456092246
0.000357910986824
0.0547910316751
0.0562134520882
0.0566194325818
0.000171624886541
8.52569639932e-05
0.000244058359229
0.000179981735484
0.0550664592531
0.0564723910327
0.0566142758389
7.88447095454e-05
0.000115233448798
0.000245371200007
0.00029098645351
0.0566881414636
0.0570305184573
0.0571470498718
0.00041584811567
0.000885232678239
0.000706491875941
0.00101402205689
0.0586933936885
0.0581283474882
0.0586772397899
0.000593367669998
0.000576534225171
0.000600978760901
0.000562853035359
0.0585424961628
0.058541637999
0.0581931375785
0.000500918293219
0.000396523367375
0.000493211381004
0.000423119825205
0.0600194991531
0.0571706341106
0.0595666300617
0.000290705508599
0.000379324073177
0.00039056581769
0.000453299866151
0.0561043602523
0.0560829076958
0.000716246196677
0.000613459099429
0.000873533349315
0.000748133848264
0.05754983024
0.0577510417965
0.0574504819035
0.000499501588764
0.000439697180547
0.00071519270878
0.000792119560372
0.0570425335539
0.0565547333672
0.0563095345826
0.000608776460295
0.00076704361547
0.00126169890595
0.00135724021913
0.0578928887232
0.0577512256047
0.0587156225091
0.00109230353862
0.00081402683018
0.00097649566769
0.000704396093076
0.0589955819935
0.0593185054611
0.0597091699516
0.00052994269789
0.000508796863236
0.000531257993971
0.000516831535099
0.0583563863756
0.0590549504634
0.0588209272044
0.000466919750955
0.000418236885652
0.000480162984327
0.000443606204358
0.0591743967593
0.0580447161489
0.058832498686
0.000458426928111
0.000665572497685
0.000530914867526
0.00111194138916
0.0593111244485
0.000508419552976
0.0604544355326
0.000546072064418
0.000557211012735
0.000558124058479
0.000566040961235
0.0597635403385
0.000516862990414
0.000504678900637
0.000532823032123
0.000534504190926
0.058569995253
0.000651534892064
0.00148594554082
0.000734693878598
0.00166166594176
0.999645284363
0.999575502329
0.897040541946
0.890578143409
0.999553905523
0.897743175316
0.99965269812
0.999599284086
0.999433788482
0.889622665815
0.897910499743
0.999506618528
0.999539378234
0.8973505806
0.999263880214
0.999468175741
0.871415726878
0.881549323204
0.999433296975
0.87140025688
0.999269520993
0.999034904128
0.998758401952
0.86033107216
0.85077170386
0.998834750275
0.860826095019
0.998988077753
0.999245821946
0.999325946021
0.880988906042
0.870446018534
0.999413511569
0.999146366125
0.871488213243
0.999010278019
0.998790417286
0.85162559425
0.860931686385
0.998827531932
0.99891306622
0.861538008455
0.998672863772
0.998600888047
0.841922462511
0.845877011391
0.998711294903
0.843224951878
0.998637638509
0.998621247921
0.998395540097
0.842541059367
0.846576691813
0.998454289583
0.843995958027
0.998592109493
0.998703037832
0.998647059917
0.847819762183
0.84807268617
0.998689846035
0.998695321552
0.845713654739
0.998694597053
0.998627184713
0.849059366773
0.849146983016
0.998588652739
0.998695770602
0.846551239398
0.998291986961
0.998223402377
0.855290641601
0.851236174762
0.998299315444
0.856769731516
0.998223860169
0.998324527076
0.998346805066
0.858942519782
0.86412124557
0.998395070115
0.860632509546
0.998259347976
0.998411494618
0.998497958841
0.853521894486
0.861007814792
0.99844194585
0.9984851184
0.858752175131
0.998416222267
0.998520289533
0.864804642081
0.864003340137
0.998449066377
0.998493044162
0.861995750458
0.998794671719
0.998519316383
0.870810950723
0.86803349978
0.998540580772
0.871842468235
0.998814356952
0.998996538611
0.999002273098
0.872760386588
0.874617030687
0.99904531588
0.873824920203
0.998997542804
0.998794719393
0.998589785769
0.868175623039
0.872255616414
0.998566388466
0.998755478706
0.871742535151
0.999004430186
0.999091896091
0.874374871223
0.873611116205
0.999084676747
0.998987453384
0.873535501147
0.999035917457
0.998988863216
0.877686491214
0.875677392655
0.999039813533
0.877653413327
0.998983725041
0.999026848592
0.998945791024
0.878750572857
0.878573068481
0.99900019592
0.87875131689
0.99898524645
0.999138805761
0.999108959068
0.875349109366
0.877339175939
0.999108895858
0.999122274656
0.877183919669
0.999145596296
0.999142953314
0.878363439272
0.878409646253
0.999138131753
0.999152553291
0.878483561209
0.998664215415
0.998797801015
0.877031884897
0.877558016556
0.998885454353
0.875995053321
0.998558303123
0.998459537531
0.998412112435
0.873146998259
0.868291276737
0.998347987084
0.872362827573
0.998430640356
0.998840205337
0.999070051025
0.877744558932
0.875160787371
0.999058902537
0.998854371341
0.87618533757
0.998502360808
0.99817082253
0.867522574608
0.871062117851
0.998238891832
0.998496053046
0.872124276665
0.99839258018
0.998435324246
0.863566291776
0.865010658609
0.998376235542
0.862596109989
0.99847016307
0.998421403829
0.998600186807
0.861811568232
0.858974669108
0.998497622461
0.860250564325
0.998519877367
0.998056591808
0.997873045238
0.863385973211
0.856951899236
0.998053078687
0.99774517231
0.859688381506
0.998077212458
0.997775836553
0.854536356521
0.852795518555
0.998137742026
0.997736916968
0.856101782308
0.998257449211
0.998680626258
0.860461492853
0.863095197571
0.998537414362
0.858671966035
0.998409025778
0.996877980659
0.997117959597
0.829622910278
0.840358509002
0.829410543624
0.997183836735
0.996788784232
0.997588621317
0.997704781003
0.858670869088
0.853348270074
0.99804857768
0.997312441374
0.854727002064
0.996070264316
0.996577265304
0.84611820245
0.827243900607
0.995989552742
0.825905333766
0.996591690962
0.99972896459
0.999747974023
0.938564742901
0.941260501254
0.999758809777
0.938375332692
0.99971762078
0.999735648912
0.99973197116
0.933695499036
0.927968213338
0.999756760746
0.99971681072
0.934021666606
0.999706377919
0.999751593398
0.94149037455
0.938942171764
0.999742593521
0.938829362268
0.999731247982
0.999691749529
0.999664195416
0.928282028339
0.934247974412
0.999651756281
0.999714796351
0.934385006062
0.999513407278
0.999664398359
0.907839015287
0.919238383133
0.999534121641
0.999643489111
0.909303581376
0.99936469968
0.999206152146
0.89762881134
0.887802865198
0.999365964649
0.999155869193
0.89894779724
0.999451557182
0.999592547134
0.919637371012
0.908949986434
0.999575802619
0.999460183501
0.909328135052
0.999290439435
0.9990455885
0.886923934605
0.897060071027
0.999050154149
0.999287787208
0.898567358214
0.998701600028
0.999027390057
0.870071820632
0.877324290195
0.998823335959
0.998930020519
0.868493241451
0.998508418381
0.998496689539
0.861204212601
0.854049185312
0.998601158318
0.9983982422
0.861320004234
0.998564860053
0.998789732036
0.876185564795
0.865375017371
0.998789884905
0.99855838389
0.867073683273
0.998390386779
0.998423213202
0.854731177943
0.85918163147
0.998366248098
0.998387611255
0.860699064288
0.998353421846
0.998355318668
0.851275221289
0.852735862689
0.998411254278
0.998326527747
0.85351168599
0.998442845776
0.99848196186
0.852285436906
0.85756220512
0.998472620057
0.998487207124
0.855201595634
0.998431259654
0.998445222351
0.855247452272
0.857817612715
0.998384267708
0.998484835249
0.856450233382
0.998519612621
0.99863685477
0.860128830299
0.85980416264
0.998594998098
0.998571756949
0.858098719412
0.998455817591
0.998449927728
0.862865633405
0.860728405602
0.998447940102
0.998476708444
0.864992024775
0.998450866156
0.998455293908
0.865100476878
0.869046857091
0.998450755075
0.998466494114
0.867515335573
0.998639384972
0.998656597634
0.862866137279
0.869076482897
0.99861215351
0.998696464496
0.866922180248
0.998661224707
0.998755837058
0.8709515892
0.871673163585
0.998669053637
0.998756410184
0.86947029145
0.998546640789
0.99847921072
0.872169683916
0.870719156581
0.998581411918
0.998485309691
0.872984900837
0.998665895329
0.998886126631
0.873665600091
0.875562721617
0.998774191288
0.998784686207
0.874736095551
0.998649667935
0.998714814936
0.872304004154
0.875645454158
0.99865368205
0.998677635824
0.874175473125
0.998676227975
0.998714742912
0.87615984902
0.876794126736
0.998735136287
0.998690164247
0.875703702269
0.998854387439
0.998911917576
0.877422263643
0.876145111392
0.998925143291
0.998824593435
0.877501264662
0.998854551853
0.998941702832
0.87829123465
0.877924088758
0.998948178454
0.998861164327
0.878189248899
0.99873530099
0.998712257085
0.876316237852
0.877960109404
0.998737534583
0.99871140499
0.877355742812
0.998751487138
0.998793052439
0.877104681749
0.877675822989
0.998776308109
0.998729240157
0.877888878006
0.99864022139
0.998891120022
0.873888827076