/*--------------------------------*- C++ -*----------------------------------*\
| =========                 |                                                 |
| \\      /  F ield         | OpenFOAM: The Open Source CFD Toolbox           |
|  \\    /   O peration     | Version:  v1906                                 |
|   \\  /    A nd           | Web:      www.OpenFOAM.com                      |
|    \\/     M anipulation  |                                                 |
\*---------------------------------------------------------------------------*/
FoamFile
{
    version     2.0;
    format      ascii;
    class       volScalarField;
    location    "1.55";
    object      p_rgh;
}
// * * * * * * * * * * * * * * * * * * * * * * * * * * * * * * * * * * * * * //

dimensions      [1 -1 -2 0 0 0 0];


internalField   nonuniform List<scalar> 
28582
(
19555.9786362
19555.1447151
19555.5836147
19554.6245915
19554.6234521
19553.3342677
19553.8377269
19551.4932726
340.433609112
343.865655788
0.0217579550851
19552.4536792
18760.0248097
18597.1706949
19551.1365699
19552.185937
18697.6297564
19550.0801892
19550.3548838
19556.4417875
19555.0338424
19555.6287609
19556.2059033
19554.5344797
19555.2501517
19555.5715497
19553.066492
19556.2588933
19551.1201235
345.146055902
-0.00359292011217
0.00604191352803
19554.3896216
19554.8940773
18926.7550362
18697.1411626
19554.3998005
19551.3143777
19552.0566312
19551.9306212
19549.5233745
18593.4850119
19549.8165603
19550.0432918
342.314014151
328.422866256
0.000316041082749
0.00979005091627
345.11745223
0.0103995278959
19554.1397453
19552.488897
18703.3085485
18609.1785477
19552.6393051
18634.326442
19552.1782368
19552.6415037
19550.4962283
18557.0766946
18684.8058124
19551.0695994
18736.2125565
19550.8167202
19550.2968166
19551.1372734
18649.5813766
18563.8174212
19550.4111828
18611.1001543
19549.9190227
19549.4554716
18596.8503074
18675.047095
19550.9836134
18548.7380774
18714.640671
19549.208754
19550.9600711
18701.5597658
18661.5548736
19550.9637287
18620.5356902
19550.6254846
18737.6356099
318.870556388
0.585775389459
292.036446178
308.504662742
0.0932685157653
0.354558069433
332.647219244
-0.0067699900135
-0.000571407822426
342.331152477
0.418289554825
346.345414672
0.085451327819
19555.57214
19557.366188
18890.1485817
18773.6428078
19555.0304106
19556.0013477
18766.2399935
19555.1170015
19552.785908
18706.577355
18808.4881856
19553.4085811
19552.8985386
18844.0581259
18674.7926772
18681.7932411
19553.7783283
19555.2063976
18799.8521646
19553.2577866
18838.9234108
19550.1513221
18694.6631236
18577.3422106
19550.0605894
18659.9650278
19549.5492857
18614.1210423
19550.9093624
19549.471564
18563.8633771
18674.0701956
19549.0318216
19550.0834332
18707.1780865
19550.7630596
19551.5406117
18597.1875423
18759.6604632
18723.5250895
19550.4191912
18628.0958152
18587.7814595
18598.055958
19550.4269896
19551.0470777
18688.7790428
19550.2377175
18717.5336808
19553.9773891
19551.6582119
357.881884124
0.0303837208914
19553.1961782
18757.9171851
19552.0717343
19552.8833016
18670.7211198
18676.4510878
18549.059213
19554.533819
19557.0320933
18596.9423309
18594.0117733
335.316796237
359.331853333
381.643301532
0.241495258364
0.8737694686
0.684425360065
411.181868802
445.941552142
19551.2626512
19553.5505797
18611.4534499
18702.1907088
19551.9933695
18616.6329603
19551.8336921
19550.0269496
19550.162989
18634.2774446
18558.6599324
19550.0829157
19549.5948662
18576.2930075
19550.0634751
19551.0907973
18556.6072189
18627.0008448
19549.7320824
18572.4247638
19550.3148608
19551.0451757
19551.1994255
18588.9353284
18508.3075841
19551.2266685
18642.7315165
19550.3551859
19553.7816886
19552.95782
18520.3551697
18540.2938437
19552.0187142
18579.2233758
19553.6296082
19555.9437428
19557.7473666
18560.1295839
18527.0145559
19557.3975891
18605.9277298
19555.2505292
19580.5312885
19576.1562591
19570.4299032
19569.0582542
180.221569526
173.76758551
195.291697199
202.419121614
243.684004226
9.74384532363e-05
0.0374746061781
-0.00150067428614
0.0134786725765
0.0113201496253
0.0178497173433
19583.3804984
19582.3265522
19398.9100928
19375.9689981
19583.0587573
19398.227636
19580.8311588
19579.1592326
19380.3468528
19351.0027934
19579.0108202
19577.9685287
19575.7273835
19405.8554003
19437.3113326
19364.2035669
19318.159894
19572.1335984
19567.2943931
19419.2430646
19324.1192363
19293.4291373
19205.8983798
19573.7918348
19572.5425966
19375.2592783
19302.8053446
19216.8190163
19566.1454489
19569.4665053
19565.5651252
19290.4392424
19160.1148843
19236.5991606
19048.3169138
19232.0821889
19012.0058223
201.883111024
203.789289642
187.961739656
0.13000445091
0.138135470377
0.0872907362895
0.110105053336
0.13428616506
0.0791024313691
0.109021966371
0.037411602769
199.415957598
202.48317091
169.444123045
188.283150836
179.314568486
0.0984778888394
0.109849234096
0.114781996124
0.069737395864
194.819273109
188.158868055
211.951207503
0.0753997481955
-0.00423780757935
0.0400812003911
0.0579805018728
192.030092719
211.891784318
0.0507123415494
0.131116453341
0.421310197091
229.636082316
227.4551995
253.271420095
0.210416727397
0.389991697565
0.655507857964
0.732185124456
19582.6445364
19582.7303898
19385.6297309
19407.7800494
19582.6953653
19415.2216325
19582.462951
19582.2562377
19581.4288579
19403.8620962
19360.7451848
19582.2475796
19581.4623839
19412.1986778
19582.539049
19581.6622975
19408.0986756
19412.5645224
19582.3959276
19581.5991401
19424.4882794
19580.9029386
19580.7922136
19357.6647904
19398.2171654
19580.876514
19580.3579924
19402.255509
19580.3588676
19578.748637
19373.0342219
19335.0417838
19579.517771
19579.2662781
19398.6927809
19578.8397752
19580.6248099
19413.0553096
19387.1575977
19579.9989001
19579.6642304
19400.0051637
19578.2189747
19578.7736404
19421.3501603
19371.8789499
19579.519722
19577.3298518
19393.2351591
19577.6815031
19578.1583296
19343.5804433
19333.2840014
19578.6211497
19576.8642096
19365.4980293
19576.8333252
19574.0519621
19324.5968762
19292.0304216
19575.7589244
19575.232012
19357.0821982
19573.2673118
19577.7087318
19350.5956132
19338.7790399
19575.050225
19575.2124557
19366.7663053
19570.8014722
19568.6987314
19227.7391905
19098.089602
19571.3191864
19299.544597
19566.3765482
19571.4948649
19572.9236599
19277.063437
19192.4766299
19573.5182753
19570.2542611
19322.1977606
19568.9033125
19565.5555535
19057.1255258
19071.6053095
19566.8838571
19255.1396185
19564.7358651
19575.5051215
19577.5125632
19325.6766221
19296.2495363
19575.9997844
19576.3396883
19320.9125551
19574.6045592
19573.0298126
19263.7062984
19260.1772005
19574.229936
19572.5105432
19338.5590861
19574.183342
19571.8278992
19242.0175272
19183.7310921
19572.0273006
19572.6451089
19327.339653
19568.5578057
19571.6942028
19161.3020925
19145.6915082
19568.5513366
19569.4153377
19217.2786638
19566.8492966
19564.7592073
19016.7671247
18964.2893673
19565.4146631
19188.31676
19562.3623607
19567.9608903
19570.6732683
19106.6655039
19098.5379151
19569.0416419
19567.1310131
19175.3293824
19566.3676454
19563.8982596
18950.1046584
18911.2641374
19563.7381006
19170.3259608
19562.2707102
19568.2044887
19570.4077488
19093.0809411
19043.0768712
19567.1740549
19568.4823205
19101.0050819
19563.9516732
18893.4241359
19563.9773988
19554.8793311
19554.2239873
19554.2499789
19556.8553984
19558.214672
19559.0171192
19554.4764606
19553.6944873
19553.6624054
19556.7375071
19558.450103
19559.2509497
19546.086032
19548.8135004
19550.1260579
19551.2742084
19552.5125746
19554.1029924
19555.7960606
19556.6274363
19548.2959891
19549.8216997
19551.0686222
19551.7777377
19552.8493912
19554.4030415
19556.0614037
19556.8594877
19551.7818626
19551.6708404
19552.0453903
19552.5278589
19553.4696094
19554.9445605
19556.5373638
19557.3000861
19554.569436
19553.46068
19553.216905
19553.4099229
19554.1872374
19555.5645778
19557.0717201
19557.8678748
19554.9356344
19556.2167472
19557.6435207
19558.4301441
19542.9490846
19547.6633548
19548.8558297
19550.3874331
19551.9176439
19553.8034918
19555.8286165
19556.7091467
19546.3621232
19548.8000285
19550.4789871
19551.1317492
19552.3085315
19554.1426897
19556.1521845
19556.9669638
19551.0463536
19551.133788
19551.3539772
19551.8390575
19552.9399359
19554.7050847
19556.6886725
19557.5103206
19554.2029424
19553.0211267
19552.6573923
19552.7793523
19553.6945987
19555.3635616
19557.2620569
19558.1464683
19554.4769439
19556.0649384
19557.8720172
19558.683095
19540.4735461
19546.083598
19547.5656595
19548.671171
19550.3636518
19553.0082133
19556.0919277
19556.8322303
19544.6580163
19547.397136
19548.6688943
19549.2080271
19550.7753557
19553.4400309
19556.5118279
19557.2051063
19549.4193295
19549.8380606
19549.9568078
19550.2250698
19551.5602823
19554.088553
19557.1642327
19558.1394808
19556.9155531
19553.3655321
19551.9685168
19551.2609707
19551.1895893
19552.3777475
19554.8190732
19557.8644436
19559.0141915
19553.3863432
19552.2606994
19552.1142307
19553.2421566
19555.5899326
19558.4613446
19559.4240932
19556.2207663
19559.0164788
19559.84573
19539.7983112
19544.375507
19546.0798306
19546.64879
19547.51272
19550.3733483
19555.6787327
19558.4452655
19542.8362463
19543.3572679
19545.6697035
19546.8722122
19546.7530122
19547.7322219
19551.1227447
19556.2686792
19558.4821935
19561.0378354
19551.2955957
19547.7146866
19548.4358582
19548.4514184
19547.8926243
19548.7281266
19551.8666039
19556.9949033
19559.7047076
19556.7811035
19552.6113874
19551.092015
19549.9333712
19548.9431153
19549.607629
19552.6599104
19557.7798381
19560.8362158
19552.8899634
19550.6257912
19549.8710429
19550.6602786
19553.7072576
19558.6199766
19561.2459462
19554.3817075
19559.2161317
19561.1559423
402.958838254
385.566115388
399.623459999
424.255760626
436.384364268
449.257254058
504.270159013
617.684592924
237.467045742
337.388370067
392.711835848
394.314546401
404.458313698
426.051615128
428.070913855
426.408868554
483.344367826
612.713121361
268.957564518
327.496184268
358.701364128
354.639411019
370.357373644
392.622877022
402.395055033
422.252731284
475.796032445
583.277968038
284.854628489
311.963139067
331.248567086
353.191401125
374.513263045
388.131700267
417.861005512
479.262329878
574.473421889
323.710158478
344.103550517
364.296917715
373.948165697
401.843048861
466.901327508
577.306426769
396.861478373
478.798806259
600.570365423
0.0716003819952
-0.102913847578
-0.115687859236
-0.0544841387232
-0.0696420479439
-0.0594134954288
-0.00772594918333
-0.016212631198
0.0319553176676
0.239940206301
0.00426490107595
-0.0951847870848
-0.0914435133671
-0.0403587451605
-0.0261433407342
-0.00336206359575
0.0303620748117
0.0294800810928
0.0595390302703
0.222771896767
0.0118761040419
-0.0602519110857
-0.0342276840034
-0.0127556095454
-0.0012121807878
0.0208624534957
0.0402543029581
0.0233940757652
0.0430382297212
0.151591298535
-0.00113119020905
-0.00246522523779
0.0133516661669
0.0106817845403
0.0300251851808
0.044290053016
0.0234672160082
0.0277736238945
0.132827478122
0.00976116403037
0.0116306537805
0.0100612265202
0.0394040804261
0.0331097178319
0.0598063064377
0.154115999591
-0.00663237665309
0.0465746208405
0.21690558078
19548.0589054
19546.8511154
19548.6150433
19545.2598593
19547.5891127
19545.9652868
19547.9628482
19549.17686
19549.1535421
19549.584776
19548.4776232
19548.956278
19548.7965395
19549.3529891
19549.3922301
19549.7739559
19550.2887102
19547.7005543
19548.8998927
19549.5203213
19550.1146228
19550.0197052
19550.6215306
19550.9598592
19549.4651762
19549.7618958
19550.376772
19550.7151267
19546.1166778
19543.8792102
19546.7190037
19541.7727892
19545.0901577
19542.4848012
19545.8359427
19548.3666482
19548.0769005
19548.8834886
19546.9776317
19547.7647686
19547.4135159
19548.2027489
19547.8023771
19548.7734979
19549.418021
19545.4052251
19547.3312985
19548.1091769
19548.6322013
19549.3180247
19549.8203844
19550.3412351
19548.3290983
19548.7850398
19549.2026885
19549.6988718
19544.029712
19541.7639745
19544.8731172
19540.1721667
19543.5746771
19541.8093282
19544.5068503
19546.8433897
19546.5147597
19547.3040469
19545.6897995
19546.7135744
19546.2863419
19547.1586103
19546.4756456
19547.0773032
19547.7999382
19544.2862565
19545.8498182
19546.606878
19547.4969235
19547.7572486
19548.4512123
19548.8757219
19546.8077641
19547.3834049
19547.8271114
19548.3302983
19536.4110419
19538.9695915
18374.0423139
18392.5415349
19542.4789452
19541.3586337
19543.262623
18426.5421242
18415.2570022
18493.0180616
18396.1003996
19545.5383292
19544.6913067
19545.6686158
18482.7103609
18516.1395071
18474.8982362
18477.1482429
19546.3300036
19546.1422084
19546.3177694
18516.7327415
18440.2380355
18492.4123982
18437.3295845
19546.9790712
19546.4677118
19546.7447433
18503.0470032
18404.3392654
18460.499265
18406.6849972
19548.6257072
19547.4932968
19548.753911
18466.6081579
18410.9607166
18465.3804729
18445.9371533
19553.0377483
19550.6717794
19553.3186871
18453.8751092
18475.316156
18506.0190258
18522.8247729
19557.7656611
19555.9006729
19557.7625747
18490.681188
18539.4954212
18545.6659393
18502.1640524
19556.6356615
19558.1856821
19556.3034416
18533.7685819
17853.2720513
18498.4631033
17846.2092515
19561.0860185
19553.3639839
19220.1463591
18729.7906157
19133.2455323
18755.9531968
19542.0254104
19547.4748897
19545.2480495
18760.3547752
18404.9266003
18816.483837
18452.8417615
19544.9589412
19545.7160581
19546.5126541
18515.4351079
18405.9321324
18608.4678009
18499.3094076
19546.4238411
19547.1621672
19547.4614139
18491.6665302
18467.5918807
18603.2502231
18521.7445878
19546.7854867
19547.7821785
19547.4965187
18496.4592233
18431.6951498
18592.7211048
18470.0692026
19547.0347585
19547.3267374
19547.4609356
18463.4882337
18407.6317765
18547.7817523
18440.6196139
19549.1552399
19548.1852496
19549.5242181
18464.7271928
18448.6766521
18525.7570836
18480.2211633
19553.7636108
19551.5012638
19554.0943862
18512.1467426
18535.4163542
18534.6110855
18558.0190516
19558.1142016
19556.5975267
19558.4845915
18559.084897
18508.3087973
18580.5650933
18573.7375614
19556.5662246
19558.919785
19557.1197888
18502.9889524
17864.0360611
18565.0620061
17915.7926017
19555.7766645
19561.4310799
19557.4595045
19112.6352402
18742.8693234
19072.1586093
18776.4416053
19548.6782046
19554.2318021
19551.5209088
18834.1060286
18463.2090042
18904.2366311
18596.4371066
19548.2536419
19550.1256922
19549.873748
18630.6238292
18527.4898992
18743.8887494
18610.3665429
19548.6118558
19549.7248376
19549.6513306
18628.0928425
18531.0069341
18705.0045142
18601.0752516
19548.2620971
19549.2321499
19548.8387361
18605.0918432
18475.3385074
18668.9140873
18527.6403668
19548.012399
19548.5050774
19548.5721652
18555.7516223
18441.5360728
18604.8805789
18486.3927195
19549.9604803
19549.1111184
19550.336621
18529.1956156
18476.1435376
18564.6287921
18496.9980595
19554.4749339
19552.2513791
19554.8206541
18533.9260445
18556.1660766
18548.8675475
18558.125645
19558.9914954
19557.390654
19559.3899805
18578.1328533
18587.0485096
18578.3687316
18605.1568655
19558.188311
19560.2855796
19559.2275725
18582.2552498
17947.7351911
18599.4971654
18047.0658393
19074.6185387
18818.9236529
19554.2756099
19556.6561565
18955.5773311
18652.1394538
18816.1470808
19551.7035029
19554.6590968
19553.2567894
18781.4854578
18630.9711396
18905.0023744
18696.0709542
19550.585122
19552.1792428
19551.1225999
18722.1482663
18607.142515
18778.8624755
18604.074883
19549.3292419
19550.4713919
19549.7991566
18677.1130594
18527.2656804
18696.0727225
18536.2562539
19549.0354308
19549.3735348
19549.5136381
18608.2429557
18487.5294477
18626.8134319
18516.2673773
19550.789494
19550.0708245
19551.3004874
18567.4184802
18497.9036614
18597.7687008
18538.5020521
19555.2334502
19553.1938444
19555.7353413
18550.9428201
18560.2933504
18587.6054632
18593.9596931
19559.8693503
19558.2403719
19560.2457903
18579.7025584
18605.7822524
18609.6471976
18627.9017734
19559.965713
19561.1206433
19560.1965649
18601.5682346
18064.6456446
18621.9188522
18062.6275227
19551.6133034
19551.7644108
18778.0781033
18595.0428451
18582.1652942
19550.0412119
19550.9470446
19550.5776258
18695.0538374
18539.2008213
18687.3097045
18576.941121
19550.0963462
19550.3563706
19550.5967156
18633.4362241
18521.2366081
18674.1578375
18581.4737355
19551.868171
19551.1531267
19552.2975825
18607.2677995
18550.4662321
18657.2373149
18588.5636603
19556.2136131
19554.1196068
19556.5379549
18600.3325218
18606.4274558
18638.0919328
18616.9580331
19560.5935572
19558.9402309
19560.7208373
18622.7767018
18628.9905079
18643.8743527
18597.3546171
19560.0342736
19561.1189922
19559.6662421
18622.9122003
18046.9788663
18593.6205808
17976.9061291
19552.7035095
18583.6435349
19556.803458
18641.371259
18613.1055556
19560.944401
18643.669278
18577.9980723
19559.5887271
18574.7311121
17968.5499436
0.0267807309743
0.0972892420307
0.0169141793157
0.0119167285438
379.329505193
377.100789805
0.0822838538908
0.205564042611
0.0911316287289
0.180658228234
403.798346656
399.608457435
405.328159056
0.226714437335
0.0843815839459
0.4886508289
0.53092760622
386.224706681
398.710985598
395.731588889
0.0346320338707
0.0510086561533
0.243669791358
0.172387511568
418.331242998
407.235207611
422.276368365
0.058309260602
0.193925720331
0.235915840458
0.155977728832
433.137237556
435.076090318
436.049685622
0.396351128912
0.456533161878
0.167965789609
0.0326379214584
439.481801735
435.106161082
431.889638234
0.376663406161
0.340235956544
0.067435355382
0.0953381848764
467.676696643
436.295464989
455.562365494
0.225403237559
0.441489769111
0.280698197044
0.586054497303
550.77817414
493.637663553
551.894533515
0.956443085487
2.64839911663
1.52265888683
3.33696464552
692.957551513
621.087730405
686.486775353
5.07322850088
8.47000090448
5.40685131214
8.34795609953
288.919300486
253.330678455
298.072823732
0.0330565694038
0.0413451671298
0.257484346042
0.206500373903
372.100810329
334.211619666
364.869026446
0.0689249480508
0.138903302287
0.120379898208
0.0367081569635
395.52757466
376.429369996
377.927566853
0.273275385884
0.532809815339
0.0671682581401
0.0154437677769
393.310663089
375.719468669
376.324131844
0.396920598222
0.282687203528
0.200351248265
0.129123677989
413.944381311
385.050154542
397.632272761
0.241482710115
0.237105514303
0.27643890669
0.131569137507
426.476866326
406.201800433
410.582816403
0.0339530310193
0.034195762255
0.171182539454
-0.0180020976992
422.354712762
412.707484304
412.53496744
-0.0446117502984
0.0306278090244
0.00704598128691
-0.0487973049765
443.114389972
422.47932271
441.391817629
0.0480301865753
0.570664640743
0.0356672404121
0.275093911598
542.287222541
475.796875467
526.299327023
1.53450569789
3.33994107243
1.21079985054
2.80649109179
674.145745858
595.985821562
660.953323538
5.23884548053
7.88502392291
4.73672544298
7.42764286042
300.759607186
281.101465117
294.836938431
0.506271512547
0.432195047132
0.659006680851
0.310519558455
347.241448529
311.87777551
326.886801677
0.0869190866096
0.0267563572216
0.11791294434
0.0296944605424
356.436095482
337.008932003
337.457226125
0.00312486020612
0.0120281745402
0.023768224904
0.0203111997439
359.847779729
342.039298276
347.390875638
0.0167858653612
0.0518719822399
0.027537375666
0.0232278580755
381.806011
361.307442414
371.684507029
0.0354053032728
0.185844058936
0.0242683440091
0.000534321482268
397.178932304
383.240015583
387.214428681
0.0668855458644
0.0921939745018
0.078466363688
-0.0223784262836
408.951243659
395.85273532
404.078702912
-0.0296403528714
0.0146221455446
0.000417118905775
-0.0502731394416
443.313947799
421.802504694
444.920355682
0.00602339633755
0.295971060961
0.0597989897237
0.207344446394
519.97684856
479.753003925
517.882156203
0.781421595452
2.36840992867
0.852040710133
2.00175418592
649.785738781
576.892700521
638.314378385
4.09462220106
6.79929349637
3.77225800272
6.3751053806
295.416765735
278.919775287
0.0311483724139
0.0416777333987
0.0239266147077
320.917005886
294.863247582
310.303244896
0.0184741071374
0.0226033642305
0.00758207035496
0.0952737864042
339.600247284
323.798817921
334.33212512
0.0124872665049
0.0221783399969
0.169644380836
0.0653211336467
365.15983424
348.562115619
358.567506947
0.00806759970493
0.0226533163345
0.0157095537734
0.00465929697036
379.205218595
370.020062779
372.760697901
0.018340037577
0.0633204801282
0.0204530967561
9.57542600692e-05
398.782389135
381.210837036
391.330491956
-0.0337521482514
-0.017567193527
0.0122425643806
-0.045608714674
443.873460846
410.80852017
437.958621095
-0.0407436772267
0.239038398549
-0.00136055786509
0.116290042437
518.903013073
474.108807126
515.579756929
0.634719320026
2.02391131804
0.795470483804
1.9575181711
634.319649145
572.811399957
634.194862422
3.62226526347
6.22854432241
3.66595990347
6.21549676392
336.314094012
344.140748714
0.263482364572
0.11623870828
0.469625391219
0.0407576906236
354.616122911
351.209180707
351.663582624
0.0169747582448
0.0199207199146
0.00821281347569
0.0108901171217
368.446295642
357.52900191
358.019410098
-0.00555132771453
-0.0112121903511
0.00103451490168
-0.0142516524875
382.555169154
363.991906667
373.746460757
-0.0303821496113
-0.00330266864615
-0.0254778399616
0.00800097749279
428.157247034
394.98429546
425.005252407
0.000873714334697
0.346063475126
0.235199569286
0.581476839718
513.408987448
467.227470461
521.615882937
0.827320084032
2.29350941689
1.45293678429
2.77832968618
639.601919909
586.003222106
645.096905156
3.83150792416
6.43547174345
4.26924005695
6.69439787663
374.463383056
0.448487970484
433.833342901
0.367134259932
0.89581095758
0.420582086436
0.589003578223
539.375879999
1.6953835309
3.34239123905
1.57988517525
3.36268819886
653.077616625
4.83018955545
7.29840195933
5.19750275022
7.82618707933
19536.6636225
19536.7791053
18190.0690451
18348.2632858
19535.6381837
18501.7172743
19533.2498881
19537.2030714
19538.9084816
18376.8829627
18216.8338922
19536.7023868
19537.4875462
18528.2781797
19537.2177516
19538.7419805
18345.7209863
18273.225596
19534.7093302
18378.7797466
19538.6230609
19539.1755351
19540.9722571
18322.4906145
18403.4225661
19539.3951474
18438.7096947
19539.4885392
19538.6480864
19540.6045777
18282.8440914
18395.1537009
19536.5505018
19540.5626491
18380.0178065
19540.3403834
19541.5766771
18393.2054391
18318.657426
19540.4446362
19540.8189162
18445.1180784
19542.1654864
19542.7901464
18469.1313092
18396.0196011
19540.1052462
18478.1803717
19543.0899253
19543.6053008
19544.5787021
18453.0666514
18449.5667567
19543.3972725
18496.5384726
19543.6484496
19542.3332212
19542.941398
18371.4319852
18441.4920325
19540.7699492
19543.1523735
18450.5254877
19543.6737993
19544.0594331
18447.6328198
18403.5178039
19543.5389345
19543.2846905
18490.8633347
19544.7714647
19545.0896822
18441.3154955
18405.2735508
19543.7840676
18476.6225807
19544.4322461
19545.3831408
19544.8054916
18374.8650467
18413.3711858
19543.7950043
18497.1551163
19544.5890416
19544.597362
19544.9040456
18399.2435828
18416.4796585
19544.0239003
19543.9569053
18468.5794297
19545.2031365
19544.8168916
18397.2662769
18366.570647
19544.9419292
19543.9033165
18479.993613
19544.3549918
19545.5835412
18436.5059247
18336.6049722
19543.5119059
18403.2550815
19545.0411922
19545.2698155
19544.9340431
18349.8439193
18394.6413317
19544.1828328
18463.7657592
19544.3997032
19544.8987525
19545.3437231
18334.3829159
18382.4039953
19544.6041051
19544.2535415
18404.1627223
19545.1336476
19545.0371371
18386.5580652
18331.4467126
19544.1906248
19544.0130879
18453.3352449
19545.2879308
19546.0022496
18401.1676737
18330.4614552
19544.0359629
18402.2306254
19545.4181621
19546.5034794
19546.5735644
18340.6800633
18401.667438
19546.2012233
18459.5687199
19545.4707492
19545.3626309
19546.1328336
18330.6537725
18410.4895685
19544.158426
19545.5523535
18405.4960831
19546.5796216
19547.2547004
18414.4905757
18367.5529372
19546.3690913
19545.7491858
18469.3348187
19549.2002024
19548.0680562
18403.5332443
18367.2014839
19546.9977113
18450.6455344
19548.6872335
19551.3847455
19552.6236053
18398.8884806
18452.3693608
19553.4361349
18488.7806192
19550.1077115
19549.3074383
19549.0002734
18377.4557729
18463.8296558
19547.1108609
19549.6942989
18456.3579985
19551.6395287
19553.8639685
18470.2499799
18451.8737212
19552.9207002
19551.3993093
18504.4671802
19557.9061434
19555.0620484
18474.8444885
18460.3127308
19555.5762993
18528.1281302
19557.0622743
19559.2330829
19560.6559279
18486.317619
18507.5093523
19559.6955606
18535.5700046
19558.8746757
19557.5528245
19556.1301886
18469.4055046
18521.4418091
19555.0286405
19558.167375
18533.2460285
19559.1456338
19560.2328602
18503.2086608
18482.8866901
19559.4235282
19559.2884392
18544.679851
19556.6416483
19560.5091573
18425.9981995
18411.5483638
19558.5737088
18368.2327223
19557.4569564
19552.4034604
19550.4159873
18186.2907313
17879.9180027
18273.7123383
19550.9473431
19551.4773709
19556.0786916
19559.5319247
18386.0389402
18389.8862852
19558.0103031
19556.441231
18341.4580862
19552.1695528
19550.18661
17877.095296
18153.646596
19550.6378677
18256.1897177
19551.0626797
19556.8913208
19564.2691421
18820.6114131
18863.6225326
19554.8129945
19072.6211892
19560.341744
19552.3886018
19545.4166742
18465.4281036
18581.3840247
19546.1920521
19546.1976073
19007.9529406
19557.3702105
19562.5874394
18832.5472603
18797.5657185
19555.9686965
19044.1591429
19559.4096182
19552.7987309
19551.0171515
18614.0803041
18519.2033252
19547.2788816
19550.0007356
19003.5018505
19541.6138557
19544.1566491
18444.2496227
18293.3157507
19540.5220983
19540.1952977
18510.3920411
19542.3581831
19539.4519635
18250.486358
18451.3328914
19538.2518726
19541.086808
18617.789264
19542.6231131
19550.13535
18330.0631372
18557.7362224
19541.5572663
19545.3359904
18521.5223531
19544.0406826
19544.2109891
18487.9104932
18327.6060073
19542.407902
19543.6256404
18644.7072373
19541.8892545
19541.6576036
18420.4347806
18306.6395716
19541.3608549
19540.7488865
18403.180206
19543.5470893
19541.8148659
18334.9755466
18480.4962231
19541.1892215
19543.2272435
18525.9306378
19543.0795279
19545.4795186
18341.8838534
18547.2267064
19541.8390591
19545.1631615
18430.3614255
19544.6615692
19545.5673698
18518.2366231
18445.0318765
19544.2291624
19544.9069696
18559.6726438
19543.8052777
19543.2200869
18452.3102978
18400.5908533
19543.0097068
19543.3510783
18458.5048522
19544.9928551
19543.7964945
18405.5635707
18483.8910773
19542.7652891
19544.7567299
18534.2440297
19544.7290245
19546.4559986
18431.1753297
18571.8168982
19544.2290236
19546.1754089
18478.3686448
19545.480603
19546.0678441
18514.1773668
18481.5721229
19544.8903622
19546.0804349
18559.8781677
19544.9059779
19544.7493838
18428.7779325
18407.4001925
19544.5583133
19544.6736868
18464.7359452
19545.5602825
19544.7453075
18366.8871905
18435.2866093
19544.3296972
19544.5184862
18512.0152233
19545.051587
19546.5856485
18420.9619508
18537.5886147
19544.7990664
19545.9948423
18467.2899025
19545.4678491
19545.6108908
18471.5764633
18429.0396997
19544.7362299
19545.319038
18534.1303108
19544.9018648
19545.2690099
18393.5376676
18356.0656911
19544.3035035
19544.03847
18422.9193069
19545.6758896
19544.6982894
18336.8786215
18415.9630052
19543.8377783
19544.7102891
18482.9190541
19544.7187099
19546.1248485
18372.3139022
18490.0815781
19544.1833747
19545.4398984
18423.11213
19545.5713584
19545.65732
18443.8559075
18390.1337919
19544.8458216
19544.9002407
18502.0979696
19545.7598771
19545.645405
18412.3847584
18351.8035877
19545.1617336
19544.5107653
18424.3347466
19547.2655583
19546.7478645
18370.9845917
18461.2781494
19545.2374783
19547.2700469
18504.9696767
19545.9056408
19546.6996732
18367.3132303
18473.5513244
19544.6654774
19546.3669348
18430.8312974
19547.3125036
19548.1438456
18470.2227455
18415.0453424
19547.3954225
19546.6284004
18512.4003017
19550.2944771
19548.6871945
18476.7238219
18432.7886269
19549.5149607
19548.2078447
18507.6128071
19552.4589934
19553.6409898
18467.0513073
18527.9988762
19551.0847871
19553.9821664
18553.1123503
19550.4490618
19549.8143154
18439.231357
18499.6810269
19548.3590879
19550.6870627
18508.6261335
19552.5805335
19554.7413139
18531.2499073
18495.4275361
19554.1505764
19552.3332122
18553.0370967
19558.5115039
19555.9434966
18537.3350811
18525.5456389
19557.3570526
19556.1285402
18581.0591186
19559.9923295
19559.2515924
18493.839996
18544.7589054
19558.1930375
19559.8700343
18596.9460516
19558.6535492
19556.9106936
18532.8265937
18569.4779406
19556.1975122
19558.6312092
18591.0398675
19560.1714934
19560.9490001
18557.9806665
18553.5561971
19560.0966794
19559.9562928
18606.5560072
19555.9872097
19558.7830724
18396.2643871
18410.4145378
19555.7541706
19558.064066
18357.0279596
19552.2029382
19549.8427458
18167.3526228
17911.6515584
19550.1787567
18274.7534166
19551.4658626
19556.4014066
19560.340176
18430.8785671
18456.0864398
19558.4301253
19557.3989804
18375.641056
19552.6239857
19551.6136075
17924.6212082
18225.3202049
19552.1739796
18289.1944001
19551.9130475
19558.4104647
19562.1739938
18788.9663511
18745.1057588
19555.3442209
18953.1434796
19557.6100229
19556.7003082
19551.7060804
18522.0894905
18696.2200773
19550.1164299
19550.6424473
18982.0784965
19558.5981625
19562.4408313
18729.6026999
18835.8440695
19557.1266142
18922.5390672
19558.0173197
19557.172527
19555.479259
18736.0930574
18600.7784652
19551.9339564
19553.4333192
18988.4887932
19548.6820365
19551.4661921
18603.7354977
18423.3939197
19546.9191184
19547.9194587
18572.1676689
19549.4492628
19545.0311739
18360.3796859
18620.4061366
19544.8556916
19546.9606665
18733.2676142
19550.2101929
19555.7818931
18469.8223441
18767.0892416
19549.4254141
19551.9829881
18593.1847713
19550.9027881
19549.9709614
18677.4524377
18535.6896496
19548.5061642
19550.356041
18762.9480464
19546.5469011
19546.571901
18581.5700598
18443.4286219
19545.9306424
19546.0480523
18509.0259613
19547.7354272
19546.0985274
18475.6857333
18630.2656183
19545.4906315
19547.3414033
18653.8358498
19547.6147506
19550.3532182
18489.4341597
18708.8716908
19547.3238349
19549.5162127
18536.6950994
19548.6223872
19549.3237536
18652.9802685
18578.0514365
19548.0905637
19548.8742516