/*--------------------------------*- C++ -*----------------------------------*\
| =========                 |                                                 |
| \\      /  F ield         | OpenFOAM: The Open Source CFD Toolbox           |
|  \\    /   O peration     | Version:  v1906                                 |
|   \\  /    A nd           | Web:      www.OpenFOAM.com                      |
|    \\/     M anipulation  |                                                 |
\*---------------------------------------------------------------------------*/
FoamFile
{
    version     2.0;
    format      ascii;
    class       volScalarField;
    location    "2.9";
    object      p_rgh;
}
// * * * * * * * * * * * * * * * * * * * * * * * * * * * * * * * * * * * * * //

dimensions      [1 -1 -2 0 0 0 0];


internalField   nonuniform List<scalar> 
28582
(
19561.1983403
19562.7619212
19561.7320135
19563.5418687
19562.9113922
19565.5538881
19562.8830383
19566.859781
510.233896783
554.415376454
0.0111410382351
19565.0727295
18557.982642
18616.5534846
19568.4137627
19568.5519259
18626.762911
19570.1363135
19570.0581721
19558.5963993
19563.7547819
19563.829461
19558.5749465
19564.7146088
19564.69698
19558.6596888
19567.1199034
19557.2952137
19569.7178279
569.785782565
-0.0246181167349
0.0238881962805
19559.0550695
19559.9319634
18484.2677469
18478.9520473
19558.7417824
19570.6812194
19569.7570198
19570.5506632
19571.0051729
18654.9381484
19570.7576688
19571.8826189
520.773804287
560.669442635
0.639430571637
0.469930959042
536.470375518
0.765237320163
19561.5962129
19563.4484341
18590.8007522
18599.024718
19562.0593594
18610.013263
19563.3290514
19564.8789387
19566.2846055
18607.9515943
18636.8204306
19566.1767689
18625.06389
19564.9176842
19568.3063642
19567.4095207
18636.0981287
18640.1860115
19567.2681411
18642.7382523
19568.5288276
19570.2822565
18644.019368
18650.1607229
19569.2977339
18640.4980426
18646.0648036
19569.4255041
19570.3749798
18640.2786042
18626.4940935
19569.3541752
18625.9743089
19569.7685865
18639.34818
521.235314232
1.67771860206
504.715017435
525.836299349
1.18964124573
1.40528605885
578.260362128
1.47186077685
0.400370555049
597.256675674
2.78568393187
580.811675177
0.734453099875
19555.7791679
19555.4514783
18485.8920915
18474.5971958
19556.2945522
19555.4484241
18445.3966112
19556.7200786
19558.2373244
18480.937863
18490.9004742
19557.186761
19558.252471
18453.6181766
18512.1674384
18518.0056157
19560.0506123
19557.3457635
18501.0199137
19558.9816391
18460.2795011
19571.1283634
18647.8840477
18651.4103445
19571.7078432
18653.7998338
19571.8650416
18651.944557
19572.2256686
19572.8578603
18655.893017
18652.3463845
19572.4118415
19572.6473001
18650.6422871
19571.5134904
19570.9209255
18641.0209054
18627.7090082
18632.0155888
19571.4921631
18642.066515
18620.8558597
18601.0263086
19571.8917986
19571.8532175
18616.6678797
19572.0162051
18631.0960923
19566.9498723
19571.1192281
597.476643432
0.0954958784822
19562.1155933
18536.7068907
19570.7680746
19570.2690302
18651.8989309
18575.224219
18497.5591766
19568.5793784
19565.0571263
18476.0454176
18237.7273948
523.832916624
618.698538649
647.619952083
2.057826229
4.06401061091
4.94608342333
692.796985024
749.764771395
19562.1409141
19561.5365159
18533.5250953
18572.4717206
19560.6267421
18548.106785
19563.2981568
19572.7680114
19573.160027
18647.5627819
18645.9635379
19573.3451562
19572.8273457
18623.5024618
19571.7421131
19571.5445313
18597.5088897
18541.8462924
19571.9279981
18574.6880342
19571.0900339
19571.5535064
19570.856783
18522.9051429
18513.1739437
19571.1591518
18556.0824781
19570.8543353
19568.4457378
19570.5327389
18473.6430979
18440.2121286
19570.3327938
18416.9985837
19569.1817117
19565.2209057
19561.8594344
18205.6196071
18355.12663
19560.5009293
18326.4314694
19566.3881132
19568.7192484
19562.2541436
19560.4214572
19557.386906
291.628134509
357.949414353
291.365412051
346.158173598
358.59968165
0.0441084663594
0.0733530119109
0.0609063560042
0.0450743780033
0.0552427227225
0.0844620167124
19569.1954399
19568.4265042
19005.1693763
19038.3959342
19571.8319782
19063.3463391
19566.5371507
19564.0257533
19029.3431834
18969.2980877
19570.0945243
19565.1877395
19565.2825609
19050.7200886
19030.8508587
18981.2186046
18944.4877752
19563.4079008
19559.1401408
18915.6961146
18598.0452684
18813.7414939
18590.2069699
19561.9697179
19559.8076966
18954.9770338
18922.6306685
18858.3908039
19557.4749624
19558.643617
19556.7147062
18805.8194014
18611.3399787
18756.9241371
18653.2334945
18744.6358912
18653.1596029
315.045534155
294.217044034
300.11721859
0.465626208222
1.19538880807
0.392414953926
1.11470089318
2.16642781564
2.42095404743
1.95801662707
1.96330725685
284.269534725
283.212715878
316.489438896
288.869607839
311.42940542
0.34522853263
1.06679360433
0.270045418243
0.966533933548
384.747452407
347.974817414
382.34716044
1.77905814811
1.5769742506
1.6657969233
1.53741359103
310.522502862
315.329731408
0.196245406064
0.835056194294
0.771160368732
375.195745508
346.822460014
375.673170418
1.59224353878
1.75236007881
1.47010957025
1.99803087898
19567.7747858
19570.1063158
18980.1119721
19020.6717663
19570.0333887
18968.4762522
19568.0727426
19567.6952898
19569.1777476
19036.4359461
19020.8200653
19569.9182053
19567.5699575
18987.0373422
19573.3837472
19570.9997695
19074.8447499
19108.1947751
19572.0407562
19572.5422898
19103.009579
19565.5173498
19568.0822307
19014.2437561
19017.1434113
19566.7452368
19566.9796028
18984.6016534
19564.4119271
19564.3680125
18995.9378305
18962.9859371
19565.7150013
19563.4766352
18965.356492
19568.6075102
19569.4311884
19087.0776123
19038.4211386
19570.5696303
19568.1571827
19040.3557485
19568.4770769
19570.485029
19090.7682853
19002.3717762
19571.1951097
19568.5140709
19004.1431616
19566.9079256
19565.0973017
19016.1584339
19006.0492583
19566.7722088
19565.5936413
19018.9233691
19566.7486679
19564.3274145
18977.7427683
19007.3196696
19566.4717825
19565.6264201
18981.2831968
19563.4354364
19568.5413403
18901.9818616
18979.7318684
19566.5649543
19567.4378772
18819.4061611
19559.2038248
19557.2432696
18846.8699451
18707.405279
19563.8755521
18652.7717618
19556.6086769
19561.568508
19561.9315285
18955.5040038
18811.866085
19565.2250924
19560.4306079
18796.5964806
19557.5855526
19554.0420231
18691.0430542
18770.2583236
19558.350689
18640.9359176
19555.5981544
19562.6557906
19563.5919526
18977.1910987
18937.4614698
19564.1764933
19562.4497887
18937.3363909
19562.3995389
19562.9222348
18977.9629559
18900.5285954
19564.1254918
19562.1013774
18907.1651805
19561.2751841
19559.778194
18883.0213134
18898.038203
19561.1115255
19560.5262618
18889.1314162
19558.1992907
19560.4831061
18799.7193273
18885.5499239
19559.3408719
19560.9982359
18770.1210097
19555.4778217
19554.0948761
18772.8398731
18666.3089199
19557.8350944
18632.0280735
19554.6009373
19557.9544841
19558.2215824
18872.661479
18757.5825645
19560.3128362
19557.683745
18771.7013824
19555.4282965
19554.4308947
18664.3655689
18751.8450993
19556.6591483
18641.0561975
19554.8967318
19555.7060534
19557.2006192
18738.0484744
18793.1999589
19556.9770429
19557.4911316
18719.944596
19554.1862939
18736.6148439
19556.2489272
19560.1902465
19562.0914302
19563.3801121
19562.9868276
19561.5501971
19560.0096372
19560.6491488
19562.8780453
19564.3350113
19563.5618485
19561.4051449
19559.4314067
19544.7057575
19552.6905374
19557.3895494
19561.3311722
19562.7089151
19562.1511908
19560.9913054
19558.8107776
19547.9463076
19555.1371785
19560.3233336
19562.5205065
19562.9775616
19562.28812
19561.1166658
19558.8489699
19554.2263207
19557.091009
19560.2666354
19562.2928159
19562.875352
19562.3434551
19561.1688014
19558.9669971
19556.7095371
19558.7638949
19561.3412425
19562.9960858
19563.2900456
19562.635031
19561.2847771
19559.3152141
19563.5439722
19562.8213565
19561.4186006
19559.6717819
19541.0145088
19548.7838997
19556.0935736
19561.3567367
19563.3550658
19562.7202882
19560.8614777
19558.3757196
19545.9045402
19552.4526576
19562.0069202
19563.8105884
19563.9048332
19562.87276
19560.976701
19558.3268827
19553.8590997
19557.5157856
19560.6647829
19562.7748968
19563.554373
19562.897791
19561.0879116
19558.2796283
19556.708046
19559.1565992
19562.0720156
19563.9002489
19564.2101597
19563.3095216
19561.2741352
19558.6076156
19564.4853929
19563.4703687
19561.3337162
19559.0354418
19534.3012706
19549.575581
19559.4614658
19564.6124534
19565.9133387
19564.190414
19560.6224413
19555.594373
19542.1725718
19552.585495
19562.2277357
19565.2413863
19565.7750523
19564.1696526
19560.6669954
19555.4526327
19553.9699533
19558.2990041
19562.3500879
19564.8584709
19565.7847423
19564.4724642
19560.966821
19555.2635869
19555.4539192
19556.8603068
19560.1225328
19563.8901586
19566.1501518
19566.5383893
19564.9842798
19561.1972625
19555.7056385
19561.6669877
19564.763258
19566.7371943
19566.886337
19564.9914828
19560.9209089
19556.4038582
19564.795119
19560.6898553
19556.9737538
19539.3604402
19550.7464516
19560.4867282
19566.1680832
19568.9352225
19568.6702963
19563.1406735
19556.7573022
19540.0413852
19545.4712485
19554.339016
19561.8933342
19566.373019
19568.4796461
19568.2895244
19562.406398
19556.394312
19554.1331447
19549.8755668
19551.6433973
19557.7141833
19563.0555935
19566.6667569
19568.6270595
19568.6101219
19562.7408809
19555.7137313
19554.288066
19555.6788245
19559.79043
19564.5441615
19567.7468798
19569.5997501
19569.6722386
19563.5763032
19555.6087362
19561.2405459
19565.600546
19568.7048372
19570.659764
19569.7896501
19562.5259849
19556.0540041
19568.7694672
19560.8728687
19556.0779748
536.932102301
562.135831556
587.432382433
619.624042908
614.851451382
653.186248028
798.07800539
954.493474151
401.185731157
442.525694643
507.814221154
545.478128974
577.504283431
609.221461744
611.656862559
652.757870428
804.629501389
963.640201604
394.4305154
419.69557239
466.842815961
516.902226645
556.236109836
584.92739393
600.441362932
657.719823156
806.48124683
958.239728574
411.301483475
463.765196679
520.476510803
554.970939249
587.476682318
595.327169098
648.447202669
801.339197579
944.446034013
533.186747771
560.131020067
582.225650267
590.178647893
657.209645502
801.561641795
913.963567202
692.178259815
802.563914544
879.253694234
0.00377069519469
-0.0385101547148
-0.0368886390322
-0.0292952394145
-0.0418097746658
-0.0264862725766
-0.0268062007965
-0.0419120479506
0.123928451912
1.28509701711
-0.0101514079031
-0.0183273435381
-0.028631662747
-0.0326407781226
-0.0424324381894
-0.0419716798584
-0.0441366462299
-0.0510947256483
0.256015730625
1.29306164195
0.0254839748938
-0.00384583539417
-0.0176631588417
-0.0226966127652
0.00417549028273
-0.000982669879673
-0.0212672856362
-0.0194089741301
0.0613061960892
0.887751997825
-0.00694387220032
-0.024997477207
-0.00930040732478
0.0130060220225
0.00624610736424
-0.00947686889441
-0.0089328181483
0.00109001427648
0.747047346605
-0.0158781043059
-0.0210863378994
-0.0270961874134
-0.0200391546804
0.0188123241781
0.159491726199
0.828392920029
0.0629828427766
0.151406547252
0.971226941378
19548.4885365
19545.6446815
19550.2377434
19543.145766
19546.7587428
19544.0374554
19548.0865067
19555.0961416
19554.0030075
19556.7055307
19550.7580019
19552.8877788
19552.0023017
19555.0932799
19551.9509193
19550.3208819
19552.9908358
19547.1565491
19550.9392476
19549.6908039
19552.6079423
19557.1230279
19555.6389871
19557.6575146
19554.2865343
19556.3677284
19555.3253712
19557.6752299
19544.3069041
19541.7589643
19545.2732734
19536.3104197
19542.9093119
19538.4178003
19543.812246
19552.4810499
19549.2269405
19554.0385834
19549.1827869
19552.1388755
19549.4295453
19553.9307907
19549.2523136
19549.2593755
19552.1704314
19542.3967777
19546.3019847
19548.2042661
19551.2366501
19555.4929677
19554.8036983
19557.9506954
19551.6026415
19555.5814789
19554.5159745
19557.4341761
19542.7854606
19538.4219287
19544.5681218
19536.4893942
19544.3763829
19539.1081627
19545.7302219
19552.9809834
19550.3231795
19555.0904626
19550.7827255
19554.3633562
19551.4183395
19556.7128529
19546.9789306
19547.8697181
19551.2129253
19543.9768702
19548.9194199
19548.0104842
19552.1160132
19556.1387464
19555.0091671
19557.7714154
19553.5512979
19557.4882312
19555.6958844
19558.9865404
19534.9619205
19538.7922443
18123.6830663
18223.0781287
19545.5339588
19542.6600979
19547.5605294
18181.2712288
18263.2705435
18252.7196685
18311.5744633
19555.9948821
19552.3239208
19556.8584941
18307.566828
18404.4986962
18346.918178
18425.3303891
19563.776808
19560.9655263
19564.2129056
18436.8985865
18467.4105387
18445.3861001
18484.7715433
19567.9714972
19566.1364207
19567.6532794
18479.3292006
18524.5350123
18490.9147932
18520.3831801
19569.1934118
19568.5683163
19568.8857042
18528.4579741
18527.1735629
18533.7695394
18532.2613437
19566.5760049
19568.3964149
19566.1364815
18513.0361681
18393.7781811
18527.5721288
18346.1741441
19559.3239221
19562.628255
19559.0879009
18254.9659001
17660.1019713
18184.0075795
17639.5482351
19555.4078497
19556.6097947
19555.6093854
17616.6607209
17384.628273
17603.1354378
17322.1902464
19553.1263405
19548.0506086
18454.9935665
18272.1466868
18492.5442155
18435.9816721
19541.6462994
19545.4667204
19545.5416555
18241.9389559
18268.7720773
18433.5356465
18413.8785076
19550.1735964
19548.6017448
19552.5228621
18288.2290392
18330.5024789
18417.4724881
18427.8593052
19558.2945723
19556.2732429
19559.5224173
18360.7026259
18440.0239847
18443.4492877
18500.6427144
19564.7681621
19562.5506253
19564.8946567
18456.8674282
18492.2377318
18503.3419392
18527.1754999
19567.6056334
19566.4940888
19567.6116012
18497.7350212
18523.0251976
18529.6658754
18534.4419399
19568.86661
19568.4241004
19568.8666494
18535.3832064
18531.8071609
18535.6558029
18527.8720633
19566.0022509
19568.3166887
19566.0588218
18529.7825154
18338.153076
18519.6945487
18326.4909833
19558.9442057
19562.4567992
19558.7416506
18172.4163597
17644.6851473
18172.7307628
17639.8031635
19556.0219567
19556.0078757
19555.4968434
17614.8730808
17315.6848646
17604.5806854
17310.8749313
19551.5318935
19554.790838
19553.332414
18518.4401582
18478.8500558
18573.0051689
18585.4018159
19549.7812342
19552.7044294
19552.8860055
18481.2400061
18456.7322409
18582.4762984
18554.8272415
19554.603815
19554.0721291
19556.3007182
18457.8640655
18461.9205986
18543.146454
18531.7266431
19560.604852
19558.8991292
19561.5375024
18473.7149826
18516.0428403
18534.3757121
18551.2931486
19565.1857275
19563.8616754
19565.8941358
18519.1125475
18536.8599148
18565.2481122
18554.6888007
19567.8090144
19567.2279313
19568.2134322
18539.4557635
18546.0380582
18543.8654604
18548.6819026
19569.0904402
19569.0609246
19569.547706
18545.8427543
18538.4575254
18551.2279553
18547.3727322
19566.4081654
19569.1913875
19567.0402137
18531.5475801
18345.7947339
18540.5081574
18407.7052825
19558.7263316
19563.348603
19558.9484266
18192.1149098
17632.4105062
18274.0547403
17659.0655313
19555.337857
19555.7592014
19555.6085377
17587.7860674
17320.8041243
17587.9617472
17288.1189546
18572.6682162
18593.4094358
19554.7738025
19555.7384126
18589.8204804
18565.2426254
18519.59609
19557.5358139
19556.8310523
19558.4457918
18553.9890711
18528.011733
18513.2127148
18484.5233848
19562.3091582
19560.5892865
19563.0179962
18534.4230954
18548.4401219
18499.7734699
18539.4474859
19566.3914899
19565.1204512
19566.8840595
18563.3270833
18560.5906287
18553.0684535
18579.4046279
19568.7952281
19568.2194051
19569.3413552
18557.1339716
18568.295495
18587.3310972
18604.3552304
19570.0924283
19570.2202024
19570.6385311
18572.0530213
18570.6677253
18607.5138505
18606.7851795
19567.45473
19569.9881798
19567.4010995
18565.5134903
18433.5101926
18600.8906724
18401.2950435
19558.9792239
19563.3065197
19558.8183237
18292.5825538
17654.2178633
18235.2318325
17642.2517812
19555.473535
19555.909995
19556.1883332
17581.1402498
17296.0943844
17618.9075235
17409.1575239
19563.5872051
19564.4092386
18494.3821416
18544.6858569
18600.4389559
19567.3039217
19566.3204493
19567.930898
18558.1491638
18580.9333272
18612.2778415
18629.0926214
19569.8440398
19569.2608877
19570.4398905
18589.074594
18608.4702559
18636.6966681
18652.38049
19570.9274015
19571.1349012
19570.9790322
18616.0205467
18621.0828844
18651.7571019
18614.9464817
19566.8448412
19569.3204307
19565.9811579
18610.1730536
18361.2166244
18562.6733892
18206.6241534
19558.391272
19561.6136013
19557.9292459
18191.851118
17665.7940886
18054.9568464
17703.0247049
19556.91717
19556.1748067
19557.1343941
17667.6077132
17449.1998069
17731.2117154
17561.2858651
19570.6992136
18592.020381
19565.2237185
18533.9086138
18181.2715716
19557.6224862
18040.3338663
17706.8949999
19557.1284977
17740.0914819
17604.9623374
1.85315327145
0.384820542002
1.09973493671
0.108356326031
513.871525937
493.389503207
0.0666977873681
0.0585449904473
0.037584536833
0.0626116350594
550.719800851
522.419537015
542.40943156
0.0860707250986
0.0746699651342
0.0924027488564
0.158656096568
570.487186938
553.652647628
566.999135626
0.0357506979359
0.0297098424711
0.150971755671
0.105024795118
612.224629704
584.301751165
603.998596944
0.0721641652087
0.415139984446
0.118115702217
0.112367491838
614.936267362
616.645185478
614.349242395
0.657031856814
0.310763923921
0.106644361684
0.0835700949867
623.935023025
614.248054555
622.332957765
0.337086919789
0.473596795582
0.117115890219
0.19890986574
718.372290903
651.18755181
719.68116071
0.627556061391
2.75541344231
0.553850684026
3.39196312821
888.511525702
800.395187594
892.660509629
6.20881469053
10.3758635181
7.54930894412
11.5621669402
989.755990569
962.53270714
999.187203667
18.0446014841
24.5128727919
18.7480119006
24.5984203841
421.13932928
400.283461865
415.59667527
0.599309798993
0.0974368666483
0.765757392066
0.282769735754
474.071196998
435.494949642
456.783122899
0.0625144905477
0.0672557450355
0.100881165651
0.0592713136986
530.418410532
486.043960766
510.031417808
0.075052061192
0.121545284099
0.061268478712
0.0516875628176
560.119742772
531.294376538
547.702500077
0.15392018983
0.151856094015
0.121370358612
0.165186075752
597.423920595
567.989215028
583.672886376
0.144848809361
0.144751700472
0.287958845416
0.215738098983
610.814187707
595.50355229
601.151692656
0.0823157663696
0.0745012958329
0.196361856088
0.0946544114354
622.25655529
607.21563176
621.675224617
0.0715279668303
0.156607601985
0.118150340806
0.208168822568
723.248829618
656.906931044
728.655413876
0.551073469183
3.80934546949
1.06865039194
4.40330614239
896.356697215
807.048082225
895.952289721
8.48677119127
12.6284348541
8.67749476581
12.7953605411
1000.21264524
961.279500251
995.048427928
19.1213536746
24.2020004212
19.2009832101
23.7704155772
409.468539775
389.020345812
397.375386431
1.2625050995
0.634011112831
1.72029226624
0.85620191919
443.298763852
411.024477206
430.05395431
0.174206450686
0.0589175760158
0.198228443919
0.0701283781037
493.615269322
456.988388697
485.530626203
0.0484090455262
0.0382240028386
0.0536112762296
0.0334684672933
538.090143879
511.15163871
533.651632554
0.0318137622472
0.11526315671
0.025016140533
0.915533785767
571.993044306
548.099551144
568.716339139
0.422644034136
0.889956460616
2.02669907577
2.68205734957
592.653118687
588.355720284
595.609216455
0.7081895162
0.512762940114
2.5863813387
1.80981692326
618.211619901
601.363207975
617.912505847
0.33069030092
0.424467984064
1.23037641616
1.01897471926
731.033848718
656.298462736
728.430082281
1.35227773041
4.45599749051
1.87703469067
4.37471109312
891.129938494
803.16282493
884.776550848
7.93683427132
11.6956202027
7.57668109028
11.2752815767
993.119216112
951.363330987
986.044197362
17.4169043505
21.355949366
16.9359064511
20.9709282501
429.360058835
449.438687459
0.144118750308
0.0676920128652
0.388021862177
490.073167548
479.079884506
511.637597294
0.0453838111361
0.0517857124073
0.469036707435
0.811492716075
538.195491976
528.857497527
546.335031535
0.6651028567
1.64640890719
1.15560897769
1.22004399654
573.54541523
561.920804082
575.094486522
2.19671690214
2.46408690373
1.30934166398
1.16363492569
590.821657437
583.033263125
587.629901455
2.04792561732
1.38882221193
1.00837097586
0.810446814353
610.012803617
592.817114391
608.336236153
0.694563464254
0.644948860222
0.72750953023
0.74986905045
724.507351659
648.583185175
727.069160926
1.35095420437
4.0325089661
1.85483377921
4.80632234673
880.009301163
800.630934602
874.209512502
7.33820218567
10.9959000215
7.84415573898
11.0103643761
977.94615026
932.244317615
961.651458782
16.3342227973
20.105864135
15.8457679181
19.3492796675
545.012589201
531.70880944
1.0644710255
0.499313376644
1.35883749867
0.596706477937
573.720681492
546.243867253
561.365149667
0.0801641826514
0.0423404545732
0.234995274849
0.206226342265
585.699570929
572.150083203
578.357233369
0.0442511351559
0.0900839009347
0.178647134597
0.124902267333
608.628092675
589.242981767
618.601380285
0.207545026716
0.775511443449
0.465236061641
2.20848324881
734.368945232
676.799228668
746.071564196
2.47890939261
5.67592194408
4.65915501275
7.08927168862
867.431333746
802.515891528
858.637434597
9.01254218556
12.0533534765
9.64694508628
11.8783801556
935.935964768
895.281299904
906.210281352
16.0048063192
19.0771355105
15.2670986717
17.9563386426
634.706549485
4.19849891306
752.458930879
5.74856468117
7.19229396704
5.61131175434
6.37204524101
852.457701821
9.34320566776
11.4790068573
7.95486846205
10.3430403292
881.322185512
15.6714125719
18.7961335643
14.9421224549
18.5535300157
19535.8459197
19537.4723673
18117.4748973
18189.8639685
19538.4077305
18140.5260595
19535.3813772
19536.9159732
19540.8613749
18215.6911353
18233.6512325
19539.5646147
19539.1548914
18163.8708755
19542.8062157
19539.983264
18217.4125732
18195.0231845
19540.6551631
18214.4456563
19542.4094271
19545.2720612
19547.3713597
18232.3690299
18280.7698696
19547.7002345
18255.9668409
19544.9647617
19543.7241303
19543.0099133
18220.1579543
18277.740893
19541.7054103
19544.9778701
18236.8714712
19546.1618236
19549.1321495
18302.8891719
18288.7353414
19548.4161382
19546.9863879
18277.1254659
19552.8361515
19549.9870454
18341.2722509
18301.1522777
19550.3598195
18333.8570392
19552.4547273
19555.1496907
19557.2498679
18369.7718407
18413.6390215
19557.2341382
18375.4130601
19554.668197
19553.1268847
19551.4380692
18322.5172061
18377.3326839
19550.6932518
19553.8066989
18351.7617313
19555.4805033
19558.5681753
18417.8141749
18402.2403997
19557.6853665
19556.1653139
18385.309973
19559.662928
19559.4778687
18455.0614855
18436.6645904
19558.4665724
18446.913524
19561.6216963
19561.0857439
19564.6720881
18462.3721577
18458.1817318
19562.4489419
18451.571379
19563.2988063
19561.1228729
19560.6315851
18442.9917428
18464.7676809
19559.4464818
19562.6746806
18458.4436414
19562.7802446
19565.4598609
18473.8325844
18478.2162727
19564.0277406
19564.2883027
18466.5796076
19565.0073274
19565.8069061
18500.0976627
18471.1087338
19563.5946332
18494.2076304
19566.8538867
19566.8488867
19568.9093906
18513.3404901
18536.3246384
19568.5850448
18520.6470663
19567.8516173
19566.2314953
19566.3156765
18482.6751743
18499.0372539
19565.0487527
19567.0574041
18498.4824424
19567.537282
19568.360428
18531.1473344
18507.5071166
19568.5996659
19567.7676125
18520.7160045
19569.9935547
19569.8264578
18540.9606541
18536.836559
19569.7097575
18533.5154676
19570.3994631
19570.1942663
19571.1757479
18540.4096392
18525.7760621
19570.4419642
18528.6530624
19570.8593006
19569.848723
19568.8172935
18530.9594275
18538.9580737
19569.3352314
19569.1176076
18530.7235747
19570.2650927
19570.2452738
18531.8572773
18537.7764168
19570.8424901
19569.6577789
18531.3386946
19570.7514766
19571.6697008
18503.2877875
18521.5845872
19570.8771471
18513.6328181
19571.6363741
19569.6656979
19567.8757586
18464.8460365
18381.5967178
19566.8018228
18468.894544
19570.6574615
19571.1572381
19570.8059083
18528.7500851
18511.6154772
19571.3686819
19570.5225011
18514.2327373
19569.598049
19565.6237106
18356.808529
18453.0386482
19566.128475
19568.9584169
18457.2321753
19555.659644
19563.2070112
18052.6321683
18230.7511711
19562.0158364
18030.1421673
19556.764371
19549.6007145
19544.8152979
17832.0316219
17635.8861406
19544.2494797
17829.826099
19550.3240342
19555.0044522
19560.6157141
18201.4858224
17982.3159776
19561.1507636
19554.3404095
18010.6713307
19549.467249
19544.9797438
17643.274039
17787.3651942
19545.0863769
19548.7524238
17822.961559
19538.5664153
19541.4879036
17562.7154553
17575.675928
19541.2596629
17560.1214034
19538.0722778
19534.0389992
19536.4775498
17384.3685393
17371.6611735
17436.9001526
19536.9395252
19532.8046265
19539.7240258
19543.417562
17581.4522656
17575.2841025
19542.2481435
19541.1570825
17567.9572103
19535.2190697
19537.6338421
17332.294337
17468.3579804
19536.0272898
17476.0241628
19536.9773944
19547.5751438
19550.4271473
18561.1989602
18650.4824001
19547.5751009
18424.2170284
19552.8906656
19543.1839191
19539.5245699
18493.9616665
18438.0900787
19544.1287649
19542.2967121
18348.4480508
19548.5745264
19550.6879776
18641.7981818
18567.3842959
19550.0702614
18454.4045895
19552.8684572
19544.8819053
19546.242294
18468.2235733
18533.1612736
19544.5609317
19548.7152458
18393.07
19541.3232796
19537.9340608
18302.7414294
18385.7494089
19539.685379
19541.9943077
18307.6719725
19542.3140444
19542.4599511
18284.6286208
18334.0342756
19541.0061895
19544.1280835
18323.9624662
19543.5442076
19545.432584
18427.4225891
18451.6512756
19544.1484505
19546.0125886
18362.813879
19544.2077937
19547.0886191
18377.5513416
18431.5661918
19545.6759027
19546.365095
18373.2206641
19547.3865572
19544.3818402
18304.6751503
18325.720152
19546.20528
19545.7381089
18328.6420489
19549.2927569
19549.893309
18311.8534477
18365.9340133
19547.9712728
19551.331056
18347.2002505
19548.7169375
19548.3573501
18367.2890781
18417.2388538
19547.1509773
19549.8232719
18369.3377891
19550.4313561
19553.1965228
18396.5227923
18418.8636035
19552.2102641
19551.4397135
18382.8109707
19555.6963041
19552.0351525
18388.7313801
18382.8406778
19554.2360315
19553.4908083
18405.7474961
19557.6764636
19558.7295881
18414.7011655
18456.3764365
19556.4365317
19559.5746354
18429.6114449
19556.0497021
19555.1627647
18411.7838415
18460.4660382
19554.0882717
19557.2470848
18435.8189594
19557.9253003
19561.1710521
18472.7898905
18483.0670607
19559.723794
19559.3438693
18455.8837939
19562.7906468
19560.7650081
18472.1637313
18480.0508075
19562.5876587
19561.2514
18489.3746687
19564.1932107
19565.1747361
18484.1715787
18496.9799848
19564.0851667
19565.2966535
18492.5336231
19563.0136283
19562.6563152
18490.6393662
18506.6010782
19561.4085914
19564.0120564
18502.7127639
19564.4082983
19566.1680053
18510.5724717
18516.4518434
19565.4592876
19565.1987827
18506.3071336
19566.8382159
19565.9722633
18504.1187671
18504.3539905
19566.6419344
19566.1384332
18512.5464187
19567.5085044
19567.883594
18511.7283318
18530.4957286
19567.271457
19568.0639131
18522.3060884
19566.8515345
19566.8712525
18516.7262604
18532.2078566
19566.2065847
19567.4702667
18522.5326057
19567.4453443
19568.4830616
18533.1762936
18533.9218308
19567.9148175
19568.0159318
18527.4285585
19569.1043304
19568.5491447
18538.0104125
18530.619046
19569.1972214
19568.6256081
18530.5436386
19569.7030646
19570.6003337
18536.7236611
18532.4883352
19569.9462275
19570.4163245
18531.8236975
19568.8587093
19568.9141447
18533.7462438
18536.7317915
19568.381426
19569.3813807
18533.2170326
19569.4952764
19570.6161498
18533.3295287
18534.9069372
19570.2333175
19570.0333399
18533.1403374
19570.3508329
19571.0704779
18514.7577745
18529.4860163
19570.6292019
19570.8282496
18509.8778271
19568.4774308
19565.1953357
18450.6504828
18322.3001012
19568.7758104
19564.8780678
18437.134957
19570.1330587
19570.9591645
18529.6461871
18499.5138568
19570.6041467
19570.5409986
18509.542184
19568.2627752
19565.2186893
18319.8900594
18433.7907406
19564.6405305
19568.7473168
18434.9183913
19553.8243512
19560.0894679
17973.2289881
18157.2553761
19553.6473932
19559.8380326
17973.6556733
19548.5630112
19544.6014717
17782.6797153
17638.1783069
19548.0806206
19544.5769857
17807.2896261
19553.6308779
19560.2697939
18155.6468284
17977.1713048
19559.6372804
19553.9737723
17971.7204087
19548.3936283
19544.329619
17635.045441
17784.0388637
19544.4786722
19548.2980277
17805.2742876
19539.9245086
19542.8811228
17584.5848271
17570.1647521
19540.5902925
19542.1478603
17576.5187693
19535.7957534
19536.980539
17486.0733247
17315.4798054
19535.5245545
17515.2435974
19537.0224651
19539.7566466
19542.2937252
17568.1804501
17574.6196843
19541.9295045
19539.9659779
17574.1140992
19535.8087503
19537.0079469
17319.4583396
17482.2524215
19535.5106592
17513.541961
19537.0995458
19551.598717
19550.7204067
18577.6154651
18651.4984037
19550.6289735
18549.8121812
19553.3637215
19550.5305133
19548.1940542
18555.6559304
18552.9593889
19550.2400414
19550.0527186
18524.8498012
19552.5497429
19553.0083993
18664.7244337
18607.9054189
19552.8552081
18578.5818867
19554.285186
19551.6005852
19552.2540997
18576.2577941
18614.0324921
19551.6207226
19552.9189675
18553.7749938
19549.5444182
19547.4759874
18488.9787379
18537.4302692
19548.0786289
19549.699145
18509.138092
19549.9604435
19549.0921086
18470.510287
18505.1666728
19548.4933834
19550.6784743
18508.5191552
19551.3938651
19552.1485427
18567.04105
18581.9275273
19551.4963719
19552.5706123
18545.8702334
19551.7184433
19553.3238386
18534.2582354
18569.1422468
19552.3233452
19552.8749186
18541.9806069
19552.7582933
19550.1834649
18454.8437214
18493.174059
19551.563295
19551.5999294
18489.488648
19554.0563476
19554.6447026
18454.4416391
18490.6083418
19553.0036552
19555.4785682
18489.2067033
19554.0261399
19554.0373223
18519.9335445
18527.1820314
19553.0268518
19554.9097284
18517.4584304
19555.2053966
19557.4549134
18515.8823831
18525.7025246
19556.4458377
19556.0455522
18517.3252166
19558.7661207
19556.4729148
18484.3748027
18497.3184524
19558.2824801
19557.0336132
18513.9152975
19560.3874113
19561.5452986
18499.6204226
18524.1779078
19559.9752654
19561.7029353
18521.4882811
19559.2893932