/*--------------------------------*- C++ -*----------------------------------*\
| =========                 |                                                 |
| \\      /  F ield         | OpenFOAM: The Open Source CFD Toolbox           |
|  \\    /   O peration     | Version:  v1906                                 |
|   \\  /    A nd           | Web:      www.OpenFOAM.com                      |
|    \\/     M anipulation  |                                                 |
\*---------------------------------------------------------------------------*/
FoamFile
{
    version     2.0;
    format      ascii;
    class       volScalarField;
    location    "5.55";
    object      alpha.water;
}
// * * * * * * * * * * * * * * * * * * * * * * * * * * * * * * * * * * * * * //

dimensions      [0 0 0 0 0 0 0];


internalField   nonuniform List<scalar> 
28582
(
0.999998121419
0.999998231306
0.999998535664
0.99999824859
1.0000004781
1.00000046712
1.00000619581
1.00000517122
0.0290036214555
0.0358284474847
1.69309163483e-05
1.00000582411
0.935873145376
0.931520161083
1.00000407752
1.00000581625
0.92787187216
0.999688033992
0.999631061793
0.999999169635
0.999997611817
0.999997461675
0.99999970993
0.999997983249
0.999997452978
1.00000133768
1.00000099946
1.00000481253
1
0.0380596142733
6.26715099951e-06
3.91658954248e-06
1.00000509978
1.00000887102
0.932689609683
0.932780901401
0.999850891663
0.999997890673
1.00000089388
1.00000169102
0.999600677654
0.889711202023
0.999545425365
0.999303308979
0.0311445444932
0.035926173071
0.000391117366264
0.00040805700875
0.0334827466176
0.000346627408949
0.999829251146
0.999822650516
0.935486554305
0.937370681545
0.999823821806
0.93681862891
0.999818196343
0.999824082376
0.99981698916
0.933764700735
0.933081339599
0.999846967582
0.935353561845
0.999810667218
0.99981761172
0.999824586168
0.923332501301
0.929223516899
0.999837334543
0.924055799314
0.999803657089
0.999702921021
0.911445350261
0.91131934414
0.999763732467
0.917595666419
0.917792729329
0.999763863465
0.999636270638
0.911566485642
0.91262032046
0.999701930749
0.921516771085
0.999715116034
0.91870868934
0.0287157885944
0.000174505927851
0.028338558666
0.029469940498
0.000140709190294
0.000162726863328
0.0383745385761
0.000397094315241
0.000391734471456
0.0396692572739
0.000420247477735
0.0393917095141
0.000416097007078
0.999788122023
0.99978786709
0.932837342823
0.933352701996
0.999774176402
0.999805807702
0.933494916175
0.999765768083
0.999748063663
0.932788454857
0.93333479729
0.999756399212
0.999769471286
0.933377705363
0.934608530339
0.935250026342
0.99985576226
0.999826286385
0.93379546143
0.999820801273
0.933425463932
0.99962619314
0.904687900565
0.904569293436
0.999504737766
0.898555680236
0.999520349646
0.898281828141
0.999413278753
0.999321611551
0.893827491085
0.888760996414
0.999408576673
0.999314794004
0.893298716765
0.999411613651
0.999530100766
0.904191217915
0.903794505027
0.895978724803
0.999433101231
0.897348582554
0.890530983414
0.885617939739
0.999233765827
0.999314042802
0.887440237786
0.99922200101
0.89199087559
1.00000141413
0.999998249389
0.0401006983374
-6.42334957591e-25
1.00000842664
0.934988559485
1.00000266305
1.00000848111
0.88866206076
0.884521953233
0.88638453128
1.00000950867
1.0000091799
0.887647061472
0.8902057265
0.0299751856888
0.0404117419289
0.0420671474529
0.000343772534307
0.000339407527794
0.000251560549542
0.0435721330577
0.0452845309013
0.99982869787
0.999856866602
0.933336886604
0.934326285574
0.999822129642
0.933240040521
0.999871272168
0.999239816727
0.999248975514
0.888001169388
0.887652168818
0.999232242111
0.999253349683
0.88730003263
0.999215955005
0.999174667848
0.886476858709
0.884702697514
0.999193098824
0.886595374273
0.999214761164
0.999223292635
0.999214222743
0.88861871049
0.885148209591
0.999226857167
0.887187832563
0.999210850064
0.999251122494
0.999226210577
0.889643106741
0.888858897189
0.999245609651
0.890042451644
0.999245440267
0.99925137658
0.99924042804
0.891096106438
0.889512538185
0.999247676639
0.890272874097
0.999241625659
1.0000041881
1.00000481488
1.00000494174
1.00000356374
0.0244955241073
0.0267589959717
0.0276066610029
0.0298611926303
0.0285991747768
5.66515140202e-07
2.88688018957e-05
-6.20385459415e-26
2.02053820762e-05
1.61563931544e-06
1.71830823291e-05
1.00000699742
1.00000685489
0.962164089416
0.961623386554
1.00000623106
0.959498123118
1.00000806532
1.0000038486
0.958845984509
0.941854955151
1.00000575652
1.00000174809
0.999999269164
0.955294915137
0.944292469472
0.937731708046
0.933383670626
1.00000195525
1.00000364452
0.943461180933
0.935798582188
0.9320258882
0.931525255513
1.0000059349
1.00000423627
0.932995300658
0.931387670898
0.929393307145
1.00000562896
1.00000604557
1.00000456912
0.930135409696
0.929985102647
0.929046717314
0.928815252693
0.929852122455
0.929936747906
0.0225966525939
0.0225222406534
0.0234580338009
5.29560371972e-06
2.51971401371e-05
1.75894623737e-05
5.21161162306e-05
0.000131385314043
0.000388981886479
0.000192709441455
0.000395055779135
0.0234626468635
0.0255812382282
0.0257438147379
0.0261151135194
0.0270583360498
6.71401764409e-05
9.59300080098e-05
0.000125991214823
0.000134119458087
0.0272276307333
0.0286786879791
0.0286875710503
0.000198458062501
0.000318932196921
0.000203484074994
0.000302364608751
0.028637749361
0.0289781955845
0.000169559126006
0.000158396819525
0.000156903057415
0.0296332352106
0.0296480905136
0.0295581790004
0.0001863055352
0.000253537002204
0.000163934585904
0.000202423666723
0.999993673788
1.00002535962
0.96219971831
0.962335795997
1.00001823374
0.962300049057
1.00000867606
0.999999382393
1.0000044123
0.962319013239
0.96219144326
1.00001212549
1.00001488525
0.962331973652
1
1
0.961398856962
0.955849614797
1.00001626005
0.99998428014
0.959273092028
0.999979749516
0.999993671738
0.960964941297
0.954567307731
0.999988792051
0.999964193249
0.957630474812
0.999947295763
0.999869128617
0.948272231128
0.946389180657
0.999924961918
0.999899200628
0.952011708216
0.999953166053
0.999976460712
0.951150444456
0.950082277922
0.999961135066
0.999958828109
0.945753522589
0.999948715988
0.999946980425
0.946805271608
0.939645437019
0.999935165042
0.999925907699
0.94291584315
0.999888241102
0.999844510475
0.943860049874
0.934858911814
0.999874744299
0.999844720779
0.940376694501
0.999878708677
0.999879139365
0.936478744973
0.93387484844
0.999898070711
0.999873443334
0.938793328776
0.999885659506
0.999948114781
0.941885382047
0.938324976912
0.999958824076
0.999908349848
0.938216932893
0.999889065423
0.999935602107
0.938924976398
0.935252343351
0.999951819426
0.937275435544
0.999889026948
0.999890648542
0.999862031664
0.935508812949
0.931306791949
0.999897443666
0.999846149805
0.935255757739
0.999872557482
0.999824656393
0.933662213675
0.931446799671
0.999835206814
0.934678118086
0.999856534527
0.999783151587
0.999777800562
0.931280832065
0.930354752648
0.999804388454
0.999769726614
0.92864735542
0.999805154158
0.999880404008
0.931647643699
0.929093410604
0.999862959125
0.999841158943
0.928877053258
0.999841639795
0.99983752997
0.928816446874
0.92914242361
0.99984733458
0.999834034373
0.928489773432
0.999828471036
0.999871292934
0.929566857207
0.928863683086
0.999851017807
0.999843471606
0.928180864039
0.999814683759
0.999804095485
0.929731990676
0.928156535425
0.999817908448
0.92800209049
0.999795302164
0.999808793884
0.999837975032
0.928700280733
0.928572879729
0.999840923865
0.999833523727
0.928001531765
0.999790530221
0.999811395785
0.927826362507
0.928721537184
0.999819598106
0.927693137284
0.999783557085
0.999856668267
0.999843193751
0.929696877217
0.930982765962
0.999849506029
0.999866057991
0.931044453007
0.999862134636
0.929758912326
0.999863799092
0.999998212614
0.999996497169
0.999997098214
0.999997299118
0.999993006445
0.999991696382
0.999998530059
0.999997933704
0.999998429165
0.999996814473
0.999996140978
0.99999440824
1.00001448512
1.00001659295
1.00000206712
0.999959117578
0.999899085609
0.999932473518
0.999979407616
0.999996415004
1.00000147386
0.999999565638
0.999983647459
0.999983588989
0.999990094434
0.999988354545
0.999984108216
0.999988532376
0.999999022017
0.999996056178
0.999995058412
0.99999569205
0.999996794062
0.999998118488
0.999998187528
0.999997799757
0.999998911923
0.999995583981
0.999995085635
0.999996528336
0.999999053258
0.999999864436
0.999999717589
0.999998647021
0.999998829322
0.999998929811
0.999998204167
0.999996795574
1.00007483085
1.00006505047
0.999915229787
0.999712609644
0.999778417766
0.999939218957
0.999996262378
0.999998043041
1.00003219926
1.00003142811
0.999997275077
0.999908790289
0.99988934509
0.999947522644
0.999992433037
0.999998957134
1.00000258877
1.00000153691
0.999997798894
0.999988536323
0.99998744731
0.999991290792
0.999996983339
0.999999173285
0.999999695934
0.999998660999
0.999998802633
0.999999471924
0.999999886614
0.99999995642
0.999999445598
0.999998636786
0.999999310719
0.999999811212
0.999999615967
0.999999517022
1.00008440468
1.00008259948
0.999928825136
0.999761226742
0.999868788676
0.999985499415
1.00000030719
1.00000181649
1.00005223347
1.00006624383
1.00000734249
0.999972581233
0.999962624772
0.999982004456
0.99999886641
1.00000034284
1.00000755859
1.0000058216
1.00000301018
1.00000021337
0.999998444861
0.999999346642
1.00000010972
1.00000055629
1.00000107542
1.00000080872
1.00000065584
1.00000056284
1.00000079253
1.00000126898
1.00000147757
1.00000107451
1.00000081237
1.00000133251
1.00000109844
1.00000121147
1.00000183862
1.00000191959
1.00000170916
1.0000016749
1.00000224165
1.00000169685
1.0000012926
1.00008381799
1.0000985982
1.0000407731
0.999917182672
0.999937570244
0.999996842569
1.00000173463
1.00000376088
1.00001138933
1.0000150671
1.00001332578
1.00000912296
1.00000220485
0.999996756673
0.999998136586
0.999999984127
1.00000234921
1.00000537749
1.00000629594
1.00000522991
1.00000260113
1.00000057432
0.999997905438
0.999994275025
0.999999689665
1.00000167112
0.999998806783
1.00000239294
1.00000280419
1.0000043727
1.00000673359
1.00000182045
0.999998075788
1.00000074837
1.00000108302
0.9999984382
1.00000605395
1.00000683553
1.00000223498
0.999999489925
1.00000094864
1.00000122142
0.999999193538
1.00000049093
1.00000024358
0.999997074326
0.0299626511379
0.0280518784188
0.0295621137895
0.0367723156639
0.0421658872537
0.0503340280953
0.0540533280751
0.0549421670192
0.0273748508976
0.0293654466542
0.0302390246882
0.0301551752849
0.0333865707984
0.0391281479445
0.0432618048385
0.050393801665
0.0545092709385
0.0555873471477
0.0287565586846
0.0283648358251
0.0298166710947
0.0312607954551
0.0341220373223
0.0397683226053
0.0437218386237
0.0495742578725
0.0531100937472
0.0547941129837
0.0286417553879
0.0296107751525
0.0307718922377
0.032994834579
0.0382967636532
0.0415081819311
0.0463581110026
0.0498964776515
0.0520887973444
0.0305959140625
0.0330832068389
0.0376965542901
0.0396530297896
0.0432778409028
0.0464778517017
0.0486276121969
0.0429374119358
0.0456077673662
0.0464371479137
1.29364611587e-05
1.53778752947e-06
1.27919827743e-06
6.43664476636e-07
3.32377907993e-06
2.82509178481e-05
4.89725513322e-05
-5.4235667329e-28
-4.20168376793e-25
8.38210242854e-05
9.48316224849e-06
3.06269613971e-06
7.3020285463e-07
2.30022451508e-06
1.29569441109e-05
3.55546656859e-05
8.1370354878e-05
-2.20752416093e-26
-5.1705314006e-26
9.93708308807e-05
2.24581009493e-05
3.92170988083e-06
8.53686965033e-07
8.31475536722e-07
5.12306708425e-06
7.18944429831e-06
5.66365064823e-05
0
-1.07770622091e-28
6.52364528423e-05
1.97857325537e-06
1.57099032488e-06
2.31926400112e-06
2.30250370304e-06
3.50240528005e-06
4.89501347077e-05
0
-2.53822789456e-26
5.28005620671e-05
8.39660283971e-06
1.793570354e-05
3.46923886231e-05
4.84561406439e-05
-5.76949258236e-28
-1.60002407708e-27
7.12438629722e-05
-7.55890205206e-27
-4.17461306247e-26
8.35124904731e-05
1.0000170404
1.00000295643
1.00000173531
1.00006230972
1.00006899344
1.00003485002
1.00003845239
1.00001172159
1.00000016925
0.999997868778
1.00006087598
1.00003853845
1.00003298164
1.00002078371
1.00000038429
0.99999998074
0.999999091068
1.00000527168
1.00000284209
0.999999989244
0.999999026394
0.999995508506
0.999998207398
0.999993585262
1.00000083804
0.999997234233
0.999998181612
0.999994257658
1.00007979642
1.00006754118
1.00007767056
1.00007864592
1.00009060659
1.00007938829
1.00008716265
1.00003679872
1.00006681809
1.00003735314
1.00007863985
1.00004573104
1.00006847424
1.00003542994
1.00003618497
1.00000295536
1.0000005962
1.00004559074
1.00005629787
1.00001306554
1.00001685116
1.00001886922
0.999997879358
0.99999785339
1.00005337282
1.00003167683
1.00001650223
1.00001100156
1.00009990681
1.00007209177
1.00008128068
1.00008308069
1.00009951563
1.00008771464
1.00010666855
1.00004654969
1.00006790657
1.00003727034
1.00008463618
1.00004625554
1.00009632449
1.00005978384
1.00006876741
1.00002356812
1.00002866788
1.00005108424
1.000059039
1.00001368901
1.00001300023
1.00004803708
1.00002884171
1.00002232913
1.00005782732
1.0000433779
1.00001171459
1.00000914377
1.00004064594
1.00003653218
0.913221762312
0.91399373868
1.00010502436
1.0000576425
1.00006672193
0.915126570536
0.922513141415
0.915596941829
0.922314587295
1.00007778714
1.00006758577
1.00005739155
0.926672830913
0.933308016534
0.924983225467
0.93045084856
1.00000886133
1.00004410845
1.00002696104
0.933770417486
0.933327777524
0.931233319879
0.926117330829
0.999891333155
1.00000249227
0.999978637223
0.926803882181
0.886692339074
0.918046410035
0.882721187267
0.99998477015
0.999976939593
0.999980347623
0.877219866579
0.872275965785
0.875370138368
0.871812843224
1.00000216837
0.999991092693
0.999996280109
0.873247737804
0.879077846286
0.872482643012
0.877440692943
1.0000038886
1.00000027811
1.00000374234
0.881672608518
0.883544863437
0.879740122623
0.881421219567
1.00000368497
1.0000093863
1.00001136236
0.885038114217
0.861162136433
0.88149143001
0.856280991222
1.00000642799
1.00001153705
0.932430400188
0.918574704334
0.931196131294
0.926292477048
1.00001525938
1.00001557858
1.00001537903
0.916772575466
0.915471379877
0.925520744592
0.922554340952
1.00001583061
1.00001602224
1.00001492999
0.916507697959
0.922113442745
0.922463702403
0.922713303891
1.00001167899
1.00001347134
1.00000872306
0.924080269298
0.927607530058
0.923296130378
0.924954800033
1.00000528362
1.0000046192
1
0.92774256724
0.920229564315
0.92586508545
0.913435748677
0.999997915325
0.999995483167
0.999990383309
0.913075709877
0.881651452343
0.90501633519
0.877805154475
0.999998615316
0.999995160962
0.999997360291
0.875595807733
0.872348894677
0.873729652675
0.872883008129
1.00000034219
1.0000051735
1.00000389802
0.87281148259
0.877387878431
0.873995208319
0.878837506622
1.0000005739
1.00000302859
1.00000259931
0.879593872837
0.880938055375
0.880419451558
0.880584218085
1.00000384764
1
1.00000004173
0.880533690822
0.856600910265
0.880058248432
0.857526369128
1.00000679335
1.00000401313
1.00000422361
0.929966147166
0.928277580667
0.928823218839
0.929269989668
1.00000688483
1.00000697163
1.00000713467
0.927782216637
0.924120712345
0.929181732956
0.926573657578
1.0000052766
1.00000661156
1.00000514521
0.923725822094
0.92319236113
0.926432926293
0.925639747602
1.00000410968
1.00000376097
1.00000311802
0.923656582297
0.925150603511
0.926156580386
0.928665579053
0.999999538674
1.00000452258
1.00000433605
0.926393456159
0.914852999366
0.929420673243
0.918993915555
0.999993131871
1
0.999993990619
0.906009827708
0.877225804108
0.909406085999
0.879575465665
1
0.99999909757
1.00000019787
0.873408992903
0.872811496217
0.877699841569
0.877844970099
1.00000334882
1.00000725365
1.0000067956
0.874384416335
0.879286894713
0.879722150551
0.883206742336
1.00000200065
1.00000558502
1.00000425842
0.88091852427
0.881236834682
0.884530434822
0.884778874517
0.999997551842
1.00000061604
0.999999615388
0.88111459477
0.858886415494
0.884753365227
0.86560253902
0.929964408634
0.929541921645
1.00000278695
1.00000733086
0.929519411056
0.927625100286
0.93217751417
1.00000408956
1.00000744942
1.00000718153
0.927565725769
0.927164412428
0.932305719321
0.93183327657
1.00000824876
1.00000676717
1.00000715702
0.927599015182
0.930068004351
0.931356057915
0.929405927837
1.00000727771
1.00000878487
1.00000772926
0.930221900572
0.918338013253
0.928719759827
0.915998244309
1
1.0000016187
0.999998005108
0.909208163679
0.882008835513
0.907728006141
0.887370667267
1.00000201527
1.00000145809
1.00000182264
0.880726004619
0.880750555049
0.886669082776
0.888544891174
1.00000245651
1.00000763953
1.00000738147
0.882195223101
0.884655027282
0.889509988165
0.890953589195
1.00000049287
1.00000580074
1.00000442732
0.885912305053
0.886203371086
0.891228584435
0.890395176897
0.999997127996
1.00000121153
0.999999721342
0.886355364557
0.868350559674
0.889492310471
0.870972779599
1.00000782438
1.00000890476
0.932151114121
0.930081132767
0.930638621066
1.00000609807
1.00000826007
1.00000583247
0.929471227557
0.916031177816
0.927657674648
0.912008107881
1
1.00000192413
0.999999296669
0.907664202921
0.888420376107
0.905098818368
0.889916528199
1.00000097509
1.00000032645
1.00000063258
0.888018300848
0.889878633824
0.889385291883
0.891148777997
1.00000198408
1.00000611515
1.00000592024
0.890844783026
0.891896261953
0.891699216279
0.892714098251
1.00000035008
1.00000457711
1.0000032713
0.892184778266
0.891194859155
0.892649485656
0.890774442308
0.999996910109
1.00000106613
0.999999880936
0.89104513685
0.874296766633
0.89136032256
0.877770098676
0.999999841394
0.890385994
1.00000100846
0.891257835598
0.892349462335
0.999998264089
0.892229480766
0.890298130067
0.999997989105
0.891101621943
0.879377584218
0.000353544368323
0.000225461026659
0.000346115090533
0.000201008358987
0.0296543210759
0.0301076914574
0.000102538958691
2.38409732197e-05
9.05233247071e-05
4.36445048916e-05
0.0295576477415
0.0304411637948
0.0297946206173
6.16510966749e-05
8.77161405879e-05
4.96673955202e-05
9.26648009368e-05
0.028029364995
0.0292440981366
0.0291876571699
4.23809569267e-05
1.17907995631e-05
8.86742184774e-05
7.31504744184e-05
0.0323700222533
0.0305286542469
0.0342148499429
2.15967533307e-05
0.000160510650848
0.00011379567325
0.000252988036495
0.039793500207
0.0379347729635
0.0404416538342
0.000410894008781
0.000691556558152
0.000465399814089
0.000752150176373
0.0464814390234
0.0427335924811
0.0467444236794
0.000813452799687
0.000660885797478
0.000942678555636
0.000736579459279
0.0531124868753
0.0504786298244
0.0534363256483
0.000221618988178
0.000153127224772
0.000230946144357
0.000162575176508
0.0548005551314
0.0545512155824
0.0553333152591
0.000135679380685
0.000122371574904
0.000151198287612
0.000147098308042
0.0543482876576
0.0555387489233
0.0547138505933
0.000308952566862
0.00158875097141
0.000387398859907
0.00177182659689
0.0280090286476
0.0278980563256
0.0281803694992
0.000287281997411
0.000180209155955
0.00028368697467
0.000203953689514
0.0299359509047
0.0288548792607
0.0292718481293
0.000122326402336
7.07318013753e-05
0.000149067290018
9.29594296173e-05
0.0302103400869
0.0297520704699
0.0302746529185
2.32906001559e-05
2.69345150544e-05
4.59178578222e-05
2.67153699409e-05
0.031028745361
0.030885048024
0.0321325813878
6.58792251448e-05
0.000150063867573
4.1837599807e-05
0.00011517250231
0.0366823579886
0.0342041508726
0.0375867397556
0.000250396770042
0.000380129625999
0.000281488863006
0.000440393832732
0.0413138692028
0.0401465522159
0.0421925557083
0.000549790345501
0.000766131423493
0.000576003993323
0.000727981435256
0.0468120181993
0.0437227428968
0.0469046780759
0.00106619434875
0.00080755577569
0.00104786492254
0.000790688643347
0.0531788098205
0.0500842035727
0.0526005716709
0.000234000098468
0.000161085438522
0.000222060700954
0.000153539265209
0.0552859361851
0.0540475731834
0.0550012662451
0.000155587587691
0.000170451375522
0.000154294894407
0.000172012827035
0.0546988834269
0.0553375549806
0.0544514569909
0.000463047747527
0.00196661997267
0.000478485257941
0.00201394700342
0.0283898531921
0.0290807037464
0.0287250679067
0.000303690192382
0.000293802547379
0.000268959349436
0.000304628839319
0.0290356828655
0.0286081241891
0.0292069320715
0.000189459644396
0.000111271912298
0.000225847265818
0.000137337888803
0.0305179250113
0.0299061949691
0.0306015006053
5.74219765406e-05
3.38434921258e-05
8.13130083745e-05
5.32858383019e-05
0.0323071920089
0.031153539962
0.0317732194534
3.04055799154e-05
5.91814349874e-05
3.580184225e-05
5.3460735439e-05
0.0373191395599
0.0333111890801
0.0364981519133
0.000192304102462
0.000384849450223
0.000127463693932
0.000339692381413
0.0420713141901
0.0389671052298
0.0412708683287
0.00047215923797
0.000580205080247
0.000456222146366
0.000541371711929
0.0469099568929
0.0427858174908
0.0458626728521
0.000909037376042
0.000685897228792
0.000835961190462
0.000581067578646
0.0519556000162
0.0482228360185
0.0507609499894
0.000186667081117
0.000124881244124
0.000147347548876
0.000102850260706
0.0543363713917
0.0516495801455
0.0529932682288
0.000126033628059
0.000126322090543
0.000101887543216
9.64332805194e-05
0.0545901649301
0.0536172353241
0.0536890621555
0.000353166912791
0.0015164594835
0.000282219578906
0.00134102499035
0.02906458179
0.0284098183223
0.00021880035659
0.000134176646079
0.000134308990239
0.0302401738532
0.0289202790659
0.0297358246905
8.80120792981e-05
6.79196449546e-05
0.000125618878421
0.000138077594101
0.031422787824
0.0307819735811
0.031771788334
9.49246915787e-05
0.000127052521533
0.000173960583461
0.000194436239191
0.0358209362072
0.0331909430767
0.0353211448812
0.000166366694037
0.000325446395763
0.000221255326825
0.000327331264784
0.0402952167862
0.0379276741399
0.0396379434664
0.000419746665541
0.000478446600881
0.000393266300342
0.000449816941269
0.0441901054188
0.0403819961054
0.0426175460029
0.000784205613538
0.000515044234428
0.000766189677382
0.00048502973478
0.0490465204346
0.044464406905
0.0467927101566
0.000119398593627
8.57049758695e-05
0.000118663081041
8.70308964726e-05
0.0511665662588
0.047936315612
0.049208032274
8.22830511784e-05
7.25625867134e-05
8.73489266564e-05
7.78111998398e-05
0.0525394673942
0.0504907017635
0.0510923884518
0.000216569069823
0.0011485545427
0.000216875132646
0.00116191832615
0.0316592714291
0.031703911492
0.000197807948226
0.000220818890569
0.000202761868944
0.00025472863596
0.0351851834527
0.0334572212671
0.035587104037
0.00024069675403
0.000389359470108
0.000334909720721
0.000422814498417
0.0391700092307
0.0377908546207
0.0391065687337
0.000514720446219
0.000637339578904
0.000541665032522
0.000673356728017
0.041604963777
0.039593607754
0.0411879088744
0.000812809535222
0.000522214077078
0.000722248918774
0.000507849310603
0.0452303162157
0.0428555401937
0.044495874622
0.000134074195419
8.75714291024e-05
0.000164002742412
0.0001071931287
0.0476819406723
0.0457226555968
0.0467865329335
8.59877828412e-05
8.82552403868e-05
0.000111907973528
0.000125842342776
0.049056425991
0.0470683809109
0.0475572109087
0.000220997334087
0.00138341622963
0.000302747844824
0.0015621764578
0.0414390136875
0.000267996527389
0.0445755179673
0.000170202325459
0.000119713714812
0.000160757453306
0.00011614904819
0.0464442924414
0.000117532291937
0.000134913345543
0.000121448412444
0.000159893447082
0.0462657461385
0.000345975261765
0.00183518419916
0.00038000068852
0.00175391316121
0.999875526665
0.999878226249
0.911097833983
0.912439987378
0.999878292335
0.911745249901
0.999881452047
0.999846090557
0.999853452162
0.912878912505
0.913167685122
0.99985278976
0.999868418289
0.912391022399
0.999881926875
0.999876524422
0.916983490194
0.914232187272
0.999877962817
0.917053196751
0.999879320855
0.999900441154
0.999873528962
0.919598874934
0.92249852564
0.999887382057
0.919983439287
0.999872049223
0.999865836685
0.99984588289
0.914198456353
0.917491467957
0.999851072485
0.999847326396
0.917065479613
0.999874029511
0.999873499634
0.922626818385
0.919748098813
0.999906910814
0.999867970459
0.920278458526
0.99989610939
0.999894065505
0.930274763228
0.926035075553
0.999874609954
0.929334375556
0.999941481545
0.99993415494
1
0.93233959971
0.932833228238
0.999987054564
0.931619882051
0.999994892747
0.999883635821
0.999864260115
0.92513409291
0.926820947088
0.999898041094
0.999825125587
0.927402092329
0.999887007516
0.999786953254
0.932087311203
0.928987912724
0.999902790541
0.999782290624
0.929995435171
0.999993090728
1.00002540088
0.934151726413
0.933460906765
1
0.93397441533
1.00003024961
0.999993504471
0.999973707351
0.934612346596
0.93253884988
0.999984324108
0.934037328673
1
0.99997599555
0.999785231553
0.933243303432
0.931638414627
0.9999626305
0.999821309898
0.933976833967
0.99999074495
0.999836190517
0.929910830928
0.929608291815
0.999934372728
0.999852014494
0.932608106014
0.999783887966
0.999916981771
0.916265724904
0.925516410259
0.999903485486
0.914927478417
0.999765249179
0.999618133168
0.999338774116
0.901730261408
0.885718551436
0.999355549595
0.900476059224
0.999566260129
0.999684211696
0.999783328478
0.922287434333
0.907121200554
0.999817926786
0.999628690553
0.911421138491
0.999498118433
0.999226466015
0.884485824244
0.894383785387
0.9992680804
0.999438183149
0.898152343748
0.999052692938
0.999113663578
0.869321451205
0.876385751211
0.999133206073
0.868316680456
0.999070226437
0.998925445256
0.998958015282
0.869856639541
0.871259086797
0.998910292281
0.86891507835
0.998939901242
0.999059675856
0.999026493083
0.876041268191
0.869326093244
0.999097650151
0.998979467864
0.868685415315
0.998944085643
0.998913311605
0.871253597233
0.87005580301
0.998950024202
0.998896794887
0.869272747299
0.998845789463
0.998977593008
0.874210955219
0.872083919431
0.998904901478
0.873019561242
0.998945768648
0.998703863371
0.998803819833
0.87581071122
0.877693439802
0.998621072241
0.874673715613
0.998834754383
0.998872590616
0.998932673083
0.872085204347
0.873328926642
0.998939265872
0.998917023432
0.873003025454
0.998777651649
0.998809952876
0.877554396561
0.874754020908
0.99876172915
0.998833516701
0.874584146986
0.998629401984
0.998827964486
0.882802157215
0.880254142493
0.998623738562
0.881594276761
0.998881170809
0.998642665724
0.998969071791
0.882945969998
0.882752046995
0.998679813752
0.882126551593
0.998915723606
0.99881105011
0.998832896561
0.87991452199
0.880759878091
0.998775544256
0.99885273718
0.881219772278
0.998827991926
0.998893397738
0.882041891678
0.880977357472
0.998857599844
0.998866120646
0.881608848778
0.998587586727
0.998968192798
0.881036044165
0.884284042566
0.998711550587
0.880179624292
0.998833560079
0.998120253077
0.998543257183
0.858228569929
0.859386320528
0.857500071655
0.99841797462
0.998312950915
0.998723528842
0.998899858166
0.882564659661
0.876882809921
0.998867984741
0.998743659619
0.87800031743
0.998254398936
0.998479068297
0.858574650573
0.854089461098
0.998236378248
0.855117884755
0.998521850046
0.999860930357
0.999933105507
0.92868829423
0.931619309818
0.999915927968
0.927509824053
0.9998733016
0.999855953403
0.99989007783
0.923236214514
0.922543708639
0.999911776141
0.999861344346
0.92530801047
0.999844860328
0.99982794164
0.931615981848
0.930213303725
0.999832560436
0.928460863294
0.999844274549
0.999845877699
0.999870445247
0.925234169858
0.928003590133
0.999842853712
0.999852101958
0.926840831625
0.999808745656
0.999841024916
0.915588737128
0.918979663687
0.999800327154
0.999825051969
0.918243429349
0.999803039905
0.999796867381
0.915174999
0.91832478345
0.99979213568
0.999806768174
0.918349532203
0.999792984632
0.999865694489
0.922071258128
0.924327102295
0.999809986015
0.999850824365
0.921051936921
0.99979733846
0.999852997681
0.920809741307
0.922938285673
0.999800298734
0.999853392247
0.921093177507
0.999801968231
0.999799182681
0.918144941204
0.918456541811
0.999803949006
0.999798736986
0.91911086323
0.999801445367
0.999849886972
0.91997612337
0.922029728784
0.99983069559
0.999803091407
0.920484148516
0.999785203349
0.999844052205
0.920586014358
0.922252689903
0.999797079447
0.999827193233
0.920808311088
0.999772630174
0.999801544663
0.922464842585
0.922306059646
0.999770483206
0.999814030821
0.921486799445
0.999788757884
0.99984190953
0.925688211149
0.923508262435
0.99981395799
0.999806778122
0.924720964799
0.99973002359
0.999595129153
0.927319920585
0.926564553593
0.999734826139
0.999612790185
0.925634036262
0.999754331896
0.999784380869
0.923397832791
0.923750438163
0.999770698351
0.999769728747
0.924221042069
0.999722963826
0.999710765524
0.925565403364
0.924199492865
0.999670090096
0.999743247069
0.924824858938
0.999411390239
0.999518974109
0.927057373464
0.926452717832
0.9994779652
0.999460423437
0.925181206987
0.999389198998
0.999530051314
0.924291161491
0.916412209316
0.999467872828
0.99937398494
0.921594951961
0.999505825791
0.999674185014
0.925328428416
0.924605888385
0.99959245505
0.999623003392
0.923838465291
0.999439779214
0.999382746612
0.913753870299
0.920222925142
0.99937102165
0.999520910499
0.91970305903
0.99926865018
0.999529083375
0.903403769534
0.909022711172
0.999449843218
0.999341748841
0.899942628845
0.999136202115
0.999097557456
0.892270395842
0.880283151626
0.999300528179
0.998948050331
0.889954686319
0.999158785913
0.999253636943
0.90611777569
0.895271516244
0.99928915438
0.999089061916
0.896890390884
0.999009831483
0.998779609396
0.879045576127
0.886080706424
0.998835740322
0.998930921964
0.887782933247
0.998809007369
0.998920866565
0.870603816901
0.874778350031
0.998905481965
0.998809261394
0.870802344606
0.998773476483
0.998887393243
0.871160717204
0.872875714222
0.998849893518
0.998828110681
0.871518357318
0.998749620894
0.998653475696
0.874492472343
0.870727443226
0.99871698915
0.998700154462
0.871082211543
0.998769942483
0.998833776115
0.872963822534
0.871161031783
0.998841650405
0.998748100841
0.871654155766
0.998907933667
0.998913698494
0.873488823401
0.87338222093
0.998895380978
0.998896015068
0.874105495351
0.998911357315
0.998824193898
0.874799739007
0.877781663762
0.998832578272
0.99891311442
0.875373094146
0.998922811525
0.998939784493
0.873695870028
0.875080153544
0.998911212793
0.998990791821
0.874565552953
0.998915136779