/*--------------------------------*- C++ -*----------------------------------*\
| =========                 |                                                 |
| \\      /  F ield         | OpenFOAM: The Open Source CFD Toolbox           |
|  \\    /   O peration     | Version:  v1906                                 |
|   \\  /    A nd           | Web:      www.OpenFOAM.com                      |
|    \\/     M anipulation  |                                                 |
\*---------------------------------------------------------------------------*/
FoamFile
{
    version     2.0;
    format      ascii;
    class       volVectorField;
    location    "0.25";
    object      force.turbine;
}
// * * * * * * * * * * * * * * * * * * * * * * * * * * * * * * * * * * * * * //

dimensions      [1 -2 -2 0 0 0 0];


internalField   nonuniform List<vector> 
28582
(
(0 0 0)
(0 0 0)
(0 0 0)
(0 0 0)
(0 0 0)
(0 0 0)
(0 0 0)
(0 0 0)
(0 0 0)
(0 0 0)
(0 0 0)
(0 0 0)
(0 0 0)
(0 0 0)
(0 0 0)
(0 0 0)
(0 0 0)
(0 0 0)
(0 0 0)
(0 0 0)
(0 0 0)
(0 0 0)
(0 0 0)
(0 0 0)
(0 0 0)
(0 0 0)
(0 0 0)
(0 0 0)
(0 0 0)
(0 0 0)
(0 0 0)
(0 0 0)
(0 0 0)
(0 0 0)
(0 0 0)
(0 0 0)
(0 0 0)
(0 0 0)
(0 0 0)
(0 0 0)
(0 0 0)
(0 0 0)
(0 0 0)
(0 0 0)
(0 0 0)
(0 0 0)
(0 0 0)
(0 0 0)
(0 0 0)
(0 0 0)
(0 0 0)
(0 0 0)
(0 0 0)
(0 0 0)
(0 0 0)
(0 0 0)
(0 0 0)
(0 0 0)
(0 0 0)
(0 0 0)
(0 0 0)
(0 0 0)
(0 0 0)
(0 0 0)
(0 0 0)
(0 0 0)
(0 0 0)
(0 0 0)
(0 0 0)
(0 0 0)
(0 0 0)
(0 0 0)
(0 0 0)
(0 0 0)
(0 0 0)
(0 0 0)
(0 0 0)
(0 0 0)
(0 0 0)
(0 0 0)
(0 0 0)
(0 0 0)
(0 0 0)
(0 0 0)
(0 0 0)
(0 0 0)
(0 0 0)
(0 0 0)
(0 0 0)
(0 0 0)
(0 0 0)
(0 0 0)
(0 0 0)
(0 0 0)
(0 0 0)
(0 0 0)
(0 0 0)
(0 0 0)
(0 0 0)
(0 0 0)
(0 0 0)
(0 0 0)
(0 0 0)
(0 0 0)
(0 0 0)
(0 0 0)
(0 0 0)
(0 0 0)
(0 0 0)
(0 0 0)
(0 0 0)
(0 0 0)
(0 0 0)
(0 0 0)
(0 0 0)
(0 0 0)
(0 0 0)
(0 0 0)
(0 0 0)
(0 0 0)
(0 0 0)
(0 0 0)
(0 0 0)
(0 0 0)
(0 0 0)
(0 0 0)
(0 0 0)
(0 0 0)
(0 0 0)
(0 0 0)
(0 0 0)
(0 0 0)
(0 0 0)
(0 0 0)
(0 0 0)
(0 0 0)
(0 0 0)
(0 0 0)
(0 0 0)
(0 0 0)
(0 0 0)
(0 0 0)
(0 0 0)
(0 0 0)
(0 0 0)
(0 0 0)
(0 0 0)
(0 0 0)
(0 0 0)
(0 0 0)
(0 0 0)
(0 0 0)
(0 0 0)
(0 0 0)
(0 0 0)
(0 0 0)
(0 0 0)
(0 0 0)
(0 0 0)
(0 0 0)
(0 0 0)
(0 0 0)
(0 0 0)
(0 0 0)
(0 0 0)
(0 0 0)
(0 0 0)
(0 0 0)
(0 0 0)
(0 0 0)
(0 0 0)
(0 0 0)
(0 0 0)
(0 0 0)
(0 0 0)
(0 0 0)
(0 0 0)
(0 0 0)
(0 0 0)
(0 0 0)
(0 0 0)
(0 0 0)
(0 0 0)
(0 0 0)
(0 0 0)
(0 0 0)
(0 0 0)
(0 0 0)
(0 0 0)
(0 0 0)
(0 0 0)
(0 0 0)
(0 0 0)
(0 0 0)
(0 0 0)
(0 0 0)
(0 0 0)
(0 0 0)
(0 0 0)
(0 0 0)
(0 0 0)
(0 0 0)
(0 0 0)
(0 0 0)
(0 0 0)
(0 0 0)
(0 0 0)
(0 0 0)
(0 0 0)
(0 0 0)
(0 0 0)
(0 0 0)
(0 0 0)
(0 0 0)
(0 0 0)
(0 0 0)
(0 0 0)
(-0.000298752907779 -1.16910710041e-06 0)
(0 0 0)
(0 0 0)
(0 0 0)
(0 0 0)
(-2.58766675639e-05 -1.40865640682e-07 0)
(0 0 0)
(-2.65827392555e-06 -1.78066302992e-08 0)
(0 0 0)
(0 0 0)
(0 0 0)
(0 0 0)
(0 0 0)
(0 0 0)
(0 0 0)
(0 0 0)
(0 0 0)
(0 0 0)
(0 0 0)
(0 0 0)
(-0.0186794412101 -5.26226091564e-05 0)
(0 0 0)
(0 0 0)
(0 0 0)
(-0.0347493612169 -0.000120519335861 0)
(0 0 0)
(0 0 0)
(-0.0553883140544 -0.00113198920853 0.00459277180044)
(-0.636219678217 -0.026858854848 0.116210745363)
(-0.0944060175454 -0.000327423300384 0)
(-0.913441326949 -0.00310145024935 0)
(-0.00656496488503 -2.74288201175e-05 0)
(-0.0945392941727 -0.000327885536524 0)
(0 0 0)
(0 0 0)
(0 0 0)
(0 0 0)
(0 0 0)
(-0.0186794452192 -5.26226204506e-05 0)
(0 0 0)
(0 0 0)
(0 0 0)
(-0.0347034568664 -0.000120360128277 0)
(0 0 0)
(0 0 0)
(0 0 0)
(0 0 0)
(0 0 0)
(0 0 0)
(0 0 0)
(0 0 0)
(-1.50452985778e-05 -7.38625601815e-08 0)
(0 0 0)
(-9.12543282818e-06 -4.47998973214e-08 0)
(-0.000130410790618 -5.86345648739e-07 0)
(-0.000584461523776 -2.62782297153e-06 0)
(-7.90991329071e-05 -3.55641064511e-07 0)
(-0.000354496464815 -1.59386703088e-06 0)
(0 0 0)
(0 0 0)
(-2.17930466496e-05 -9.8074608284e-08 0)
(0 0 0)
(0 0 0)
(0 0 0)
(0 0 0)
(0 0 0)
(0 0 0)
(-0.00105754908378 -4.13849743614e-06 0)
(-3.67025722616e-05 -1.4905169832e-07 0)
(-0.000211197616985 -8.26477758636e-07 0)
(-2.81010036452e-05 -1.28808358741e-07 0)
(-0.000130418823599 -5.86381766176e-07 0)
(-3.63357198814e-06 -2.43397312957e-08 0)
(-2.81010018996e-05 -1.2880835074e-07 0)
(0 0 0)
(0 0 0)
(0 0 0)
(0 0 0)
(0 0 0)
(-1.835996442e-05 -8.26248090753e-08 0)
(0 0 0)
(0 0 0)
(0 0 0)
(0 0 0)
(0 0 0)
(0 0 0)
(0 0 0)
(0 0 0)
(0 0 0)
(0 0 0)
(0 0 0)
(0 0 0)
(0 0 0)
(0 0 0)
(0 0 0)
(0 0 0)
(0 0 0)
(0 0 0)
(0 0 0)
(0 0 0)
(-0.00533901852311 -2.11488954198e-05 0)
(0 0 0)
(0 0 0)
(0 0 0)
(0 0 0)
(0 0 0)
(-0.00511645178151 -2.13768448137e-05 0)
(0 0 0)
(0 0 0)
(0 0 0)
(0 0 0)
(0 0 0)
(0 0 0)
(0 0 0)
(0 0 0)
(0 0 0)
(0 0 0)
(0 0 0)
(0 0 0)
(0 0 0)
(0 0 0)
(0 0 0)
(0 0 0)
(0 0 0)
(0 0 0)
(0 0 0)
(0 0 0)
(0 0 0)
(0 0 0)
(-0.0408217229623 -0.00013012513211 0)
(-0.00992541386958 -3.637135853e-05 0)
(-0.0163831366045 -6.00354749051e-05 0)
(-0.0111108250004 -3.79014975038e-05 0)
(-0.0218503249684 -6.96510636205e-05 0)
(0 0 0)
(0 0 0)
(0 0 0)
(0 0 0)
(0 0 0)
(0 0 0)
(0 0 0)
(0 0 0)
(0 0 0)
(0 0 0)
(-0.00578964869173 -2.41895021969e-05 0)
(0 0 0)
(-0.00865312050082 -2.95177203357e-05 0)
(0 0 0)
(0 0 0)
(-0.147629744087 -0.000452119550075 0)
(-0.114974149984 -0.000352111028048 0)
(-0.230871971387 -0.000783890450432 0)
(-0.0506215100195 -0.000175567853744 0)
(-0.275808771129 -0.000844670823493 0)
(-0.0593953463572 -0.000189331236669 0)
(-0.121451321982 -0.000421223071508 0)
(-0.312532857978 -0.000957139199872 0)
(-1.16603584285 -0.00729485784868 0.0173564898202)
(-0.489319119794 -0.00166140819484 0)
(-0.48930939517 -0.00166137517637 0)
(-0.583887052952 -0.00178816777952 0)
(-0.261960384964 -0.000889446401536 0)
(-0.605141353451 -0.00280729603927 0.00447341519379)
(-0.0697354709783 -0.0002135665137 0)
(-0.00980528396477 -3.34480063992e-05 0)
(-0.0238941368204 -8.28707463884e-05 0)
(-0.0238790874773 -8.28185515632e-05 0)
(-0.0280563647348 -8.94337108457e-05 0)
(-0.0280563615253 -8.94337006148e-05 0)
(-0.0573103031262 -0.000198766234224 0)
(-0.147629741084 -0.000452119540878 0)
(-0.114974283489 -0.000352111436911 0)
(-0.230506071741 -0.000782648094176 0)
(-0.0505762051898 -0.000175410725446 0)
(-0.0593953223237 -0.000189331160059 0)
(-0.121075567285 -0.000419919861751 0)
(-0.275808502138 -0.000844669999701 0)
(0 0 0)
(0 0 0)
(0 0 0)
(0 0 0)
(0 0 0)
(0 0 0)
(0 0 0)
(0 0 0)
(0 0 0)
(0 0 0)
(0 0 0)
(0 0 0)
(0 0 0)
(0 0 0)
(0 0 0)
(0 0 0)
(0 0 0)
(0 0 0)
(0 0 0)
(0 0 0)
(0 0 0)
(0 0 0)
(0 0 0)
(-0.00577402215635 -2.41242135875e-05 0)
(0 0 0)
(-0.00865312426072 -2.95177331616e-05 0)
(0 0 0)
(0 0 0)
(0 0 0)
(-0.0408217521102 -0.000130125225023 0)
(-0.0163252273731 -5.98232683969e-05 0)
(-0.0099226658999 -3.63612886839e-05 0)
(-0.0218503040702 -6.96509970045e-05 0)
(0 0 0)
(-0.011110837112 -3.79015388191e-05 0)
(0 0 0)
(0 0 0)
(0 0 0)
(0 0 0)
(0 0 0)
(0 0 0)
(0 0 0)
(0 0 0)
(0 0 0)
(0 0 0)
(0 0 0)
(0 0 0)
(0 0 0)
(0 0 0)
(0 0 0)
(0 0 0)
(0 0 0)
(0 0 0)
(0 0 0)
(0 0 0)
(0 0 0)
(0 0 0)
(0 0 0)
(0 0 0)
(0 0 0)
(0 0 0)
(0 0 0)
(0 0 0)
(0 0 0)
(0 0 0)
(0 0 0)
(0 0 0)
(0 0 0)
(0 0 0)
(0 0 0)
(0 0 0)
(-0.0200444706832 8.02910596112e-06 0)
(0 0 0)
(0 0 0)
(0 0 0)
(0 0 0)
(0 0 0)
(0 0 0)
(0 0 0)
(-0.00447252045077 1.7915334947e-06 0)
(0 0 0)
(0 0 0)
(0 0 0)
(0 0 0)
(0 0 0)
(0 0 0)
(0 0 0)
(0 0 0)
(0 0 0)
(0 0 0)
(0 0 0)
(0 0 0)
(0 0 0)
(0 0 0)
(0 0 0)
(0 0 0)
(0 0 0)
(0 0 0)
(0 0 0)
(0 0 0)
(0 0 0)
(0 0 0)
(0 0 0)
(0 0 0)
(0 0 0)
(0 0 0)
(0 0 0)
(-0.430792269984 -4.53834722877e-05 0)
(-0.0102911814174 4.1222832656e-06 0)
(0 0 0)
(0 0 0)
(0 0 0)
(0 0 0)
(0 0 0)
(0 0 0)
(-0.0949710657798 -8.41012894351e-06 0)
(0 0 0)
(0 0 0)
(0 0 0)
(0 0 0)
(0 0 0)
(0 0 0)
(0 0 0)
(0 0 0)
(0 0 0)
(0 0 0)
(0 0 0)
(0 0 0)
(0 0 0)
(0 0 0)
(0 0 0)
(0 0 0)
(0 0 0)
(0 0 0)
(0 0 0)
(0 0 0)
(0 0 0)
(0 0 0)
(0 0 0)
(0 0 0)
(0 0 0)
(0 0 0)
(0 0 0)
(-1.9648473501 -0.00226398643014 0)
(-0.0563450582248 -5.50943250532e-05 0)
(0 0 0)
(0 0 0)
(0 0 0)
(0 0 0)
(0 0 0)
(0 0 0)
(-0.430100805866 -0.000499295892996 0)
(-0.0090627049148 -5.54721251926e-06 0)
(0 0 0)
(0 0 0)
(0 0 0)
(0 0 0)
(0 0 0)
(0 0 0)
(0 0 0)
(0 0 0)
(0 0 0)
(0 0 0)
(0 0 0)
(0 0 0)
(0 0 0)
(0 0 0)
(0 0 0)
(0 0 0)
(0 0 0)
(0 0 0)
(0 0 0)
(0 0 0)
(0 0 0)
(0 0 0)
(0 0 0)
(0 0 0)
(0 0 0)
(0 0 0)
(0 0 0)
(0 0 0)
(0 0 0)
(0 0 0)
(0 0 0)
(0 0 0)
(0 0 0)
(-3.01646681903 -0.0077120734028 0)
(-0.0910894162359 -0.000232884465958 0)
(0 0 0)
(0 0 0)
(0 0 0)
(0 0 0)
(0 0 0)
(0 0 0)
(-3.01646728471 -0.0077120745934 0)
(-0.673064381207 -0.00172079529599 0)
(-0.018679440945 -5.26226084097e-05 0)
(0 0 0)
(0 0 0)
(0 0 0)
(0 0 0)
(0 0 0)
(0 0 0)
(-0.055248529363 -0.000141251583196 0)
(-0.0910894247198 -0.000232884487648 0)
(-0.0186794418544 -5.26226109717e-05 0)
(0 0 0)
(0 0 0)
(0 0 0)
(0 0 0)
(0 0 0)
(0 0 0)
(0 0 0)
(0 0 0)
(0 0 0)
(0 0 0)
(0 0 0)
(0 0 0)
(0 0 0)
(0 0 0)
(0 0 0)
(0 0 0)
(0 0 0)
(0 0 0)
(0 0 0)
(0 0 0)
(0 0 0)
(0 0 0)
(0 0 0)
(0 0 0)
(0 0 0)
(0 0 0)
(-0.00228753691517 -8.88260536331e-06 0)
(-9.0499151984e-05 -3.54149527622e-07 0)
(0 0 0)
(0 0 0)
(0 0 0)
(0 0 0)
(0 0 0)
(0 0 0)
(-0.0025567693887 -9.92804677128e-06 0)
(-0.00281589666738 -1.0934249268e-05 0)
(-0.000512945034643 -2.00730324796e-06 0)
(-1.14046652902e-05 -5.13240805165e-08 0)
(0 0 0)
(0 0 0)
(0 0 0)
(0 0 0)
(0 0 0)
(0 0 0)
(-6.49521255415e-05 -2.63775098716e-07 0)
(-0.000114691804254 -4.48822418863e-07 0)
(-2.13474750735e-05 -9.60694155959e-08 0)
(0 0 0)
(0 0 0)
(0 0 0)
(0 0 0)
(0 0 0)
(0 0 0)
(0 0 0)
(0 0 0)
(0 0 0)
(0 0 0)
(0 0 0)
(0 0 0)
(0 0 0)
(0 0 0)
(0 0 0)
(0 0 0)
(0 0 0)
(0 0 0)
(0 0 0)
(0 0 0)
(0 0 0)
(0 0 0)
(0 0 0)
(0 0 0)
(0 0 0)
(0 0 0)
(-0.000202009683401 -1.06391329517e-06 0)
(-0.000202009664716 -1.06391319676e-06 0)
(-2.58766678322e-05 -1.40865642142e-07 0)
(0 0 0)
(0 0 0)
(0 0 0)
(0 0 0)
(0 0 0)
(0 0 0)
(0 0 0)
(-2.5876668139e-05 -1.40865643812e-07 0)
(-2.5876668217e-05 -1.40865644237e-07 0)
(-2.65827383943e-06 -1.78066297223e-08 0)
(0 0 0)
(0 0 0)
(0 0 0)
(0 0 0)
(0 0 0)
(0 0 0)
(0 0 0)
(0 0 0)
(0 0 0)
(0 0 0)
(0 0 0)
(0 0 0)
(0 0 0)
(0 0 0)
(0 0 0)
(0 0 0)
(0 0 0)
(0 0 0)
(0 0 0)
(0 0 0)
(0 0 0)
(0 0 0)
(0 0 0)
(0 0 0)
(0 0 0)
(0 0 0)
(0 0 0)
(0 0 0)
(0 0 0)
(0 0 0)
(0 0 0)
(0 0 0)
(0 0 0)
(0 0 0)
(0 0 0)
(0 0 0)
(-0.00447252591612 1.79153568392e-06 0)
(-0.0121575731293 4.86989376911e-06 0)
(-0.00271272146938 1.08662026875e-06 0)
(-0.116397684678 2.16780219778e-05 0)
(-0.0236797482444 9.48526956841e-06 0)
(-0.0705987403903 1.31483804856e-05 0)
(-0.0143624783895 5.75310082646e-06 0)
(0 0 0)
(0 0 0)
(0 0 0)
(-0.00320470327222 1.28369077703e-06 0)
(0 0 0)
(0 0 0)
(0 0 0)
(0 0 0)
(0 0 0)
(0 0 0)
(-0.0236797109369 9.48525462438e-06 0)
(-0.00528366424509 2.11644900767e-06 0)
(-0.00528366503683 2.11644932482e-06 0)
(0 0 0)
(0 0 0)
(0 0 0)
(0 0 0)
(0 0 0)
(0 0 0)
(0 0 0)
(0 0 0)
(-0.094971107632 -8.41013264973e-06 0)
(-0.261288516159 -2.75264459425e-05 0)
(-0.0576028723942 -5.10100187225e-06 0)
(-1.06450451928 -0.000583774054164 0)
(-0.235322550507 -0.000115516568652 0)
(-0.645654409206 -0.000354076742019 0)
(-0.142730298155 -7.00643191656e-05 0)
(0 0 0)
(-0.00624190880565 2.50028788449e-06 0)
(0 0 0)
(-0.0306958059653 -1.39171727731e-05 0)
(0 0 0)
(-0.0166219902702 -4.18364597291e-06 0)
(0 0 0)
(-0.020166152709 3.09342648392e-07 0)
(-0.0201661641617 3.09342824073e-07 0)
(-0.00378591240371 1.51650259712e-06 0)
(-0.235322296308 -0.000115516443869 0)
(-0.0506088285807 -2.29455389442e-05 0)
(-0.0506088393862 -2.29455438434e-05 0)
(-0.0100817500236 -2.53751038236e-06 0)
(0 0 0)
(0 0 0)
(0 0 0)
(-0.00447252377013 1.79153482432e-06 0)
(0 0 0)
(0 0 0)
(0 0 0)
(-0.430100844328 -0.000499295937646 0)
(-1.16913489704 -0.00135722659546 0)
(-0.260869350803 -0.000302838296716 0)
(-2.762119322 -0.00510252037474 0)
(-0.607996524539 -0.00113265892672 0)
(-1.65270516218 -0.00307888479559 0)
(-0.368768392094 -0.000686992103307 0)
(0 0 0)
(-0.0341749786648 -3.34163712412e-05 0)
(0 0 0)
(-0.0822833559588 -0.000153288668414 0)
(0 0 0)
(-0.0499073795685 -9.29742797793e-05 0)
(0 0 0)
(-0.0959684326446 -0.000111407938844 0)
(-0.09596847391 -0.000111407986748 0)
(-0.0188294770539 -1.74383828e-05 0)
(-0.607996208163 -0.00113265833733 0)
(-0.135662353025 -0.000252730351196 0)
(-0.13566234019 -0.000252730327285 0)
(-0.0302703614053 -5.63917615922e-05 0)
(0 0 0)
(0 0 0)
(0 0 0)
(-0.016783073172 -2.36408660367e-05 0)
(0 0 0)
(0 0 0)
(0 0 0)
(-8.47498329477 -0.0211578846495 0)
(-5.01058005858 -0.0127413517205 0)
(-5.22446648404 -0.01773887649 0)
(-2.47123388097 -0.00839069649053 0)
(-0.673064486592 -0.00172079556542 0)
(-1.82957929106 -0.00467760815397 0)
(-0.408234287119 -0.00104371537188 0)
(-3.16678986231 -0.0107523503901 0)
(-0.33516920395 -0.00113801574387 0)
(-1.4990009136 -0.00508962822255 0)
(-0.158407267261 -0.000537847636244 0)
(0 0 0)
(-0.055248498119 -0.000141251503315 0)
(0 0 0)
(-0.120837713879 -0.000419094927609 0)
(0 0 0)
(-0.0571545121667 -0.000198225912839 0)
(0 0 0)
(0 0 0)
(0 0 0)
(0 0 0)
(0 0 0)
(0 0 0)
(0 0 0)
(0 0 0)
(0 0 0)
(0 0 0)
(0 0 0)
(0 0 0)
(0 0 0)
(0 0 0)
(0 0 0)
(0 0 0)
(0 0 0)
(0 0 0)
(0 0 0)
(0 0 0)
(0 0 0)
(0 0 0)
(0 0 0)
(0 0 0)
(0 0 0)
(0 0 0)
(0 0 0)
(0 0 0)
(0 0 0)
(0 0 0)
(0 0 0)
(0 0 0)
(0 0 0)
(0 0 0)
(0 0 0)
(0 0 0)
(0 0 0)
(0 0 0)
(0 0 0)
(0 0 0)
(0 0 0)
(0 0 0)
(0 0 0)
(-0.894272965163 -0.0275186071607 0.116210737835)
(-0.69494305062 -0.00276711200055 0.00459277268239)
(-1.50128338583 -0.00509737800773 0)
(-3.17341444424 -0.0107748431443 0)
(-0.158700993584 -0.000538844939025 0)
(-0.336023317078 -0.0011409157543 0)
(-1.82957822125 -0.00467760541884 0)
(-0.673064314381 -0.00172079512513 0)
(-0.408234349029 -0.00104371553017 0)
(-3.17217648631 -0.0107706398476 0)
(-1.49848404245 -0.00508787326563 0)
(-0.335547836051 -0.00113930133123 0)
(-0.158446761959 -0.000537981734446 0)
(-0.150181002912 -0.000383961431586 0)
(-0.150181012034 -0.000383961454908 0)
(-0.0335099214716 -8.56734019022e-05 0)
(-0.909055347026 -0.00308655832567 0)
(-0.0942885274813 -0.000327015815929 0)
(-0.0941685617845 -0.000326599745372 0)
(-0.00655019222565 -2.73670990536e-05 0)
(0 0 0)
(0 0 0)
(0 0 0)
(-0.0346825314815 -0.000120287553893 0)
(0 0 0)
(0 0 0)
(0 0 0)
(0 0 0)
(0 0 0)
(0 0 0)
(0 0 0)
(0 0 0)
(0 0 0)
(0 0 0)
(0 0 0)
(0 0 0)
(0 0 0)
(0 0 0)
(0 0 0)
(0 0 0)
(0 0 0)
(0 0 0)
(0 0 0)
(0 0 0)
(0 0 0)
(0 0 0)
(0 0 0)
(0 0 0)
(0 0 0)
(0 0 0)
(0 0 0)
(0 0 0)
(0 0 0)
(0 0 0)
(0 0 0)
(0 0 0)
(0 0 0)
(0 0 0)
(0 0 0)
(0 0 0)
(0 0 0)
(0 0 0)
(0 0 0)
(0 0 0)
(0 0 0)
(0 0 0)
(0 0 0)
(0 0 0)
(0 0 0)
(-0.0910894161901 -0.000232884465841 0)
(0 0 0)
(0 0 0)
(-0.0570965811694 -0.000198024993885 0)
(-0.120907530456 -0.000419337068679 0)
(0 0 0)
(0 0 0)
(-0.0552485143495 -0.000141251544811 0)
(0 0 0)
(0 0 0)
(-0.120664713044 -0.000418494918142 0)
(-0.0571110172337 -0.000198075061708 0)
(0 0 0)
(0 0 0)
(0 0 0)
(0 0 0)
(0 0 0)
(-0.034557475933 -0.000119853830477 0)
(0 0 0)
(0 0 0)
(0 0 0)
(0 0 0)
(0 0 0)
(0 0 0)
(0 0 0)
(0 0 0)
(0 0 0)
(0 0 0)
(0 0 0)
(0 0 0)
(0 0 0)
(0 0 0)
(0 0 0)
(0 0 0)
(0 0 0)
(0 0 0)
(0 0 0)
(0 0 0)
(0 0 0)
(0 0 0)
(0 0 0)
(0 0 0)
(0 0 0)
(0 0 0)
(0 0 0)
(0 0 0)
(0 0 0)
(0 0 0)
(0 0 0)
(0 0 0)
(0 0 0)
(0 0 0)
(0 0 0)
(0 0 0)
(0 0 0)
(0 0 0)
(0 0 0)
(0 0 0)
(0 0 0)
(0 0 0)
(0 0 0)
(0 0 0)
(0 0 0)
(0 0 0)
(0 0 0)
(0 0 0)
(0 0 0)
(0 0 0)
(0 0 0)
(0 0 0)
(0 0 0)
(0 0 0)
(0 0 0)
(0 0 0)
(0 0 0)
(0 0 0)
(0 0 0)
(0 0 0)
(0 0 0)
(0 0 0)
(0 0 0)
(0 0 0)
(0 0 0)
(0 0 0)
(0 0 0)
(0 0 0)
(0 0 0)
(0 0 0)
(0 0 0)
(0 0 0)
(0 0 0)
(0 0 0)
(0 0 0)
(0 0 0)
(0 0 0)
(0 0 0)
(0 0 0)
(0 0 0)
(0 0 0)
(0 0 0)
(0 0 0)
(0 0 0)
(0 0 0)
(0 0 0)
(0 0 0)
(0 0 0)
(0 0 0)
(0 0 0)
(0 0 0)
(0 0 0)
(0 0 0)
(0 0 0)
(0 0 0)
(0 0 0)
(0 0 0)
(0 0 0)
(0 0 0)
(0 0 0)
(0 0 0)
(0 0 0)
(0 0 0)
(0 0 0)
(0 0 0)
(0 0 0)
(0 0 0)
(0 0 0)
(0 0 0)
(0 0 0)
(0 0 0)
(0 0 0)
(0 0 0)
(0 0 0)
(0 0 0)
(0 0 0)
(0 0 0)
(0 0 0)
(0 0 0)
(0 0 0)
(0 0 0)
(0 0 0)
(0 0 0)
(0 0 0)
(0 0 0)
(0 0 0)
(0 0 0)
(0 0 0)
(0 0 0)
(0 0 0)
(0 0 0)
(0 0 0)
(0 0 0)
(0 0 0)
(0 0 0)
(0 0 0)
(0 0 0)
(0 0 0)
(0 0 0)
(0 0 0)
(0 0 0)
(0 0 0)
(0 0 0)
(0 0 0)
(0 0 0)
(0 0 0)
(0 0 0)
(0 0 0)
(0 0 0)
(0 0 0)
(0 0 0)
(0 0 0)
(0 0 0)
(0 0 0)
(0 0 0)
(0 0 0)
(0 0 0)
(0 0 0)
(0 0 0)
(0 0 0)
(0 0 0)
(0 0 0)
(0 0 0)
(0 0 0)
(0 0 0)
(0 0 0)
(0 0 0)
(0 0 0)
(0 0 0)
(0 0 0)
(0 0 0)
(0 0 0)
(0 0 0)
(-0.00159144881898 -7.14208001883e-06 0)
(-0.00262395797769 -1.17757590563e-05 0)
(-0.000963677795771 -4.33283380661e-06 0)
(-0.00159148108257 -7.14222481089e-06 0)
(-0.00554561761978 -2.15338744856e-05 0)
(-0.00448467974261 -1.74142065513e-05 0)
(-0.00262384841747 -1.17752673736e-05 0)
(-0.00159146206772 -7.14213947632e-06 0)
(-0.00159144751606 -7.14207417161e-06 0)
(-0.000963612125916 -4.33253854551e-06 0)
(-0.000524934780785 -2.05422261504e-06 0)
(-0.00109327426231 -4.24523152462e-06 0)
(-0.000225555284438 -8.82663491149e-07 0)
(-0.000584461367417 -2.62782226851e-06 0)
(-0.000130410745684 -5.86345446709e-07 0)
(-0.000354495490108 -1.59386264846e-06 0)
(-7.90983871731e-05 -3.55637711584e-07 0)
(0 0 0)
(-2.69117928386e-05 -1.09290662214e-07 0)
(0 0 0)
(-1.50452960223e-05 -7.38625476358e-08 0)
(0 0 0)
(-9.12544266649e-06 -4.47999456211e-08 0)
(0 0 0)
(0 0 0)
(0 0 0)
(0 0 0)
(0 0 0)
(0 0 0)
(0 0 0)
(0 0 0)
(0 0 0)
(0 0 0)
(0 0 0)
(0 0 0)
(0 0 0)
(0 0 0)
(0 0 0)
(0 0 0)
(0 0 0)
(0 0 0)
(0 0 0)
(0 0 0)
(0 0 0)
(0 0 0)
(0 0 0)
(0 0 0)
(0 0 0)
(0 0 0)
(0 0 0)
(0 0 0)
(0 0 0)
(0 0 0)
(0 0 0)
(0 0 0)
(0 0 0)
(0 0 0)
(0 0 0)
(0 0 0)
(0 0 0)
(0 0 0)
(0 0 0)
(0 0 0)
(0 0 0)
(0 0 0)
(0 0 0)
(-0.00281159091695 -1.09175298518e-05 0)
(-0.000381713743779 -1.49375700305e-06 0)
(-0.000780631676366 -3.05483900535e-06 0)
(-0.000354496877632 -1.59386888697e-06 0)
(-0.000584469043505 -2.62785678131e-06 0)
(-7.9099799822e-05 -3.55644063056e-07 0)
(-0.000130410744067 -5.86345439438e-07 0)
(-0.00111748033344 -4.33922475191e-06 0)
(-0.000558649580329 -2.18615844063e-06 0)
(-0.00046157432752 -1.80627471606e-06 0)
(-0.000584464021973 -2.62783420378e-06 0)
(-0.000354495585042 -1.5938630753e-06 0)
(-0.000130412695074 -5.86354211445e-07 0)
(-7.90981113236e-05 -3.55636471324e-07 0)
(-9.24106213622e-05 -3.61629663761e-07 0)
(-0.000123670205581 -4.8395751703e-07 0)
(-3.51609972796e-05 -1.42791255113e-07 0)
(-0.000130410771427 -5.86345562453e-07 0)
(-2.81011626136e-05 -1.28809087414e-07 0)
(-2.8101375631e-05 -1.28810063836e-07 0)
(-3.63343005245e-06 -2.43387805297e-08 0)
(0 0 0)
(0 0 0)
(0 0 0)
(0 0 0)
(0 0 0)
(0 0 0)
(0 0 0)
(0 0 0)
(0 0 0)
(0 0 0)
(0 0 0)
(0 0 0)
(0 0 0)
(0 0 0)
(0 0 0)
(0 0 0)
(0 0 0)
(0 0 0)
(0 0 0)
(0 0 0)
(0 0 0)
(0 0 0)
(0 0 0)
(0 0 0)
(0 0 0)
(0 0 0)
(0 0 0)
(0 0 0)
(0 0 0)
(0 0 0)
(0 0 0)
(0 0 0)
(0 0 0)
(0 0 0)
(0 0 0)
(0 0 0)
(0 0 0)
(0 0 0)
(0 0 0)
(0 0 0)
(0 0 0)
(0 0 0)
(0 0 0)
(0 0 0)
(0 0 0)
(0 0 0)
(0 0 0)
(0 0 0)
(0 0 0)
(-8.11779750138e-05 -3.17673048577e-07 0)
(0 0 0)
(0 0 0)
(-9.12543430922e-06 -4.47999045924e-08 0)
(-1.50455616801e-05 -7.38638518416e-08 0)
(0 0 0)
(0 0 0)
(-4.83228005647e-05 -1.9624225355e-07 0)
(0 0 0)
(0 0 0)
(-1.5045297973e-05 -7.38625572126e-08 0)
(-9.12559760181e-06 -4.4800706252e-08 0)
(0 0 0)
(0 0 0)
(0 0 0)
(0 0 0)
(0 0 0)
(0 0 0)
(0 0 0)
(0 0 0)
(0 0 0)
(0 0 0)
(0 0 0)
(0 0 0)
(0 0 0)
(0 0 0)
(0 0 0)
(0 0 0)
(0 0 0)
(0 0 0)
(0 0 0)
(0 0 0)
(0 0 0)
(0 0 0)
(0 0 0)
(0 0 0)
(0 0 0)
(0 0 0)
(0 0 0)
(0 0 0)
(0 0 0)
(0 0 0)
(0 0 0)
(0 0 0)
(0 0 0)
(0 0 0)
(0 0 0)
(0 0 0)
(0 0 0)
(0 0 0)
(0 0 0)
(0 0 0)
(0 0 0)
(0 0 0)
(0 0 0)
(0 0 0)
(0 0 0)
(0 0 0)
(0 0 0)
(0 0 0)
(0 0 0)
(0 0 0)
(0 0 0)
(0 0 0)
(0 0 0)
(0 0 0)
(0 0 0)
(0 0 0)
(0 0 0)
(0 0 0)
(0 0 0)
(0 0 0)
(0 0 0)
(0 0 0)
(0 0 0)
(0 0 0)
(0 0 0)
(0 0 0)
(0 0 0)
(0 0 0)
(0 0 0)
(0 0 0)
(0 0 0)
(0 0 0)
(0 0 0)
(0 0 0)
(0 0 0)
(0 0 0)
(0 0 0)
(0 0 0)
(0 0 0)
(0 0 0)
(0 0 0)
(0 0 0)
(0 0 0)
(0 0 0)
(0 0 0)
(0 0 0)
(0 0 0)
(0 0 0)
(0 0 0)
(0 0 0)
(0 0 0)
(0 0 0)
(0 0 0)
(0 0 0)
(0 0 0)
(0 0 0)
(0 0 0)
(0 0 0)
(0 0 0)
(0 0 0)
(0 0 0)
(0 0 0)
(0 0 0)
(0 0 0)
(0 0 0)
(0 0 0)
(0 0 0)
(0 0 0)
(0 0 0)
(0 0 0)
(0 0 0)
(0 0 0)
(0 0 0)
(0 0 0)
(0 0 0)
(0 0 0)
(0 0 0)
(0 0 0)
(0 0 0)
(0 0 0)
(0 0 0)
(0 0 0)
(0 0 0)
(0 0 0)
(0 0 0)
(0 0 0)
(0 0 0)
(0 0 0)
(0 0 0)
(0 0 0)
(0 0 0)
(0 0 0)
(0 0 0)
(0 0 0)
(0 0 0)
(0 0 0)
(0 0 0)
(0 0 0)
(0 0 0)
(0 0 0)
(0 0 0)
(0 0 0)
(0 0 0)
(0 0 0)
(0 0 0)
(0 0 0)
(0 0 0)
(0 0 0)
(0 0 0)
(0 0 0)
(0 0 0)
(0 0 0)
(0 0 0)
(0 0 0)
(0 0 0)
(0 0 0)
(0 0 0)
(0 0 0)
(0 0 0)
(0 0 0)
(0 0 0)
(0 0 0)
(0 0 0)
(0 0 0)
(0 0 0)
(0 0 0)
(0 0 0)
(0 0 0)
(0 0 0)
(0 0 0)
(0 0 0)
(0 0 0)
(0 0 0)
(0 0 0)
(0 0 0)
(0 0 0)
(0 0 0)
(0 0 0)
(0 0 0)
(0 0 0)
(0 0 0)
(0 0 0)
(0 0 0)
(0 0 0)
(-8.08436743794 -0.0247018509906 0)
(-6.27736944608 -0.0192245910008 0)
(-7.60361777755 -0.0258169206455 0)
(-4.61266034303 -0.0156615823578 0)
(-5.53976108109 -0.0169656481016 0)
(-6.71933595958 -0.0228144770468 0)
(-9.17318576613 -0.0279995913384 0)
(-6.27735729976 -0.0192245538024 0)
(-2.96521230012 -0.00908103214091 0)
(-3.59077163427 -0.0121919156184 0)
(-3.59495962481 -0.0122061352994 0)
(-4.31436051508 -0.0132128301583 0)
(-4.31436418236 -0.0132128413895 0)
(-5.23243088032 -0.0177659183789 0)
(-1.79849646756 -0.00550793756878 0)
(-3.80741714674 -0.0116603042157 0)
(-1.69457414465 -0.00575366720164 0)
(-2.79957643821 -0.00950553340013 0)
(-3.36003246778 -0.0102901781546 0)
(-1.50010646205 -0.00509338194311 0)
(-2.0379611522 -0.00624130377589 0)
(-0.849549897116 -0.00260176646398 0)
(-0.401298923844 -0.00122898735628 0)
(-0.801858527866 -0.00272258792965 0)
(-0.295114549755 -0.00100201629478 0)
(-0.354145152703 -0.0010845778274 0)
(-0.708775373377 -0.00240653832232 0)
(-0.962665822668 -0.00294818663617 0)
(-1.40067084754 -0.00428958728683 0)
(-1.79849307958 -0.00550792719302 0)
(-2.17973642024 -0.00740096146807 0)
(-0.802832392376 -0.00272589453757 0)
(-2.61679573697 -0.00801399825323 0)
(-0.962665498504 -0.00294818564341 0)
(-1.16746290307 -0.00396394164027 0)
(-0.661629907154 -0.00202625709195 0)
(-0.189560175491 -0.000580532478636 0)
(-0.230010065108 -0.000780963979555 0)
(-0.379734289843 -0.00128932967359 0)
(-0.275808419657 -0.0008446697471 0)
(-0.454731381548 -0.00139262550987 0)
(-0.551786587581 -0.00187350692284 0)
(-0.0408217145123 -0.000130125105174 0)
(-0.14762966193 -0.000452119298468 0)
(-0.0391788402528 -0.000135881859169 0)
(-0.106708910569 -0.000370092760899 0)
(-0.13028268218 -0.000398993766563 0)
(-0.0347162260984 -0.000120404415116 0)
(-0.0462570292077 -0.000147450955027 0)
(-0.00980527315065 -3.34479695098e-05 0)
(0 0 0)
(-0.00989361523809 -3.62548334721e-05 0)
(0 0 0)
(0 0 0)
(-0.0065531358629 -2.7379397748e-05 0)
(-0.0111108221047 -3.79014876258e-05 0)
(-0.031791995347 -0.000101341572436 0)
(-0.0697352798691 -0.000213565928423 0)
(-0.0831192367439 -0.000288277967101 0)
(-0.0163239553354 -5.98186070559e-05 0)
(-0.101464278402 -0.000310736729807 0)
(-0.0218502912554 -6.96509561556e-05 0)
(-0.027018660189 -9.37073623169e-05 0)
(-0.00533901759275 -2.11488917345e-05 0)
(0 0 0)
(0 0 0)
(0 0 0)
(0 0 0)
(0 0 0)
(-0.00509955681934 -2.13062566405e-05 0)
(0 0 0)
(0 0 0)
(0 0 0)
(0 0 0)
(0 0 0)
(0 0 0)
(0 0 0)
(0 0 0)
(0 0 0)
(0 0 0)
(0 0 0)
(0 0 0)
(0 0 0)
(0 0 0)
(0 0 0)
(0 0 0)
(0 0 0)
(0 0 0)
(0 0 0)
(0 0 0)
(0 0 0)
(0 0 0)
(0 0 0)
(0 0 0)
(0 0 0)
(0 0 0)
(0 0 0)
(0 0 0)
(0 0 0)
(0 0 0)
(0 0 0)
(0 0 0)
(0 0 0)
(0 0 0)
(0 0 0)
(0 0 0)
(0 0 0)
(0 0 0)
(0 0 0)
(0 0 0)
(0 0 0)
(0 0 0)
(0 0 0)
(0 0 0)
(0 0 0)
(0 0 0)
(0 0 0)
(0 0 0)
(0 0 0)
(0 0 0)
(0 0 0)
(0 0 0)
(0 0 0)
(0 0 0)
(0 0 0)
(0 0 0)
(0 0 0)
(0 0 0)
(0 0 0)
(0 0 0)
(0 0 0)
(0 0 0)
(0 0 0)
(0 0 0)
(0 0 0)
(0 0 0)
(0 0 0)
(0 0 0)
(0 0 0)
(0 0 0)
(0 0 0)
(0 0 0)
(0 0 0)
(0 0 0)
(0 0 0)
(0 0 0)
(0 0 0)
(0 0 0)
(0 0 0)
(0 0 0)
(0 0 0)
(0 0 0)
(0 0 0)
(0 0 0)
(0 0 0)
(0 0 0)
(0 0 0)
(0 0 0)
(0 0 0)
(0 0 0)
(0 0 0)
(0 0 0)
(0 0 0)
(0 0 0)
(0 0 0)
(0 0 0)
(0 0 0)
(0 0 0)
(0 0 0)
(0 0 0)
(0 0 0)
(0 0 0)
(0 0 0)
(0 0 0)
(0 0 0)
(0 0 0)
(0 0 0)
(0 0 0)
(0 0 0)
(0 0 0)
(0 0 0)
(0 0 0)
(0 0 0)
(0 0 0)
(0 0 0)
(0 0 0)
(0 0 0)
(0 0 0)
(0 0 0)
(0 0 0)
(0 0 0)
(0 0 0)
(0 0 0)
(0 0 0)
(0 0 0)
(0 0 0)
(0 0 0)
(0 0 0)
(0 0 0)
(0 0 0)
(0 0 0)
(0 0 0)
(0 0 0)
(0 0 0)
(0 0 0)
(0 0 0)
(0 0 0)
(0 0 0)
(0 0 0)
(0 0 0)
(0 0 0)
(0 0 0)
(0 0 0)
(0 0 0)
(0 0 0)
(0 0 0)
(0 0 0)
(0 0 0)
(0 0 0)
(0 0 0)
(0 0 0)
(0 0 0)
(0 0 0)
(0 0 0)
(0 0 0)
(0 0 0)
(0 0 0)
(0 0 0)
(0 0 0)
(0 0 0)
(0 0 0)
(0 0 0)
(0 0 0)
(0 0 0)
(0 0 0)
(0 0 0)
(0 0 0)
(0 0 0)
(-1.40067254607 -0.00428959248861 0)
(-1.87369010694 -0.00946206559432 0.0173564897375)
(-2.17970277932 -0.00740084724544 0)
(-0.806589007648 -0.00273864954988 0)
(-2.61679950143 -0.00801400978199 0)
(-1.17432964467 -0.00398725661061 0)
(-0.983921325394 -0.00396731777699 0.00447341143903)
(-1.79849947104 -0.00550794676701 0)
(-3.80741835064 -0.0116603079026 0)
(-2.79291699013 -0.0094829222632 0)
(-1.70064652835 -0.00577428505128 0)
(-3.36003201709 -0.0102901767744 0)
(-2.03796551381 -0.00624131713344 0)
(-1.50572141027 -0.00511244664058 0)
(-0.661630706839 -0.002026259541 0)
(-0.18956055055 -0.000580533627264 0)
(-0.37972809733 -0.00128930864786 0)
(-0.230646824631 -0.000783125999078 0)
(-0.275808752084 -0.000844670765164 0)
(-0.553070859009 -0.00187786746995 0)
(-0.454731606366 -0.00139262619838 0)
(-0.849550001303 -0.00260176678305 0)
(-0.401299479097 -0.00122898905676 0)
(-0.800873826821 -0.00271924452793 0)
(-0.296001720391 -0.00100502854692 0)
(-0.962664545332 -0.0029481827243 0)
(-0.354145362439 -0.00108457846972 0)
(-0.708777222924 -0.00240654460218 0)
(-1.79849811915 -0.00550794262681 0)
(-3.80741946395 -0.0116603113122 0)
(-2.79273883731 -0.00948231737257 0)
(-1.70004933697 -0.00577225737932 0)
(-3.36003126887 -0.0102901744829 0)
(-2.03796487445 -0.00624131517538 0)
(-1.50343719485 -0.00510469093668 0)
(-1.40067167459 -0.0042895898197 0)
(-1.79849630555 -0.00550793707261 0)
(-2.17619069564 -0.00738892250274 0)
(-0.803083373029 -0.00272674670397 0)
(-2.6167927893 -0.00801398922592 0)
(-0.962666284964 -0.00294818805196 0)
(-1.17062206858 -0.00397466810334 0)
(-0.849550377195 -0.00260176793423 0)
(-0.401299545151 -0.00122898925905 0)
(-0.800971793322 -0.0027195771582 0)
(-0.295464084671 -0.0010032030871 0)
(-0.962665926094 -0.00294818695291 0)
(-0.354145261943 -0.00108457816195 0)
(-0.709159616754 -0.00240784296191 0)
(-0.661629790329 -0.00202625673417 0)
(-0.189560344316 -0.000580532995668 0)
(-0.378183098166 -0.00128406283962 0)
(-0.230111786823 -0.00078130936007 0)
(-0.454731381332 -0.00139262550921 0)
(-0.275808674211 -0.000844670526677 0)
(-0.551510689717 -0.00187257015386 0)
(-0.312532104608 -0.000957136892661 0)
(-1.09084230475 -0.00334073011559 0)
(-0.486463994825 -0.0016517140549 0)
(-0.487544319163 -0.00165538213088 0)
(-0.583885687313 -0.00178816359722 0)
(-0.583886841802 -0.00178816713287 0)
(-0.261307734612 -0.000887230427132 0)
(-0.147629721991 -0.000452119482405 0)
(-0.114974143091 -0.000352111006939 0)
(-0.230126779953 -0.000781360266951 0)
(-0.0504248853388 -0.000174885910966 0)
(-0.275808380379 -0.000844669626809 0)
(-0.0593952805611 -0.000189331026935 0)
(-0.121104134477 -0.000420018939804 0)
(-0.147629715251 -0.000452119461764 0)
(-0.114974138094 -0.000352110991636 0)
(-0.229611016449 -0.000779609070895 0)
(-0.0503188343026 -0.000174518099875 0)
(-0.275808602621 -0.000844670307431 0)
(-0.0593952695643 -0.000189330991881 0)
(-0.121029365078 -0.000419759621128 0)
(-0.06973531392 -0.000213566032705 0)
(-0.00980527479165 -3.34479751077e-05 0)
(-0.0237503964035 -8.23722192509e-05 0)
(-0.0237840705119 -8.24890093455e-05 0)
(-0.0280563438082 -8.9433644139e-05 0)
(-0.0280563472901 -8.9433655238e-05 0)
(-0.0570901214684 -0.000198002590052 0)
(0 0 0)
(-0.0408217028135 -0.000130125067882 0)
(-0.00989953451391 -3.62765244671e-05 0)
(-0.0163383340256 -5.98712973018e-05 0)
(-0.0111108159042 -3.79014664746e-05 0)
(-0.021850304015 -6.96509968286e-05 0)
(0 0 0)
(0 0 0)
(0 0 0)
(0 0 0)
(0 0 0)
(0 0 0)
(0 0 0)
(0 0 0)
(0 0 0)
(0 0 0)
(-0.00576400138851 -2.40823462137e-05 0)
(0 0 0)
(-0.00865312497766 -2.95177356072e-05 0)
(0 0 0)
(0 0 0)
(0 0 0)
(0 0 0)
(0 0 0)
(0 0 0)
(0 0 0)
(0 0 0)
(0 0 0)
(0 0 0)
(0 0 0)
(0 0 0)
(0 0 0)
(0 0 0)
(0 0 0)
(0 0 0)
(0 0 0)
(0 0 0)
(0 0 0)
(0 0 0)
(0 0 0)
(0 0 0)
(0 0 0)
(0 0 0)
(0 0 0)
(0 0 0)
(0 0 0)
(0 0 0)
(0 0 0)
(0 0 0)
(0 0 0)
(0 0 0)
(0 0 0)
(0 0 0)
(0 0 0)
(0 0 0)
(0 0 0)
(0 0 0)
(0 0 0)
(0 0 0)
(0 0 0)
(0 0 0)
(0 0 0)
(0 0 0)
(0 0 0)
(0 0 0)
(0 0 0)
(0 0 0)
(0 0 0)
(0 0 0)
(0 0 0)
(0 0 0)
(0 0 0)
(0 0 0)
(0 0 0)
(0 0 0)
(0 0 0)
(0 0 0)
(0 0 0)
(0 0 0)
(0 0 0)
(0 0 0)
(0 0 0)
(0 0 0)
(0 0 0)
(0 0 0)
(0 0 0)
(0 0 0)
(0 0 0)
(0 0 0)
(0 0 0)
(0 0 0)
(0 0 0)
(0 0 0)
(0 0 0)
(0 0 0)
(0 0 0)
(0 0 0)
(0 0 0)
(0 0 0)
(0 0 0)
(0 0 0)
(0 0 0)
(0 0 0)
(0 0 0)
(0 0 0)
(0 0 0)
(0 0 0)
(0 0 0)
(0 0 0)
(0 0 0)
(0 0 0)
(0 0 0)
(0 0 0)
(0 0 0)
(0 0 0)
(0 0 0)
(0 0 0)
(0 0 0)
(0 0 0)
(0 0 0)
(0 0 0)
(0 0 0)
(0 0 0)
(0 0 0)
(0 0 0)
(0 0 0)
(0 0 0)
(0 0 0)
(0 0 0)
(0 0 0)
(0 0 0)
(0 0 0)
(0 0 0)
(0 0 0)
(0 0 0)
(0 0 0)
(0 0 0)
(0 0 0)
(0 0 0)
(0 0 0)
(0 0 0)
(0 0 0)
(0 0 0)
(0 0 0)
(0 0 0)
(0 0 0)
(0 0 0)
(0 0 0)
(0 0 0)
(0 0 0)
(0 0 0)
(0 0 0)
(0 0 0)
(0 0 0)
(0 0 0)
(0 0 0)
(0 0 0)
(0 0 0)
(0 0 0)
(0 0 0)
(0 0 0)
(0 0 0)
(0 0 0)
(0 0 0)
(0 0 0)
(0 0 0)
(0 0 0)
(0 0 0)
(0 0 0)
(0 0 0)
(0 0 0)
(0 0 0)
(0 0 0)
(0 0 0)
(0 0 0)
(0 0 0)
(0 0 0)
(0 0 0)
(0 0 0)
(0 0 0)
(0 0 0)
(0 0 0)
(0 0 0)
(0 0 0)
(0 0 0)
(0 0 0)
(0 0 0)
(0 0 0)
(0 0 0)
(0 0 0)
(0 0 0)
(0 0 0)
(0 0 0)
(0 0 0)
(0 0 0)
(0 0 0)
(-0.0317920070134 -0.000101341609625 0)
(-0.0697353847273 -0.000213566249554 0)
(-0.0830006673538 -0.000287866739278 0)
(-0.0163512720938 -5.99187084349e-05 0)
(-0.101464355111 -0.00031073696473 0)
(-0.0270818392896 -9.39264829849e-05 0)
(-0.0218503190045 -6.96510446097e-05 0)
(-0.0408217578102 -0.000130125243192 0)
(-0.147629735488 -0.00045211952374 0)
(-0.106521763884 -0.000369443690142 0)
(-0.0392824201354 -0.000136241099691 0)
(-0.130282778576 -0.000398994061778 0)
(-0.0462571052552 -0.00014745119744 0)
(-0.0347434918496 -0.000120498979451 0)
(-0.00533902118901 -2.114890598e-05 0)
(0 0 0)
(0 0 0)
(0 0 0)
(0 0 0)
(-0.00510486345872 -2.13284281006e-05 0)
(0 0 0)
(-0.00980527513225 -3.34479762695e-05 0)
(0 0 0)
(-0.00989405623594 -3.62564494944e-05 0)
(0 0 0)
(-0.0111108306215 -3.79015166787e-05 0)
(0 0 0)
(-0.00654694068293 -2.73535139116e-05 0)
(-0.0408217333632 -0.000130125165264 0)
(-0.147629765576 -0.000452119615886 0)
(-0.106338088259 -0.000368806657874 0)