/*--------------------------------*- C++ -*----------------------------------*\
| =========                 |                                                 |
| \\      /  F ield         | OpenFOAM: The Open Source CFD Toolbox           |
|  \\    /   O peration     | Version:  v1906                                 |
|   \\  /    A nd           | Web:      www.OpenFOAM.com                      |
|    \\/     M anipulation  |                                                 |
\*---------------------------------------------------------------------------*/
FoamFile
{
    version     2.0;
    format      ascii;
    class       volScalarField;
    location    "0.25";
    object      p_rgh;
}
// * * * * * * * * * * * * * * * * * * * * * * * * * * * * * * * * * * * * * //

dimensions      [1 -1 -2 0 0 0 0];


internalField   nonuniform List<scalar> 
28582
(
19568.5103698
19567.802144
19568.7250457
19568.0123845
19569.2153939
19568.4755311
19569.9031259
19569.2943847
26.4652087904
27.110114105
-0.0479556128182
19569.8613851
19493.0040794
19515.3025756
19568.9800302
19568.8493856
19453.142805
19569.4847401
19569.4232598
19568.7499494
19567.0027379
19566.1503955
19569.044636
19567.1712172
19566.1882392
19569.4135881
19567.6287005
19569.5196491
19568.6346523
25.6019859129
-0.0266452853145
0.0165944192009
19569.8070391
19570.2083023
19437.0901767
19515.4362635
19570.9402598
19568.1500095
19568.6849916
19567.9807444
19569.1030041
19508.9086255
19569.1626782
19568.6416259
39.7865897005
25.2738635689
-0.134212029002
-0.110245121266
44.3487982627
-0.112998671034
19570.4048315
19570.4208272
19484.4852977
19514.0046817
19570.6788311
19539.3395152
19570.53121
19570.300994
19569.6640109
19480.1433939
19457.112564
19570.0713261
19503.9102696
19570.0356619
19569.5938821
19569.5379842
19422.4776266
19457.0902006
19569.5850352
19525.4561978
19569.3242118
19568.964167
19527.4594443
19477.604646
19569.4611653
19447.4213134
19508.2485933
19568.8794112
19568.9164457
19489.3906504
19523.7750734
19569.4365545
19433.6113082
19568.7165417
19496.0046544
28.2752640627
0.00347385497646
39.3942489494
32.277623193
-0.0313267252987
-0.00718227767325
7.21254431068
-0.0675029733843
-0.0918827257136
8.03214974396
-0.0667254575779
22.5273778618
-0.0576166346017
19570.4396518
19570.020269
19428.7318748
19494.2197634
19569.8145423
19570.5806143
19530.2462444
19570.2910718
19569.6586608
19448.4428032
19483.0281651
19569.4891742
19570.3907114
19512.4286859
19527.43462
19534.3955609
19570.5175761
19570.5626846
19492.9780637
19570.5131746
19501.9803361
19569.054551
19496.6497086
19487.5397784
19568.5721301
19473.6019499
19569.0248432
19522.018297
19568.4982094
19567.955736
19475.0543481
19467.6749962
19568.4303258
19568.5383879
19500.8289487
19569.1605848
19568.9159753
19506.1670806
19520.7372343
19513.5309471
19568.5587998
19526.7799729
19500.9227557
19508.5033781
19567.626854
19568.456174
19489.4444315
19568.3191559
19496.7875823
19566.3691981
19567.3082895
39.291644843
-0.0321211320529
19570.0820213
19505.5098524
19567.3686815
19566.4377676
19448.500391
19476.4889923
19480.3864686
19565.7668053
19564.5048253
19443.065565
19458.5984761
29.0563033988
8.54156167347
20.0862673512
-0.101027870517
-0.0389191130551
-0.0724781448528
7.93529272265
9.90177598536
19569.9703754
19570.3364538
19489.9653473
19494.4586434
19570.1725603
19526.1421079
19570.4275628
19566.9649312
19567.6667001
19426.6967197
19460.8323209
19567.124228
19567.7454896
19498.6775477
19567.05466
19567.5592926
19467.2166047
19464.5726778
19567.5566085
19482.1298272
19567.8651796
19566.9000377
19565.7664197
19455.4089339
19464.2896176
19566.586532
19456.5994545
19567.0681398
19564.7730481
19565.4553485
19434.7724521
19427.7922266
19565.6677817
19459.1860373
19565.8802125
19564.5231935
19563.2606622
19426.1706813
19441.297495
19564.4780296
19427.4521359
19565.0361684
19578.5114257
19574.8291029
19574.9864941
19572.4896102
39.5359636613
68.0687891101
20.5042597158
43.3242698606
33.7093731924
-0.0541219449253
-0.31140117559
0.0371744281974
-0.0371260699645
-0.00139300935396
-0.0591008136903
19578.7785793
19578.009244
19567.7782661
19541.1508795
19580.4255436
19522.2041998
19576.5882316
19575.6345591
19543.741684
19568.1301548
19580.5238255
19576.4174284
19577.644249
19515.7266274
19551.717019
19566.2695693
19572.8064766
19578.1849981
19576.515047
19542.7398125
19551.8951015
19559.3962301
19565.710342
19575.3432605
19574.2567709
19535.3670278
19525.8865649
19550.7593156
19573.8338964
19573.7242784
19572.8619372
19492.1179083
19522.3135804
19531.7480803
19544.0321618
19483.0341293
19512.1179732
40.19054054
49.5986233841
53.3824011753
-0.00656514680899
-0.00434630623078
-0.0233071067618
-0.0358496636645
-0.0561620848451
-0.220750237497
-0.141519016648
-0.236329741347
38.9695511477
30.7710628454
42.9591795335
20.2971252662
36.7307827845
-0.0479272388643
-0.017432349587
0.0369866169249
0.00687331506314
49.6508181654
32.0507707898
41.9026759031
-0.117125080308
-0.121541630016
-0.0434012222414
-0.0929295648129
21.8668791937
37.4708898998
0.0333155404348
0.0316356290058
0.0457701672471
32.594939009
29.3580575041
41.2040049113
0.0124047275058
-0.020071167241
-0.000116049227601
-0.00983660113163
19576.2714151
19577.4460484
19528.9025901
19544.5664849
19577.4002765
19544.7391968
19576.0885164
19575.9487286
19576.5333664
19519.7187547
19512.0849041
19576.9947048
19575.5177238
19520.0901501
19579.5221495
19577.4122536
19549.780884
19528.7269755
19578.1630268
19578.486896
19576.020681
19574.6733132
19575.8862769
19497.1374478
19526.2511262
19574.7289502
19575.4669706
19520.2108766
19574.5545071
19574.7018728
19533.6758269
19525.6689834
19575.0405958
19574.1769026
19536.669546
19577.1514515
19576.5978787
19511.4805142
19557.443752
19577.4856064
19576.2653134
19563.9415367
19577.8725372
19579.6399405
19544.3196287
19566.5570013
19578.6567603
19578.5692845
19562.1734118
19576.0054372
19575.0104352
19552.9724587
19561.9324973
19575.4718243
19575.5049119
19561.8223123
19576.5798663
19576.10093
19547.4590887
19565.3348836
19576.9323216
19575.9514759
19547.3897606
19579.1497533
19580.6109167
19547.9320184
19575.8016033
19580.8096756
19579.2644911
19578.2175012
19578.5657206
19577.9493208
19569.2059834
19566.888552
19580.0317301
19570.4355476
19577.1801544
19577.1128575
19576.2313157
19559.203183
19546.9824084
19577.2100875
19576.1256492
19555.8039438
19576.3490575
19574.6562089
19513.8050823
19557.1498844
19575.7057693
19516.2566049
19575.08783
19574.2261964
19574.1954451
19544.6876552
19550.2745968
19574.5439874
19574.0591388
19559.8306299
19574.4286702
19575.0098703
19541.3092093
19528.8026871
19574.650793
19574.6140623
19547.6515622
19573.7732558
19573.4464955
19525.095769
19554.7607549
19573.7664891
19573.6845832
19527.1036438
19574.4834819
19574.909407
19495.3659262
19535.7962768
19574.4243003
19574.5880724
19561.9697649
19574.257746
19573.4466357
19496.9111729
19538.6387664
19573.8588129
19546.9172938
19573.8720776
19573.5432244
19573.3542205
19527.7041357
19524.3769635
19573.6602021
19573.4403447
19547.5251303
19573.1034163
19572.6675214
19489.3733603
19526.5314937
19573.076167
19509.1394615
19572.6451631
19572.5895804
19572.5033169
19495.6513708
19527.488702
19572.3280658
19572.6687291
19556.6540522
19571.5063624
19483.1252145
19571.8334935
19568.0572563
19567.4142328
19566.7107631
19565.2925274
19564.8138844
19564.5040236
19568.3251911
19567.6611132
19566.8942035
19565.111449
19564.3262826
19563.6608965
19560.7750245
19563.0269395
19565.3199934
19565.3628931
19565.0586427
19564.5529417
19564.2879857
19564.077305
19563.0982195
19564.1275499
19565.4648924
19565.5070543
19565.1910771
19564.6536286
19564.3596413
19564.1326335
19566.0733105
19566.1267078
19566.1278127
19565.8939258
19565.4059302
19564.7829661
19564.441589
19564.1877714
19567.5777245
19567.2893823
19566.944555
19566.3673681
19565.7028584
19564.9705253
19564.5643663
19564.2801264
19565.9436548
19565.1436903
19564.6969948
19564.3954541
19558.9717041
19562.3256398
19565.7789002
19565.6371609
19565.1585903
19564.4104612
19563.8292216
19563.2797353
19561.4473163
19563.325585
19565.9693266
19565.7939685
19565.2916295
19564.5146372
19563.9002845
19563.329602
19566.3271052
19566.4038502
19566.4462589
19566.1311063
19565.4879833
19564.6280296
19563.9622284
19563.3433962
19567.6984928
19567.5155033
19567.1670234
19566.5559669
19565.7556078
19564.7958574
19564.0672852
19563.4086169
19565.9896102
19564.969583
19564.2054532
19563.5332789
19558.1097262
19562.6352304
19566.0587571
19566.0033364
19565.315722
19564.1820098
19562.8641732
19561.3826223
19561.1499598
19563.5237857
19566.1654474
19566.2071223
19565.5405017
19564.3049786
19562.9038842
19561.3932537
19566.508447
19566.9935108
19566.9956834
19566.6115592
19565.7343247
19564.3943463
19562.9195386
19561.2737537
19568.3566923
19568.2251763
19568.1119323
19567.707813
19566.9964248
19565.952806
19564.5249517
19562.9839455
19561.2823488
19568.8419526
19568.1614797
19567.3261911
19566.1808229
19564.7217938
19563.1591971
19561.4630454
19564.8369509
19563.3095918
19561.6916489
19561.8798511
19565.8195461
19567.6852562
19567.3316387
19566.711813
19565.3471257
19563.2607293
19560.8531933
19563.1976245
19564.6330286
19566.7110916
19567.9851762
19567.468729
19566.5812503
19565.3184169
19563.3267808
19561.0569358
19570.9825552
19567.7672741
19567.4383671
19567.8983085
19568.0407862
19567.6324806
19566.6939886
19565.1713096
19563.0652557
19560.4808819
19569.3228265
19568.828433
19568.8665471
19568.5120498
19567.873645
19566.8147672
19565.2162271
19563.0441613
19560.3596592
19569.4855729
19568.9663887
19568.2769507
19567.1796784
19565.423652
19563.1914947
19560.4862472
19565.3735602
19563.1853779
19560.8578091
12.508845226
22.9219147594
24.6574596712
7.57616418985
17.5845097509
13.4490515242
9.80053762701
11.4067824492
41.1733729355
20.4388585807
12.8629678583
11.909338106
14.6641434339
36.57146826
42.0241364852
34.7156595812
8.04478151378
5.32408097981
35.579739252
35.1294735002
40.8302213064
40.4642402997
41.0005190248
40.970214009
40.4120811246
38.2631881633
33.1817193536
32.9615506782
41.6830322166
41.2501296697
43.5725254947
40.4617356991
38.0505427919
37.1241435978
34.9053295526
30.3422834553
34.106246293
39.4177988515
43.7826050908
39.0489029533
40.0275554247
36.7914796419
30.2005809295
32.684931161
35.5242998548
20.4708744336
12.701920122
0.0126117378361
0.0232718551921
0.0669714073014
-0.0150788612528
0.000831348646287
0.00724878367726
0.0108865447362
0.0518340825246
0.137137543802
0.238045415981
0.0580887366009
0.0132160768888
0.0174362598511
-0.0113334963068
-0.0170939453379
-0.0611962880392
-0.0579234795466
-0.00483120457459
0.110281274403
0.24699108754
-0.00944699769247
-0.0217849642552
-0.0399483423703
-0.0514626539145
-0.0473754328481
-0.04144508499
-0.0337769020484
-0.0079060152455
0.0683044765304
0.207603206944
-0.0592914269963
-0.0523726382033
-0.0482950087606
-0.0272016233431
-0.0214740999479
-0.0148772856171
0.0179714600221
0.0957022407818
0.232383924905
-0.0388110196481
-0.0358130680728
-0.0296059449755
-0.046620965434
-0.00679802567741
0.0732669522576
0.202861117448
0.0230762375346
0.107844199057
0.233956600931
19562.0028351
19561.7564777
19562.7257273
19560.4938015
19562.1101464
19561.4057885
19562.7544578
19563.9262439
19563.6277525
19564.431108
19563.4879845
19564.3508351
19563.9652017
19564.6717198
19563.2690406
19564.3263377
19564.5904224
19562.9677972
19563.6132363
19564.2851767
19564.7123786
19564.3168194
19565.1588848
19565.3430042
19564.5767894
19564.6822284
19565.2084151
19565.4007227
19560.8616587
19560.2397658
19561.7308647
19559.3691203
19562.11776
19560.7757809
19562.8361642
19563.6167018
19563.0106309
19564.1454328
19563.9423622
19565.0058859
19564.402025
19565.2792493
19562.16062
19563.9059839
19564.4646419
19562.6196537
19563.8606712
19564.0315854
19564.9612508
19563.9669146
19565.1444366
19565.4090106
19565.1686066
19565.4877696
19565.6609191
19565.9377208
19560.8738579
19559.617583
19561.8566773
19560.4148778
19563.2517592
19561.8579436
19563.9351676
19563.8843589
19563.3591695
19564.3848544
19565.2834117
19566.1268933
19565.6102485
19566.2743939
19562.3660349
19564.0719711
19565.076901
19563.4565331
19565.0983097
19564.6865747
19565.6081638
19564.2371563
19565.7153359
19566.0043615
19566.5554861
19566.8458302
19566.5993564
19566.880586
19559.4448464
19560.843716
19426.1943787
19453.4450386
19564.295016
19563.027481
19564.7993573
19413.6212578
19494.5590484
19454.3349508
19504.2666441
19567.0894857
19566.0101043
19566.8693019
19472.9797327
19522.6851774
19496.7706343
19523.5379168
19567.5172436
19567.5545749
19567.3564182
19490.1675038
19523.1199185
19506.0079638
19511.5171758
19567.0110376
19567.340403
19566.7124554
19492.9827943
19504.719143
19476.4797831
19491.5957642
19566.1363618
19566.2047097
19565.5673469
19473.6916381
19490.8904508
19437.1428279
19486.3800599
19564.3872008
19564.9312452
19563.7664691
19441.2981177
19459.0195445
19431.6676795
19437.6401149
19561.974541
19563.0143082
19561.8900255
19393.6138579
19397.9476071
19393.5561189
19384.5535123
19559.4514913
19560.8382605
19559.1323178
19302.6917242
19213.6426026
19286.1924546
19163.1331075
19572.1938778
19567.7456641
19489.7806176
19455.0211669
19544.4676082
19546.1713896
19563.5353254
19566.0692285
19565.9207416
19447.7676382
19447.4617394
19517.8795648
19511.5073669
19565.7939795
19566.246055
19566.8288446
19451.5349569
19508.5216849
19485.5063432
19512.3092688
19567.3544594
19567.3135567
19567.7065925
19506.6420553
19524.8353037
19481.8555251
19515.9285853
19567.6870533
19567.9751028
19567.6845684
19512.2499729
19493.1286638
19477.5670464
19503.2570657
19567.267306
19567.5134002
19567.0505189
19456.7730138
19483.0351424
19461.5132147
19492.7196392
19566.2352664
19566.5699997
19565.7887751
19425.2820654
19467.8486351
19440.4456986
19477.4620866
19564.6231645
19565.0634724
19563.9772602
19421.1426634
19445.8846914
19414.3123426
19456.7622375
19562.0637408
19563.0053719
19561.6079749
19390.7914584
19382.8795014
19379.306287
19401.5387006
19559.3071906
19560.4517484
19558.5928068
19299.0269716
19198.9518826
19284.6712582
19175.6730395
19568.4582065
19571.8817278
19570.2476034
19481.8546103
19484.7388906
19503.3566378
19552.8408545
19567.4224811
19569.154625
19568.5519999
19446.7069361
19483.9040387
19523.5767245
19526.0338538
19567.7706161
19568.5231969
19568.4896916
19439.4894942
19491.9423889
19492.5537269
19522.7184691
19568.1586119
19568.5378273
19568.4996402
19449.6192692
19497.7798872
19485.3560246
19514.8449483
19568.03283
19568.3528408
19568.0998393
19452.6982396
19496.4405223
19475.4076389
19507.6712779
19567.4207473
19567.7878694
19567.2759499
19445.8982558
19487.9936308
19462.9571427
19497.2566261
19566.2487503
19566.7241548
19565.8967988
19431.783992
19472.8104942
19443.9627754
19481.165302
19564.4580427
19565.1344605
19563.9703423
19408.4486106
19446.6474579
19416.9445538
19454.3586718
19562.0565417
19562.950114
19561.394418
19369.4308654
19393.6760422
19372.0466623
19402.3816344
19558.6230226
19560.1428592
19557.8183749
19277.5927588
19189.8729427
19271.7264767
19168.6761165
19451.5777906
19490.3193527
19569.1447762
19570.1139981
19459.4280491
19491.6667141
19517.2399002
19568.9781102
19569.9389128
19569.5171307
19447.8487122
19501.2956454
19479.6440527
19518.0813071
19568.9059113
19569.2049525
19569.0386819
19458.9790299
19503.2710173
19472.007337
19517.9909093
19568.3824251
19568.8522653
19568.4626638
19455.2771791
19499.020809
19476.0704131
19510.9403789
19567.5802087
19568.0640639
19567.4373421
19449.5691735
19490.5527148
19462.954757
19498.3978201
19566.3091559
19566.862064
19566.0039228
19434.7318141
19475.3879739
19442.2847988
19480.4913612
19564.4746564
19565.2025807
19564.0517835
19411.1469056
19447.8736728
19415.5604055
19451.2256506
19562.0103513
19563.01229
19561.4202775
19368.8974114
19394.2701861
19369.2169146
19399.7448746
19558.4313855
19560.1779243
19557.7950033
19272.5175512
19180.488986
19270.0690503
19167.8925985
19569.2894147
19569.6173108
19463.4169733
19499.1003616
19508.8324331
19568.8774222
19568.9570444
19568.5710931
19458.9496106
19503.8252688
19444.2568667
19507.7153531
19567.965114
19568.1691286
19567.6853072
19456.4349721
19496.8808049
19471.5737657
19498.5384078
19566.621633
19566.9355999
19566.1506486
19442.2176921
19480.2424762
19435.8300127
19475.9809938
19564.6654495
19565.5260613
19564.2816952
19416.1737827
19451.1799854
19425.3219921
19449.1325633
19562.154616
19563.3148516
19561.6391316
19373.7732435
19396.1295783
19378.8826012
19399.7378246
19558.6323525
19560.531689
19558.1874971
19277.2253466
19185.588697
19287.290811
19191.9809038
19566.6332783
19455.3391255
19564.7149604
19410.6866222
19432.4102207
19562.3403787
19371.9480142
19393.5162998
19559.5443266
19297.4449279
19212.84574
-0.253342246244
-0.0421953803807
-0.189056979686
-0.0160388352325
9.09118463139
18.8502047603
0.0161109415745
0.0217850530432
0.138415548283
0.0624693624966
13.6270764586
5.46537155924
3.58632740363
0.00600936103131
-0.00525911305195
0.0407257280629
0.0170453362156
21.4563985967
2.30873166411
5.08158920888
-0.0605725783681
-0.074487631664
-0.0036765340068
-0.0346292662986
10.066057775
4.82005368793
19.845736393
-0.135235400572
-0.123572739776
-0.0266758600814
-0.0699292240473
9.96378431808
10.7996194358
27.6155086124
-0.0903290583631
-0.0608736432931
-0.0480654462516
-0.0859368983143
8.80635446563
17.7661308286
23.01065182
-0.093245090063
-0.0810173022848
-0.0866998513242
-0.104225722123
11.2297957106
10.3057222763
9.23411245904
-0.0895473120012
-0.0334034516582
-0.0788788448617
-0.0228501296475
10.2667561494
4.16194027504
3.60620205065
0.0363564068644
0.188888336325
0.0792390771132
0.227684453653
24.1777495242
3.92748240136
8.39151317956
0.364251523544
0.67858620321
0.419288822187
0.74535992609
20.6626489167
21.1295303586
30.8465431978
-0.115382857672
0.0155388561162
-0.0519382503161
0.00187046760095
6.19478845822
16.1717000207
29.2433920884
0.0272560546894
0.0574026618919
0.0254778165838
-0.0183077393431
6.39549611308
15.7120451125
29.1323498311
0.00109875141795
0.00925541220203
-0.0132205472413
-0.0452030836857
7.26019678956
19.6164124341
29.2707565436
-0.0469025983269
-0.0352250940127
-0.0577255046842
-0.0718592986025
12.3786063993
22.2936783504
34.4905504731
-0.0827615681061
-0.0370736135229
-0.0682034667857
-0.0864720792227
23.9613666493
24.5735094483
36.8614379488
-0.0750524774171
-0.0740651979406
-0.0705093810537
-0.102301937503
23.162597248
25.8608886332
34.8223319643
-0.131547050859
-0.108332171308
-0.0829172138823
-0.109711398041
13.2373913373
22.2184304992
27.0537875701
-0.114610236346
-0.0660320594166
-0.0862681149225
-0.062236283301
4.93797233735
14.5898605265
18.4675071405
0.0292248304327
0.202748766127
0.00538821483013
0.141392350085
12.1918248067
15.3427915539
32.6798244595
0.392776192837
0.70530686475
0.323434073785
0.615402404709
18.9492235891
39.9448918501
36.1341170324
-0.0715447073507
-0.0200411845163
-0.0333937959889
-0.0704050737062
21.1925252671
23.9347107437
38.4457858344
-0.0295256139606
-0.00406295890304
-0.0240325035187
-0.0536897753992
25.1442374874
26.9397194834
37.2175337419
-0.0513419275874
-0.0498394359629
-0.042660892669
-0.0834161060365
25.5892126476
26.2986775522
37.4364946748
-0.0896020016337
-0.0602864712858
-0.0545506580435
-0.0913946474689
26.2922308049
25.6143864322
36.1414362331
-0.10408426936
-0.0570726030618
-0.0655419168582
-0.101932386637
26.341666589
25.183873015
35.3021906546
-0.115375067443
-0.0604468137147
-0.0706412736271
-0.106433611031
25.5239164645
24.612223982
33.3779308052
-0.133284033025
-0.076031746973
-0.0754910763896
-0.106361704485
22.7748971439
22.5028360686
29.6718593518
-0.121620146406
-0.0463528058693
-0.0754806138261
-0.0560034311188
19.3102827964
19.841487362
25.6614044988
-0.0148500051408
0.138313949984
0.00604629105128
0.123265384918
43.5815014775
25.4386088144
52.7370245786
0.276951724154
0.542598629612
0.298184621011
0.523151505172
26.4111615103
50.0189945369
-0.0344743413218
-0.0305829470071
-0.0499717142011
28.4229913932
42.9291550012
39.8586533747
-0.0561437612834
-0.0399357632444
-0.027120872653
-0.0991874070458
29.7262783959
29.5053042344
38.9815506068
-0.0826309388063
-0.0533780239218
-0.0687970366754
-0.0773672578729
25.938499439
28.5606160219
35.9417064613
-0.121923730713
-0.0589721515376
-0.0684069244922
-0.103325537553
24.8951977257
24.7774338461
34.1246872218
-0.117068365683
-0.057838479837
-0.066163935245
-0.0972779487181
23.1930054364
23.7027600441
31.9190877561
-0.129045688371
-0.0609834209623
-0.0703134984645
-0.109028399934
21.1423088576
20.8646012889
28.2308804102
-0.118008061096
-0.034304509848
-0.0730017221942
-0.0606758626542
19.8295796491
18.6354947955
24.4577848859
-0.0233863462026
0.144624788346
0.0100802455501
0.12829901907
51.0015134637
24.8762629842
52.9694890734
0.270649286194
0.517986033555
0.298508662547
0.523286933712
29.3673954495
34.8544758171
-0.088192672593
-0.0607525393777
-0.00549532589141
-0.0601886025993
29.3520245883
34.6391117759
27.1506902081
-0.0957827060045
-0.0834515689696
-0.115900945049
-0.134816725891
28.546438711
20.9139779338
29.3797537965
-0.109625308386
-0.0717441071755
-0.0675008189151
-0.0730061079183
23.9569552497
23.3577246195
34.8872389165
-0.127739986749
-0.0690520757312
-0.0620013428882
-0.0817975943605
19.9759984086
18.2507301449
26.7312486227
-0.114166395425
-0.0324314947091
-0.0571995433737
-0.054615574146
18.0366566873
13.1911888645
18.3302740879
-0.0120018884761
0.145212372686
0.0119344691577
0.122854290804
46.7121613172
16.8641904664
37.2278474667
0.28220759788
0.531729214255
0.299972210828
0.548016391407
17.7590499013
-0.0644948839145
11.6738938803
-0.0806362285013
-0.0140939024151
-0.0447669298748
-0.0066280654655
5.46486203381
0.0235698308448
0.1708047741
0.0904900154154
0.216157420954
15.7024111891
0.311847382738
0.647904638676
0.395690424464
0.716078737571
19562.971441
19562.3720408
19436.4953032
19439.6610885
19563.5960994
19459.1223148
19563.491277
19563.3961768
19563.8102614
19431.2078242
19453.9456042
19563.8543453
19564.4243523
19457.1545936
19563.9131986
19562.9831359
19414.0671164
19452.5385261
19564.1596753
19468.2832649
19564.3489327
19564.8179655
19565.5743726
19448.0435997
19456.2420606
19566.5090669
19472.9527606
19565.181629
19563.9905584
19564.2889956
19447.0083576
19469.9149049
19564.3503707
19565.6485321
19454.2792223
19565.127456
19566.2867125
19469.9446542
19495.9202187
19566.6321611
19566.5434786
19465.4490543
19567.3810791
19566.5777528
19453.2173886
19490.6581532
19567.367294
19526.3709245
19567.618595
19567.947135
19567.8409759
19481.4074284
19489.0407342
19568.5721302
19520.1723542
19568.002472
19567.2318747
19566.9103139
19492.7544237
19493.8919943
19567.4072509
19568.1689313
19512.0333404
19567.8900602
19568.0284024
19499.1064054
19510.0790864
19568.558295
19568.5965271
19503.6637449
19567.9319232
19567.9850685
19464.5652299
19493.3787635
19568.3803226
19523.327082
19568.1289229
19567.9636112
19567.5107592
19475.8486492
19476.6815174
19568.2105899
19505.7539445
19567.8395439
19567.9622853
19568.2359199
19497.5893883
19492.0967483
19568.3279396
19568.9129021
19505.717908
19568.0511653
19567.7961358
19466.8107075
19494.6981079
19568.0680949
19568.5848999
19479.9389227
19567.2007416
19567.6328383
19469.2371038
19481.9935649
19567.8234312
19517.4297548
19567.8871718
19567.3452309
19566.7103882
19470.6244543
19453.1041502
19567.5351554
19485.7770749
19567.3962049
19567.2190155
19567.7559936
19470.0532729
19446.3003326
19567.658083
19567.9564669
19509.4050406
19567.3806961
19566.7634578
19421.885624
19450.4016079
19567.1598149
19567.4654
19458.2874136
19566.158616
19566.7126366
19454.2095567
19464.3017948
19566.9782796
19506.835389
19566.9755365
19565.9760495
19565.3221713
19452.4187595
19435.1736333
19566.2563588
19470.974124
19566.3004694
19566.0341207
19566.6836378
19428.4559905
19405.8707018
19566.4927025
19566.7481403
19492.5070112
19566.1138191
19565.2920224
19411.5396234
19421.6603652
19565.953154
19566.0875998
19443.1150003
19564.3045064
19565.3053383
19415.8214936
19445.0114406
19565.5251024
19485.1089826
19565.3756372
19564.0436245
19562.8196832
19412.8747892
19398.6398655
19564.0003369
19439.483743
19564.1606968
19563.9504143
19565.115939
19413.8808498
19384.124082
19565.0290466
19565.0866634
19462.2980473
19563.9057888
19562.7893623
19377.343086
19399.7941041
19563.9576537
19564.1412912
19410.7053313
19561.2192478
19562.7800057
19362.5475194
19391.5943564
19562.9379243
19439.3731469
19562.7010626
19560.8884708
19559.3090447
19351.2375658
19332.3633109
19561.2702918
19372.9128389
19561.1211667
19561.0128564
19562.4149362
19392.0547188
19376.484473
19562.8635655
19562.8242263
19424.4101253
19560.6439829
19558.9443589
19349.8725669
19392.6398571
19561.0809867
19561.876784
19367.7100181
19556.6441383
19559.2110957
19274.7883781
19342.6963894
19559.7368799
19359.3355343
19559.1624795
19555.8815389
19555.1619626
19266.0725278
19121.5273708
19255.3141139
19556.0360878
19556.8609456
19556.1925996
19558.2410768
19354.3055324
19282.1639091
19559.5893105
19559.1168009
19332.1065173
19555.5564447
19555.5719659
19118.5736324
19271.0582371
19557.6847881
19207.0978372
19556.0309641
19571.9394358
19575.0220688
19449.2791147
19563.407886
19571.322623
19572.7399146
19574.634456
19569.2684122
19565.6333325
19407.2486187
19484.0215987
19567.552502
19567.5644218
19543.3973886
19571.0013776
19573.2942508
19496.257015
19524.6148525
19572.1195298
19513.4307032
19572.9008731
19569.4919995
19569.0927824
19425.1840998
19515.4742301
19567.9117919
19570.3918109
19476.1638432
19565.6425863
19564.9615242
19405.6303831
19477.3416388
19564.6463535
19566.4105213
19512.2275969
19565.9140459
19564.4297029
19415.7984982
19477.0137304
19564.6823926
19566.4687763
19507.7405696
19566.0923946
19568.3522016
19426.5490123
19480.0356054
19566.7208551
19568.2188839
19484.2380783
19566.3259673
19567.5514436
19418.3923797
19480.93147
19566.5560458
19567.9266261
19457.7170492
19566.5881575
19564.9194271
19451.5180143
19495.0955262
19566.1849563
19566.6736782
19515.6161803
19567.1216387
19566.6569293
19479.4597149
19497.4685401
19566.7796969
19568.0632452
19514.866638
19566.6476552
19567.775899
19436.9832945
19457.7998629
19566.584021
19568.0072383
19503.0241129
19567.25268
19568.0827231
19442.5825624
19470.6281199
19567.7553537
19568.0644231
19477.0322925
19568.233165
19567.2649746
19491.5440602
19512.1640052
19568.3039436
19568.3993888
19540.750945
19568.6429108
19568.1572049
19501.5136748
19504.9232443
19568.5859349
19569.0936473
19530.8261417
19568.0761662
19568.4199725
19460.5496258
19455.1524257
19567.9388068
19568.7878325
19522.490956
19568.4398387
19568.4888757
19456.5807807
19469.6490345
19568.5852623
19568.7004854
19491.2738465
19568.5132859
19568.322784
19498.2189623
19508.0667163
19568.8649606
19568.8871327
19538.1989151
19568.483415
19567.8570817
19480.7608746
19469.5217656
19568.3721369
19568.685954
19512.7613459
19568.3477996
19568.5377306
19465.7440255
19447.5973501
19568.3480899
19568.7302975
19519.2062024
19568.4079132
19568.064117
19440.5121284
19452.8559194
19568.2612661
19568.3480379
19474.7697572
19567.8732909
19567.9569194
19439.477851
19469.9766553
19567.8068674
19568.3001823
19513.5564512
19567.7548357
19566.9382712
19438.8295262
19440.3608005
19567.2658717
19567.9144677
19492.8382093
19567.7353202
19568.1231803
19441.6159336
19435.9494856
19567.7894448
19568.1975786
19505.5256345
19567.755757
19567.1659834
19423.5869357
19437.4525519
19567.4936764
19567.6153618
19455.3773102
19566.75102
19566.853166
19398.9944738
19442.4768047
19566.5389252
19567.324135
19502.1754122
19566.5340613
19565.478836
19404.4773974
19424.3347145
19565.8577751
19566.7555082
19478.3366519
19566.5607864
19567.1578426
19421.2738906
19410.2616122
19566.7925398
19567.1481977
19492.0684517
19566.4765043
19565.6104023
19402.8851277
19413.4258269
19566.1394955
19566.3079142
19437.8481017
19564.7412859
19565.4717378
19393.3972321
19429.4212637
19565.0666529
19565.8927289
19483.3666294
19564.2492717
19562.8220101
19396.6860531
19400.1244061
19564.177251
19564.4397914
19447.4698728
19564.6454668
19565.4817388
19396.5146415
19380.8851081
19565.1389015
19565.4446276
19470.423623
19564.4856259
19563.1720416
19373.7576678
19390.4423581
19564.1029816
19564.33136
19410.8580307
19561.4384753
19562.5176655
19365.0851275
19409.4453919
19562.7560624
19563.2755133
19445.4211841
19560.9238166
19558.9194144
19373.7318721
19347.6602422
19561.7010735
19561.2100424
19380.8599119
19561.3026393
19562.9857157
19367.3138716
19335.2320961
19562.7246048
19562.870653
19434.0885617
19561.1473156
19559.2105916
19311.4576042
19343.9307445
19560.9568003
19561.243813
19358.4910676
19556.4644729
19558.2548728
19283.1251022
19351.1656784
19559.2444593
19559.5257103
19353.9925664
19556.0161753
19555.0656113
19278.3202724
19132.0319694
19557.6316928
19232.5065449
19556.0999169
19556.3906952
19558.9635321
19304.6947948
19239.0505704
19559.0425287
19558.9665048
19351.1297743
19556.391649
19555.7329505
19061.0202902
19214.0764965
19556.596837
19222.5874467
19555.527347
19571.935537
19572.5213862
19466.5698444
19529.0879113
19571.1009112
19561.4803924
19572.7955985
19571.0722088
19568.9806568
19456.0810445
19503.9700528
19569.6780265
19570.3959246
19543.4270896
19571.4318782
19572.1169135
19484.3163831
19494.275271
19571.9227615
19527.89127
19571.8563772
19570.9256843
19570.6779077
19482.7998618
19499.0545851
19570.3598291
19571.1678125
19504.5034338
19569.1650031
19568.5453864
19424.3436419
19498.3665197
19568.2114959
19569.6955094
19536.6835322
19568.9102494
19567.4053254
19430.2633417
19471.7953272
19567.591417
19569.0544768
19518.6094346
19569.3410637
19570.431874
19479.0886746
19491.5358568
19569.650875
19570.3673714
19524.293419
19569.1922979
19569.4280854
19448.4495418
19490.1589263
19568.958288
19569.7767285
19484.2412475
19568.5677197
19567.6673763
19417.1295824
19469.7781022
19567.8125558
19568.7540087
19520.5162369
19568.7260939
19567.9347432
19432.5151587
19468.0195222
19567.7213804
19569.1001508