/*--------------------------------*- C++ -*----------------------------------*\
| =========                 |                                                 |
| \\      /  F ield         | OpenFOAM: The Open Source CFD Toolbox           |
|  \\    /   O peration     | Version:  v1906                                 |
|   \\  /    A nd           | Web:      www.OpenFOAM.com                      |
|    \\/     M anipulation  |                                                 |
\*---------------------------------------------------------------------------*/
FoamFile
{
    version     2.0;
    format      ascii;
    class       volScalarField;
    location    "4.05";
    object      p;
}
// * * * * * * * * * * * * * * * * * * * * * * * * * * * * * * * * * * * * * //

dimensions      [1 -1 -2 0 0 0 0];


internalField   nonuniform List<scalar> 
28582
(
17109.7766995
17108.1009306
12211.8846645
12210.1201526
7314.15467578
7312.15046831
3641.50025395
3639.05543526
9.90405601565
13.0137315437
-27.0447101291
3640.11085313
617.558353167
616.439443438
3638.25530825
3638.5136218
616.736571414
1801.4491169
1801.48487307
17110.5249272
17106.6332977
17105.0761954
12212.6411615
12208.5393591
12206.8343098
7315.33259227
7310.28611609
3642.80667487
3637.57706156
15.1532795735
-27.0309500816
-26.9994245168
3641.59831168
3642.59466249
618.391515957
617.022686967
1807.27726115
3636.56825507
3638.10439738
3637.53073906
1801.45613967
624.107424821
1801.59010584
1802.17770765
10.4605496947
12.851915123
-23.1875650744
-23.1833886554
11.4416369384
-23.196668963
1805.28946545
1803.62343485
616.905406949
617.182163621
1804.65922357
616.686560318
1804.25750952
1802.90257387
1802.70364337
616.358085933
616.39315026
1802.36901868
616.480115962
1803.36253062
1801.69254039
1802.24371023
617.207749914
616.607464153
1801.97896998
617.210610791
1801.84175957
1801.41138231
619.051199611
618.942898709
1801.48493609
618.029833599
617.982822194
1801.5415422
1801.48697252
618.718285899
618.489872496
1801.49347911
617.701595851
1801.50298204
617.852718065
9.11330822045
-23.2495846707
9.6043373479
9.46784161113
-23.2485305199
-23.2575416392
14.5656378652
-23.1684095012
-23.1603679677
17.0125174319
-23.1407696859
17.939738284
-23.1311215242
1806.87945761
1806.76696086
617.861155162
618.684426004
1805.88223979
1807.67788921
618.207648504
1806.22846831
1804.76871646
617.525690992
617.508876535
1805.28102965
1805.74267524
617.811846439
618.383039866
618.152137876
1806.41758921
1806.92875588
617.929354724
1806.2641866
618.113211447
1801.32935831
620.257538513
620.118605164
1801.49321042
621.549116785
1801.13011034
621.42858463
1801.28986148
1799.88221311
622.885912884
624.04528976
1800.65456317
1800.74039704
622.913971678
1801.92750361
1801.62624351
619.800049171
619.50282708
620.798532815
1801.79371953
621.16241713
622.304798929
623.891448541
1802.28744865
1801.85965933
624.02838516
1801.58614149
622.733345379
7308.04415141
3634.91954208
21.0757875482
-26.9951469987
3641.51064076
617.815631347
3636.11500685
3633.90111515
625.079323621
625.335455428
626.889416369
3631.41680644
3629.43596829
627.013963117
628.157257546
9.19078165551
19.8024874376
23.0336311594
-23.0794567961
-23.0878392517
-23.0367343923
26.4730736639
29.6846486774
1805.20541864
1805.67315568
617.703775723
617.365129387
1805.79541292
617.42276659
1804.88854922
1798.42894529
1798.69384804
625.693282907
625.06524347
1797.12768596
1799.78026711
626.03085091
1799.59647489
1801.76316709
625.215171895
626.145323336
1800.84422108
626.228197885
1800.49476821
1797.81142854
1796.32376347
627.214418259
626.649755962
1795.68094686
626.825137795
1798.59328101
1791.53676721
1794.0793724
627.479862229
627.33051809
1793.53288299
627.817433024
1791.95342445
1790.05471695
1789.99536888
628.542092252
627.60820512
1789.38601601
628.178345789
1790.43076998
3659.29846288
3655.36821501
3653.30238779
3651.20064269
6.92677375136
11.4534161637
5.08560598274
10.4714158592
8.91996376396
-27.1101992338
-27.3222197918
-27.0230735781
-27.2408244609
-26.977683442
-27.1904939356
3660.3669267
3659.3350126
623.544496266
622.886163558
3661.98240093
623.924005945
3657.6431848
3656.25248194
622.265612489
620.411627011
3660.36802366
3657.03782733
3656.75745729
623.207448901
624.958229485
621.62580657
624.033273778
3655.29246096
3651.99641349
624.829379052
624.575157975
623.443759992
623.156069355
3654.84316901
3653.523539
621.143345071
623.90368411
621.816428345
3650.77290746
3652.21747146
3650.21253442
623.435413297
622.940795937
621.457783574
621.717257892
620.808471917
621.335446391
6.40498833512
6.27085597739
7.07011251661
-23.3655682542
-23.3521780161
-23.3558376725
-23.3228547254
-23.3381291046
-23.2761044846
-23.3236468449
-23.2629541433
5.43250389944
4.55916648289
9.34991179043
6.25821890793
8.87748240981
-23.3123223016
-23.2986351181
-23.3066880234
-23.300921873
12.1656049856
11.2859331211
12.1430985191
-23.3056233757
-23.2708568279
-23.3090800954
-23.2897184301
7.67949981212
7.0219609463
-23.3045760589
-23.3018854304
-23.3015715883
11.7040338624
9.62125180652
10.8502242113
-23.3103814386
-23.293648643
-23.3114573208
-23.2957846582
1822.57391456
1824.33049103
622.278164241
623.467878496
1823.99344576
622.233598815
1822.8398154
1822.20228168
1822.83553768
623.288607339
621.609239199
1823.52238643
1821.61437261
622.10481146
1825.38376552
1823.69093687
624.552331968
624.670323582
1824.62898361
1824.19349786
625.516953893
1820.52272165
1822.01398594
620.961443995
621.556338387
1820.97337543
1821.41430932
620.420402089
1820.0800896
1820.48702028
620.96511208
619.181834255
1820.91238686
1819.64755151
619.829496852
1821.79451922
1822.5684423
623.937029674
622.753003332
1822.85281036
1821.88404207
623.567235696
1821.11249269
1822.1425657
624.740293475
624.189202811
1822.79433769
1820.46300532
623.733494015
1821.07032446
1820.90549219
622.277422545
622.631972355
1821.324119
1820.79391303
623.22314305
1820.18140969
1818.79903454
623.949624152
623.639181703
1819.29585624
1820.13595494
623.477799017
1818.88240542
1821.665873
625.332038838
624.869024669
1820.93406973
1820.0810326
624.367262495
1817.33764178
1816.8701942
625.290625754
623.934838662
1819.33896997
623.864419357
1815.66631907
1816.91930187
1817.21404059
624.600708801
623.779824792
1818.44534028
1816.11082584
624.031504772
1815.36123853
1813.45377103
623.500843295
623.93545105
1814.98051161
623.193834213
1814.22027515
1820.25606981
1820.62120023
622.296962283
620.574292432
1820.62009624
1820.22539674
621.813463462
1819.58182193
1818.63725028
623.456291622
623.406537229
1819.99812554
1818.51044564
622.71871228
1819.00847264
1817.03713327
622.797818456
621.721533029
1817.95026509
1818.22490005
622.144332209
1815.4109611
1816.95332472
623.67001449
624.036463463
1815.70090005
1817.25312296
623.41744858
1813.74746361
1813.06283626
623.839990948
622.744411317
1814.54236086
622.38966475
1813.00566541
1815.13437857
1815.71787035
623.394180919
622.195615341
1816.79920841
1814.84665877
622.822156337
1813.56775531
1812.88027215
622.317917466
622.559735554
1813.99879585
621.913215402
1812.91653447
1814.1363112
1815.13651614
621.580662238
621.036724268
1814.4781728
1814.86131279
620.842033894
1812.9976295
622.019761644
1813.89400461
17108.517182
17107.1579124
17105.9550283
17103.4904187
17102.3214368
17102.8126145
12210.653201
12209.2716037
12207.8961606
12205.1071193
12204.0160973
12204.4425328
18322.9791724
18325.5933726
17099.1811105
17102.6867309
17104.3631185
17103.140872
17101.3284869
17099.2244528
18325.1580513
18327.8066916
17104.3120232
17105.231327
17104.5130337
17102.8195889
17101.0613196
17099.6315919
17105.7836254
17104.8676558
17105.0857038
17104.7797952
17103.7347211
17102.1380826
17100.7710157
17100.0467324
17108.4914365
17106.7088531
17106.171472
17105.5568261
17104.1898543
17102.4362659
17101.0651862
17100.9342647
17104.4131328
17102.7080919
17101.4011788
17101.7689998
13422.8174368
13425.1418966
12203.3068273
12204.8935025
12206.0585146
12205.0458818
12202.230862
12199.4290558
13427.3611547
13428.5123395
12208.1565179
12208.5952735
12206.9684003
12204.5059466
12201.9961578
12200.1924807
12207.4025597
12207.2364732
12207.5492282
12206.9403173
12205.6607323
12203.6302923
12201.8187766
12200.8453851
12210.5789344
12208.9143515
12208.4008835
12207.7291189
12206.1367886
12203.9477342
12202.17502
12202.0050441
12206.0679319
12204.1391933
12202.9376893
12203.1399553
8523.44429919
8526.65972483
7306.9881724
7308.97302954
7309.16708874
7305.94369895
7300.83033477
7298.37151982
8528.33857908
8531.01137326
7307.51295205
7309.41420827
7309.27756829
7304.92176887
7300.1859556
7298.9612013
7309.57362843
7309.66083333
7309.69424998
7309.56640297
7307.72851598
7303.67314325
7299.86791198
7299.83473752
7316.46146581
7312.89453874
7311.31075001
7310.60247762
7309.663106
7307.45122012
7303.50914266
7300.22896729
7301.15175539
7313.22367971
7311.55202652
7309.61981436
7307.0401144
7303.40181735
7301.00922731
7302.39284255
7305.04623745
7302.79602323
7303.91878641
3628.97663409
3631.85282459
3633.35030622
3636.7125212
3639.65643525
3633.34365978
3624.80350756
3624.16645451
3631.92125498
3632.24183697
3634.25410785
3634.8658549
3637.7514566
3639.54589203
3633.04575529
3624.62573401
3623.97970303
3647.60820456
3641.05052582
3636.79474643
3636.68989051
3636.89742365
3637.94425905
3638.45806782
3631.46788254
3623.94185601
3624.04530484
3644.31365084
3639.80104208
3637.72602521
3637.32538907
3638.05175557
3636.98052174
3629.61034974
3623.43189641
3624.42560574
3640.70901983
3638.82300358
3637.29052091
3634.51689588
3628.06437674
3624.32615154
3626.00792366
3630.01586811
3627.34071051
3628.64334614
10.2121256104
10.2703605913
9.7420044876
10.2636738305
14.7759731732
25.6935285237
31.3689499435
32.0441062243
11.6832296573
9.8233692608
8.20039173454
8.61908875797
8.79018403622
9.66265724293
15.346456494
26.0045411408
30.2503905684
30.2824237043
11.4584329856
10.2362046907
9.40318144926
8.59322235426
9.07216316199
11.0988990932
17.1170988914
26.8977804613
31.0475196858
31.8746947713
10.0534562882
11.2336595907
10.8452347004
10.4517915355
12.5604696097
19.1562338925
27.9546225211
32.3433600723
35.4239737265
9.11244399182
10.4714282182
14.5744895538
21.7561347128
29.4376579765
33.2127343113
34.9161995117
27.9109635144
32.4290441621
33.7315472161
-27.1316031539
-27.0533680064
-27.0501563061
-27.0382869402
-27.0234811212
-26.9944022479
-27.0081744432
-27.0389467823
-27.1643816103
-27.4934988577
-27.0763318588
-27.0185732258
-27.0044335336
-27.0117729855
-27.0097485585
-26.9864057015
-27.0331543527
-27.0388845436
-27.158956089
-27.4925520249
-27.0996622985
-27.0290999066
-27.0061730067
-26.994118714
-27.0009307084
-26.988133958
-27.0885711738
-27.0337865137
-27.1717129977
-27.4742437836
-27.0568581637
-27.0328422545
-26.9951044955
-27.0008519157
-26.9837739964
-27.1303468557
-27.0469755236
-27.2102096499
-27.5076766465
-27.000829793
-27.0480733127
-27.0806100754
-27.2330414379
-27.0810678559
-27.2200189382
-27.6040134156
-27.0528645063
-27.2044153551
-27.6398692605
18324.6132041
18323.3355236
18325.5262637
15873.0146164
15874.8510926
15873.9564297
15875.3700704
18326.3732336
18326.7138672
18327.2812845
15875.8234926
15873.2952712
15876.1502333
15875.9180128
18326.6823839
18327.2684189
18327.5600747
15876.061035
15877.4904655
15878.0323446
15878.4560295
18327.9810163
18328.4691772
18328.9320555
15878.2284437
15878.0294884
15879.6245344
15880.5207577
13424.3367517
13424.3413821
13425.3818991
10972.6142795
10974.2431072
10974.3021769
10975.9046545
13425.5429208
13425.9457264
13427.358063
10975.0848163
10975.519463
10976.9713061
10977.3603322
13428.0909193
13428.9382179
13429.5343204
10977.6532647
10978.7638498
10979.8345945
10980.1649298
13428.6612596
13430.5567255
13433.6556166
10979.5101234
10976.7324789
10980.728483
10983.0848972
8525.34982276
8525.45903791
8527.26404564
6075.49608956
6077.50655136
6077.43998627
6079.0657695
8527.27523898
8528.50083094
8529.27264903
6079.28338012
6080.11745493
6080.37401057
6082.37471461
8529.83252502
8530.7759893
8531.42710126
6079.84137093
6081.4373077
6082.07556623
6083.07396113
8528.78217461
8532.00527232
8533.5500066
6082.47941787
6082.49620803
6084.02550037
6085.62115674
3627.16215228
3629.26949888
610.719627547
611.16733731
3630.61970993
3630.66952852
3631.80550754
611.386222713
613.051413956
611.499332599
612.548347181
3632.43917413
3632.65100682
3633.24614787
613.301497285
613.147860735
612.703184003
612.930674288
3634.76511737
3633.66025533
3635.03510697
613.213575036
614.298757952
613.027807411
614.201594011
3639.00120274
3636.99943392
3639.15146521
615.064725295
620.447379756
614.981226677
620.523463596
3637.53286844
3639.59473942
3637.73784418
623.548805466
631.043500915
623.693947113
630.965460253
3628.02598144
3633.45112607
3627.99039597
630.974580639
626.154813246
630.851950984
625.666101049
3623.68481211
3624.70154493
3623.49081267
624.31898176
625.496373343
623.765837653
623.771774967
3624.66652859
3623.97532607
3624.730752
628.071779852
610.622053185
626.151053546
608.649064687
3646.61816288
3641.39770316
623.377672737
617.32779597
622.39146677
619.914972771
3631.08468735
3637.44864693
3634.8776437
614.823588906
611.66208122
618.295802129
614.793754181
3633.54283523
3634.39531366
3635.13552398
611.80312816
612.412822305
614.01756059
613.158641908
3634.62199555
3635.92870272
3636.41831859
612.55538432
612.978830005
613.333873533
613.694297415
3636.07647673
3636.94321631
3637.3746745
613.107117849
614.375680555
613.731323204
614.285538179
3639.36603067
3638.1670733
3639.14029622
615.131949382
620.6322853
615.23507749
621.356292015
3637.46242848
3639.06210845
3636.72409516
623.854515298
630.752671047
624.521485981
630.610400942
3627.9041476
3632.33060673
3627.4454205
630.646127965
625.650929569
630.367593704
625.639633859
3623.4493825
3624.35960799
3623.35745517
623.831129244
623.547986313
624.012532303
624.328841564
3625.10741707
3623.89656884
3625.59692572
625.882639598
608.090082103
626.647220102
609.180004233
3644.27431051
3647.98475039
3645.56904006
622.055094012
620.36148359
621.080600891
620.355367823
3638.3998742
3642.96725457
3640.38718992
619.096710164
615.967275578
619.627040283
617.498444582
3636.38754783
3638.32027427
3637.22184563
615.190393765
613.880003199
616.725236409
615.586719919
3636.89645431
3636.982071
3636.89033988
613.929280666
613.954916972
615.324388558
614.286360808
3637.16973807
3636.92673967
3637.31869809
613.713662179
614.384325595
613.929703426
615.413153984
3638.80319103
3637.99333496
3638.61532486
615.499303337
621.813121828
616.819830014
623.677649575
3635.88087345
3637.81874923
3634.97976713
624.95305024
630.631744402
626.726549966
630.193984512
3626.72967035
3630.51347631
3626.1023127
630.224643684
625.487457838
629.128780593
625.124423688
3623.03059612
3623.68878147
3622.66890091
623.996834772
625.033752179
624.012284797
627.75817367
3626.42144281
3623.94196709
3627.24013972
627.514538704
610.350989274
630.783363946
614.369796753
620.800829001
620.225806547
3641.92263405
3643.33968536
619.610384769
617.824727288
618.629043764
3638.3752031
3641.46031239
3640.01979879
617.200058576
616.117433552
618.089474944
616.825077968
3637.41823079
3639.13873594
3638.61098883
615.832714647
614.599501489
616.515550364
616.450715688
3637.61539482
3638.06690424
3637.7929382
614.267743838
615.817603621
616.173894714
616.813169724
3638.27419823
3637.72240118
3637.34442784
617.328540063
624.310795016
618.312301472
624.868912939
3633.94053813
3635.67555134
3632.61006121
627.267781992
629.789248838
626.926958438
627.284456362
3625.56745327
3628.65075363
3625.39297312
628.578920585
625.108727676
626.498865548
625.618154616
3622.87525574
3623.46617277
3623.52977038
624.216013147
628.876203847
625.975687228
631.221440285
3628.04970633
3624.93658555
3628.66820751
631.905063204
615.179769293
633.567474261
615.353706305
3639.83661541
3640.2670624
616.642641257
617.032314134
616.65472661
3637.89975512
3639.10687061
3638.10132571
616.992731333
617.232157412
616.820995526
618.844035541
3636.35337224
3637.26792314
3636.07299203
618.604296692
624.534752257
620.066963012
624.078177034
3631.55365707
3634.2006288
3631.5363308
626.265492669
626.687468053
625.013484675
626.482435054
3625.6834042
3628.73823309
3626.82047582
626.21472053
626.145881405
626.762699054
628.20260256
3624.7252349
3625.83546027
3626.13978872
626.787116619
631.648529697
628.670436453
632.533303205
3629.21146626
3627.18980969
3629.87008048
633.566334274
614.641705245
633.951006037
612.96143212
3632.5347437
626.879803496
3628.19249935
627.203628027
628.661488381
3627.59146261
629.082199123
632.748905026
3631.01845291
634.197065323
612.830044775
-23.233414576
-23.2541932143
-23.2344641289
-23.2675767955
9.81393826953
9.00043412238
-23.2522574921
-23.2501085636
-23.2641687697
-23.2545347107
10.4171947369
9.20959145314
9.47550985914
-23.2431553142
-23.2442781896
-23.2481551196
-23.2460671503
9.96381110915
9.51886660365
9.46267316519
-23.2408731515
-23.2414616278
-23.2401609358
-23.2400695834
9.80887099232
9.38550779646
9.45293061766
-23.2369816789
-23.2339903722
-23.2370021954
-23.2342477039
11.5610850743
9.86646267009
11.2412024062
-23.2278420695
-23.2095816311
-23.2309753754
-23.2061592576
20.1263021569
14.7673575068
20.2636527953
-23.1390215577
-23.0673661437
-23.1457743243
-23.0706530654
30.1498928381
25.7119174245
29.6831644039
-22.9555767349
-22.9326112901
-22.9687262493
-22.9401964316
31.0836377382
30.5924122502
30.1014262486
-22.949183019
-22.9602362522
-22.9556138618
-22.9619352332
32.9033546062
30.8464927662
31.9009346636
-23.0040273012
-22.9273518933
-23.007263357
-22.9215692993
10.7276060979
11.7832584099
10.9155978987
-23.2521702586
-23.2814501433
-23.2824832058
-23.2897562558
8.66970966259
10.1250542651
9.18494964151
-23.2851763242
-23.2677913778
-23.289317417
-23.2777272487
8.35818652531
8.29170587858
7.83167582927
-23.2527911873
-23.2449502988
-23.2629273632
-23.2454003606
8.75166132517
7.91914101753
8.11919490879
-23.2374984495
-23.2380381098
-23.2386581314
-23.2376589212
9.00833113523
8.40191174937
9.04390776067
-23.2344996387
-23.2316010283
-23.2282664964
-23.2221958212
11.4626512624
10.2181860458
12.3666039202
-23.2334008381
-23.2013131948
-23.2216651917
-23.1860879717
20.8025632356
16.2728600717
21.4896596426
-23.1454746125
-23.0755405797
-23.1376993079
-23.0755588893
29.5500362311
26.4392869713
29.7925558397
-22.9743444737
-22.9548113336
-22.9780611709
-22.9665775328
29.6615932205
30.4362367644
29.9446224699
-22.9632909578
-22.9629973575
-22.975427448
-22.9690124772
31.2874340087
30.6233825452
31.7853064804
-23.0055639868
-22.9114827757
-23.0058978577
-22.9182217196
10.7588853243
10.7681456494
10.4439123772
-23.2874175092
-23.288505506
-23.2816792508
-23.2736710779
9.87098772218
10.4607857789
10.7206818891
-23.2816566168
-23.2731730128
-23.261845532
-23.2612972865
8.89669378112
10.683747832
10.4375916177
-23.2670743511
-23.2599594443
-23.2653627646
-23.2661554898
8.69313788361
10.0162703494
9.80953414702
-23.2499302082
-23.2418950608
-23.2548522331
-23.2352917885
9.84366787981
9.95382841832
10.5685873264
-23.220600066
-23.2088008942
-23.2116588678
-23.1989094942
13.2835333128
11.9069718211
14.1320189487
-23.1948473219
-23.161757283
-23.1850691623
-23.1499933045
22.1460185283
18.0280829033
22.8642369119
-23.1241566268
-23.0717921985
-23.1161765004
-23.0639961324
30.2669600349
27.3980710504
30.8740967405
-22.9671194346
-22.9653081525
-22.9608792039
-22.9534646055
30.8553302742
31.6919853285
32.1770318816
-22.9784484599
-22.9714799647
-22.9767474674
-22.9715372383
33.240692765
33.9158245831
35.3395567438
-23.0009556169
-22.9411971019
-22.9950431854
-22.9371606048
10.7358247222
10.0378409849
-23.2444093618
-23.2358694692
-23.2323753881
11.2231196773
10.5438698741
10.4725716054
-23.2437703931
-23.2601383734
-23.234035406
-23.2509863073
10.4029739809
10.2117469989
10.1174065851
-23.25417915
-23.2291029042
-23.2511691999
-23.2309499709
11.0597663462
10.5107638415
11.5763055331
-23.2034902918
-23.1921911479
-23.2063681067
-23.1911002099
15.0902619721
13.4070475613
16.3673490465
-23.1775955764
-23.1427812449
-23.1742956622
-23.1455930373
23.6909520563
20.468209651
24.7525872425
-23.1145403847
-23.0585672237
-23.1145895015
-23.050714833
31.4889465138
28.7908151867
32.0698452782
-22.9467024157
-22.9242466771
-22.9444368934
-22.911414559
33.5443244625
33.037993591
34.4120721796
-22.9555887772
-22.960717764
-22.9478037452
-22.9564758769
36.4773358021
35.7043444996
36.1593164725
-22.9894873917
-22.9374451267
-22.9860405539
-22.9336764704
9.35343801113
9.62083863662
-23.2604631283
-23.2354857803
-23.2394274435
-23.2205673493
12.2334500442
10.7806790488
12.7033073163
-23.2227368928
-23.2064148367
-23.2073544147
-23.1968652794
17.8263821837
15.2040827322
18.4286012476
-23.1938826019
-23.1652036407
-23.187588182
-23.1603718
25.7553249201
22.0110230409
25.6842656597
-23.1184057264
-23.0518680822
-23.1134399565
-23.0504160257
32.2618561311
29.1147325294
31.8620060077
-22.9391198475
-22.9191506369
-22.9368015197
-22.9189915168
34.3204370066
32.974885612
33.7514984609
-22.9443096573
-22.9518958249
-22.9437393272
-22.9537762533
35.2153077692
33.9927549326
34.4855087195
-22.993549319
-22.9223088218
-23.0017189615
-22.9155312742
24.5144287998
-23.0333452594
30.9461028754
-22.9439083038
-22.9365681092
-22.9639384056
-22.9613072065
33.3177905994
-22.9549320886
-22.9582190251
-22.9730713662
-22.9659499807
34.3521982596
-23.0156745392
-22.9191162433
-23.0159188336
-22.9232359952
1792.05075861
1791.47337748
609.829176106
610.826046457
1792.14937516
610.409341801
1791.16296277
1792.99883019
1794.49817925
610.8807862
610.965605922
1793.19728371
1794.12251309
610.584259305
1793.55843954
1792.12765317
612.133577121
611.308267419
1792.69809223
612.043064509
1793.06925897
1794.39799414
1794.70552454
612.741464007
612.800636239
1795.00218833
612.60743174
1793.9856451
1794.34170508
1795.00105018
611.288421312
611.947875045
1793.64775491
1795.53562439
612.023565369
1795.04247393
1796.27302864
612.724861848
612.337558427
1795.52296267
1795.97689317
612.554928728
1795.73766766
1795.26097321
613.317121899
612.99239566
1795.45721039
613.00445434
1795.62114061
1796.08336891
1796.31072988
613.218636381
612.99353346
1796.35632611
613.010096262
1796.00851205
1796.12793944
1796.54998909
612.879793305
612.765661295
1795.86817045
1796.76674902
612.900016664
1796.45004756
1797.29213068
612.922738576
612.869000887
1796.72032507
1797.05539218
612.930168393
1797.30115395
1796.78988051
613.389134524
613.071844464
1796.80720497
613.292229728
1797.32894212
1797.96362652
1798.98974813
613.745882386
614.280039243
1798.99460823
613.663689587
1797.97591421
1797.56700388
1797.64418441
613.046877185
613.245561148
1797.12034976
1798.05863519
613.279622874
1798.24101904
1799.6187239
614.224346023
613.605384166
1799.23409649
1798.6948418
613.610356072
1801.6105953
1800.15868343
616.377926774
615.106508306
1800.15186849
616.333176311
1801.59799447
1803.20127087
1805.08451407
618.102902384
620.394900037
1805.23316007
617.959967304
1803.17016792
1801.8966123
1800.72169701
615.04832835
616.231357657
1800.42191463
1802.12023072
616.270036412
1803.49568016
1805.40723009
620.454601857
617.987240766
1805.39799855
1803.65580275
617.963699599
1807.44809312
1806.56733637
626.724776289
623.491113663
1806.75170546
626.627574708
1807.267281
1806.33905083
1803.45965792
629.687977804
631.014665638
1803.62986377
629.65027548
1806.155352
1807.49326544
1806.69462041
623.591957756
626.828461161
1806.82135372
1807.21584454
626.75106694
1806.39745957
1803.26452286
631.037284431
629.699091787
1803.65021169
1806.04864839
629.731504988
1794.06788055
1799.3622007
629.751945264
630.967573581
1799.56392849
629.896015659
1793.92872515
1788.84095161
1784.22338037
627.826323049
625.80850649
1784.30330641
627.843115443
1788.81978564
1794.03995308
1799.09178144
630.890151845
629.734324529
1799.43585938
1793.94534972
629.860064666
1788.9622203
1784.45750342
625.661124372
627.674922535
1784.43892938
1789.02571538
627.807972313
1781.41615871
1782.04336889
623.53003915
624.231942385
1782.04738199
623.117324191
1781.63379048
1781.6861208
1782.11098627
623.991768464
624.802033664
1781.8409528
623.299192198
1782.01665008
1781.24445247
1781.76999873
623.921637099
622.440471221
1781.96798832
1781.09445375
622.639179415
1781.52287427
1781.71075627
624.134439226
622.407352404
1781.66054465
1781.44126884
622.667773104
1780.78334023
1782.42401865
631.92775841
627.384598904
1782.16329956
631.098382081
1781.0844524
1777.27677452
1781.36797122
636.262897973
609.823823327
635.487002415
1781.14855054
1777.5472155
1780.43972892
1781.81177152
626.666638644
629.718125708
1781.93668364
1780.46929541
630.217385364
1776.7400612
1781.20403452
609.277821859
633.644609045
1775.76300161
634.243893594
1781.01878841
1809.58431872
1813.16536047
621.380013561
623.681065489
1809.1231207
622.048671974
1812.88255924
1806.23014898
1801.22303019
619.479890209
618.147864867
1804.95221189
1803.26824579
620.019917946
1810.09801583
1811.82500155
623.495452023
622.045314513
1810.5040361
622.163882338
1812.44639237
1807.52330342
1806.73127233
619.04231402
621.371104534
1805.13553751
1808.83122775
620.454527556
1798.39925455
1798.30315837
612.759124613
616.348554163
1796.20332931
1800.72602376
614.368515404
1797.33818492
1795.66852571
611.761094256
612.439033734
1795.50225924
1797.17940622
612.974338612
1800.65767779
1804.57854938
617.475159807
617.089833819
1802.84217379
1802.74109798
615.763481339
1799.34956803
1800.28738388
613.647007304
615.894085568
1798.75604578
1801.31813942
614.488462442
1797.73814318
1796.12552192
612.035271487
612.234886933
1796.52559187
1797.39449661
612.246779191
1798.01651641
1796.98151023
612.192151912
612.432174948
1796.8010446
1798.15813423
612.363692378
1798.70371906
1799.78268911
613.091894857
613.501508977
1798.60021003
1799.59155446
612.753643313
1798.9152092
1799.83358356
612.71774664
613.108685138
1799.09452678
1799.63918255
612.627248068
1798.44243984
1797.27015256
612.68045343
612.554428342
1797.51301949
1798.26395937
612.756356159
1798.63932184
1797.9305167
612.863917947
613.136717652
1797.76214459
1798.75613925
612.991037583
1799.32158852
1799.97474507
612.82156346
613.412290739
1799.18812177
1800.08487172
612.989888227
1799.48743258
1800.04912927
613.385051208
613.579318803
1799.55454218
1800.14628801
613.170554261
1799.12083492
1798.17455311
613.349685408
613.322578142
1798.54570336
1798.89710954
613.52158275
1799.53121956
1799.96780426
613.747061007
614.431863456
1799.1178518
1800.23222608
613.867908
1799.59660662
1799.86884511
613.639381319
613.821910833
1799.59808132
1799.6448447
613.789248704
1799.79178655
1800.03187628
614.427704664
613.861113099
1800.26187465
1799.64144847
614.017299111
1802.2897359
1801.01478772
616.362739412
615.14947384
1802.29118279
1801.1307098
616.423902236
1803.61279146
1805.32832409
618.11930022
620.787701151
1803.70607938
1805.12697229
618.259851449
1802.16175563
1800.84290778
615.129402858
616.772314316
1801.04787733
1801.99668842
616.509242183
1803.46530482
1804.80008256
621.029776316
618.816853602
1804.94414646
1803.33092378
618.471533589
1806.37825068
1806.54317379
626.836549098
623.985637579
1806.85280691
1806.23686778
626.911874019
1805.00284156
1802.77127018
629.535458409
630.551023077
1805.58442249
1802.16353854
629.427009546
1806.03465609
1805.76936073
624.205049057
627.352822206
1805.96809793
1805.75900198
627.062253908
1804.57883528
1801.28224657
630.523103305
629.69150869
1801.68315856
1804.24041659
629.47359756
1793.35456591
1798.68819609
629.618842406
630.408475349
1793.70631115
1798.1485128
629.491431422
1788.757813
1784.54790871
627.546673585
625.638861713
1788.91847061
1784.61915268
627.600461659
1792.9488097
1797.24360854
630.324713362
629.332313245
1797.69601879
1792.49171405
629.361923143
1788.47171629
1784.08151948
625.618894796
627.407762653
1784.44639341
1788.05514025
627.498072273
1781.1963899
1781.87397044
622.466430118
623.959524335
1781.1073646
1782.06612905
622.607914411
1781.35808615
1781.80956371
622.290555339
623.584558642
1781.39320977
1781.81263296
622.321503903
1781.23471104
1781.81014821
623.983446421
622.948608185
1782.02043187
1781.23845809
622.724242194
1781.41772757
1782.07493861
623.88801398
623.054138505
1781.8881108
1781.56391691
622.488140558
1780.32278206
1781.73815499
629.195708772
625.95256174
1780.42627812
1781.78010523
629.095087561
1775.09948242
1781.23484911
633.045226839
607.991070638
1775.41217009
632.88054924
1781.30693967
1780.31575974
1782.07980843
626.223750022
629.85562563
1781.83713018
1780.51912006
629.200727007
1775.02548657
1781.99158
608.449633535
633.71890639
1775.2307403
632.923176037
1781.55217117
1811.15531129
1811.77572524
621.931791992
622.755254332
1810.84179266
621.790931583
1812.27204343
1809.94953479
1807.95418565
621.600218601
620.634760517
1809.65390074
1808.69523681
620.973624678
1811.38278946
1812.04643704
622.384024917
621.270622499
1811.55139506
621.488086524
1812.32457928
1810.32410928
1809.59164636
620.579831729
621.157505661
1809.18295099
1810.79845486
620.764827397
1805.42912557
1806.04985677
618.142068542
619.871419347
1804.33530701
1807.1178973
618.750584973
1803.86381191
1801.62473248
617.034072942
616.751707436
1802.84600617
1802.4743397
617.70819522
1806.06316629
1808.09835358
620.013753536
619.033626524
1807.71708787
1806.5183842
618.998309109
1804.46533306
1803.42829387
617.222303875
618.273635686
1802.98267196
1804.96942491
618.102759133
1800.67793563
1800.84205556
614.445920373
615.830008564
1800.31671405
1801.41849188
615.139004582
1800.37519707
1800.22169973
613.966268937
614.417769365
1800.1448677
1800.31150625
614.705605356
1800.92216229
1802.13386985
616.325187063
616.122281643
1801.77633056
1801.19023527
615.685756638
1800.4851916
1800.41158116
615.003874505
615.795451812
1800.29205916
1800.67215294
615.342989844
1800.27962694
1800.32094104
613.950032931
614.293561214
1800.36081818
1800.29604703
614.347857414
1800.09924913
1800.02363785
614.030497492
614.114366289
1800.27915559
1799.79411991
614.26709185
1800.09795585
1800.22983316