/*--------------------------------*- C++ -*----------------------------------*\
| =========                 |                                                 |
| \\      /  F ield         | OpenFOAM: The Open Source CFD Toolbox           |
|  \\    /   O peration     | Version:  v1906                                 |
|   \\  /    A nd           | Web:      www.OpenFOAM.com                      |
|    \\/     M anipulation  |                                                 |
\*---------------------------------------------------------------------------*/
FoamFile
{
    version     2.0;
    format      ascii;
    class       surfaceScalarField;
    location    "4.05";
    object      phi;
}
// * * * * * * * * * * * * * * * * * * * * * * * * * * * * * * * * * * * * * //

dimensions      [0 3 -1 0 0 0 0];
oriented        oriented;


internalField   nonuniform List<scalar> 
92311
(
0.201568326683
-0.000146777434035
0.000408763474753
-0.201561254915
-0.00026905778905
-0.000198366191737
0.201436081966
0.00105079108216
-0.000719947952101
0.201539145966
-0.000309012399304
0.000423955066478
-0.201523756516
-0.000276844483621
-0.000427916373344
0.201413996714
0.00107888519948
-0.000723807105332
0.201416739442
-0.000118725511449
-0.000123979123562
0.000419130862441
-0.201432435265
-0.000302733252939
-9.08222833721e-05
-7.60446737094e-05
-0.000159171363377
-0.000177859840521
-0.000106170838339
0.201231295899
0.00109999308369
-0.000802189432102
-9.69282040494e-05
0.0503782383561
-1.75041207642e-05
-3.02888856531e-05
-2.90803962273e-05
-2.31266581701e-05
2.25131974767e-05
-0.0503654677232
-5.4006473811e-05
-0.0503727769452
0.0503268748963
-2.77591668006e-05
-2.89059364504e-05
-2.92471130068e-05
-2.74251017411e-05
0.000166509089801
-0.00016645547574
4.25216943111e-05
0.0306763476899
4.11521773428e-05
5.25000142798e-05
3.88493877106e-05
-0.00124421615275
-0.0329331436652
-0.0011235196688
0.00444959308926
0.026620420174
0.00765347452166
0.000339428500736
-0.0284059041193
1.89815769703e-05
1.28699125756e-05
8.09567395632e-06
7.25030203719e-06
-0.00625467600165
-0.0150275625816
-0.000760031307019
-0.00167717009289
0.000809466828104
0.0020022510741
0.0132538727663
-0.00265818039481
0.000766277196875
-2.76723396715e-05
-2.56619843678e-05
-2.5932924719e-05
-2.50480312548e-05
9.6138549829e-05
-0.000110403755918
1.17789132663e-05
0.0124602357517
1.86718362395e-05
3.71408182873e-06
-0.0124517785949
0.0124535157345
-1.99403387238e-05
1.43856948625e-05
-0.0124586200737
1.90314340497e-05
-8.37564489882e-06
-0.000213038002154
-3.85923958051e-05
0.0502834753879
-3.90873471174e-05
-3.56035087866e-05
-3.47548867099e-05
0.000226523179767
-2.09885811824e-05
0.050241332237
-2.36981438933e-05
-1.87271277764e-05
-1.94177593156e-05
-0.0502722630218
-0.000205499254219
-1.49043087306e-05
1.48443048071e-05
0.0124445094907
2.14436749293e-05
-1.24506529836e-05
-5.54787237802e-05
0.0125511745654
4.61072740313e-05
-2.42697965917e-05
-0.0125561390628
0.0125480032664
-5.36104351007e-05
-1.9066385194e-05
-0.0125518860075
-8.19572464338e-05
0.202095536657
-0.000446129541923
0.00036014824767
-0.201927598051
0.201363755864
-0.000250549349345
0.00128454124331
-0.000960924780848
-0.000278485124922
0.201319313342
0.00133781549149
-0.00101424842208
-0.000123759359201
0.202026566256
-0.000371218492471
0.000369299552617
-0.201982662564
0.201344929808
-0.000564338139091
0.00132286260916
-0.00093943850458
-0.00065869430537
0.20137006804
0.00137371513834
-0.00101812583674
-5.31621539223e-05
-5.91063971936e-05
-4.86751114465e-06
-0.000490904117823
0.201938168511
0.000394635354401
-0.201854670448
6.24152917908e-06
-0.000242995138692
-0.00030391406562
-0.000169800955961
-0.000215804515188
0.201261027254
0.00136859237657
-0.00103013362319
0.0504813493716
3.86203470734e-06
-7.98991088385e-06
-1.53765732319e-05
1.11471823982e-05
-0.000290384843347
-0.0504588122884
0.00022303962997
0.0502498417
-0.00025362268841
-5.38443272118e-05
-5.54552751114e-05
-6.12224120541e-05
-6.49542208031e-05
0.000279692717031
0.00791863602807
0.00264078248747
0.0231001910087
3.28200801684e-05
2.60206197641e-05
5.1785475799e-05
3.44157096716e-05
-0.00718457200649
0.00120055906364
0.000678848023081
-0.000144282576416
-0.00466507505747
-0.00637437166167
-0.00501824057264
0.00408585414527
0.00364290596016
-0.00103327960411
-0.00230013748889
-0.00298000480057
-0.00349610873453
0.00517242906532
-0.00212803647035
0.0113870396313
0.000122401939955
-1.0995776269e-05
-2.59526564672e-05
-2.54014405078e-05
-2.08915968762e-05
0.0505210767547
-0.000138053828747
1.89944079363e-05
7.59543846766e-06
1.31457389909e-05
2.85105660681e-06
0.0504046444062
4.25360778893e-05
-0.0503722201441
-1.8069879378e-05
-7.6577570817e-07
0.0124639842507
-1.86335230121e-05
2.1444281999e-05
-0.0124479561805
-2.07566998576e-05
2.73528691482e-05
-0.0124769073622
-4.83822990259e-05
4.29509632106e-05
0.0124757515773
2.73376585586e-05
0.012581806339
-2.38160811164e-05
1.22387569228e-05
-0.0125785881495
-0.000281384756218
-7.95402526699e-05
-9.91556290096e-05
-8.10160144339e-05
-9.25209913007e-05
0.0502744518392
0.000305074305297
0.0502228695532
-3.59464049214e-05
-4.31220779924e-05
-3.84684213721e-05
-4.2403214022e-05
-0.00024504519436
-6.34797144519e-05
-6.97808012175e-05
-6.08879480729e-05
-7.10498246649e-05
0.0502585458682
-0.000267714334469
-5.80958364301e-05
4.85495926957e-05
-3.65302532771e-05
0.0125433246044
-9.51090593845e-05
0.000106646015388
-0.0123321558363
3.03626480805e-05
0.01230975293
-1.9531781709e-05
-5.55515405943e-05
-3.0915641019e-05
0.0125403862807
-0.0125388773804
-5.4056661005e-05
0.0125322668972
6.08251258083e-05
-6.36502008728e-05
0.0292870942842
2.81266692134e-05
1.29388203883e-05
2.42830249295e-05
-0.00287256604171
0.00565631812776
-0.00147973039891
-0.000124187895669
8.08499269322e-06
9.42945082105e-06
5.28474349798e-06
2.6740814259e-06
0.0269968246601
0.00910624813154
-0.0283511999049
-0.00162044101367
0.00346908612525
-0.00508817012735
0.00235648813819
-0.00553238780606
0.00256956802305
1.0697988574e-05
-0.00132175381192
8.32793775207e-06
-2.36642301421e-06
1.68673934486e-06
-0.00465644473367
0.00683470606832
0.000641878321537
-0.00831264284144
0.00161964742542
-8.91508658624e-06
0.0125900722089
-1.14241508388e-06
-0.0125856579444
-0.0125889345953
-2.19805395692e-05
1.08331044799e-05
0.0125901446225
-2.03500021785e-05
1.84742094053e-05
1.7759558006e-05
0.0124622939316
2.91436409035e-06
2.67058339526e-05
0.0124575346077
-0.0124511366889
3.81140436177e-05
-0.0125841667287
-1.59520819035e-05
0.0124596019758
3.33425501883e-05
0.0125942146806
1.42106603827e-06
0.0125890304606
-1.53993151388e-05
1.56573646754e-05
-2.67445246523e-05
-1.95401963509e-05
-0.0125950175611
0.0125922351793
1.0987625371e-05
1.7496195675e-05
1.62950866506e-05
-1.96288323518e-06
7.77491443654e-06
-0.0124560176031
0.0124530594153
2.72135205645e-05
0.0125840896913
-3.28460586562e-05
2.97767018217e-05
6.0903855184e-06
-0.0125747913101
-7.68505516399e-06
3.32025540611e-05
0.0125665086693
-4.50180055564e-05
-2.48665715755e-05
0.0125843818763
1.84849537873e-05
2.13976741966e-05
1.23957653189e-05
0.0124351713467
-1.60587830835e-05
6.53797976691e-06
0.0124417904429
2.38119084607e-05
-3.85108658264e-05
0.0124326838041
2.42775717945e-05
0.0125738703905
2.84276855566e-05
-2.91455433757e-05
-0.0125618843481
0.0125550928998
4.28570925802e-05
2.22930610362e-05
-0.0124181139807
0.0123999687785
-1.43714311079e-05
-0.0124187049214
2.84035016042e-05
0.0124011486284
-1.52306255701e-05
4.05831540176e-05
-5.07903431865e-05
2.13750890201e-05
1.79126808555e-05
-1.4237455272e-05
2.72585058539e-05
3.56338433696e-05
-2.17452742804e-05
-0.0125486956835
0.0125463620381
-5.32754746012e-05
3.30938910102e-05
-0.0124189848137
0.0124032076773
-0.0124230632982
0.0124081107669
3.56278026314e-05
-4.95009299858e-05
-1.09555044728e-05
-0.0125610251245
1.39119489577e-05
-3.12574532512e-05
-0.0124323795208
3.18223826154e-05
-0.0125546170469
-4.92928545813e-05
-0.0124314437292
-0.0016512887443
0.00206325817007
-4.80060739361e-06
1.49210936651e-05
1.47840767107e-05
8.29558685977e-06
0.0337053682143
-0.0351689426272
0.001018254078
-0.00258189837689
0.00831295532194
0.00222388924897
-0.00841741351742
0.0313657567411
-0.00194525137513
1.83345790801e-05
-3.91706187042e-07
1.19456367583e-05
0.00455375249243
-0.00294582884252
-0.031076812144
-0.000504305922779
1.62919469636e-05
2.65192550534e-05
1.65851787515e-05
0.0310800980755
0.00277133906421
0.00515452469951
-0.00335206269366
-0.00688249994336
0.00380919215557
-0.00129049052797
0.00321295314262
0.00237188647331
0.0231878372659
1.41786383526e-05
1.01818435962e-05
1.31880489519e-05
2.07399648928e-05
0.00929747911813
-0.00316082880024
0.00297684121041
0.00499101170718
0.000258020739704
-0.000503969439672
0.00477509384947
-0.00764566574622
3.21986189149e-05
4.7381163115e-05
5.68398352722e-05
3.93004378909e-05
0.0166504205718
0.0092301370069
-0.0034739580934
0.00300254552077
0.00525129355376
0.00460918105595
7.04941409606e-05
6.71653603795e-05
5.51809030068e-05
0.0173703138209
-0.00681303184382
-0.00148617930867
-0.000628588271445
-5.93898869622e-05
-0.0125994948506
1.58473139576e-05
0.0126005733214
4.6313751474e-05
0.012619634761
7.85893232041e-05
-8.76840718458e-05
-0.0126193484204
7.6510270561e-06
-3.29765402802e-05
0.0124768000022
3.07912266431e-05
-2.95430312537e-05
0.0124529001122
-0.0124336719314
-8.80909523214e-06
0.0126191684848
-6.6742597906e-05
-0.0126008467398
6.14607143744e-05
0.0124683538617
-2.07401331395e-05
-4.27673019693e-05
0.012603456323
-4.048390564e-06
3.28912857122e-05
-0.0126192596174
2.69560000247e-05
-2.98359468443e-05
0.0126235036748
2.10679344028e-05
-4.27978159832e-05
3.78228314926e-05
2.11846124962e-05
-0.0124713602826
-4.29465434047e-05
0.0124711413863
-4.71631064693e-05
2.13016401778e-05
0.0126094096814
-3.33059053792e-05
0.0124540308642
1.06393386743e-05
8.29379210749e-06
-0.0124504793022
-8.61610901259e-06
2.35215520329e-05
0.0124553538553
-1.37625559036e-06
-1.38023026137e-05
0.0125881380842
6.30261641619e-06
0.0125916265633
1.85075833382e-05
-0.0125879901386
-4.37128511379e-06
-0.0124659655385
0.0124657052847
0.0125975299101
-0.012461913034
-4.61283683483e-05
0.0125461340209
4.81291015962e-05
2.47658552829e-05
0.0123762782872
-1.43378137038e-05
0.0123825443796
3.29235914977e-05
5.2500745481e-05
-5.39431051893e-05
0.0125441399068
-6.05924470336e-05
6.48643146577e-05
2.74885163775e-05
0.0123509714447
-1.51360054308e-05
0.0125453133029
5.31514416444e-05
0.0123563394049
3.42581897827e-05
5.49462391689e-05
0.012541116466
-6.81191184929e-05
-6.3378122879e-05
-0.0125431360112
-6.05528164006e-05
0.0125505122731
6.07355989239e-05
7.90717721466e-05
2.82093184287e-05
-1.78757914168e-05
9.13876556606e-05
-0.012338972247
3.13135621475e-05
0.0123139584745
5.52194300903e-05
-6.95668305704e-05
0.0125489515658
3.24877363634e-05
-0.01254005138
-4.04974607222e-05
5.85957651508e-05
-6.01807718908e-05
-3.16701921492e-05
-5.63098531583e-05
3.67160030582e-05
0.0123825936484
0.0123850721379
3.81854781079e-05
-3.80683365711e-05
0.0123564269822
3.93410736133e-05
-4.3737398277e-05
0.0125394895014
0.0123556351664
0.0123329497663
-3.37651964658e-05
3.5221951818e-05
7.65806720496e-05
-3.3334524185e-05
0.0123034888519
3.37717821295e-05
6.7289198164e-05
0.0125390705489
-6.73810427087e-05
0.0125360034025
-6.01708227383e-05
7.97631594564e-05
-0.0123332516889
0.0123081655493
0.0125423276496
-0.000353761064814
-0.000259612802472
-0.000314054878401
0.00140573640158
0.201620283549
-0.000400868427907
-0.00109524760722
-0.000297971523419
-0.000117248613814
-0.000108907433972
-0.000127014688401
-0.00010265767798
0.000319513685564
0.0503550109646
0.000117000390503
0.00688599699422
0.00503343081266
0.000124689273803
8.44336743786e-05
0.000102877018864
-0.00594532719034
0.0109672239734
-0.000535916241783
-0.000670026314832
-0.000436458985815
0.0105486249548
0.0344209260228
-0.000113922253591
0.0160247993245
-1.59665256565e-05
-5.62243273344e-06
-1.16843121408e-05
-1.07027512468e-05
6.31715426323e-05
-8.64432941421e-06
0.0504165709474
-3.01062177757e-05
3.04503204096e-06
3.24282911051e-05
0.0124537425914
0.0503530245904
-0.000100803784546
-8.49142955244e-05
-8.3357347057e-05
-9.98900064326e-05
-0.000283150000716
0.0504501836982
-0.000103507667788
-0.000115835069809
-0.000115495144275
-0.00010179178945
0.000305308172079
-0.000279914671323
0.000119140336806
0.0123021663802
2.72005406981e-05
-2.17634724805e-05
-8.21743587781e-05
9.56693859594e-05
-2.19116421093e-05
0.0122889174853
2.3193555804e-05
0.012259272376
-0.000149761176876
0.000149064432438
-1.13299269939e-05
-0.0122665824624
1.99313193364e-05
0.050522117118
-9.62800477406e-05
-0.000102507650412
-0.000101259925173
-9.44993970672e-05
0.00028641645259
0.000302083075634
-0.000265907579619
-7.61898709268e-05
-5.46839462087e-05
-5.45906287296e-05
-7.38297498156e-05
0.000217185748114
0.000300233629146
0.0505229710465
-0.000259140017142
-0.000138505643996
0.000139498134418
-1.48821226608e-05
0.0122512434722
2.19156278421e-05
-7.11426651701e-05
5.47749659209e-05
-1.41547767425e-05
-0.0122353422236
0.012236681276
2.91430268816e-05
2.25148221129e-05
5.02075253893e-05
3.13690889493e-05
0.000928529955242
0.0318192645557
-0.00042081371852
0.00930451646531
0.00550492871321
7.49165647548e-05
0.000108530718801
0.000104716765003
0.00835624094811
0.00518276046698
0.00227469962567
0.000137925588462
0.000139553793099
0.000129777291762
-0.00605284663121
0.00734384277521
0.00116559064129
0.00228806591876
-0.000446298080976
0.00399313339554
0.00503745404607
0.000806683534712
0.00370474142665
0.00428837303499
-0.00297998488253
0.000141541266417
0.000124013207937
0.000128590305051
-0.00621129830596
0.00375031288304
0.00718370376819
6.56963020643e-05
0.000104468426457
0.000102199125199
-0.006573604304
0.00165367434025
-0.00531066859768
0.00690803496878
-0.0125992071864
-2.1090937487e-05
-1.32511247702e-06
1.83104246911e-06
0.0126038274994
-6.1982262891e-06
0.0125906738807
9.35693055646e-06
0.0124590545187
5.21759843802e-05
3.50886436165e-05
1.60708387536e-05
0.0124557114108
-1.0248857563e-05
5.5621507217e-05
0.012448884552
0.012596093646
7.12658403952e-05
-0.0125575132247
-0.000125142300476
-7.9536177988e-05
0.0125736833277
0.0125631017311
-6.39845496546e-05
6.16618186595e-05
0.000136573075529
2.48350332846e-05
-2.2606686668e-05
0.0122881433433
0.000100465551306
0.0123023880263
2.2805380749e-05
6.5178794185e-05
0.0125788388553
-7.46207801943e-05
2.03517889258e-05
0.0122845100835
-0.0125498165665
-0.000123346715794
-7.53760327613e-05
0.0125682492428
7.25058415233e-05
0.0125471516179
-6.98341011362e-05
9.28776058021e-05
0.0122909516595
-2.11663739137e-05
0.000125843653671
0.0122694171799
2.36264483038e-05
0.0122713761548
0.0125679730012
-7.00822573277e-05
0.0125917984175
-0.000133003902935
-7.7600263149e-05
8.3565651994e-05
7.47549417352e-05
-0.0125953488959
0.0126181280773
-6.4131239781e-05
0.000146610137149
-0.0122670099309
0.0122542236244
-7.18789805986e-06
-1.3294612804e-05
0.000136764694135
1.91057635273e-05
0.0126135233471
8.43181972797e-05
-1.20573197855e-05
-6.98142046144e-05
-0.0126390936204
-0.00012843830966
-6.6963510835e-05
0.0126559917016
8.22227943307e-05
7.18940815677e-05
0.0126438712213
-6.05353723298e-05
0.000139149792583
0.0122492400371
-7.50141771646e-06
-1.09693418336e-05
0.00012345798312
0.0122398653945
2.3242276178e-05
8.42694034763e-05
0.0122396066963
-1.14503592842e-06
0.0126599374747
-5.39168034868e-05
0.012664375881
-0.000101311144032
-6.00872943209e-05
7.68551720438e-05
5.9414056381e-05
-0.0126668237455
0.0126528589948
-4.53165144166e-05
5.48148323718e-05
-0.0122316118054
-1.98583420432e-06
0.0122303564185
-1.45180897987e-05
9.43559795713e-05
2.90925007264e-05
7.30573532813e-05
0.0126509720212
-5.55985502043e-06
-4.63640676443e-05
-0.000476542819541
-0.0490565856626
0.0490250021228
0.000591284844349
-2.45275451654e-05
-6.42367059786e-07
-2.06218515102e-05
-5.63964198925e-06
-3.23573948237e-05
-0.000657279544403
0.0495131476073
-3.84927420393e-05
-2.2269440034e-05
-4.36049840651e-05
-2.0745122414e-05
8.56569132192e-05
-0.0494528156015
0.000636390054765
-0.000983651517792
-0.0496788558472
0.04994850162
0.000865443047213
-7.03446780625e-05
-7.91536378976e-05
-7.60971142908e-05
-7.82814909393e-05
0.00015244040579
-0.000771649767307
-4.17764303731e-05
-5.26964425344e-05
-5.00606610673e-05
-5.26047116521e-05
0.000134167620225
0.0500438644212
0.00068776625261
-0.0498970094756
3.27242220035e-05
-0.00834910727724
-0.0434820903335
0.0365751478015
0.00753642212407
0.00756916972557
4.46543464777e-05
1.70761474867e-05
4.94214739033e-05
3.89599908527e-05
-0.028568839259
0.0228310879034
0.00735995129849
0.00537078682931
1.17131201561e-05
2.46444982993e-05
1.21671905415e-05
-0.00708871972579
2.16030742113e-05
-0.00417576178822
0.0371564229748
0.00949522941899
4.67547213832e-05
2.54345544148e-06
3.04606285281e-05
-0.0426035462108
2.57758383255e-05
0.000134104092903
-0.00416024253394
-0.0291744285739
0.0240708659203
-0.00164019732677
0.0104702640591
0.000105025205125
9.58712670188e-05
9.88964334787e-05
4.76360489255e-05
0.00739277242004
5.65980348379e-05
5.07167522377e-05
2.10284433597e-05
0.0249089074629
-0.011274815061
0.00736643592819
-0.0285692688888
0.0560414939961
-0.0225406355965
0.000276183069513
-0.00640682907931
-0.0049131061734
-0.00726988086794
0.00479654935615
-0.0219521408324
-0.0208212302707
-0.0127420174939
-0.00666830097619
-0.0130740011331
-0.00687871033253
0.0118509954095
0.000178500335478
0.0500635525313
-0.00343093363848
-0.00419511759704
-0.00524822934327
-0.00579381067197
-0.00770907434441
-0.0120136526604
-0.00116341090676
-0.0102720360746
-0.00634626864391
-0.0122127652807
-0.00909744749542
0.016049699718
0.0580476441632
-0.00470522903497
-0.00903566722474
-0.00832839418657
-0.0123533423312
0.0107848375563
-0.00386786802486
-0.0148181310579
-0.0113111371397
-0.0141781862039
-0.0110046555327
0.0306466947231
0.0152933008004
0.000125896735463
6.39075378773e-05
6.53296744943e-05
6.25688816099e-05
7.03922153558e-05
0.0487738372076
-0.000107811549869
3.9266971985e-06
-0.0490581055828
0.0488259693263
0.000285623440596
6.08274111387e-05
4.00300435618e-05
5.57300016673e-05
5.1550178021e-05
-0.000102846654287
-0.0490911975749
7.24471149667e-05
-8.38072573712e-05
-0.012329405348
2.18444109622e-05
0.0123165409645
2.66807512723e-06
0.0123246485719
7.51044318589e-05
2.34108627872e-05
-2.72753837508e-05
-5.83267273251e-05
-0.0123372270304
2.89595998192e-05
3.18149815848e-05
5.2158114911e-05
6.73717929296e-06
-0.000233569069846
0.0121961973477
0.0121646888814
0.0120906680997
0.0121582294024
-0.000146631313773
8.58581281799e-05
-1.66271147184e-05
-7.75600604738e-06
-6.3591085407e-05
0.0123275776247
0.000410699927335
2.41930879217e-05
1.37800347534e-05
3.37192823873e-05
2.02303199944e-06
-7.15322683926e-05
-0.0491838870947
0.0492556414944
1.08312688716e-05
-9.01026200598e-06
-7.13169952937e-06
4.08041373396e-06
-4.45202600345e-05
-0.0493145855802
0.000515227723625
0.0123348896511
9.17772277509e-07
-3.60797351976e-06
-0.0123446460365
8.75319518277e-05
0.0123585622457
-1.47830556994e-05
2.7238118442e-05
-9.22788672193e-05
-0.0123702151686
9.20751686335e-05
0.000861338698111
-1.47075443864e-05
-7.81344555009e-06
-4.46413985666e-06
-2.20554657435e-05
0.0490815451259
-0.000194296559394
-0.000159849782228
-0.000195669828347
-0.000158933458297
-4.90360434593e-05
-3.59121663655e-05
-4.18065996383e-05
-3.35267310983e-05
0.0492641905504
-3.84148062172e-05
-1.94333778593e-05
-1.72399877516e-05
-4.02849781965e-05
4.04444283719e-05
0.049488467259
0.000808174146108
-4.50937580407e-05
-5.85906426171e-05
-5.98026129578e-05
-4.45263415417e-05
3.65570674592e-05
1.60618649587e-05
0.0123374504367
0.000100151366248
0.0123334141059
-3.579537936e-05
2.74503233522e-05
-0.012330384618
0.000122429121948
-0.000117169090753
0.00010115578248
-4.10204802466e-05
4.01385726554e-05
-0.000100204384343
0.0123585668584
0.0123683329868
0.00012021562455
-0.000108673537824
9.98784320306e-05
-0.000122081731519
-0.0123578358679
0.0497740647586
-3.4882853495e-05
-5.45661439593e-05
-4.36053029467e-05
-4.70639861111e-05
-0.00108286389483
-6.51367157804e-06
0.00111939823816
-2.49705408308e-05
-1.10058892043e-05
-3.32760118447e-05
-2.77908917038e-06
0.0503052585082
-0.000155529516687
-0.0014233053356
1.59156140281e-05
0.0123480306153
0.00014479600909
-0.000136549496403
1.7770838657e-05
-4.03410768838e-05
-0.0123672805295
0.000186469058036
0.0124011149504
-0.000197852092773
0.000127593153793
-0.000122788642099
9.70925718599e-05
-0.00012602761651
0.0123924873939
0.000146891442825
-3.71615207129e-05
2.93358471451e-05
-0.000163763026093
-0.0124157417874
0.0124404203548
0.000755974493726
-5.36670826422e-05
-7.47406883997e-05
-5.52134758263e-05
-7.46741858682e-05
0.000144825078501
0.0498102528483
-4.83082637673e-05
-6.56349899989e-05
-6.83168332983e-05
-4.93868698713e-05
0.000150817112986
-0.0496574307079
0.000683994254966
3.05402011417e-05
0.0123677405583
9.46869140456e-05
-0.0123701611873
0.0123766384176
-0.000109921957092
0.000108608671844
-0.0123684193507
0.000113351933204
0.0124010155582
-8.96840182613e-05
9.00037959284e-05
-8.91558115559e-05
-0.0123927871637
8.06550135045e-05
0.000958335520274
-6.42416161421e-05
-4.11660428245e-05
-6.28419576387e-05
-5.0324196736e-05
0.0502353843871
9.28417123125e-05
0.0500083163588
-6.37208505758e-05
-6.93554201632e-05
-6.87979642531e-05
-6.43794232917e-05
0.000162016141012
-6.06043581577e-05
-4.23545105813e-05
-6.07349797464e-05
-4.96770825198e-05
0.0502099843362
0.000812190988068
0.00015793167982
0.000110742900173
0.0124009449261
0.000126484584555
-4.82473492083e-05
4.34343243929e-05
-0.012424519386
0.000130046475312
0.0124462583947
8.80975087811e-05
-8.50755264856e-05
8.4562350387e-05
-9.63246705942e-05
0.0124097686733
9.11496140825e-05
-4.1869663416e-05
4.21585344044e-05
-0.000103718394981
-0.0124280949846
0.0124404524194
6.31031193469e-05
0.0124138685517
7.01881391875e-05
-0.0124112445959
3.58357008272e-05
-0.0124317427691
0.0124424118572
-2.93010369081e-05
7.41713426009e-05
0.0055206115373
-7.61471805142e-05
-7.8631302921e-05
-7.24132547519e-05
0.045323106793
-0.000214065661341
-0.0443335684061
-0.00599637005979
0.0451836802853
0.00867370377244
-6.05984063841e-05
-5.95637392277e-05
-6.67930207008e-05
-0.0460867368221
-0.00204047089859
0.00570606180739
-1.45609156879e-05
3.87575560908e-05
1.05604359329e-05
-0.00722588873246
0.0383004119951
0.0184178010892
0.00084244174127
-0.000270047101966
-0.00271326354403
-0.0160203689703
0.000100226868199
0.0205952820442
-0.006799437161
-0.00188357206221
0.0207453007782
0.000120596901666
-0.0192706797876
0.0213578115532
-0.000361592144468
-0.00742078109041
0.0136155333498
2.73673393595e-05
-0.00485174127524
-0.000940585594844
0.00039319905022
0.00684616693316
0.000427267614787
-0.000721279853025
0.0137894754232
-0.000796708188625
-0.00468587769638
-0.000158521939572
0.00657315716819
0.000882469008962
0.00792077699769
-3.93669129061e-05
4.90281949805e-06
-1.5965403788e-05
0.0031291233841
-0.045808325911
0.0428100647271
1.29103156224e-05
-8.46915231467e-06
-9.02598634889e-06
-0.0447310578197
0.00534285797669
0.00448797733755
0.00778516711911
0.00779339624813
3.95655175717e-05
6.98667635403e-05
8.72233414604e-05
-0.00781029435143
0.0361873363502
0.00977861152512
3.33631788533e-05
5.99011715757e-05
6.84553277472e-05
0.0105483827612
0.0284110352123
0.00461081796242
9.66410334887e-05
8.0384229001e-05
0.000117224427836
0.0201404255427
0.00115605539594
-0.0178249630515
0.00127839764574
0.02100843991
0.0183700263682
0.00150757172712
-0.0147451315805
0.0205347931629
0.00195638933062
0.00712717203463
0.00185573240379
-3.77804909225e-05
1.59863135915e-05
2.49892839845e-05
0.0214543499569
-0.007594600999
0.023546216023
0.0077450826376
6.49922274419e-05
8.83597617509e-05
4.53880507302e-05
0.00522664498874
0.00255468486364
3.67676966845e-05
4.31938106046e-05
5.15339953498e-05
0.0227250214623
0.0143443507787
0.000953521796356
0.00157687970919
0.0081569713779
0.0149128864231
0.00210542623443
0.00299669790381
0.00961543858293
-0.000744276971563
0.0129466741382
8.46123499e-05
9.93575143927e-05
9.76588786922e-05
0.0125131564545
0.0290896409992
9.48043716331e-05
7.60896887134e-05
8.50720923167e-05
-0.0366739444379
-0.00601956334705
0.0164046208731
-0.0113126609699
0.00119078582818
0.0015633567893
0.0207125415863
0.0237321019866
-0.0177375434353
-0.000252113602228
-0.00360363007883
0.00708236921546
6.22821339344e-05
7.01316575008e-05
7.55946427203e-05
0.0228924843053
0.0243572276575
0.0101453898276
9.5380271809e-05
7.25534149676e-05
8.66354568485e-05
0.00672542465285
6.64303437521e-05
6.40539482791e-05
6.24362921355e-05
0.0225281069495
-0.00873464154846
0.0165955672025
0.00189056951803
0.00274810276456
0.0126114311223
0.0216333786572
-4.27711992187e-05
0.0198326563411
0.000263814966505
0.0122352754786
8.60684632728e-05
-9.15924769572e-06
1.90596517511e-05
-0.0122673658933
8.24977348727e-06
-0.0122381823618
0.0122059401854
5.46955296811e-06
1.58661118126e-05
-9.38306623792e-05
8.06805798585e-06
-0.0123357963403
-7.62215392584e-05
-0.0123339266238
4.0424000233e-05
0.0123132412387
2.5379001899e-05
0.0122044768643
3.66261397863e-05
-0.0123411733708
1.91877211692e-08
-0.0122708903622
0.0122374604243
3.20317298828e-05
7.93248647907e-05
-0.0122689727329
-4.33890493761e-05
-0.012246504451
0.0122369442303
6.57216089477e-05
-5.91957153475e-05
-0.0123349742303
0.012315521392
-6.11832880605e-05
-5.75757396297e-05
7.20261837047e-05
-0.0123501980063
0.0122160182463
5.00954138448e-05
-0.0122741910066
-0.0123436192861
-0.0122086817727
8.45240398917e-05
3.56048098389e-06
-5.21339219362e-05
0.0122016664583
-5.64728713335e-05
0.0122317152287
8.58085152147e-05
-3.44641981826e-05
0.0123133493403
-4.14199517137e-05
2.84262084544e-05
-7.90775044879e-05
9.57414251227e-05
0.0123203530336
-3.13355101431e-05
0.000115994493944
0.0122353169999
-5.35765211593e-05
0.0123018510529
-6.38065860416e-05
0.0122850478505
1.74726419329e-05
8.22961631654e-05
-0.0122968367925
-0.0122654051017
8.00936411345e-05
0.0122611601768
-3.80719759674e-05
8.14654997669e-05
-0.0123554572487
1.21228934223e-05
-0.012356354124
9.12854148791e-05
0.0123453472054
-0.0122834608267
9.6920651858e-05
0.0122823473312
8.72701765572e-05
-0.0123608978389
0.0123046306414
9.95078588373e-05
5.01229712022e-06
-0.0123160240724
-0.000115055764236
-0.0123221479982
0.0123224103431
0.000133051906382
2.43371703839e-05
-0.0123659081161
0.0123536127323
2.01541137005e-06
-8.79307802394e-05
-0.012377473061
8.46277956672e-05
0.0123037703211
-0.0123336960262
0.000117184034386
-0.0123707109988
-0.000129021312718
-0.0122830582588
-5.49374823989e-05
0.0123006678574
0.000142123939001
0.0122602927906
0.000101969720677
4.71851135362e-05
0.000102669023889
0.0123276776285
2.41786511087e-05
0.0123385536779
9.99333109876e-05
0.0122737554064
0.000119868180005
0.012329652406
0.000106892998671
-0.000148169854743
0.0123294990357
-5.89473074412e-05
0.000163924925809
-0.0122964738223
0.000184089960513
0.0123175043035
-0.000185534227755
3.54143779438e-05
0.000104235204384
-0.000103754482111
6.2096958762e-05
-0.012349206083
0.000124322053939
0.0123550607322
-0.000140144842635
0.000194043795796
0.0123595689934
0.000114635399812
-0.0123075299878
0.000156064338058
-7.24498799841e-05
0.0123277044685
-0.000136732412895
0.0123271506351
0.000152674394264
3.78691499897e-05
0.0123479734076
7.53372004626e-05
-0.0001135772992
0.0123484950557
0.000108366692722
0.0123485681915
0.000169880932638
0.0123379110657
0.0123575061679
0.000174146262361
-8.48795375347e-05
-0.000193762293933
-0.0123757144477
0.0124093069084
0.000201548888727
9.30887699894e-05
-0.0123603597325
0.0123661127354
8.21054030781e-05
-0.000124806722335
0.000113993846706
0.0123914445773
0.000184961535841
-0.000253923143881
-0.0123887282832
-5.76399252842e-06
0.012415374639
0.000253454436298
-2.03567592401e-05
0.0123478706947
0.0002186196374
-9.79383115096e-06
-0.000223412195593
-2.4169508525e-06
0.000155453266271
0.0123626744044
-0.000155896868771
2.99652612642e-05
0.0123613749636
0.000133048357944
0.0123838583524
-2.98373625721e-05
-0.000262628143958
0.000220773906864
-1.4778407067e-06
0.0123753133011
0.00014789643776
-0.000278930952839
-8.32666172706e-06
0.0124697036502
0.000281788287953
-4.883025274e-05
-0.0124435940867
0.000295943970165
0.0125178380131
-0.000315984167743
-9.45547823995e-05
-3.03478230687e-05
0.000166234509209
-0.000178220194886
-0.0123925873076
-9.06622992617e-06
0.000183883070322
0.0124210564316
-0.000294862732103
-7.42529843107e-05
0.000165706556724
0.000300405287569
0.0125289106375
-7.25706345796e-05
-0.0124219390198
0.000231366039306
-3.86803102728e-05
0.0124478480163
-0.000210639833382
0.0124452566828
0.000217342848791
6.38508228105e-05
0.0123739223689
7.7124697184e-05
-0.000138529429176
0.0124091930367
0.000133174893141
0.0124741805498
0.000232709694055
0.0123902235106
0.00025790000329
-3.93660064091e-05
0.012486280694
-0.0125037574214
-0.000275867881004
0.00026165571625
0.0125363144788
-0.0124092715239
2.84737859089e-05
0.012437269027
5.49110779001e-05
-0.000159310097123
0.000141169874417
0.00025013510684
0.0125366489625
-0.000172587630144
-0.0123629736426
-5.51773752138e-05
0.0123809123093
0.000171310604323
0.0123468287272
0.000157954468891
-0.0123439127193
6.67792602169e-05
0.000100182958691
0.0123559693909
2.22027608795e-05
0.0123697152615
-0.0123787436551
8.36007931408e-05
0.012367248254
-0.0123612752457
0.000157581693084
0.0123564195228
8.85405645018e-05
-0.000186795807921
0.0124083330167
-7.95388287294e-05
0.000185207279489
-0.0123932462918
0.000200404371109
0.0124283523634
8.28895319427e-05
0.000103435066999
0.000108667623579
-0.0123831448582
9.89013187466e-05
0.0123883137398
0.000199293255903
0.0124435892248
9.46799673988e-05
0.0124238817531
0.000181521770569
-7.06107094567e-05
-0.0123978396779
-0.000198103288392
-0.0124389873665
0.0124672357748
0.000194205631587
9.90829536509e-05
-0.0123908766601
0.0123964198778
7.10931585909e-05
-8.33857541868e-05
-0.0123745078915
7.00302416268e-05
0.0124558469571
-0.012414120323