/*--------------------------------*- C++ -*----------------------------------*\
| =========                 |                                                 |
| \\      /  F ield         | OpenFOAM: The Open Source CFD Toolbox           |
|  \\    /   O peration     | Version:  v1906                                 |
|   \\  /    A nd           | Web:      www.OpenFOAM.com                      |
|    \\/     M anipulation  |                                                 |
\*---------------------------------------------------------------------------*/
FoamFile
{
    version     2.0;
    format      ascii;
    class       volScalarField;
    location    "2.15";
    object      p_rgh;
}
// * * * * * * * * * * * * * * * * * * * * * * * * * * * * * * * * * * * * * //

dimensions      [1 -1 -2 0 0 0 0];


internalField   nonuniform List<scalar> 
28582
(
19555.8515056
19557.1866703
19555.4101936
19556.976218
19554.134218
19556.2964294
19552.0396239
19554.3524098
366.036494197
409.917437261
0.0147893998995
19552.9854309
18587.6085819
18601.951192
19556.091208
19556.3443204
18596.8896187
19555.8499867
19555.7644449
19554.2093278
19558.8910454
19560.4404063
19553.6207174
19559.0633168
19561.0731605
19551.8664614
19559.3608498
19550.0092397
19558.137474
428.816839257
0.0340573541402
0.0139326279073
19549.9855259
19550.8609566
18548.7857605
18588.8360114
19549.31574
19560.5652875
19558.2996535
19560.737471
19557.0450601
18624.0261169
19557.031565
19559.9810242
378.430220524
410.427891318
0.0866264448914
0.0105453351976
395.240364058
0.0291058121851
19550.2970186
19550.8564301
18576.3196584
18624.8077802
19550.4502603
18627.1966087
19550.6934923
19551.2683135
19552.1512007
18607.6062817
18597.3486523
19551.9630022
18589.8644164
19551.6058405
19553.6707766
19552.7597714
18604.7217126
18606.9789304
19552.8591128
18603.6640837
19553.7149187
19555.7612398
18609.0078978
18623.5828586
19554.6445483
18607.7417935
18609.3474441
19554.8031718
19556.0265065
18630.1868468
18615.0199056
19554.5529083
18614.5081503
19555.0402531
18610.397209
363.469621315
0.671611615379
365.177469995
376.93192081
0.480158450809
0.789994696705
425.136406614
0.305453144784
-0.00027334122413
448.311609246
0.871405474322
452.753131406
0.127493152641
19548.463955
19547.8655062
18492.555082
18594.8996892
19547.2950995
19548.1591417
18648.1655718
19548.1153742
19548.3430802
18533.1007115
18495.5219333
19547.5890871
19547.9205686
18544.0228412
18595.0431019
18635.3318665
19549.9382844
19548.418395
18520.2301144
19548.2226512
18562.235638
19556.8232761
18619.8936267
18624.9480722
19558.3360902
18627.2972609
19558.2169992
18626.1032945
19559.8112584
19560.9649497
18623.8854984
18647.3848676
19559.5755379
19561.3257169
18639.6504699
19558.5251473
19557.1299429
18636.3158409
18620.802274
18646.3379445
19558.3591732
18636.7600101
18648.780598
18627.2536068
19561.0714265
19559.8523339
18654.1470848
19561.2756843
18646.563988
19562.5835236
19563.0815212
488.0001838
0.0130991106816
19551.3271461
18565.3727664
19563.1315255
19565.4751109
18635.8014158
18623.9007068
18600.3141858
19567.3168012
19568.6702099
18599.111097
18601.5067613
375.888813691
486.375064938
530.521146224
0.901578831425
1.80725392187
2.22172236744
571.116383755
607.025865454
19549.4240046
19549.7487712
18558.7685966
18549.7572751
19548.8358745
18582.974462
19550.03757
19564.3671188
19562.5560682
18642.9578323
18638.5578348
19564.3581178
19562.8436497
18628.2611784
19564.0706679
19562.3861706
18643.4223535
18627.6799548
19562.7540567
18619.5912081
19564.0425484
19565.6274318
19567.3462424
18624.0145723
18620.6043043
19567.2330141
18620.3718716
19565.8643947
19569.9635117
19568.7882042
18619.5324802
18600.1962806
19568.6801884
18612.4256585
19570.1013884
19571.1330866
19572.3012877
18609.7699783
18598.271968
19572.1739645
18611.8923988
19571.1950601
19571.5244125
19565.3310182
19562.2275702
19558.8791128
197.830183848
230.207998917
231.444794455
269.510479133
283.321213357
0.18813407443
0.178936915304
0.132837368162
0.111362900647
0.0508097290467
0.0579113510576
19573.0719697
19572.0861387
19246.1460926
19214.9189223
19574.3253841
19223.310266
19570.3026963
19568.0877706
19188.1720224
19097.0737096
19572.4180589
19568.1413246
19567.7433369
19187.7029339
19232.3210056
19067.3880388
19084.3853761
19565.7210827
19561.6150536
19174.1467021
18916.1867357
18986.0172009
18819.6683218
19564.2179205
19561.9459227
19022.816189
19034.3359853
18940.8844354
19558.7388685
19559.8888762
19557.21141
18929.5563604
18798.1259566
18804.2258266
18747.1160096
18788.9911661
18754.189468
194.582263226
196.558082041
188.727346887
-0.0480475386598
-0.0115824993155
-0.0471613331785
-0.00708283731169
0.0504580749577
0.195357258829
0.0726911798309
0.254446683857
205.233646193
219.579706973
204.570622091
214.376445274
220.620997402
-0.0240176800536
0.071171344925
0.0716865863561
0.144968685048
273.026978632
245.255505514
285.674555008
0.194784184371
0.324570897751
0.292621907134
0.431991158478
240.905721198
255.280694672
0.155802431732
0.33035354514
0.575231753037
303.700679314
282.157988697
314.878817831
0.619769823887
0.906215298917
1.00685246718
1.40372514735
19570.8360175
19572.6873644
19231.631083
19226.1035899
19572.4919157
19178.1477161
19571.5580976
19570.632839
19571.0502722
19219.5986204
19214.2762603
19572.0738334
19570.5020298
19165.2284329
19574.8812792
19572.1101718
19275.9235733
19283.8572003
19573.7329307
19573.7479855
19300.5086188
19567.7002485
19569.8728686
19194.6224967
19147.524223
19569.5968665
19568.8809983
19103.7066961
19566.8578495
19566.0908038
19111.4171926
19109.9374631
19567.7554009
19566.6977146
19072.6742177
19570.1679165
19570.6715403
19247.2870899
19208.8206423
19572.1000053
19570.0441064
19201.5280329
19570.0384347
19572.7283537
19267.3139256
19230.5063234
19573.0426477
19570.6591403
19178.1500977
19568.2382405
19565.9281665
19176.1978445
19117.1522734
19568.3893838
19566.9223192
19158.4618723
19568.0656114
19565.8558173
19186.3371627
19149.1853923
19568.4628804
19567.1894348
19122.7649523
19567.0405211
19571.6752914
19249.0626529
19207.2460825
19571.3445054
19569.7854651
19077.2775089
19563.5968663
19562.7653566
19185.2612491
19038.2790249
19569.5120473
18907.4813127
19562.0391411
19564.7072779
19564.1783122
19172.9267107
19080.7388855
19567.7535617
19564.3223231
19030.8315761
19561.116477
19557.5592856
18993.3036681
19057.3511391
19562.8091341
18863.7873349
19559.9139565
19563.2483789
19564.4530667
19067.3497234
19071.4761281
19565.1054694
19564.4944463
19037.7079183
19562.3762353
19563.9473788
19104.1742361
19018.1278985
19565.3439043
19563.0184862
18960.9627575
19561.1460329
19559.5675312
18969.1320401
19008.8889581
19561.5688772
19561.7055461
18922.9416472
19559.568012
19561.7654908
19013.3242466
19030.0955182
19562.0347048
19562.2959812
18902.9919264
19556.7352046
19556.4609622
19008.7710048
18831.7722185
19561.2164023
18734.9572442
19556.6113026
19558.4391828
19557.5666536
18992.5284472
18855.9479872
19561.0575033
19558.1056403
18877.7603815
19555.7050606
19554.3048578
18786.9826326
18878.7928236
19557.4107361
18715.8104548
19555.9147099
19556.2927978
19556.8181919
18825.7822357
18942.6548377
19557.4205232
19558.9989348
18855.9299179
19554.0763236
18858.5683457
19557.0965229
19554.8779894
19556.5554371
19558.4954106
19561.5495915
19561.6600749
19560.3779025
19554.3938805
19556.3498474
19558.6863892
19562.4587636
19562.5465959
19560.8447237
19542.0387889
19549.035139
19553.2488769
19556.6902316
19559.1529381
19560.7308797
19561.5284852
19560.3397758
19545.4460412
19550.474567
19554.7634098
19557.3932706
19559.4376038
19560.9311517
19561.6423085
19560.3685878
19550.1044908
19552.0974712
19555.0951253
19557.5992471
19559.6331538
19561.1136374
19561.7304043
19560.3918868
19552.4036712
19553.6512131
19555.8981502
19558.0986739
19559.9481395
19561.2906158
19561.7247505
19560.435879
19560.1983301
19561.4421609
19561.7189693
19560.3995799
19537.9981049
19546.7051175
19551.7562176
19556.2817129
19559.6436117
19561.6562572
19562.5129261
19561.0601264
19543.3630447
19548.572185
19554.9742804
19557.67691
19560.0911942
19561.9896323
19562.6733016
19561.0958473
19549.1929454
19551.5766177
19554.6657594
19557.6677302
19560.2532868
19562.1077813
19562.8003732
19561.1417889
19551.7978483
19553.1584267
19555.6783317
19558.2800103
19560.5994819
19562.2773219
19562.7824428
19561.1397889
19560.8569319
19562.3952926
19562.6843164
19560.9958888
19535.4230884
19544.8260738
19552.4196109
19556.9588496
19561.0124625
19564.0578491
19565.139341
19562.226251
19539.8917189
19547.4678544
19554.0937625
19557.6922315
19561.3244433
19564.2661627
19565.3387014
19562.3082793
19547.5216391
19550.4258351
19554.1689918
19557.9985768
19561.7235088
19564.6019785
19565.4900975
19562.5100172
19550.7589503
19550.091924
19551.9942929
19555.1423497
19558.6048238
19562.0792662
19564.7152496
19565.3856457
19562.4439986
19553.0595334
19555.6853066
19558.990726
19562.3772145
19564.7801587
19565.0150635
19561.894223
19564.663538
19564.6002901
19561.4007092
19535.5391964
19544.669201
19550.7442055
19556.0150702
19560.9432962
19566.2725459
19569.2077538
19565.4306951
19536.2907949
19539.7044083
19546.4142763
19551.4611411
19556.2388068
19561.2274235
19566.5543115
19569.4522167
19565.3187258
19554.2600197
19545.6261012
19544.8022903
19548.3530625
19552.2456221
19556.6615728
19561.7164369
19566.9084072
19569.7320785
19565.8810097
19549.0011474
19547.8280937
19549.8921247
19553.1878422
19557.3864458
19562.2208289
19567.0199057
19569.6425093
19566.0810217
19550.6458197
19553.4982434
19557.6802084
19562.6203005
19567.3251086
19569.3778554
19564.7293263
19567.5993106
19568.6012343
19562.9342957
429.34037319
449.812951222
450.773592361
490.773642154
563.166244099
637.539148699
717.616112707
815.299263973
321.470567856
392.042967166
427.15989679
445.638797161
461.22717461
494.597612095
556.597855993
631.945098288
727.022055371
808.072097608
341.420369701
393.013500632
410.78089781
413.785496886
428.093565894
477.254045142
544.508130466
610.740511169
689.613866903
792.789789154
380.42999181
386.30534113
389.139864586
410.963801292
455.487113137
521.564738357
586.410629866
656.653485816
765.016016498
390.372211709
411.416832467
442.606616448
501.594276961
571.356587998
662.018051199
761.895815382
565.265729262
671.61530104
753.809107237
0.0243849078215
-0.0416350478342
-0.0405830975784
-0.0620932302238
-0.0135377369274
-0.0368406552798
-0.0640628425303
-0.106909629934
0.0472221075313
0.542320133447
-0.000819164900249
-0.0317443325949
-0.0469662583715
-0.0521184698983
-0.0271028367621
-0.0316159786846
-0.0609312616045
-0.0960710572223
0.114643659675
0.480526921101
-0.0199424258207
-0.0550751215757
-0.0448720684892
-0.0154201724121
0.00972097704204
-0.00888770256107
-0.0330652263556
-0.084890745586
0.0246529810075
0.338662877886
-0.021282764331
-0.00289391026701
0.0129236263448
0.0225612044132
0.00601255005547
-0.0201815508325
-0.0725790527418
0.0426501018815
0.294249517735
0.0111752064716
0.0144775340989
-0.00671659229783
-0.0229267693721
-0.0462488245751
0.0857785448437
0.322029942327
-0.023865535718
0.0954661091565
0.443452453188
19545.5686008
19543.2926388
19546.9542113
19540.4152106
19544.4914918
19541.9356792
19545.711119
19550.8727643
19549.7562997
19551.4028716
19548.1607396
19550.2686388
19548.618737
19550.7671864
19548.2144488
19547.2485644
19549.0816988
19544.6692813
19547.5068806
19546.6847247
19548.7965589
19551.8837602
19551.0355714
19552.6789145
19549.8966846
19551.2801401
19550.6216272
19552.2497974
19542.896231
19539.2134365
19543.5718451
19536.7854831
19541.7068251
19537.4516838
19542.5593946
19549.6049821
19547.1138831
19550.410939
19545.60507
19548.7393335
19546.4550569
19549.7605188
19545.909154
19545.9610434
19548.0298451
19540.8966916
19544.7743942
19544.9221076
19547.0620695
19550.7893401
19550.0483755
19551.9753406
19548.0179052
19550.5617316
19549.2816069
19551.3926034
19540.861713
19536.9791107
19542.0597022
19535.7901403
19541.4351926
19537.091877
19542.3332953
19548.3650717
19545.8753361
19549.4405001
19545.4327775
19548.5012465
19545.8843688
19549.3498825
19544.2444805
19543.7652687
19546.2498311
19540.1163657
19544.1410169
19542.978401
19546.0988245
19549.9801352
19548.5523301
19550.759471
19547.1938045
19549.7079605
19548.5296799
19550.6546856
19531.8427319
19534.380709
18179.1634923
18239.6772676
19540.6710105
19537.4662527
19541.5637778
18209.5382411
18355.6425549
18247.027514
18357.5605948
19547.7547871
19545.2044607
19548.1178012
18384.2007534
18417.7120633
18381.8323662
18406.9388426
19553.5346919
19550.8592313
19553.5097393
18462.0694444
18500.9424579
18432.646613
18472.4958043
19558.4350373
19556.006838
19558.4760401
18504.8602657
18451.7602845
18481.6314123
18465.934907
19563.7097561
19561.0469268
19563.743339
18461.8626151
18456.2558985
18470.5894901
18465.5997495
19568.4012102
19566.3461771
19568.5371715
18466.204751
18478.6122256
18484.4047738
18507.806248
19568.2535398
19569.3866677
19568.1094669
18496.3364463
18305.1419556
18511.8719405
18213.8433945
19561.0442924
19565.2936036
19561.5277472
18152.0075124
17678.4173603
18065.8561715
17808.2166911
19554.6084595
19546.6609254
18613.5783249
18381.583045
18589.3171577
18477.2232173
19536.7039846
19541.3927849
19540.2222461
18127.2532442
18271.2824415
18296.9596797
18371.1278068
19543.3728954
19542.4130488
19545.1164773
18271.379803
18364.6785445
18357.079962
18416.5087124
19548.9173386
19547.4579807
19549.570455
18382.5969978
18413.7439435
18419.6389416
18460.425531
19554.0296932
19551.7930415
19554.1123648
18435.4349673
18468.9588947
18461.6234572
18483.1622492
19558.7155954
19556.3703967
19558.8411141
18477.7794959
18467.5963066
18487.4288514
18483.8796533
19564.0264589
19561.4625125
19564.2441082
18473.3325189
18470.1907541
18493.2099711
18500.7705754
19568.7399179
19566.7986566
19568.8710984
18488.4003691
18515.1153676
18520.1109786
18549.8213504
19568.1366745
19569.6465529
19568.3186732
18514.4329931
18204.9254611
18560.8027438
18265.0000881
19561.6815509
19565.4942325
19561.6091949
18060.586938
17841.1319624
18105.5879925
17843.1833611
19549.3775305
19553.9558932
19550.5463786
18586.0970938
18506.3862777
18575.3381383
18545.9673398
19544.0040698
19547.9228971
19546.4678263
18343.1021571
18400.6770755
18431.2643756
18487.2346967
19546.561023
19546.5357983
19547.7423106
18383.5413497
18441.0102753
18436.1997202
18534.1457855
19550.253754
19549.2257595
19550.9310542
18442.0849159
18487.3382866
18513.019088
18567.2970949
19554.4207031
19552.8021804
19554.9094308
18486.4598851
18499.5054363
18553.3424049
18564.3391626
19559.1411661
19557.1231599
19559.5385426
18500.1612284
18492.1872805
18561.333869
18542.9297072
19564.4531207
19562.0680645
19564.6822544
18499.5314851
18507.5323315
18547.3702232
18550.3819948
19569.0028412
19566.9970553
19568.7230686
18524.9833909
18548.1136985
18560.0572969
18569.2227211
19568.671684
19569.7185199
19568.8018324
18569.4510259
18309.3874847
18582.6296438
18397.0709893
19561.7903583
19566.1662683
19561.9363348
18142.41939
17832.033699
18248.5599254
17839.1058865
18590.6691927
18567.9119444
19547.8710168
19549.3110841
18452.5420003
18524.6220616
18640.8578387
19548.6228855
19549.1042189
19549.4276591
18456.8715155
18558.4010909
18531.3146949
18588.6926375
19551.4030048
19550.299842
19551.6365574
18529.7553131
18572.7767291
18519.1572285
18552.6859487
19555.2197557
19553.3491649
19555.3637464
18558.205835
18567.3891134
18533.6979947
18568.5475516
19559.7626534
19557.5670076
19559.9600316
18565.3674508
18547.6577722
18574.5691747
18579.1364762
19564.7758902
19562.4404279
19564.9726826
18551.8595527
18554.4117212
18584.5050239
18585.2093847
19568.831014
19567.171129
19568.8243991
18563.6274172
18571.6694125
18595.3902189
18605.0917585
19568.7400456
19569.5964486
19568.4137957
18584.4596495
18413.1154172
18616.4451248
18389.1836735
19561.8963828
19565.5511619
19561.4758624
18268.8087865
17841.036254
18232.0613944
17845.9238383
19551.8793252
19552.4229347
18516.114914
18549.6395238
18591.3520171
19555.498952
19553.9945507
19555.8255264
18534.7155504
18569.4788953
18589.4476799
18601.145423
19560.1554222
19557.9347092
19560.4047968
18577.3271194
18587.0579686
18611.2991307
18617.5067511
19565.1565435
19562.9376735
19565.4521015
18593.2806904
18592.8942494
18631.2479335
18635.8229764
19569.1225952
19567.445685
19569.1310019
18603.4428439
18613.7557973
18641.0012373
18632.2504431
19567.7899286
19569.0111309
19566.8663628
18617.0839739
18351.5639621
18598.91019
18244.3240809
19560.9599794
19563.5943711
19560.3765298
18196.2769904
17864.7064055
18082.2480916
17865.734757
19565.564027
18637.7682845
19569.0070538
18640.0120617
18620.5420184
19566.3293429
18587.729746
18241.817536
19559.9041371
18079.9808378
17862.2955085
0.56645947035
0.233418471839
0.38903591031
0.0765530434454
428.588867012
419.538645837
0.079940196323
0.0799449632357
0.0479363207834
0.0739026768414
433.721653288
426.34777137
437.285245602
0.146068956265
0.11243708604
0.20245113066
0.32364258818
457.105028467
447.925132116
459.747656337
0.038537713018
0.0174992986924
0.238606434504
0.135979697331
463.233726803
461.677692841
471.975612631
0.0541949738456
0.127276431508
0.160672602542
0.125475817366
529.160773445
495.43834189
526.333831924
0.255509435394
0.353882669802
0.120058993162
0.0575931493695
600.348055618
561.909011065
598.986284149
0.408960978447
0.503537803032
0.0807654569803
0.158549715449
672.778623853
635.702452133
673.64787534
0.580726896988
1.24495402815
0.759988138906
2.23051376736
789.007040957
725.535952659
795.425581542
3.22320895086
7.68478947659
5.20740289344
8.84778724173
798.086413092
811.662865891
793.14706973
11.2881177981
13.4356896995
11.4123488258
12.9788244035
362.643831791
328.292306569
365.950038842
0.273395363156
0.0900124728357
0.435868451332
0.263050399844
411.020599032
391.527225244
406.231008834
0.0651100722581
0.0789345424289
0.101054137621
0.0535286958208
434.818544642
418.743185888
424.694363789
0.136398561281
0.289054543975
0.0693552976454
0.0482380240872
451.351703449
431.824302758
436.488630512
0.306781272871
0.248888836748
0.195301663331
0.233052808258
471.922988002
448.289200856
466.199358895
0.198316882932
0.182072585428
0.390837950787
0.221974223728
521.844589967
488.027288013
518.766499259
0.0625535267991
0.0474229438036
0.189851228926
0.0277800723365
593.468347663
551.262524819
586.769927836
-4.25868475943e-05
0.117512695149
0.0587582416052
0.148999822932
669.461525111
621.539302225
657.055261816
0.60514352536
2.49353016514
0.760237758086
1.96712949689
795.410264389
710.874102503
784.631173452
5.83195840723
9.23643684114
5.10358195953
8.90482203472
791.08782638
802.366050437
785.948792855
11.2718653948
12.461962299
11.0349515931
12.1365539792
369.726048683
346.03486538
373.322472815
0.950327462357
0.563623623666
1.26245958815
0.578870729055
405.528887994
394.130117784
395.282285521
0.13625972589
0.0417159937083
0.123859603649
0.0411092534661
414.313780214
404.362137938
395.304419208
0.0317716590125
0.0185269757398
0.0208629930129
0.0105483668009
418.286972249
398.860843201
398.879093132
0.00517541408907
0.129323035092
-0.00395006474938
0.162977704044
447.897091367
411.360693024
430.483871603
0.271707901268
0.467062199041
0.349565736619
0.310113406146
509.97000998
461.878440271
496.574026069
0.314837080259
0.402455178723
0.363584318975
0.31588522707
578.319889477
532.119498964
565.384306184
0.219861851741
0.37805856039
0.364651796807
0.222989594358
644.279698663
597.743779957
628.356465584
0.495932269897
1.4950298695
0.431851630148
1.02199170057
764.062893767
670.433071967
741.709121683
3.87985877679
7.91556107197
3.24284968904
6.95882030127
779.480692206
777.688203693
768.087440452
10.1701875258
11.2601636163
9.42325803126
10.7995549885
389.987846223
370.873831264
0.0311623379775
0.00431382655744
0.259013825648
386.932271867
377.136897654
383.123439528
-0.00428823976212
0.0104302173095
0.290023124583
0.4756065229
397.684327795
392.796554789
401.49641172
0.141529295062
0.323738373499
0.625325493545
0.515508494516
429.553285068
414.398343462
429.22802915
0.325500429631
0.285280312898
0.335296357084
0.119948981846
487.267070894
449.338580073
476.675138228
0.168565550277
0.301223085015
0.0570041712867
0.0652273165238
554.689271936
510.729327612
544.67626395
0.162940367184
0.161552001686
0.147238581066
0.0626792872013
617.237081239
577.387408663
609.841048656
0.0534067886527
0.704448485301
0.299457004545
0.87881007417
725.892045158
653.17572848
725.425418867
2.57953683347
6.44473314602
3.12635109808
6.65251168541
758.587821619
760.78107383
753.108637095
8.93330375063
10.4205745418
8.91886534201
10.2678502696
398.831907448
387.147442219
0.721349198353
0.42914810244
0.558953318129
0.11329732317
424.586329007
399.496118387
415.05940732
0.0487423899061
0.0238424458027
0.0317527551694
0.0231288408879
467.408449945
434.991607349
460.999524222
0.0102770173494
0.00754269038107
0.0125213964969
-0.0105981807501
536.798511785
492.25347786
527.193031024
-0.00969674678348
0.201123242305
0.0416153129549
0.623297321368
607.513207589
564.587227331
607.348150133
0.577194462828
1.82199361066
1.56338281448
2.81932997282
734.307721791
673.441945307
741.438533053
4.20376176345
7.41183329617
5.38325758536
8.0257119049
751.236199431
761.673840444
753.178426075
9.19196195256
10.3726779297
9.43240361339
10.4981657675
523.451184419
1.7311798319
609.837232964
2.09465076528
3.09905488974
2.06050232185
1.94152741642
732.726143145
5.35714095911
7.97275669058
3.79000841462
7.14024706452
750.499827875
9.84226515967
11.2928316185
9.63282999949
11.4380979224
19529.704363
19531.8143337
18231.4118553
18227.9647015
19532.7548919
18100.458705
19531.1623381
19530.699414
19534.3257384
18248.148949
18313.6973905
19533.5489791
19534.7323412
18122.7225476
19536.7041044
19533.1476863
18304.252498
18284.2631395
19535.0279364
18282.8352414
19535.8423418
19538.1942248
19540.4328088
18338.0529727
18346.783574
19539.4720957
18310.585098
19538.1879391
19537.4492621
19535.4376193
18301.2243607
18327.2553481
19535.8631246
19538.0087826
18296.1595896
19538.6587691
19541.9571708
18362.7142255
18353.207658
19540.4711067
19540.3057688
18321.7671821
19541.5693902
19542.3327998
18393.2511227
18352.1078683
19540.1534284
18360.8634344
19544.1676386
19543.1816305
19546.981364
18397.2211551
18421.6121223
19544.9615458
18391.6533676
19545.5560059
19543.3032468
19543.4562487
18368.4383658
18400.0586234
19541.8228126
19544.977925
18373.4110846
19544.7824991
19547.4615984
18418.38224
18401.3982801
19546.3870854
19546.2028257
18395.8574542
19548.8649466
19548.7592706
18482.7410576
18444.2479278
19546.8038336
18472.7384214
19550.407756
19551.0984163
19553.3236205
18490.3215505
18481.5882598
19553.1744114
18486.2616249
19551.8966124
19549.4959237
19548.7770112
18432.8913644
18451.9297232
19547.7808652
19550.2913845
18456.0875424
19551.3483536
19552.9427554
18472.5288332
18459.6279506
19553.2099749
19551.7423582
18473.7208693
19555.9915302
19554.9859446
18486.7564715
18469.4562107
19554.7469767
18471.3166895
19556.1849972
19557.2041365
19558.9133872
18452.1568548
18464.7114688
19558.2311084
18475.2087702
19557.4610079
19556.0820774
19554.3006255
18467.9742092
18475.2983305
19554.6301998
19555.5974981
18472.7056806
19557.7116796
19558.5504359
18465.5437427
18462.8137457
19559.0748651
19557.014526
18477.3849346
19561.3109956
19560.4981661
18460.766906
18446.0667034
19559.6906906
18449.7648047
19562.0858364
19562.9856527
19565.2281468
18452.3703365
18460.0156775
19564.7391733
18459.6151051
19563.5269668
19561.7889131
19560.1859206
18448.0041968
18463.8473808
19560.4312243
19561.7711502
18452.6939486
19563.2159505
19565.3384534
18462.7541574
18456.609407
19564.950201
19563.4553278
18462.9366796
19568.4478823
19566.9879899
18467.4672567
18459.5876413
19566.5097384
18470.3892639
19568.768544
19570.4454684
19571.9280537
18468.0617554
18485.2246033
19572.0840526
18485.1962201
19570.5328249
19568.6556853
19567.3040637
18462.5254151
18487.5864439
19566.71404
19569.1561727
18474.6552424
19570.4974374
19572.5205835
18495.9290441
18489.5538927
19572.1613625
19570.8874239
18493.6661203
19573.5703742
19572.9808391
18498.7527759
18488.404158
19573.4025804
18492.9150183
19573.3225528
19571.6805861
19567.6628692
18428.304523
18289.8616914
19567.7449912
18415.2336435
19571.6866253
19573.1050132
19573.7852312
18494.725112
18483.4779082
19573.4126549
19573.1859586
18477.0242009
19570.6570002
19565.7957088
18256.4609726
18371.0256937
19566.3832046
19570.4256104
18381.7623956
19556.8248686
19562.1157994
18036.3763617
18164.526952
19562.6581689
18011.350122
19556.4439084
19550.6652545
19550.0522964
17943.0520905
17675.6804666
17909.2000958
19550.9133397
19550.040065
19556.4892094
19560.7389873
18152.8928937
18011.1107469
19561.5740116
19557.1108855
18015.981156
19551.6598406
19555.3017458
17759.6698583
17980.0122092
19553.9230605
17934.2012088
19552.7918354
19548.7576577
19554.4389849
18781.4396946
18986.776474
19550.9718025
18604.8459432
19557.517318
19541.4231927
19538.5498594
18771.6290546
18475.737776
19546.1585672
19540.6250073
18312.7775229
19548.8210115
19552.1380122
18957.6856335
18728.1898104
19551.208085
18621.9060876
19556.0556756
19542.3959726
19543.9549871
18498.2007853
18730.5440079
19542.5133311
19548.6193826
18358.0367971
19535.995139
19534.145605
18272.4254082
18515.8979188
19534.1483237
19540.1472206
18305.4296185
19535.9264106
19535.1066134
18350.7911403
18312.4344921
19535.8694277
19537.3754502
18210.8318826
19538.3399708
19541.1448977
18542.8533689
18398.7929573
19542.1610004
19540.3735009
18349.8988541
19537.8529515
19540.2630422
18347.4497785
18447.1664055
19538.6655426
19541.0524617
18255.6266383
19540.7003563
19536.2326627
18343.6305425
18360.6220852
19538.6922176
19539.6296355
18344.7193574
19541.7269488
19542.1375124
18365.2291293
18404.6412928
19540.7206984
19543.181613
18362.2519949
19540.9378951
19540.9279826
18394.2186187
18415.0504009
19540.3544943
19542.743946
18371.6663553
19542.0110892
19545.1251365
18424.140065
18432.1653212
19543.5770297
19544.4100906
18381.7269294
19545.3067046
19543.434138
18406.247593
18406.122768
19544.9695649
19544.3192009
18401.2502389
19546.3819756
19547.1422817
18409.6151948
18441.3808556
19546.1387169
19547.6630077
18416.4353385
19545.7550154
19545.8380907
18429.0749846
18460.1007902
19544.8586704
19547.0626116
18422.3409495
19546.763613
19548.8384929
18458.5886265
18472.8076078
19547.9785395
19548.1050348
18432.7334716
19550.0620679
19548.4114455
18453.6109553
18445.5517243
19549.8534318
19548.8787831
18447.9859005
19551.4712176
19552.5703473
18459.4717794
18471.6220008
19551.1804859
19552.9273406
18463.6349711
19550.1890389
19549.726424
18461.7233312
18483.0970475
19549.1153559
19551.0458972
18459.7159196
19551.3941156
19553.4979474
18476.6821759
18488.2253574
19552.7941229
19552.3971575
18467.527052
19555.7123514
19554.1877582
18473.6328956
18470.0453692
19555.9250174
19554.3555942
18472.8627535
19557.1687426
19558.7423649
18463.9339476
18475.5659511
19557.3240396
19558.6055491
18479.5185699
19555.4706548
19554.7046836
18474.7400434
18491.8690297
19554.1071808
19556.1668007
18474.4319374
19556.9215898
19559.0471078
18478.9588572
18485.5579597
19558.473452
19557.6216327
18479.5362147
19561.8749313
19560.2767354
18468.4992837
18465.8322508
19561.926405
19560.1337344
18471.3851486
19563.665635
19565.2334393
18461.9619134
18484.2441101
19563.4897977
19565.42694
18483.812143
19561.6843588
19560.5798283
18471.5144473
18496.8950595
19559.9603048
19562.3432488
18475.6449932
19563.5322646
19565.8842475
18493.4139195
18495.2272369
19565.4084228
19564.0899529
18489.480408
19569.2008969
19567.0971464
18492.4833508
18482.9034598
19568.9811525
19567.2469465
18494.4997971
19570.9837292
19572.2549063
18495.0359898
18533.6403211
19570.6369387
19572.7243067
18521.6928474
19569.147555
19567.76434
18494.770796
18530.2939623
19567.2166391
19569.6024402
18507.0266646
19570.9772068
19572.9947869
18542.6689414
18534.5913335
19572.6390119
19571.3093246
18533.2121539
19572.5367672
19573.1299786
18482.8316702
18518.4684323
19572.4846672
19573.4673468
18477.5275205
19569.5931888
19564.8241755
18366.6407034
18224.1414241
19569.6466114
19565.2395889
18353.7355791
19572.9090725
19574.0977032
18537.70797
18537.4063835
19573.5849913
19573.5867524
18506.7598042
19570.0351623
19566.3888171
18241.5953263
18427.4697307
19565.644815
19571.0096039
18382.3108126
19556.6876882
19559.7566898
18013.3821852
18138.8830182
19556.209183
19560.8754583
18018.7962874
19552.9933463
19555.0607784
17993.697217
17819.7640673
19553.2262384
17955.9289689
19554.8740761
19556.6812376
19561.0894093
18144.955403
18029.6509988
19561.112023
19556.9884448
18017.9590629
19552.9653172
19555.496036
17817.594425
18003.2783059
19553.6792726
17954.1018911
19554.8540183
19550.4627359
19551.1880685
18699.2954915
18834.9180465
19551.1176972
18625.8579737
19554.7571527
19547.0532945
19545.5098171
18717.6094385
18527.9700617
19550.1087708
19546.5129184
18439.6211636
19551.0671942
19551.815088
18803.717569
18635.7652771
19551.364354
18635.3816375
19554.7773901
19548.0540067
19547.7958824
18527.0873057
18664.791423
19547.5579229
19550.3042807
18462.3303419
19543.6773095
19542.4162629
18423.3047645
18559.9910822
19542.1504892
19545.8270427
18441.7515905
19543.029312
19542.2921694
18471.6821728
18440.7393953
19543.2064788
19543.3924408
18375.8450342
19544.9347232
19546.0215352
18569.4818378
18488.2823802
19547.2986918
19546.1190203
18469.5633271
19543.9425381
19545.7040981
18456.6017652
18541.3785626
19544.4263236
19546.7169848
18403.1710122
19544.4158235
19542.3521715
18436.4451077
18469.6011394
19543.7310798
19544.1597953
18438.8896919
19545.0316558
19545.7195656
18456.4761784
18480.2510764
19545.2805761
19546.1302329
18434.524898
19545.1662309
19545.5637921
18494.3468702
18475.2392387
19545.1838101
19546.1910064
18466.7097176
19545.4357283
19547.6034886
18500.0232589
18540.2573014
19546.464873
19547.2939951
18458.1392098
19547.6487642
19546.0622445
18480.1401997
18506.1208314
19547.157811
19547.0945368
18496.400523
19548.3110845