/*--------------------------------*- C++ -*----------------------------------*\
| =========                 |                                                 |
| \\      /  F ield         | OpenFOAM: The Open Source CFD Toolbox           |
|  \\    /   O peration     | Version:  v1906                                 |
|   \\  /    A nd           | Web:      www.OpenFOAM.com                      |
|    \\/     M anipulation  |                                                 |
\*---------------------------------------------------------------------------*/
FoamFile
{
    version     2.0;
    format      ascii;
    class       surfaceScalarField;
    location    "9.25";
    object      alphaPhi0.water;
}
// * * * * * * * * * * * * * * * * * * * * * * * * * * * * * * * * * * * * * //

dimensions      [0 3 -1 0 0 0 0];
oriented        oriented;


internalField   nonuniform List<scalar> 
92311
(
0.203976545199
0.000101120437579
-0.00117869594183
-0.203889445441
0.000989508861254
2.70890352273e-05
0.204013084124
-0.000818062119086
0.000755374730984
0.203945778991
0.000322792748697
-0.00120282668607
-0.203947046613
0.000982335472879
9.23454489633e-05
0.203980420417
-0.000794517704369
0.000694897326405
0.203707299889
0.000209900036584
0.000160768122647
-0.00109213088895
-0.203885626594
0.000881543976825
0.000190090429058
0.000150990834274
3.10197727377e-05
-5.01855065839e-05
-5.5046959256e-05
0.203951484303
-0.000665261859346
0.000564916670095
2.27391443313e-05
0.0510269340522
8.51545257578e-05
7.60481151939e-05
8.97481977429e-05
7.82668770305e-05
-0.000378140684668
-0.0510816923919
0.000313596613163
-0.0510154772113
0.0510022297628
9.9132003292e-06
3.3180600918e-05
3.38616336776e-05
9.58936212346e-06
-0.000228550752644
0.000186235264508
-8.18630507425e-05
0.000344268910423
-6.2888330216e-05
-6.71600980841e-05
-5.383305019e-05
-2.98539697152e-05
-0.000191035180771
-7.26917663883e-06
0.000200785437993
-0.000303569547528
0.000340883187286
-1.53290852265e-06
2.27917134354e-05
1.18884548807e-05
1.12298167987e-05
1.10351467949e-05
1.07977133036e-05
-2.57136612194e-05
-4.98190695109e-27
4.49671813199e-09
1.72498505074e-08
3.62907983662e-08
-6.07794580308e-07
1.59388706277e-06
4.39315917675e-08
1.56148590408e-07
6.36962210834e-05
4.71191163915e-05
4.90987963164e-05
6.54386514342e-05
-0.000285124847941
0.000232002226976
-0.000116259838982
0.0103866026406
1.0044429999e-05
-2.57748616468e-06
-0.0103880760833
0.0103716475596
2.42343850369e-05
-4.9007784889e-05
-0.0103831863253
5.7558381396e-05
-3.82952896066e-05
0.000119882459409
-1.18922268175e-05
0.0510380678604
-1.04278611576e-05
-4.13683146728e-06
-3.21675557666e-06
-0.000176309176738
-1.96429146524e-05
0.0509733493658
-1.98046965656e-05
-9.65475353127e-07
-4.46043691248e-07
-0.0509415720302
7.38596246436e-05
-3.73798003649e-06
-3.58721893358e-05
0.0103807507282
6.15293388121e-05
-3.78259744186e-05
1.61328718027e-05
0.0127173711461
-2.68832691577e-05
-4.70975715442e-06
-0.0127143475399
0.0127055047179
1.2043146852e-05
-1.85133422521e-05
-0.0127027720545
-2.23879064142e-05
0.204314892627
-0.00203002217273
0.00175786435648
-0.204020749761
0.204067016879
3.34971610234e-06
-0.000314009421067
0.000256920610891
-2.25841785004e-05
0.204166731738
-0.000184211440865
0.000106782999457
0.000188980598464
0.204401581313
-0.00211276614773
0.00182305034746
-0.20432346742
0.20413492207
-1.22714018007e-05
-0.000445275621503
0.000306555356184
2.55963555187e-06
0.204269925718
-0.000225188845839
6.48574245366e-05
0.000182596626697
0.000284018939604
0.000277650488686
-0.00211627655339
0.204433697284
0.00179548730463
-0.204858454732
0.000190210475068
-5.23383191852e-05
-5.24759555398e-05
-8.51061306649e-05
-9.80878133544e-05
0.204341066974
-0.000327199091755
0.000213202547335
0.0513480157823
9.47656642941e-05
6.25446724877e-05
9.2171104276e-05
6.45673311319e-05
-0.000590370296127
-0.0514641599742
0.000574940503576
0.0510864474287
5.87485773757e-05
-6.75785751092e-06
-6.00434570825e-06
-7.78341103168e-06
-5.12625630472e-06
-0.000133962887606
0.000258303773404
-4.82336976237e-07
-0.000471147492211
9.10269068081e-06
9.51903152558e-06
7.54130310295e-06
8.86343223705e-06
-8.16462251215e-05
3.67493840581e-08
0
3.5349005391e-08
8.69602543654e-30
0
0
-7.2098389449e-08
0
9.97822479969e-09
0
0
0
2.93666494529e-28
0
-9.97822479969e-09
0.000459487847167
9.067773398e-05
9.5155502331e-05
8.7995443408e-05
9.80029047441e-05
0.051254795723
-0.000454145549224
0.000107503924749
0.000112588776012
9.66446492501e-05
0.000101855765605
0.0511752357419
0.0004112745087
-0.0512680209849
0.000131164220673
-9.13571261693e-05
0.0102824214426
1.36305103377e-05
-4.38290266115e-05
-0.0103375307456
0.000112117687509
-0.000109331892092
-0.0102084383499
2.1755261484e-05
-5.02103688209e-05
0.010199093499
0.00014473114885
0.0127556572067
-0.000120382978797
0.000111051077176
-0.0127842705818
9.55555410509e-06
-2.34692624454e-06
7.42322211371e-07
1.0005614396e-06
-5.10477117803e-06
0.0511263196259
-9.6257804511e-05
0.05104579294
-2.15388337517e-05
-3.74000093986e-05
-2.41357031273e-05
-2.91909995858e-05
1.33752832476e-05
-3.22739681704e-05
-3.31579527596e-05
-2.45894717985e-05
-2.02326871091e-05
0.051109849793
-4.25010357413e-05
6.21800572398e-06
-2.07922251518e-05
2.56790463873e-07
0.0127240406415
-3.72263761547e-06
-2.04043426922e-05
-0.0102928126343
-2.58307979524e-05
0.0102773396884
6.20788951089e-05
-2.23422001217e-06
-2.37827743783e-05
0.012715807288
-0.0127173461056
-4.29167701184e-05
0.0127370628676
2.13988928164e-05
-3.10324955403e-05
0.000278077223064
-3.65554417419e-05
-2.05224923581e-05
-2.97900295138e-05
-1.16359511135e-05
0.000274341992246
-5.2776479169e-06
-6.72529165446e-08
1.3412312558e-05
9.0918405204e-06
6.17700639927e-06
8.38006144754e-06
0.000294297409758
0.000474280700849
-0.000440316809086
-2.70673579788e-06
-4.47040927046e-06
4.24987080111e-06
1.50951387133e-06
5.0708370973e-06
-5.15625241861e-06
-2.20705391812e-06
-1.32131388239e-06
6.37125112966e-06
3.623177719e-06
6.80929016246e-06
4.56816724375e-06
0.000335090471842
-2.9676613641e-06
3.47939843599e-06
5.7776134436e-06
7.81480680065e-05
0.0127128822624
-8.96542371651e-05
-0.0127329818742
-0.0127094881792
8.580228817e-05
-7.35161135205e-05
0.0127035601423
6.94545622214e-05
3.12668340492e-05
-9.42936524906e-05
0.0103807279846
-2.24362883565e-05
-0.000116649084724
0.0104361199353
-0.0104322117844
3.02919482155e-05
-0.0127280270943
6.9356218185e-05
0.0104338791171
4.96508956796e-05
0.0127057665422
-8.26457969221e-05
0.0126972881916
7.415012912e-05
-6.04765856364e-05
5.61208196705e-05
5.84919070434e-05
-0.0126995804216
0.0127030990179
-6.41180660288e-05
4.5649654164e-05
-7.81360823923e-05
-2.98350973568e-05
-4.86719133602e-05
-0.0104378700157
0.0104196853362
8.53232033907e-05
0.0127008973049
5.51050467041e-05
6.82620747585e-05
-6.71628158594e-05
-0.0127031497223
8.05917401633e-06
-4.50065033039e-05
0.0127091992097
4.04820132219e-05
5.02301396948e-05
0.0127069797484
-5.70228445599e-05
6.58037368937e-05
-9.95971047757e-06
0.0103657379255
-3.72461183148e-05
-3.53840246467e-05
0.0104189633413
9.23645517976e-05
4.61981992669e-05
0.0103983385068
0.000101713502611
0.0127137975139
-5.23454003925e-05
3.54640501309e-07
-0.0127201074634
0.0127230643814
-4.13633902279e-05
4.92265921432e-05
-0.0103471993985
0.0103265733654
-1.69976501862e-05
-0.0103836236996
7.97275690784e-05
0.0103653034836
8.96451879398e-07
-3.82728464731e-05
2.76996509422e-05
5.85044998577e-05
-3.17477391897e-06
-3.09961384098e-05
9.11903317132e-05
-5.13191633458e-05
-1.42500382583e-05
-0.0126908858168
0.0126933728597
4.04958697683e-06
0.000116380428539
-0.0104579491262
0.0104341057923
-0.0104905625459
0.0104733993992
0.00014476635601
1.93963118749e-05
7.71709437076e-06
-0.0127032981915
-1.06074119259e-05
-0.000121736519118
-0.0104972690306
0.000148728515406
-0.0126934098265
1.08176835823e-05
-0.0104686607167
-4.74638532424e-06
7.03636767514e-05
-0.000120018848813
-0.000112212071524
-0.000115292794593
-0.000129493783438
-3.67052661566e-06
0.000350173278282
4.10177772027e-05
-4.52196099975e-06
6.44463101527e-07
7.05487920119e-06
-6.12287494493e-07
-0.000661833075088
-6.53276795493e-06
-0.000144379833534
-0.000123073262477
-0.000137849142875
7.91042445373e-05
-1.58139323498e-05
0.00107973437323
-4.02290938043e-06
-0.000125074420954
-0.000112111875863
-0.000122130454281
-0.000339778545529
0.000191874902914
7.05703447356e-07
-2.65028819524e-06
2.17785817663e-07
5.14281482004e-06
-2.23408052335e-06
9.20693024136e-07
2.95371332184e-07
0.000122893567859
1.53289269775e-05
1.33733464495e-05
1.48193535308e-05
1.51939537974e-05
0.000392572052716
-6.98263219301e-07
-6.35663255023e-06
1.1476059532e-06
-6.148505457e-06
5.79049930385e-07
1.2193888938e-06
-9.07961951417e-05
1.31682551475e-05
1.19420509195e-05
8.54815690189e-06
1.09219911923e-05
-5.76648721133e-05
0.000226000606214
-5.56276011938e-07
-6.39578528801e-06
1.42395107859e-06
-2.67937216817e-07
4.23024544607e-06
6.20476687748e-06
6.25509117892e-06
-0.000528353266227
-3.57942172877e-05
-5.82410238335e-06
5.84156494207e-07
-0.00012733459813
-0.0128291502291
0.000122281080334
0.0127933164456
0.000134744045333
0.0128411077909
0.000139077166085
-0.000131970598977
-0.0128776294525
-0.000121996712248
1.29710172371e-05
0.0102421700054
-4.68582445134e-05
-9.19542913138e-05
0.0103048785823
-0.010356975232
-8.47623898086e-06
0.0128044179553
-0.00012145774224
-0.0128659558826
0.000147894937
0.0102628605396
-1.24561625138e-05
-0.000121021996976
0.0127652759225
0.000110145457959
0.000128559092007
-0.0127784813552
0.000106822363053
-0.000100076928414
0.0127569941593
-0.000106429230047
1.68759796826e-05
-4.48008523376e-05
-0.000110917440278
-0.0102313712353
-4.47267068491e-06
0.0102223255798
-0.000114489424985
0.000113259950388
0.0127452701029
-5.82961556178e-06
0.0103333896367
1.9927559481e-05
-2.29442640524e-05
-0.01035092989
-0.000139009419666
1.59509887703e-05
0.0103259244642
-1.40739758936e-05
-0.00010527816252
0.0127346542127
9.90811894678e-05
0.0127614486258
0.000133284929949
-0.0127907000824
-0.000130365773309
-0.0102775665053
0.0102695110224
0.0127403276577
-0.0103047057988
5.83519315785e-06
0.0127270481588
-3.76678799238e-05
2.87877919962e-05
0.0103129194017
4.75048004535e-06
0.0103462399733
6.0385689995e-05
-1.49138538113e-05
6.36348602196e-06
0.0127275247856
-3.90024201607e-06
-1.56760256035e-05
6.37406387577e-06
0.0103066359365
2.84316796913e-05
0.0127270663266
-3.68395863445e-05
0.0103301113631
4.11938512845e-05
-1.13868125948e-05
0.0127337680453
9.07008193829e-06
-7.55250756108e-06
-0.0127306455878
9.97743732948e-06
0.0127334058634
-3.35088907536e-05
-1.86880623112e-05
-8.82096545537e-06
4.63536362767e-05
-8.21454498279e-06
-0.0103128472788
9.97360634902e-06
0.0102950995023
-3.37351313355e-05
-8.08709020163e-06
0.0127373394634
2.85903154956e-05
-0.012704465542
-4.32169173981e-05
1.56918383494e-05
-2.32729320221e-05
-2.72941793279e-05
-1.0303228837e-05
9.77916735959e-05
0.0104079838125
0.0104536395747
0.000124512905942
-7.77405425396e-05
0.0104241840035
0.000101077670235
-2.71175921218e-05
0.0127249098341
0.0103791912288
0.0103889165601
-6.02926046094e-05
8.31362031551e-05
3.73359585078e-05
-4.05491696742e-05
0.0103522452859
6.33302297325e-05
2.43049617103e-05
0.0127471994414
-3.08255429935e-05
0.0127367954077
-2.32456563823e-05
1.00702807156e-05
-0.0103504895279
0.0103259544046
0.0127419104728
-2.50326956644e-05
-4.48628734672e-05
3.39373684506e-06
-0.000104068744635
0.204567596023
-1.35307714921e-05
-4.00493242012e-05
4.1264592086e-06
7.41174981847e-06
2.44025625912e-06
2.52417202331e-06
-3.97063920565e-07
-7.16916389313e-05
0.051156853831
2.84231847116e-06
-7.81698967424e-05
1.4197276221e-06
3.39152572384e-06
4.21887086201e-06
2.74271142473e-06
3.9194219451e-05
-0.000530868176745
0
0
0
-3.81651112632e-28
6.36316117833e-30
0
3.61491620893e-28
8.11657111216e-05
9.25421519145e-05
8.461788449e-05
8.75232698935e-05
-0.000238280403448
-0.000417742745674
0.0511072408819
7.55043816828e-05
-0.000116386791902
-1.40419082358e-06
0.0103363371381
0.051153159267
4.6898489468e-06
-2.29523291045e-05
-9.38754296468e-06
-1.05740265087e-05
-4.59907892611e-05
0.0511447025522
1.22222276984e-05
1.6309184401e-05
2.06182409204e-05
1.81028298129e-06
-6.5207671719e-06
-3.27180065183e-05
-1.59645892844e-05
0.0102589920846
-4.06067979437e-05
7.36973067044e-05
-8.00271915567e-06
2.82966242679e-05
-2.14609358392e-05
0.0103153323401
4.56198694455e-05
0.0102687945267
3.71369879168e-06
-2.81528112539e-05
1.34500412161e-05
-0.0102755162633
9.11816716071e-06
0.0511206500819
1.76069145465e-05
1.29336939633e-05
1.45641760117e-05
1.9068266426e-05
-9.39591282117e-06
-8.27281395534e-06
-2.25068955697e-05
1.22683241223e-05
1.06182187491e-05
9.03449230525e-06
1.4048628656e-05
-1.26111149213e-06
1.64597194161e-05
0.0510878409534
-2.84273818351e-05
8.53435264374e-06
-3.040067044e-05
2.61492574537e-05
0.0102591623225
-4.43374977349e-06
1.17939547736e-05
-2.17222568096e-05
5.74254538794e-05
-0.0102378796973
0.0102176797729
-4.11393197144e-05
-8.12482654322e-05
-6.402821259e-05
-6.59273957174e-05
0.000175378415703
0.000175805142749
-3.62802479191e-06
-0.000202430482011
2.49510296613e-06
4.06233971906e-06
5.32863323869e-06
1.8120356002e-06
7.65110345381e-06
2.13469200779e-06
-0.000286323019528
7.57955729794e-08
3.69373796505e-07
4.6384967453e-07
0.000233090376787
-0.000193277747123
6.52545872463e-07
-8.32165236827e-08
-3.80260280561e-06
-3.70513076186e-06
4.71969195873e-07
2.91322755259e-07
-1.27240684651e-06
1.04245695415e-07
-0.000316085047071
-1.88003096075e-06
-8.77053584327e-06
-1.68144825413e-06
0.00028817664974
-4.05514219707e-07
-0.000233784973743
1.94422187768e-07
-1.11501624376e-05
-2.30703503793e-06
0.000231265205654
-3.25313132288e-07
-0.000348282552145
-0.000178570441867
-0.0127227613293
9.60400480144e-05
8.4860107489e-05
-9.13315179085e-05
0.012714078782
-9.48473030333e-05
0.0127155326619
-0.000110293714357
0.0102749883772
-1.06914470383e-05
-1.46221352117e-05
-9.79299351022e-05
0.0103311934114
-0.000103119480794
-1.71954896365e-05
0.0102767610141
0.0127070592056
-1.60328604653e-05
-0.0127464598014
2.55318099981e-05
-3.20665915356e-06
0.0127474867605
0.0127421956529
1.30744187267e-05
-3.57988572576e-05
-1.8676648568e-05
-5.2952280702e-05
8.73911884143e-05
0.0102433329965
-9.51808298353e-06
0.0102744197694
-4.81082565961e-06
-3.39833573545e-05
0.0127439159182
-6.27311798056e-06
-1.67162226864e-05
0.010264094602
-0.0127511119643
1.93892716685e-05
-1.60182828869e-05
0.0127491332062
2.1531864488e-05
0.0127578128355
-2.72775387072e-05
3.95936838176e-06
0.0103011377563
-1.13540358588e-05
3.74082990917e-06
0.0102915209948
3.69285384137e-05
0.0102905050038
0.0127572057077
-2.234164517e-05
0.0127465245998
2.12090952689e-05
-6.47638833625e-06
2.31235016632e-07
8.9750970033e-07
-0.0127543258922
0.0127486069165
-6.68084641078e-06
-2.67218657431e-05
-0.0102833565671
0.0102779215381
4.06567985747e-05
3.53198391715e-06
-1.092518046e-05
1.89692466409e-05
0.0127436820751
-1.88352473712e-06
2.99874379186e-05
-1.26953160633e-05
-0.0127353660924
2.42652485671e-05
5.49445253604e-06
0.0127269591407
-3.57540162047e-06
-1.16318646553e-06
0.0127369175383
-3.96413597105e-06
-2.39178128218e-05
0.0102653983044
5.13603718782e-05
3.72587385176e-05
-3.49627236192e-05
0.0102524087957
-1.63659231308e-05
-1.52812296894e-06
0.0102527458397
5.9589083893e-05
0.0127260801846
6.35994126051e-07
0.0127178510885
1.89158013848e-05
2.8008388718e-06
-4.39145449446e-07
-5.5323156252e-07
-0.0127143208499
0.0127054592295
-2.02554118251e-06
-1.07301643695e-05
-0.0102359464358
7.85151259353e-05
0.0102146583906
4.54188767579e-05
-2.98562765933e-05
-2.68078815486e-05
4.28455065851e-06
0.0127110061111
6.57645007391e-05
-1.40741621701e-06
-0.000527091222425
-0.0494507554885
0.0493165875103
0.00060485716013
3.69088527455e-05
2.39128892017e-05
4.17087842223e-05
2.25279503303e-05
-6.85805546045e-05
-0.000581315717295
0.0497694841699
-3.43929285253e-05
-1.9080808457e-05
-1.82768320688e-05
-3.37383092033e-05
0.000173757553942
-0.0497976424836
0.000541150774221
-0.000925016967846
-0.0498560355587
0.0500983591029
0.000822022052274
-0.00017650724285
-0.000113202188126
-0.00015062101689
-0.000129505668569
0.000430443603425
-0.000777111562834
-0.000208076971961
-0.000162023453137
-0.000209176895517
-0.000161919362687
0.000504234723399
0.0504078422772
0.000745286130526
-0.0501389546913
-5.86400395772e-05
-8.85460124674e-05
-0.000366686861849
0.000443419527182
0.00014413572403
-9.69675245729e-08
-6.74411235874e-05
-6.00753608134e-05
-6.41996316739e-05
-3.49243285344e-05
-0.000460878673108
0.000228973277018
0.000285740196179
4.90576627418e-06
-7.26816978394e-07
-2.56284426469e-05
2.50389881475e-06
-0.000201368699457
-3.3191830941e-05
-0.000191885550825
0.000124545271367
1.96930518475e-06
-3.45940668163e-05
-1.34431970748e-05
-9.86872969531e-06
-0.00018528249961
0.000183226954939
8.27537748273e-06
-0.000315335188761
4.53066078044e-05
-0.000243468059202
0.000196470713075
7.95176139128e-06
1.61895294091e-05
1.25294909584e-05
2.14653393004e-05
1.7447738216e-05
4.84100739e-06
2.62124961966e-05
1.80272555746e-05
2.51139397691e-05
-0.000467003268752
-0.000164237726189
7.11888846523e-06
0.000320466169201
0
-3.44467704331e-12
0
6.03038803332e-11
0
5.2417159244e-11
-1.09276362534e-10
2.83311488037e-27
-1.53907463173e-07
7.30087380304e-09
-2.36412682311e-06
-3.49500513833e-09
-1.47830110429e-06
9.92165805994e-07
3.97020141694e-07
7.21044250954e-11
-1.54263336216e-08
3.91470133911e-12
1.21996862592e-08
2.58012003138e-12
-1.02071474772e-09
4.2072025958e-28
-2.5129120901e-07
-7.07900262424e-08
-1.05433460166e-06
-3.35043911708e-07
-1.29570978598e-06
1.41962670585e-06
1.80134196151e-07
-1.72516248526e-08
-2.24917754526e-07
-5.14482478886e-07
-3.77687424588e-09
-3.13712659152e-08
-2.84332654972e-07
-4.74531072425e-07
-1.00791631361e-06
-6.58769644688e-07
-9.52733423824e-07
1.30113193261e-06
-7.11295912918e-08
0.000209296526811
5.45849110437e-06
9.11502385057e-06
1.57789899996e-05
-1.14910873048e-06
0.0491603852232
2.05335072188e-06
-3.56347575526e-05
-0.0493652590845
0.0491651513751
0.000373016554631
7.81559575297e-06
2.72146070424e-05
1.73106084731e-05
1.27712945738e-05
-7.29436626008e-06
-0.0493865694663
5.27203055396e-05
1.25797109461e-06
-0.0115122492266
1.53659810023e-05
0.011459581426
-9.75603104213e-06
0.0114799491961
4.63357917796e-05
5.8684350618e-05
-2.02500974213e-05
-3.44594438133e-05
-0.0115282006207
4.42953998827e-05
3.28872089846e-05
3.12083278087e-05
5.05349928259e-05
-0.000313488306333
0.0122845644328
0.0121972149852
0.0121756054691
0.012233377863
-9.8031968546e-05
5.89295042627e-05
5.36634469015e-05
-3.1983248783e-05
-4.54902154886e-05
0.0114441896067
0.000455079276624
1.35737691547e-05
2.75109131053e-05
1.29723290627e-05
2.62460069922e-05
-7.96928219195e-05
-0.0495333860875
0.0496204985577
8.96747323949e-06
1.17685469325e-05
1.91584962517e-05
2.91648121971e-06
-6.67462104126e-05
-0.0496437106122
0.000502243626653
0.0114858290283
6.03227855812e-05
-2.52314859449e-05
-0.0115306586098
5.62845427404e-05
0.0114945731316
4.89560803808e-05
-7.43175251758e-06
-6.29368929396e-05
-0.0115371498145
6.21737523578e-05
0.000823275338597
2.86373878543e-05
4.09098653204e-05
3.3915688514e-05
3.06655767191e-05
0.0491083444954
-0.000196601891346
-0.00015922165079
-0.000184155328496
-0.000150625857832
-3.13888826493e-05
-1.0322777758e-05
-1.23092562804e-05
-4.63385816749e-06
0.0495301713854
1.79804612723e-05
2.58225936689e-06
9.87686908497e-06
6.99408483693e-06
7.6424719075e-05
0.049567356336
0.000734522332239
3.03416714652e-06
-1.67295022879e-05
-3.4562401889e-07
-7.83362226329e-06
7.3418382936e-05
-3.34638408171e-05
0.01145007412
6.73105806514e-05
0.0113865526496
5.67601449399e-05
-5.77873265266e-05
-0.0114014015596
0.000116446980363
-0.000109189810315
6.67373965319e-05
4.61189175774e-05
-1.07691925053e-05
-7.25107258558e-05
0.0114612889681
0.0113916193438
0.000101255194457
2.33913767948e-05
6.88788788823e-06
-0.000114587535511
-0.0114169483808
0.049753867502
-7.97981875086e-05
-7.0565582806e-05
-5.08389719499e-05
-0.000104332384084
-0.00105348967958
0.000247460071709
0.00120251627363
-0.000129155530473
-0.000228589253948
-0.000148737558591
-0.000205455617845
0.0505599312571
0.000279645618587
-0.00157638008622
-2.79768550108e-05
0.0113652496343
0.00013474876127
-0.000130153760118
-2.87863202915e-05
0.000222109582343
-0.0112692047361
0.00021296784463
0.0111493560881
-0.000205628917149
0.000114919449253
-3.91576474623e-06
5.76811697452e-05
-0.000129573809353
0.0113629102805
0.000192421953911
-3.83727006909e-05
0.000313270032207
-0.000210149368098
-0.0111938339919
0.0110568038873
0.000659285073532
-6.24377349249e-05
-5.79789308594e-05
-4.56346662025e-05
-7.74018771655e-05
0.000232053046249
0.0500244835837
-8.81104367663e-05
-0.000117326731552
-0.000104092187813
-9.84183317772e-05
0.000307946688675
-0.049905063445
0.000639756992586
-3.49465168607e-07
0.0114655263436
6.1302873224e-05
-0.0114961258622
0.0113911268935
-1.94188454452e-06
4.39384088295e-05
-0.011422394251
9.85106456139e-05
0.0113177782909
-1.1661030277e-05
0.000140554876478
-8.84196958692e-05
-0.0113716310999
8.47538513791e-05
0.00098999378688
-0.000211100598841
-0.000270954065944
-0.000193788405977
-0.000286283359667
0.0506141798491
0.000658828170965
0.0502940027248
-0.00019850197924
-0.000157876979525
-0.000149579218459
-0.00021066566403
0.000492070329823
-0.000222390794795
-0.000292059707141
-0.000230798905095
-0.000288935437298
0.0507147979233
0.000886120049538
0.000717395591787
9.69785833273e-05
0.0113409692458
0.000108270138334
-3.82038541132e-05
0.000333418415688
-0.0111559296447
0.000168836816122
0.011014705972
9.90486013585e-05
-1.86105397108e-05
0.000183149789407
-9.78999365181e-05
0.0112513302806
0.000133065609813
-4.42616833427e-05
0.000356343653833
-0.000141066136933
-0.0110386177002
0.0108923163797
0.000185619979853
0.0112317746628
9.08812747567e-05
-0.0112942278851
0.000338676407813
-0.0110373619261
0.0109015144464
-3.8865318793e-05
0.000114236436106
2.08074580256e-05
-4.2673600732e-05
-5.70076168599e-05
-4.66786248019e-05
0.000362491821173
3.43300791914e-07
-0.000297425246331
-1.17829122345e-07
0.000362584254846
5.01095604248e-05
-5.4034734286e-05
-4.83431262847e-05
-4.35734332064e-05
-0.000301698235141
-1.14576951907e-07
-9.80880530693e-08
-5.29028914305e-05
-6.57126025361e-05
-6.13006527798e-05
-4.72612165669e-05
0.00045423672498
5.88187834691e-08
-2.40969745588e-08
1.00072533001e-07
1.96116792219e-08
-7.74631168192e-08
1.35862561144e-09
5.34969511603e-08
4.84989509018e-08
-8.06890023887e-09
7.28391226851e-08
-3.70283745374e-08
-8.19862386938e-08
7.48410160783e-08
-9.51118021422e-09
4.54236924607e-08
7.58663476636e-08
1.60001546734e-08
3.3572335377e-08
-8.45548686814e-08
1.23145881012e-06
-3.46431636064e-06
-8.7375442442e-06
-4.17730184337e-06
1.89917374014e-07
-5.7250646094e-08
-6.35269457838e-07
3.42699578879e-07
1.46747423263e-06
-1.00708646588e-05
0.000106265552653
-5.09790575473e-05
-5.95687775648e-05
-5.31789569204e-05
-1.45246628531e-07
-0.000303178609893
0.000310636338921
-6.28771030491e-05
-4.5434684901e-05
-5.68390278856e-05
-0.00025150127688
-1.23767674767e-07
0.000151607808511
0.000205477175092
-2.37502241956e-08
-6.55421362138e-05
-4.77379864458e-05
-5.73005138432e-05
-0.000138447321073
0.000338608116586
-4.68910509118e-08
-5.75658083461e-05
-4.58337087384e-05
-6.11527197671e-05
1.64724149567e-06
0.000248368469402
0.000262866941217
-3.69802251244e-05
-3.18179243317e-05
-4.23811481221e-05
6.50140635801e-08
-3.89623164728e-08
-7.32915199141e-08
-2.07302201207e-08
7.29763472465e-08
8.33580748541e-08
-5.26165343511e-08
-7.50325526365e-08
1.97323198848e-07
-1.54993078504e-07
0.000353626440336
1.00126013726e-05
1.38867254107e-05
3.4109522866e-05
1.75816663263e-05
-0.000254467336356
-0.000231703680255
-3.93115567619e-05
7.16869121553e-06
1.8763102926e-06
1.13679491187e-05
6.99974181388e-06
9.24928655921e-06
0.000319465699808
3.4018980243e-05
2.43877817775e-05
1.92698591823e-05
-0.000366891168574
8.51658257815e-07
-1.37993202879e-07
5.07629742203e-07
2.09859977142e-06
1.45292329654e-06
-1.64980871439e-07
3.35008760947e-07
1.80449306601e-06
0.000201129158137
5.85138457849e-06
1.00385435617e-07
5.05172293481e-06
1.82721004107e-06
7.40215053842e-06
-0.000196219024454
9.11318441393e-06
7.46187643461e-06
5.47275451667e-06
5.91441776828e-05
2.47438134358e-05
2.00563044651e-07
-8.25901283459e-08
-3.24752933271e-07
-3.69239261563e-07
6.96998384133e-07
9.98324950471e-07
-5.0962113441e-07
-5.68596699237e-07
0.000139453884886
7.53511061664e-06
2.50742898789e-05
4.38700912329e-05
3.0128799406e-05
-0.000380494628775
-0.000322178304217
7.82425925648e-06
1.54374389782e-05
2.83055839238e-05
2.48408045247e-05
6.74919059821e-06
4.29546521258e-05
3.30045753856e-05
3.0220692756e-05
-0.000421034653335
-5.51597739821e-05
1.64288119522e-06
-1.93940414765e-07
-3.20986495396e-07
2.309591696e-06
1.80702549124e-06
-6.12549132998e-07
2.05902481019e-06
-9.54176810771e-07
0.0123914325247
-7.25519769934e-06
-3.08289039144e-05
4.82968340272e-05
-0.0123951639103
3.82782430311e-05
-0.0123876502532
0.0123746957532
-1.35228542701e-05
1.24506734381e-05
1.72560678589e-05
-8.39687175512e-06
-0.0115670257216
-8.52882988973e-06
-0.0115183898825
2.39772797995e-05
0.0114663993256
5.96194301086e-05
0.0123787198013
1.88484204733e-05
-0.0115712977657
-9.1760073744e-06
-0.0123919969874
0.012400056869
6.71743425591e-05
-6.2601045516e-06
-0.0124035904275
-8.16600024989e-05
-0.0124101606841
0.0124032266437
9.68153100463e-05
-8.72889036923e-06
-0.0115230867182
0.0114711181748
-1.72460708403e-06
-2.78662462832e-05
3.85880110529e-05
-0.0115816505229
0.0123878794701
8.30203519953e-05
-0.0124139720811
-0.0115759919539
-0.0123678840072
0.000110631687881
4.94660381975e-05
-8.34372194089e-05
0.0123356612774
-9.31076164259e-05
0.0123865641605
0.000110876674129
-2.90452280482e-05
0.0114368088447
-3.37808776424e-05
-5.71860726246e-05
-5.84349593921e-05
7.43284657054e-05
0.0114157231066
-7.08350459032e-05
0.000131882238195
0.0123588203133
-4.28379054924e-05
0.0114072080733
-9.21800530084e-05
0.0124401572649
6.45829181891e-06
9.83744089809e-05
-0.0124384482743
-0.0124264037704
0.00010491276476
0.0124216424958
-4.40578215445e-06
4.68084912085e-05
-0.0115833637683
-2.34228191513e-05
-0.0115327870902
6.27983239483e-05
0.0114889064166
-0.0124262521157
0.000111060972625
0.0124377663026
5.23313521022e-05
-0.0115845089703
0.0124539240512
9.70897163903e-05
9.22331498601e-06
-0.0124522482438
-0.000109838315725
-0.0124668595364
0.0124669324465
0.000114851916526
-2.26185458723e-05
-0.0115377118555
0.0114946981807
5.71101642951e-06
-5.43255642849e-05
-0.0115883192177
5.37640603549e-05
0.0124524987248
-0.0124626315714
0.000102126410734
-0.0115882246714
-0.000139916064084
-0.0124223455005
5.02983147524e-05
0.012402246364
0.000146729860392
0.0124050521771
0.000118391083469
-5.81571567091e-05
8.42812849453e-05
0.011425093046
-3.24928220539e-05
0.0114525892867
7.19945287594e-05
0.0123807262071
0.000124616184813
0.0114280124374
8.86771155359e-05
-0.000151608791034
0.0123802066993
4.66392054447e-05
0.00015563485864
-0.0123512033446
0.000184707580221
0.012326739876
-0.000177127656038
-5.90407492802e-05
9.79904650615e-05
-8.86374621714e-05
-3.89548564263e-05
-0.0114093464945
0.000117068442671
0.0113921221473
-0.000147129421194
0.000187569745608
0.0123689541673
9.89132894584e-05
-0.0124395757505
0.000140871774515
3.76436858947e-05
0.0124258584236
-0.000120278183467
0.012455801081
0.000124010466946
-2.79234992305e-05
0.0114598200468
-1.67304424937e-05
-8.67190376616e-05
0.0114354839815
7.91589990546e-05
0.0124458871434
0.000141150183483
0.0114321779734
0.0124077494507
0.000147228477143
2.95771361802e-05
-0.000175209830945
-0.0124310794096
0.0124277991853
0.000168749874158
-1.63267096414e-05
-0.0114141508667
0.0113885825524
-5.50830713083e-06
-9.79069907386e-05
8.44954228536e-05
0.0124033472716
0.000148589725132
-0.000238904717669
-0.0123562850778
-4.40892624373e-05
0.0123790991904
0.000243548950557
1.7436783293e-05
0.0123149398432
0.000201731718248
-1.88347641303e-05
-0.000199199024252
1.16495064114e-05
0.000157087009785
0.0113304829463
-0.00014522381408
-1.09606934105e-05
0.0113752038496
0.000127441278869
0.0123347180056
-4.75571290093e-06
-0.000242014201166
0.000209841884004
-6.55320334864e-06
0.0113408384815
0.000154851994966
-0.000271480047619
-0.000130307768344
0.0124478884657
0.000283906230464
4.92362139056e-05
-0.0124055585442
0.000316848603075
0.0125434998698
-0.000324149917
9.18046377282e-05
9.55261107842e-05
0.000178916997365
-0.000168767824054
-0.0112611232524
0.000247840726694
0.000227015814133
0.0111210236521
-0.00027797662911
3.11821536599e-05
0.000185091593617
0.000326951485235
0.0125695453772
0.000116350624786
-0.0123861987059
0.000221651410953
-9.31699520462e-05
0.0124214680101
-0.000194808880519
0.0124207058405
0.00018901781231
1.81052141156e-05
0.0113741000367
0.000135615900351
-0.000150838094598
0.0112877006354
0.000141371624586
0.0124614201156
0.000212284671643
0.0113117537227
0.000258791044297
-0.000170259758685
0.0124878195188
-0.0125254962789
-0.000298368451832
0.00028676836817
0.0126223849221
-0.0112281610886
0.000287272091265
0.0110959344844
0.000204296178009
-0.000173284921627
0.000165940983938
0.000250430494991
0.012598707881
-0.00012807068113
-0.0124814603965
-2.67439409678e-05
0.0124756998352
0.000126348322192
0.0124702046858
0.000113939764785
-0.0124790477954
-1.47984388083e-06
7.16208574781e-05
0.0114364517036
2.58619179942e-05
0.0114692914746
-0.0114995050938
5.15848509692e-05
0.012463623105
-0.0124893189374
0.000114549930028
0.0114412746638
6.09950792311e-05
-0.000134909933784
0.0124611936573
-4.80650168666e-05
0.000135129410001
-0.0124467852547
0.000152259877532
0.0124492347293
1.45507805752e-05
8.07293953908e-05
8.33273870132e-05
-0.0114154337371
8.84932685867e-05
0.0113734328136
0.000151308722199
0.0124680703225
6.89046185636e-05
0.0124752683419
0.000135891409461
-7.57597167863e-05
-0.0124882748656
-0.000152503643435
-0.0124906144309
0.0125048736382