/*--------------------------------*- C++ -*----------------------------------*\
| =========                 |                                                 |
| \\      /  F ield         | OpenFOAM: The Open Source CFD Toolbox           |
|  \\    /   O peration     | Version:  v1906                                 |
|   \\  /    A nd           | Web:      www.OpenFOAM.com                      |
|    \\/     M anipulation  |                                                 |
\*---------------------------------------------------------------------------*/
FoamFile
{
    version     2.0;
    format      ascii;
    class       volVectorField;
    location    "9.25";
    object      force.turbine;
}
// * * * * * * * * * * * * * * * * * * * * * * * * * * * * * * * * * * * * * //

dimensions      [1 -2 -2 0 0 0 0];


internalField   nonuniform List<vector> 
28582
(
(0 0 0)
(0 0 0)
(0 0 0)
(0 0 0)
(0 0 0)
(0 0 0)
(0 0 0)
(0 0 0)
(0 0 0)
(0 0 0)
(0 0 0)
(0 0 0)
(0 0 0)
(0 0 0)
(0 0 0)
(0 0 0)
(0 0 0)
(0 0 0)
(0 0 0)
(0 0 0)
(0 0 0)
(0 0 0)
(0 0 0)
(0 0 0)
(0 0 0)
(0 0 0)
(0 0 0)
(0 0 0)
(0 0 0)
(0 0 0)
(0 0 0)
(0 0 0)
(0 0 0)
(0 0 0)
(0 0 0)
(0 0 0)
(0 0 0)
(0 0 0)
(0 0 0)
(0 0 0)
(0 0 0)
(0 0 0)
(0 0 0)
(0 0 0)
(0 0 0)
(0 0 0)
(0 0 0)
(0 0 0)
(0 0 0)
(0 0 0)
(0 0 0)
(0 0 0)
(0 0 0)
(0 0 0)
(0 0 0)
(0 0 0)
(0 0 0)
(0 0 0)
(0 0 0)
(0 0 0)
(0 0 0)
(0 0 0)
(0 0 0)
(0 0 0)
(0 0 0)
(0 0 0)
(0 0 0)
(0 0 0)
(0 0 0)
(0 0 0)
(0 0 0)
(0 0 0)
(0 0 0)
(0 0 0)
(0 0 0)
(0 0 0)
(0 0 0)
(0 0 0)
(0 0 0)
(0 0 0)
(0 0 0)
(0 0 0)
(0 0 0)
(0 0 0)
(0 0 0)
(0 0 0)
(0 0 0)
(0 0 0)
(0 0 0)
(0 0 0)
(0 0 0)
(0 0 0)
(0 0 0)
(0 0 0)
(0 0 0)
(0 0 0)
(0 0 0)
(0 0 0)
(0 0 0)
(0 0 0)
(0 0 0)
(0 0 0)
(0 0 0)
(0 0 0)
(0 0 0)
(0 0 0)
(0 0 0)
(0 0 0)
(0 0 0)
(0 0 0)
(0 0 0)
(0 0 0)
(0 0 0)
(0 0 0)
(0 0 0)
(0 0 0)
(0 0 0)
(0 0 0)
(0 0 0)
(0 0 0)
(0 0 0)
(0 0 0)
(0 0 0)
(0 0 0)
(0 0 0)
(0 0 0)
(0 0 0)
(0 0 0)
(0 0 0)
(0 0 0)
(0 0 0)
(0 0 0)
(0 0 0)
(0 0 0)
(0 0 0)
(0 0 0)
(0 0 0)
(0 0 0)
(0 0 0)
(0 0 0)
(0 0 0)
(0 0 0)
(0 0 0)
(0 0 0)
(0 0 0)
(0 0 0)
(0 0 0)
(0 0 0)
(0 0 0)
(0 0 0)
(0 0 0)
(0 0 0)
(0 0 0)
(0 0 0)
(0 0 0)
(0 0 0)
(0 0 0)
(0 0 0)
(0 0 0)
(0 0 0)
(0 0 0)
(0 0 0)
(0 0 0)
(0 0 0)
(0 0 0)
(0 0 0)
(0 0 0)
(0 0 0)
(0 0 0)
(0 0 0)
(0 0 0)
(0 0 0)
(0 0 0)
(0 0 0)
(0 0 0)
(0 0 0)
(0 0 0)
(0 0 0)
(0 0 0)
(0 0 0)
(0 0 0)
(0 0 0)
(0 0 0)
(0 0 0)
(0 0 0)
(0 0 0)
(0 0 0)
(0 0 0)
(0 0 0)
(0 0 0)
(0 0 0)
(0 0 0)
(0 0 0)
(0 0 0)
(0 0 0)
(0 0 0)
(0 0 0)
(0 0 0)
(0 0 0)
(0 0 0)
(0 0 0)
(0 0 0)
(0 0 0)
(0 0 0)
(0 0 0)
(0 0 0)
(0 0 0)
(0 0 0)
(0 0 0)
(0 0 0)
(0 0 0)
(0 0 0)
(0 0 0)
(0 0 0)
(0 0 0)
(0 0 0)
(0 0 0)
(-0.00216728488837 3.79566423005e-05 0)
(0 0 0)
(0 0 0)
(0 0 0)
(0 0 0)
(-2.2122423216e-05 1.55464454909e-07 0)
(0 0 0)
(-2.09749403278e-06 8.66065793336e-09 0)
(0 0 0)
(0 0 0)
(0 0 0)
(0 0 0)
(0 0 0)
(0 0 0)
(0 0 0)
(0 0 0)
(0 0 0)
(0 0 0)
(0 0 0)
(0 0 0)
(-0.0159801612004 0.000480543638753 0)
(0 0 0)
(0 0 0)
(0 0 0)
(-0.0288771190236 0.000624551492981 0)
(0 0 0)
(0 0 0)
(-0.0284114466479 0.000833592235228 0)
(-0.127331178557 0.0037358985293 0)
(-0.0784770909171 0.00169729481175 0)
(-0.7455218436 0.0161041386012 0)
(-0.0056539950279 5.40581946902e-05 0)
(-0.076236643139 0.00164883862734 0)
(0 0 0)
(0 0 0)
(0 0 0)
(0 0 0)
(0 0 0)
(-0.0159800032301 0.000480538888386 0)
(0 0 0)
(0 0 0)
(0 0 0)
(-0.0279156186826 0.000603756258076 0)
(0 0 0)
(0 0 0)
(0 0 0)
(0 0 0)
(0 0 0)
(0 0 0)
(0 0 0)
(0 0 0)
(-1.31630473413e-05 1.07150364954e-07 0)
(0 0 0)
(-7.99032254392e-06 6.50431434666e-08 0)
(-0.000113726259557 1.51189380069e-06 0)
(-0.000699384174338 9.29771718161e-06 0)
(-6.9151554922e-05 9.19311050956e-07 0)
(-0.000383123627791 5.09330246164e-06 0)
(0 0 0)
(0 0 0)
(-0.000205734508266 1.84108087382e-06 0)
(0 0 0)
(0 0 0)
(0 0 0)
(0 0 0)
(0 0 0)
(0 0 0)
(-0.0111393103664 0.000195087789945 0)
(-0.00046388221002 6.68258314034e-06 0)
(-0.00252500093955 4.42214855949e-05 0)
(-2.55861108719e-05 3.00400397863e-07 0)
(-0.000139447598745 1.8538371075e-06 0)
(-3.19165771599e-06 1.31785145924e-08 0)
(-3.18957336982e-05 3.74480167816e-07 0)
(0 0 0)
(0 0 0)
(0 0 0)
(0 0 0)
(0 0 0)
(-0.000266323653424 2.3832821664e-06 0)
(0 0 0)
(0 0 0)
(0 0 0)
(0 0 0)
(0 0 0)
(0 0 0)
(0 0 0)
(0 0 0)
(0 0 0)
(0 0 0)
(0 0 0)
(0 0 0)
(0 0 0)
(0 0 0)
(0 0 0)
(0 0 0)
(0 0 0)
(0 0 0)
(0 0 0)
(0 0 0)
(-0.00489411974787 4.87528489604e-05 0)
(0 0 0)
(0 0 0)
(0 0 0)
(0 0 0)
(0 0 0)
(-0.00442419847747 4.23000341286e-05 0)
(0 0 0)
(0 0 0)
(0 0 0)
(0 0 0)
(0 0 0)
(0 0 0)
(0 0 0)
(0 0 0)
(0 0 0)
(0 0 0)
(0 0 0)
(0 0 0)
(0 0 0)
(0 0 0)
(0 0 0)
(0 0 0)
(0 0 0)
(0 0 0)
(0 0 0)
(0 0 0)
(0 0 0)
(0 0 0)
(-0.0353850265796 0.000877675157048 0)
(-0.00846086320169 0.000141517124212 0)
(-0.0139377592185 0.000233124157139 0)
(-0.00997009325359 0.000183309013626 0)
(-0.0189404300836 0.000469790376186 0)
(0 0 0)
(0 0 0)
(0 0 0)
(0 0 0)
(0 0 0)
(0 0 0)
(0 0 0)
(0 0 0)
(0 0 0)
(0 0 0)
(-0.00500120008603 4.78167820455e-05 0)
(0 0 0)
(-0.00776479970377 0.000142762734359 0)
(0 0 0)
(0 0 0)
(-0.127422187429 0.00314173874589 0)
(-0.0992386362865 0.00244684128409 0)
(-0.191362101664 0.0041336438827 0)
(-0.0419744091062 0.000907818396041 0)
(-0.238061607314 0.0058696792976 0)
(-0.0514866992083 0.00127705420008 0)
(-0.100622072745 0.00217624430291 0)
(-0.269752524715 0.00665105485787 0)
(-0.941477050233 0.0232131859197 0)
(-0.40290139069 0.00870313847139 0)
(-0.397383993611 0.0085839562797 0)
(-0.503964527485 0.0124258177834 0)
(-0.215160681556 0.00464772087773 0)
(-0.503923440015 0.0124248047251 0)
(-0.0601899794186 0.00148405230101 0)
(-0.00879847622063 0.000161767794582 0)
(-0.019802882423 0.000428294795354 0)
(-0.0196948010383 0.000425957221785 0)
(-0.0243201967363 0.000603227821292 0)
(-0.0243194178453 0.000603208502011 0)
(-0.047387802458 0.00102489873557 0)
(-0.127418170378 0.00314163970094 0)
(-0.0992178301065 0.00244632828409 0)
(-0.18683969829 0.00403595471186 0)
(-0.0413098077486 0.000893444463177 0)
(-0.0514814456402 0.00127692389281 0)
(-0.0995211443989 0.00215243353282 0)
(-0.238022768683 0.00586872168705 0)
(0 0 0)
(0 0 0)
(0 0 0)
(0 0 0)
(0 0 0)
(0 0 0)
(0 0 0)
(0 0 0)
(0 0 0)
(0 0 0)
(0 0 0)
(0 0 0)
(0 0 0)
(0 0 0)
(0 0 0)
(0 0 0)
(0 0 0)
(0 0 0)
(0 0 0)
(0 0 0)
(0 0 0)
(0 0 0)
(0 0 0)
(-0.0049494802107 4.7322285132e-05 0)
(0 0 0)
(-0.00776423129373 0.000142752283636 0)
(0 0 0)
(0 0 0)
(0 0 0)
(-0.0353745849609 0.000877416167577 0)
(-0.0136533671801 0.000228367391493 0)
(-0.00814164476179 0.000136177849184 0)
(-0.0189373139006 0.000469713083708 0)
(0 0 0)
(-0.00996662047744 0.000183245163554 0)
(0 0 0)
(0 0 0)
(0 0 0)
(0 0 0)
(0 0 0)
(0 0 0)
(0 0 0)
(0 0 0)
(0 0 0)
(0 0 0)
(0 0 0)
(0 0 0)
(0 0 0)
(0 0 0)
(0 0 0)
(0 0 0)
(0 0 0)
(0 0 0)
(0 0 0)
(0 0 0)
(0 0 0)
(0 0 0)
(0 0 0)
(0 0 0)
(0 0 0)
(0 0 0)
(0 0 0)
(0 0 0)
(0 0 0)
(0 0 0)
(0 0 0)
(0 0 0)
(0 0 0)
(0 0 0)
(0 0 0)
(0 0 0)
(-0.015255317581 0.000305234313403 0)
(0 0 0)
(0 0 0)
(0 0 0)
(0 0 0)
(0 0 0)
(0 0 0)
(0 0 0)
(-0.00340391797143 6.81069115326e-05 0)
(0 0 0)
(0 0 0)
(0 0 0)
(0 0 0)
(0 0 0)
(0 0 0)
(0 0 0)
(0 0 0)
(0 0 0)
(0 0 0)
(0 0 0)
(0 0 0)
(0 0 0)
(0 0 0)
(0 0 0)
(0 0 0)
(0 0 0)
(0 0 0)
(0 0 0)
(0 0 0)
(0 0 0)
(0 0 0)
(0 0 0)
(0 0 0)
(0 0 0)
(0 0 0)
(0 0 0)
(-0.327769873137 0.00900416792316 0)
(-0.00783106271405 0.000156686941327 0)
(0 0 0)
(0 0 0)
(0 0 0)
(0 0 0)
(0 0 0)
(0 0 0)
(-0.0719454267312 0.00199252384736 0)
(0 0 0)
(0 0 0)
(0 0 0)
(0 0 0)
(0 0 0)
(0 0 0)
(0 0 0)
(0 0 0)
(0 0 0)
(0 0 0)
(0 0 0)
(0 0 0)
(0 0 0)
(0 0 0)
(0 0 0)
(0 0 0)
(0 0 0)
(0 0 0)
(0 0 0)
(0 0 0)
(0 0 0)
(0 0 0)
(0 0 0)
(0 0 0)
(0 0 0)
(0 0 0)
(0 0 0)
(-1.54393047182 0.054474181991 0)
(-0.0443648402657 0.00159370086279 0)
(0 0 0)
(0 0 0)
(0 0 0)
(0 0 0)
(0 0 0)
(0 0 0)
(-0.338669251165 0.0118221837706 0)
(-0.00669779919199 0.00025971442028 0)
(0 0 0)
(0 0 0)
(0 0 0)
(0 0 0)
(0 0 0)
(0 0 0)
(0 0 0)
(0 0 0)
(0 0 0)
(0 0 0)
(0 0 0)
(0 0 0)
(0 0 0)
(0 0 0)
(0 0 0)
(0 0 0)
(0 0 0)
(0 0 0)
(0 0 0)
(0 0 0)
(0 0 0)
(0 0 0)
(0 0 0)
(0 0 0)
(0 0 0)
(0 0 0)
(0 0 0)
(0 0 0)
(0 0 0)
(0 0 0)
(0 0 0)
(0 0 0)
(0 0 0)
(-2.55753299923 0.0750380533565 0)
(-0.0772280262067 0.00226587135057 0)
(0 0 0)
(0 0 0)
(0 0 0)
(0 0 0)
(0 0 0)
(0 0 0)
(-2.55747214447 0.0750362678767 0)
(-0.570653280378 0.0167429750912 0)
(-0.0159800022096 0.000480538857699 0)
(0 0 0)
(0 0 0)
(0 0 0)
(0 0 0)
(0 0 0)
(0 0 0)
(-0.0468419350893 0.00137434301947 0)
(-0.0772286249161 0.00226588891672 0)
(-0.0159798445784 0.00048053411753 0)
(0 0 0)
(0 0 0)
(0 0 0)
(0 0 0)
(0 0 0)
(0 0 0)
(0 0 0)
(0 0 0)
(0 0 0)
(0 0 0)
(0 0 0)
(0 0 0)
(0 0 0)
(0 0 0)
(0 0 0)
(0 0 0)
(0 0 0)
(0 0 0)
(0 0 0)
(0 0 0)
(0 0 0)
(0 0 0)
(0 0 0)
(0 0 0)
(0 0 0)
(0 0 0)
(-0.0666586189485 0.00116844249986 0)
(-0.00219683106972 3.84740979626e-05 0)
(0 0 0)
(0 0 0)
(0 0 0)
(0 0 0)
(0 0 0)
(0 0 0)
(-0.0336993047048 0.000590706805119 0)
(-0.0623240999065 0.00109246378405 0)
(-0.0146718912903 0.000256955480364 0)
(-0.00037400425035 3.34689633668e-06 0)
(0 0 0)
(0 0 0)
(0 0 0)
(0 0 0)
(0 0 0)
(0 0 0)
(-0.000940534800385 1.35491335175e-05 0)
(-0.00186119107506 3.25958826494e-05 0)
(-0.000353783272852 3.16594246932e-06 0)
(0 0 0)
(0 0 0)
(0 0 0)
(0 0 0)
(0 0 0)
(0 0 0)
(0 0 0)
(0 0 0)
(0 0 0)
(0 0 0)
(0 0 0)
(0 0 0)
(0 0 0)
(0 0 0)
(0 0 0)
(0 0 0)
(0 0 0)
(0 0 0)
(0 0 0)
(0 0 0)
(0 0 0)
(0 0 0)
(0 0 0)
(0 0 0)
(0 0 0)
(0 0 0)
(-0.000182764435064 1.60365479387e-06 0)
(-0.000172965554782 1.51767514836e-06 0)
(-2.18807320022e-05 1.53765979455e-07 0)
(0 0 0)
(0 0 0)
(0 0 0)
(0 0 0)
(0 0 0)
(0 0 0)
(0 0 0)
(-2.36675464496e-05 1.66322747372e-07 0)
(-2.40551186427e-05 1.69046395643e-07 0)
(-2.21449026243e-06 9.14374122639e-09 0)
(0 0 0)
(0 0 0)
(0 0 0)
(0 0 0)
(0 0 0)
(0 0 0)
(0 0 0)
(0 0 0)
(0 0 0)
(0 0 0)
(0 0 0)
(0 0 0)
(0 0 0)
(0 0 0)
(0 0 0)
(0 0 0)
(0 0 0)
(0 0 0)
(0 0 0)
(0 0 0)
(0 0 0)
(0 0 0)
(0 0 0)
(0 0 0)
(0 0 0)
(0 0 0)
(0 0 0)
(0 0 0)
(0 0 0)
(0 0 0)
(0 0 0)
(0 0 0)
(0 0 0)
(0 0 0)
(0 0 0)
(0 0 0)
(-0.00340389940909 6.81065401301e-05 0)
(-0.00925280555787 0.000185133723799 0)
(-0.0020645762113 4.13088419155e-05 0)
(-0.0880466313105 0.00210341439146 0)
(-0.0180197604308 0.000360546358579 0)
(-0.0534032695006 0.00127579220178 0)
(-0.0109304790253 0.000218701265493 0)
(0 0 0)
(0 0 0)
(0 0 0)
(-0.00243862376498 4.87929305045e-05 0)
(0 0 0)
(0 0 0)
(0 0 0)
(0 0 0)
(0 0 0)
(0 0 0)
(-0.018021956575 0.000360590299883 0)
(-0.00402122013236 8.04581326889e-05 0)
(-0.00402124412141 8.04586126713e-05 0)
(0 0 0)
(0 0 0)
(0 0 0)
(0 0 0)
(0 0 0)
(0 0 0)
(0 0 0)
(0 0 0)
(-0.0719307416556 0.00199211714516 0)
(-0.198807531263 0.00546144274563 0)
(-0.0436317814763 0.00120837930977 0)
(-0.81796569984 0.0259179251107 0)
(-0.180753743719 0.00577495223477 0)
(-0.496114761137 0.0157198098013 0)
(-0.109633124878 0.00350269956513 0)
(0 0 0)
(-0.00474953813328 9.50306018473e-05 0)
(0 0 0)
(-0.0232712535433 0.000764945167042 0)
(0 0 0)
(-0.0124133334106 0.000396861460355 0)
(0 0 0)
(-0.0151795884923 0.000410138194027 0)
(-0.0151797494007 0.00041014254162 0)
(-0.00288133872741 5.76509432514e-05 0)
(-0.180787704053 0.00577603724304 0)
(-0.0383722089571 0.00126132594171 0)
(-0.0383743571871 0.0012613965558 0)
(-0.00753057237784 0.000240756761486 0)
(0 0 0)
(0 0 0)
(0 0 0)
(-0.00340322383348 6.80930229511e-05 0)
(0 0 0)
(0 0 0)
(0 0 0)
(-0.338608560735 0.0118200652038 0)
(-0.920593736968 0.0321358620513 0)
(-0.205381035084 0.00716939117264 0)
(-2.25402220545 0.0775680283685 0)
(-0.497064023648 0.0169734704936 0)
(-1.35129364723 0.0461432366018 0)
(-0.301492717316 0.0102952084599 0)
(0 0 0)
(-0.026908301729 0.000966616433751 0)
(0 0 0)
(-0.0672718247445 0.00229716148831 0)
(0 0 0)
(-0.0408026666868 0.00139330715183 0)
(0 0 0)
(-0.0755652610466 0.00263781373623 0)
(-0.0755689978778 0.00263794418063 0)
(-0.0143580456865 0.000558951041894 0)
(-0.497116974738 0.0169752786385 0)
(-0.110919984408 0.00378763497845 0)
(-0.110922569107 0.00378772323932 0)
(-0.0247501775693 0.000845155530671 0)
(0 0 0)
(0 0 0)
(0 0 0)
(-0.0137727124067 0.000507478034364 0)
(0 0 0)
(0 0 0)
(0 0 0)
(-7.14529768118 0.214997120247 0)
(-4.24278765109 0.12520802101 0)
(-3.84834559886 0.0831287392066 0)
(-1.82372249784 0.0393945263007 0)
(-0.570652790719 0.0167429607246 0)
(-1.55121295938 0.0455126095529 0)
(-0.346119488202 0.010155150542 0)
(-2.339264343 0.0505308295497 0)
(-0.249476838593 0.00538898976735 0)
(-1.10968702237 0.0239705298586 0)
(-0.118421992432 0.00255805271963 0)
(0 0 0)
(-0.0468419814318 0.00137434437915 0)
(0 0 0)
(-0.090598336583 0.00195945192207 0)
(0 0 0)
(-0.0430101117399 0.000930218470842 0)
(0 0 0)
(0 0 0)
(0 0 0)
(0 0 0)
(0 0 0)
(0 0 0)
(0 0 0)
(0 0 0)
(0 0 0)
(0 0 0)
(0 0 0)
(0 0 0)
(0 0 0)
(0 0 0)
(0 0 0)
(0 0 0)
(0 0 0)
(0 0 0)
(0 0 0)
(0 0 0)
(0 0 0)
(0 0 0)
(0 0 0)
(0 0 0)
(0 0 0)
(0 0 0)
(0 0 0)
(0 0 0)
(0 0 0)
(0 0 0)
(0 0 0)
(0 0 0)
(0 0 0)
(0 0 0)
(0 0 0)
(0 0 0)
(0 0 0)
(0 0 0)
(0 0 0)
(0 0 0)
(0 0 0)
(0 0 0)
(0 0 0)
(-0.346119279506 0.0101551444189 0)
(-0.570649748783 0.0167428714742 0)
(-1.20856417589 0.0261063913339 0)
(-2.41586973665 0.0521855951177 0)
(-0.125971521048 0.00272113131516 0)
(-0.255077859155 0.0055099783235 0)
(-1.55119651227 0.0455121269947 0)
(-0.570647441797 0.0167428037871 0)
(-0.34611358237 0.0101549772648 0)
(-2.38786281817 0.0515806131164 0)
(-1.11029768378 0.0239837208551 0)
(-0.252444488748 0.00545309446104 0)
(-0.117999448106 0.00254892527091 0)
(-0.127330097819 0.00373586682044 0)
(-0.127328568793 0.00373582195881 0)
(-0.0284109383713 0.000833577322384 0)
(-0.675663564952 0.0145951185618 0)
(-0.0707150371336 0.00152941787517 0)
(-0.0704406376746 0.00152348319063 0)
(-0.00512923171991 4.90409003825e-05 0)
(0 0 0)
(0 0 0)
(0 0 0)
(-0.0260961110169 0.000564404125054 0)
(0 0 0)
(0 0 0)
(0 0 0)
(0 0 0)
(0 0 0)
(0 0 0)
(0 0 0)
(0 0 0)
(0 0 0)
(0 0 0)
(0 0 0)
(0 0 0)
(0 0 0)
(0 0 0)
(0 0 0)
(0 0 0)
(0 0 0)
(0 0 0)
(0 0 0)
(0 0 0)
(0 0 0)
(0 0 0)
(0 0 0)
(0 0 0)
(0 0 0)
(0 0 0)
(0 0 0)
(0 0 0)
(0 0 0)
(0 0 0)
(0 0 0)
(0 0 0)
(0 0 0)
(0 0 0)
(0 0 0)
(0 0 0)
(0 0 0)
(0 0 0)
(0 0 0)
(0 0 0)
(0 0 0)
(0 0 0)
(0 0 0)
(0 0 0)
(0 0 0)
(-0.0772289298097 0.0022658978623 0)
(0 0 0)
(0 0 0)
(-0.0453944504189 0.000981786713522 0)
(-0.0921388274887 0.00199276950802 0)
(0 0 0)
(0 0 0)
(-0.0468415942022 0.00137433301783 0)
(0 0 0)
(0 0 0)
(-0.0912995307712 0.00197461728107 0)
(-0.0428008339864 0.000925692232151 0)
(0 0 0)
(0 0 0)
(0 0 0)
(0 0 0)
(0 0 0)
(-0.0259737676863 0.00056175809552 0)
(0 0 0)
(0 0 0)
(0 0 0)
(0 0 0)
(0 0 0)
(0 0 0)
(0 0 0)
(0 0 0)
(0 0 0)
(0 0 0)
(0 0 0)
(0 0 0)
(0 0 0)
(0 0 0)
(0 0 0)
(0 0 0)
(0 0 0)
(0 0 0)
(0 0 0)
(0 0 0)
(0 0 0)
(0 0 0)
(0 0 0)
(0 0 0)
(0 0 0)
(0 0 0)
(0 0 0)
(0 0 0)
(0 0 0)
(0 0 0)
(0 0 0)
(0 0 0)
(0 0 0)
(0 0 0)
(0 0 0)
(0 0 0)
(0 0 0)
(0 0 0)
(0 0 0)
(0 0 0)
(0 0 0)
(0 0 0)
(0 0 0)
(0 0 0)
(0 0 0)
(0 0 0)
(0 0 0)
(0 0 0)
(0 0 0)
(0 0 0)
(0 0 0)
(0 0 0)
(0 0 0)
(0 0 0)
(0 0 0)
(0 0 0)
(0 0 0)
(0 0 0)
(0 0 0)
(0 0 0)
(0 0 0)
(0 0 0)
(0 0 0)
(0 0 0)
(0 0 0)
(0 0 0)
(0 0 0)
(0 0 0)
(0 0 0)
(0 0 0)
(0 0 0)
(0 0 0)
(0 0 0)
(0 0 0)
(0 0 0)
(0 0 0)
(0 0 0)
(0 0 0)
(0 0 0)
(0 0 0)
(0 0 0)
(0 0 0)
(0 0 0)
(0 0 0)
(0 0 0)
(0 0 0)
(0 0 0)
(0 0 0)
(0 0 0)
(0 0 0)
(0 0 0)
(0 0 0)
(0 0 0)
(0 0 0)
(0 0 0)
(0 0 0)
(0 0 0)
(0 0 0)
(0 0 0)
(0 0 0)
(0 0 0)
(0 0 0)
(0 0 0)
(0 0 0)
(0 0 0)
(0 0 0)
(0 0 0)
(0 0 0)
(0 0 0)
(0 0 0)
(0 0 0)
(0 0 0)
(0 0 0)
(0 0 0)
(0 0 0)
(0 0 0)
(0 0 0)
(0 0 0)
(0 0 0)
(0 0 0)
(0 0 0)
(0 0 0)
(0 0 0)
(0 0 0)
(0 0 0)
(0 0 0)
(0 0 0)
(0 0 0)
(0 0 0)
(0 0 0)
(0 0 0)
(0 0 0)
(0 0 0)
(0 0 0)
(0 0 0)
(0 0 0)
(0 0 0)
(0 0 0)
(0 0 0)
(0 0 0)
(0 0 0)
(0 0 0)
(0 0 0)
(0 0 0)
(0 0 0)
(0 0 0)
(0 0 0)
(0 0 0)
(0 0 0)
(0 0 0)
(0 0 0)
(0 0 0)
(0 0 0)
(0 0 0)
(0 0 0)
(0 0 0)
(0 0 0)
(0 0 0)
(0 0 0)
(0 0 0)
(0 0 0)
(0 0 0)
(0 0 0)
(0 0 0)
(0 0 0)
(0 0 0)
(0 0 0)
(0 0 0)
(0 0 0)
(0 0 0)
(0 0 0)
(0 0 0)
(0 0 0)
(-0.00269555950532 3.58624044677e-05 0)
(-0.00472180635896 6.28201043714e-05 0)
(-0.00157932252514 2.09957484256e-05 0)
(-0.00295161403659 3.92690186226e-05 0)
(-0.174369376078 0.00305647781033 0)
(-0.10679208637 0.00187193215718 0)
(-0.00393395273922 5.23383008286e-05 0)
(-0.00224559350552 2.98759431599e-05 0)
(-0.00243020845932 3.23321071329e-05 0)
(-0.00140917658969 1.87338030665e-05 0)
(-0.0155710019838 0.000272702013349 0)
(-0.0405359964865 0.00071054549008 0)
(-0.00938075861134 0.000164289476215 0)
(-0.000750622272681 9.97888407785e-06 0)
(-0.000150105157378 1.99552027628e-06 0)
(-0.000484051634339 6.43505438429e-06 0)
(-9.33420231664e-05 1.24090273187e-06 0)
(0 0 0)
(-0.00123359631236 1.77709119706e-05 0)
(0 0 0)
(-1.52524295475e-05 1.24158437637e-07 0)
(0 0 0)
(-9.14720205821e-06 7.44604204048e-08 0)
(0 0 0)
(0 0 0)
(0 0 0)
(0 0 0)
(0 0 0)
(0 0 0)
(0 0 0)
(0 0 0)
(0 0 0)
(0 0 0)
(0 0 0)
(0 0 0)
(0 0 0)
(0 0 0)
(0 0 0)
(0 0 0)
(0 0 0)
(0 0 0)
(0 0 0)
(0 0 0)
(0 0 0)
(0 0 0)
(0 0 0)
(0 0 0)
(0 0 0)
(0 0 0)
(0 0 0)
(0 0 0)
(0 0 0)
(0 0 0)
(0 0 0)
(0 0 0)
(0 0 0)
(0 0 0)
(0 0 0)
(0 0 0)
(0 0 0)
(0 0 0)
(0 0 0)
(0 0 0)
(0 0 0)
(0 0 0)
(0 0 0)
(-0.0586399299414 0.0010278848769 0)
(-0.00741465765945 0.000129856259355 0)
(-0.0128678974938 0.000225361319573 0)
(-0.00056531520658 7.51538439401e-06 0)
(-0.0011995724552 1.59472945436e-05 0)
(-0.000123300328958 1.63917290256e-06 0)
(-0.000261749296569 3.4797340593e-06 0)
(-0.038798207822 0.000680084220954 0)
(-0.013732674184 0.0002405065456 0)
(-0.00864736279168 0.000151445182905 0)
(-0.00114412430908 1.52101586464e-05 0)
(-0.000732238583358 9.73448857913e-06 0)
(-0.000241331138978 3.20829203699e-06 0)
(-0.000141806736832 1.88519983992e-06 0)
(-0.003437972988 6.02107787696e-05 0)
(-0.00333609153313 5.84264826856e-05 0)
(-0.000733710538109 1.05696695539e-05 0)
(-0.000269499579988 3.5827674792e-06 0)
(-4.04206120691e-05 4.74568722391e-07 0)
(-4.44962649546e-05 5.2241998648e-07 0)
(-4.03013222767e-06 1.66406178538e-08 0)
(0 0 0)
(0 0 0)
(0 0 0)
(0 0 0)
(0 0 0)
(0 0 0)
(0 0 0)
(0 0 0)
(0 0 0)
(0 0 0)
(0 0 0)
(0 0 0)
(0 0 0)
(0 0 0)
(0 0 0)
(0 0 0)
(0 0 0)
(0 0 0)
(0 0 0)
(0 0 0)
(0 0 0)
(0 0 0)
(0 0 0)
(0 0 0)
(0 0 0)
(0 0 0)
(0 0 0)
(0 0 0)
(0 0 0)
(0 0 0)
(0 0 0)
(0 0 0)
(0 0 0)
(0 0 0)
(0 0 0)
(0 0 0)
(0 0 0)
(0 0 0)
(0 0 0)
(0 0 0)
(0 0 0)
(0 0 0)
(0 0 0)
(0 0 0)
(0 0 0)
(0 0 0)
(0 0 0)
(0 0 0)
(0 0 0)
(-0.00174597121884 3.05779850985e-05 0)
(0 0 0)
(0 0 0)
(-1.37229503492e-05 1.11708109834e-07 0)
(-2.70756017015e-05 2.20401896949e-07 0)
(0 0 0)
(0 0 0)
(-0.00111168858703 1.60147366045e-05 0)
(0 0 0)
(0 0 0)
(-2.11121738188e-05 1.71858162551e-07 0)
(-1.17834977399e-05 9.59205000575e-08 0)
(0 0 0)
(0 0 0)
(0 0 0)
(0 0 0)
(0 0 0)
(0 0 0)
(0 0 0)
(0 0 0)
(0 0 0)
(0 0 0)
(0 0 0)
(0 0 0)
(0 0 0)
(0 0 0)
(0 0 0)
(0 0 0)
(0 0 0)
(0 0 0)
(0 0 0)
(0 0 0)
(0 0 0)
(0 0 0)
(0 0 0)
(0 0 0)
(0 0 0)
(0 0 0)
(0 0 0)
(0 0 0)
(0 0 0)
(0 0 0)
(0 0 0)
(0 0 0)
(0 0 0)
(0 0 0)
(0 0 0)
(0 0 0)
(0 0 0)
(0 0 0)
(0 0 0)
(0 0 0)
(0 0 0)
(0 0 0)
(0 0 0)
(0 0 0)
(0 0 0)
(0 0 0)
(0 0 0)
(0 0 0)
(0 0 0)
(0 0 0)
(0 0 0)
(0 0 0)
(0 0 0)
(0 0 0)
(0 0 0)
(0 0 0)
(0 0 0)
(0 0 0)
(0 0 0)
(0 0 0)
(0 0 0)
(0 0 0)
(0 0 0)
(0 0 0)
(0 0 0)
(0 0 0)
(0 0 0)
(0 0 0)
(0 0 0)
(0 0 0)
(0 0 0)
(0 0 0)
(0 0 0)
(0 0 0)
(0 0 0)
(0 0 0)
(0 0 0)
(0 0 0)
(0 0 0)
(0 0 0)
(0 0 0)
(0 0 0)
(0 0 0)
(0 0 0)
(0 0 0)
(0 0 0)
(0 0 0)
(0 0 0)
(0 0 0)
(0 0 0)
(0 0 0)
(0 0 0)
(0 0 0)
(0 0 0)
(0 0 0)
(0 0 0)
(0 0 0)
(0 0 0)
(0 0 0)
(0 0 0)
(0 0 0)
(0 0 0)
(0 0 0)
(0 0 0)
(0 0 0)
(0 0 0)
(0 0 0)
(0 0 0)
(0 0 0)
(0 0 0)
(0 0 0)
(0 0 0)
(0 0 0)
(0 0 0)
(0 0 0)
(0 0 0)
(0 0 0)
(0 0 0)
(0 0 0)
(0 0 0)
(0 0 0)
(0 0 0)
(0 0 0)
(0 0 0)
(0 0 0)
(0 0 0)
(0 0 0)
(0 0 0)
(0 0 0)
(0 0 0)
(0 0 0)
(0 0 0)
(0 0 0)
(0 0 0)
(0 0 0)
(0 0 0)
(0 0 0)
(0 0 0)
(0 0 0)
(0 0 0)
(0 0 0)
(0 0 0)
(0 0 0)
(0 0 0)
(0 0 0)
(0 0 0)
(0 0 0)
(0 0 0)
(0 0 0)
(0 0 0)
(0 0 0)
(0 0 0)
(0 0 0)
(0 0 0)
(0 0 0)
(0 0 0)
(0 0 0)
(0 0 0)
(0 0 0)
(0 0 0)
(0 0 0)
(0 0 0)
(0 0 0)
(0 0 0)
(0 0 0)
(0 0 0)
(0 0 0)
(0 0 0)
(0 0 0)
(0 0 0)
(0 0 0)
(0 0 0)
(0 0 0)
(0 0 0)
(0 0 0)
(0 0 0)
(0 0 0)
(0 0 0)
(0 0 0)
(0 0 0)
(0 0 0)
(0 0 0)
(0 0 0)
(0 0 0)
(-6.96215141197 0.172205674806 0)
(-5.40870380825 0.133357735119 0)
(-5.61142051824 0.121213207301 0)
(-3.39696495802 0.0733783925676 0)
(-4.77330762532 0.117691320602 0)
(-4.94336903413 0.106782518535 0)
(-7.89774764665 0.195628005478 0)
(-5.40867016295 0.133356905556 0)
(-2.55476407414 0.0629906097225 0)
(-2.64675369708 0.0571729570997 0)
(-2.65282304568 0.0573040620861 0)
(-3.71705554565 0.0916482259803 0)
(-3.71703740541 0.091647778712 0)
(-3.85371716522 0.0832447712852 0)
(-1.54976931888 0.0382113226476 0)
(-3.28054659824 0.0808856021337 0)
(-1.25813422604 0.0271771620498 0)
(-2.06672966964 0.0446437637434 0)
(-2.895233242 0.0713852637308 0)
(-1.11162031945 0.0240122913233 0)
(-1.75603325172 0.0432969941682 0)
(-0.732101587056 0.018050796085 0)
(-0.345831883671 0.0085268778571 0)
(-0.596520355604 0.0128855332242 0)
(-0.220349179362 0.00475979846274 0)
(-0.305209999293 0.00752529916303 0)
(-0.526867492195 0.0113809503928 0)
(-0.829559235656 0.020453725095 0)
(-1.2068664548 0.0297566630949 0)
(-1.54955036053 0.0382059239808 0)
(-1.6112794356 0.0348055091598 0)
(-0.596555264512 0.0128862872972 0)
(-2.25457633818 0.0555891401658 0)
(-0.829447794659 0.0204509773906 0)
(-0.867168202144 0.0187318413777 0)
(-0.570135313111 0.0140573336539 0)
(-0.163355655791 0.00402771921839 0)
(-0.171872290492 0.0037126413016 0)
(-0.282867907369 0.00611027567498 0)
(-0.237691637651 0.00586055727538 0)
(-0.391829682883 0.00966100583692 0)
(-0.411158545422 0.00888150261376 0)
(-0.0353370982627 0.000876486363449 0)
(-0.127231955029 0.00313704835003 0)
(-0.0295666902418 0.000639465471536 0)
(-0.0800365492945 0.00173102262432 0)
(-0.112288338645 0.00276859651643 0)
(-0.0261159992366 0.000564834265515 0)
(-0.0400412172058 0.000993165329986 0)
(-0.00878778986115 0.000161571316378 0)
(0 0 0)
(-0.00766333976211 0.000128177678701 0)
(0 0 0)
(0 0 0)
(-0.00514499474042 4.91916115924e-05 0)
(-0.00995795748542 0.000183085886756 0)
(-0.0275218497806 0.000682640262375 0)
(-0.06010259217 0.00148189766915 0)
(-0.0624140476841 0.00134988489095 0)
(-0.0126480555436 0.000211552462762 0)
(-0.0874507250192 0.00215619694413 0)
(-0.0189155323939 0.000469172824474 0)
(-0.0203663673515 0.000440481792022 0)
(-0.00488844059351 4.86962759771e-05 0)
(0 0 0)
(0 0 0)
(0 0 0)
(0 0 0)
(0 0 0)
(-0.00401089944907 3.83484566631e-05 0)
(0 0 0)
(0 0 0)
(0 0 0)
(0 0 0)
(0 0 0)
(0 0 0)
(0 0 0)
(0 0 0)
(0 0 0)
(0 0 0)
(0 0 0)
(0 0 0)
(0 0 0)
(0 0 0)
(0 0 0)
(0 0 0)
(0 0 0)
(0 0 0)
(0 0 0)
(0 0 0)
(0 0 0)
(0 0 0)
(0 0 0)
(0 0 0)
(0 0 0)
(0 0 0)
(0 0 0)
(0 0 0)
(0 0 0)
(0 0 0)
(0 0 0)
(0 0 0)
(0 0 0)
(0 0 0)
(0 0 0)
(0 0 0)
(0 0 0)
(0 0 0)
(0 0 0)
(0 0 0)
(0 0 0)
(0 0 0)
(0 0 0)
(0 0 0)
(0 0 0)
(0 0 0)
(0 0 0)
(0 0 0)
(0 0 0)
(0 0 0)
(0 0 0)
(0 0 0)
(0 0 0)
(0 0 0)
(0 0 0)
(0 0 0)
(0 0 0)
(0 0 0)
(0 0 0)
(0 0 0)
(0 0 0)
(0 0 0)
(0 0 0)
(0 0 0)
(0 0 0)
(0 0 0)
(0 0 0)
(0 0 0)
(0 0 0)
(0 0 0)
(0 0 0)
(0 0 0)
(0 0 0)
(0 0 0)
(0 0 0)
(0 0 0)
(0 0 0)
(0 0 0)
(0 0 0)
(0 0 0)
(0 0 0)
(0 0 0)
(0 0 0)
(0 0 0)
(0 0 0)
(0 0 0)
(0 0 0)
(0 0 0)
(0 0 0)
(0 0 0)
(0 0 0)
(0 0 0)
(0 0 0)
(0 0 0)
(0 0 0)
(0 0 0)
(0 0 0)
(0 0 0)
(0 0 0)
(0 0 0)
(0 0 0)
(0 0 0)
(0 0 0)
(0 0 0)
(0 0 0)
(0 0 0)
(0 0 0)
(0 0 0)
(0 0 0)
(0 0 0)
(0 0 0)
(0 0 0)
(0 0 0)
(0 0 0)
(0 0 0)
(0 0 0)
(0 0 0)
(0 0 0)
(0 0 0)
(0 0 0)
(0 0 0)
(0 0 0)
(0 0 0)
(0 0 0)
(0 0 0)
(0 0 0)
(0 0 0)
(0 0 0)
(0 0 0)
(0 0 0)
(0 0 0)
(0 0 0)
(0 0 0)
(0 0 0)
(0 0 0)
(0 0 0)
(0 0 0)
(0 0 0)
(0 0 0)
(0 0 0)
(0 0 0)
(0 0 0)
(0 0 0)
(0 0 0)
(0 0 0)
(0 0 0)
(0 0 0)
(0 0 0)
(0 0 0)
(0 0 0)
(0 0 0)
(0 0 0)
(0 0 0)
(0 0 0)
(0 0 0)
(0 0 0)
(0 0 0)
(0 0 0)
(0 0 0)
(0 0 0)
(0 0 0)
(0 0 0)
(0 0 0)
(0 0 0)
(0 0 0)
(0 0 0)
(0 0 0)
(0 0 0)
(-1.20833948753 0.02979298239 0)
(-1.55203804082 0.0382672605636 0)
(-1.72218041743 0.0372010993061 0)
(-0.644219368338 0.0139158873564 0)
(-2.2575545036 0.0556625702167 0)
(-0.919672366519 0.019865992372 0)
(-0.8306881826 0.020481560564 0)
(-1.55107081909 0.0382434126135 0)
(-3.28240750829 0.0809314849845 0)
(-2.16941264727 0.0468618354443 0)
(-1.29583995664 0.0279916496691 0)
(-2.89776470796 0.071447679899 0)
(-1.75690094169 0.0433183880498 0)
(-1.16148692448 0.0250894679693 0)
(-0.570715221981 0.0140716319657 0)
(-0.163554920068 0.00403263230546 0)
(-0.303447818185 0.00655482567578 0)
(-0.180382288176 0.00389646714571 0)
(-0.237905470243 0.00586582956079 0)
(-0.433918645246 0.00937314723194 0)
(-0.392356067085 0.00967398443724 0)
(-0.732590235144 0.0180628442585 0)
(-0.345935982159 0.00852944452356 0)
(-0.612707727871 0.0132351992854 0)
(-0.22827525711 0.00493101095734 0)
(-0.829819897391 0.0204601520061 0)
(-0.305390540012 0.0075297505995 0)
(-0.548752311319 0.0118536879303 0)
(-1.54945406506 0.0382035497067 0)
(-3.28131811022 0.0809046246378 0)
(-2.08421130846 0.0450213874668 0)
(-1.28025002307 0.0276548889784 0)
(-2.89492910733 0.0713777649452 0)
(-1.75627311625 0.0433029083004 0)
(-1.11852312947 0.0241614000453 0)
(-1.20643452167 0.0297460132931 0)
(-1.54900057044 0.0381923682819 0)
(-1.61392393986 0.0348626335264 0)
(-0.595933206099 0.0128728501123 0)
(-2.25385245655 0.0555712920421 0)
(-0.829114168095 0.0204427514488 0)
(-0.867893969591 0.0187475187983 0)
(-0.731862302391 0.0180448962498 0)
(-0.345822157813 0.00852663805503 0)
(-0.605828307215 0.0130865958009 0)
(-0.221016669154 0.00477421701831 0)
(-0.829513541407 0.0204525984514 0)
(-0.305116277529 0.00752298834651 0)
(-0.529608244396 0.0114401538269 0)
(-0.569830654335 0.0140498219458 0)
(-0.163277723421 0.00402579770731 0)
(-0.282542603433 0.00610324873173 0)
(-0.171593732778 0.00370662413112 0)
(-0.391635343436 0.00965621417713 0)
(-0.237565953299 0.00585745838493 0)
(-0.410938099112 0.00887674071718 0)
(-0.269169700377 0.00663668466189 0)
(-0.939495728022 0.0231643341704 0)
(-0.362926221857 0.00783962834754 0)
(-0.362094291002 0.00782165767384 0)
(-0.50290293154 0.0123996429297 0)
(-0.502853050836 0.0123984130643 0)
(-0.194544412093 0.00420238548788 0)
(-0.127157539624 0.00313521355371 0)
(-0.099046820752 0.00244211185424 0)
(-0.171911178485 0.00371348132745 0)
(-0.037900714896 0.000819712937914 0)
(-0.237573320072 0.0058576400211 0)
(-0.051383347564 0.00127449070983 0)
(-0.0906628395557 0.00196084698602 0)
(-0.127146875767 0.00313495062418 0)
(-0.0990307053647 0.00244171451107 0)
(-0.171522264743 0.00370508033846 0)
(-0.0377702498129 0.000816891251915 0)
(-0.237531558851 0.00585661035078 0)
(-0.0513787422059 0.00127437648049 0)
(-0.0904981061259 0.00195728414759 0)
(-0.0600649624528 0.00148096986574 0)
(-0.00878189130846 0.000161462866252 0)
(-0.017912671942 0.000387413508789 0)
(-0.0178821638209 0.000386753682143 0)
(-0.024271629493 0.000602023180034 0)
(-0.0242710417432 0.000602008601738 0)
(-0.0428556587607 0.000926877976982 0)
(0 0 0)
(-0.0353217082625 0.000876104636428 0)
(-0.007668836961 0.000128269625321 0)
(-0.0126118508285 0.000210946899588 0)
(-0.00995378495211 0.000183009171028 0)
(-0.0189047947407 0.000468906492288 0)
(0 0 0)
(0 0 0)
(0 0 0)
(0 0 0)
(0 0 0)
(0 0 0)
(0 0 0)
(0 0 0)
(0 0 0)
(0 0 0)
(-0.00453005574776 4.33121420096e-05 0)
(0 0 0)
(-0.00775005014751 0.000142491550676 0)
(0 0 0)
(0 0 0)
(0 0 0)
(0 0 0)
(0 0 0)
(0 0 0)
(0 0 0)
(0 0 0)
(0 0 0)
(0 0 0)
(0 0 0)
(0 0 0)
(0 0 0)
(0 0 0)
(0 0 0)
(0 0 0)
(0 0 0)
(0 0 0)
(0 0 0)
(0 0 0)
(0 0 0)
(0 0 0)
(0 0 0)
(0 0 0)
(0 0 0)
(0 0 0)
(0 0 0)
(0 0 0)
(0 0 0)
(0 0 0)
(0 0 0)
(0 0 0)
(0 0 0)
(0 0 0)
(0 0 0)
(0 0 0)
(0 0 0)
(0 0 0)
(0 0 0)
(0 0 0)
(0 0 0)
(0 0 0)
(0 0 0)
(0 0 0)
(0 0 0)
(0 0 0)
(0 0 0)
(0 0 0)
(0 0 0)
(0 0 0)
(0 0 0)
(0 0 0)
(0 0 0)
(0 0 0)
(0 0 0)
(0 0 0)
(0 0 0)
(0 0 0)
(0 0 0)
(0 0 0)
(0 0 0)
(0 0 0)
(0 0 0)
(0 0 0)
(0 0 0)
(0 0 0)
(0 0 0)
(0 0 0)
(0 0 0)
(0 0 0)
(0 0 0)
(0 0 0)
(0 0 0)
(0 0 0)
(0 0 0)
(0 0 0)
(0 0 0)
(0 0 0)
(0 0 0)
(0 0 0)
(0 0 0)
(0 0 0)
(0 0 0)
(0 0 0)
(0 0 0)
(0 0 0)
(0 0 0)
(0 0 0)
(0 0 0)
(0 0 0)
(0 0 0)
(0 0 0)
(0 0 0)
(0 0 0)
(0 0 0)
(0 0 0)
(0 0 0)
(0 0 0)
(0 0 0)
(0 0 0)
(0 0 0)
(0 0 0)
(0 0 0)
(0 0 0)
(0 0 0)
(0 0 0)
(0 0 0)
(0 0 0)
(0 0 0)
(0 0 0)
(0 0 0)
(0 0 0)
(0 0 0)
(0 0 0)
(0 0 0)
(0 0 0)
(0 0 0)
(0 0 0)
(0 0 0)
(0 0 0)
(0 0 0)
(0 0 0)
(0 0 0)
(0 0 0)
(0 0 0)
(0 0 0)
(0 0 0)
(0 0 0)
(0 0 0)
(0 0 0)
(0 0 0)
(0 0 0)
(0 0 0)
(0 0 0)
(0 0 0)
(0 0 0)
(0 0 0)
(0 0 0)
(0 0 0)
(0 0 0)
(0 0 0)
(0 0 0)
(0 0 0)
(0 0 0)
(0 0 0)
(0 0 0)
(0 0 0)
(0 0 0)
(0 0 0)
(0 0 0)
(0 0 0)
(0 0 0)
(0 0 0)
(0 0 0)
(0 0 0)
(0 0 0)
(0 0 0)
(0 0 0)
(0 0 0)
(0 0 0)
(0 0 0)
(0 0 0)
(0 0 0)
(0 0 0)
(0 0 0)
(0 0 0)
(0 0 0)
(0 0 0)
(0 0 0)
(0 0 0)
(0 0 0)
(0 0 0)
(0 0 0)
(0 0 0)
(0 0 0)
(0 0 0)
(0 0 0)
(-0.0275350641207 0.000682968025249 0)
(-0.0601621518729 0.00148336618127 0)
(-0.0650466683984 0.0014068229531 0)
(-0.0132354593045 0.000221377428491 0)
(-0.0875111917549 0.00215768782017 0)
(-0.0210191109938 0.000454599267385 0)
(-0.0189294070339 0.000469516965146 0)
(-0.0353467981576 0.000876726955519 0)
(-0.127256121629 0.003137644205 0)
(-0.0823807422646 0.00178172259955 0)
(-0.0298236814355 0.000645023651822 0)
(-0.112335558317 0.00276976077107 0)
(-0.0400424460338 0.000993195809314 0)
(-0.0266329042425 0.000576013836196 0)
(-0.00488983014771 4.87101180426e-05 0)
(0 0 0)
(0 0 0)
(0 0 0)
(0 0 0)
(-0.00411840896722 3.93763617876e-05 0)
(0 0 0)
(-0.00878852848968 0.000161584896719 0)
(0 0 0)
(-0.00770605752488 0.000128892179668 0)
(0 0 0)
(-0.00995675495988 0.000183063777257 0)
(0 0 0)
(-0.00522323093478 4.99396326652e-05 0)
(-0.0353287346634 0.000876278916289 0)
(-0.127224017298 0.00313685263626 0)
(-0.0800263322263 0.00173080165057 0)
(-0.0295925065228 0.000640023823524 0)
(-0.112263119943 0.0027679747207 0)
(-0.0400345452443 0.00099299984149 0)
(-0.0259851275035 0.00056200378453 0)
(-0.0275115514644 0.000682384827318 0)
(-0.0600831124584 0.00148141737474 0)
(-0.0622425712482 0.00134617621544 0)
(-0.0125611445623 0.000210098782228 0)
(-0.0874179206345 0.00215538811477 0)
(-0.0189090854944 0.00046901291832 0)
(-0.020231218549 0.000437558807001 0)
(-0.00878569561087 0.000161532811728 0)
(0 0 0)
(-0.00766234130934 0.000128160978494 0)
(0 0 0)
(-0.00995554491585 0.000183041529524 0)
(0 0 0)
(-0.00512066114848 4.89589566211e-05 0)
(-0.00488673578304 4.86792934815e-05 0)
(0 0 0)
(0 0 0)
(0 0 0)
(0 0 0)
(0 0 0)