/*--------------------------------*- C++ -*----------------------------------*\
| =========                 |                                                 |
| \\      /  F ield         | OpenFOAM: The Open Source CFD Toolbox           |
|  \\    /   O peration     | Version:  v1906                                 |
|   \\  /    A nd           | Web:      www.OpenFOAM.com                      |
|    \\/     M anipulation  |                                                 |
\*---------------------------------------------------------------------------*/
FoamFile
{
    version     2.0;
    format      ascii;
    class       volVectorField;
    location    "9.25";
    object      U;
}
// * * * * * * * * * * * * * * * * * * * * * * * * * * * * * * * * * * * * * //

dimensions      [0 1 -1 0 0 0 0];


internalField   nonuniform List<vector> 
28582
(
(0.815882947145 0.00434127943785 -0.00028941734612)
(0.816521671782 0.00329214474377 -0.000299982657121)
(0.816239399237 0.00444416490407 0.000936466371588)
(0.816676805723 0.00315996678628 0.00041720713074)
(0.815800400828 0.00396409957771 0.00131591593524)
(0.816272928944 0.00261077800224 8.1202546891e-05)
(0.817314652814 0.00569329553044 0.00325515359736)
(0.816722175822 0.00344809669302 0.000311839458218)
(0.0920551274559 0.0429445221357 0.00451088110637)
(-0.060624211473 0.0628848654607 -0.0168108737371)
(-0.512772308163 -0.0786017834611 -0.0844313011556)
(0.816442850873 0.00429770439595 0.00221577788683)
(0.758442178553 0.000477931938665 0.00756355665525)
(0.758631357532 0.00352448989911 0.004386706826)
(0.816929333046 0.00241140889644 -0.00117936603027)
(0.815933656892 0.0016575432206 -0.0015489455381)
(0.759195614152 0.00358050142159 0.00356177250701)
(0.81516684416 0.00116705839368 -0.00103014633577)
(0.814294633644 0.000876463261801 -0.00204797205409)
(0.81557581199 0.0077189718045 -0.000593978546634)
(0.817481345721 0.00108854255611 -0.000232868314373)
(0.816697213801 0.000446950469853 -0.000451538771982)
(0.816313898309 0.00788952320975 0.000466634586574)
(0.817427627799 0.00144992132241 0.000264395525785)
(0.816806025708 0.000418571235996 0.000329975554892)
(0.81776453378 0.0078639988743 0.00114543666411)
(0.817581228034 0.000999366513479 -0.000421370270445)
(0.822821086549 0.00914680031584 0.00405868538132)
(0.817125161465 0.00154870088521 -0.00077421709539)
(-0.123235129467 0.0526561221808 -0.0136676376225)
(0.193097521786 0.601740389165 -0.45898519088)
(-0.175209081061 -0.259155498878 -0.319302490287)
(0.820310626274 0.0073183323099 0.00542678974907)
(0.819053458599 0.00720368470995 0.00502828707881)
(0.760016167397 0.00254359045975 0.00405760927592)
(0.753055324118 0.00349313502442 0.00549150871632)
(0.818830939264 0.00735688728908 0.00879705131283)
(0.817897704443 0.000753636324764 -0.00074284130621)
(0.816264954723 0.00057900457598 -0.00180106515833)
(0.817621956442 -0.000425014488822 -0.00170994322612)
(0.81536625664 0.000714359238656 -0.00046151540917)
(0.767422710447 -0.00381785306266 0.00184562528404)
(0.814616469969 -2.48433922436e-06 -0.00186477710187)
(0.815315515775 -0.00186873042163 -0.00293967346034)
(0.106139614428 0.0508655690353 -0.00245211729147)
(0.104852723776 0.130624215274 -0.0156115424174)
(-0.284895577501 0.141855462102 0.0204837789525)
(-0.179587859302 0.069965100066 -0.0067669483708)
(0.0446657848107 0.0582617002727 -0.0131431397654)
(-0.141709196591 0.110460294927 -0.0229396434991)
(0.815399270538 0.00547236988427 0.00721078346329)
(0.814180127449 0.00461238889817 0.00604356194505)
(0.758145796346 0.00200787301781 0.00675490396901)
(0.760361829158 0.00108278804112 0.00771906496901)
(0.815065069546 0.00473581282982 0.0076821345849)
(0.760149504972 0.00253421352135 0.00620220581034)
(0.81455756604 0.00510548670847 0.00632077400325)
(0.813959578896 0.00375609475724 0.00514337239993)
(0.814203905731 0.00406963637066 0.00325430216292)
(0.758245241257 0.00274127386279 0.00608787250421)
(0.76014911153 0.00519152589735 0.00424551632878)
(0.81397434618 0.00363191151461 0.00327117755195)
(0.7601873626 0.00396397230293 0.00579225320758)
(0.814275956501 0.00418918258031 0.00543577679085)
(0.814151306136 0.00271105744724 -8.11381734397e-05)
(0.814274047516 0.0035130851362 0.00228718302776)
(0.760262779175 0.00355421025768 0.00188808638797)
(0.76036243401 0.00567039376576 0.00343357559385)
(0.813948800395 0.00307936460629 0.00232817743634)
(0.760814834717 0.00645025679418 0.00153356769252)
(0.814514184426 0.00312551197431 -0.000123570110059)
(0.815635048322 0.00207384098528 -0.000693125067915)
(0.764018297259 0.00216218164816 0.000777648703748)
(0.763897505893 0.00524776375357 0.000522353089577)
(0.814724102274 0.0021213516172 -0.000369358220035)
(0.762159487445 0.00299324054637 0.000772967327654)
(0.762538002744 0.00598681368112 0.000612398384406)
(0.815114564717 0.00284896756303 -0.000268104745643)
(0.813439160672 0.000411307971734 -0.00210744970983)
(0.765045197842 0.00714565395341 0.000114018224673)
(0.76493342526 0.0100366822948 0.000662941682022)
(0.814164714587 0.0015331220482 -0.000170720580018)
(0.7636301773 0.0102025588638 0.00199771488823)
(0.813509439968 0.000923769393873 -6.38385075869e-05)
(0.763311785119 0.00775987886531 0.00153416019493)
(-0.0253929773893 0.000848331089187 0.0172894964011)
(0.0686396683027 0.462353376487 -0.214875350583)
(-0.237891970066 -0.00833395215992 0.0282079078421)
(-0.114741470532 -0.0399640397396 0.0216191794873)
(0.0443263407126 0.298267906416 -0.301359770315)
(0.0902538909098 0.310986248573 -0.228426782921)
(0.0528248803153 0.0938385411627 -0.0182610456355)
(-0.318689045131 0.0667620785444 0.0361419102687)
(-0.253927711315 0.019771177774 0.0233384007632)
(0.00737654668136 0.031662132271 -0.0120113555579)
(-0.297190440655 0.0419366930572 0.0384381952287)
(-0.139114263608 0.0193342502242 -0.0086367518053)
(-0.229186564048 -0.00229045272521 0.0173848943942)
(0.821296586787 0.00835838474283 0.00804421267995)
(0.824178039978 0.00850602857089 0.00532590653287)
(0.757640941156 0.00278334320316 0.00568170103562)
(0.760045720158 -0.000239605583932 0.00403841788423)
(0.821953367529 0.0078233072842 0.00783167622636)
(0.823491249293 0.00911799488977 0.00545378128076)
(0.75746685611 -0.000631851109832 0.00548720476127)
(0.819712349533 0.00799085426961 0.00704466937398)
(0.818121660443 0.00650320133504 0.00721420309017)
(0.75429116588 0.00287690532493 0.00518351884178)
(0.75318547775 -8.87807715172e-05 0.00553641516331)
(0.820483083251 0.00741374629971 0.00678524582915)
(0.817340911961 0.00713914226016 0.00745483428024)
(0.754473015752 -0.000194393404826 0.00534275419174)
(0.75730116441 -0.00207884206985 0.0078182751851)
(0.756514712809 -0.00155158074774 0.00776904188253)
(0.816383663149 0.00654720502941 0.00907470457751)
(0.819438709648 0.00811005168332 0.00784319203711)
(0.754722079743 -0.000589312103708 0.00722912256529)
(0.816792478594 0.00714515505954 0.0081243577136)
(0.755801021622 -0.000664955539338 0.00722923667666)
(0.815754815385 0.00183368540882 -0.00018383180143)
(0.765858337038 0.000417430747327 0.000844544788177)
(0.765603492758 0.00393507709036 0.000479252605778)
(0.8156661034 0.000161831150747 -0.000292703812405)
(0.766604089165 -0.00120931038205 0.00159691653125)
(0.8157929136 0.00168677979231 0.000240115906178)
(0.766454862408 0.0024713423953 0.00107481748101)
(0.815846100771 -0.000120965601255 0.000316690128247)
(0.81609550745 0.00154818842747 0.000685453554166)
(0.767438504967 -0.00256045118183 0.00147611367867)
(0.767251947476 0.000167731601675 0.000936052900104)
(0.815881676015 0.00156400199097 0.00074294602615)
(0.816284186903 -0.000192835401521 0.000195500840083)
(0.767225753744 0.00148739733457 0.0008426823602)
(0.814839760766 -0.00145691303098 -0.00351073213074)
(0.813980397682 -0.000565328754392 -0.00228766038008)
(0.766281811952 0.00573702127761 -0.000613311910434)
(0.765762669338 0.00868860011082 -0.000411167622057)
(0.76702641417 0.00718796794642 -0.000985964822683)
(0.815483447591 -0.000952778907231 -0.00228287573414)
(0.767136491971 0.00419931852043 -0.000644980649381)
(0.767986079376 0.00604689971537 -0.00174979291713)
(0.767787128885 0.0046209004026 -0.00140925892058)
(0.81663605006 -0.00196196209768 -0.00282017541494)
(0.81563010672 -0.00111946626948 -0.0017381744026)
(0.767726919571 0.00184893529218 -6.32791413767e-05)
(0.816451201503 -0.00115039709605 -0.00124277539063)
(0.767953393448 0.00303190586693 -0.000984923112549)
(0.817824906021 0.000130780389864 -0.000338222041426)
(0.818256328698 0.000633161143045 -0.000170190318712)
(-0.149528603969 -0.019004781644 -0.00607144035619)
(-0.0728028567751 -0.0849420082163 -0.405276393899)
(0.818867439487 0.00665575179789 0.00401160237245)
(0.755852618687 -0.00028500369842 0.0073856172604)
(0.817902594128 -0.000530235406164 -0.000551694069139)
(0.818119647604 -0.00037400481569 0.000326921571767)
(0.767370120149 -0.00483207816801 0.00146263444802)
(0.768019669354 0.00320927225268 -0.00136395821572)
(0.766611716958 0.000306903597471 0.00151034007824)
(0.818007983939 -0.000251465861257 -8.05081588212e-06)
(0.817597411888 -0.000390904320377 -0.000346937972904)
(0.766228862283 -0.000669992776612 0.00192483889965)
(0.765063000746 -0.00348577884495 0.00149703238944)
(0.0308516362898 -0.019262979913 0.00586554844853)
(-0.0448619518107 -0.0256772365106 -0.0046809960599)
(-0.072516458735 -0.0687758465553 -0.00244254304427)
(-0.183121554628 0.0441089507208 0.0277301836986)
(-0.196792201632 0.00686713171287 0.0400910330126)
(-0.123075742179 -0.0147074871773 0.0286845768722)
(-0.0826618160663 -0.0752392298643 -0.00176645713756)
(-0.0843198824746 -0.0642971904759 -0.000682655134245)
(0.815570402226 0.00593738522105 0.00630636838058)
(0.815739097968 0.00588386019194 0.00747599614445)
(0.753928063081 0.000568260679297 0.00686080171176)
(0.755972114092 0.00110446700456 0.00661272844428)
(0.816352074833 0.00654900451926 0.00680727085788)
(0.754079288556 0.00134081652602 0.00630511636755)
(0.814989622106 0.0053977497647 0.00681943130513)
(0.81703877194 0.000182354575595 0.00100003713873)
(0.81638761182 0.00178858889061 0.000505512386165)
(0.766954974088 -0.00567879798163 0.00169379270525)
(0.767333139499 -0.00102957774865 0.000805416680267)
(0.816813111018 0.0019679536275 0.000500903551871)
(0.816678216143 -2.12821296547e-07 0.00026045751363)
(0.767111468732 -0.00195484516036 0.00172681792325)
(0.817116625612 -0.000719435775513 0.000733037397852)
(0.817190132448 -0.00169278079176 -0.00230980547112)
(0.767908885539 0.00067714713293 1.95534418207e-05)
(0.767466530306 0.0025979212247 -0.00015562548172)
(0.816890345112 -0.00100957000498 -0.000701351439381)
(0.767629263085 -0.000225415313793 0.00128551466414)
(0.817512864732 -0.00144421156186 -0.000643095386451)
(0.817026209057 -0.000321172122739 0.000952594571007)
(0.817183035837 -0.00024828724014 0.00145072306391)
(0.766707133193 -0.00196490166886 0.00143916318766)
(0.767256366265 0.00118970198388 0.00086753579901)
(0.81665832175 5.95758626667e-05 0.00157902630587)
(0.767273002493 -0.00125211859991 0.00128125925413)
(0.817659168231 -0.000749574563969 2.4254723152e-05)
(0.815927864746 0.000398133207231 0.00159187023616)
(0.816660144983 -1.73575638088e-05 0.00136756362137)
(0.766251462855 -0.00279370386651 0.00129547575898)
(0.766221757852 -0.00161476265223 0.00218858284216)
(0.816376304484 0.000136324018485 0.00138206171475)
(0.76616335393 -0.00352639989671 0.00127731082592)
(0.816103148538 0.000214077990011 0.0018745088835)
(0.815482015152 0.000270871612211 0.00141798964349)
(0.814718359051 4.33742554286e-05 0.00122206891385)
(0.765129611091 -0.00487747407513 0.000226850081033)
(0.765788028465 -0.00236429750825 0.00176157352276)
(0.814994463915 3.76515108049e-05 0.00102717399417)
(0.765760386638 -0.00407542012545 0.000820713549522)
(0.815312561233 9.38046501131e-05 0.00170088960418)
(0.79221773257 0.00904623864319 0.00148070256452)
(0.797509293286 0.00919431789118 -0.00241878853582)
(0.800054547677 0.0143526880993 -0.00873753912597)
(0.804331918074 0.0122507126104 -0.00965725855167)
(0.227594145807 0.0643097030616 0.00621876747451)
(0.184928808245 0.112163164672 -0.00177302751917)
(0.0909950514994 0.113319997395 0.00403758738354)
(-0.0783286229508 0.138616819116 -0.0176980000988)
(-0.181779101912 -0.0434720329954 -0.0230297469446)
(0.218165674984 0.00210463607661 -0.17391826149)
(0.456226287015 -0.133947962785 0.372045945786)
(0.166788484759 -0.088758668862 -0.155140355595)
(0.611182903699 -0.158615885772 -0.0814230942812)
(0.123855767848 -0.0848013568547 -0.112948099139)
(0.545606818203 -0.0884533362558 -0.0929783076228)
(0.789155184317 0.00215736031631 0.00101039069669)
(0.790630584686 0.00471330830409 0.00129196482878)
(0.771636305103 0.0008386965195 -0.000450061774168)
(0.77280534019 0.00276035774865 0.00070772276543)
(0.788367701708 0.00696603983821 0.00270554859255)
(0.769400301118 0.00351003399162 0.00160432366329)
(0.792691866932 0.00648021287836 0.00206751298734)
(0.794902374121 0.00764709326669 0.00155723965715)
(0.773321422026 0.00337443231667 0.000954137112615)
(0.774785631584 0.0041748723947 1.69825210385e-05)
(0.791229187283 0.0125955037302 0.00177143538227)
(0.795509887967 0.00948512933378 0.000246390775235)
(0.794953793324 0.0127855004261 -0.0011028655955)
(0.770195194798 0.00417673450477 0.00181084588791)
(0.76521841099 0.00732113478771 0.00405028255135)
(0.772047990627 0.00457661792832 0.000693485715024)
(0.767108532778 0.0070032346377 0.000494689333922)
(0.796683061871 0.0165851548053 -0.00530918763878)
(0.801946322452 0.0224157973001 -0.00836868487097)
(0.764391711945 0.0086974856009 0.00310555986367)
(0.765657867122 0.014296258494 -0.00977053837047)
(0.767164122658 0.00813943132626 -0.00124254426134)
(0.769842717712 0.014540648865 -0.0132958652883)
(0.798061010116 0.0115017897469 -0.00470163739046)
(0.800086433713 0.0105006613235 -0.00650232669724)
(0.772542118797 0.00419499566186 0.000513127622971)
(0.76801054529 0.00660861007044 -0.000875484346388)
(0.770182610064 0.00594900027242 -0.00604538908067)
(0.806018361776 0.0176642489827 -0.0140415613583)
(0.802564315565 0.012961916514 -0.010034580264)
(0.808675289017 0.0150596876579 -0.0142757878975)
(0.768122270638 0.00740346019962 -0.00285039472439)
(0.770654147833 0.0127921061648 -0.0143021478226)
(0.770527243795 0.00694096842481 -0.00783216922918)
(0.772486610942 0.0101005316274 -0.0165248449519)
(0.771050891759 0.00660573407235 -0.00804110787092)
(0.772812933965 0.00858626893653 -0.0157269686294)
(0.191862132087 0.00746703860238 0.0102928435719)
(0.1958279466 0.0181870039123 0.00945101677478)
(0.231523849845 0.0375592215762 0.00601503053667)
(0.117439763416 -0.0402729261822 -0.0899026348188)
(0.181534614118 0.0126642378428 -0.0984035006199)
(0.127344404815 -0.042118249016 -0.0882491049997)
(0.209065553974 -0.00357068208425 -0.0731313096501)
(0.181470490742 0.050446180885 -0.0233502620413)
(-0.0206681358663 0.106187963339 0.258959905569)
(0.220660868729 -0.00594456179551 0.0354187919493)
(0.114448419365 0.026685713788 0.280210032826)
(0.201328377593 0.0459856611293 0.00914734123665)
(0.169951483627 0.0770623821697 0.00905164160657)
(0.251558157258 0.0881002283209 0.00366353552367)
(0.186728763644 0.0927946172519 0.00608012845115)
(0.167262989885 0.122391342922 0.00232652780967)
(0.111373527167 -0.0718927186727 -0.0836168082056)
(0.139582551489 -0.0474799661872 -0.0205200729789)
(0.108026064586 -0.0668299549251 -0.0311998734437)
(0.140944703752 -0.0552685177595 0.0904214865317)
(0.00177468060642 0.129034222711 -0.0303103303939)
(0.0485230540548 0.153491470557 -0.00920461683734)
(-0.103240732469 0.156951847484 -0.0330784623902)
(0.20415610816 -0.0605893701092 0.166221989019)
(0.159618775068 0.0258153918276 0.313620632228)
(0.15599147015 -0.00905950640889 0.244100726455)
(0.113729042236 0.0420304306681 0.294731911883)
(0.0136981103732 0.136588657301 -0.00335487627349)
(-0.0701428393991 0.0587480258416 -0.0102473669263)
(0.0739571723978 -0.060624899805 0.103681230402)
(0.0699390241254 -0.0326157900258 0.227884522067)
(0.0518388620865 -0.0309574420755 0.261306239783)
(-0.14166669098 0.110100391293 -0.0352716613451)
(-0.123262663174 0.0365203477765 -0.0234127203613)
(-0.162085610191 0.00771153666737 -0.0375934353195)
(0.0907291650025 -0.00879299800002 0.231992974499)
(0.100556831194 -0.00209812942553 0.221759672075)
(0.0822312428419 -0.019739030121 0.227796896145)
(0.0965526485588 -0.0320507764119 0.211017451073)
(0.793113724992 0.00260861110898 -0.000220573065792)
(0.792500471284 0.00161273042217 -8.28013643658e-05)
(0.776231091478 0.000700549257718 -0.00152555378297)
(0.771916060916 0.00135820389401 6.90783590497e-05)
(0.792757167334 0.00309665035504 0.000567510332823)
(0.776389085816 0.00112692232602 -0.00090794895488)
(0.792871252173 0.00127816557185 -0.000810590473387)
(0.793653661458 0.00367940002113 -0.000146861915043)
(0.794281713493 0.00569288897461 0.00143312808265)
(0.772266238919 0.00191924673367 0.00011781739852)
(0.776867369044 0.00235770189549 -0.000358273449333)
(0.793539387958 0.00452875771129 0.000516790589444)
(0.794466145936 0.00480467385335 0.000258418174137)
(0.776627376399 0.00157448789738 -0.000875451239236)
(0.791482419236 0.00613142591064 0.00288252469364)
(0.793551105102 0.0064822441508 0.0017787978566)
(0.768712538425 0.00252333938594 0.00133960247833)
(0.767233432851 0.00443370149203 0.00307088745522)
(0.792515592286 0.00517110824713 0.0016056952469)
(0.792670725158 0.00771132214942 0.00348292946945)
(0.766219160432 0.00327438196157 0.0026117206984)
(0.796080029623 0.00611436604473 0.000336328598601)
(0.795322235059 0.00636368021427 0.0015808515301)
(0.777135171955 0.00292714147521 -0.000126733265568)
(0.773788591843 0.00407423079357 0.000785910362767)
(0.795277766842 0.00556042398672 0.000236205910677)
(0.796202457383 0.00692583311816 0.00153004888751)
(0.777481700545 0.00335646856121 2.53827810436e-05)
(0.796972498265 0.00621677106712 0.000171814125086)
(0.797813612327 0.00719085055884 0.000377463156387)
(0.774385690042 0.00410183457275 0.00104340766878)
(0.778249814358 0.00360136773659 -0.000598246845601)
(0.796976421509 0.00701731615874 0.00115386745046)
(0.797706254871 0.00636724627543 -0.000510762359262)
(0.777962006424 0.00353961274547 0.000460589284597)
(0.794829371843 0.00920328806983 0.00287445169803)
(0.794500769606 0.00732879597382 0.00159036343604)
(0.767899007638 0.00515414675112 0.0032424712835)
(0.770862373256 0.00460965834925 0.00175552921704)
(0.793763387146 0.00867411534444 0.00328280157257)
(0.795526724531 0.00775612548589 0.00151794694898)
(0.768621769893 0.00579261734127 0.00278765959876)
(0.793604351472 0.00979696359002 0.00210843373419)
(0.791149568735 0.0116420921906 0.00322189816693)
(0.766475523717 0.00607405772486 0.00386480312073)
(0.76610186831 0.00768365261247 0.00311379071904)
(0.792264476654 0.00941969557158 0.00264432818293)
(0.792761386662 0.0118962650578 0.00214392513992)
(0.767309658181 0.00656140942354 0.0030954991595)
(0.795771525195 0.00917898806792 0.0015753818843)
(0.797528041413 0.00784416257012 -1.47595773175e-05)
(0.771665819051 0.00475670257796 0.00181946698926)
(0.769737246408 0.00538754428864 0.00122072386648)
(0.79652679131 0.00778312865431 0.000822910447804)
(0.796808331531 0.00914105702068 0.00038545667457)
(0.769303106626 0.00576026329023 0.00249534319653)
(0.795009384996 0.0096669924903 0.000597139429749)
(0.795709047344 0.0110766023609 -0.00176978373389)
(0.766551965829 0.00767940790386 0.00234323168701)
(0.768596172228 0.0058583363557 0.00118179840494)
(0.794347274194 0.0115127478188 -2.02568995017e-05)
(0.796268342081 0.00950435503038 -0.000670954018663)
(0.767988656162 0.00653402688151 0.00262307136233)
(0.792512898408 0.0155647502647 -0.00348992880972)
(0.789951936874 0.0127463553853 0.00117674042262)
(0.763607252903 0.0101223980887 -3.43074974074e-05)
(0.765520493644 0.00874809717326 0.00182814006366)
(0.79034006262 0.0153902941899 -0.0016791932023)
(0.791907760431 0.0131237406189 -0.000231579549967)
(0.764800716906 0.0103109773784 -0.00152777957657)
(0.795640177176 0.0179147602058 -0.00790792735651)
(0.797224091146 0.0208513894237 -0.0131740902954)
(0.763509399022 0.0116046755923 -0.00340919469137)
(0.767407654745 0.0153360636072 -0.0108478387045)
(0.792952502625 0.0177290147045 -0.00598517798409)
(0.765376254596 0.0123304101148 -0.00515523011522)
(0.800091283193 0.0208394204567 -0.0154252609073)
(0.794557792996 0.0148864613603 -0.00706323774657)
(0.795625823769 0.0124394141549 -0.00499535853522)
(0.766131557149 0.00845363673255 0.000680422967466)
(0.766938437582 0.00990930208942 -0.00504007910407)
(0.793982582449 0.0129636877639 -0.00305495298904)
(0.796897089478 0.0141921398134 -0.00950496566627)
(0.765962017543 0.0101458408984 -0.002852979342)
(0.798214696494 0.0175542238166 -0.0108707386978)
(0.805125483134 0.0190504449716 -0.0210778257723)
(0.768549498354 0.0149929562566 -0.011685937586)
(0.76834832824 0.0119624867344 -0.00863181264976)
(0.800596228787 0.0166514872012 -0.0127098672992)
(0.766859381248 0.0119937018048 -0.00656573699276)
(0.802860817918 0.0202795553929 -0.0192536201063)
(0.798509795997 0.00815753426854 -0.00261647849921)
(0.798347992636 0.00759762082761 -0.000872441440231)
(0.770172734868 0.00496658100365 0.000929321395171)
(0.772974933872 0.00355681626142 -0.00109066036036)
(0.797753222639 0.00857593008282 -0.000974574899724)
(0.799017206491 0.00729318150328 -0.00234171492476)
(0.770801744692 0.00417756957768 -0.000821916265004)
(0.798180028893 0.0087389078481 -0.00419821503656)
(0.796810091503 0.010336172592 -0.0041556472504)
(0.769135359597 0.0054155963239 0.000367472317772)
(0.768602656181 0.00606847086272 -0.00302588524519)
(0.797297042321 0.00909161434105 -0.00249647218432)
(0.797834140141 0.00987056138756 -0.00621628662072)
(0.769756586911 0.00479865556115 -0.00140087707545)
(0.79908035037 0.00874541165331 -0.0059146864347)
(0.799917309013 0.0102490689656 -0.00957628750104)
(0.769537986174 0.00591160028502 -0.00459535188781)
(0.770910856121 0.0048204313261 -0.00403740641947)
(0.798833268882 0.00982229176478 -0.00819141108506)
(0.800038551175 0.00912805438062 -0.00704269337636)
(0.770377800129 0.00443417336084 -0.00260904628309)
(0.800498655281 0.0127567192915 -0.0152888890673)
(0.797234389538 0.011841918941 -0.00749807396334)
(0.768103023125 0.00929974201026 -0.00681677272437)
(0.769080819 0.00691255076063 -0.00513239219071)
(0.798734316308 0.0133176441235 -0.0126805347906)
(0.798778124416 0.0113418411987 -0.00948520489399)
(0.768982099871 0.00895751958905 -0.00924448068898)
(0.804887846734 0.0148274602347 -0.0165305503124)
(0.807398273536 0.0179311413387 -0.0223801923758)
(0.769714030593 0.0110870166355 -0.0100591696887)
(0.77133442923 0.0119122540386 -0.0161996570373)
(0.8027182302 0.0156198737888 -0.0145547985359)
(0.770688310975 0.0105559752873 -0.0120693790007)
(0.809804672434 0.017039425934 -0.0237235165441)
(0.802113234683 0.0126508212139 -0.0169100723311)
(0.801749585377 0.0115270055701 -0.0119259704413)
(0.76991885544 0.00667714818337 -0.00656252985045)
(0.770810335352 0.00812536646303 -0.0118765792948)
(0.80029088738 0.0113661001754 -0.0108740609617)
(0.803651239705 0.0127592654943 -0.0180439252585)
(0.770118681913 0.00839921824404 -0.0106780343698)
(0.80655078181 0.0146442317921 -0.0175055411444)
(0.813383261054 0.0159562392803 -0.0236486362576)
(0.772017528061 0.0104210337398 -0.0165315614675)
(0.771950274658 0.00964792409251 -0.0134909152597)
(0.80811394855 0.0143969459895 -0.0182134919629)
(0.771414679758 0.00984509781264 -0.0128426046771)
(0.811893975723 0.0165700649095 -0.0236733104029)
(0.805982304147 0.0128511918485 -0.0172664785278)
(0.802900893534 0.0118241351794 -0.0121115081808)
(0.771391725373 0.00726681096833 -0.0115629374222)
(0.771533238657 0.00594675931701 -0.00811806792141)
(0.80495327997 0.0129737095267 -0.0177351459159)
(0.80400971146 0.0118477380299 -0.0121282177672)
(0.77199990039 0.00603014511237 -0.0111624974018)
(0.814371758366 0.0152364608516 -0.0225963734038)
(0.77265405619 0.00873893731929 -0.0132559195851)
(0.809211107188 0.0142187676125 -0.0177472543705)
(0.817820107829 0.00517276106065 -0.000352253776077)
(0.818609121434 0.00365021365642 -0.000400095949808)
(0.818925466787 0.00170333205355 -0.000505121953121)
(0.81633139092 -0.00103006658462 -0.000163298305968)
(0.810369718748 -0.00215648979661 0.000230736658604)
(0.831440152305 -0.0476515332462 0.000509243820098)
(0.818354644933 0.00537758877926 0.00088643781395)
(0.818471624488 0.00364708626313 0.00070716224297)
(0.818935281618 0.00249465186647 0.000323235315505)
(0.81690688686 -0.00104234091009 0.0015780526199)
(0.811047796594 -0.00257805902162 0.00347357943554)
(0.834029193234 -0.051261055307 0.00433267936345)
(0.818298697859 0.00576729874922 -9.49087912585e-05)
(0.813154212388 0.00596773511543 0.00105221920733)
(0.788333858204 0.0103848931745 0.00275190970119)
(0.784087419089 0.010612818246 0.00227014099479)
(0.781278635511 0.0126518991111 0.00111070243913)
(0.774790396156 0.0148958538245 0.00192744609315)
(0.78227501595 0.0173167776214 -0.00923071843979)
(0.724024985325 -0.0244082835512 0.0277489238432)
(0.828310003292 0.00552198149987 7.81467144348e-07)
(0.825047700349 0.00308373030134 -1.13338786033e-05)
(0.819589437671 0.000149613511997 -0.000831208987706)
(0.817258653243 -0.0016522140811 -0.00255388919415)
(0.816185313272 -0.000107443140894 -0.00315929936063)
(0.817510699977 0.00201511994725 -0.00244171498644)
(0.812898773321 0.00612211494415 0.000929185985614)
(0.834365659848 -0.0852984534734 0.013521434962)
(0.821700780184 0.00713618576888 -0.00112488603052)
(0.8232733508 0.00512601563395 -0.000790156560886)
(0.822462759369 0.00347732602633 -0.00111625057529)
(0.82082537336 0.00293499235306 -0.00164108701613)
(0.819319564241 0.00251301681334 -0.0013713174039)
(0.81974554529 0.00191602153579 -0.000618652713191)
(0.813987547519 0.000209947392441 0.00140614137168)
(0.838623795704 -0.0679393433108 0.00501988602186)
(0.817869032221 0.00807026336293 -0.000701953374736)
(0.820490171114 0.00481309015361 -0.000403109954048)
(0.820344889112 0.00276429587126 -0.000587519640982)
(0.819635361353 0.00120594029104 -0.000728758335786)
(0.818352729873 0.000441003108379 -0.000936846826217)
(0.818539492549 -0.000717924122185 -0.00042299555675)
(0.812487619328 -0.00217334361708 0.000655428825851)
(0.836016112046 -0.0688773089503 0.00228697865562)
(0.817865662702 0.0012306193247 -0.00065524928753)
(0.817649060797 -7.46518770278e-05 -0.00020632944539)
(0.811246939593 -0.00173154112297 0.000515639530085)
(0.83437755142 -0.0527465252883 0.00116156395322)
(0.64144608572 0.0408513531407 0.0114655618883)
(0.636662139447 0.0398019124608 0.0161387341752)
(0.64553006788 0.0244118067782 0.020542546414)
(0.642753385155 0.0207345781292 0.015745054352)
(0.641401357467 0.0217297854645 0.0143732382553)
(0.62539024599 0.0249255728903 0.0155647824958)
(0.682120797637 0.0388614495775 0.0132269672246)
(0.377097337211 -0.0883391568905 0.0575736775376)
(0.775821719508 0.0130314427444 0.00677223727993)
(0.770737486067 0.00940261979469 0.00907888443922)
(0.775525072231 0.00303467890773 0.012598610749)
(0.772473967274 0.00129003424708 0.0125778297519)
(0.77268195706 0.00218331217218 0.0128763087323)
(0.775195122195 0.00398878016497 0.015325794192)
(0.782853867484 0.0253669415854 0.0245578319987)
(0.806590212974 -0.163142011537 0.0397035901401)
(0.823500520791 0.00759948606311 0.000474147170333)
(0.823206295196 0.00600951505438 0.00100953521444)
(0.821922570909 0.00516995910188 0.000564304981494)
(0.820210990708 0.0057812252973 -0.000328789632529)
(0.820409958356 0.00585546519139 0.000389801529424)
(0.822921293166 0.00480517005063 0.0027481296745)
(0.818940348979 0.00218692332579 0.00782899735099)
(0.867826663879 -0.109360281631 0.0126428610569)
(0.819067374083 0.00855263529752 0.000390605960869)
(0.82077318457 0.00479189708556 0.000824490733823)
(0.820038302478 0.00315509119386 0.000492655647968)
(0.819189261802 0.00271530466034 0.000268484623226)
(0.818717339041 0.0016048223207 0.000956381663107)
(0.820427413472 -0.000689547382821 0.00286297809701)
(0.815107550614 -0.00322344721804 0.00609351129749)
(0.846410549731 -0.0861559239107 0.00874505217588)
(0.818185178069 0.00162623530254 0.000480280218044)
(0.818604389707 0.000137227100918 0.0017525206127)
(0.812585317695 -0.00214415861943 0.00404765464138)
(0.83913308337 -0.061308885829 0.00513742188482)
(0.63875610015 -0.0162756489086 0.0195709294947)
(0.63240936334 -0.0171875655244 0.0239552295975)
(0.63577126034 -0.0212373038184 0.0261238568937)
(0.633313242818 -0.0202265076749 0.0224349144926)
(0.63257825175 -0.0176642566837 0.0186267624724)
(0.624883252624 -0.00946508444016 0.0208269166163)
(0.684290713789 0.0221046394715 0.0462229728911)
(0.470304647829 -0.291879301437 0.0109397411875)
(0.73938447276 0.00481706837959 0.0214585678015)
(0.734011784822 0.000430788422187 0.0255003539758)
(0.782373528149 -0.000667175953712 0.0105157787836)
(0.780888310918 -0.00178912280609 0.00946128610619)
(0.782694612319 -0.000520629466096 0.00855872797106)
(0.790524580289 0.000643233041248 0.00785343185948)
(0.804608533712 0.0181662781291 0.00859484865391)
(0.867944715419 -0.181277623334 0.000413893248624)
(0.826086764474 0.00754441946148 -0.000729980783515)
(0.823695863973 0.00621243804698 0.000589927679345)
(0.822132643045 0.00297942375985 -0.000566055829486)
(0.82093333553 0.000977591398826 -0.00230201881193)
(0.822358268729 0.000609166080557 -0.00281646275779)
(0.827440066102 -0.00172399469915 -0.00184477847143)
(0.823302388823 -0.0059270549405 -0.00175274335651)
(0.892250220015 -0.148049406678 -0.00216807888219)
(0.818519692074 0.0121568507044 -0.00223082352594)
(0.820680370953 0.00852334634448 0.000787134490103)
(0.821341101533 0.00500887124614 0.00137307064841)
(0.819878980637 0.0025796937966 2.68177781953e-05)
(0.819976655136 0.00201488852853 -0.0010738624357)
(0.820432503515 0.0012965771086 -0.000399992487798)
(0.823633160091 -0.00190720130249 0.000612278287961)
(0.81848745909 -0.00540593319614 -0.000111392891713)