/*--------------------------------*- C++ -*----------------------------------*\
| =========                 |                                                 |
| \\      /  F ield         | OpenFOAM: The Open Source CFD Toolbox           |
|  \\    /   O peration     | Version:  v1906                                 |
|   \\  /    A nd           | Web:      www.OpenFOAM.com                      |
|    \\/     M anipulation  |                                                 |
\*---------------------------------------------------------------------------*/
FoamFile
{
    version     2.0;
    format      ascii;
    class       volScalarField;
    location    "3.35";
    object      p;
}
// * * * * * * * * * * * * * * * * * * * * * * * * * * * * * * * * * * * * * //

dimensions      [1 -1 -2 0 0 0 0];


internalField   nonuniform List<scalar> 
28582
(
17113.4977976
17113.658868
12216.2764447
12216.4672732
7320.0460912
7320.35441144
3647.86183358
3648.78170903
11.7956000722
12.2627941307
-26.9922687456
3648.40439469
623.154414637
624.191870475
3648.84356634
3649.24597231
624.120271176
1813.22013543
1813.54540742
17112.1431105
17113.2984264
17112.2669355
12214.4806489
12215.9224864
12214.6054193
7317.83192935
7319.54275546
3645.07958602
3648.57622015
12.6231725577
-27.0637213454
-26.9787238098
3645.71247295
3646.48556571
619.313560607
621.249025029
1811.08008699
3648.01258673
3648.7124795
3647.7480569
1813.14141451
625.953652357
1813.32130216
1812.00158954
12.2578314798
11.6279095178
-23.2316029919
-23.2380808264
12.2618125038
-23.2576249509
1812.14609258
1812.75957026
623.623639863
623.377814103
1812.56480993
623.724312069
1812.52205852
1812.90903987
1812.99540599
624.095018086
624.122797886
1813.06151021
623.887760605
1812.8379347
1813.26729311
1813.06206711
624.12219802
624.183874792
1813.19101185
624.133351996
1813.13109779
1813.14995071
624.194410408
624.173163837
1813.24504937
624.09501499
624.119265461
1813.15370411
1813.88218201
624.293615167
624.135201845
1813.59208811
623.866370771
1813.96651985
624.250129385
11.395221087
-23.2719044246
9.91983277022
10.8930980073
-23.2596540521
-23.258553952
12.3102571267
-23.2075230958
-23.2161278356
13.6491504179
-23.179102141
13.6618156175
-23.1884820981
1809.89514766
1809.23974363
619.926845399
619.751697924
1809.70423762
1809.38713131
620.45388077
1810.41576744
1810.40287534
620.538068968
621.863613297
1810.06832636
1810.78366453
621.298053932
621.854788318
622.421371097
1811.38001087
1810.73588776
622.273790831
1811.13071015
621.700566086
1813.13398194
624.337875127
624.374086335
1812.86260717
624.662475916
1813.0899897
624.708255868
1812.48981035
1812.81983878
625.22457302
625.637994442
1812.98478029
1812.16605508
625.021481925
1812.83734377
1813.54279974
624.451943466
624.383160128
624.358355388
1812.77993411
624.581398024
624.337271181
624.631238277
1811.31267738
1812.18270775
625.16872053
1811.6768406
624.726673452
7317.32651528
3646.88331092
15.7086012391
-26.9583645217
3647.07999992
622.980703612
3646.48171541
3644.39015937
626.897586797
625.35856975
629.110342452
3641.24813333
3637.6164355
629.862944492
627.552004693
12.0247108059
15.8078831393
18.7972370114
-23.1413747182
-23.1325194541
-23.0820713856
21.9185282947
24.7391719082
1811.73221248
1811.77955386
622.832706251
623.433731672
1811.46002736
623.248441251
1812.17783527
1810.98902347
1812.49547199
628.013459875
626.547028436
1811.79099566
1811.74665255
627.473780749
1810.49196811
1810.83100445
625.938275055
626.397963671
1811.16629636
626.969244494
1810.27036434
1809.47415868
1808.29789664
628.912013366
627.731973881
1807.92019051
628.176053112
1809.47836436
1802.79516762
1806.20517139
629.218878331
629.505662765
1805.68948126
629.13890847
1803.18401752
1799.61876547
1796.06165195
627.732866795
628.548850475
1796.55612517
628.51852792
1799.72289844
3652.25157186
3647.2171077
3646.10545474
3643.58691834
-0.55272195531
3.80732788877
-1.72113959651
1.48157646588
1.90808919202
-27.0262512425
-27.1582108637
-26.9430266754
-27.0629852436
-26.9420169114
-27.0495412079
3652.55927913
3651.91172194
614.081184894
612.82873462
3654.69311681
613.825492708
3650.32497094
3648.39886525
611.871687602
609.318965353
3652.94275709
3649.50437654
3649.62723744
612.843229152
615.22916187
610.112232519
611.147770612
3648.19536622
3645.34197127
613.79362581
611.090241472
610.281503316
610.365964344
3647.13145169
3645.45729927
609.306819711
610.393919215
609.511088307
3644.16785495
3644.72710774
3643.40411136
609.755892402
610.164044598
609.70587496
610.249966396
609.742907657
610.517982264
0.671919359276
-0.154445233355
0.469202422553
-23.3709947597
-23.3434956163
-23.3526191438
-23.3241034941
-23.3156807717
-23.2976235045
-23.3075567403
-23.2892271659
-1.20498337869
-1.90148088623
1.27544929948
-1.41663397518
0.0729290633128
-23.317019111
-23.293376255
-23.3408884105
-23.3004589321
5.37450185317
2.36196939496
3.89833189441
-23.279348646
-23.264929553
-23.2756436739
-23.2576482116
-0.579666216703
-0.48918186808
-23.3497166646
-23.3121203528
-23.322577956
3.09180292472
1.33092487824
2.94291499096
-23.2836289558
-23.2616007122
-23.2969829433
-23.2738046067
1814.88181696
1816.58982152
613.131033381
614.043254156
1816.64021188
612.645755591
1815.00017876
1814.71575994
1815.92478252
613.674392438
611.897255577
1816.387077
1814.44590527
612.233271155
1818.48599598
1817.0965895
615.259367603
615.553165984
1817.78108283
1817.9265651
616.028679228
1813.12124461
1815.2100163
611.022433201
611.111868805
1813.8644747
1814.35490882
610.033881149
1812.31357519
1812.38275743
610.181370698
608.76104151
1813.36752593
1811.53766191
609.227868634
1815.47462451
1816.22398124
614.580917171
612.460923362
1816.90376587
1815.24720317
612.720979605
1815.15845549
1815.4579131
616.088170322
614.862879657
1816.70754367
1814.53565063
612.995018784
1814.30315196
1813.03180529
611.361597084
611.280404937
1814.0951281
1813.39177074
611.610527212
1813.96967186
1811.8069146
613.57394708
612.262360577
1813.24120822
1813.0108518
611.883807809
1810.18270804
1813.16201105
615.034107163
615.645246916
1811.05334492
1812.79693616
612.683342521
1807.76799682
1805.48521042
614.964956739
612.328465883
1808.98619345
610.393060667
1805.81638818
1809.40765702
1810.19273108
614.270299262
612.243395414
1811.74035453
1808.90414275
611.657191742
1807.14519328
1805.85183978
611.701545485
612.326880783
1807.48427664
609.83000014
1805.6889667
1811.23192989
1811.97011933
610.438012477
608.988654398
1812.31864427
1811.06625718
609.401559867
1811.02783923
1810.89650862
611.320147396
611.108057924
1811.94784562
1810.40206301
609.871161421
1810.22533239
1808.80242929
610.691881184
609.979753925
1809.64475617
1809.43467559
609.69624372
1807.74746104
1809.46002998
611.440231016
611.308510828
1808.30810141
1809.17628659
609.775481578
1806.49298225
1805.81445626
611.652683889
610.66393725
1807.13664056
609.428162975
1805.59353487
1807.30026908
1807.963048
610.896509589
610.431214761
1808.5364406
1806.7323578
609.664986657
1806.21034003
1805.68189454
610.548790161
610.407909243
1805.94473193
609.413056708
1805.50356765
1805.8182065
1807.26402023
610.240121953
610.002783208
1806.17653772
1806.25862872
609.646631207
1805.61632053
610.328087699
1805.65990187
17112.4316
17112.9330181
17112.8829357
17110.7071392
17109.1676015
17108.4900281
12215.1103655
12215.723345
12215.5289918
12212.5749728
12210.5716863
12210.1518802
18322.9094379
18328.4145905
17106.464862
17110.3459164
17111.4326179
17110.1482944
17108.6623742
17106.7373887
18325.475794
18331.5228595
17110.9161601
17112.0489447
17111.5117119
17110.253154
17108.8042128
17106.8518108
17107.357458
17109.1032197
17110.969728
17111.6820764
17111.2039758
17110.0914947
17108.7130203
17106.9800472
17109.9822013
17110.8174954
17112.1078286
17112.4917862
17111.7203708
17110.3571591
17108.7984746
17107.4646189
17111.9536375
17110.4826264
17108.9420338
17107.9866075
13422.3091843
13427.8126617
12209.1271595
12211.9746294
12213.9356635
12212.486392
12210.266275
12208.1688343
13427.0182644
13431.5049952
12215.121058
12215.3164605
12214.2741691
12212.5105216
12210.5092715
12208.6871974
12209.348002
12211.9274165
12213.5757015
12213.9353892
12213.3803481
12212.1105387
12210.3319252
12208.7902046
12212.39293
12213.487433
12214.8819856
12215.1803511
12214.1826155
12212.4406773
12210.3854725
12209.1836171
12214.3841345
12212.4590347
12210.4105637
12209.6987611
8522.92490109
8529.95948431
7314.38038832
7316.69687163
7317.5190282
7314.70223572
7310.38051239
7306.3110897
8528.07040381
8533.9553231
7315.70405198
7317.94789169
7317.50482662
7314.56191574
7310.49514185
7306.48244742
7312.43195046
7315.38709466
7317.06952028
7317.52153749
7316.53986276
7314.17998477
7310.20166341
7306.2254717
7315.42670659
7315.77792218
7317.14134736
7318.47329027
7318.61495939
7317.15267682
7314.35328421
7309.91648695
7306.65141779
7318.79058195
7319.563555
7319.24650567
7317.42690987
7314.2301458
7309.93183632
7308.02939213
7313.9450046
7310.0938688
7309.21195175
3629.19357278
3635.09370103
3641.15797274
3644.66945062
3645.71814477
3644.41803451
3637.95085667
3633.04193372
3628.80634454
3632.32908581
3638.73028151
3642.57007351
3645.65458792
3646.32043379
3644.48041864
3638.18105488
3633.61728612
3641.73568613
3637.9594114
3638.45403562
3642.38718981
3644.92621469
3645.81022483
3646.21542068
3644.03585539
3637.03999545
3632.38373653
3642.2025746
3643.15650591
3644.8587962
3646.40487895
3646.27144081
3646.32232614
3643.74503954
3635.7603455
3631.58854147
3646.29191325
3647.82160155
3648.18635144
3647.65780337
3643.22885698
3635.40593254
3632.99635179
3641.64756518
3635.45176724
3634.2818681
11.8953119517
13.2043293261
13.0712545465
12.3223716304
13.1719702958
17.14913816
26.3532848415
33.6367865679
5.5723248341
6.31009728399
9.46483949399
11.9549816098
12.0413908606
11.250100265
11.9369597027
16.8403469608
26.2196195683
33.492756525
3.95353218841
5.51717711717
7.51514264638
9.94271984553
10.9789713066
11.672390142
13.087076986
18.0278760507
27.1110305876
34.2535825171
6.52746670899
7.48990112307
10.0000334955
12.0655455519
13.4471888767
14.7829662886
20.2942261745
28.4679341883
34.883600534
11.8079401532
11.6654657674
11.96336105
14.448252916
21.3326326949
28.5454689429
33.5254421163
21.7938650437
27.7813644114
32.468335319
-27.0540095458
-27.026350256
-27.026325261
-27.0235426032
-27.013287568
-27.0182447736
-26.973571428
-27.0127242166
-27.134671242
-27.6603854673
-26.9939815261
-26.9884442587
-27.0066777196
-27.0195343518
-27.0046798286
-27.0075708109
-26.965497291
-27.0192628625
-27.150007877
-27.6734526746
-27.01924198
-26.9708983768
-26.9838268473
-26.9985121318
-26.9903388924
-26.9988124845
-26.9777261721
-27.0197985538
-27.1453720997
-27.6122957863
-26.9840319186
-26.985465654
-26.9997204403
-26.9924928708
-26.9984629294
-26.9939453347
-27.0237666793
-27.1417735896
-27.5865232221
-27.0434630006
-26.9989076624
-26.988361034
-26.998192011
-27.0203536024
-27.1427956984
-27.5965478407
-27.0084813508
-27.1317561502
-27.6072891446
18325.7524814
18323.5221322
18327.0585753
15872.6889296
15875.4602413
15873.6879293
15876.2738299
18331.2451074
18330.0307965
18332.1336329
15878.2464792
15879.2311412
15878.9039855
15881.3640706
18328.637606
18327.8910583
18329.7658147
15876.1923891
15878.919897
15878.3334068
15880.6285844
18332.9636492
18332.1941468
18333.7135983
15881.6176499
15883.0306576
15882.9682474
15884.7580867
13425.0415825
13423.8590203
13426.1051473
10971.859667
10975.1048988
10973.7869554
10976.7503803
13429.9312136
13428.4621305
13432.3730731
10978.3691034
10979.7247948
10979.4620552
10982.5425913
13429.0853786
13428.9895718
13431.4120251
10977.2014742
10979.5025365
10980.0707806
10982.1422624
13433.7587015
13434.0873601
13436.9857634
10982.3380793
10984.0093161
10984.615606
10987.4198583
8526.564446
8525.08049239
8528.28833633
6075.29251334
6079.04305397
6077.30081795
6080.3777506
8531.7834594
8531.47688245
8534.52974378
6082.01918474
6085.1667667
6083.27737756
6087.80454207
8530.86552349
8531.34451954
8533.61046716
6079.92487735
6082.88135669
6082.58084776
6085.67201138
8535.74662575
8536.17220205
8538.60547388
6086.07736768
6088.43023237
6088.85745112
6091.04499291
3625.45653442
3627.57943568
611.062654912
610.580158384
3632.34885444
3630.70908777
3633.49714149
613.03347143
617.443328436
612.374438612
617.165876698
3638.09144425
3636.38405501
3639.29092925
618.571561441
620.557982244
618.345159196
620.491001411
3643.80181579
3641.63925553
3644.00940109
621.213673569
621.949795574
620.976462225
621.466646215
3645.21666015
3644.98000851
3645.59467276
621.94727921
622.045221621
621.437059118
621.758910044
3645.75518623
3645.97455286
3645.88103282
622.532404209
626.889076582
622.22560357
626.285043029
3641.36875188
3644.47938656
3641.45553006
629.073218846
631.115602806
628.307933909
630.101708097
3634.84183289
3638.22943723
3635.23648607
630.225638418
630.695738699
629.797770309
631.566822993
3632.53422522
3633.49636941
3632.75397207
632.577430062
616.328434087
633.339507432
616.006175234
3641.05209202
3636.60903159
607.542736093
607.453535362
609.327415367
610.096813525
3629.315415
3633.88019455
3633.19183249
606.864298328
610.606308982
610.448484992
612.183389689
3635.70099765
3635.07242674
3638.13077794
612.359077098
617.108697085
613.272630667
616.966658638
3640.62865178
3640.6907993
3642.51353221
618.296871537
620.460152468
618.10414292
620.628367007
3644.56459574
3644.02048887
3645.22791932
620.933606792
621.360046546
620.946440934
621.540389978
3646.05730258
3645.86248709
3646.22682021
621.34745041
621.788159043
621.567505676
622.121415854
3646.08803545
3646.44087737
3646.10176657
622.273961919
626.40467679
622.804216199
627.219326818
3641.36071635
3644.31662269
3641.09436792
628.349262319
629.846244348
629.034966967
629.970248745
3635.28409383
3637.78594806
3634.70633839
629.572344161
631.668871594
629.522390498
631.343142762
3632.7857616
3632.87197422
3632.65601814
633.510057444
615.937489695
633.263914958
616.561375521
3639.53468481
3642.13159173
3641.17922827
609.401743826
610.968046482
610.578435757
612.922285061
3637.42429001
3640.57078373
3640.53777574
611.2152739
612.849825964
613.456290651
614.907579946
3640.39424239
3641.14904398
3642.22349548
613.77909123
617.13761791
615.443372825
618.23762672
3643.8964227
3643.68740053
3645.03624407
618.215913986
620.835257265
619.145451058
621.720269757
3645.5472744
3645.70875638
3645.86276791
621.198002236
621.762771539
622.302153715
622.291982601
3646.04132347
3645.84347384
3645.96095742
621.803562348
622.268097433
622.110788012
623.119691024
3645.84984784
3646.09975038
3645.74249624
623.006335428
627.451834185
623.916421156
628.940855844
3640.68595601
3643.8356032
3640.36769752
629.278653152
630.066039944
631.062293458
631.181426672
3633.8795112
3636.41635425
3633.00739253
629.508703035
631.034761868
629.736218709
629.766520936
3632.37400384
3631.50007562
3632.15580361
633.035408254
616.869866302
631.991468909
617.404470332
611.00542693
613.762369244
3642.54477394
3643.67993934
614.315638918
615.69853346
618.219102317
3643.85428909
3644.3969764
3645.03264344
616.160868935
618.843967071
618.562137411
620.595603885
3645.861356
3645.67261257
3646.47592913
619.693957846
622.066835413
621.39504874
622.985499676
3646.42805229
3647.15778695
3647.33312158
622.784585216
622.818926221
623.42417993
623.993586984
3646.23874663
3647.23154705
3647.16939392
622.576503309
623.433046285
623.874789594
624.777492889
3645.86830533
3647.06301578
3646.17294889
624.28510364
629.540137886
625.800197198
631.512926602
3639.98201803
3643.63443839
3639.60962925
631.68826005
631.17088847
632.971779312
630.367506216
3632.60795324
3635.50963495
3632.76592818
629.510798967
629.548742711
628.78013293
630.228111386
3632.38005126
3631.77395894
3633.17348384
631.819259657
617.550716725
632.660045627
618.144218057
3647.08533492
3647.77931385
622.023410356
623.169016175
624.019001014
3648.16785284
3648.4105429
3648.67439074
623.437031817
624.054417335
624.018717004
624.13750668
3648.08572675
3648.60074624
3648.31629269
624.1880105
625.472090073
624.270678921
626.057272845
3646.14845859
3647.51530395
3645.57608596
626.570730059
631.729455956
627.153840275
630.188644668
3639.05015637
3642.42704986
3638.47395693
632.657541575
629.75170339
630.104011829
628.271635359
3633.38336789
3635.58013353
3633.99601204
628.440122188
630.854176666
628.292578611
631.901034785
3634.33853812
3633.94449604
3635.40800899
633.299818648
618.328552116
634.275579714
619.309908338
3644.82474533
629.486689231
3637.8886222
629.465283061
628.127535403
3634.20124553
628.208760179
631.862301783
3636.02967793
634.367377141
619.865458683
-23.2982197131
-23.2723642796
-23.2781930705
-23.2696697818
10.2602458367
9.06218980453
-23.2653280475
-23.2653216054
-23.2791935334
-23.2675787618
12.7564801473
10.770689712
12.0488058418
-23.2636778079
-23.2715627102
-23.2634332726
-23.271559498
13.2619534706
12.721506254
12.8576611859
-23.2744573703
-23.2741377756
-23.2750033301
-23.2731720708
12.4269136337
12.5947202377
12.061226805
-23.2700014205
-23.2544689784
-23.265509098
-23.2525612243
12.6159681603
11.6897637443
11.8202220442
-23.2402882003
-23.2296648387
-23.2377138676
-23.2251887431
14.4065468552
12.3779771004
13.8496198459
-23.2219958747
-23.186505042
-23.2131600613
-23.1831499029
21.3436178684
16.8670590454
21.158198013
-23.1284063908
-23.0737072897
-23.1298431675
-23.0810503608
31.1960220633
26.1584457886
31.0687547649
-23.0496456208
-23.0846564091
-23.050788628
-23.0817111277
34.6424386182
33.3780586428
34.6700682016
-23.1372846679
-23.0312541658
-23.1397323961
-23.0209478207
5.74592301895
4.43842380008
4.94291086473
-23.2604817729
-23.2665719399
-23.2467452289
-23.2526042773
7.67359722401
5.84748978758
6.86747743055
-23.2688020934
-23.2614017015
-23.2662257206
-23.2659321231
11.0039534643
8.34090078787
9.78850903938
-23.263571188
-23.2712032415
-23.266846392
-23.2684917435
12.2256515001
10.8645804748
11.4418277954
-23.2695485969
-23.2704065963
-23.2672143165
-23.2700420048
11.5142132757
11.3384178046
11.0686242741
-23.264623973
-23.2496267221
-23.2589703323
-23.2432841374
11.3546078919
11.0832919633
11.3579799349
-23.2361165348
-23.2206341026
-23.2328265804
-23.2196938214
13.6311520851
12.1201739578
13.9086725455
-23.213188873
-23.1799336156
-23.2073809744
-23.1684009248
21.2176273975
17.1840173606
21.5593912559
-23.1242884479
-23.0794937035
-23.1137086829
-23.0699800672
31.0387950474
26.5057491159
31.2993967981
-23.0385601566
-23.0640757278
-23.028352874
-23.0534130517
34.8867903799
33.6959336842
35.169897555
-23.1259422402
-23.0120422074
-23.129011586
-23.0263550049
4.80808195201
4.15966606932
4.93170008359
-23.253588617
-23.2644278391
-23.2654533865
-23.2646197566
6.36577362496
5.57241912192
6.22089374495
-23.2675234213
-23.2712952833
-23.2670105188
-23.265420037
8.84242328134
7.0845225688
8.3835348367
-23.2653831072
-23.2651559962
-23.2587287146
-23.2587677209
10.7568213453
9.61657895301
10.4814143246
-23.2620400256
-23.2651959416
-23.2620445274
-23.2630043144
11.2624332655
11.4333893966
12.2475417563
-23.2473601663
-23.2348344041
-23.248235632
-23.23055986
12.2412076302
12.7961655423
13.3166086293
-23.2286585997
-23.2164007716
-23.2106115971
-23.1957349291
14.8452097385
14.0582079432
15.8554417168
-23.1984291622
-23.157356429
-23.1790256203
-23.1402996725
22.2611159626
19.1142421825
23.2054987775
-23.0977375372
-23.0572450881
-23.0853378946
-23.0419590036
31.8325910403
27.8304245549
32.3996063373
-23.0196516358
-23.050690749
-23.0108947456
-23.0511189357
35.519789779
34.755848412
35.7477401153
-23.1208428572
-23.0395242853
-23.1282081938
-23.0576703408
6.89530763385
8.23406959046
-23.265416521
-23.2608401798
-23.2601143009
8.73830390348
8.55714680898
9.64315075998
-23.252086756
-23.2503678206
-23.2508709618
-23.2506879388
10.9499974684
10.789168551
11.5033075775
-23.2519145612
-23.2486572718
-23.2511015132
-23.2538493154
12.9373271946
12.0128908195
12.6016500849
-23.2401502489
-23.2237196765
-23.245916509
-23.2322362036
13.9526103137
13.1025991713
13.6031116048
-23.2047712549
-23.1987401018
-23.2208698278
-23.2040026047
16.8266623181
14.6803484928
17.2348616105
-23.1852301247
-23.1424556721
-23.1752799813
-23.1321091039
24.1881505012
21.0105545905
24.8136176134
-23.0775505163
-23.0287239333
-23.0618905079
-23.0089833392
32.6747188752
28.7121338179
32.3907887096
-22.9934474402
-23.0401399954
-22.9785766449
-23.0278009687
35.5606837487
34.4213057751
34.8819112914
-23.1237708111
-23.0600475352
-23.1238699085
-23.0760320732
11.9224898207
11.9882447282
-23.2665305617
-23.2655532744
-23.2787040439
-23.2787010111
11.6598194617
11.8004929687
11.7652217977
-23.2581649636
-23.2460313864
-23.2694197649
-23.2487597857
12.7454232763
12.0504312401
12.9931626225
-23.2317350754
-23.2083979723
-23.2287866754
-23.2025654399
17.5847709003
14.9882656876
18.1152427004
-23.1696450673
-23.1209087905
-23.1619327844
-23.1059863295
25.0080056395
21.4843058984
24.9367760452
-23.0376415343
-22.9891093335
-23.0205902445
-22.9729851958
31.6187092167
28.1583242457
30.8529434498
-22.9676156713
-23.0085128833
-22.9492684839
-22.9913942959
34.0506147326
32.6333833093
33.3799566499
-23.1307928646
-23.0968460423
-23.1238727186
-23.0976084889
18.6766013092
-23.0849091106
24.8804831036
-23.0095788952
-22.9705456991
-23.0148348675
-22.9798208921
30.3023724697
-22.9654941067
-23.0022373579
-22.9759541075
-23.0109492871
33.3192446112
-23.1350880085
-23.1047997461
-23.1305073619
-23.1059944942
1788.97249124
1790.36299669
608.869764913
610.984097968
1791.01896604
608.640841671
1788.32898206
1789.99845605
1793.23935755
610.726997015
609.218831168
1791.852573
1791.77895816
608.532972495
1795.01519559
1792.55580074
614.742310649
612.871688808
1793.07618253
614.612868295
1794.66164408
1796.80432422
1798.10296692
616.202380608
617.117448628
1798.25150326
616.073740152
1796.54056967
1795.61211688
1795.02568682
612.679399724
614.178792871
1793.75389692
1796.78132981
614.396608506
1797.32941508
1799.66866167
617.159812093
615.839699929
1798.79706317
1798.30856636
616.030496647
1801.15469695
1799.75692195
619.294589835
618.117436158
1799.76166355
619.062988734
1801.15355461
1802.57895287
1803.85143978
619.891818231
620.469990175
1803.8914724
619.843125488
1802.50423311
1801.71011768
1801.18592629
618.183148513
619.216952994
1800.29325635
1802.54036671
619.137616587
1803.10733593
1804.86130525
620.500024138
619.892033527
1804.33572841
1803.7769356
619.889475923
1806.46351632
1805.13496833
621.579899601
621.015871351
1805.11760504
621.540456555
1806.47777554
1807.56711159
1808.32102026
621.729634633
621.998428706
1808.42108517
621.846494829
1807.51487281
1806.66788907
1805.87018957
620.98042825
621.256688438
1805.47895963
1806.88367416
621.427920378
1807.68611055
1808.40365196
621.705118582
621.393466327
1808.49491224
1807.70598213
621.630609023
1808.92004172
1808.55095688
621.806618617
622.101881913
1808.74682626
622.107644155
1808.59513673
1808.90446221
1808.59306587
621.835570748
622.089661727
1809.02327698
622.038187635
1808.5509359
1809.14620306
1808.88076834
621.758155491
621.430238752
1808.87876082
1809.18333748
621.74930567
1809.20510081
1809.71230512
621.903026833
621.495215026
1809.43239925
1809.36260041
621.761671838
1809.99204902
1809.04395454
623.57447229
622.529913001
1809.39915797
623.276646678
1809.79919319
1810.78027713
1811.56024452
625.069124623
626.592566349
1811.67169216
624.516964953
1810.73744881
1810.28553333
1810.1395433
622.328440854
623.099777043
1809.76357418
1810.67349243
623.102399908
1810.94049724
1811.78263632
626.33301538
624.469477833
1811.71313752
1811.27522534
624.325985971
1810.42381841
1811.64594337
630.828427807
628.937618942
1811.75219216
630.319018823
1810.38925925
1807.6175736
1803.65438932
631.596507695
630.862131878
1803.86495873
631.073990608
1807.48179393
1810.23339003
1811.49734283
628.600092514
629.703920819
1811.6583481
1809.97550562
629.887118968
1807.43521619
1803.52932638
630.484684591
630.316359276
1803.79390156
1807.07843713
630.581198169
1796.56388866
1799.75068938
629.802666045
630.12740739
1800.06311548
629.988799387
1795.8864355
1794.11615056
1791.87091718
629.808531852
631.022880817
1792.49164925
630.245771979
1793.24621537
1797.02199909
1800.33825948
629.925434683
630.13592191
1800.23737181
1797.20334164
630.076388086
1794.73489214
1793.505427
631.369512737
630.623635224
1793.06597018
1795.00560918
630.592340767
1789.18005772
1790.63319563
635.138298613
632.752952926
1791.16358299
635.407402734
1788.68158386
1784.82105636
1787.46402063
638.393493156
616.254062467
638.54247505
1787.29021819
1784.34160508
1789.48480503
1792.09932173
633.053181192
635.845705365
1791.68257019
1789.7583985
635.601160578
1785.58475344
1786.65404573
616.238903087
638.902111812
1785.8962852
638.551531635
1786.78042114
1800.69669152
1801.73350614
608.963994647
611.838546508
1798.95156299
609.111847169
1803.65042367
1798.08015652
1793.83093871
609.506137183
608.630821835
1796.50344929
1796.46142336
607.906371033
1801.86855629
1804.29789267
611.86944685
610.398550069
1802.98768558
609.505324301
1804.19307352
1799.82696458
1800.55007083
609.485053272
610.724950917
1798.67837398
1801.83648092
608.578651243
1794.71135099
1792.38940884
608.103599631
609.063821793
1792.46911537
1795.38181601
608.733951748
1795.15222344
1794.64219931
609.416348937
610.925065784
1793.40719136
1796.29948661
609.533352377
1797.08642922
1799.77196093
610.14941074
610.984567779
1797.84489136
1799.40407221
609.87907252
1797.2283023
1799.8259871
611.581503453
611.418739479
1798.049435
1799.35201852
610.44402182
1799.10571023
1796.16121611
614.087632521
612.551891449
1797.71438042
1797.66748354
614.191528139
1800.49071651
1800.62251378
615.722599989
617.084618244
1799.19445001
1801.75535102
615.78266127
1800.36469202
1800.71102429
612.858012545
614.474022603
1799.11388255
1801.79470593
614.302161992
1801.633327
1803.96346983
616.97586776
615.681638292
1802.81709021
1802.85263327
615.712608584
1804.22625545
1802.06900396
619.193490722
618.199346033
1803.33837401
1803.06234152
619.173742374
1805.22026426
1805.39647809
619.85967708
620.45165507
1804.42990441
1806.08094183
619.903754595
1805.13030353
1805.07604809
618.106183549
619.10547448
1804.02147226
1806.06218648
619.1172307
1806.12236004
1807.58225721
620.548292477
620.022474617
1806.88465318
1806.92963541
619.975769473
1807.62015636
1806.30303875
621.21699375
620.874129734
1807.20499462
1806.86355533
621.100884743
1808.26885674
1808.57521257
621.294628972
621.268468145
1807.95412268
1808.84803102
621.148887418
1808.15292153
1808.12031497
620.922847241
621.23627975
1807.5336861
1808.67516093
621.152879596
1808.70110534
1809.46439437
621.259134388
621.472694727
1809.16299236
1809.14214649
621.187988153
1809.52266305
1809.01065875
621.377047178
621.380123451
1809.34255844
1809.23885047
621.398858648
1809.85510534
1810.06557362
621.51235999
621.887670843
1809.6759736
1810.28138705
621.547834309
1809.75490628
1809.63868199
621.437213559
621.652563382
1809.47073316
1809.81367455
621.504562958
1810.05241134
1810.31012026
622.015152318
621.765633388
1810.42988606
1809.99164709
621.678694519
1811.25297694
1810.52229862
623.169588616
622.397207117
1811.02577669
1810.73767276
623.321618066
1811.79427726
1811.93920343
624.586329617
626.695268043
1811.56141962
1812.12963039
624.793454032
1811.4335752
1810.80944778
622.608244412
623.890933125
1810.89599901
1811.40676512
623.612028605
1811.94546912
1812.15345378
626.904537285
625.425979096
1812.2027028
1811.91452234
625.101116661
1809.69562503
1811.4691954
629.574244885
628.630681205
1809.80630647
1811.5443676
629.622829906
1806.67836823
1803.32999855
630.068403533
629.807746598
1806.85160562
1803.08926408
629.892350509
1809.60444839
1811.47996857
628.769363591
630.013353257
1811.52581192
1809.51911173
629.738964424
1806.55144154
1802.62665048
629.851131504
630.264357415
1802.87264838
1806.37566902
629.984224978
1797.07195224
1800.17454674
630.051315867
629.574445047
1797.21835853
1799.86120743
629.960689147
1795.17819022
1793.72865753
630.617382693
631.760775972
1795.18344663
1793.62319108
630.731353915
1796.69610462
1799.20973052
629.552623491
629.805573454
1799.56878436
1796.03440852
629.858822559
1794.77014898
1792.65433443
631.595913389
630.228656119
1793.25086819
1793.96626622
630.557058112
1789.90128825
1792.31900497
636.112626129
633.498789093
1789.93444107
1792.24802324
636.176304016
1785.95531011
1786.66253717
639.302811069
616.022211318
1786.05708131
639.386421527
1786.5785153
1789.67973141
1791.59066792
633.353678042
635.970983209
1791.96324248
1789.34679609
636.033137494
1785.75407263
1786.48262118
616.309776095
639.426585533
1785.48423763
639.293956953
1786.47435038
1804.49878868
1804.62988372
610.687438554
611.02898397
1803.79170289
610.699487067
1805.05538961
1804.00202606
1802.18083344
611.336939608
611.817793014
1803.17479207
1803.59225881
611.197376318
1805.00960083
1805.44724867
611.207863159
611.822408979
1805.31814562
611.182678037
1805.27223644
1804.67338995
1805.27653723
612.317529847
612.569367469
1804.54229781
1805.33405909
611.538734591
1802.85418568
1801.60333399
611.643686785
612.154202861
1801.32246352
1803.21975369
612.35322351
1802.84029016
1801.58649226
612.096793192
613.516067109
1801.26985951
1803.09650056
612.793113266
1804.16814733
1805.19857298
612.816756354
613.945027459
1804.39169987
1805.26449488
613.180522338
1804.23593767
1805.86990813
614.248240404
614.431312087
1804.50507934
1805.51705349
613.622243061
1804.36434731
1802.19720936
614.8257453
614.272687533
1803.07261594
1803.6134088
615.246548015
1805.21136147
1805.02771397
615.944575285
617.384750381
1804.01984726
1806.05144343
616.277641861
1805.56655758
1806.24735021
614.884303232
616.281168479
1804.92225806
1806.69891227
615.779545299
1806.28872995
1807.78484902
617.767687598
617.301429405
1806.9820195
1807.2203064
616.756891881
1807.63025832
1806.01113371
619.221394795
618.459841797
1806.89055344
1806.85037625
619.43726091
1808.31480388
1808.2387512
620.188402083
621.073132125
1807.66249316
1808.85426412
620.352254017
1808.34773727
1808.36430203