/*--------------------------------*- C++ -*----------------------------------*\
| =========                 |                                                 |
| \\      /  F ield         | OpenFOAM: The Open Source CFD Toolbox           |
|  \\    /   O peration     | Version:  v1906                                 |
|   \\  /    A nd           | Web:      www.OpenFOAM.com                      |
|    \\/     M anipulation  |                                                 |
\*---------------------------------------------------------------------------*/
FoamFile
{
    version     2.0;
    format      ascii;
    class       surfaceScalarField;
    location    "7.15";
    object      alphaPhi0.water;
}
// * * * * * * * * * * * * * * * * * * * * * * * * * * * * * * * * * * * * * //

dimensions      [0 3 -1 0 0 0 0];
oriented        oriented;


internalField   nonuniform List<scalar> 
92311
(
0.203675903175
-0.000344016211955
-0.000741115877759
-0.203273715504
0.000683089535594
-0.000178407928275
0.203812851464
-0.000265510587311
0.00030703195505
0.20381534272
-0.000772732447445
-0.000739249355191
-0.203375783144
0.000728478313334
-0.000344379495564
0.203906756902
-0.000311897533267
0.000386493095083
0.204402929344
-0.000464397341269
-0.000379055453307
-0.000739733271491
-0.203662460719
0.000880528379879
-0.000499689058675
-0.000310993787079
-0.000164606142698
-3.61249761079e-05
5.07414546353e-05
0.204096204223
-0.000395860291755
0.000592811692116
-8.46745863815e-05
0.0512409518522
-0.000184484864584
-0.000192147655134
-0.000192557624827
-0.000183581546352
-0.000203842336708
-0.0509936797801
0.000245127328946
-0.0513152773878
0.0512969659545
-2.68265322659e-05
-7.70588005834e-05
-7.84360424968e-05
-3.35189642706e-05
-0.000151972449407
0.000221551940801
2.65524794723e-05
-0.000357827339902
2.86423871155e-05
3.33287001005e-05
3.48184966365e-05
-0.000128012585588
0.000103726543512
8.99503856499e-06
7.26578662742e-05
-0.00061091156377
4.31031647369e-05
-1.93687779485e-07
0.000645231018218
-2.05786419975e-05
-2.88265818567e-05
-1.23695729273e-05
-1.95246330913e-05
-9.27230250671e-05
1.2649051872e-24
-2.22699437806e-06
-3.05287777194e-06
-4.29340627474e-06
-2.80592439738e-06
1.12999264812e-07
1.24363401962e-38
-3.76931082961e-06
-0.000148898872767
-0.000113318096177
-0.000112497219583
-0.00014322795506
-0.000166682373697
0.000231411146517
0.000231987513298
0.0108387943432
4.39503794576e-06
-1.68358409604e-05
-0.0109306024035
0.0106553060808
-2.16558632507e-05
0.000131886344488
-0.0106879651372
2.24139888717e-05
-2.02618833482e-05
0.000164987103862
3.18499469901e-05
0.0511395781386
2.56474585161e-05
4.86354935981e-06
-6.65567362606e-06
-9.94988820559e-05
5.19495146948e-05
0.0510600871764
6.73004392062e-05
2.92003906765e-05
4.09609957281e-05
-0.0512441369297
0.000210288093213
-1.26804378793e-05
8.37752496346e-05
0.0106290998179
2.8405704921e-05
-1.91176229755e-05
5.81154595529e-05
0.0127487376795
-4.83273817283e-05
5.7222557724e-05
-0.0127841714588
0.0127321151059
8.35580771696e-05
6.1920338191e-05
-0.0127679735976
-0.000425774271085
0.203681831339
-0.00150192601511
0.00126000425987
-0.203013818079
0.203758170873
-6.05649944266e-05
0.000260883566549
-0.000145686185906
-7.72223843595e-05
0.203692427881
0.000531191846379
-0.000388778102582
-0.000885246663202
0.203706109583
-0.00146643342075
0.00125314927509
-0.203033230177
0.203770643256
-1.4136837147e-05
0.000179381644909
-8.97218211351e-05
-0.000127798835862
0.203691094961
0.000459794013439
-0.000329612231133
-0.00037550304897
-0.000484445171936
-0.000487108892511
-0.00144284287499
0.203914126961
0.00123379083637
-0.202872735764
-0.000370555289583
1.90772711381e-05
5.10863704438e-06
6.6851239042e-05
4.46658753799e-05
0.20374437154
0.000175724766246
2.64279578336e-05
0.0508419802946
-0.000152174253836
-0.000123967518448
-0.000148927988386
-0.000130700914686
-0.000331941176396
-0.0506100727085
0.000280430082957
0.0509778465561
0.000100560406246
2.53016932409e-05
2.07654891995e-05
3.10163247805e-05
2.79588368647e-05
-2.48820156884e-05
4.97955228917e-05
-8.9379158246e-08
-0.000473610682774
-1.75849482205e-05
-2.79376932426e-05
-1.75662236507e-05
-2.99258632161e-05
-0.000179590213745
-2.36780000075e-06
-1.46552814613e-06
-1.90402553732e-06
-5.70458730161e-07
2.89045845733e-06
7.59995114682e-07
-1.91624315934e-07
-1.76879412175e-06
0
0
0
0
-5.85041054198e-29
0
-2.07794050387e-25
0.000210336040128
-0.000156413610731
-0.000168460007854
-0.000151324580393
-0.000176340697589
0.0510500795782
-0.00025014823666
-0.000168964797352
-0.000194060999787
-0.000161370731782
-0.000183303276213
0.0510075758569
0.000206684770351
-0.050783089083
-1.26333274453e-05
0.000145728423042
0.0112591999759
0.000116095994667
-0.000142333623402
-0.0113192533064
-1.90902459794e-05
0.000184239104302
-0.0111200478335
9.80101651969e-05
-0.000118105075319
0.0110423808561
-0.000207482525012
0.0126981654
-4.22493398057e-05
4.37756308192e-05
-0.0126596446758
-9.63856966626e-07
1.44220319266e-05
5.28172436896e-06
1.45292699475e-05
2.33104735459e-06
0.0508774032371
6.98600718284e-05
0.0508953132254
3.55731057583e-05
4.69109804861e-05
4.97274642891e-05
3.46421875878e-05
0.000165230118711
2.25810199601e-05
1.18104956608e-05
1.44244652525e-05
9.79374219048e-07
0.0508139877636
7.53523657415e-05
4.78423778418e-05
-3.59145063403e-05
4.74081001933e-05
0.0127141209891
9.2346585838e-06
-2.46759569258e-06
-0.0106952079408
2.35401528917e-05
0.0107014665438
-1.20803054691e-05
7.63481943844e-05
4.26664683746e-05
0.0126957442542
-0.0126548118374
3.00134423639e-05
0.0126376331027
-4.38814716596e-05
5.41433665827e-05
-0.000554259129045
2.54904739802e-05
2.27337269918e-05
2.83063983577e-05
1.09406968853e-05
-7.19321567959e-06
5.32196941628e-06
-3.24369729242e-06
-4.08736310949e-05
-7.24330988421e-05
-6.20963080711e-05
-3.8764751659e-05
-0.0004994159405
-8.31984948541e-05
0.000692239150558
-3.24188675726e-07
-3.78759461779e-06
6.56926533147e-06
-2.00793610894e-06
6.76222027938e-06
-5.67978486715e-06
-3.85090991462e-06
2.10400843844e-06
5.65662681296e-06
1.24283717399e-05
3.93184219774e-06
9.69662007829e-06
-3.99381319174e-06
-4.97011893113e-06
7.32874377921e-07
-8.08615274548e-08
4.76150637339e-05
0.0127810490309
-4.28151257602e-05
-0.0127359670674
-0.0127888765956
-0.000236418547125
-5.74785576511e-05
0.012821357277
7.24238862782e-05
1.11228168315e-05
0.000222961104167
0.0107561437179
-1.97406723928e-05
0.000251318868817
0.0107808537323
-0.010868968957
6.76334757148e-06
-0.0127396829525
6.01726995632e-05
0.0106971395372
1.70539776444e-05
0.0128139243639
-4.82617013516e-05
0.0128556952987
-0.000194603762138
-6.71452224546e-05
8.15680235235e-05
7.30240341649e-05
-0.0128502762507
0.01285594095
-5.77452137076e-05
2.09652186072e-05
0.000191669778257
-2.18745704684e-05
0.000115523324315
-0.0106197375862
0.0105887435257
3.55251049369e-05
0.0128513136635
8.28348896412e-05
3.14290857457e-05
-5.21076400596e-05
-0.0128363852182
-8.5712325522e-06
-6.59636212231e-05
0.0128097095158
7.56330932159e-05
7.3430452698e-05
0.0128475739945
-5.6636777185e-05
3.2935521758e-05
1.81982785048e-05
0.0106304649325
-1.91522870346e-05
7.22977512012e-05
0.0105731554899
4.50497719933e-05
8.37305689078e-05
0.0105795075792
4.80969466344e-05
0.0128193466808
-5.19800370709e-05
4.16664728408e-05
-0.0127954196162
0.012763238467
-3.22908295178e-05
2.58914897682e-05
-0.010635243443
0.0106570865355
-8.47407230784e-06
-0.0105896435263
4.34374805296e-05
0.0106215955147
1.84713241278e-05
-5.89160413546e-05
7.10498707314e-05
2.73925836972e-05
-2.75139184979e-06
-1.35086867362e-05
4.30388363303e-05
-4.41021232073e-05
0.000102194357323
-0.012756099907
0.0127165750862
8.78968513611e-05
4.84272073512e-05
-0.0105642500737
0.0106014364332
-0.0105117042916
0.0105511144018
4.8285824635e-05
9.387408214e-05
4.07998354991e-05
-0.0128024967123
-7.42527453878e-05
-4.99987035225e-05
-0.0104952078179
5.5385248265e-05
-0.0127935948919
9.79106785617e-05
-0.0105565231189
8.72110957968e-06
-0.000266047164146
2.13242556584e-05
2.47763975645e-05
2.12388649245e-05
1.76651780779e-05
-0.000131001047396
-9.71241220676e-05
0.000194485123183
-6.30114696136e-06
3.5971107391e-06
5.01718742147e-06
-3.76079261574e-06
9.50700874287e-05
7.2205481232e-06
1.57948535248e-05
1.16284497513e-05
1.50366995674e-05
-0.000201111659643
0.00025072606719
-0.000390097313624
7.35123151633e-06
1.66847406278e-05
1.99367252391e-05
1.75336310581e-05
-0.000245473795974
-0.000191385189209
1.49552628353e-06
-2.9319704042e-06
-2.28967197676e-06
3.59276413423e-06
-4.85900743806e-06
-8.99680627899e-07
-2.49049836466e-07
-0.000251834266234
-3.95541105386e-05
-7.09769500833e-05
-6.83783226801e-05
-3.47758806009e-05
-0.000165380316939
3.95930689028e-07
-9.74066650759e-07
6.03895116187e-07
-1.85951869863e-06
1.17453462046e-06
1.18164768654e-06
4.7925089302e-05
-5.49078342743e-05
-4.49752766245e-05
-2.23406517756e-05
-3.41122330623e-05
-5.05029438214e-05
-0.000263995197858
4.58446601161e-07
-5.24899442357e-07
3.73338990966e-07
3.30033672338e-06
-1.66374537663e-05
-1.20795267722e-05
-2.62469106695e-05
-0.000336989529831
-0.000153959606509
-1.34482197171e-07
1.33522327293e-06
-6.62897205765e-05
-0.0126428309574
-0.000179062432898
0.0126780773008
5.88707424937e-05
0.012654746824
7.58202643695e-05
-8.41940726484e-05
-0.0126240242624
0.000173510355708
0.000113824051138
0.0111843823541
-0.000137235025314
0.000150964122897
0.0112414953688
-0.0112963382107
7.69023428598e-05
0.012690209754
-7.64505653291e-05
-0.0126140193283
6.80224328842e-05
0.0111668583226
7.70110414192e-05
-5.66421787476e-05
0.0127101965814
-0.000180433726017
4.96102167079e-05
-0.0127210193982
4.62002647777e-05
-5.70081888676e-05
0.0127488696518
0.000170008777603
0.000102154656402
-0.000125865180643
0.000200324471335
-0.0111010743836
6.90468909419e-05
0.0110305489882
-6.77501907313e-05
4.09208356863e-05
0.0127407655857
7.29563279046e-05
0.0110692343693
-3.97367778813e-05
1.19940775405e-05
-0.01113305356
0.000231942672367
-3.97261145129e-05
0.0109789591442
1.4699886048e-05
-3.81640166485e-05
0.0127335115505
4.24026012429e-05
0.0127025702473
-0.000186364181494
-0.012668863433
0.000213004419039
-0.0110893244992
0.0110113391971
0.0127365472387
-0.011156673945
3.66245794807e-05
0.0127294845348
-1.84508414715e-05
2.61888004171e-05
0.0106678615441
-5.68798155134e-06
0.0106387531082
4.35402594602e-05
-1.86481083732e-05
4.88756441817e-05
0.0126849669638
2.96764239354e-05
-4.17839723067e-05
2.75105691128e-05
0.0106840870331
-5.60895343031e-06
0.0126988573765
-2.34629523149e-06
0.0106557320046
4.28246220561e-05
-3.31701425752e-06
0.0126609679522
2.70059381751e-05
1.46204804515e-05
-0.0126734501691
-7.05618258209e-06
0.0126624044126
2.10664159847e-05
-2.47926783574e-05
2.64361163017e-05
-1.06784941672e-05
-2.14632938026e-07
-0.0106637231963
3.14657069933e-05
0.0106719182122
1.1672468422e-05
4.09102873664e-06
0.0126520565714
3.73714099067e-05
-0.012679354335
6.47982916728e-05
-5.75198025578e-05
6.44664069835e-05
8.08287566881e-05
8.24159302639e-05
4.40074009094e-05
0.0106268670812
0.0105870151962
3.86283792385e-05
-4.02442324314e-05
0.0106255605416
2.32856983274e-05
3.46379119937e-05
0.0126677302964
0.0106479389297
0.0106426712042
-2.42458587503e-05
4.80772982001e-06
-5.97028010089e-06
-1.00144324979e-05
0.0106517362516
-1.49235127163e-05
-3.38358752833e-05
0.0126324249851
4.55160123282e-05
0.0126446478922
8.20109525912e-06
2.21914051419e-05
-0.010655547519
0.0106630144944
0.0126384075322
-9.71131981582e-05
-6.36496692658e-05
-0.000108661597449
0.000558855289176
0.203767470094
-0.00015219229267
-0.000288028369875
-5.05819258104e-05
-5.3462955775e-05
-2.70443694303e-05
-5.07581423786e-05
-3.25051317844e-05
0.000131713015336
0.0508630099148
3.96827492681e-06
-0.000105491875038
8.4768109925e-06
1.00271554315e-05
3.6927301446e-06
7.63173181041e-06
-0.000141541095858
-0.000287673503949
0
6.03775899451e-10
6.54258570034e-10
0
6.52127863717e-29
0
-1.25803446948e-09
-0.000166304306335
-0.000170895330903
-0.000161712970626
-0.000175669132631
0.00042353719091
-0.000193405662359
0.0512484638827
-2.39781826226e-05
0.000217828398693
-3.86007473731e-05
0.0108926474902
0.050797969745
-5.19663097272e-05
-1.70428056632e-05
-3.23413290986e-05
-3.73436185868e-05
4.07471620172e-05
0.0508612145773
-6.01572581104e-05
-6.51986621738e-05
-7.49603163952e-05
-4.83175466453e-05
9.71630423582e-05
-2.02393879315e-05
2.85596291571e-05
0.0107062562376
1.51502088046e-05
-8.82062887166e-06
1.57706596786e-05
2.23595016552e-05
7.75359852322e-06
0.0106675570963
-3.54463277063e-05
0.0106135662848
-9.77523167807e-06
9.69928487563e-05
5.58288196378e-05
-0.0106458564443
-7.02244383911e-05
0.0509310720084
-7.86988479151e-05
-6.72654007199e-05
-7.47178177967e-05
-7.60205464405e-05
0.000164030304065
0.000154353324954
-9.12088332721e-05
-7.04389815573e-05
-6.22614569103e-05
-6.20630375958e-05
-7.03262636472e-05
0.00021382569739
0.000228346563992
0.0509385211746
-0.000184531687927
-1.51086425765e-05
9.96448765205e-05
7.33929186758e-05
0.010585634774
-8.20165971662e-05
-1.22563929126e-05
6.73858589325e-05
8.63161526113e-05
-0.0105311713714
0.0105171530993
-9.2995082508e-05
2.15245572917e-05
2.65414990895e-05
2.31637916795e-05
-0.000166183777347
-0.000356786114558
7.49708846699e-06
-4.73805076569e-06
7.07974891149e-06
1.65506281728e-06
5.79902043018e-07
4.77149185836e-06
-0.000313718135261
6.32529425986e-06
-1.08600248357e-05
9.78622991862e-06
6.215058982e-06
7.94147440808e-06
0.000124841185253
-0.000275466970882
-2.99199189926e-07
1.82626009951e-06
6.44784647585e-07
5.97981718693e-08
3.98810240752e-07
5.13070090441e-07
2.94782439672e-07
2.27542971093e-07
-0.000102941283891
1.49750535294e-05
1.63176940401e-05
1.53954283785e-05
0.000103982425824
5.45574935636e-06
-0.000159374335086
1.23679653833e-05
1.5052399798e-05
1.54643690556e-05
1.48962841344e-05
5.31201002305e-06
-0.000234823273218
-2.32386190059e-05
-0.0127775706367
-0.000201682005916
3.89857396889e-05
-3.39580887995e-05
0.0128096951287
-3.79365930496e-05
0.0127774740439
0.0002029642443
0.0109424884523
-6.11941539578e-05
-3.64897997961e-05
0.000214468322235
0.0108148677077
-3.60236810477e-05
-5.55044606658e-05
0.0108646586155
0.0128090334939
2.06615144908e-05
-0.012643600217
-7.24382040866e-05
-1.26089638886e-05
0.0126565745582
0.0126526011569
-1.67640684623e-05
2.90529103869e-05
7.41351090297e-05
5.95110697213e-06
2.06489723391e-06
0.0106891730073
3.17213823295e-05
0.0106829484024
1.76936074163e-05
3.42494609009e-05
0.0126644264692
-8.11764062242e-06
4.18717066807e-06
0.0106702704459
-0.012631636042
-8.66771694478e-05
1.35952960669e-05
0.0126425448912
-2.01732522625e-05
0.0126257189131
3.32221891054e-05
5.27398697166e-05
0.0106759227617
2.21253014481e-05
6.0393767165e-05
0.0106580909148
-4.71014952851e-05
0.010657696302
0.0126365966098
2.76063667269e-05
0.0126551153685
-9.24342330213e-05
-1.51838252725e-07
2.2863473265e-05
1.09867995705e-05
-0.012645623583
0.0126645381545
4.10019948242e-06
0.000112627688909
-0.0106401875329
0.0106079137775
3.15936499612e-05
3.99030855583e-05
7.06356633663e-05
-5.92935607799e-05
0.0126761665594
3.08089673376e-05
1.34917631803e-05
1.53825187206e-05
-0.0126963706428
-0.000105037688317
-4.09890452233e-05
0.0127103801464
5.55304821284e-05
2.45140055838e-05
0.0126851599679
-1.05308358861e-05
0.000109481338385
0.0105823703666
5.54019237245e-05
7.94745366715e-05
9.82557574069e-05
0.010555431
-8.52693641132e-05
4.19335797543e-05
0.0105568977026
6.51929304013e-05
0.0126977185488
-2.91645652613e-05
0.0127186091506
-9.0834400252e-05
-4.47194723299e-05
5.87999822898e-05
5.76987816351e-05
-0.0127067720558
0.0127046878211
-4.94907988294e-05
6.85425514159e-05
-0.0105386138308
7.87146140671e-05
0.0105280196653
8.50560791322e-05
8.64418007333e-05
-9.30965031248e-05
6.93366464497e-05
0.0127145641627
7.41189736688e-05
-3.58702758585e-05
-0.000681664370237
-0.0493463354539
0.0492919581407
0.000851459977078
1.06510142686e-06
-9.78300798196e-06
9.49727168408e-07
-1.09422306235e-05
-9.67136648764e-05
-0.000851012301681
0.0498180040032
3.10977642819e-05
1.67253196911e-05
2.38874039703e-05
2.41202399053e-05
-3.54018155533e-05
-0.049760246602
0.000732879978632
-0.00120556719973
-0.0499515945727
0.0500545646737
0.000965688973231
4.24301761042e-05
2.99725345296e-05
3.83767294697e-05
3.50004763392e-05
-8.81599392422e-06
-0.000748910081542
2.53252939951e-05
2.78762716511e-05
3.07000714043e-05
2.26710480849e-05
1.33090086417e-05
0.050185734529
0.000553926324306
-0.0501105584007
-1.61885960193e-05
4.89796848068e-05
-0.000467004305159
0.00057451746673
-4.64178756428e-05
-8.47221554745e-07
-1.01810527389e-05
-7.66473497552e-06
-1.37336533963e-05
7.26322320243e-07
-0.00067654054535
0.000733658218071
-0.000127010395666
-4.92765082076e-07
1.81401957749e-06
-6.216251591e-06
9.87575144232e-07
0.000134557554375
-3.25005880779e-05
2.19362286788e-05
0.000603806720253
-4.84901708088e-07
-3.9229550508e-05
-3.7561442917e-05
-4.03111245846e-05
-0.000461481904803
3.42454350479e-05
-3.89760366534e-05
2.3098438623e-05
-0.000750938926913
0.000912264638596
9.7538506685e-05
-3.37920292228e-07
-5.0060068131e-05
-3.90819448137e-05
-4.52023516143e-05
-4.09061371739e-05
-0.000182880404319
-4.49889310947e-05
-3.53151787709e-05
-4.03385847904e-05
0.000825964384083
0.000251819805132
-3.63037261668e-07
-0.000702137647956
9.81315716848e-08
5.01644173249e-10
1.62968748802e-08
5.18829382993e-08
5.01348023408e-08
2.98826073301e-07
-1.63167156502e-28
-1.53399162313e-07
-2.47929241466e-07
-4.1803398962e-07
-8.08131008865e-07
-3.91089786981e-07
-7.50387018062e-07
4.56993495388e-07
-1.10527408137e-07
0
8.92999919879e-30
0
0
2.09390507019e-10
2.9225366623e-10
-6.05015914112e-28
-4.40156571688e-08
-5.59177427903e-08
-1.94234852557e-07
1.65728513735e-07
7.38714365533e-08
4.20679692023e-07
0
0
0
0
-2.17485433622e-28
5.0793919324e-30
0
6.41219030924e-08
8.2664731822e-08
3.15857290228e-08
6.21547836283e-08
2.13084230076e-07
-3.47024371432e-08
0.000257484298204
-1.43531936239e-05
-1.04041004515e-05
-9.40163533435e-06
-1.57036754113e-05
0.0490141423044
3.63525219928e-05
-3.70656517403e-05
-0.0492209282646
0.0490424244212
0.000480335422503
-8.2384278575e-06
2.39939414256e-06
-3.2640172796e-06
-7.90030832128e-06
1.74351624064e-05
-0.0492657296606
-1.50948199584e-06
2.15136557294e-05
-0.0115398370223
-3.98781215704e-06
0.0114916667707
2.78964651635e-05
0.0115092184143
6.1281391964e-05
1.72925143382e-07
6.90766683146e-06
-4.30402804047e-05
-0.0115579485959
2.7811384383e-05
1.63013570713e-05
1.9731582497e-05
2.9341443418e-05
-0.000389121662498
0.0122599969786
0.0122041823558
0.0121664914683
0.0121536994693
-0.000127579133168
7.85033041521e-05
1.9438323877e-05
-9.09927220406e-06
-5.70700359631e-05
0.0114597505388
0.000631902607347
-6.84690726593e-06
-6.31460123502e-06
-1.09402946606e-05
-4.53936393976e-06
-4.79522898065e-05
-0.049421366568
0.0495432320604
-1.43814885574e-06
1.67838131312e-05
4.22554855013e-07
1.10706763573e-05
-5.16912054755e-05
-0.0495568293652
0.000670372779892
0.0115469698945
-4.67615453257e-08
2.58200696573e-05
-0.0115868049252
5.81895243205e-05
0.0116116192407
2.87767337473e-05
-1.56485594906e-05
-4.99690891866e-05
-0.0116380983153
4.84065485319e-05
0.0011004947808
8.35338084016e-06
1.17548521079e-05
2.78406968971e-06
2.16134808768e-05
0.049182335289
-0.000235756521552
-0.000198588603758
-0.000227528345218
-0.000189425289003
-5.88256680275e-05
-4.06334166239e-05
-4.57642707462e-05
-3.87604963665e-05
0.0495397642109
1.89691660903e-06
1.11138590034e-05
-7.60613335393e-06
1.97970461143e-05
-2.12339596873e-05
0.0496674553517
0.00103835620252
1.62669903401e-06
2.96438801525e-05
1.28853063314e-05
1.8510858435e-05
-0.000128181174356
2.34291243897e-05
0.011500966203
7.18159675712e-05
0.0114333937282
2.12482294495e-06
2.27719453742e-05
-0.0114513655044
0.000124645341704
-0.000130694065919
4.86633793642e-05
3.62133569413e-05
-1.25278999928e-05
-5.18335642584e-05
0.0115791508786
0.0115114005022
7.5608660416e-05
5.27024242453e-05
-3.30591407196e-05
-8.85653662357e-05
-0.0115288269371
0.0498194481225
1.15233180298e-05
2.48697231231e-05
8.26664468008e-06
3.14192391561e-05
-0.00131060266299
-0.000122994765386
0.00141041954304
1.32481752724e-05
3.56640783463e-05
3.31761804042e-05
2.29793505956e-06
0.0503088049931
-0.000269189724594
-0.00171497089914
2.84658135254e-05
0.0114147139559
0.000141378036288
-0.000150665635066
-5.59690166343e-06
3.99036743249e-05
-0.0114031956647
0.000191971505556
0.0114124551144
-0.000212646711936
8.97016881544e-05
4.55554135572e-05
-3.34453207907e-05
-0.000105232258967
0.0115029392394
0.00013429831761
1.83989146931e-05
-2.12479610569e-05
-0.000152463841309
-0.0115076409067
0.0115196089955
0.000855311210446
3.16238539307e-05
3.24320166237e-05
2.31336692222e-05
4.07840893055e-05
-7.8412890298e-05
0.0500567365209
3.2558076343e-05
3.46105052162e-05
3.62648109804e-05
3.18926283667e-05
-6.03397112288e-05
-0.0499549528343
0.000678647561848
-3.02170041045e-05
0.0115836627613
5.9971408247e-05
-0.0116103914258
0.0115225867306
4.6377570217e-05
-4.93500476417e-05
-0.0115384784115
8.41945041587e-05
0.0115421651045
3.84078613231e-05
-5.77326354048e-05
-0.000119345314981
-0.0115528702266
0.000139402429928
0.0010671281601
4.17196145033e-05
3.77994445239e-05
3.83523964232e-05
4.54180952875e-05
0.0502863677493
-5.17518063595e-05
0.050158499413
4.005853181e-05
3.17424448425e-05
3.34579759205e-05
3.67313258942e-05
-2.68509883247e-05
4.39024028845e-05
4.55220072762e-05
3.92957228563e-05
4.99273566542e-05
0.0502977263909
0.0007926140224
-4.32712590232e-05
-5.76191523107e-05
0.0115184325716
9.96349543757e-05
3.96757396737e-05
-5.82573055815e-05
-0.0115166074862
0.000128269982694
0.0115298186588
0.00014837156792
3.97089195602e-05
-5.73261731412e-05
-0.000132126143266
0.0115337810765
0.000172324747294
3.63430214135e-05
-7.48291262519e-05
-0.000156410175038
-0.011529236183
0.0115389874999
-5.54401443661e-05
0.0115368268332
0.000162304777809
-0.0115467848919
-6.77273454002e-05
-0.011531030873
0.0115364742173
3.84853219639e-05
0.000184066767258
-8.75367365151e-05
1.97925202098e-06
1.29505397734e-06
2.00246557823e-06
0.000575004012169
0.000117213624619
-0.000537066203534
-8.8016759087e-07
0.000575207370849
-3.1317308872e-05
1.03425730353e-06
1.09148477613e-06
1.85006087889e-06
-0.000505414763673
-1.65055150128e-06
-2.28042450657e-06
-1.26083350234e-05
-1.91873809222e-05
-1.68521022516e-05
0.000131292418781
0.000672106597901
3.10466944374e-06
-4.76855146992e-07
1.96339726001e-06
4.27925494124e-07
-2.47555459269e-06
-2.22505119403e-07
3.78428650966e-06
1.76206325949e-06
-1.48930897407e-08
2.78272514134e-06
-3.94067838636e-07
-2.37491140691e-06
3.45841240148e-06
-2.26813962126e-07
1.61255100812e-06
3.2083720535e-06
1.29589594368e-07
8.80203095824e-07
-4.50004715326e-07
3.37537428316e-07
4.02681333572e-06
8.34607515426e-07
-1.44567156727e-06
4.19300743221e-06
-3.1436994461e-07
9.39104175717e-07
-4.34182575604e-07
5.45823990668e-06
1.2655037388e-06
-4.68221588705e-05
5.76392159067e-08
1.50787388349e-07
-1.85197197658e-06
-3.25330051877e-07
-0.000405559592033
0.000435622658901
-5.95359510922e-06
-2.53156125575e-05
-7.5338977872e-06
-0.000336724056916
-4.62704509466e-07
-5.3871350018e-05
-7.52744117236e-05
-6.44288603666e-07
-4.333171357e-06
-2.88547235707e-05
-2.21001239827e-05
8.74907858467e-05
0.000590572131379
-6.06200699236e-07
-1.88495953763e-05
-4.37190110983e-05
-2.31590185347e-05
-3.84208795625e-07
0.000749082241856
-5.70969607611e-06
-4.27769594106e-05
-4.15440474196e-05
-2.93654274153e-05
1.42720159567e-06
-1.44172008128e-07
-1.70168191373e-06
-7.02066552143e-08
1.54413651036e-06
4.85871468656e-07
-5.49912387533e-08
-6.99327715097e-07
4.41017544552e-07
-2.56795800788e-08
-0.000120026763743
-6.37884755075e-07
4.57810612322e-06
4.70014283418e-06
3.5338186677e-06
0.000757721310442
0.000133711666359
0.000906900250226
-5.55500482891e-07
-3.71449831117e-05
-4.517713959e-05
-3.21450783513e-05
-5.59455306482e-07
-4.56162487578e-05
3.19901926897e-06
-3.4082912353e-05
7.79399879389e-07
0.000969513949529
2.15317779e-06
-1.10322029221e-07
-2.25440305791e-07
3.7785648189e-06
5.94602418153e-07
-3.78468721614e-08
-4.79721280358e-08
9.1499668696e-07
7.54184724178e-05
-2.59312101079e-07
-3.88228576783e-05
-4.71403947313e-05
-3.73526529365e-05
-3.01314071963e-07
0.000730784572013
-4.52326916213e-05
-3.66503890172e-05
-4.53385683994e-05
-0.000598217450126
0.000162322043808
3.26078714604e-07
-4.42628822776e-07
-3.31433761276e-08
-1.76900494429e-08
2.80955671107e-07
3.26368955562e-07
-3.75593104249e-07
-2.00052860379e-08
8.0535226076e-05
-3.91225900885e-07
-4.58993855415e-05
-3.27793909861e-05
-4.38299099878e-05
0.0010382646234
0.000876588907248
-3.08954628328e-07
-4.34676377906e-05
-4.5638774252e-05
-4.93332711851e-05
-3.49891295344e-07
-4.27924410802e-05
-3.61765851289e-05
-4.08800277129e-05
0.00100263870763
0.000181203579503
3.07120373447e-07
-2.26045687651e-08
-2.29322710192e-08
4.21018657552e-07
3.33323376183e-07
-2.48416232174e-08
4.25082447982e-07
-2.83832401001e-08
0.012377742095
-3.06484111261e-05
-4.03740078124e-05
6.36907250451e-05
-0.0123847908043
4.82433418834e-05
-0.0123700017364
0.012348990935
-1.59529648519e-05
-4.3984310803e-06
3.46179447361e-05
2.32266534982e-05
-0.0115952115844
1.79896057658e-05
-0.0115353043105
2.00865929792e-05
0.011489095931
7.56184928481e-05
0.0123591374953
1.54890680444e-05
-0.011587298746
-1.26914852861e-05
-0.0123784673455
0.0123837873957
8.92478634248e-05
-2.54326057151e-05
-0.0123921527281
-0.000101981329724
-0.0123964393541
0.012386333142
0.000121421949121
1.63153958072e-05
-0.011542390424
0.0114983728189
2.27941291555e-05
-3.64980878466e-05
5.11831714461e-05
-0.0116069795073
0.0123706678237
0.000108929909053
-0.0124011453589
-0.0115951856642
-0.012350074414
0.000131947174873
2.92821675167e-05
-0.000101443967001
0.012318065856
-0.000111588227829
0.0123676882851
0.000137382204271
-1.09626045525e-05
0.0114470367255
-2.60104905017e-05
-2.53427673533e-05
-6.69310121351e-05
9.09130222893e-05
0.0114389181659
-8.21582374828e-05
0.000157440434224
0.0123462246831
-3.1347922383e-05
0.0114178509821
-0.000131565418129
0.0124259305879
-2.50915493974e-05
0.000151655271798
-0.0124281965294
-0.0124103938852
0.000147324274171
0.0124041640483
3.09517725418e-05
4.9207543623e-05
-0.0116293061363
2.67044784827e-05
-0.0116058069178
5.3659005654e-05
0.0115756687369
-0.0124131340641
0.000173008954135
0.0124224697797
4.92251547735e-05
-0.0116440857664
0.0124497161468
0.000164555766117
-1.17223637802e-05
-0.0124526173632
-0.000187248262785
-0.0124713531603
0.0124716290484
0.000187729536316
1.23683446644e-05
-0.0116247919741
0.0115995464848
-1.07158396848e-05
-4.96527923901e-05
-0.0116682261813
4.79430466833e-05
0.0124481179197
-0.0124735242263
0.000166535560887
-0.0116574679749
-0.000192118666673
-0.0124155342964
-1.88426391599e-05
0.012409146289
0.000218782609857
0.0123882818806
0.00016719017034
1.92573311578e-05
8.8663094611e-05
0.0114730077918
3.24086416359e-05
0.0115350335699
6.25641898039e-05
0.0123742767439
0.000195747519122
0.011505345763
7.87789173449e-05
-0.000224020040359
0.0124062202696
-1.17091857562e-05
0.000247573961816
-0.0123595812586
0.000258888649761
0.0123539743779
-0.000218495436436
2.23790876812e-05
0.000107405281975
-0.000111107515204
-1.76201415008e-06
-0.0114794374178
0.000115444204793
0.0114570555731
-0.000183786763364
0.000279724209075
0.0124055678283
9.44701213022e-05
-0.0124448812284
0.000233382211911
-1.0204500975e-05
0.0124424412399
-0.000209520025736
0.0124692394486
0.000210369718079
1.80880700811e-05
0.0115614479876
-2.03755015291e-05
-6.62533644758e-05
0.0115534649048
5.69229669894e-05
0.0124702236245
0.000231793416648
0.0115308003137
0.0124423587345
0.000260198643823
-1.0793974786e-05
-0.000285998093915
-0.0124735653178
0.0124787031991
0.000277706191691
-4.29412024245e-06
-0.0115051860282
0.0114845896701
-1.92248239414e-05
-7.23828291294e-05
6.29582866874e-05
0.0124448841555
0.000256229257944
-0.000332844591767
-0.0124072058898
-8.03360062131e-06
0.0124212846382
0.000351048600035
-2.42726836419e-05
0.0123561145526
0.00029673895242
-7.57475761842e-06
-0.000262625072274
2.72009015166e-05
0.00015890099952
0.0114077034057
-0.000173065546344
3.33880995277e-06
0.0114483955566
0.000136549869962
0.0123790287248
-1.60007876356e-05
-0.000312267843903
0.000315492921464
-1.70949768002e-05
0.0114440000526
0.000154560270634
-0.000359594444148
-3.02795914147e-05
0.0124738780912
0.000377899193384
-4.04999925127e-05
-0.012448972301
0.000383211516573
0.0125312594072
-0.000377095360541
-4.81470989428e-05
4.09580511713e-05
0.000177680903335
-0.000192995915496
-0.0114344239488
3.50181300924e-05
0.000176853033352
0.0114354862778
-0.000348133225466
-4.01333252172e-05
0.000166161038459
0.000398721305776
0.0125395893496
-4.57765910381e-05
-0.0124483612629
0.000345425691482
3.3006311018e-06
0.0124621739613
-0.000315578803727
0.0124829506182
0.000302809613406
-4.74842934321e-06
0.011471301964
-3.99461542259e-05
-0.000121566191519
0.0115002263979
0.000104656276834
0.0124924421419
0.000327327621305
0.0114667241053
0.000367360416687
-8.98157905711e-06
0.0124949310029
-0.0125124977754
-0.000386980472949
0.000365909068743
0.0125478684816
-0.0114844921734
3.46338109465e-05
0.0114898355935
-3.19525244293e-05
-0.000141827481031
0.000118998174181
0.000348363857143
0.0125437554442
-0.000215988965525
-0.0125147290367
5.07821101124e-05
0.0125161057949
0.00019501935445
0.0124958905896
0.000199070666226
-0.0124981164217
-3.85066124289e-05
6.59040426326e-05
0.0115602510815
-4.43478121434e-05
0.0115859996989
-0.0116096055554
7.53876110524e-05
0.012497100642
-0.012516158123
0.000180343258126
0.0115679324546
8.31234582288e-05
-0.000236882625738
0.0125203109254
5.20584562369e-05
0.000212261192098
-0.0125017746209
0.000253626547503
0.0125091174292
-3.79945344089e-05
7.2038680314e-05
-6.28312133881e-05
-0.0115505288143
0.000104020121906
0.0115331946009
0.000225231749511
0.0125266642294
9.30361199061e-05
0.012532468532
0.000185593838113
5.6860607651e-05
-0.0125299201266
-0.000196686137217
-0.0125420013464
0.0125465552463
0.000169050897804