/*--------------------------------*- C++ -*----------------------------------*\
| =========                 |                                                 |
| \\      /  F ield         | OpenFOAM: The Open Source CFD Toolbox           |
|  \\    /   O peration     | Version:  v1906                                 |
|   \\  /    A nd           | Web:      www.OpenFOAM.com                      |
|    \\/     M anipulation  |                                                 |
\*---------------------------------------------------------------------------*/
FoamFile
{
    version     2.0;
    format      ascii;
    class       volScalarField;
    location    "11.7";
    object      alpha.water;
}
// * * * * * * * * * * * * * * * * * * * * * * * * * * * * * * * * * * * * * //

dimensions      [0 0 0 0 0 0 0];


internalField   nonuniform List<scalar> 
28582
(
0.999998576666
0.999999390468
0.999998538255
0.999999013671
1.00000091928
1.00000047114
0.999989957733
0.999983448451
0.0582484963845
0.0602198739157
-1.0954184482e-27
0.999987940587
0.856224185243
0.854289563127
0.999983549176
0.999991400131
0.854566609181
0.997615997777
0.997803485191
0.999998783667
0.999998623405
0.999992495066
0.999999050513
0.999998308034
0.999994231724
1.00000127344
1.0000000638
0.999989287345
0.999983902572
0.0608877314773
7.57919495769e-07
-2.11115064421e-27
0.999987442673
0.999988226658
0.865921997263
0.860483955966
0.998526973539
0.999983637457
0.999989059916
0.999984130198
0.997714132143
0.853842893791
0.997849786131
0.997998297546
0.05874805801
0.0595811522784
0.000224066749198
0.000369317001897
0.0595897562104
0.0003561183088
0.998278280486
0.998230020099
0.854272492996
0.857203430098
0.998332524232
0.855271556309
0.9981511471
0.998079320555
0.997797413417
0.854003993282
0.854780428946
0.997897754684
0.854644139009
0.997998368504
0.997559509792
0.997538852085
0.855145113026
0.854792853783
0.997667944449
0.854890676277
0.997471115672
0.997559852655
0.856827138539
0.85562761247
0.997569340004
0.855765056317
0.855167499089
0.997492469154
0.997933965786
0.856138782521
0.856408726058
0.997792706339
0.855942278877
0.997937811342
0.85548903285
0.0583634626112
0.000498552138664
0.0578312758256
0.0582536501057
0.000413845859826
0.000460675901246
0.0607678797286
0.000229667318883
0.000338400856021
0.0616349951678
0.000260839557987
0.061489576678
0.000296926376917
0.998582045458
0.998549852059
0.863870567099
0.866163281917
0.998525476808
0.998607858563
0.863470775664
0.998491862541
0.998265966063
0.862345708028
0.859057271605
0.998438976363
0.998302339178
0.861521887248
0.860367736061
0.857582241255
0.998376126367
0.998501550383
0.858142482662
0.998344930463
0.860676753788
0.997653520798
0.85642864587
0.855775403402
0.997838899182
0.855639772977
0.997735352942
0.855703998818
0.997977870698
0.997894266764
0.854882932585
0.854881224788
0.997830657523
0.998105591681
0.855482705638
0.997967911175
0.997946740651
0.856309243496
0.856610858336
0.856874214311
0.997924388239
0.856599522935
0.856972852958
0.856787861852
0.998034865163
0.998047524014
0.855316507512
0.998090025311
0.856364764513
0.999999777547
0.999984689476
0.0625453768428
-2.18699997119e-27
0.999986215861
0.85519057993
0.999980612079
0.999980109163
0.852778444214
0.856237363078
0.849984981792
0.99998255781
0.999986352232
0.84793447441
0.845467048924
0.0589831916587
0.0627205342709
0.064064964597
0.000274166964392
0.000275092548001
0.000275510576854
0.0653840852284
0.0663079002228
0.997919245058
0.99819171112
0.85564229204
0.853108070972
0.998137088885
0.853381283165
0.997984938616
0.998182768413
0.997910724364
0.851646085458
0.853874300945
0.997918713282
0.99818159977
0.852630831444
0.998045735106
0.998077199489
0.853819222481
0.854526662999
0.998077113265
0.852243766204
0.998054609849
0.997999844884
0.997943617029
0.849415292146
0.852408815024
0.997966622472
0.850745468178
0.997998740668
0.997982359048
0.997869359123
0.84806762121
0.846636381176
0.997962676194
0.846882667854
0.997819890854
0.998024200442
0.997843859643
0.845036528699
0.845993021389
0.998074584393
0.845567351835
0.997827130316
0.999998389447
1.00000234547
1.00000056919
0.999999687287
0.0496901507962
0.0562397241769
0.0482069804566
0.0533732951602
0.0523213863634
2.09601114329e-06
3.73871412685e-06
9.30098364443e-07
-3.76278835227e-25
6.61744490042e-25
-3.37395512751e-27
1.00000182933
0.999998712909
0.876123118134
0.880620956854
1.0000098629
0.881119367302
0.999994551728
0.999999286144
0.882905643816
0.888958990837
0.999999668122
1.00000810461
1.00001105684
0.883019599995
0.886522116414
0.889433180802
0.890445284128
1.00001134045
1.00000935862
0.887449365664
0.889601878539
0.890294760305
0.888631586715
1.00000120338
1.00000366484
0.890046207927
0.890709039268
0.892346149758
1.00000001817
1.00000230298
1.00000246345
0.89049338376
0.888507393291
0.891866601284
0.88883139208
0.891685273477
0.888278979892
0.0463456884476
0.0461366900876
0.0505916907685
0.000243480464842
0.000161564657249
0.000199988000034
0.000136580184957
0.000133058278777
0.000116962804508
9.1521023257e-05
8.69127271768e-05
0.0452224691075
0.0446743182961
0.0534916809405
0.0486540081015
0.0521659165439
0.000162049278128
0.000109325923466
0.000166671813786
0.000123519644305
0.0565465028237
0.0545401014458
0.0552488754062
5.04251331233e-05
5.44572099656e-05
6.46246833794e-05
6.31540641147e-05
0.0512366178435
0.050890412551
0.000167736142481
0.000126348868949
0.000132726651575
0.0541781938322
0.0526091576926
0.0535880512985
9.08066427484e-05
7.13371641141e-05
0.00010799652763
9.40749259855e-05
0.998964405958
0.998977631555
0.87381099495
0.876287007908
0.99896970731
0.874675705331
0.998972283167
0.999046768467
0.999053462288
0.878422676144
0.880112982952
0.999001931351
0.999083810439
0.877548626413
0.99898468736
0.999046004283
0.879063976011
0.882075071193
0.999000374744
0.998990053033
0.880516758178
0.999206758589
0.999120413796
0.88260692138
0.885382797163
0.99916414798
0.999149353466
0.884820284385
0.9992983445
0.999274075013
0.887371597914
0.888687762094
0.999256585206
0.9993204659
0.886941369202
0.99895771107
0.999058039193
0.883504600747
0.885941765896
0.998959897493
0.999069032701
0.886248796565
0.998874365226
0.998948225002
0.884637515518
0.888195112781
0.998935104165
0.998883502111
0.886612788743
0.999093773847
0.999222345207
0.887806400448
0.889776790454
0.999201924921
0.999141200393
0.887869242147
0.998952589005
0.998970509066
0.888874353648
0.889895681879
0.998909847741
0.999043701963
0.8880283407
0.998958998906
0.998954588279
0.889019683005
0.888937212288
0.998960394894
0.99891672443
0.889851507927
0.998983219292
0.998945286363
0.889613076158
0.889362941443
0.998964433601
0.889667567958
0.998982316912
0.998911565249
0.998923950655
0.889220985277
0.890172823519
0.998914780066
0.99891340648
0.889728943683
0.998915622844
0.998873730515
0.888805644232
0.889587601934
0.998903774678
0.889412215858
0.998905652277
0.999274786315
0.99929882914
0.89023213611
0.891141365484
0.999227463833
0.999321875664
0.891421464287
0.999191995059
0.999036901988
0.890325559804
0.891587431331
0.999131192089
0.999103235386
0.891451373652
0.999243242296
0.999208562783
0.891601676004
0.892473909615
0.999162652973
0.999306146146
0.891595225049
0.998945200576
0.998946115961
0.890104226301
0.891189755877
0.998880932653
0.999012767191
0.890556886343
0.99888946426
0.998800685605
0.889372509147
0.888615666999
0.998840411511
0.889648590894
0.998830375795
0.999018086359
0.999128281569
0.891241458053
0.891099626694
0.999084838722
0.999076451889
0.890490102411
0.998965717824
0.99898112817
0.888403351666
0.890001594855
0.999032544645
0.889485683537
0.998914703465
0.999113710026
0.999158287062
0.890665608397
0.891793869463
0.999105358471
0.999173683044
0.890741703364
0.999021979422
0.889501126234
0.999065493253
0.999999551295
0.999999399283
0.999998615369
0.999988711104
0.999991309638
0.99999355319
0.999999683654
0.999999558649
0.999998498694
0.999988712251
0.999991850754
0.999995088192
0.999980951505
0.999960515407
0.999997762323
0.999992245046
0.999943693687
0.999942871371
0.999978046426
0.999995241351
1.00000252603
1.00000185457
0.999993618774
0.999993362385
0.999993445978
0.999985874704
0.999979809399
0.999979807855
0.999995431511
0.999996268657
0.999998021428
0.999998045609
0.999993569603
0.999985005067
0.999989768215
0.999996267523
0.999997330977
0.99999956173
0.999999441725
0.999996604244
0.999989567199
0.999988691609
0.999995044881
0.999997810842
0.999990302728
0.999988712251
0.999992711299
0.999997790554
0.999759040919
0.999960944693
0.999980992658
0.999896083666
0.999897494267
0.999961195655
0.999991441714
0.99999173078
0.999926341698
0.99992397565
0.999990690701
0.999981722484
0.999921038303
0.999933537414
0.999977517071
0.999996186166
0.999973605611
0.99997179402
0.999986834701
0.99999379543
0.999986663479
0.999974209907
0.999979911599
0.999994861364
0.999998963805
0.999999089784
0.999998866224
0.999997649568
0.999996467252
0.999996493106
0.999997125147
0.999997471523
0.999993858781
0.999991745006
0.99999453345
0.999997879096
0.999772397464
0.999871404287
0.999983681711
0.999930122765
0.999935678431
0.999979532362
0.999998304345
0.99999778219
0.999753171584
0.999696565288
0.999987441016
0.999987807372
0.999967639465
0.999970222289
0.999989336566
0.999999271213
0.999999984936
1.00000039278
1.00000060142
1.00000021543
0.999999281821
0.999998346823
0.999998527986
0.999999597361
1.00000082866
1.00000106374
1.00000063388
1.0000003401
1.0000002836
1.00000011585
1.00000007289
1
1.00000011311
1.00000154238
1.00000109989
1.00000054151
1.000000286
1.0000004081
1.00000050848
1.00000069242
0.99999940413
0.999999582497
1.00000012277
0.999897011639
0.999764755938
0.999952808407
0.999994134168
0.999995409268
0.999999560348
1.00000673762
0.999998231484
0.99999871992
0.999986109918
0.999983270338
0.999985093208
0.999993221449
0.999993561426
0.999992039426
0.999984686861
0.999960394819
0.999997688806
0.999992398234
0.999992460077
0.999992809333
0.999991377735
0.999987917392
0.999989444649
0.999991349053
0.999989881591
0.999979818812
0.999996697287
0.999991876424
0.999985347917
0.999979227991
0.999981189058
0.999988795992
0.999990746974
0.999990669063
0.999988645853
0.999983695848
0.999973549844
0.999973757585
0.999973611773
0.999980739875
0.999985615459
0.999985226157
0.9999875608
0.999989613136
0.999991001449
0.0507136405264
0.0533664452503
0.0573838286195
0.0602808921633
0.0662431424044
0.0696705056653
0.0698711981229
0.0698902362367
0.0542864538814
0.0515258084271
0.0521130562541
0.0539063749292
0.0564944769769
0.0577029014837
0.061550287886
0.0644135188577
0.0661646991058
0.0664832270515
0.0538854643441
0.0541046593253
0.0548766091667
0.0551360707474
0.0563446706546
0.0576462683065
0.0589857587689
0.0616345492007
0.0630830714373
0.0641803946849
0.0558414676721
0.0569711944383
0.0571517851067
0.0577631549939
0.0583697963495
0.0590350057357
0.0616824878255
0.0630022259028
0.0650105232661
0.0588838837205
0.0595757479743
0.0589982115306
0.0614515032445
0.0633965923134
0.0652986924928
0.0669040501892
0.0650355808676
0.0668989569436
0.0669095480457
1.26901590895e-06
4.41426718569e-07
8.0694527168e-27
1.19269218813e-06
3.62476307196e-05
2.6768845796e-05
-9.82790203256e-27
-4.99755880549e-29
-1.50386707085e-27
5.57564658722e-05
2.05265102925e-05
1.28665710778e-05
2.70231925098e-07
1.97601839704e-07
6.36714794153e-07
6.20357784814e-05
-6.61986537172e-27
-5.13103962725e-26
-1.84405840499e-26
3.90060574642e-05
2.79248975145e-05
7.56219954267e-07
-4.48415508584e-45
7.73465791063e-07
1.92360575413e-07
1.47551652051e-25
4.37738406911e-05
-1.69686317041e-24
-1.56631922979e-24
4.84983628234e-05
1.57239731006e-06
-2.32645006015e-26
2.08892283674e-06
-1.01580083765e-27
-1.28635216408e-28
1.02188965771e-05
-7.59789848015e-25
-8.52704177672e-25
6.01981473316e-05
5.14941230692e-07
4.13590306277e-26
4.77911851778e-05
-1.75238606814e-26
-1.07052336424e-25
-1.62323103579e-25
6.09594796851e-05
-2.28251971158e-27
-4.4507621038e-26
6.96512947216e-05
0.999953004922
0.999998086264
0.99999863665
0.999839832508
0.999829580659
0.999928425739
0.999908496324
0.999986358781
0.999998135204
0.999997424774
0.999927053977
0.999991835913
0.999939853544
0.999985172485
1.00000272414
0.999996240232
0.999999816635
0.999996518508
0.999997273026
0.999999141566
1.00000019221
1.00000030086
0.999999866352
0.99999872864
0.999996880764
0.99999718892
0.999999945786
0.999995811345
0.999832970745
0.999822313045
0.999790193945
0.999777966157
0.999751028394
0.999756622678
0.999747081728
0.999997802383
0.999917739053
0.999988592246
0.999917860967
0.999991249536
0.99991502691
0.999990472702
0.999900405866
0.999991798439
0.999991855053
0.99988224134
0.999752044877
0.999986072767
0.999876320631
0.999973260734
0.999986841658
0.999974600072
0.999838193456
0.999952389235
0.999842466029
0.99991547848
0.999688515048
0.999767713209
0.999676689684
0.999610995275
0.999583397612
0.999692826104
0.999583591009
0.99997952993
0.999864526111
0.999977337252
0.999704210818
0.999928559588
0.999710144227
0.999928232142
0.999684292742
0.999963367834
0.999922115661
0.999893001467
0.999865174194
1.00000226097
1.00000117219
0.999898471137
0.999906458624
0.999931184364
0.999865984571
0.999911349381
1.00000015597
1.00000013668
1.00000770851
0.999988099944
0.87786452415
0.877556228769
0.999730072379
0.9999264125
0.999872469532
0.87816279101
0.88005991421
0.877545092807
0.878492562322
0.99986944696
0.999881266245
0.999920212664
0.879956661488
0.875610382863
0.878140291533
0.873571052074
0.999992111986
0.999968446047
0.999994564334
0.871803183619
0.852853949601
0.870385113532
0.856857717773
0.999996755788
0.999995958898
0.999993484764
0.847370945581
0.834785218114
0.85423048109
0.850428174753
0.999999581001
0.99999368164
0.999991793926
0.832726948642
0.835364637018
0.849283491165
0.847956681037
1.00000278422
0.999990782404
0.999990811174
0.837767490111
0.844464340008
0.84807681998
0.847441619289
1.00000825065
0.999993899996
0.999999075981
0.844885357645
0.838286585691
0.845557552105
0.831908218429
0.999856678978
0.999994234596
0.999942190219
0.843447842888
0.790764803462
0.835822401514
0.830367958397
1.00000433978
0.999998553989
0.889117030804
0.884326577804
0.887364122261
0.882758738615
0.99998927463
0.999993557163
0.999992013166
0.882533704605
0.877808793897
0.881038036017
0.876407390961
0.999985597909
0.999995199516
0.999999337817
0.877364907499
0.877903238902
0.875092454338
0.873913696785
0.999981662761
1.00000006486
0.999999006508
0.877660138593
0.874753674154
0.873360522624
0.871395363491
0.999991540115
0.999996377173
0.999991708881
0.871405648367
0.858097649572
0.870044288317
0.864669204979
0.999995036054
0.999990655178
0.999988924601
0.857925909945
0.855718962835
0.863809859436
0.862087771918
0.999992597053
0.99998858146
0.999988765821
0.854226642138
0.850773108362
0.86169020828
0.860546102665
0.999989367049
0.999987547675
0.999987260029
0.85013248927
0.848159458544
0.859251591628
0.849771378809
0.999975803506
0.999985299295
0.999982001034
0.845593363549
0.830853120996
0.846430545128
0.837678704593
0.999936369819
0.999968287491
0.999970308242
0.834827359681
0.833021799386
0.841343181717
0.835368369242
0.999996219184
1.00000053689
0.999999286961
0.8872968531
0.882680920876
0.887526705048
0.881967143939
0.999992863442
0.999996315563
0.999992202406
0.881075711493
0.874309927109
0.87919087146
0.869570772789
0.999992950244
0.999992523602
0.999992108008
0.872606587835
0.871799330372
0.867926978377
0.86814994532
0.999992921248
0.999993973737
0.999993016367
0.871761887095
0.870677013453
0.86814431357
0.867094878072
0.999990174352
0.999992970469
0.999991081507
0.869997429312
0.865927181128
0.866490745894
0.865374052342
0.999988337406
0.999989591831
0.999989153417
0.864412125824
0.861676742287
0.864697412588
0.864341654332
0.99999117266
0.999989693578
0.99999254319
0.862182681958
0.862506023788
0.864966091959
0.860392302179
0.999990518484
0.999991681721
0.999991455497
0.859192700944
0.849684514886
0.855307177943
0.847537705064
0.999987402597
0.999991906462
0.999990126225
0.847656032453
0.841198432766
0.847090454513
0.844327118453
0.999982446903
0.999984376018
0.999986189622
0.844546456368
0.835202954899
0.847352155541
0.835297406512
0.886815810113
0.880413858145
0.99999445616
0.999993737492
0.877853221689
0.868634660691
0.867974805385
0.999989174736
0.99999048573
0.999987085702
0.867131134538
0.866644727369
0.866113698078
0.861880780038
0.99998066728
0.999984342515
0.999980094466
0.866313994883
0.864582062715
0.860420200151
0.857132729804
0.999979623743
0.999981213063
0.999982854531
0.864641205544
0.864665880095
0.857955371852
0.861558699416
0.999983633428
0.999984974414
0.999988498405
0.864072546508
0.864131837373
0.860780481886
0.857878958614
0.999989442729
0.999989811032
0.999990091129
0.864313404381
0.857520818099
0.857098551171
0.852064647437
0.999991100208
0.999990364259
0.999990683588
0.854228501746
0.848167369385
0.850263587705
0.846006925093
0.999990059724
0.999991303927
0.999990021238
0.84731001462
0.84319957396
0.844844522173
0.840058119724
0.999991251771
0.999988477417
0.999990866273
0.846419971
0.835283616013
0.843775871859
0.83481583365
0.999976153909
0.999982842485
0.858443103784
0.856280096337
0.853659001968
0.999972883569
0.999982809115
0.999982120912
0.857394788457
0.85982469857
0.854448677484
0.857423123577
0.999972360266
0.999981674703
0.999980834819
0.859762440135
0.855920030375
0.857551330142
0.853616246961
0.999976562747
0.99998100371
0.999983249636
0.854650119778
0.851580672242
0.852549653746
0.849084031101
0.999985088754
0.999986480806
0.999989110357
0.849458424886
0.844925224939
0.847269562381
0.842964592687
0.999985452052
0.999989102932
0.999987433793
0.844087224782
0.839273967555
0.842723075293
0.837788785734
0.999989905812
0.999987208724
0.999992904199
0.843389147823
0.834686830633
0.842228360181
0.834491070566
0.999986506327
0.848949737187
0.999989310385
0.847185553206
0.84343004347
0.999990275596
0.842748259149
0.836824517355
0.999995586523
0.841507282894
0.834916674857
9.40024526723e-05
4.76628630634e-05
0.000100008823261
4.70568361473e-05
0.049268056048
0.0504400188612
1.12355779237e-05
9.20052497637e-06
1.45087311784e-05
1.50451676178e-05
0.0520930493133
0.0514349546038
0.0523670968578
1.38851917433e-05
2.29478410681e-05
3.13101157085e-05
3.04031847562e-05
0.0555988389543
0.0534969383101
0.0554885951865
4.4634251372e-05
0.000131041938237
4.41680295569e-05
0.000121451280607
0.0586530778999
0.0566019692997
0.0577133522325
0.000688963826642
0.00117397433569
0.00066448477879
0.00112033729827
0.0623569635973
0.0592756160109
0.0611819081216
0.00118779482757
0.00102134138347
0.00112710005834
0.000825024115234
0.0685859531387
0.06382475714
0.0655760489024
0.000541383893556
0.000408559462885
0.000384321395144
0.000305342961581
0.0699482335136
0.0670934990746
0.0678127585177
0.000404096416123
0.000400499421328
0.00032046854146
0.000342915618134
0.0699044502722
0.0679653728555
0.0685965202145
0.00049834090628
0.000501941837101
0.000383698801561
0.000382014850202
0.0726047044207
0.0675247089561
0.0719636925799
0.000496319986292
0.00130957938716
0.000462416180528
0.000752802152429
0.0523609307407
0.0540144336294
0.0531602364599
0.000225760187721
0.000231307748343
0.000285407673052
0.000312022608508
0.0515705050362
0.0531868320734
0.0530956310437
0.000185462099129
0.000150563846387
7.98573558038e-05
9.47704495536e-05
0.0527530995805
0.0531927239141
0.0534169997427
5.38531774618e-05
2.84265211741e-05
5.16183226441e-05
3.83498771476e-05
0.0552422936012
0.0543025461728
0.0553902241229
1.88622010363e-05
4.73506391799e-05
3.93946663638e-05
8.37666461188e-05
0.0573671500562
0.0562826414383
0.0568691032992
0.000284670458116
0.000834845353124
0.000227578739847
0.000464347338269
0.0594938840111
0.0571591873983
0.0586494172462
0.0013605328945
0.0009263280382
0.000796817586558
0.000740251184688
0.0628880742579
0.0602355302958
0.0612939550422
0.000335075405317
0.000257960177548
0.000296218913406
0.000214850131946
0.0655076782445
0.0624770152074
0.0635725752022
0.000237274990456
0.000203758135692
0.000187851434124
0.000175551934212
0.0672498557549
0.0643647245999
0.0652447264872
0.000235734984306
0.000228725999032
0.000159990510354
0.00016773442737
0.0712455411577
0.0650571407413
0.0696785368274
0.000346583846289
0.000602879144357
0.000295146270921
0.000651200554221
0.0535698831255
0.0538027419815
0.0539507503944
0.000257545636702
0.000255764996354
0.000265816893556
0.000377942880989
0.0545536171882
0.0550607434776
0.0556170538362
3.1862951083e-05
0.000104203635178
0.000113593988376
0.000220737943777
0.0548062533963
0.0560215091573
0.0559415630218
0.000107545672537
5.82722581609e-05
0.000207551011806
0.000161016050357
0.055828016421
0.0560700875902
0.0564968368421
7.90559995416e-05
0.00012078792837
0.000145776088148
0.000188738837629
0.0567312600818
0.0568903784796
0.0571289292781
0.000191432495535
0.000220711754401
0.0002146261483
0.000197299153751
0.0583703914548
0.0577289359562
0.0580210137533
0.000255684338382
0.000406761843552
0.000240295137929
0.000392433739763
0.0602056887961
0.0582903217876
0.0597515866061
0.000674469294134
0.000483565757488
0.00085889719211
0.000845199294798
0.0624413836055
0.061461723538
0.0620937159719
0.000228443636141
0.000176605389518
0.000271699913961
0.000178191403136
0.0638525324901
0.0626781517296
0.0635963572266
0.000155741583567
0.000159934363472
0.000152807183191
0.000154653541701
0.0684215639798
0.0642845312511
0.0683028812474
0.000297333633429
0.00079643600555
0.000287534708386
0.00099435315727
0.0566472459286
0.0572286267071
0.000190948177448
0.000302710727064
0.000364937253519
0.0570001137696
0.0576053094245
0.0578316421215
0.000282885088133
0.000273094852049
0.000360750088575
0.000376992845108
0.0575314035207
0.0581600346863
0.0585827132687
0.000298125448925
0.000316706369554
0.000442300431116
0.00047542473752
0.05796082009
0.0588159548721
0.0588824839484
0.000342522639364
0.000345374089263
0.000497036437609
0.000552187950568
0.0585396404991
0.0592178020582
0.0595376724682
0.000356529954696
0.000470218498428
0.000546331811931
0.000541430998688
0.0601378237876
0.0598249314459
0.06110056881
0.000709460534072
0.000732297398812
0.000670914725117
0.000559416156717
0.0623381077028
0.0625102469192
0.0633093463718
0.000272678292256
0.000189980268185
0.000269266044231
0.000208201122566
0.0643072029044
0.0641173112635
0.0656388840219
0.00016286309578
0.000164704329311
0.000179098580111
0.000180698919149
0.0685123861395
0.0660328593152
0.0689263065068
0.000297436867256
0.00114524915022
0.000311496282804
0.00122938337559
0.0592983707302
0.0594995637296
0.000532773962579
0.000526726792952
0.000591616560388
0.000568658739164
0.0594791138075
0.059903174526
0.0596998156405
0.000477674303976
0.000662285298269
0.000481407799248
0.000635618077787
0.0602609661041
0.0595079474075
0.0609838752339
0.0011652983317
0.000605535383812
0.00105544493992
0.000486472097388
0.0624581292034
0.0623059963003
0.0633824599989
0.000322901689347
0.000306657488155
0.000278024272776
0.000290769816928
0.0644183375166
0.0644934088079
0.0656195834063
0.000298225792327
0.000298420192895
0.000319854215346
0.000356087856822
0.0669065459936
0.066406075783
0.0677596737566
0.00027071643011
0.000257153576206
0.000322664784211
0.000329828822068
0.0690407212167
0.0671912927179
0.0692341942953
0.000363995623396
0.00120971933543
0.000441316045864
0.00119996574431
0.0637947699807
0.000284284678671
0.0662246428375
0.000305341125843
0.000346200849339
0.00028523122755
0.0002810342252
0.0680521065641
0.000332988099465
0.000346372872336
0.000254674016705
0.000274714347859
0.0689415271829
0.000484796932017
0.00126200537414
0.000434081199868
0.00134141934257
0.998934655772
0.999046358382
0.87841751197
0.878219661566
0.998988473801
0.879298542977
0.998939369564
0.998876248133
0.998874888411
0.877364002922
0.878926550719
0.998919614926
0.998831181355
0.878263176864
0.999196313603
0.99918928728
0.878906624862
0.878354004235
0.999088254575
0.878937686678
0.99928005983
0.999256807109
0.999298820159
0.879203139626
0.87985317589
0.999265679022
0.879216353047
0.999299655354
0.999135895773
0.998953509889
0.877594681395
0.878071537637
0.999010848913
0.999058384407
0.878272566941
0.999223769611
0.999188740827
0.879321879198
0.878286306204
0.999245423718
0.999152966792
0.878621729327
0.999254314251
0.999298402776
0.87965953178
0.879637028883
0.999268285276
0.879303735426
0.999295401364
0.999202794263
0.999178031575
0.877788102357
0.874959908464
0.999114350122
0.87739238165
0.999263836319
0.999236985319
0.999190620103
0.879184073771
0.877604368891
0.999246097877
0.999186147922
0.878896524693
0.999194736376
0.999096647127
0.874260419519
0.875683093069
0.999111613943
0.999160894924
0.877000413297
0.998844102485
0.999058337405
0.866256082074
0.870995810241
0.998995565382
0.865147005518
0.998873345722
0.998700778793
0.998464755361
0.86000948012
0.853224986611
0.998516066401
0.859099915218
0.998688218021
0.998887719142
0.999013303272
0.870645310009
0.86585339816
0.998984347665
0.998933051026
0.865635000585
0.998804788295
0.998772321473
0.855641151171
0.861268673862
0.998699806202
0.998862792792
0.860671613771
0.99816713564
0.998206705725
0.841187810957
0.848624255002
0.998349254943
0.844446803212
0.99795469028
0.997947077408
0.997478672551
0.838128977324
0.839427610193
0.997742216873
0.841975560481
0.997690560449
0.998408822344
0.998658155935
0.852322670247
0.85188227607
0.99856355563
0.998527299305
0.848545174431
0.998211438457
0.998150349805
0.845307675767
0.851223380524
0.997983423125
0.998355867251
0.846875004402
0.997272192037
0.997181283915
0.833060704042
0.837660766459
0.997476922654
0.837729423566
0.997091132144
0.997265021972
0.997184030219
0.833749741023
0.839376401285
0.997315433325
0.83817652894
0.997100855105
0.997421287418
0.997866965685
0.843650337832
0.847963850303
0.9976770032
0.997567140405
0.842182015119
0.997395283658
0.997483231796
0.842851317608
0.847639630056
0.997425524858
0.997471551514
0.842251528947
0.997633900217
0.997350588597
0.840881937568
0.840955427829
0.997433659431
0.843325626431
0.997582053287
0.997846944017
0.998051937258
0.842756053351
0.845929100762
0.998092987369
0.84459994861
0.99781273648
0.997706560497
0.997552531772
0.843543187213
0.848338619591
0.997529903528
0.997710709291
0.844575967763
0.997919003775
0.998155965087
0.845654498358
0.848098965568
0.99816058622
0.997926292109
0.845079212185
0.998199845809
0.998191013654
0.84432190334
0.844876345003
0.998220128489
0.843196093508
0.998201478054
0.998024602097
0.997905462865
0.841666769308
0.834927127557
0.997815720645
0.839827957488
0.998076680896
0.998138911588
0.998122150391
0.844735813961
0.842899200765
0.998166162086
0.998042212895
0.843033123495
0.997927883746
0.997583240475
0.833588520663
0.838258132214
0.997691106347
0.997795339886
0.839094064451
0.996378398291
0.997443323781
0.839179547406
0.838306874478
0.99735812258
0.836341267058
0.996267915093
0.99324118365
0.990624007807
0.821277682115
0.829610590704
0.820177860289
0.992303788857
0.991603311968
0.996407472241
0.997273279503
0.837785775071
0.833565052373
0.997304189143
0.996539269184
0.83413559219
0.993712470426
0.995244786429
0.828392566215
0.803147106418
0.994479739664
0.799806643969
0.994436110602
0.99885492049
0.998888043726
0.887959052429
0.888658013914
0.99880783497
0.887227495522
0.998952168846
0.998731760753
0.998681785532
0.886332565605
0.883588198982
0.998747399354
0.998634109631
0.885540258608
0.998749877015
0.998801352135
0.887769364757
0.885845295866
0.9986808808
0.886358876934
0.998858652894
0.998620108847
0.998514880278
0.883272520042
0.884336160023
0.998547784362
0.998578602851
0.884834593685
0.998609002361
0.998650897012
0.880774843701
0.881994618362
0.998652789441
0.998613262762
0.880457483391
0.998614225068
0.998716136417
0.879191885869
0.877654789134
0.998672841949
0.998654211697
0.878949325834
0.998533719308
0.998508801797
0.881637367099
0.879569845059
0.99853997506
0.998515436167
0.880201560637
0.998541691355
0.998578228122
0.877525200255
0.877964190705
0.998572052157
0.998535708623
0.878880019782
0.998809971172
0.998785730915
0.877462338379
0.876994956452
0.998878637207
0.998729030117
0.876551465107
0.998871131247
0.999004849124
0.877743682751
0.876276991198
0.998967718363
0.998909045681
0.876296982168
0.998703956289
0.998646047581
0.876705462034
0.873778296159
0.998627905361
0.998728919486
0.875976555681
0.99877828864
0.998832693178
0.875283176453
0.873972530856
0.998825087564
0.998808893115
0.875603213505
0.998918403575
0.999008044168
0.877052299161
0.876021708958
0.99900355349
0.998924791069
0.875487727877
0.998900192786
0.998905789916
0.876158424879
0.873537296311
0.998974581441
0.998860372654
0.874531081211
0.998830410299
0.998837760547
0.874994833889
0.872540833409
0.998834276145
0.99883355085
0.87460094964
0.998814727221
0.998756858702
0.873163181198
0.871833674874
0.998772943503
0.998812389171
0.873894592124
0.998705133498
0.998828881768
0.86651782983
0.870825327292
0.998725236011
0.998787337917
0.867348864583
0.998592684793
0.998511190248
0.862269190581
0.859959110703
0.998611131436
0.998475419626
0.863759104465
0.998586189559
0.9986737715
0.871193698807
0.868337211626
0.998692429011
0.998570108998
0.868840791217
0.998455364773
0.998334902866
0.862952121247
0.866627240937
0.998327986363
0.998454464099
0.866224621612
0.998176080341
0.998384070058
0.857384019441
0.859613175254
0.998215890348
0.998347713759
0.859301257651
0.997963404651
0.997769390137
0.856768156001
0.858274169921
0.998012785212
0.997712248573
0.858820054752
0.998073219839
0.998209079436
0.862637885034
0.863039476341
0.998204194002
0.99809206074
0.861942487322
0.997940215259
0.997798097371
0.860737957713
0.862258277429
0.997775971265
0.997955034307
0.86119909167
0.997171416024
0.9974713781
0.852480474813
0.857421498096
0.997160655486
0.997411539952
0.856411099454
0.997124216529
0.997140532734
0.851397336736
0.855315626849
0.99710716318
0.997137068663
0.855609242791
0.997521235244
0.997682675212
0.85999054214
0.861207715456
0.997603427746
0.997661891472