/*--------------------------------*- C++ -*----------------------------------*\
| =========                 |                                                 |
| \\      /  F ield         | OpenFOAM: The Open Source CFD Toolbox           |
|  \\    /   O peration     | Version:  v1906                                 |
|   \\  /    A nd           | Web:      www.OpenFOAM.com                      |
|    \\/     M anipulation  |                                                 |
\*---------------------------------------------------------------------------*/
FoamFile
{
    version     2.0;
    format      ascii;
    class       volVectorField;
    location    "11.7";
    object      force.turbine;
}
// * * * * * * * * * * * * * * * * * * * * * * * * * * * * * * * * * * * * * //

dimensions      [1 -2 -2 0 0 0 0];


internalField   nonuniform List<vector> 
28582
(
(0 0 0)
(0 0 0)
(0 0 0)
(0 0 0)
(0 0 0)
(0 0 0)
(0 0 0)
(0 0 0)
(0 0 0)
(0 0 0)
(0 0 0)
(0 0 0)
(0 0 0)
(0 0 0)
(0 0 0)
(0 0 0)
(0 0 0)
(0 0 0)
(0 0 0)
(0 0 0)
(0 0 0)
(0 0 0)
(0 0 0)
(0 0 0)
(0 0 0)
(0 0 0)
(0 0 0)
(0 0 0)
(0 0 0)
(0 0 0)
(0 0 0)
(0 0 0)
(0 0 0)
(0 0 0)
(0 0 0)
(0 0 0)
(0 0 0)
(0 0 0)
(0 0 0)
(0 0 0)
(0 0 0)
(0 0 0)
(0 0 0)
(0 0 0)
(0 0 0)
(0 0 0)
(0 0 0)
(0 0 0)
(0 0 0)
(0 0 0)
(0 0 0)
(0 0 0)
(0 0 0)
(0 0 0)
(0 0 0)
(0 0 0)
(0 0 0)
(0 0 0)
(0 0 0)
(0 0 0)
(0 0 0)
(0 0 0)
(0 0 0)
(0 0 0)
(0 0 0)
(0 0 0)
(0 0 0)
(0 0 0)
(0 0 0)
(0 0 0)
(0 0 0)
(0 0 0)
(0 0 0)
(0 0 0)
(0 0 0)
(0 0 0)
(0 0 0)
(0 0 0)
(0 0 0)
(0 0 0)
(0 0 0)
(0 0 0)
(0 0 0)
(0 0 0)
(0 0 0)
(0 0 0)
(0 0 0)
(0 0 0)
(0 0 0)
(0 0 0)
(0 0 0)
(0 0 0)
(0 0 0)
(0 0 0)
(0 0 0)
(0 0 0)
(0 0 0)
(0 0 0)
(0 0 0)
(0 0 0)
(0 0 0)
(0 0 0)
(0 0 0)
(0 0 0)
(0 0 0)
(0 0 0)
(0 0 0)
(0 0 0)
(0 0 0)
(0 0 0)
(0 0 0)
(0 0 0)
(0 0 0)
(0 0 0)
(0 0 0)
(0 0 0)
(0 0 0)
(0 0 0)
(0 0 0)
(0 0 0)
(0 0 0)
(0 0 0)
(0 0 0)
(0 0 0)
(0 0 0)
(0 0 0)
(0 0 0)
(0 0 0)
(0 0 0)
(0 0 0)
(0 0 0)
(0 0 0)
(0 0 0)
(0 0 0)
(0 0 0)
(0 0 0)
(0 0 0)
(0 0 0)
(0 0 0)
(0 0 0)
(0 0 0)
(0 0 0)
(0 0 0)
(0 0 0)
(0 0 0)
(0 0 0)
(0 0 0)
(0 0 0)
(0 0 0)
(0 0 0)
(0 0 0)
(0 0 0)
(0 0 0)
(0 0 0)
(0 0 0)
(0 0 0)
(0 0 0)
(0 0 0)
(0 0 0)
(0 0 0)
(0 0 0)
(0 0 0)
(0 0 0)
(0 0 0)
(0 0 0)
(0 0 0)
(0 0 0)
(0 0 0)
(0 0 0)
(0 0 0)
(0 0 0)
(0 0 0)
(0 0 0)
(0 0 0)
(0 0 0)
(0 0 0)
(0 0 0)
(0 0 0)
(0 0 0)
(0 0 0)
(0 0 0)
(0 0 0)
(0 0 0)
(0 0 0)
(0 0 0)
(0 0 0)
(0 0 0)
(0 0 0)
(0 0 0)
(0 0 0)
(0 0 0)
(0 0 0)
(0 0 0)
(0 0 0)
(0 0 0)
(0 0 0)
(0 0 0)
(0 0 0)
(0 0 0)
(0 0 0)
(0 0 0)
(0 0 0)
(0 0 0)
(0 0 0)
(0 0 0)
(0 0 0)
(0 0 0)
(0 0 0)
(0 0 0)
(0 0 0)
(0 0 0)
(0 0 0)
(0 0 0)
(0 0 0)
(0 0 0)
(0 0 0)
(0 0 0)
(-0.00367126546534 0.00010793310131 0)
(0 0 0)
(0 0 0)
(0 0 0)
(0 0 0)
(-2.33469976418e-05 7.61917879165e-07 0)
(0 0 0)
(-2.31485147962e-06 9.86073094423e-08 0)
(0 0 0)
(0 0 0)
(0 0 0)
(0 0 0)
(0 0 0)
(0 0 0)
(0 0 0)
(0 0 0)
(0 0 0)
(0 0 0)
(0 0 0)
(0 0 0)
(-0.0157321591292 0.000517638434745 0)
(0 0 0)
(0 0 0)
(0 0 0)
(-0.0269416038476 0.000801467141279 0)
(0 0 0)
(0 0 0)
(-0.027977030691 0.000888535643934 0)
(-0.12538410443 0.00398213260009 0)
(-0.0733113849591 0.00218088969234 0)
(-1.23936677893 -0.0971548242397 0.0237485218263)
(-0.00542450163216 0.000125829905387 0)
(-0.0734089369731 0.00218379169975 0)
(0 0 0)
(0 0 0)
(0 0 0)
(0 0 0)
(0 0 0)
(-0.0157321646306 0.000517638615759 0)
(0 0 0)
(0 0 0)
(0 0 0)
(-0.0270018687079 0.000803259918931 0)
(0 0 0)
(0 0 0)
(0 0 0)
(0 0 0)
(0 0 0)
(0 0 0)
(0 0 0)
(0 0 0)
(-1.59126473078e-05 4.54752867648e-07 0)
(0 0 0)
(-9.44434547413e-06 2.69901236691e-07 0)
(-0.000131797169469 3.99165755422e-06 0)
(-0.000582301212041 1.7635788699e-05 0)
(-7.70147928489e-05 2.332498345e-06 0)
(-0.000343702383442 1.04094968109e-05 0)
(0 0 0)
(0 0 0)
(-0.000371460285735 9.48862765095e-06 0)
(0 0 0)
(0 0 0)
(0 0 0)
(0 0 0)
(0 0 0)
(0 0 0)
(-0.0165416496059 0.000486315021241 0)
(-0.000750144833681 2.04445344334e-05 0)
(-0.00360771669522 0.000106064803877 0)
(-2.65505339032e-05 7.78932930362e-07 0)
(-0.000122673918638 3.71534742368e-06 0)
(-3.36800419023e-06 1.43469174724e-07 0)
(-2.68715258452e-05 7.8835011176e-07 0)
(0 0 0)
(0 0 0)
(0 0 0)
(0 0 0)
(0 0 0)
(-0.000376139915199 9.60816468692e-06 0)
(0 0 0)
(0 0 0)
(0 0 0)
(0 0 0)
(0 0 0)
(0 0 0)
(0 0 0)
(0 0 0)
(0 0 0)
(0 0 0)
(0 0 0)
(0 0 0)
(0 0 0)
(0 0 0)
(0 0 0)
(0 0 0)
(0 0 0)
(0 0 0)
(0 0 0)
(0 0 0)
(-0.0049712544701 0.000107563076541 0)
(0 0 0)
(0 0 0)
(0 0 0)
(0 0 0)
(0 0 0)
(-0.00417825995311 9.69213561418e-05 0)
(0 0 0)
(0 0 0)
(0 0 0)
(0 0 0)
(0 0 0)
(0 0 0)
(0 0 0)
(0 0 0)
(0 0 0)
(0 0 0)
(0 0 0)
(0 0 0)
(0 0 0)
(0 0 0)
(0 0 0)
(0 0 0)
(0 0 0)
(0 0 0)
(0 0 0)
(0 0 0)
(0 0 0)
(0 0 0)
(-0.0351706366106 0.00107655105352 0)
(-0.00790766417872 0.000205990690329 0)
(-0.0130899056364 0.000340985484138 0)
(-0.009953197242 0.000253697578805 0)
(-0.0188242666941 0.000576198957262 0)
(0 0 0)
(0 0 0)
(0 0 0)
(0 0 0)
(0 0 0)
(0 0 0)
(0 0 0)
(0 0 0)
(0 0 0)
(0 0 0)
(-0.00477947696612 0.000110867536822 0)
(0 0 0)
(-0.00775136201727 0.000197574882564 0)
(0 0 0)
(0 0 0)
(-0.147553520931 -0.000337149615701 0.000836810183778)
(-0.183983782033 -0.0153406209176 0.00368385319003)
(-0.268364159175 -0.0137370910354 0.00382649589532)
(-0.039306471209 0.00116930102944 0)
(-0.809164608723 -0.123527700262 0.0262777287255)
(-0.0511713622575 0.0015663231962 0)
(-0.0943881945769 0.0028078891259 0)
(-0.424471386097 -0.026120561738 0.00688079616031)
(-3.62663440391 -0.593819623402 0.12509741339)
(-0.685688866456 -0.0562797691102 0.0135716944125)
(-0.40321005824 0.00645761120765 0.000954774541739)
(-2.12648452013 -0.360179317954 0.0754724224883)
(-0.206865687919 0.00534187589082 0.000132325632944)
(-0.788111990308 -0.0488079657057 0.0128566923707)
(-0.0598099960764 0.0018062822656 0)
(-0.00878356776206 0.000223884830203 0)
(-0.0185729827414 0.000552514819349 0)
(-0.0185928412116 0.000553105575244 0)
(-0.0241715929864 0.000739877249957 0)
(-0.0241715597819 0.000739876233588 0)
(-0.0445796919458 0.00132617042642 0)
(-0.126618276495 0.00382391510344 0)
(-0.0986062815272 0.00297794330853 0)
(-0.179044490252 0.00528976515813 0)
(-0.0393351973388 0.00117015558321 0)
(-0.0511706995475 0.00156630291106 0)
(-0.0943416504878 0.00280650451799 0)
(-0.236551724428 0.00714394269787 0)
(0 0 0)
(0 0 0)
(0 0 0)
(0 0 0)
(0 0 0)
(0 0 0)
(0 0 0)
(0 0 0)
(0 0 0)
(0 0 0)
(0 0 0)
(0 0 0)
(0 0 0)
(0 0 0)
(0 0 0)
(0 0 0)
(0 0 0)
(0 0 0)
(0 0 0)
(0 0 0)
(0 0 0)
(0 0 0)
(0 0 0)
(-0.00478608254128 0.000111020763599 0)
(0 0 0)
(-0.0077511378663 0.000197569169168 0)
(0 0 0)
(0 0 0)
(0 0 0)
(-0.0351654473 0.00107639221199 0)
(-0.0131072381261 0.000341436986811 0)
(-0.00794318412778 0.000206915967207 0)
(-0.0188234554527 0.000576174125671 0)
(0 0 0)
(-0.00995215479476 0.000253671007812 0)
(0 0 0)
(0 0 0)
(0 0 0)
(0 0 0)
(0 0 0)
(0 0 0)
(0 0 0)
(0 0 0)
(0 0 0)
(0 0 0)
(0 0 0)
(0 0 0)
(0 0 0)
(0 0 0)
(0 0 0)
(0 0 0)
(0 0 0)
(0 0 0)
(0 0 0)
(0 0 0)
(0 0 0)
(0 0 0)
(0 0 0)
(0 0 0)
(0 0 0)
(0 0 0)
(0 0 0)
(0 0 0)
(0 0 0)
(0 0 0)
(0 0 0)
(0 0 0)
(0 0 0)
(0 0 0)
(0 0 0)
(0 0 0)
(-0.0150642234982 0.000259231210296 0)
(0 0 0)
(0 0 0)
(0 0 0)
(0 0 0)
(0 0 0)
(0 0 0)
(0 0 0)
(-0.00336135504848 5.78435481629e-05 0)
(0 0 0)
(0 0 0)
(0 0 0)
(0 0 0)
(0 0 0)
(0 0 0)
(0 0 0)
(0 0 0)
(0 0 0)
(0 0 0)
(0 0 0)
(0 0 0)
(0 0 0)
(0 0 0)
(0 0 0)
(0 0 0)
(0 0 0)
(0 0 0)
(0 0 0)
(0 0 0)
(0 0 0)
(0 0 0)
(0 0 0)
(0 0 0)
(0 0 0)
(0 0 0)
(0 0 0)
(-0.321901868662 0.00790674304696 0)
(-0.00773407564353 0.000133091080986 0)
(0 0 0)
(0 0 0)
(0 0 0)
(0 0 0)
(0 0 0)
(0 0 0)
(-0.0707010489481 0.00175889952895 0)
(0 0 0)
(0 0 0)
(0 0 0)
(0 0 0)
(0 0 0)
(0 0 0)
(0 0 0)
(0 0 0)
(0 0 0)
(0 0 0)
(0 0 0)
(0 0 0)
(0 0 0)
(0 0 0)
(0 0 0)
(0 0 0)
(0 0 0)
(0 0 0)
(0 0 0)
(0 0 0)
(0 0 0)
(0 0 0)
(0 0 0)
(0 0 0)
(0 0 0)
(0 0 0)
(0 0 0)
(-1.50618306636 0.0499634058378 0)
(-0.0430914842202 0.00139721650806 0)
(0 0 0)
(0 0 0)
(0 0 0)
(0 0 0)
(0 0 0)
(0 0 0)
(-0.330350928011 0.0108333458663 0)
(-0.00655610796015 0.000237459042934 0)
(0 0 0)
(0 0 0)
(0 0 0)
(0 0 0)
(0 0 0)
(0 0 0)
(0 0 0)
(0 0 0)
(0 0 0)
(0 0 0)
(0 0 0)
(0 0 0)
(0 0 0)
(0 0 0)
(0 0 0)
(0 0 0)
(0 0 0)
(0 0 0)
(0 0 0)
(0 0 0)
(0 0 0)
(0 0 0)
(0 0 0)
(0 0 0)
(0 0 0)
(0 0 0)
(0 0 0)
(0 0 0)
(0 0 0)
(0 0 0)
(0 0 0)
(0 0 0)
(0 0 0)
(-2.51812440965 0.0799742945755 0)
(-0.0760307205157 0.00241469532483 0)
(0 0 0)
(0 0 0)
(0 0 0)
(0 0 0)
(0 0 0)
(0 0 0)
(-2.5183802936 0.079982421314 0)
(-0.561919519417 0.0178462656577 0)
(-0.0157319014149 0.000517629955119 0)
(0 0 0)
(0 0 0)
(0 0 0)
(0 0 0)
(0 0 0)
(0 0 0)
(-0.0461256965288 0.00146492763724 0)
(-0.0760480150552 0.00241524459022 0)
(-0.0157320458446 0.000517634707319 0)
(0 0 0)
(0 0 0)
(0 0 0)
(0 0 0)
(0 0 0)
(0 0 0)
(0 0 0)
(0 0 0)
(0 0 0)
(0 0 0)
(0 0 0)
(0 0 0)
(0 0 0)
(0 0 0)
(0 0 0)
(0 0 0)
(0 0 0)
(0 0 0)
(0 0 0)
(0 0 0)
(0 0 0)
(0 0 0)
(0 0 0)
(0 0 0)
(0 0 0)
(0 0 0)
(-0.0670202294034 0.00196548492162 0)
(-0.00211496375965 6.21787228117e-05 0)
(0 0 0)
(0 0 0)
(0 0 0)
(0 0 0)
(0 0 0)
(0 0 0)
(-0.0434581234982 0.00127448514005 0)
(-0.068072739237 0.0019963516051 0)
(-0.0152673164679 0.000448850357082 0)
(-0.00037428705597 9.56083502077e-06 0)
(0 0 0)
(0 0 0)
(0 0 0)
(0 0 0)
(0 0 0)
(0 0 0)
(-0.00122220277329 3.33100563535e-05 0)
(-0.00214368048108 6.30229779693e-05 0)
(-0.000380900677914 9.72977420069e-06 0)
(0 0 0)
(0 0 0)
(0 0 0)
(0 0 0)
(0 0 0)
(0 0 0)
(0 0 0)
(0 0 0)
(0 0 0)
(0 0 0)
(0 0 0)
(0 0 0)
(0 0 0)
(0 0 0)
(0 0 0)
(0 0 0)
(0 0 0)
(0 0 0)
(0 0 0)
(0 0 0)
(0 0 0)
(0 0 0)
(0 0 0)
(0 0 0)
(0 0 0)
(0 0 0)
(-0.000180903556618 5.93098926771e-06 0)
(-0.000180754395423 5.92609896337e-06 0)
(-2.32602455542e-05 7.59086767106e-07 0)
(0 0 0)
(0 0 0)
(0 0 0)
(0 0 0)
(0 0 0)
(0 0 0)
(0 0 0)
(-2.37365370164e-05 7.74630306636e-07 0)
(-2.35587979075e-05 7.68829877518e-07 0)
(-2.31547550631e-06 9.86338915336e-08 0)
(0 0 0)
(0 0 0)
(0 0 0)
(0 0 0)
(0 0 0)
(0 0 0)
(0 0 0)
(0 0 0)
(0 0 0)
(0 0 0)
(0 0 0)
(0 0 0)
(0 0 0)
(0 0 0)
(0 0 0)
(0 0 0)
(0 0 0)
(0 0 0)
(0 0 0)
(0 0 0)
(0 0 0)
(0 0 0)
(0 0 0)
(0 0 0)
(0 0 0)
(0 0 0)
(0 0 0)
(0 0 0)
(0 0 0)
(0 0 0)
(0 0 0)
(0 0 0)
(0 0 0)
(0 0 0)
(0 0 0)
(0 0 0)
(-0.00336118875758 5.78406865623e-05 0)
(-0.00913706982142 0.000157234368479 0)
(-0.00203875697352 3.50837491099e-05 0)
(-0.086777571704 0.00183215548943 0)
(-0.0177935861001 0.000306199178524 0)
(-0.0526379168402 0.00111135684483 0)
(-0.0107932064939 0.000185733833723 0)
(0 0 0)
(0 0 0)
(0 0 0)
(-0.00240833454502 4.14435884451e-05 0)
(0 0 0)
(0 0 0)
(0 0 0)
(0 0 0)
(0 0 0)
(0 0 0)
(-0.0177965540537 0.000306250252262 0)
(-0.00397095094926 6.83337193403e-05 0)
(-0.00397095836173 6.8333846897e-05 0)
(0 0 0)
(0 0 0)
(0 0 0)
(0 0 0)
(0 0 0)
(0 0 0)
(0 0 0)
(0 0 0)
(-0.0706944536494 0.00175873545122 0)
(-0.195255696825 0.00479598527857 0)
(-0.0428765209422 0.00106668138041 0)
(-0.800589247003 0.0232174029698 0)
(-0.176714940244 0.00509875227342 0)
(-0.485571568218 0.0140817664142 0)
(-0.10718260659 0.00309253738404 0)
(0 0 0)
(-0.00469075152173 8.07203367849e-05 0)
(0 0 0)
(-0.0227827890848 0.000684527919105 0)
(0 0 0)
(-0.0121923900869 0.000357087157759 0)
(0 0 0)
(-0.0149403077072 0.000362624862362 0)
(-0.0149416719087 0.000362657973687 0)
(-0.00284529528746 4.89629844583e-05 0)
(-0.176738110074 0.00509942079202 0)
(-0.037556246235 0.00112840877335 0)
(-0.0375650288177 0.00112867265338 0)
(-0.00739477243003 0.000216575933882 0)
(0 0 0)
(0 0 0)
(0 0 0)
(-0.00336080322286 5.78340521259e-05 0)
(0 0 0)
(0 0 0)
(0 0 0)
(-0.330329584792 0.0108326459485 0)
(-0.897999972958 0.0294485151094 0)
(-0.200352653351 0.00657025425067 0)
(-2.2007621039 0.0744881172862 0)
(-0.485326342472 0.0163053578246 0)
(-1.31939805704 0.0443274051922 0)
(-0.294365363572 0.00988970134975 0)
(0 0 0)
(-0.0261361267389 0.000847448826545 0)
(0 0 0)
(-0.0656897086009 0.0022069566607 0)
(0 0 0)
(-0.0398430585308 0.00133859481615 0)
(0 0 0)
(-0.0737061821599 0.00241707982667 0)
(-0.0737267376034 0.00241775391054 0)
(-0.0139787290896 0.000504753901202 0)
(-0.485476513404 0.0163104030706 0)
(-0.108321440507 0.00363924166684 0)
(-0.108336277071 0.00363974012628 0)
(-0.0241730645602 0.00081213491393 0)
(0 0 0)
(0 0 0)
(0 0 0)
(-0.0132867945082 0.000434034555431 0)
(0 0 0)
(0 0 0)
(0 0 0)
(-7.03511409962 0.227843537766 0)
(-4.17769310949 0.133278409664 0)
(-4.02492701655 0.118914123893 0)
(-1.90057396865 0.0561513506821 0)
(-0.56177578901 0.0178417008562 0)
(-1.52736452358 0.0485082865109 0)
(-0.34078272399 0.0108230784191 0)
(-2.44207013887 0.0721495395707 0)
(-0.25794771777 0.00762091504833 0)
(-1.15274177155 0.034057084085 0)
(-0.121629118446 0.00359346144673 0)
(0 0 0)
(-0.0461203318225 0.00146475725701 0)
(0 0 0)
(-0.0933398109473 0.00277670148632 0)
(0 0 0)
(-0.043999698297 0.00130891659646 0)
(0 0 0)
(0 0 0)
(0 0 0)
(0 0 0)
(0 0 0)
(0 0 0)
(0 0 0)
(0 0 0)
(0 0 0)
(0 0 0)
(0 0 0)
(0 0 0)
(0 0 0)
(0 0 0)
(0 0 0)
(0 0 0)
(0 0 0)
(0 0 0)
(0 0 0)
(0 0 0)
(0 0 0)
(0 0 0)
(0 0 0)
(0 0 0)
(0 0 0)
(0 0 0)
(0 0 0)
(0 0 0)
(0 0 0)
(0 0 0)
(0 0 0)
(0 0 0)
(0 0 0)
(0 0 0)
(0 0 0)
(0 0 0)
(0 0 0)
(0 0 0)
(0 0 0)
(0 0 0)
(0 0 0)
(0 0 0)
(0 0 0)
(-0.340827623808 0.0108245044135 0)
(-0.561926505078 0.0178464875185 0)
(-1.69823486333 -0.0835250085596 0.0237355930578)
(-2.45919137981 0.0726553766597 0)
(-0.122856004348 0.00362970907597 0)
(-0.258737849814 0.00764425903927 0)
(-1.52746044787 0.0485113330154 0)
(-0.561923700037 0.0178463984319 0)
(-0.340823426784 0.0108243711182 0)
(-2.45421128964 0.072508242797 0)
(-1.15308777362 0.0340673065145 0)
(-0.258234081485 0.00762937549747 0)
(-0.121340751195 0.00358494180431 0)
(-0.125381128225 0.00398203807742 0)
(-0.125382330897 0.00398207627364 0)
(-0.027976695233 0.000888524989966 0)
(-0.699029830558 0.0206524291085 0)
(-0.0725236778795 0.00215745673918 0)
(-0.0722917435092 0.00215055708399 0)
(-0.0053248052501 0.00012351728993 0)
(0 0 0)
(0 0 0)
(0 0 0)
(-0.0266725905621 0.000793464451087 0)
(0 0 0)
(0 0 0)
(0 0 0)
(0 0 0)
(0 0 0)
(0 0 0)
(0 0 0)
(0 0 0)
(0 0 0)
(0 0 0)
(0 0 0)
(0 0 0)
(0 0 0)
(0 0 0)
(0 0 0)
(0 0 0)
(0 0 0)
(0 0 0)
(0 0 0)
(0 0 0)
(0 0 0)
(0 0 0)
(0 0 0)
(0 0 0)
(0 0 0)
(0 0 0)
(0 0 0)
(0 0 0)
(0 0 0)
(0 0 0)
(0 0 0)
(0 0 0)
(0 0 0)
(0 0 0)
(0 0 0)
(0 0 0)
(0 0 0)
(0 0 0)
(0 0 0)
(0 0 0)
(0 0 0)
(0 0 0)
(0 0 0)
(0 0 0)
(0 0 0)
(-0.0760483053421 0.00241525380958 0)
(0 0 0)
(0 0 0)
(-0.0444579696719 0.00132254939467 0)
(-0.0936284530159 0.00278528809961 0)
(0 0 0)
(0 0 0)
(-0.0461254741779 0.00146492057549 0)
(0 0 0)
(0 0 0)
(-0.093458377083 0.0027802286283 0)
(-0.0438079946365 0.00130321373683 0)
(0 0 0)
(0 0 0)
(0 0 0)
(0 0 0)
(0 0 0)
(-0.0265191854961 0.000788900909866 0)
(0 0 0)
(0 0 0)
(0 0 0)
(0 0 0)
(0 0 0)
(0 0 0)
(0 0 0)
(0 0 0)
(0 0 0)
(0 0 0)
(0 0 0)
(0 0 0)
(0 0 0)
(0 0 0)
(0 0 0)
(0 0 0)
(0 0 0)
(0 0 0)
(0 0 0)
(0 0 0)
(0 0 0)
(0 0 0)
(0 0 0)
(0 0 0)
(0 0 0)
(0 0 0)
(0 0 0)
(0 0 0)
(0 0 0)
(0 0 0)
(0 0 0)
(0 0 0)
(0 0 0)
(0 0 0)
(0 0 0)
(0 0 0)
(0 0 0)
(0 0 0)
(0 0 0)
(0 0 0)
(0 0 0)
(0 0 0)
(0 0 0)
(0 0 0)
(0 0 0)
(0 0 0)
(0 0 0)
(0 0 0)
(0 0 0)
(0 0 0)
(0 0 0)
(0 0 0)
(0 0 0)
(0 0 0)
(0 0 0)
(0 0 0)
(0 0 0)
(0 0 0)
(0 0 0)
(0 0 0)
(0 0 0)
(0 0 0)
(0 0 0)
(0 0 0)
(0 0 0)
(0 0 0)
(0 0 0)
(0 0 0)
(0 0 0)
(0 0 0)
(0 0 0)
(0 0 0)
(0 0 0)
(0 0 0)
(0 0 0)
(0 0 0)
(0 0 0)
(0 0 0)
(0 0 0)
(0 0 0)
(0 0 0)
(0 0 0)
(0 0 0)
(0 0 0)
(0 0 0)
(0 0 0)
(0 0 0)
(0 0 0)
(0 0 0)
(0 0 0)
(0 0 0)
(0 0 0)
(0 0 0)
(0 0 0)
(0 0 0)
(0 0 0)
(0 0 0)
(0 0 0)
(0 0 0)
(0 0 0)
(0 0 0)
(0 0 0)
(0 0 0)
(0 0 0)
(0 0 0)
(0 0 0)
(0 0 0)
(0 0 0)
(0 0 0)
(0 0 0)
(0 0 0)
(0 0 0)
(0 0 0)
(0 0 0)
(0 0 0)
(0 0 0)
(0 0 0)
(0 0 0)
(0 0 0)
(0 0 0)
(0 0 0)
(0 0 0)
(0 0 0)
(0 0 0)
(0 0 0)
(0 0 0)
(0 0 0)
(0 0 0)
(0 0 0)
(0 0 0)
(0 0 0)
(0 0 0)
(0 0 0)
(0 0 0)
(0 0 0)
(0 0 0)
(0 0 0)
(0 0 0)
(0 0 0)
(0 0 0)
(0 0 0)
(0 0 0)
(0 0 0)
(0 0 0)
(0 0 0)
(0 0 0)
(0 0 0)
(0 0 0)
(0 0 0)
(0 0 0)
(0 0 0)
(0 0 0)
(0 0 0)
(0 0 0)
(0 0 0)
(0 0 0)
(0 0 0)
(0 0 0)
(0 0 0)
(0 0 0)
(0 0 0)
(0 0 0)
(0 0 0)
(0 0 0)
(0 0 0)
(0 0 0)
(0 0 0)
(0 0 0)
(0 0 0)
(0 0 0)
(0 0 0)
(0 0 0)
(0 0 0)
(-0.00155262540674 4.69941793045e-05 0)
(-0.00245165783741 7.42056954012e-05 0)
(-0.000945511811038 2.86361185019e-05 0)
(-0.00148614747345 4.49820546134e-05 0)
(-0.177087521089 0.0051933998974 0)
(-0.109913051868 0.00322339162457 0)
(-0.00236661132502 7.16315451681e-05 0)
(-0.00143254056582 4.33595044359e-05 0)
(-0.00144005731826 4.35870181754e-05 0)
(-0.000872642725795 2.64291785824e-05 0)
(-0.0152615657484 0.000448681289224 0)
(-0.0412167905973 0.00120875415017 0)
(-0.00930438468416 0.000273543578972 0)
(-0.000528681159087 1.60118320518e-05 0)
(-0.000119016616258 3.60458101853e-06 0)
(-0.000326159101822 9.87817453069e-06 0)
(-7.27120844986e-05 2.20218493721e-06 0)
(0 0 0)
(-0.00121355136571 3.30742698864e-05 0)
(0 0 0)
(-1.43141323708e-05 4.09070383927e-07 0)
(0 0 0)
(-8.67809439272e-06 2.48003253919e-07 0)
(0 0 0)
(0 0 0)
(0 0 0)
(0 0 0)
(0 0 0)
(0 0 0)
(0 0 0)
(0 0 0)
(0 0 0)
(0 0 0)
(0 0 0)
(0 0 0)
(0 0 0)
(0 0 0)
(0 0 0)
(0 0 0)
(0 0 0)
(0 0 0)
(0 0 0)
(0 0 0)
(0 0 0)
(0 0 0)
(0 0 0)
(0 0 0)
(0 0 0)
(0 0 0)
(0 0 0)
(0 0 0)
(0 0 0)
(0 0 0)
(0 0 0)
(0 0 0)
(0 0 0)
(0 0 0)
(0 0 0)
(0 0 0)
(0 0 0)
(0 0 0)
(0 0 0)
(0 0 0)
(0 0 0)
(0 0 0)
(0 0 0)
(-0.0691549963007 0.0020280906779 0)
(-0.00959157953541 0.000281986943057 0)
(-0.0155683139913 0.000457699511822 0)
(-0.000387510399617 1.17362825029e-05 0)
(-0.000641782429923 1.9437258743e-05 0)
(-9.06644527116e-05 2.74589696443e-06 0)
(-0.000152569615629 4.62077949947e-06 0)
(-0.0413233358265 0.00121187877453 0)
(-0.015575958534 0.000457924256997 0)
(-0.00943139651972 0.000277277654169 0)
(-0.000617933932925 1.87149743906e-05 0)
(-0.000363785064458 1.10177282752e-05 0)
(-0.000125622121571 3.80463778218e-06 0)
(-7.72435531258e-05 2.33942666289e-06 0)
(-0.00344764838922 0.000101358887389 0)
(-0.00347584399943 0.000102187822175 0)
(-0.000734976478394 2.00311343165e-05 0)
(-0.000122603808394 3.71322403907e-06 0)
(-2.59957836909e-05 7.62657807229e-07 0)
(-2.65806231717e-05 7.79815681801e-07 0)
(-3.28507201444e-06 1.39936456192e-07 0)
(0 0 0)
(0 0 0)
(0 0 0)
(0 0 0)
(0 0 0)
(0 0 0)
(0 0 0)
(0 0 0)
(0 0 0)
(0 0 0)
(0 0 0)
(0 0 0)
(0 0 0)
(0 0 0)
(0 0 0)
(0 0 0)
(0 0 0)
(0 0 0)
(0 0 0)
(0 0 0)
(0 0 0)
(0 0 0)
(0 0 0)
(0 0 0)
(0 0 0)
(0 0 0)
(0 0 0)
(0 0 0)
(0 0 0)
(0 0 0)
(0 0 0)
(0 0 0)
(0 0 0)
(0 0 0)
(0 0 0)
(0 0 0)
(0 0 0)
(0 0 0)
(0 0 0)
(0 0 0)
(0 0 0)
(0 0 0)
(0 0 0)
(0 0 0)
(0 0 0)
(0 0 0)
(0 0 0)
(0 0 0)
(0 0 0)
(-0.00212287754643 6.24113836091e-05 0)
(0 0 0)
(0 0 0)
(-1.04473510615e-05 2.98565208079e-07 0)
(-1.72004274023e-05 4.91555146963e-07 0)
(0 0 0)
(0 0 0)
(-0.00123708070185 3.37155411467e-05 0)
(0 0 0)
(0 0 0)
(-1.41395403635e-05 4.04080880015e-07 0)
(-9.17588981294e-06 2.62229290006e-07 0)
(0 0 0)
(0 0 0)
(0 0 0)
(0 0 0)
(0 0 0)
(0 0 0)
(0 0 0)
(0 0 0)
(0 0 0)
(0 0 0)
(0 0 0)
(0 0 0)
(0 0 0)
(0 0 0)
(0 0 0)
(0 0 0)
(0 0 0)
(0 0 0)
(0 0 0)
(0 0 0)
(0 0 0)
(0 0 0)
(0 0 0)
(0 0 0)
(0 0 0)
(0 0 0)
(0 0 0)
(0 0 0)
(0 0 0)
(0 0 0)
(0 0 0)
(0 0 0)
(0 0 0)
(0 0 0)
(0 0 0)
(0 0 0)
(0 0 0)
(0 0 0)
(0 0 0)
(0 0 0)
(0 0 0)
(0 0 0)
(0 0 0)
(0 0 0)
(0 0 0)
(0 0 0)
(0 0 0)
(0 0 0)
(0 0 0)
(0 0 0)
(0 0 0)
(0 0 0)
(0 0 0)
(0 0 0)
(0 0 0)
(0 0 0)
(0 0 0)
(0 0 0)
(0 0 0)
(0 0 0)
(0 0 0)
(0 0 0)
(0 0 0)
(0 0 0)
(0 0 0)
(0 0 0)
(0 0 0)
(0 0 0)
(0 0 0)
(0 0 0)
(0 0 0)
(0 0 0)
(0 0 0)
(0 0 0)
(0 0 0)
(0 0 0)
(0 0 0)
(0 0 0)
(0 0 0)
(0 0 0)
(0 0 0)
(0 0 0)
(0 0 0)
(0 0 0)
(0 0 0)
(0 0 0)
(0 0 0)
(0 0 0)
(0 0 0)
(0 0 0)
(0 0 0)
(0 0 0)
(0 0 0)
(0 0 0)
(0 0 0)
(0 0 0)
(0 0 0)
(0 0 0)
(0 0 0)
(0 0 0)
(0 0 0)
(0 0 0)
(0 0 0)
(0 0 0)
(0 0 0)
(0 0 0)
(0 0 0)
(0 0 0)
(0 0 0)
(0 0 0)
(0 0 0)
(0 0 0)
(0 0 0)
(0 0 0)
(0 0 0)
(0 0 0)
(0 0 0)
(0 0 0)
(0 0 0)
(0 0 0)
(0 0 0)
(0 0 0)
(0 0 0)
(0 0 0)
(0 0 0)
(0 0 0)
(0 0 0)
(0 0 0)
(0 0 0)
(0 0 0)
(0 0 0)
(0 0 0)
(0 0 0)
(0 0 0)
(0 0 0)
(0 0 0)
(0 0 0)
(0 0 0)
(0 0 0)
(0 0 0)
(0 0 0)
(0 0 0)
(0 0 0)
(0 0 0)
(0 0 0)
(0 0 0)
(0 0 0)
(0 0 0)
(0 0 0)
(0 0 0)
(0 0 0)
(0 0 0)
(0 0 0)
(0 0 0)
(0 0 0)
(0 0 0)
(0 0 0)
(0 0 0)
(0 0 0)
(0 0 0)
(0 0 0)
(0 0 0)
(0 0 0)
(0 0 0)
(0 0 0)
(0 0 0)
(0 0 0)
(0 0 0)
(0 0 0)
(0 0 0)
(0 0 0)
(0 0 0)
(0 0 0)
(0 0 0)
(0 0 0)
(0 0 0)
(0 0 0)
(0 0 0)
(0 0 0)
(0 0 0)
(0 0 0)
(0 0 0)
(0 0 0)
(0 0 0)
(-6.92978580327 0.209692773512 0)
(-5.38465004833 0.162618266624 0)
(-5.85991902764 0.173127893845 0)
(-3.5534209312 0.104983751288 0)
(-4.75166193869 0.143501809982 0)
(-5.17654122539 0.152937894795 0)
(-7.86103582713 0.238083391719 0)
(-5.38373410886 0.16259060494 0)
(-2.54309246355 0.0768022591211 0)
(-2.76471376426 0.0816818575194 0)
(-2.769631982 0.0818271633974 0)
(-3.70034321741 0.111751626295 0)
(-3.70001595733 0.111741742929 0)
(-4.02675271731 0.118968063159 0)
(-1.5429593971 0.0465978996548 0)
(-3.26642212276 0.0986470613499 0)
(-1.30825188586 0.0386515398165 0)
(-2.15558805913 0.0636855934211 0)
(-2.88231622407 0.0870469323009 0)
(-1.15456899327 0.0341110682862 0)
(-1.74854844695 0.0528067590278 0)
(-0.728886492899 0.0220126205003 0)
(-0.344316061402 0.0103984624021 0)
(-0.61818268058 0.0182638471617 0)
(-0.227584647455 0.00672385582454 0)
(-0.303847790535 0.00917630682976 0)
(-0.545552490415 0.0161180305056 0)
(-0.825971982652 0.024944635379 0)
(-1.20158539957 0.0362882885842 0)
(-1.54258483527 0.0465865877599 0)
(-1.67732405013 0.0495555618985 0)
(-0.617387938112 0.0182403669584 0)
(-2.24457639175 0.0677869720142 0)
(-0.825772759793 0.0249386187807 0)
(-0.898499574075 0.0265456464751 0)
(-0.567638622322 0.0171428798533 0)
(-0.162625492694 0.00491134530441 0)
(-0.177136195739 0.00523338570849 0)
(-0.291704661654 0.00861824428952 0)
(-0.236632105336 0.00714637022869 0)
(-0.390104323155 0.0117812835123 0)
(-0.424589685184 0.0125442548946 0)
(-0.0351814024955 0.00107688059048 0)
(-0.126666747402 0.00382537894136 0)
(-0.0302927793371 0.000901158943396 0)
(-0.0823422075229 0.00244954138749 0)
(-0.111779646631 0.00337578342432 0)
(-0.0267224834182 0.000794948679159 0)
(-0.0398673893627 0.00122031569956 0)
(-0.0087860171841 0.000223947263653 0)
(0 0 0)
(-0.00784650743097 0.000204397587688 0)
(0 0 0)
(0 0 0)
(-0.00534597678728 0.000124008397261 0)
(-0.00995646938235 0.000253780982566 0)
(-0.0273988291342 0.00083866091752 0)
(-0.0598266877816 0.00180678636078 0)
(-0.0640951915023 0.0019067235267 0)
(-0.0129339989559 0.000336924193216 0)
(-0.0870521453465 0.00262900445806 0)
(-0.0188299644295 0.000576373361356 0)
(-0.0208018640628 0.000618820268386 0)
(-0.00497229869065 0.000107585670351 0)
(0 0 0)
(0 0 0)
(0 0 0)
(0 0 0)
(0 0 0)
(-0.00416159304093 9.65347407205e-05 0)
(0 0 0)
(0 0 0)
(0 0 0)
(0 0 0)
(0 0 0)
(0 0 0)
(0 0 0)
(0 0 0)
(0 0 0)
(0 0 0)
(0 0 0)
(0 0 0)
(0 0 0)
(0 0 0)
(0 0 0)
(0 0 0)
(0 0 0)
(0 0 0)
(0 0 0)
(0 0 0)
(0 0 0)
(0 0 0)
(0 0 0)
(0 0 0)
(0 0 0)
(0 0 0)
(0 0 0)
(0 0 0)
(0 0 0)
(0 0 0)
(0 0 0)
(0 0 0)
(0 0 0)
(0 0 0)
(0 0 0)
(0 0 0)
(0 0 0)
(0 0 0)
(0 0 0)
(0 0 0)
(0 0 0)
(0 0 0)
(0 0 0)
(0 0 0)
(0 0 0)
(0 0 0)
(0 0 0)
(0 0 0)
(0 0 0)
(0 0 0)
(0 0 0)
(0 0 0)
(0 0 0)
(0 0 0)
(0 0 0)
(0 0 0)
(0 0 0)
(0 0 0)
(0 0 0)
(0 0 0)
(0 0 0)
(0 0 0)
(0 0 0)
(0 0 0)
(0 0 0)
(0 0 0)
(0 0 0)
(0 0 0)
(0 0 0)
(0 0 0)
(0 0 0)
(0 0 0)
(0 0 0)
(0 0 0)
(0 0 0)
(0 0 0)
(0 0 0)
(0 0 0)
(0 0 0)
(0 0 0)
(0 0 0)
(0 0 0)
(0 0 0)
(0 0 0)
(0 0 0)
(0 0 0)
(0 0 0)
(0 0 0)
(0 0 0)
(0 0 0)
(0 0 0)
(0 0 0)
(0 0 0)
(0 0 0)
(0 0 0)
(0 0 0)
(0 0 0)
(0 0 0)
(0 0 0)
(0 0 0)
(0 0 0)
(0 0 0)
(0 0 0)
(0 0 0)
(0 0 0)
(0 0 0)
(0 0 0)
(0 0 0)
(0 0 0)
(0 0 0)
(0 0 0)
(0 0 0)
(0 0 0)
(0 0 0)
(0 0 0)
(0 0 0)
(0 0 0)
(0 0 0)
(0 0 0)
(0 0 0)
(0 0 0)
(0 0 0)
(0 0 0)
(0 0 0)
(0 0 0)
(0 0 0)
(0 0 0)
(0 0 0)
(0 0 0)
(0 0 0)
(0 0 0)
(0 0 0)
(0 0 0)
(0 0 0)
(0 0 0)
(0 0 0)
(0 0 0)
(0 0 0)
(0 0 0)
(0 0 0)
(0 0 0)
(0 0 0)
(0 0 0)
(0 0 0)
(0 0 0)
(0 0 0)
(0 0 0)
(0 0 0)
(0 0 0)
(0 0 0)
(0 0 0)
(0 0 0)
(0 0 0)
(0 0 0)
(0 0 0)
(0 0 0)
(0 0 0)
(0 0 0)
(0 0 0)
(0 0 0)
(0 0 0)
(0 0 0)
(0 0 0)
(0 0 0)
(0 0 0)
(0 0 0)
(0 0 0)
(0 0 0)
(-1.35763013582 0.00206614653124 0.00687991334975)
(-4.23334689533 -0.575456435945 0.12509025211)
(-2.00284946898 -0.0172228823433 0.0135464894792)
(-0.648739516034 0.0137159548739 0.000954018619647)
(-3.86954120695 -0.307471949313 0.0754606032188)
(-0.911425099072 0.0261597823124 0.000131963114696)
(-1.11296998385 -0.0389949545237 0.0128563047604)
(-1.56316774891 0.0424159717969 0.000836620021244)
(-3.35011096198 0.0802831999796 0.00368284818157)
(-2.26415316328 0.0452927447333 0.00381494309962)
(-1.31521246673 0.0388571861232 0)
(-3.45381182851 -0.0436269358887 0.0262721314785)
(-1.74741929071 0.0527726581247 0)
(-1.16323222458 0.0343670184085 0)
(-0.567369683417 0.0171347578068 0)
(-0.162562505459 0.00490944306844 0)
(-0.294850673031 0.00871119136288 0)
(-0.178448817908 0.00527216636577 0)
(-0.23649854946 0.00714233679571 0)
(-0.428324363239 0.012654593782 0)
(-0.389989527871 0.0117778166556 0)
(-0.728422532415 0.0219986087356 0)
(-0.344046219601 0.0103903130877 0)
(-0.62104067258 0.0183482848703 0)
(-0.2287429058 0.00675807589258 0)
(-0.825351145827 0.0249258858953 0)
(-0.303639079917 0.00917000369797 0)
(-0.549034630548 0.0162209083072 0)
(-1.54205337977 0.0465705376226 0)
(-3.26466384998 0.0985939609128 0)
(-2.16152232242 0.063860917773 0)
(-1.31284312546 0.0387871853157 0)
(-2.88106118967 0.0870090298342 0)
(-1.74738284925 0.05277155758 0)
(-1.15656311777 0.034169983533 0)
(-1.20095865436 0.0362693606654 0)
(-1.54221865042 0.0465755288526 0)
(-1.68037326281 0.0496456491109 0)
(-0.617095248866 0.0182317196252 0)
(-2.24381771938 0.0677640598499 0)
(-0.825439025277 0.0249285398846 0)
(-0.899191129703 0.0265660780833 0)
(-0.728359580566 0.0219967075683 0)
(-0.344044127313 0.0103902498999 0)
(-0.619892278095 0.0183143562243 0)
(-0.227511443917 0.00672169306866 0)
(-0.825344697511 0.0249256911539 0)
(-0.303619892004 0.00916942421646 0)
(-0.546163114115 0.0161360710271 0)
(-0.567251535921 0.0171311897121 0)
(-0.162526226742 0.00490834743882 0)
(-0.291452164217 0.00861078439986 0)
(-0.176863005768 0.00522531446993 0)
(-0.389877741056 0.0117744406557 0)
(-0.236464205574 0.00714129959867 0)
(-0.424714360547 0.0125479383556 0)
(-0.268022571098 0.00809437299302 0)
(-0.935468012682 0.0282514528037 0)
(-0.374205208932 0.0110556748963 0)
(-0.37400611529 0.0110497927906 0)
(-0.500766474692 0.015123318204 0)
(-0.500691547566 0.0151210553792 0)
(-0.200089927658 0.00591154034581 0)
(-0.126612642584 0.00382374495741 0)
(-0.0986192122469 0.00297833382067 0)
(-0.176818635824 0.0052240035858 0)
(-0.0387473000149 0.00115266663228 0)
(-0.236566407617 0.00714438613519 0)
(-0.0511709692937 0.00156631116782 0)
(-0.0929520588067 0.00276516651604 0)
(-0.126591473444 0.00382310564218 0)
(-0.0985838277791 0.00297726519769 0)
(-0.176609728192 0.00521783153151 0)
(-0.0386369387282 0.00114938357068 0)
(-0.236486016876 0.00714195830743 0)
(-0.0511617512457 0.00156602900918 0)
(-0.0929181088222 0.00276415656143 0)
(-0.0598020241174 0.00180604150972 0)
(-0.00878276613682 0.000223864397534 0)
(-0.0182821942982 0.000543864355048 0)
(-0.0182548499289 0.000543050906314 0)
(-0.0241694247962 0.000739810883021 0)
(-0.0241690333182 0.000739798900125 0)
(-0.0438727215681 0.00130513925356 0)
(0 0 0)
(-0.0351727405925 0.00107661545508 0)
(-0.00783993762282 0.000204226447477 0)
(-0.0129107005683 0.00033631728189 0)
(-0.00995387857419 0.000253714945318 0)
(-0.0188250440172 0.000576222750631 0)
(0 0 0)
(0 0 0)
(0 0 0)
(0 0 0)
(0 0 0)
(0 0 0)
(0 0 0)
(0 0 0)
(0 0 0)
(0 0 0)
(-0.00470493086517 0.000109138321962 0)
(0 0 0)
(-0.00775077618309 0.000197559950205 0)
(0 0 0)
(0 0 0)
(0 0 0)
(0 0 0)
(0 0 0)
(0 0 0)
(0 0 0)
(0 0 0)
(0 0 0)
(0 0 0)
(0 0 0)
(0 0 0)
(0 0 0)
(0 0 0)
(0 0 0)
(0 0 0)
(0 0 0)
(0 0 0)
(0 0 0)
(0 0 0)
(0 0 0)
(0 0 0)
(0 0 0)
(0 0 0)
(0 0 0)
(0 0 0)
(0 0 0)
(0 0 0)
(0 0 0)
(0 0 0)
(0 0 0)
(0 0 0)
(0 0 0)
(0 0 0)
(0 0 0)
(0 0 0)
(0 0 0)
(0 0 0)
(0 0 0)
(0 0 0)
(0 0 0)
(0 0 0)
(0 0 0)
(0 0 0)
(0 0 0)
(0 0 0)
(0 0 0)
(0 0 0)
(0 0 0)
(0 0 0)
(0 0 0)
(0 0 0)
(0 0 0)
(0 0 0)
(0 0 0)
(0 0 0)
(0 0 0)
(0 0 0)
(0 0 0)
(0 0 0)
(0 0 0)
(0 0 0)
(0 0 0)
(0 0 0)
(0 0 0)
(0 0 0)
(0 0 0)
(0 0 0)
(0 0 0)
(0 0 0)
(0 0 0)
(0 0 0)
(0 0 0)
(0 0 0)
(0 0 0)
(0 0 0)
(0 0 0)
(0 0 0)
(0 0 0)
(0 0 0)
(0 0 0)
(0 0 0)
(0 0 0)
(0 0 0)
(0 0 0)
(0 0 0)
(0 0 0)
(0 0 0)
(0 0 0)
(0 0 0)
(0 0 0)
(0 0 0)
(0 0 0)
(0 0 0)
(0 0 0)
(0 0 0)
(0 0 0)
(0 0 0)
(0 0 0)
(0 0 0)
(0 0 0)
(0 0 0)
(0 0 0)
(0 0 0)
(0 0 0)
(0 0 0)
(0 0 0)
(0 0 0)
(0 0 0)
(0 0 0)
(0 0 0)
(0 0 0)
(0 0 0)
(0 0 0)
(0 0 0)
(0 0 0)
(0 0 0)
(0 0 0)
(0 0 0)
(0 0 0)
(0 0 0)
(0 0 0)
(0 0 0)
(0 0 0)
(0 0 0)
(0 0 0)
(0 0 0)
(0 0 0)
(0 0 0)
(0 0 0)
(0 0 0)
(0 0 0)
(0 0 0)
(0 0 0)
(0 0 0)
(0 0 0)
(0 0 0)
(0 0 0)
(0 0 0)
(0 0 0)
(0 0 0)
(0 0 0)
(0 0 0)
(0 0 0)
(0 0 0)
(0 0 0)
(0 0 0)
(0 0 0)
(0 0 0)
(0 0 0)
(0 0 0)
(0 0 0)
(0 0 0)
(0 0 0)
(0 0 0)
(0 0 0)
(0 0 0)
(0 0 0)
(0 0 0)
(0 0 0)
(0 0 0)
(0 0 0)
(0 0 0)
(0 0 0)
(0 0 0)
(0 0 0)
(0 0 0)
(0 0 0)
(0 0 0)
(0 0 0)
(0 0 0)
(0 0 0)
(0 0 0)
(0 0 0)
(0 0 0)
(0 0 0)
(0 0 0)
(-0.0273818131627 0.000838140069341 0)
(-0.0597996673684 0.00180597033509 0)
(-0.0645766142983 0.00192104504052 0)
(-0.0130780178838 0.000340675814139 0)
(-0.0869985054057 0.00262738451357 0)
(-0.0209645518516 0.000623659954906 0)
(-0.0188219007515 0.000576126537248 0)
(-0.035154381559 0.00107605349662 0)
(-0.126562959144 0.00382224450059 0)
(-0.0827727235955 0.00246234851241 0)
(-0.0304007544666 0.000904371020853 0)
(-0.11169725266 0.00337329509834 0)
(-0.039832808567 0.00121925720317 0)
(-0.0268716540657 0.000799386253592 0)
(-0.00496994939905 0.000107534838708 0)
(0 0 0)
(0 0 0)
(0 0 0)
(0 0 0)
(-0.00420265001378 9.74871222221e-05 0)
(0 0 0)
(-0.00878061471553 0.000223809559842 0)
(0 0 0)
(-0.00788844466208 0.000205490031549 0)
(0 0 0)
(-0.0099485617498 0.000253579424496 0)
(0 0 0)
(-0.0053863213122 0.000124944252405 0)
(-0.0351527133015 0.00107600243231 0)
(-0.126563779276 0.00382226926886 0)
(-0.0823682308798 0.00245031553834 0)
(-0.030330085499 0.000902268738608 0)
(-0.111692375449 0.00337314780491 0)
(-0.039832958874 0.00121926180397 0)
(-0.0267123848817 0.000794648264781 0)
(-0.0273777035178 0.000838014275696 0)
(-0.0597897420495 0.00180567058708 0)
(-0.0639534421626 0.00190250672362 0)
(-0.012858674671 0.00033496203333 0)
(-0.0869878642162 0.00262706314602 0)