/*--------------------------------*- C++ -*----------------------------------*\
| =========                 |                                                 |
| \\      /  F ield         | OpenFOAM: The Open Source CFD Toolbox           |
|  \\    /   O peration     | Version:  v1906                                 |
|   \\  /    A nd           | Web:      www.OpenFOAM.com                      |
|    \\/     M anipulation  |                                                 |
\*---------------------------------------------------------------------------*/
FoamFile
{
    version     2.0;
    format      ascii;
    class       volScalarField;
    location    "0.35";
    object      alpha.water;
}
// * * * * * * * * * * * * * * * * * * * * * * * * * * * * * * * * * * * * * //

dimensions      [0 0 0 0 0 0 0];


internalField   nonuniform List<scalar> 
28582
(
0.999999989898
1.00000005818
1.00000006021
1.00000010902
1.00000002955
1.0000000256
0.999999844743
0.999999828358
0.00174481319074
0.00178624559007
8.29537101827e-11
0.999999538243
0.996539215049
0.992962472774
0.999999783425
0.999999695645
0.994918715491
0.999998874277
0.999999670802
0.999999989185
1.00000024698
1.00000022136
1.00000001308
1.00000022791
1.00000020889
0.999999990397
1.00000006325
0.999999885721
0.999999857935
0.00154029836164
7.53745497079e-11
4.95685692937e-11
0.999999675567
0.999999835449
0.99393921557
0.992739061571
0.999999808125
0.999999798068
0.999999798185
0.999999373795
0.999999258175
0.99332775254
0.999998683351
0.9999992614
0.00201662565967
0.00191554559104
3.59714219433e-08
8.02871619906e-08
0.00244890742446
5.73428072767e-09
0.999998402206
0.99999886005
0.994780468502
0.993878659989
0.999998415237
0.99622245364
0.999997526924
0.999998138777
0.999998917652
0.990436147075
0.993749837873
0.999998845651
0.997218445311
0.999998729431
0.999998789642
0.999999283955
0.992885056962
0.988622577691
0.999999616778
0.991830295537
0.999999306837
0.999999248071
0.992988693602
0.994525567725
0.999999324975
0.989936057062
0.996221277832
0.999998988315
0.999999670802
0.994655431599
0.992503969806
0.999999670802
0.990131528413
0.999999359654
0.995964446569
0.00156931055823
3.18403771446e-10
0.00224729471997
0.00182902372361
9.773989919e-10
1.3588867175e-10
0.00078145639156
2.76149887868e-08
1.24027800534e-09
0.000944862801621
1.98940200293e-08
0.00142601464788
6.16369464887e-09
0.999998856448
0.999998594691
0.99263340216
0.994416503779
0.999995932501
0.999998128554
0.995180983249
0.999998156434
0.999999544356
0.989505537012
0.994812109969
0.999998727769
0.999999742663
0.997020763543
0.995270764157
0.996732826069
0.999999834554
0.999999963639
0.994399478863
0.999999866724
0.99683527671
0.999998306985
0.996376983266
0.990986247427
0.999998094459
0.993874544563
0.999999641339
0.993837951224
0.999998960294
0.999998660755
0.989259570538
0.993458909282
0.999998129013
0.9999990449
0.996554311093
0.999997091241
0.999999752304
0.992369416416
0.996974322789
0.995714400704
0.999998891276
0.995577483279
0.992349051182
0.995481228293
0.999996028877
0.99999826181
0.993926281287
0.999999300565
0.996786892983
1.00000009183
0.999999671998
0.00197325815162
7.70083947218e-11
0.999999676146
0.997241951596
0.999999303348
0.999999709438
0.9949351012
0.995997236574
0.992612018823
0.999999805941
0.999999920748
0.99427443941
0.991353783024
0.00176093673304
0.00109556204137
0.00149499398566
6.80602106613e-10
2.59944877407e-08
1.91453902722e-10
0.00115254583507
0.0012402848597
0.999999721738
0.999997869464
0.990629504327
0.995341594085
0.99999986323
0.993650232385
0.999998989435
0.99999852601
0.999997542177
0.990979138421
0.988144060331
0.999998813497
0.99999841741
0.990678979117
0.999998923122
0.999993838178
0.988856514222
0.993348164487
0.999999352218
0.993049034655
0.999995627531
0.999999878617
0.99999548725
0.99109615984
0.988690091471
0.999999826765
0.994594344766
0.999996898583
0.999999388116
0.999994847759
0.985735727767
0.990872735425
0.999999321576
0.991055302779
0.999996061702
0.999999580129
0.999992854343
0.988927861803
0.985405909561
0.999999883149
0.993225386091
0.999994914227
1.00000024042
0.999999758646
0.999999946573
0.999999915272
0.00331012900225
0.00469705483665
0.00151341129208
0.00245690276533
0.00202634622122
1.44117906849e-10
1.33833539491e-28
2.4889239353e-10
4.40022764954e-10
1.71061008254e-10
2.35047926547e-10
1.00000008581
1.00000009531
0.998484253198
0.997064332387
1.00000007056
0.997476542356
1.00000000926
0.999999880986
0.996814543245
0.998261908251
0.999999815448
0.999999795248
0.999999869963
0.99739395697
0.998426083287
0.999515104816
0.999649542826
1.00000021405
1.00000031836
0.998357247409
0.999032681273
0.999555696339
0.999196466599
0.999999977801
0.999999882671
0.997973829204
0.997829871921
0.997566893734
1.00000008921
0.999999932929
1.00000009164
0.996728955179
0.996186053781
0.998033345091
0.996745179656
0.996331981093
0.995181307795
0.00314053710714
0.00330875523422
0.00400304011099
3.08375569264e-07
3.11597977417e-09
9.86471722912e-10
2.37654886448e-10
4.51255947248e-10
1.52683673954e-09
1.08712047475e-08
1.22755378009e-08
0.00284131797709
0.00229745186462
0.00379434002715
0.00197403307902
0.00212659742207
2.21423166727e-07
5.23482112868e-08
1.01129175453e-07
3.22949596633e-10
0.00427741705254
0.00286607157372
0.00273698375194
2.44720054008e-09
2.50030892146e-07
2.39820996165e-07
1.20541650373e-09
0.00202506646468
0.00164632200744
4.14581935893e-08
1.19283660819e-07
5.27764427401e-10
0.00211595260414
0.00192978068834
0.00212291888668
8.36344961942e-10
1.15239833144e-07
1.15750544063e-07
1.66259529519e-09
0.999999966453
1.00000000952
0.995911478986
0.998380522879
1.00000025973
0.99839436367
1.00000041217
0.999999946786
0.99999924814
0.997132779378
0.99536553025
0.9999985896
0.999999373751
0.997341848749
0.999999968974
1.000000206
0.997556547618
0.997413536522
1.00000141325
1.00000044505
0.99920258088
0.999999102898
0.999999864375
0.994240569337
0.997310559647
1.00000029757
0.99999976125
0.9972440962
1.00000032689
0.999999314028
0.997977959687
0.9964869426
0.999999576334
1.00000034494
0.998150282864
0.999999333572
0.999999618026
0.996860151906
0.997913328565
1.00000167341
1.00000011863
0.999095736922
1.0000022139
1.00000059974
0.9973298322
0.999355477595
1.00000241002
1.00000288754
0.999302351423
0.999999854101
1.00000002553
0.9982317428
0.999448450163
0.999999382956
0.999999618047
0.999077531826
0.999999267842
1.00000062555
0.998559753137
0.999412021386
1.00000081957
1.0000012995
0.998940743692
1.00000058291
1.00000047405
0.998279322956
0.999611135332
1.00000088014
1.00000236781
0.999947655758
1.00000260287
1.0000008582
0.998913773225
0.999650995632
1.00000085242
0.999867261784
1.00000251976
1.00000154395
1.00000068619
0.998787402322
0.998840920255
1.00000075072
1.00000139556
0.998995902199
0.999999294346
1.00000117095
0.997181263248
0.998718683802
1.00000178475
0.998145138149
0.999999122638
0.999999042149
0.999999420735
0.998300473719
0.9988435932
0.999998052867
0.99999954824
0.999018413635
0.999998987208
0.999999521277
0.998079684821
0.998158307248
0.999998717679
0.99999982371
0.998971496392
0.999999489154
0.999999887976
0.996818149941
0.998010354541
0.9999996507
0.999999890493
0.998067116645
1.00000007162
0.999999654744
0.995902744452
0.997748691834
1.00000007189
1.00000062475
0.998076172492
1.00000030689
1
0.99479914972
0.998469518008
1.00000056854
0.998730982538
1.00000122741
1.000000515
1.00000042987
0.995612827658
0.997759492583
1.00000068771
1.00000117662
0.997334890528
1.00000035819
1.00000129552
0.996054791271
0.995867271792
1.00000111551
0.997557723612
1.0000005257
0.999999571284
0.999999632084
0.995657105119
0.996175438567
0.999999213729
0.999999634781
0.996673042007
0.999999460445
0.993638096188
0.999999213161
1.00000009118
1.00000007732
1.0000000619
1.00000021136
1.00000018021
1.00000014958
1.00000003888
1.00000003889
1.00000004342
1.00000019571
1.00000017406
1.00000015089
0.999998608192
0.999999579173
0.999999674996
0.999999893767
1.0000000214
1.00000006629
1.00000006623
1.00000006804
0.999996847119
0.999998692272
0.999999645389
0.999999929502
1
1.00000002121
1.00000003798
1.0000000386
0.999999925971
0.999999911239
0.999999854728
0.999999946631
1.00000000727
1.00000002532
1.00000003707
1.00000004206
0.999999902588
0.999999910167
0.999999979923
1.00000003065
1.00000001026
1.00000004931
1.00000005358
1.00000005196
1.00000010709
1.00000009409
1.00000009181
1.00000006731
0.999998667345
0.999999437937
0.999999611543
0.999999866475
1.00000000015
1.00000004272
1.00000006515
1.00000008697
0.999997708909
0.999998813289
0.999999639299
0.999999931328
0.999999995865
1.00000001601
1.00000003492
1.00000001865
0.9999998551
0.999999870518
0.999999883343
0.999999957107
1.00000000843
1.00000002641
1.00000004463
1.00000004448
0.99999991546
0.999999920298
0.999999977342
1.00000000814
1.0000000293
1.0000000565
1.00000006541
1.00000006048
1.0000000576
1.00000006693
1.00000008384
1.00000006341
0.999999160352
0.999999702003
0.999999715532
0.999999778986
0.999999874983
0.999999967192
1.0000000114
1.00000011752
0.99999926798
0.999999270002
0.99999973087
0.99999990536
0.999999934828
0.999999949981
1.00000000643
1.00000002244
0.999999902155
0.999999911832
0.999999906566
0.999999925463
0.999999946521
0.999999964236
0.999999986995
0.999999990809
0.99999999404
0.999999911332
0.999999934212
0.999999946137
0.999999952175
0.999999972801
0.999999988831
1.00000001069
0.999999987459
0.999999932566
0.999999951482
0.999999958054
0.999999972334
0.999999979766
1.00000001534
0.999999967459
1.00000007898
1.00000009802
1.00000006866
0.999999651481
0.999999795899
0.999999731129
0.999998561886
0.999999086779
0.999999387793
0.999999529926
0.999999755166
1.00000016832
0.999999222583
0.999999757425
0.999999480552
0.999999705034
0.999999574266
0.999999684871
0.999999800237
0.999999674385
1.00000010002
0.999999983932
0.999999765351
0.999999697198
0.999999703301
0.999999686119
0.999999684222
0.999999698745
0.999999709394
0.99999957597
0.999999867722
0.999999839403
0.999999808024
0.999999784707
0.999999797146
0.999999799139
0.999999756525
0.999999721685
0.999999581506
0.999999797807
0.99999983061
0.99999979377
0.999999829026
0.999999817982
0.999999770755
0.999999624116
0.99999981757
0.999999869953
0.999999696261
0.000976366928853
0.0012573330945
0.00131605054774
0.000897333355212
0.00135042989478
0.00138264089977
0.00147870003426
0.00198911130396
0.00304530632207
0.000990923091816
0.000731354078577
0.000710828712924
0.000964421152307
0.00190974548112
0.00223707745034
0.00198702168952
0.00128908549847
0.0015822567405
0.00205028350103
0.0019331244175
0.00201721240634
0.00206912417471
0.0021319986997
0.00220534347363
0.0022921320106
0.00232617680655
0.00234657636009
0.00294108713456
0.00216947612471
0.00228325577668
0.00220558510612
0.00222199677987
0.00217628067469
0.00223674409392
0.00227054587374
0.00238331223592
0.00313556819291
0.00217921789166
0.00231258164938
0.00217825532879
0.00226248863155
0.00227424285879
0.0023010111407
0.00300761742984
0.00203375927682
0.00186880125737
0.00211970206507
5.15892699641e-10
7.79277120526e-11
5.68403298949e-11
2.43965483125e-11
3.6662108534e-11
4.69638796349e-11
5.18319678496e-11
1.20061999296e-10
4.27256757845e-11
4.58353472184e-10
2.85954064063e-10
1.53931649342e-10
9.9990754977e-11
6.86732216215e-11
3.92071208164e-11
1.02976715784e-10
1.87409108594e-10
8.38986231177e-11
8.73155340143e-11
8.79820088192e-10
1.30268724681e-10
2.58160127657e-10
2.35397994369e-10
1.99549258008e-10
1.97224542774e-10
1.80822287462e-10
1.6525000324e-10
1.27747881656e-10
1.18767103465e-10
3.26288068608e-09
2.7562264009e-10
1.02687585966e-10
2.61928397478e-10
2.13470730966e-10
1.61770189798e-10
1.37514820829e-10
1.04719265217e-10
9.88402871931e-11
3.80633055791e-09
1.19571516021e-10
1.27339002185e-10
1.23415634805e-10
1.45994449049e-10
1.1941718936e-10
8.84177480758e-11
2.31792327471e-09
7.90470694789e-11
3.81503939994e-11
5.44311091957e-10
0.99999878983
0.999997013741
0.999997180403
0.999998010549
0.999998854612
0.999997658567
0.999997483449
0.999999236082
0.999997376828
0.999998425507
0.999998128058
0.999998733629
0.999997770049
0.99999864129
0.999997541618
0.999998610068
0.999999115529
0.999996690982
0.999997889289
0.999998562395
0.999998907013
0.999998607354
0.999998938086
0.999999149175
0.99999786803
0.999998389339
0.999999139273
0.999999354645
0.999998637557
0.999997674594
0.999998259315
0.999998607827
0.999999311432
0.999998139262
0.999999059044
0.999999227994
0.999998068664
0.99999858819
0.999998992342
0.999999075643
0.999999034852
0.999999050055
0.999998144902
0.999998618873
0.999999283975
0.999998025585
0.999998785701
0.999998974916
0.999999326958
0.999998783034
0.999999123783
0.999999343327
0.999998739486
0.999998754565
0.99999957637
0.999999582221
0.999999457369
0.999998931651
0.999999308634
0.99999910673
0.999999644495
0.999999622235
0.999999637427
0.999999698681
0.999999347163
0.999999315275
0.999999447684
0.999999535635
0.999999769043
0.999999646926
0.999999075333
0.999999273921
0.999999596526
0.99999958785
0.999999778489
0.999999415912
0.99999972399
0.99999929581
0.99999959934
0.999999607439
0.999999712829
0.999999445809
0.999999757836
0.999999681476
0.999999949634
0.999999644789
0.989240311241
0.989788395961
0.99999931998
0.999999299521
0.999999336418
0.991997962643
0.990909879463
0.993279941265
0.994344153004
0.999999546151
0.999999502411
0.999999392413
0.995091178452
0.992880183326
0.996391996661
0.995919629148
0.999999234154
0.999998853635
0.999998620622
0.996097547172
0.994245509293
0.997088527059
0.994464287762
0.999998516383
0.999999149426
0.999999330935
0.996516461412
0.993710101806
0.995901436342
0.991804114415
0.999998916897
0.999999037697
0.999999097637
0.995597336968
0.992213156857
0.99415036845
0.990853908106
0.999998629219
0.999999174589
0.999999693552
0.994425721702
0.989285830811
0.99388446476
0.989891577494
0.999998814815
0.999998786587
0.999998964285
0.99232236124
0.985318710454
0.992023682633
0.987605985416
0.999999236225
0.99999866536
0.99999851579
0.988515603379
0.977653921204
0.988482753144
0.977359296196
1.00000006602
0.999999975932
0.99772733811
0.99056773161
0.999082096739
0.995209494809
0.99999992685
0.999999946291
0.999999530293
0.992952091872
0.99057854287
0.997519212979
0.992262687916
0.999999616785
0.999999412343
0.999999432554
0.993681373733
0.993714199361
0.995701357914
0.992284174215
0.999999516257
0.99999960631
0.999999612884
0.99663276277
0.995283581545
0.995616892053
0.992826194346
0.999999422383
0.999999544733
0.999999448152
0.99720379831
0.994039111718
0.995633434201
0.99176911211
0.999999134644
0.999999156653
0.999999440451
0.994959622634
0.991761117162
0.994822748722
0.991019450756
0.99999909482
0.999999132065
0.999999419074
0.993644603534
0.990139173871
0.994022700342
0.989739498716
0.999999101623
0.999999159555
0.999999328169
0.9930736545
0.98929567865
0.993001854678
0.98830866468
0.99999895705
0.999999160534
0.999998782598
0.991961777497
0.987118179668
0.991751355131
0.985291302509
0.999999390481
0.999998639302
0.99999792509
0.988481519226
0.978301133416
0.988302992426
0.975240277955
1.00000008137
1.00000006865
1.00000001708
0.99624455662
0.993654940167
0.997222543533
0.995168765157
0.999999749808
0.999999808399
0.999999758042
0.994394299032
0.991834866786
0.997733595521
0.993467470795
0.999999516656
0.999999586897
0.999999707664
0.99395015508
0.991973102574
0.996212618143
0.992936724778
0.999999428522
0.999999617864
0.999999712417
0.994375253772
0.992522360646
0.995919746884
0.992527685975
0.999999298432
0.999999515284
0.999999670519
0.994631883275
0.992142049405
0.995465680289
0.992150082126
0.999999183484
0.999999389971
0.999999554409
0.99440184896
0.99137710473
0.994995147016
0.99130239706
0.999999087372
0.999999240755
0.999999429444
0.993820664572
0.989939605162
0.994271630146
0.989977177407
0.999998973263
0.999999090194
0.999999259375
0.992842034847
0.987794561916
0.993231198448
0.987940069949
0.999998547382
0.999999020871
0.999999005057
0.991224683175
0.984236946926
0.991514168364
0.984422481001
0.999998420663
0.999998527492
0.999998282821
0.987799688234
0.974542267181
0.987936292095
0.973714831434
0.995192076012
0.993887425357
0.999999593407
0.999999902004
0.994720075315
0.993050394339
0.992280086606
0.999999695198
0.999999503308
0.999999807712
0.994381167116
0.992920449468
0.995099574265
0.992957122753
0.999999588358
0.999999903521
0.999999794413
0.994881194706
0.992487874674
0.995454681823
0.992888383435
0.999999477383
0.999999432321
0.999999637467
0.994778898781
0.99240269522
0.995533505031
0.99245332321
0.999999390902
0.999999528305
0.999999666294
0.994567612338
0.99157635907
0.995099151436
0.991675427577
0.999999243477
0.999999521769
0.99999954616
0.993983184817
0.990182648606
0.994319709326
0.990313224313
0.999999038159
0.999999250124
0.9999992676
0.993001874707
0.987886471813
0.993241951806
0.988156527679
0.999998726602
0.999999037435
0.999998916204
0.991277540515
0.983948280306
0.99141486406
0.98456367531
0.999998780248
0.999998449121
0.99999810438
0.987681942185
0.973657008114
0.987874810052
0.973771883285
0.999999630923
0.999999648547
0.995155398581
0.993403279987
0.993416841449
0.999999511985
0.999999582639
0.999999742297
0.994871566958
0.992461228731
0.994667368602
0.99301915265
0.999999503972
0.999999567853
0.999999295501
0.994848635623
0.991916208873
0.995358476949
0.992433600497
0.999999404142
0.999999461304
0.999999653646
0.994343303642
0.990611272938
0.99428738736
0.990422825291
0.999999118901
0.999999253768
0.999999366507
0.993251133371
0.988355800206
0.993323958533
0.988915135826
0.999998746987
0.999999032696
0.999999010341
0.991489655675
0.984412034822
0.991676145837
0.985935161431
0.999998775822
0.999998473007
0.9999981756
0.98788726836
0.974083076423
0.98845978319
0.976019275051
0.999999174458
0.990885606156
0.99999884327
0.992614843073
0.98912722645
0.999998681029
0.991133533687
0.98635915827
0.999998708815
0.988580476678
0.977329227365
8.31042340484e-09
1.59914953081e-07
1.03736835224e-07
1.2175957207e-07
0.000583011212484
0.000739318558934
1.28087820731e-10
3.19549026984e-08
9.52209417563e-09
6.38475384579e-11
0.000775017625227
0.000363906014961
0.000476911892081
9.83168962668e-09
4.04845835427e-09
1.81670333211e-08
1.28764407607e-08
0.00106985950728
0.000518896019076
0.000696223169729
1.31379504315e-10
8.97841375943e-11
1.18482450359e-08
1.55141667424e-08
0.000864247771796
0.000765875733228
0.00127946491283
2.09066384858e-09
2.77819234083e-08
1.57700413722e-08
1.63072580046e-10
0.00104342788071
0.00118523578299
0.00166504782297
2.38402271188e-08
1.487873412e-08
3.16503585621e-08
4.32108523129e-10
0.00109105506543
0.00169688355328
0.00169126803015
1.33823892637e-10
2.31182897021e-08
4.95210642888e-08
3.05243643751e-10
0.00123894848444
0.0013278219272
0.00140934522607
9.05016395906e-09
2.85779182935e-08
4.9842809444e-08
3.12993213419e-08
0.00144529422013
0.00116243676562
0.00120738221438
2.58313489496e-08
2.49416461904e-08
1.97875713442e-08
2.21181540877e-08
0.00286853409104
0.00156910629806
0.00289725770418
6.42402341378e-08
2.55048597041e-07
4.09528831813e-08
2.80980723201e-07
0.00138215668899
0.00210331426595
0.00168348451042
3.32991834919e-08
7.09255933535e-08
1.75758770085e-07
4.3465858059e-10
0.000435126502216
0.00122502706388
0.0013812142276
2.11276964021e-08
2.28391727785e-08
6.57072491316e-08
7.56718455877e-10
0.000556254405704
0.00126765940954
0.00140701789536
4.47177821031e-09
1.94631504012e-08
5.65765838366e-08
6.45242355019e-10
0.000659953359763
0.00147823403353
0.0015228730595
8.07380264746e-09
1.93855277217e-08
4.75421220285e-08
4.60852921449e-10
0.00108897507557
0.0016375723744
0.00185028660687
5.27601206435e-09
2.54379469615e-08
4.14608088868e-08
3.69391907282e-10
0.00163206008374
0.0018472205546
0.00206315048949
4.18131602206e-10
4.13158894214e-08
8.15129290011e-08
7.92590179961e-10
0.00173535683789
0.00201758663694
0.00213244228989
8.40493477064e-10
7.41762379929e-08
9.47332907516e-08
1.31294448362e-09
0.00137123653925
0.00197814226867
0.00199019624582
6.15809538826e-10
3.98531846975e-08
6.94009278424e-08
1.39387207917e-09
0.00126659815839
0.00180337206624
0.0019138220122
2.50841455763e-08
2.64302984128e-08
5.68486246474e-08
9.89598908331e-09
0.00301237609013
0.00236376445537
0.0037714786553
4.09779769625e-08
3.32958442637e-07
1.11942726376e-07
5.39052468967e-07
0.00148217040802
0.00227502564018
0.00193246125934
1.06432564415e-09
1.00550005036e-07
6.85873136058e-10
3.94936335869e-09
0.00149067611965
0.00158775944677
0.00191985426741
1.13237256531e-09
8.06604560383e-08
1.19686737954e-07
1.1573071119e-09
0.00165425900272
0.00182529066573
0.00195925427588
1.25209098426e-09
8.33960399573e-08
1.17571318615e-07
1.06936288577e-09
0.00168725715391
0.00184039688955
0.00200789533328
9.11688703117e-10
8.44065419352e-08
1.05435391526e-07
1.08774789243e-09
0.00174104851023
0.00189038161358
0.00202746804715
6.49769314909e-10
8.6183712192e-08
1.07927150566e-07
1.12090692919e-09
0.00180223036896
0.00192946909846
0.00209998285932
6.01133078827e-10
8.70474972235e-08
1.05689595941e-07
9.74715852737e-10
0.00183765733699
0.00199875214115
0.0021547940545
5.91258250043e-10
7.83370752828e-08
1.05464819273e-07
1.02868932971e-09
0.00185976901059
0.00202572041496
0.00220794095442
6.07861963232e-10
6.04465723093e-08
9.05242949756e-08
1.67731983445e-09
0.00204177420011
0.00211994504744
0.00244693210762
8.93069617007e-10
6.34100138131e-08
7.71419465014e-08
1.82768844711e-08
0.00437588029136
0.00292197804432
0.00490879924375
9.3943001907e-09
1.01435843803e-06
2.00881474657e-07
1.24900130119e-06
0.0018236844693
0.00238217397493
1.51078443091e-09
1.3472671976e-07
8.83003923768e-10
0.001880678106
0.00223076367531
0.00217260137939
1.33604177244e-09
1.18454142442e-07
4.86528171204e-09
1.85506134434e-09
0.00184718054996
0.00217831015339
0.00216438710997
8.55009706838e-10
1.14301702461e-07
1.3171918319e-07
6.61650432856e-10
0.00177849988684
0.00197159804646
0.00208837756383
3.48373086866e-10
1.13689011557e-07
1.04309170487e-07
4.67270360771e-10
0.00176105866078
0.00193614355867
0.00206726937641
3.29211634151e-10
9.80080275317e-08
9.16173793029e-08
2.77086507816e-10
0.00178546655183
0.00196418004641
0.00208240951233
3.89142629462e-10
8.84610123026e-08
8.37578502743e-08
2.8648766436e-10
0.00185540942008
0.00195241693359
0.00212395695389
4.62523729007e-10
7.3974975988e-08
7.32049844292e-08
4.3743831758e-10
0.00213850517467
0.00205659526457
0.00239720234891
9.66005926385e-10
8.74137680737e-08
6.46740228709e-08
1.79596424697e-09
0.00474908098083
0.00289546462163
0.0049478671337
8.64591820635e-08
1.36346691304e-06
1.86477363681e-07
1.22435848216e-06
0.00195690987427
0.00197651418504
1.74983985374e-10
1.23065586015e-07
3.79461253075e-10
2.17849963052e-10
0.00185489607202
0.00235230904387
0.00200136978786
9.3480109945e-10
1.05325612429e-07
1.66308679069e-08
5.21854698299e-08
0.00185303651396
0.00177807021991
0.00185544542368
8.07302695369e-10
8.06277844596e-08
7.21350631556e-08
1.68733083491e-10
0.00173656680255
0.00190445734044
0.00204090462487
1.59308583201e-09
9.40285236919e-08
5.9465756248e-08
6.37446557481e-10
0.00175731131759
0.00163342099558
0.00192274363066
1.58080688229e-09
7.75809252585e-08
5.33859446809e-08
5.36249577431e-10
0.00200934102951
0.00165117440419
0.00207716053695
1.8772650833e-09
7.68354273906e-08
3.9055089846e-08
4.65608770229e-09
0.00447754679944
0.00234851106412
0.00420304117601
3.64715205638e-08
1.09089484834e-06
9.50285614313e-08
6.82929612285e-07
0.00137651718831
5.84629372664e-08
0.00128486568806
8.7660140826e-10
4.12465746668e-08
3.16734455256e-08
1.96938241317e-08
0.00125555821962
6.14623476503e-10
2.8538497743e-08
1.5560783598e-08
1.72006064827e-08
0.00269363089299
7.06795350592e-08
3.06736206571e-07
3.95452344348e-08
2.06920411728e-07
0.999996624318
0.999997366315
0.983489580938
0.988994252093
0.99999979921
0.992014953678
1
0.999999558188
0.999993819322
0.987912420185
0.987236569218
0.999996240644
0.999999873501
0.992637266295
0.999997094715
0.999996525766
0.987941099643
0.985679145282
0.999995337628
0.990362003255
0.999995183492
0.999996442448
0.99999775084
0.984493138251
0.990272777622
0.99999784107
0.994576722749
0.999995638419
0.999996456087
0.999993554747
0.984851498487
0.989981017435
0.999999408242
0.999996546381
0.990684258008
0.999998428758
0.999995167702
0.990846639014
0.988410190436
0.999999618974
0.999996798205
0.994254119947
0.999998701175
0.999996050047
0.991370475914
0.987847844309
0.999997587248
0.992690329978
0.999997174786
0.999998252972
0.999999333869
0.988403105627
0.993025080175
0.99999882883
0.996803346976
0.99999787269
0.999998229909
0.999994133391
0.988933105319
0.993484081703
0.999999620628
0.999996129584
0.994397159883
0.999999424757
0.999995457944
0.993648974289
0.991759115836
0.999999447901
0.999996489582
0.996639512501
0.999998230732
0.999997472344
0.99292459308
0.989410086529
0.999997705293
0.992970000646
0.999997306359
0.999994899003
0.999997827293
0.989489890169
0.993564553684
0.99999749774
0.996614239647
0.999999239039
0.999995391113
0.999995675432
0.99060766543
0.99460704684
0.999999435168
0.999995939183
0.994809247431
0.999995092234
0.999998463568
0.992475507543
0.991178656587
0.999995135532
0.999998711371
0.995907548866
0.999996499302
0.999995961221
0.993636382614
0.989591531552
0.999996594255
0.994187341445
0.999994347217
0.999998513909
0.999992834984
0.988967930302
0.992282127863
0.999998784787
0.996200657567
0.999993165879
0.999999037763
0.999998664709
0.988671822515
0.992960276131
0.999996807178
0.999998940573
0.993819166581
0.999999371668
0.999998657128
0.991334747335
0.987758508612
0.999998138064
0.999998522429
0.995285921556
0.999998712457
0.999996404547
0.991475477965
0.986907078881
0.99999914228
0.992093657512
0.999996120352
0.999999203476
0.999993819772
0.985937207046
0.991051299723
0.999999355407
0.995380063633
0.999993091103
0.999999248002
0.999996861286
0.986003882606
0.991238297454
0.999998313179
0.999997507504
0.991556550989
0.999999264781
0.999998429461
0.990249000015
0.985776875135
0.999997663454
0.999997707473
0.994304799739
0.999996527819
0.999995644856
0.989657598017
0.984894980575
0.999999439771
0.99112854484
0.999995709569
0.9999898392
0.999998502583
0.982181145224
0.98827519205
0.999997964688
0.994230989335
0.999998762472
0.999999077291
0.999996391664
0.984270912868
0.989669082609
0.999997738579
0.999996991713
0.990577645686
0.999996663189
0.999992872635
0.988015821482
0.983335094224
0.999993422916
0.999999749406
0.992883364171
0.999996833732
0.999998304772
0.986730991833
0.979981731327
0.999994844644
0.988266828345
0.999997929492
0.999996435832
0.999995350161
0.976325062772
0.984348596373
0.99999680508
0.991345258925
0.999992377454
0.999994744835
0.999990189514
0.980887392158
0.986457656801
0.99999731613
0.999994582655
0.98869211684
0.999999006501
0.999988829821
0.983793547288
0.978603403555
0.999996976763
0.99999169834
0.990881411867
0.999994245639
0.999991492982
0.980478602039
0.973825278624
0.999989165964
0.9843150742
0.999991472356
0.999993126801
0.999991916051
0.965500082546
0.968974222988
0.986834725047
0.999990922959
0.999986702554
0.999994271894
0.999987724171
0.973708693678
0.979657272816
0.999998810632
0.999988457535
0.984424217656
0.999998082735
0.999981010636
0.968733793933
0.967080061504
0.999985215345
0.985336629883
0.999998704078
0.99999882744
1.00000040458
0.995164499443
0.998507421292
0.999999544897
0.99855150131
0.999999552425
0.999998822617
0.999999848484
0.989191180555
0.994296731808
1
1
0.998955062453
0.999997719375
1.00000088125
0.995395567305
0.998266305094
1.00000036761
0.996178818103
0.999997515212
0.999998768166
1
0.991698629792
0.994053827877
1
1.00000081035
0.9961103028
1
1
0.988826498001
0.988134554416
1
1
0.991197208567
0.999998158923
0.999994663382
0.985734645973
0.992322580329
1
0.999999844785
0.995485244984
0.999998929715
1
0.986678151927
0.994670203498
1
1
0.990704540527
0.999999477065
0.999999348747
0.990337895532
0.989595494879
0.999998535062
0.9999988622
0.9941328037
0.999999573065
0.999995431762
0.989970607154
0.988954126535
0.999995976966
0.999999762093
0.992970617817
0.999999696955
0.999995206234
0.988196345884
0.993146199992
0.999994965718
0.99999967885
0.996791657683
0.999999710447
0.999998398389
0.987119463891
0.993346239843
0.999998742559
0.999998041376
0.991887381845
0.999999726145
0.999999489059
0.991803673258
0.989224309153
0.999999125592
0.999998863497
0.995287991113
0.999999720826
0.999996980395
0.993162093382
0.990273874735
0.999996576541
0.999999520778
0.994457151499
0.999999365627
0.999995543441
0.990886542915
0.994581557859
0.999995475325
0.999999553677
0.997834635708
0.999999587839
0.99999853545
0.988789747689
0.993664835056
0.999999447535
0.999998397721
0.993303309204
0.999999640285
0.999999640285
0.993136558646
0.989912256749
0.999998799279
0.999998864726
0.996270560265
0.999999463227
0.999996760283
0.994098798128
0.990928677749
0.999997099541
0.999999448939
0.994680677402
0.999999318872
0.999999439427
0.989942571897
0.994148016701
0.999997874484
0.999999157149
0.997304403129
0.999999337412
0.999998974132
0.989423155966
0.993520240206
0.999998976533
0.999998302897
0.993498047788
0.999999467952
0.999999252443
0.992660601661
0.98891907432
0.999998731603
0.999998608409
0.995786745164
0.999998523461
0.999995610193
0.991339618196
0.989070798367
0.999996755441
0.999998710831
0.991697245927
0.999998664506
0.999997526689
0.986320656945
0.99256125507
0.999998286029
0.999998830649
0.995767679092
0.999999135823
0.999998856307
0.987986575052
0.993036736451
0.999998545315
0.999998574473
0.992058221873
0.999999223444
0.999999109321
0.991579369398
0.987873406997
0.999998064483
0.999997960216
0.994821269562
0.999998173165
0.999994787165
0.989792391917
0.986717394852
0.999995985809
0.999997936247
0.989834308339
0.999998390013
0.999997486589
0.98395068108
0.991257631173
0.999997819285
0.999998891749
0.994869900116
0.999998608342
0.999998238352
0.98613810034
0.991739581497
0.999997720318
0.999998063883
0.990764808942
0.99999905158
0.999998932775
0.990289595608
0.985725469311